FOO
138240
    1MOL0     O    1   3.028   5.164   7.437 -0.1158  0.0396 -0.2899
    1MOL0     C    2   3.003   5.130   7.317  0.2890  0.2034 -0.1507
    1MOL0     O    3   3.081   5.155   7.207  0.0874  0.4037  0.5964
    1MOL0     C    4   3.202   5.218   7.234 -0.2372 -0.7215  0.1533
    1MOL0     C    5   3.312   5.144   7.298 -1.1654 -0.5671 -0.8270
    1MOL0     C    6   3.434   5.220   7.338  0.5951  0.5558  0.1395
    1MOL0     C    7   3.440   5.353   7.308 -0.3120  0.2703 -0.2357
    1MOL0     O    8   3.543   5.437   7.341  0.2659 -0.3541  0.5116
    1MOL0     C    9   3.655   5.386   7.404  0.4307 -0.1339 -0.0360
    1MOL0     C   10   3.631   5.344   7.547  0.5116  0.0769 -0.5037
    1MOL0     C   11   3.677   5.440   7.659 -0.3675  0.3745 -0.2664
    1MOL0     C   12   3.568   5.547   7.672  0.2725 -0.6667 -0.4904
    1MOL0     C   13   3.627   5.681   7.720  0.4418 -0.2823 -0.1989
    1MOL0     C   14   3.521   5.797   7.718  0.4918 -0.0874 -0.7026
    1MOL0     C   15   3.593   5.926   7.748 -0.6848  0.4555 -0.1806
    1MOL0     C   16   3.507   6.057   7.766  0.3953  0.0914 -0.0193
    1MOL0     N   17   3.405   6.070   7.654  0.5744  0.0197 -0.4007
    1MOL0     C   18   3.411   6.021   7.522 -0.5700 -0.8946 -0.4402
    1MOL0     C   19   3.296   6.045   7.466  0.5578  0.1082 -0.4102
    1MOL0     C   20   3.261   6.030   7.322 -0.0815 -0.7844 -0.4359
    1MOL0     C   21   3.355   6.103   7.237 -0.7179  0.2342 -0.3690
    1MOL0     C   22   3.294   6.096   7.098 -0.4086 -0.5105 -0.1832
    1MOL0     C   23   3.393   6.153   6.993  0.8680 -0.2808  0.5683
    1MOL0     O   24   3.329   6.108   6.878 -0.5900  0.6599  0.1988
    1MOL0     C   25   3.372   6.159   6.762  0.0596  0.5647  0.6250
    1MOL0     C   26   3.508   6.199   6.741 -0.1153 -0.2861 -0.7559
    1MOL0     C   27   3.550   6.235   6.607 -0.3376 -0.1128 -0.2988
    1MOL0     C   28   3.466   6.222   6.498  0.0331  0.5192  0.4459
    1MOL0     C   29   3.511   6.249   6.360  0.3086 -0.4445  0.4884
    1MOL0     O   30   3.638   6.211   6.327 -0.1908 -0.4028 -0.0321
    1MOL0     C   31   3.696   6.230   6.202 -0.2136 -0.0339  0.1182
    1MOL0     C   32   3.841   6.239   6.192  0.4371 -0.1234 -0.6662
    1MOL0     C   33   3.904   6.259   6.068  0.3032  0.1336  0.2709
    1MOL0     C   34   3.832   6.279   5.948  0.4252  0.6848 -0.3048
    1MOL0     O   35   3.901   6.309   5.834 -0.9782 -0.1076 -0.0918
    1MOL0     C   36   4.042   6.313   5.834  0.4030 -0.0962 -0.3221
    1MOL0     C   37   4.094   6.358   5.695  0.1435  0.3013  0.3623
    1MOL0     C   38   4.240   6.320   5.696 -0.7175 -0.7554  0.9488
    1MOL0     C   39   4.306   6.320   5.563 -0.2874 -0.5859 -0.0287
    1MOL0     C   40   4.459   6.369   5.575  0.3174 -0.7422 -0.1135
    1MOL0     C   41   4.535   6.251   5.630  0.0927 -0.2641  0.3898
    1MOL0     C   42   4.687   6.264   5.618  0.5077 -0.1541 -0.6078
    1MOL0     C   43   4.741   6.398   5.668  0.8084  0.4706 -0.4372
    1MOL0    Cl   44   4.913   6.390   5.727 -0.2654  0.0056  0.1873
    1MOL0     C   45   3.691   6.270   5.953  0.1148 -0.0608  0.3847
    1MOL0     C   46   3.629   6.242   6.080  0.4070  0.5002  0.6550
    1MOL0     O   47   3.434   6.316   6.288 -0.0465  0.3606  0.0483
    1MOL0     C   48   3.341   6.162   6.518  0.3706 -0.1025 -0.0530
    1MOL0     C   49   3.295   6.146   6.650  0.4146 -0.0954  0.3485
    1MOL0     N   50   3.209   6.106   7.566  0.0097  0.4003 -0.4150
    1MOL0     N   51   3.277   6.126   7.679 -0.3184 -0.6074  0.8991
    1MOL0     C   52   3.341   5.410   7.234 -0.3427  0.2164  0.6007
    1MOL0     C   53   3.223   5.353   7.203 -0.5285 -0.6674 -0.4967
    1MOL0     C   54   2.874   5.065   7.286  0.1850  0.7499  0.1721
    1MOL0     C   55   2.868   4.984   7.169 -0.3971 -0.6023  0.0538
    1MOL0     C   56   2.753   4.917   7.125  0.1774  0.0604 -0.2060
    1MOL0     C   57   2.644   4.917   7.203 -0.8067  0.1415 -0.7285
    1MOL0     O   58   2.536   4.853   7.146  0.1072  0.0389 -0.6998
    1MOL0     C   59   2.414   4.847   7.226 -0.9381  0.2878 -0.1897
    1MOL0     C   60   2.313   4.756   7.158  0.5347 -0.1933  0.4348
    1MOL0     C   61   2.227   4.819   7.041 -0.5535  0.3450 -0.8708
    1MOL0     C   62   2.166   4.722   6.945 -0.4796  0.0142  0.3682
    1MOL0     C   63   2.098   4.613   7.012 -0.0607  0.2293  0.0070
    1MOL0     C   64   2.065   4.519   7.076  0.6091  0.4275  0.2240
    1MOL0     C   65   2.646   5.006   7.316  0.2243  0.7468 -0.3896
    1MOL0     C   66   2.755   5.075   7.358 -0.1362  0.1262 -0.1714
    1MOL0     C   67   2.729   5.181   7.468  0.3694  0.6312 -0.1637
    1MOL0     H   68   3.304   5.040   7.329  1.4545 -0.2364  1.3074
    1MOL0     H   69   3.508   5.167   7.397 -2.0514 -2.0193  1.4657
    1MOL0     H   70   3.698   5.302   7.349  0.6578 -0.3823  0.5183
    1MOL0     H   71   3.727   5.468   7.404 -0.3457  0.5715 -0.3833
    1MOL0     H   72   3.703   5.265   7.574 -0.5710  0.1876  3.3710
    1MOL0     H   73   3.531   5.303   7.561  0.2164 -0.0015 -2.6402
    1MOL0     H   74   3.774   5.490   7.646 -0.7230  1.2027  0.2074
    1MOL0     H   75   3.686   5.384   7.753  3.6563  1.0208 -0.0870
    1MOL0     H   76   3.516   5.571   7.579  0.6586  1.2123 -0.2524
    1MOL0     H   77   3.491   5.519   7.745 -0.5590 -1.2366 -1.5392
    1MOL0     H   78   3.660   5.671   7.823  1.0498 -0.1952 -0.3851
    1MOL0     H   79   3.717   5.705   7.663  1.5795 -1.0881  1.2225
    1MOL0     H   80   3.455   5.798   7.631 -1.3349  1.3192  0.6163
    1MOL0     H   81   3.454   5.781   7.803  1.3121 -2.1999 -0.4035
    1MOL0     H   82   3.669   5.943   7.671 -0.4287  0.4513  0.0681
    1MOL0     H   83   3.642   5.900   7.842 -0.0653  0.4744 -0.4925
    1MOL0     H   84   3.455   6.042   7.861  0.9655  1.1496  0.4838
    1MOL0     H   85   3.562   6.148   7.790  0.1167  0.7910 -1.8453
    1MOL0     H   86   3.501   5.973   7.484  2.6322 -0.0369  4.9810
    1MOL0     H   87   3.238   5.927   7.295 -3.2557  0.3995 -2.9693
    1MOL0     H   88   3.168   6.086   7.309  1.0030  1.5664  1.1777
    1MOL0     H   89   3.369   6.207   7.269 -0.0431 -0.0637  0.3230
    1MOL0     H   90   3.455   6.060   7.245 -0.8607 -0.7011 -2.7927
    1MOL0     H   91   3.193   6.139   7.098 -0.4675 -0.5468 -2.2487
    1MOL0     H   92   3.289   5.990   7.071  1.7444 -0.3242 -1.5829
    1MOL0     H   93   3.492   6.108   7.007 -0.1174 -3.4754 -1.4701
    1MOL0     H   94   3.395   6.262   7.002 -2.3184  0.0362 -0.9584
    1MOL0     H   95   3.580   6.209   6.822 -1.3822 -1.3835  0.5422
    1MOL0     H   96   3.647   6.284   6.596 -0.0982  0.3209  2.7977
    1MOL0     H   97   3.899   6.215   6.281 -2.3853 -0.2136  1.2872
    1MOL0     H   98   4.012   6.253   6.075  0.8658  3.0216 -3.1001
    1MOL0     H   99   4.082   6.372   5.917 -2.3958 -1.7210  2.3587
    1MOL0     H  100   4.066   6.207   5.843 -1.7854 -0.7771 -1.7298
    1MOL0     H  101   4.041   6.308   5.613 -1.2708 -1.5856  2.2978
    1MOL0     H  102   4.088   6.467   5.690  0.2742  0.4135  1.9394
    1MOL0     H  103   4.293   6.387   5.764  2.2047  0.1586 -1.9748
    1MOL0     H  104   4.237   6.217   5.732 -0.5322 -0.9823  0.3273
    1MOL0     H  105   4.263   6.391   5.492 -0.1558 -0.4219  0.0542
    1MOL0     H  106   4.306   6.221   5.517 -0.1430 -1.8791  2.5760
    1MOL0     H  107   4.463   6.453   5.645 -1.4890  0.5294 -1.4213
    1MOL0     H  108   4.506   6.385   5.477 -0.6261 -1.3232 -0.6769
    1MOL0     H  109   4.497   6.251   5.732  0.3704 -0.6846  0.4939
    1MOL0     H  110   4.500   6.159   5.583  0.3927 -0.3799  0.3890
    1MOL0     H  111   4.721   6.242   5.516 -0.2042  0.4369 -0.9806
    1MOL0     H  112   4.721   6.185   5.686 -1.5634  1.0855  2.0859
    1MOL0     H  113   4.719   6.478   5.597 -0.6055 -0.3080 -0.9188
    1MOL0     H  114   4.689   6.423   5.761  0.9547  3.0929 -0.9938
    1MOL0     H  115   3.632   6.296   5.866  0.4585  1.4233  0.5707
    1MOL0     H  116   3.520   6.236   6.078  0.4515 -0.1266 -0.2021
    1MOL0     H  117   3.286   6.150   6.425  1.0719  0.1301 -0.5117
    1MOL0     H  118   3.192   6.118   6.668  0.3080 -0.0219 -0.1187
    1MOL0     H  119   3.358   5.514   7.207 -0.2059 -0.2985 -1.3974
    1MOL0     H  120   3.138   5.413   7.171  0.2741 -0.6727 -2.7867
    1MOL0     H  121   2.954   4.970   7.103 -0.9636  2.6789 -1.5900
    1MOL0     H  122   2.742   4.846   7.044  3.4963 -1.4994  0.5614
    1MOL0     H  123   2.366   4.943   7.250 -1.4162 -0.3647  1.6448
    1MOL0     H  124   2.421   4.787   7.317 -4.4198  0.9363  0.6795
    1MOL0     H  125   2.246   4.714   7.234  1.6682  0.5317  1.8716
    1MOL0     H  126   2.365   4.669   7.116 -1.9574 -2.0826  0.9704
    1MOL0     H  127   2.294   4.886   6.987 -0.5214  2.2956  1.4244
    1MOL0     H  128   2.147   4.879   7.084 -1.0396 -0.6642 -0.3333
    1MOL0     H  129   2.094   4.761   6.872 -2.4600 -1.0729  1.6375
    1MOL0     H  130   2.251   4.691   6.884 -1.1450 -0.4303 -0.3524
    1MOL0     H  131   2.040   4.444   7.149 -0.1209  2.3454  2.0200
    1MOL0     H  132   2.548   5.025   7.357 -0.4660  0.2193 -1.7272
    1MOL0     H  133   2.744   5.127   7.562 -2.0882 -1.9191 -1.0658
    1MOL0     H  134   2.795   5.267   7.456  0.1116  0.8124 -0.2902
    1MOL0     H  135   2.628   5.223   7.460  0.4602  0.9670  0.4061
    2MOL0     O  136  11.039   9.777  10.884 -0.8387  0.3055  0.3629
    2MOL0     C  137  11.153   9.825  10.855 -0.3195 -1.1776  0.5192
    2MOL0     O  138  11.169   9.934  10.775 -0.0758 -0.7398  0.3527
    2MOL0     C  139  11.054  10.004  10.741 -0.3004  0.0493 -0.2082
    2MOL0     C  140  11.023  10.110  10.828 -0.6711 -1.1850 -0.3616
    2MOL0     C  141  10.899  10.168  10.819 -0.5081 -0.3735 -0.0584
    2MOL0     C  142  10.807  10.126  10.722 -0.0773  0.2414  0.1202
    2MOL0     O  143  10.681  10.184  10.736  0.3232  0.2398 -0.2701
    2MOL0     C  144  10.575  10.115  10.669  0.1742  0.2656  0.2247
    2MOL0     C  145  10.441  10.140  10.750 -0.1299 -0.3311 -0.2536
    2MOL0     C  146  10.332  10.110  10.638 -0.6365  0.2646  0.5857
    2MOL0     C  147  10.187  10.155  10.674 -0.8836  0.2467 -0.4443
    2MOL0     C  148  10.093  10.091  10.566  0.4352 -0.8562  0.8233
    2MOL0     C  149   9.949  10.086  10.625 -0.3670  0.2148  0.9992
    2MOL0     C  150   9.836  10.038  10.529  0.4980  0.3936 -0.4024
    2MOL0     C  151   9.715  10.020  10.623 -0.0280  0.0390  0.1197
    2MOL0     N  152   9.589   9.983  10.561 -0.9534  0.6090  0.4064
    2MOL0     C  153   9.504   9.891  10.607  0.5598  0.2656  0.1538
    2MOL0     C  154   9.419   9.872  10.505  0.2276 -0.2289  0.3459
    2MOL0     C  155   9.313   9.768  10.502 -0.6176  0.5457 -0.1534
    2MOL0     C  156   9.177   9.832  10.533 -0.5559  0.8066 -1.2071
    2MOL0     C  157   9.120   9.910  10.403 -0.5858  0.7598 -0.3960
    2MOL0     C  158   8.964   9.942  10.407 -0.6881  0.2716 -0.1535
    2MOL0     O  159   8.929  10.006  10.281 -0.1760 -0.1069  0.0717
    2MOL0     C  160   8.892   9.920  10.173 -0.1560 -0.1722 -0.7051
    2MOL0     C  161   8.828   9.980  10.060 -0.0730  0.3513 -0.4836
    2MOL0     C  162   8.745   9.906   9.978  0.3755 -0.7465 -0.1557
    2MOL0     C  163   8.725   9.769   9.982  0.5178  0.1642 -0.3358
    2MOL0     C  164   8.629   9.697   9.896  0.5603 -0.0487 -0.3782
    2MOL0     O  165   8.628   9.563   9.927  0.3299  0.9701  0.2007
    2MOL0     C  166   8.557   9.489   9.836  0.2247  0.4616  0.0839
    2MOL0     C  167   8.582   9.496   9.697 -0.2468 -0.1933  0.8929
    2MOL0     C  168   8.522   9.404   9.606  0.1950  0.0801 -0.4591
    2MOL0     C  169   8.432   9.309   9.659 -0.7160 -0.4264 -0.0441
    2MOL0     O  170   8.368   9.208   9.582  0.3389 -0.3754 -0.1384
    2MOL0     C  171   8.397   9.193   9.437  0.7952 -0.5188 -0.6083
    2MOL0     C  172   8.315   9.077   9.386 -0.1248  0.9248  0.0578
    2MOL0     C  173   8.162   9.100   9.382 -0.1480 -0.9999 -1.0096
    2MOL0     C  174   8.107   9.201   9.279 -0.7243 -0.0730  0.8939
    2MOL0     C  175   7.966   9.260   9.315 -0.0089  0.2312 -0.3701
    2MOL0     C  176   7.848   9.158   9.329 -0.8013 -0.2137  0.2256
    2MOL0     C  177   7.712   9.223   9.364  0.9706 -0.3206 -0.1068
    2MOL0     C  178   7.590   9.142   9.318 -0.0144  0.5599  0.7090
    2MOL0    Cl  179   7.609   8.963   9.357  0.0676  0.2032  0.2176
    2MOL0     C  180   8.398   9.312   9.793  0.3050  0.4489 -0.0319
    2MOL0     C  181   8.460   9.396   9.882  0.7890 -0.0153  0.4306
    2MOL0     O  182   8.583   9.756   9.798  0.6983 -0.1136  0.3332
    2MOL0     C  183   8.807   9.705  10.078  0.1456  0.0148  1.1676
    2MOL0     C  184   8.883   9.777  10.172 -1.0465  0.0739  0.5513
    2MOL0     N  185   9.445   9.952  10.402  1.0046 -0.3156  0.4858
    2MOL0     N  186   9.544  10.019  10.436  0.3200 -0.5247 -0.1315
    2MOL0     C  187  10.847  10.038  10.626 -0.4204  0.5120  0.3010
    2MOL0     C  188  10.973   9.976  10.634 -0.2483 -0.4720 -0.0646
    2MOL0     C  189  11.271   9.748  10.909 -0.0282  0.1065 -0.0293
    2MOL0     C  190  11.251   9.613  10.959  0.2410 -0.2865 -0.0340
    2MOL0     C  191  11.364   9.526  10.993 -0.4166 -1.0024 -0.4438
    2MOL0     C  192  11.496   9.576  10.981  0.3889  0.6695  1.0090
    2MOL0     O  193  11.602   9.496  11.007  0.8952  0.3397 -0.4105
    2MOL0     C  194  11.589   9.356  11.028  0.4765  0.3332  0.8074
    2MOL0     C  195  11.718   9.286  11.072  0.2317 -1.2558 -0.2147
    2MOL0     C  196  11.714   9.140  11.029  0.7215 -0.2384  0.0636
    2MOL0     C  197  11.603   9.064  11.101  0.6590 -0.9792  0.1763
    2MOL0     C  198  11.601   8.937  11.030  0.5832 -0.6219  0.7124
    2MOL0     C  199  11.611   8.829  10.974 -0.1117 -0.0129  0.7007
    2MOL0     C  200  11.508   9.713  10.960 -0.4580 -0.6609  0.3417
    2MOL0     C  201  11.401   9.797  10.925  0.0123  0.1297 -0.4620
    2MOL0     C  202  11.431   9.946  10.908 -0.0989  0.9159  0.1962
    2MOL0     H  203  11.083  10.137  10.915 -1.0530  1.1730 -0.7532
    2MOL0     H  204  10.855  10.229  10.898 -0.9488 -1.5555  0.6315
    2MOL0     H  205  10.569  10.162  10.570  2.9222  3.1360  1.2774
    2MOL0     H  206  10.592  10.007  10.666  1.0313  0.4023 -2.2548
    2MOL0     H  207  10.430  10.244  10.782 -1.1911 -0.0097 -1.5470
    2MOL0     H  208  10.434  10.066  10.830 -1.3318 -2.5526 -2.2593
    2MOL0     H  209  10.335  10.004  10.611  0.2727  0.8650 -1.9871
    2MOL0     H  210  10.351  10.158  10.541 -1.5930  0.6184  0.5658
    2MOL0     H  211  10.163  10.115  10.773 -2.0764 -1.5344 -1.3879
    2MOL0     H  212  10.185  10.264  10.674  2.5207  0.4224 -0.7469
    2MOL0     H  213  10.087  10.153  10.476  0.6863 -0.9283  0.7580
    2MOL0     H  214  10.119   9.989  10.536 -0.2702  0.0387 -3.5626
    2MOL0     H  215   9.966  10.009  10.702 -1.5833 -0.6889  0.3969
    2MOL0     H  216   9.925  10.180  10.676  1.3071  0.2596  1.7931
    2MOL0     H  217   9.866   9.945  10.480 -1.9777 -1.1644  0.7903
    2MOL0     H  218   9.819  10.121  10.460  1.2239  2.7796  2.0769
    2MOL0     H  219   9.734   9.952  10.706 -1.3470  0.3847  0.7399
    2MOL0     H  220   9.700  10.117  10.673  0.1070  1.4688 -2.4289
    2MOL0     H  221   9.504   9.829  10.695  2.2502  1.3600  0.9728
    2MOL0     H  222   9.313   9.710  10.409 -1.7972  0.4006 -0.0857
    2MOL0     H  223   9.322   9.687  10.576 -0.6294 -1.4668 -2.2403
    2MOL0     H  224   9.109   9.751  10.558 -0.4099  0.7544 -0.9837
    2MOL0     H  225   9.186   9.901  10.617  1.1816  1.1518 -1.6251
    2MOL0     H  226   9.134   9.834  10.326 -0.3170  1.9833 -1.6092
    2MOL0     H  227   9.188   9.992  10.379  2.4055 -1.5703 -0.4260
    2MOL0     H  228   8.948  10.013  10.489 -2.9718 -0.8001  0.4041
    2MOL0     H  229   8.906   9.852  10.427 -0.0693 -0.0124  0.4394
    2MOL0     H  230   8.822  10.089  10.058 -2.3019  0.3028  0.4242
    2MOL0     H  231   8.685   9.959   9.905  1.5903  1.1658  0.1713
    2MOL0     H  232   8.666   9.545   9.650 -0.3481 -0.3342  0.5646
    2MOL0     H  233   8.561   9.403   9.505  3.2911  1.8871  0.5644
    2MOL0     H  234   8.358   9.282   9.388 -3.0506 -1.9718 -0.5350
    2MOL0     H  235   8.504   9.185   9.414  1.2405 -1.6567  1.5385
    2MOL0     H  236   8.355   9.059   9.286 -0.9504  1.3629 -0.3545
    2MOL0     H  237   8.337   8.990   9.449 -0.4149  2.0632  1.8150
    2MOL0     H  238   8.110   9.004   9.377 -0.8727 -0.5536 -2.2762
    2MOL0     H  239   8.142   9.147   9.479 -2.0546  1.3230 -2.4146
    2MOL0     H  240   8.097   9.150   9.182  2.5079  0.9614 -0.1087
    2MOL0     H  241   8.182   9.279   9.264 -0.6328  1.0968  5.9347
    2MOL0     H  242   7.935   9.334   9.240 -0.5753 -1.0560 -1.4473
    2MOL0     H  243   7.983   9.302   9.415  0.9042  0.8745 -0.7835
    2MOL0     H  244   7.846   9.105   9.234  2.1321  2.8757 -1.8160
    2MOL0     H  245   7.873   9.083   9.404  0.9171  0.4049  0.3010
    2MOL0     H  246   7.697   9.319   9.314  3.0944  0.0038 -0.2240
    2MOL0     H  247   7.702   9.249   9.470 -1.4124  0.3219 -0.4180
    2MOL0     H  248   7.501   9.190   9.359 -0.5629  0.9326 -0.8334
    2MOL0     H  249   7.591   9.140   9.209 -0.0222 -0.8736  0.7080
    2MOL0     H  250   8.318   9.245   9.823 -2.9204  2.9803 -2.1858
    2MOL0     H  251   8.440   9.386   9.988  0.4446  0.2378  0.3884
    2MOL0     H  252   8.800   9.598  10.094  1.8028 -0.1377  1.0321
    2MOL0     H  253   8.939   9.717  10.243 -0.1224 -0.7609 -0.8159
    2MOL0     H  254  10.790  10.015  10.536 -4.2180  3.2007  1.7563
    2MOL0     H  255  10.993   9.899  10.561 -1.4776 -0.2806 -0.6347
    2MOL0     H  256  11.151   9.574  10.944 -0.4837  1.3515  0.2416
    2MOL0     H  257  11.361   9.419  11.011 -1.1478 -0.7662  0.9793
    2MOL0     H  258  11.543   9.316  10.937 -0.3329  2.3255  0.2862
    2MOL0     H  259  11.530   9.341  11.119 -0.5837  1.3652  0.3199
    2MOL0     H  260  11.737   9.302  11.179  0.9734  4.9240 -0.9119
    2MOL0     H  261  11.800   9.334  11.019 -0.1440  0.3284  0.5688
    2MOL0     H  262  11.811   9.092  11.046  1.5905  0.5717 -2.1743
    2MOL0     H  263  11.695   9.137  10.921  1.9884  1.2203 -0.2432
    2MOL0     H  264  11.621   9.053  11.209 -1.2981  0.6751  0.7221
    2MOL0     H  265  11.509   9.117  11.085 -0.6362 -2.0344  3.4468
    2MOL0     H  266  11.633   8.746  10.910 -1.8878  1.5706 -2.1290
    2MOL0     H  267  11.606   9.756  10.977  0.8628 -1.7921 -3.5151
    2MOL0     H  268  11.343  10.010  10.919 -1.4722 -1.1230  1.5299
    2MOL0     H  269  11.505   9.961  10.987  1.2853  2.2377 -1.2642
    2MOL0     H  270  11.482   9.982  10.818 -0.0153 -0.6631 -0.4157
    3MOL0     O  271   7.381   5.423   3.264  0.0559  0.0374 -0.6608
    3MOL0     C  272   7.309   5.455   3.172  0.0967 -0.2288  0.3981
    3MOL0     O  273   7.361   5.495   3.047  0.9408 -0.0791  0.5219
    3MOL0     C  274   7.489   5.532   3.020 -0.5187  0.2795  0.7670
    3MOL0     C  275   7.513   5.557   2.884 -0.2086  0.0990  0.7102
    3MOL0     C  276   7.638   5.608   2.834 -0.2035 -0.4864 -0.1141
    3MOL0     C  277   7.747   5.629   2.920  0.0100 -0.4449 -0.5061
    3MOL0     O  278   7.865   5.680   2.883 -0.1264  0.4376 -0.1394
    3MOL0     C  279   7.888   5.720   2.749  0.5575  0.2948 -0.1815
    3MOL0     C  280   8.024   5.795   2.748  0.5570 -0.2880 -0.1095
    3MOL0     C  281   8.137   5.692   2.744 -0.4684 -0.5154 -0.2238
    3MOL0     C  282   8.272   5.766   2.725  0.0985 -0.2125  0.4858
    3MOL0     C  283   8.411   5.700   2.743  0.7879 -0.8568  0.2147
    3MOL0     C  284   8.530   5.788   2.717 -0.3208  0.2214 -0.3124
    3MOL0     C  285   8.659   5.710   2.686  0.1156  0.3160 -0.0550
    3MOL0     C  286   8.719   5.618   2.795  0.2208  0.0427 -0.7140
    3MOL0     N  287   8.843   5.551   2.750 -0.8114  0.2015  0.4539
    3MOL0     C  288   8.960   5.614   2.707 -0.4216  0.6191 -0.1236
    3MOL0     C  289   9.039   5.512   2.655  1.1791 -0.3891  0.6068
    3MOL0     C  290   9.177   5.512   2.575 -0.2783  1.2165  0.2549
    3MOL0     C  291   9.148   5.517   2.430 -0.1319  0.7484  0.1859
    3MOL0     C  292   9.277   5.542   2.343 -0.4217 -0.0238 -0.3015
    3MOL0     C  293   9.358   5.414   2.319  0.5861  0.1111 -0.7340
    3MOL0     O  294   9.466   5.444   2.227  0.1117 -0.7019  0.4590
    3MOL0     C  295   9.553   5.347   2.185  0.1004 -0.2480  0.2149
    3MOL0     C  296   9.538   5.211   2.209  0.3090  0.3265 -0.2360
    3MOL0     C  297   9.617   5.113   2.145  0.7854  0.0975  0.1118
    3MOL0     C  298   9.721   5.154   2.058 -1.0416  0.0904  0.1916
    3MOL0     C  299   9.801   5.061   1.972 -0.0378  0.2256  0.3851
    3MOL0     O  300   9.848   5.113   1.852  0.1846 -0.3547  0.6567
    3MOL0     C  301   9.889   5.013   1.760  0.1343  0.1722 -0.0634
    3MOL0     C  302  10.017   4.999   1.701  0.1124 -0.6270  0.2279
    3MOL0     C  303  10.054   4.894   1.619 -0.6772 -0.0344 -0.3368
    3MOL0     C  304   9.960   4.804   1.585  0.3094 -0.2382  0.7595
    3MOL0     O  305   9.987   4.706   1.499  0.2199 -0.0210 -0.0922
    3MOL0     C  306  10.110   4.705   1.433  0.1661 -0.3467  0.1763
    3MOL0     C  307  10.117   4.610   1.319  1.1658 -0.2109 -0.3165
    3MOL0     C  308  10.228   4.651   1.209 -0.1875 -0.6246  0.4010
    3MOL0     C  309  10.374   4.619   1.257  0.0903 -0.1176  0.4852
    3MOL0     C  310  10.482   4.668   1.170 -0.1802 -0.0198  0.1397
    3MOL0     C  311  10.618   4.644   1.218 -1.0432  0.5179  0.3046
    3MOL0     C  312  10.730   4.691   1.122 -0.4793 -0.0234 -0.0348
    3MOL0     C  313  10.735   4.843   1.104 -0.5968  0.8233 -0.3596
    3MOL0    Cl  314  10.774   4.906   1.264  0.3398  0.1075 -0.3110
    3MOL0     C  315   9.826   4.816   1.639  0.0139  0.0765  0.4142
    3MOL0     C  316   9.791   4.917   1.727  0.2760  0.2242  0.1816
    3MOL0     O  317   9.806   4.947   2.001  0.2120  0.5975  0.1850
    3MOL0     C  318   9.742   5.297   2.043  0.0419  1.1718 -0.3677
    3MOL0     C  319   9.660   5.389   2.101  0.1863 -0.1581  0.3387
    3MOL0     N  320   8.967   5.391   2.667 -0.0871  0.1956 -0.3252
    3MOL0     N  321   8.851   5.419   2.724  0.0554 -0.9998  0.0696
    3MOL0     C  322   7.722   5.596   3.057  0.1055  0.5938  0.3248
    3MOL0     C  323   7.601   5.553   3.101 -1.1968 -0.0725  0.2661
    3MOL0     C  324   7.163   5.438   3.183  0.0260  0.2359 -0.9446
    3MOL0     C  325   7.088   5.392   3.073  0.5565 -0.4597  0.5100
    3MOL0     C  326   6.952   5.377   3.075  0.5913  0.5609  0.9516
    3MOL0     C  327   6.879   5.408   3.189  0.0089 -0.5393 -0.4935
    3MOL0     O  328   6.736   5.410   3.210 -0.2892  0.6349 -0.0940
    3MOL0     C  329   6.656   5.323   3.124 -0.2418  0.2194 -0.2655
    3MOL0     C  330   6.510   5.373   3.135  0.2156 -0.0264 -0.7538
    3MOL0     C  331   6.494   5.518   3.086 -0.9668  0.0244  0.2375
    3MOL0     C  332   6.488   5.525   2.937 -0.0823 -0.2101  0.9347
    3MOL0     C  333   6.455   5.659   2.887  0.3624  0.6284 -0.3756
    3MOL0     C  334   6.428   5.770   2.848  1.2672  0.0466 -0.3472
    3MOL0     C  335   6.946   5.456   3.303  0.2647 -0.1433 -0.0213
    3MOL0     C  336   7.087   5.460   3.307  0.1130 -0.2089  0.1541
    3MOL0     C  337   7.155   5.520   3.427  0.5201 -0.1762 -0.1812
    3MOL0     H  338   7.425   5.539   2.822  0.1505  2.1036 -0.4828
    3MOL0     H  339   7.651   5.627   2.727  0.0058  1.0549  0.1571
    3MOL0     H  340   7.889   5.641   2.674  5.0142 -0.5782  0.5093
    3MOL0     H  341   7.802   5.773   2.706 -0.7856 -2.3349 -0.9316
    3MOL0     H  342   8.026   5.849   2.843  1.4759 -0.0192 -0.2735
    3MOL0     H  343   8.025   5.866   2.665 -2.8612  2.0345  1.5605
    3MOL0     H  344   8.136   5.628   2.655 -0.5718  0.5004 -0.9800
    3MOL0     H  345   8.137   5.636   2.837  0.3149  1.3141  0.9277
    3MOL0     H  346   8.268   5.807   2.624 -0.3041 -5.2151 -1.8353
    3MOL0     H  347   8.265   5.860   2.782  0.3149  0.0759  0.0401
    3MOL0     H  348   8.420   5.661   2.844 -0.8692 -0.7980  0.3994
    3MOL0     H  349   8.409   5.617   2.672  0.2774  1.7388 -3.0728
    3MOL0     H  350   8.506   5.843   2.626 -3.3635  1.3788  1.0402
    3MOL0     H  351   8.549   5.862   2.795  4.1506 -0.6919 -0.2713
    3MOL0     H  352   8.735   5.777   2.644 -2.9316  2.8025 -2.0132
    3MOL0     H  353   8.632   5.650   2.598  1.4339  1.8975 -1.6307
    3MOL0     H  354   8.749   5.676   2.883 -1.7082 -1.8300  1.3109
    3MOL0     H  355   8.647   5.544   2.830 -2.7591  2.0481 -2.1400
    3MOL0     H  356   8.975   5.722   2.707 -0.5349  0.7114 -3.0095
    3MOL0     H  357   9.237   5.600   2.598 -0.0819  1.7901 -2.1585
    3MOL0     H  358   9.240   5.432   2.616  2.9423  3.5232  0.1528
    3MOL0     H  359   9.096   5.428   2.394  0.2217  0.9968 -0.9669
    3MOL0     H  360   9.083   5.603   2.411  3.6211  4.1422  1.1115
    3MOL0     H  361   9.348   5.617   2.380 -0.3815 -1.5743  3.1720
    3MOL0     H  362   9.245   5.566   2.241  0.5461  2.9463 -0.0030
    3MOL0     H  363   9.293   5.334   2.282 -0.3179  1.2915 -1.8276
    3MOL0     H  364   9.399   5.375   2.412 -0.2590 -0.9175 -0.7754
    3MOL0     H  365   9.446   5.174   2.253 -1.1886  1.5061 -2.1614
    3MOL0     H  366   9.597   5.007   2.153  2.4222 -0.1256  1.9249
    3MOL0     H  367  10.091   5.077   1.718 -0.9508  0.3099  0.6814
    3MOL0     H  368  10.157   4.884   1.585 -0.1561 -3.5123  1.8391
    3MOL0     H  369  10.131   4.803   1.390  0.9183  0.3420  1.9955
    3MOL0     H  370  10.199   4.688   1.494  2.5013 -0.1114 -2.9635
    3MOL0     H  371  10.151   4.513   1.355  0.8523  0.1520  1.0059
    3MOL0     H  372  10.017   4.595   1.277  1.9469 -2.7289 -1.4619
    3MOL0     H  373  10.197   4.596   1.119  0.7398 -0.6525  0.0878
    3MOL0     H  374  10.229   4.759   1.191  1.5615 -0.0717  3.2504
    3MOL0     H  375  10.380   4.510   1.257 -2.2424 -0.2973  0.1020
    3MOL0     H  376  10.388   4.654   1.359 -0.2457 -0.3600  0.6151
    3MOL0     H  377  10.466   4.777   1.167  1.6288  0.2993  0.8428
    3MOL0     H  378  10.479   4.633   1.066  0.8025 -0.2134  0.1719
    3MOL0     H  379  10.622   4.694   1.315  2.4313  2.0984 -0.5175
    3MOL0     H  380  10.640   4.538   1.232  0.5096  1.2366  4.9546
    3MOL0     H  381  10.706   4.651   1.023 -0.5437  2.4550 -1.0889
    3MOL0     H  382  10.827   4.661   1.162 -0.2025 -1.9614 -1.9138
    3MOL0     H  383  10.811   4.864   1.028 -1.3930 -1.8523 -2.0472
    3MOL0     H  384  10.640   4.889   1.078  0.0811  3.2963  1.2372
    3MOL0     H  385   9.756   4.741   1.602  1.2203 -0.4326 -0.9395
    3MOL0     H  386   9.687   4.934   1.755  0.5158  0.0346  1.2353
    3MOL0     H  387   9.821   5.329   1.975  0.4798  1.4824  0.2810
    3MOL0     H  388   9.681   5.495   2.087 -1.6454  0.5260  2.3107
    3MOL0     H  389   7.798   5.618   3.131 -0.0612 -1.5972  1.2102
    3MOL0     H  390   7.587   5.529   3.206 -0.6833 -2.0872 -0.0723
    3MOL0     H  391   7.120   5.366   2.973 -0.5072 -0.0114  0.0342
    3MOL0     H  392   6.907   5.340   2.984  2.5589 -0.5579  0.3595
    3MOL0     H  393   6.665   5.218   3.153 -3.2636 -0.3883 -1.1110
    3MOL0     H  394   6.682   5.327   3.017 -2.3027 -0.9882 -0.8686
    3MOL0     H  395   6.475   5.370   3.239 -1.3991 -0.2597 -1.2707
    3MOL0     H  396   6.444   5.309   3.076 -0.5986  0.3237 -0.2508
    3MOL0     H  397   6.572   5.583   3.128 -2.0969  1.0192  0.8872
    3MOL0     H  398   6.402   5.559   3.130 -1.0678 -0.6249  0.6500
    3MOL0     H  399   6.585   5.502   2.892 -1.7580 -1.9046 -2.1783
    3MOL0     H  400   6.411   5.461   2.894  2.2720 -1.9144 -1.0012
    3MOL0     H  401   6.402   5.870   2.816  0.2855  0.5891  1.9132
    3MOL0     H  402   6.883   5.478   3.388  1.0092  0.9908  0.2585
    3MOL0     H  403   7.199   5.617   3.400  1.7381 -0.6981 -0.1561
    3MOL0     H  404   7.084   5.536   3.508  0.3950  0.0632 -0.3370
    3MOL0     H  405   7.237   5.461   3.468  2.2526  2.4778  0.4256
    4MOL0     O  406   3.152  10.367   0.016 -0.2032  0.5823 -0.9438
    4MOL0     C  407   3.180  10.453  -0.065  0.2494  0.5736 -0.0616
    4MOL0     O  408   3.298  10.513  -0.085  0.5934  0.4969 -0.3839
    4MOL0     C  409   3.414  10.454  -0.045 -0.5204 -1.2512 -0.1979
    4MOL0     C  410   3.436  10.430   0.092  0.2655  1.3050  0.3497
    4MOL0     C  411   3.546  10.352   0.138  0.1986 -0.3097  0.0496
    4MOL0     C  412   3.640  10.307   0.038  0.1712 -0.0341  0.5910
    4MOL0     O  413   3.760  10.252   0.085  0.3422  0.4351 -0.0698
    4MOL0     C  414   3.884  10.283   0.021 -0.5932 -0.1734 -0.3814
    4MOL0     C  415   3.988  10.216   0.117 -0.1432  0.0807  0.2873
    4MOL0     C  416   4.135  10.242   0.073 -0.2463 -0.4596 -0.4722
    4MOL0     C  417   4.237  10.156   0.159  0.0080  0.0366  0.1248
    4MOL0     C  418   4.381  10.171   0.120  0.1634  0.6543  0.4736
    4MOL0     C  419   4.473  10.085   0.215  0.9026 -0.2414  0.2318
    4MOL0     C  420   4.619  10.106   0.171 -0.2087 -0.2130 -0.3432
    4MOL0     C  421   4.713  10.005   0.239  0.8052  0.6055 -0.3039
    4MOL0     N  422   4.855  10.026   0.206  1.1348  0.2612 -0.2230
    4MOL0     C  423   4.958   9.988   0.287 -0.3534  0.0093 -1.4171
    4MOL0     C  424   5.069  10.015   0.218 -1.6205  0.6700  0.5185
    4MOL0     C  425   5.206   9.976   0.262 -0.5011 -0.6491  0.5874
    4MOL0     C  426   5.292  10.111   0.268  0.2406  0.9033 -0.2183
    4MOL0     C  427   5.424  10.097   0.341  0.0002 -0.7374 -0.5439
    4MOL0     C  428   5.506  10.229   0.335  0.0893 -0.1547  0.5289
    4MOL0     O  429   5.622  10.204   0.412  0.1617 -0.4145  0.1005
    4MOL0     C  430   5.734  10.280   0.384  0.3280  0.4105 -0.4552
    4MOL0     C  431   5.760  10.358   0.272 -0.4833 -0.5300  0.4781
    4MOL0     C  432   5.886  10.418   0.261  0.4140  0.3273 -1.2818
    4MOL0     C  433   5.978  10.422   0.372  0.4110 -0.0838  0.5679
    4MOL0     C  434   6.107  10.495   0.373 -0.7072 -0.1907  0.2407
    4MOL0     O  435   6.218  10.421   0.432 -0.3441  0.2057 -0.1009
    4MOL0     C  436   6.347  10.462   0.411  1.0940  0.0449 -0.4661
    4MOL0     C  437   6.383  10.596   0.446  0.3793  0.4329 -0.5591
    4MOL0     C  438   6.519  10.639   0.450 -0.0703 -0.0240  0.0359
    4MOL0     C  439   6.616  10.549   0.398 -0.1119 -0.5664 -1.1858
    4MOL0     O  440   6.739  10.601   0.382 -0.3142  0.3319 -0.8576
    4MOL0     C  441   6.839  10.523   0.310 -0.6442 -0.1903 -0.0824
    4MOL0     C  442   6.925  10.621   0.230  0.2898  0.1978 -0.6283
    4MOL0     C  443   7.019  10.546   0.133 -0.4800  0.3354  0.7109
    4MOL0     C  444   7.091  10.628   0.031  0.5006  0.7001 -0.0343
    4MOL0     C  445   7.180  10.527  -0.042 -0.0660  0.6352 -0.6546
    4MOL0     C  446   7.237  10.595  -0.166  1.1209 -0.4802 -0.0372
    4MOL0     C  447   7.365  10.684  -0.136  0.2020  0.1779  0.5279
    4MOL0     C  448   7.433  10.717  -0.276  0.7535 -0.6024  0.1410
    4MOL0    Cl  449   7.588  10.790  -0.228 -0.2786  0.0947 -0.3830
    4MOL0     C  450   6.586  10.417   0.381  0.1133 -0.0634  0.3685
    4MOL0     C  451   6.449  10.367   0.385  0.4606 -0.0153 -0.4080
    4MOL0     O  452   6.108  10.600   0.311  0.5808  0.0137 -0.1257
    4MOL0     C  453   5.950  10.346   0.488 -0.0579 -0.0912  0.0333
    4MOL0     C  454   5.828  10.270   0.481 -1.2194  0.5798  0.4658
    4MOL0     N  455   5.036  10.079   0.099  0.3591  0.2878  0.2213
    4MOL0     N  456   4.903  10.073   0.092 -0.3279  0.3469  0.9121
    4MOL0     C  457   3.616  10.327  -0.101 -0.4104 -0.4767 -0.5880
    4MOL0     C  458   3.498  10.398  -0.145  0.3073  0.0463 -0.4216
    4MOL0     C  459   3.075  10.494  -0.154 -0.2288 -1.2296 -0.1598
    4MOL0     C  460   3.111  10.526  -0.295  0.5899 -0.7428  0.3628
    4MOL0     C  461   3.012  10.549  -0.395 -0.2493  0.0787 -1.2632
    4MOL0     C  462   2.877  10.545  -0.356  0.4473  0.2572  0.9194
    4MOL0     O  463   2.787  10.554  -0.462  0.4722 -1.0198  1.0241
    4MOL0     C  464   2.654  10.596  -0.453  0.2668  0.1810  0.3568
    4MOL0     C  465   2.597  10.580  -0.591 -0.1823  0.2635 -0.1874
    4MOL0     C  466   2.450  10.598  -0.572 -0.4300  0.5471 -0.2641
    4MOL0     C  467   2.381  10.555  -0.703 -0.4515 -0.4055 -0.0307
    4MOL0     C  468   2.395  10.406  -0.740 -0.1863  0.2989 -0.6687
    4MOL0     C  469   2.401  10.288  -0.770  0.1448 -0.0652  0.4244
    4MOL0     C  470   2.842  10.522  -0.220 -0.5683 -0.4564 -0.4414
    4MOL0     C  471   2.939  10.491  -0.124 -0.3263 -0.5420 -0.0680
    4MOL0     C  472   2.893  10.486   0.020  0.0654  0.1381 -0.1716
    4MOL0     H  473   3.363  10.469   0.163  0.3797 -0.1991  1.3162
    4MOL0     H  474   3.559  10.337   0.245  0.1144 -0.0075  0.1024
    4MOL0     H  475   3.891  10.239  -0.078  1.2629  1.0941 -0.8555
    4MOL0     H  476   3.896  10.392   0.025 -2.3004  0.0599 -0.5163
    4MOL0     H  477   3.963  10.110   0.110  0.3490  0.0503 -1.5818
    4MOL0     H  478   3.975  10.245   0.222 -1.0336  1.3599 -0.1451
    4MOL0     H  479   4.166  10.342   0.102 -0.4308 -1.0521  1.9856
    4MOL0     H  480   4.151  10.216  -0.032  3.3233 -0.4366 -0.0544
    4MOL0     H  481   4.218  10.179   0.264  2.5042 -1.6655  1.0368
    4MOL0     H  482   4.216  10.049   0.150 -1.9821  0.2991  0.9427
    4MOL0     H  483   4.389  10.140   0.016 -0.7203 -0.2236  0.6433
    4MOL0     H  484   4.397  10.279   0.120  1.0816  0.7273 -4.3331
    4MOL0     H  485   4.466  10.108   0.321 -0.9316  1.4908 -0.1992
    4MOL0     H  486   4.445   9.979   0.208 -0.7257  0.2465 -1.4467
    4MOL0     H  487   4.654  10.205   0.202 -1.9104  0.8929 -1.7694
    4MOL0     H  488   4.640  10.105   0.063  0.4678 -2.9113 -0.2603
    4MOL0     H  489   4.693   9.994   0.346  1.4645  0.0718 -0.2297
    4MOL0     H  490   4.686   9.904   0.206 -1.1454  1.8770 -3.0094
    4MOL0     H  491   4.954   9.937   0.382 -0.6078  3.1095  0.3847
    4MOL0     H  492   5.187   9.933   0.361 -1.0098 -1.9554 -0.0566
    4MOL0     H  493   5.251   9.901   0.197  0.1206 -1.0325  1.4330
    4MOL0     H  494   5.312  10.156   0.170 -0.7699 -0.9053 -1.3361
    4MOL0     H  495   5.228  10.179   0.324 -2.2096 -0.7969 -0.7974
    4MOL0     H  496   5.493  10.026   0.294  1.5250  0.8323 -0.7552
    4MOL0     H  497   5.394  10.064   0.441 -0.7222 -0.7285 -0.7496
    4MOL0     H  498   5.448  10.318   0.359 -1.1096 -0.0107 -2.4169
    4MOL0     H  499   5.546  10.239   0.234 -2.6999  2.7840 -0.4477
    4MOL0     H  500   5.691  10.373   0.189  2.2759  0.7073 -1.7197
    4MOL0     H  501   5.910  10.480   0.175 -0.8162  0.8376 -1.2745
    4MOL0     H  502   6.303  10.664   0.473  1.6503  2.7814 -2.2585
    4MOL0     H  503   6.554  10.736   0.483 -0.6489 -0.9404  3.8389
    4MOL0     H  504   6.908  10.463   0.371 -0.4151  0.4077  0.2698
    4MOL0     H  505   6.795  10.455   0.238  0.2014  0.2775 -1.0671
    4MOL0     H  506   6.855  10.684   0.175 -2.0093 -0.3550  1.4738
    4MOL0     H  507   6.985  10.688   0.291  1.8870  0.1715 -2.1068
    4MOL0     H  508   7.097  10.495   0.189  0.4756  1.3410  0.3216
    4MOL0     H  509   6.963  10.468   0.081  1.1142  0.3016 -1.0284
    4MOL0     H  510   7.154  10.704   0.077 -0.6882  2.0202 -0.5015
    4MOL0     H  511   7.016  10.675  -0.033 -0.6454 -1.6375 -0.5570
    4MOL0     H  512   7.128  10.441  -0.084  0.3349  1.2439 -2.5202
    4MOL0     H  513   7.263  10.500   0.024  0.5932  1.0445 -1.2893
    4MOL0     H  514   7.271  10.513  -0.229 -0.8977 -2.0755  0.8444
    4MOL0     H  515   7.160  10.655  -0.217  0.5800 -0.0651  1.2236
    4MOL0     H  516   7.436  10.627  -0.076  1.2100  0.6721 -0.1718
    4MOL0     H  517   7.349  10.773  -0.074  1.2466 -1.8361  3.9763
    4MOL0     H  518   7.448  10.622  -0.327 -0.2965 -0.2280 -0.8890
    4MOL0     H  519   7.381  10.783  -0.346  1.5550  0.0684  0.1572
    4MOL0     H  520   6.658  10.341   0.351 -0.6763 -0.7267  0.1071
    4MOL0     H  521   6.413  10.268   0.360  1.9241 -0.7891  0.3909
    4MOL0     H  522   6.032  10.340   0.558  0.5980  2.4594 -0.4045
    4MOL0     H  523   5.807  10.194   0.556 -2.5443  0.2927 -0.1601
    4MOL0     H  524   3.689  10.285  -0.169  0.8312 -0.8656  0.9355
    4MOL0     H  525   3.475  10.406  -0.251 -2.6555 -2.3583 -0.0990
    4MOL0     H  526   3.217  10.522  -0.315  0.6677  1.4506  0.1194
    4MOL0     H  527   3.039  10.573  -0.498  2.4688  2.4908 -0.1190
    4MOL0     H  528   2.637  10.701  -0.428 -2.7053 -0.3623  0.9630
    4MOL0     H  529   2.612  10.534  -0.373  2.8711  0.1219  1.8110
    4MOL0     H  530   2.623  10.484  -0.638  0.1987 -1.7496  3.7494
    4MOL0     H  531   2.636  10.668  -0.643 -0.5953  0.3552 -0.3469
    4MOL0     H  532   2.428  10.704  -0.555  1.0950  0.7652  0.4851
    4MOL0     H  533   2.410  10.528  -0.498 -0.4084 -0.4671 -1.1831
    4MOL0     H  534   2.275  10.575  -0.688 -0.0243  4.3685 -1.7759
    4MOL0     H  535   2.405  10.625  -0.783 -2.2950  0.9192  0.5037
    4MOL0     H  536   2.407  10.190  -0.813 -0.7548 -0.3507  0.9124
    4MOL0     H  537   2.738  10.522  -0.189 -0.3046 -1.3981  0.4896
    4MOL0     H  538   2.972  10.513   0.090  0.8316 -1.7999 -0.2324
    4MOL0     H  539   2.799  10.541   0.034 -0.0016  0.1442 -0.6213
    4MOL0     H  540   2.877  10.379   0.034  2.5187 -0.4004 -1.0996
    5MOL0     O  541   8.036   9.041   1.040 -0.3843  0.0013  0.7004
    5MOL0     C  542   8.012   9.024   0.924 -0.6282  0.5224  0.1878
    5MOL0     O  543   8.087   9.063   0.819 -0.0657  0.6402  0.3208
    5MOL0     C  544   8.201   9.135   0.822 -0.4087  0.7585  0.7446
    5MOL0     C  545   8.270   9.145   0.704  0.2401  0.1941 -0.1733
    5MOL0     C  546   8.389   9.226   0.687 -0.2876 -0.3966  0.5536
    5MOL0     C  547   8.429   9.314   0.785  0.7248  0.0730  1.1047
    5MOL0     O  548   8.548   9.382   0.772  0.0076  0.0186  0.2905
    5MOL0     C  549   8.608   9.447   0.881 -0.0381 -0.2284 -0.1235
    5MOL0     C  550   8.750   9.489   0.847  0.7567 -0.1199 -0.0721
    5MOL0     C  551   8.806   9.520   0.984 -0.5491 -0.1780  1.3677
    5MOL0     C  552   8.952   9.571   0.974  0.7802  0.7268 -0.3171
    5MOL0     C  553   9.021   9.570   1.108 -0.1501 -0.3964  0.0562
    5MOL0     C  554   9.169   9.629   1.111 -0.4338 -0.0434 -0.0774
    5MOL0     C  555   9.256   9.536   1.038 -0.4350  0.3423  0.1769
    5MOL0     C  556   9.408   9.579   1.052 -0.4719  0.2948  0.4099
    5MOL0     N  557   9.495   9.497   0.965 -0.5269  0.0012  0.2684
    5MOL0     C  558   9.493   9.359   0.952 -0.3537 -0.6792  0.2798
    5MOL0     C  559   9.580   9.335   0.847  0.4770 -0.1535  0.8493
    5MOL0     C  560   9.617   9.198   0.802 -1.0067 -0.1338 -0.2377
    5MOL0     C  561   9.585   9.166   0.663  0.6261 -0.5426  0.8443
    5MOL0     C  562   9.626   9.018   0.630  0.2488  0.4229 -0.4017
    5MOL0     C  563   9.760   9.001   0.551 -0.2119 -0.9697  0.1693
    5MOL0     O  564   9.882   9.019   0.634  0.8608 -0.3200  0.0278
    5MOL0     C  565   9.984   9.102   0.596  0.4064  0.1083 -0.2788
    5MOL0     C  566  10.113   9.061   0.627 -0.8525  0.0506  0.3537
    5MOL0     C  567  10.226   9.145   0.622  0.8593 -0.0343 -0.2202
    5MOL0     C  568  10.210   9.280   0.565  0.2671  0.3564  0.1072
    5MOL0     C  569  10.319   9.370   0.559 -0.1887 -1.0612 -0.4230
    5MOL0     O  570  10.434   9.313   0.616 -0.0014  0.0297 -0.2974
    5MOL0     C  571  10.547   9.386   0.639  0.6120 -0.5271 -0.0403
    5MOL0     C  572  10.659   9.300   0.651  0.0332  0.5300 -0.6530
    5MOL0     C  573  10.788   9.351   0.686 -0.1884  0.3067 -0.1644
    5MOL0     C  574  10.812   9.491   0.680  0.5492 -0.2512  0.0043
    5MOL0     O  575  10.940   9.546   0.697 -0.2937  0.1258  0.7209
    5MOL0     C  576  11.034   9.513   0.593  0.3631  0.2307 -0.1483
    5MOL0     C  577  10.991   9.548   0.455 -0.2116 -0.2353 -0.7681
    5MOL0     C  578  10.968   9.698   0.435  0.4715  0.1965 -0.8072
    5MOL0     C  579  10.940   9.726   0.288 -0.0406  0.9810 -0.2633
    5MOL0     C  580  11.062   9.705   0.200  0.3869  0.5463 -0.2568
    5MOL0     C  581  11.049   9.728   0.046 -0.4384 -0.0093  0.2120
    5MOL0     C  582  11.075   9.878  -0.002  0.3239  0.0311 -0.2003
    5MOL0     C  583  11.218   9.920  -0.002 -0.4444 -0.2647  0.4185
    5MOL0    Cl  584  11.211  10.095  -0.082  0.0335  0.1099  0.2539
    5MOL0     C  585  10.702   9.576   0.660 -0.1444 -0.0907 -0.3794
    5MOL0     C  586  10.573   9.525   0.642  0.8438  0.1030  0.1899
    5MOL0     O  587  10.312   9.478   0.502 -0.4454 -0.2632 -0.1194
    5MOL0     C  588  10.078   9.322   0.530 -0.4112 -0.2810 -0.4386
    5MOL0     C  589   9.971   9.231   0.548 -0.2584  0.1602 -0.6951
    5MOL0     N  590   9.630   9.452   0.793 -0.3896 -0.3202  0.5911
    5MOL0     N  591   9.575   9.547   0.862 -0.5048 -0.7471 -0.0241
    5MOL0     C  592   8.356   9.301   0.901 -0.4859  0.4990 -0.2360
    5MOL0     C  593   8.247   9.213   0.924  0.2516 -0.9849 -0.6694
    5MOL0     C  594   7.880   8.956   0.902 -0.0950 -0.4459  0.1371
    5MOL0     C  595   7.842   8.950   0.762  0.3485 -0.0187  0.2215
    5MOL0     C  596   7.709   8.899   0.738 -1.1883 -0.4420  0.7101
    5MOL0     C  597   7.626   8.855   0.837 -0.4410 -0.2921  0.6043
    5MOL0     O  598   7.494   8.809   0.822  0.3928 -0.6768 -0.1196
    5MOL0     C  599   7.430   8.827   0.692  0.9678 -0.4236 -0.5830
    5MOL0     C  600   7.280   8.803   0.718 -0.2546  0.0096  1.1333
    5MOL0     C  601   7.210   8.905   0.818 -0.0110  0.6597 -0.0549
    5MOL0     C  602   7.078   8.856   0.878  0.6379 -0.2631 -0.3809
    5MOL0     C  603   6.967   8.884   0.786 -0.8995 -0.8969  0.8679
    5MOL0     C  604   6.892   8.890   0.690 -0.0719  0.0917 -0.4395
    5MOL0     C  605   7.669   8.857   0.966  0.4306 -0.4159 -0.1774
    5MOL0     C  606   7.793   8.911   1.007 -0.1140 -0.1378 -0.2373
    5MOL0     C  607   7.801   8.924   1.155 -0.7399 -0.2989  0.6572
    5MOL0     H  608   8.237   9.082   0.622 -1.9870 -0.8638  1.4329
    5MOL0     H  609   8.438   9.236   0.590 -3.4940  0.2792 -1.1319
    5MOL0     H  610   8.545   9.531   0.911  0.2887 -0.4371  1.1819
    5MOL0     H  611   8.621   9.374   0.961  2.6218  1.1088  0.7944
    5MOL0     H  612   8.752   9.581   0.787  1.7561  0.2787  0.5398
    5MOL0     H  613   8.804   9.411   0.794 -2.4877 -2.4467 -0.2469
    5MOL0     H  614   8.799   9.424   1.034 -1.2028 -2.4776 -2.6478
    5MOL0     H  615   8.740   9.589   1.037 -2.8944 -0.4759 -0.9558
    5MOL0     H  616   9.011   9.512   0.905 -0.9938 -0.5423 -0.8237
    5MOL0     H  617   8.951   9.676   0.942 -0.8252  0.5865 -0.8623
    5MOL0     H  618   8.965   9.624   1.185 -2.3604 -1.2615 -0.8390
    5MOL0     H  619   9.024   9.469   1.149  1.8870 -0.4421 -0.1343
    5MOL0     H  620   9.173   9.727   1.063 -3.4842  1.3535  2.1889
    5MOL0     H  621   9.215   9.637   1.209 -3.3048 -0.5173  1.4247
    5MOL0     H  622   9.223   9.522   0.935 -1.7596  0.8310  0.5047
    5MOL0     H  623   9.238   9.437   1.080 -1.5664  0.0154 -1.0108
    5MOL0     H  624   9.410   9.683   1.017 -2.3743  0.2335 -0.0345
    5MOL0     H  625   9.436   9.572   1.157 -1.8469 -0.7927  0.7498
    5MOL0     H  626   9.445   9.285   1.015 -0.7028 -0.3984  0.3464
    5MOL0     H  627   9.725   9.194   0.812 -1.0741 -0.0311  0.5628
    5MOL0     H  628   9.570   9.123   0.868  0.7909  0.2112  1.5139
    5MOL0     H  629   9.476   9.182   0.658  0.9341  2.2767  1.3321
    5MOL0     H  630   9.634   9.230   0.589 -1.1354  0.4261  0.4591
    5MOL0     H  631   9.544   8.983   0.567 -0.3242  1.3553 -0.1970
    5MOL0     H  632   9.613   8.965   0.725 -2.5642 -2.1672 -2.0370
    5MOL0     H  633   9.767   9.067   0.464  0.9755  0.9038  1.6237
    5MOL0     H  634   9.755   8.901   0.508  0.0474 -0.2911 -1.5093
    5MOL0     H  635  10.137   8.963   0.667 -0.3554  0.0453  0.0579
    5MOL0     H  636  10.317   9.101   0.660 -0.8915 -2.1785  1.7751
    5MOL0     H  637  10.644   9.195   0.629 -0.7738 -0.2971  3.1691
    5MOL0     H  638  10.875   9.285   0.684 -0.2336  0.2330  0.3187
    5MOL0     H  639  11.126   9.566   0.619  1.6380 -1.2203 -1.5109
    5MOL0     H  640  11.067   9.409   0.598 -0.3898 -0.0437 -0.7188
    5MOL0     H  641  11.078   9.516   0.398  1.5985 -2.3195  2.7759
    5MOL0     H  642  10.896   9.498   0.431 -1.3540  1.1581  0.5893
    5MOL0     H  643  10.875   9.726   0.485  1.7041  2.5475  0.3686
    5MOL0     H  644  11.058   9.743   0.480  3.3363 -2.8887 -2.9551
    5MOL0     H  645  10.899   9.827   0.278 -2.5551  0.1192  0.6578
    5MOL0     H  646  10.856   9.660   0.267  0.3472 -0.1366  1.4892
    5MOL0     H  647  11.101   9.603   0.209 -4.4951 -1.4872  0.5494
    5MOL0     H  648  11.141   9.771   0.239  0.3528  0.9960 -0.9313
    5MOL0     H  649  11.130   9.663   0.012  0.6113  1.9342 -1.1802
    5MOL0     H  650  10.948   9.697   0.018 -0.9610 -0.0432  2.0114
    5MOL0     H  651  11.016   9.947   0.059 -0.3791  1.0828 -2.0038
    5MOL0     H  652  11.041   9.902  -0.103  2.0517 -0.4178 -0.9259
    5MOL0     H  653  11.266   9.914   0.096  1.0491  3.0967  0.0487
    5MOL0     H  654  11.268   9.856  -0.076 -3.0805 -0.9243 -0.9190
    5MOL0     H  655  10.725   9.681   0.648  0.3363 -0.0487  0.8040
    5MOL0     H  656  10.495   9.599   0.627  1.7224  1.1318  0.6312
    5MOL0     H  657  10.062   9.424   0.496  0.2972  0.1488  0.4753
    5MOL0     H  658   9.872   9.269   0.525  0.4660  0.7389 -3.1037
    5MOL0     H  659   8.387   9.368   0.982 -0.1447  1.3051 -1.0175
    5MOL0     H  660   8.206   9.208   1.025  0.8464  0.6174 -0.3247
    5MOL0     H  661   7.899   8.981   0.675  0.4383  0.4899  0.4574
    5MOL0     H  662   7.676   8.906   0.635  0.5607  1.2756  0.1958
    5MOL0     H  663   7.477   8.771   0.610  3.2014  1.6225 -0.8184
    5MOL0     H  664   7.441   8.931   0.661  3.4387 -0.1151  1.0622
    5MOL0     H  665   7.265   8.699   0.751 -3.1390  0.4715  1.5676
    5MOL0     H  666   7.221   8.804   0.626  0.8780  0.8517  0.4041
    5MOL0     H  667   7.215   9.005   0.774 -1.6823  0.5852 -0.5058
    5MOL0     H  668   7.281   8.905   0.901 -0.9570  0.1830  0.7813
    5MOL0     H  669   7.082   8.748   0.898 -1.0298 -0.3492 -0.3246
    5MOL0     H  670   7.057   8.917   0.966  0.0540 -4.4955  2.7620
    5MOL0     H  671   6.820   8.912   0.613  1.6490  0.8386 -1.9146
    5MOL0     H  672   7.589   8.832   1.035 -1.6503  0.5646 -2.1007
    5MOL0     H  673   7.794   9.029   1.187 -0.4261  0.2097 -0.8416
    5MOL0     H  674   7.727   8.868   1.212 -0.4924  0.5649  1.8655
    5MOL0     H  675   7.897   8.898   1.201 -1.0491 -3.8745 -0.4355
    6MOL0     O  676   0.589   7.955   9.385 -0.6335  0.7627  0.4933
    6MOL0     C  677   0.549   8.066   9.404 -0.0463  0.6535  0.3365
    6MOL0     O  678   0.621   8.162   9.453  0.9455  0.8833 -0.1313
    6MOL0     C  679   0.756   8.148   9.466 -0.1586 -0.1165  0.1119
    6MOL0     C  680   0.838   8.142   9.350  0.4734 -0.0923  0.1421
    6MOL0     C  681   0.977   8.141   9.347  0.1741  0.4588  0.1016
    6MOL0     C  682   1.045   8.140   9.472 -0.0881 -0.3717  0.1704
    6MOL0     O  683   1.179   8.132   9.486  0.4964 -1.0288 -0.1063
    6MOL0     C  684   1.256   8.163   9.371 -0.0232  0.2859 -0.5671
    6MOL0     C  685   1.409   8.158   9.401  0.1344 -0.3188 -0.0967
    6MOL0     C  686   1.446   8.240   9.522  0.9487  0.5041  0.3731
    6MOL0     C  687   1.587   8.237   9.559 -0.8372  0.2072  0.1980
    6MOL0     C  688   1.619   8.317   9.690  0.2459 -0.2587 -0.1704
    6MOL0     C  689   1.767   8.342   9.714 -0.2289 -0.3873  0.3882
    6MOL0     C  690   1.818   8.236   9.814  0.5686 -0.1128 -0.6023
    6MOL0     C  691   1.968   8.259   9.839  0.5085 -0.3676 -0.0102
    6MOL0     N  692   2.066   8.244   9.734 -0.3297 -0.2929 -0.1009
    6MOL0     C  693   2.140   8.342   9.674  0.0138 -0.8619  0.0197
    6MOL0     C  694   2.228   8.276   9.602 -0.4508 -0.4914  1.1266
    6MOL0     C  695   2.337   8.337   9.518 -1.1171  0.3445  0.0190
    6MOL0     C  696   2.459   8.321   9.601  0.4775  0.4865 -0.6743
    6MOL0     C  697   2.557   8.199   9.570 -0.0406 -0.2755  0.5791
    6MOL0     C  698   2.653   8.180   9.693  0.2600  0.0380  0.6062
    6MOL0     O  699   2.774   8.237   9.666  0.7718  0.9224  0.4838
    6MOL0     C  700   2.878   8.156   9.634 -1.3922  0.2759  0.2770
    6MOL0     C  701   3.004   8.193   9.661  0.4613  0.3383  0.0844
    6MOL0     C  702   3.116   8.110   9.637 -0.0746 -0.1651 -0.3533
    6MOL0     C  703   3.102   7.984   9.574  0.6869  0.8265 -1.3785
    6MOL0     C  704   3.223   7.907   9.542 -0.1423  0.7138  0.9130
    6MOL0     O  705   3.338   7.978   9.531  0.4362  0.0071  0.9596
    6MOL0     C  706   3.461   7.923   9.529 -0.5812  0.4607 -0.5770
    6MOL0     C  707   3.562   7.987   9.465 -0.2414 -0.0024  0.2116
    6MOL0     C  708   3.684   7.928   9.449 -0.2639  0.0950  0.3084
    6MOL0     C  709   3.713   7.806   9.515  0.2943 -0.5042  0.1032
    6MOL0     O  710   3.836   7.749   9.513  0.2135  0.7349 -0.4241
    6MOL0     C  711   3.903   7.756   9.383 -0.0924 -0.1011  0.1223
    6MOL0     C  712   4.037   7.673   9.374 -0.7359 -0.6008 -0.2795
    6MOL0     C  713   4.123   7.700   9.500  0.2303 -0.5162 -0.3865
    6MOL0     C  714   4.262   7.639   9.491 -0.7609 -0.4068  0.5886
    6MOL0     C  715   4.351   7.676   9.599 -0.4779 -0.1517  0.2916
    6MOL0     C  716   4.492   7.620   9.575  0.0273 -0.0860 -0.4192
    6MOL0     C  717   4.582   7.655   9.706  0.2329 -0.2045  0.3211
    6MOL0     C  718   4.725   7.604   9.693 -0.1065  0.2220  0.0768
    6MOL0    Cl  719   4.833   7.641   9.834 -0.1444 -0.6742 -0.4642
    6MOL0     C  720   3.609   7.748   9.584  0.1304  0.7634  0.4736
    6MOL0     C  721   3.490   7.803   9.606  0.1331 -0.8315  0.9370
    6MOL0     O  722   3.215   7.785   9.519  0.2061  0.6738 -0.2715
    6MOL0     C  723   2.975   7.957   9.523 -0.5727 -0.2344 -1.2100
    6MOL0     C  724   2.866   8.038   9.550  0.3678  1.0575 -0.4875
    6MOL0     N  725   2.208   8.141   9.606  0.0549  0.1170  0.6426
    6MOL0     N  726   2.118   8.125   9.695 -0.2778  0.6789  0.4996
    6MOL0     C  727   0.968   8.143   9.581  0.0674 -0.0759  0.0346
    6MOL0     C  728   0.827   8.152   9.584 -0.7290 -0.1204 -0.6398
    6MOL0     C  729   0.406   8.092   9.402 -0.3844  0.7070 -0.4630
    6MOL0     C  730   0.327   8.008   9.481 -0.4251 -0.8481 -0.4142
    6MOL0     C  731   0.192   8.031   9.488 -0.0305  0.1695  0.1312
    6MOL0     C  732   0.135   8.131   9.410 -0.5065 -0.3153 -0.0429
    6MOL0     O  733  -0.001   8.144   9.394  0.3065 -0.5412  0.5285
    6MOL0     C  734  -0.085   8.034   9.437  0.3052 -0.0626 -0.0088
    6MOL0     C  735  -0.237   8.068   9.419  0.2066 -0.2838  0.2577
    6MOL0     C  736  -0.280   8.207   9.461 -0.3385  0.0440  0.1884
    6MOL0     C  737  -0.428   8.240   9.443  0.6441  0.1246  0.2785
    6MOL0     C  738  -0.484   8.219   9.311  0.5647 -0.4772  0.5265
    6MOL0     C  739  -0.547   8.182   9.212  0.3003  0.0846  0.3324
    6MOL0     C  740   0.214   8.213   9.325  0.8068  0.7257 -0.4434
    6MOL0     C  741   0.352   8.193   9.324  0.1777  0.1872 -0.4104
    6MOL0     C  742   0.435   8.280   9.233  0.7044 -0.2483 -0.4751
    6MOL0     H  743   0.793   8.138   9.252 -0.2916 -0.6388  0.5065
    6MOL0     H  744   1.031   8.129   9.254 -1.0439 -2.9724 -0.3254
    6MOL0     H  745   1.230   8.090   9.293  1.0433 -2.9268  1.8616
    6MOL0     H  746   1.222   8.261   9.335  1.5434 -0.5852 -5.1832
    6MOL0     H  747   1.458   8.207   9.317 -2.8339  2.1199 -0.5665
    6MOL0     H  748   1.456   8.059   9.406  0.8510 -0.0306 -0.8958
    6MOL0     H  749   1.395   8.211   9.614 -0.2448  0.9231 -0.1441
    6MOL0     H  750   1.414   8.341   9.496  3.7162  1.6896  1.1415
    6MOL0     H  751   1.615   8.132   9.574  0.1165  0.1606 -1.5527
    6MOL0     H  752   1.647   8.269   9.473 -0.7709  0.8856  0.4876
    6MOL0     H  753   1.588   8.422   9.680  0.4957 -0.3541 -2.3861
    6MOL0     H  754   1.562   8.276   9.774 -0.0030  1.5676  0.6118
    6MOL0     H  755   1.821   8.336   9.620  1.1389  2.9117  0.8524
    6MOL0     H  756   1.788   8.441   9.754 -0.0475  0.5399 -1.8643
    6MOL0     H  757   1.798   8.129   9.800  0.8482 -0.1004 -1.1395
    6MOL0     H  758   1.768   8.256   9.909  1.4744 -1.4190  0.1848
    6MOL0     H  759   1.974   8.358   9.886 -2.1804 -1.0306  1.9347
    6MOL0     H  760   1.995   8.195   9.923 -0.6696 -1.1601 -0.2225
    6MOL0     H  761   2.133   8.449   9.693  1.5008 -1.0129  1.6421
    6MOL0     H  762   2.335   8.299   9.416  2.6493  3.4203 -1.4635
    6MOL0     H  763   2.323   8.445   9.510 -1.0772  0.4116  0.7508
    6MOL0     H  764   2.517   8.413   9.589  0.2389  0.4509 -2.3495
    6MOL0     H  765   2.420   8.314   9.703 -1.9875  2.9036 -1.3268
    6MOL0     H  766   2.609   8.222   9.476 -0.3160  0.7297  0.6592
    6MOL0     H  767   2.510   8.102   9.551 -0.9444 -0.5880  3.8233
    6MOL0     H  768   2.679   8.076   9.715  1.7093  0.4382  0.8986
    6MOL0     H  769   2.599   8.206   9.785 -0.4077  1.5083 -0.1661
    6MOL0     H  770   3.013   8.293   9.702  0.0211  0.1408  0.6838
    6MOL0     H  771   3.216   8.130   9.675 -0.2408 -1.2268  0.6742
    6MOL0     H  772   3.547   8.086   9.423  2.0809  1.2617  2.1354
    6MOL0     H  773   3.761   7.986   9.400 -0.1707 -2.2496 -2.6138
    6MOL0     H  774   3.830   7.726   9.307  1.0758 -1.1830 -0.6062
    6MOL0     H  775   3.939   7.859   9.372 -1.0838  0.1724 -0.7890
    6MOL0     H  776   4.009   7.567   9.376 -0.4027 -0.6763  1.0583
    6MOL0     H  777   4.091   7.705   9.284 -1.9353 -2.9790 -1.9649
    6MOL0     H  778   4.138   7.808   9.517 -1.6289 -0.3361  0.2610
    6MOL0     H  779   4.076   7.652   9.586  3.2502 -1.9742  0.5935
    6MOL0     H  780   4.312   7.678   9.402 -1.1272 -0.4893  0.3491
    6MOL0     H  781   4.269   7.530   9.483 -1.6437 -0.3674 -0.9084
    6MOL0     H  782   4.311   7.621   9.684  2.6713  0.9898  2.6983
    6MOL0     H  783   4.342   7.784   9.614 -0.8529 -0.4105  2.1059
    6MOL0     H  784   4.500   7.511   9.568  3.2834  0.1536 -3.8943
    6MOL0     H  785   4.536   7.669   9.487 -2.1346  2.9110  0.0172
    6MOL0     H  786   4.536   7.608   9.793 -0.1513  1.4015  1.0155
    6MOL0     H  787   4.569   7.762   9.725 -0.5197 -0.3758  0.8405
    6MOL0     H  788   4.725   7.495   9.689  3.9395  0.0145  1.0028
    6MOL0     H  789   4.764   7.637   9.596  1.0334 -2.3093 -0.3892
    6MOL0     H  790   3.632   7.651   9.629 -1.5558 -0.9198 -2.0277
    6MOL0     H  791   3.419   7.736   9.653 -3.5862 -0.3011 -3.3355
    6MOL0     H  792   2.968   7.861   9.472  0.2412 -0.8540 -0.1954
    6MOL0     H  793   2.768   8.020   9.506 -0.1853  2.1882  0.2200
    6MOL0     H  794   1.025   8.135   9.673  1.4424 -1.2693 -0.8860
    6MOL0     H  795   0.780   8.164   9.682  1.0088  2.6955 -0.0192
    6MOL0     H  796   0.362   7.925   9.542 -0.9221 -1.9848 -1.6230
    6MOL0     H  797   0.136   7.954   9.542  1.3984 -1.2639 -0.3569
    6MOL0     H  798  -0.065   8.007   9.541 -0.2789  1.6995  0.5941
    6MOL0     H  799  -0.063   7.947   9.373 -0.6980  0.4137 -1.0490
    6MOL0     H  800  -0.302   7.996   9.470 -2.5964  0.1001 -2.4561
    6MOL0     H  801  -0.256   8.066   9.312  1.6046  0.9884 -0.0554
    6MOL0     H  802  -0.233   8.281   9.395 -3.4968  1.8069 -0.2346
    6MOL0     H  803  -0.259   8.221   9.567  0.2624  0.0253  0.0779
    6MOL0     H  804  -0.484   8.177   9.512 -0.3148 -1.1461 -1.5690
    6MOL0     H  805  -0.447   8.346   9.463  0.2780  0.3044 -0.9314
    6MOL0     H  806  -0.590   8.148   9.121  2.3214  0.4910 -0.8300
    6MOL0     H  807   0.160   8.286   9.265 -1.7105 -0.6096  0.0732
    6MOL0     H  808   0.484   8.361   9.286  3.2299 -0.9583 -1.5674
    6MOL0     H  809   0.527   8.225   9.208  1.2981  0.1148  0.8754
    6MOL0     H  810   0.387   8.327   9.146  3.2159  3.2897 -0.1159
    7MOL0     O  811   3.588   5.042   5.499  0.1628  0.2590  0.3427
    7MOL0     C  812   3.706   5.038   5.535 -0.5186  0.6761  0.0751
    7MOL0     O  813   3.801   5.132   5.496 -0.7925 -0.1706  0.3569
    7MOL0     C  814   3.787   5.203   5.380 -0.2253 -0.2635  0.3645
    7MOL0     C  815   3.787   5.346   5.375 -0.1910  0.1462  1.2144
    7MOL0     C  816   3.781   5.420   5.254 -0.8734  0.0914  0.2844
    7MOL0     C  817   3.779   5.351   5.133  0.4454 -0.0463 -0.5695
    7MOL0     O  818   3.775   5.421   5.018 -0.6680 -0.3443  0.0984
    7MOL0     C  819   3.814   5.369   4.891  0.3100 -0.2097  0.3903
    7MOL0     C  820   3.872   5.488   4.817  0.3291 -0.1507  0.0946
    7MOL0     C  821   3.977   5.574   4.889 -0.1245 -0.8141  0.6219
    7MOL0     C  822   4.118   5.506   4.922 -1.1207  0.1133 -0.0193
    7MOL0     C  823   4.216   5.611   4.991 -0.0729  0.0044  0.5985
    7MOL0     C  824   4.359   5.549   4.996 -0.6556 -0.1272  0.2177
    7MOL0     C  825   4.459   5.607   5.098  0.2613  0.8686  0.1404
    7MOL0     C  826   4.495   5.747   5.064  0.1265  0.3924  0.2732
    7MOL0     N  827   4.556   5.771   4.939 -0.7622 -0.6828 -0.3625
    7MOL0     C  828   4.659   5.703   4.877 -0.3489  0.4723  1.0734
    7MOL0     C  829   4.686   5.774   4.763  0.0873  0.2440  0.6056
    7MOL0     C  830   4.767   5.728   4.640 -1.1449 -0.1972  0.3615
    7MOL0     C  831   4.907   5.799   4.640 -0.4083  0.4331  0.3503
    7MOL0     C  832   5.007   5.743   4.746  0.2107 -0.0574 -0.8706
    7MOL0     C  833   5.140   5.811   4.741 -0.3285 -0.3342 -0.0885
    7MOL0     O  834   5.233   5.747   4.825  0.8572 -0.1353 -0.4571
    7MOL0     C  835   5.354   5.797   4.850  0.9529 -0.7868  0.8970
    7MOL0     C  836   5.406   5.771   4.976  1.0915  0.5348 -0.1179
    7MOL0     C  837   5.522   5.826   5.017 -0.4955  0.6783 -0.0851
    7MOL0     C  838   5.596   5.903   4.927 -0.7630  0.3330 -0.1606
    7MOL0     C  839   5.731   5.959   4.966 -0.3352  0.1603  0.3146
    7MOL0     O  840   5.774   6.062   4.887  0.4552 -0.3359 -0.2736
    7MOL0     C  841   5.889   6.113   4.910 -1.0249 -0.1930 -0.4592
    7MOL0     C  842   5.897   6.214   5.002  0.2995  0.3344 -0.1505
    7MOL0     C  843   6.026   6.270   5.014  0.0925  0.4905  0.4197
    7MOL0     C  844   6.135   6.240   4.925  0.1286  0.5248  0.1610
    7MOL0     O  845   6.256   6.290   4.932 -1.1796  1.0653  0.6613
    7MOL0     C  846   6.264   6.432   4.943 -0.2492  0.1557 -0.0574
    7MOL0     C  847   6.383   6.493   4.870  0.6756  0.3230  0.5302
    7MOL0     C  848   6.508   6.483   4.953 -0.1109 -0.6533  0.0202
    7MOL0     C  849   6.626   6.538   4.875  0.3194 -0.2183  0.1364
    7MOL0     C  850   6.738   6.555   4.963 -0.5111  0.3630  0.0380
    7MOL0     C  851   6.876   6.576   4.898  0.3848 -0.2869 -0.1595
    7MOL0     C  852   6.992   6.579   5.001 -0.5138 -1.3356  0.1134
    7MOL0     C  853   7.128   6.622   4.943  0.4339  0.5067 -0.3698
    7MOL0    Cl  854   7.107   6.774   4.856 -0.1329 -0.1327  0.4093
    7MOL0     C  855   6.113   6.131   4.835  1.3889 -0.0397 -0.1860
    7MOL0     C  856   5.995   6.072   4.825  0.8254  0.5482 -0.0114
    7MOL0     O  857   5.790   5.910   5.062  0.4344  0.1206 -0.0844
    7MOL0     C  858   5.532   5.941   4.807 -0.4281 -0.0865 -0.5059
    7MOL0     C  859   5.408   5.896   4.765  0.1254  0.8274 -0.2756
    7MOL0     N  860   4.606   5.886   4.765  1.1063 -0.0720  0.0720
    7MOL0     N  861   4.535   5.889   4.872 -0.5782  1.6359 -0.5289
    7MOL0     C  862   3.780   5.215   5.131  1.2330  0.4922 -0.1890
    7MOL0     C  863   3.781   5.143   5.253  0.4561  0.1880 -0.1679
    7MOL0     C  864   3.743   4.954   5.649  0.5679  0.1793 -0.3295
    7MOL0     C  865   3.832   5.013   5.742 -0.2145 -0.3044  0.7166
    7MOL0     C  866   3.865   4.958   5.860 -0.6738  0.6971 -0.5502
    7MOL0     C  867   3.823   4.827   5.883 -0.5640 -0.2188  0.3042
    7MOL0     O  868   3.869   4.757   5.991  0.7108 -0.2600 -0.5960
    7MOL0     C  869   4.007   4.719   5.986  0.3745  0.2225  0.5195
    7MOL0     C  870   4.034   4.651   6.123 -0.2584 -0.3315 -0.0091
    7MOL0     C  871   3.970   4.519   6.136 -0.2397  0.3128  0.7019
    7MOL0     C  872   4.012   4.457   6.270 -0.6436 -0.8031  0.2392
    7MOL0     C  873   4.004   4.550   6.383  0.1075 -0.5063 -0.0589
    7MOL0     C  874   4.009   4.631   6.481 -0.2126  0.8900 -0.2323
    7MOL0     C  875   3.749   4.767   5.791  0.1840  0.2976  0.3094
    7MOL0     C  876   3.687   4.825   5.676 -0.4947 -0.8306  0.6912
    7MOL0     C  877   3.594   4.762   5.591  0.7778  0.4966  0.1125
    7MOL0     H  878   3.799   5.401   5.468  0.5210  2.0751  0.0505
    7MOL0     H  879   3.781   5.528   5.246  0.5405  0.3093  2.4738
    7MOL0     H  880   3.892   5.293   4.906  0.7255  0.0997 -0.1647
    7MOL0     H  881   3.735   5.328   4.827  2.0398 -0.5016 -1.6831
    7MOL0     H  882   3.787   5.550   4.787 -0.6687 -1.3669  0.3224
    7MOL0     H  883   3.919   5.462   4.722 -0.6287 -2.9417  0.2849
    7MOL0     H  884   3.929   5.612   4.979  1.0275  1.4607  0.3409
    7MOL0     H  885   3.988   5.662   4.825 -1.0537 -1.1486 -0.0350
    7MOL0     H  886   4.113   5.422   4.992 -2.0124 -0.5444 -0.8544
    7MOL0     H  887   4.160   5.466   4.830 -0.1003 -2.1861  1.3600
    7MOL0     H  888   4.214   5.701   4.928  1.1577 -1.0162 -0.9524
    7MOL0     H  889   4.178   5.637   5.090 -0.0350 -0.7771  0.8223
    7MOL0     H  890   4.341   5.446   5.030  0.8528 -0.0789  1.2755
    7MOL0     H  891   4.396   5.544   4.894  0.1978  1.4330  0.4224
    7MOL0     H  892   4.547   5.542   5.109  0.6121  1.6324  2.4238
    7MOL0     H  893   4.417   5.606   5.199  0.7419 -0.6532  0.3557
    7MOL0     H  894   4.400   5.799   5.075  1.2366  2.3854  1.0530
    7MOL0     H  895   4.565   5.779   5.142  1.0590 -0.8520 -0.0155
    7MOL0     H  896   4.696   5.605   4.904 -4.0970 -0.4728  3.6323
    7MOL0     H  897   4.779   5.619   4.631  0.2322 -0.0262 -0.0870
    7MOL0     H  898   4.707   5.744   4.551  0.7715  0.8668 -0.7991
    7MOL0     H  899   4.947   5.766   4.543 -3.0177 -2.8780  0.2187
    7MOL0     H  900   4.896   5.907   4.654  0.6727  0.7629 -1.0882
    7MOL0     H  901   5.022   5.635   4.739 -0.7137 -0.1347 -1.8823
    7MOL0     H  902   4.963   5.770   4.842  0.7719 -1.6951 -0.1029
    7MOL0     H  903   5.130   5.919   4.756 -1.0081 -0.3178 -0.6016
    7MOL0     H  904   5.179   5.805   4.639 -0.9407  3.1679 -0.6530
    7MOL0     H  905   5.354   5.701   5.041  2.7675 -3.6315 -2.7998
    7MOL0     H  906   5.550   5.819   5.122 -0.0751  3.0451  0.0307
    7MOL0     H  907   5.823   6.270   5.059  1.9222  1.8462  0.5745
    7MOL0     H  908   6.039   6.354   5.083  0.4058 -1.4487  2.8741
    7MOL0     H  909   6.180   6.485   4.896  0.9416  1.0025 -1.3500
    7MOL0     H  910   6.278   6.468   5.045  2.9175  1.9076 -0.9603
    7MOL0     H  911   6.391   6.434   4.778 -0.3807 -0.3006  0.8244
    7MOL0     H  912   6.363   6.597   4.843 -1.2666 -0.8438 -3.1469
    7MOL0     H  913   6.487   6.540   5.045 -1.9763 -1.9581  0.4472
    7MOL0     H  914   6.530   6.383   4.991  2.0689 -0.3038 -0.1629
    7MOL0     H  915   6.603   6.632   4.825 -0.2535 -0.5723 -0.2796
    7MOL0     H  916   6.654   6.459   4.805  1.3679  0.5457 -0.3187
    7MOL0     H  917   6.755   6.464   5.022 -1.4486 -0.2659 -0.6217
    7MOL0     H  918   6.724   6.639   5.032  1.9159  1.8915 -1.2037
    7MOL0     H  919   6.897   6.491   4.832  0.6963 -0.1542 -0.2310
    7MOL0     H  920   6.873   6.674   4.849 -1.4984  0.4792  1.3411
    7MOL0     H  921   7.012   6.480   5.043  2.7298 -1.5356 -1.5907
    7MOL0     H  922   6.962   6.647   5.082 -0.1236  0.4910 -1.2184
    7MOL0     H  923   7.191   6.650   5.027  0.5571  2.3572 -1.0480
    7MOL0     H  924   7.178   6.544   4.885  1.4506  0.2939  0.7446
    7MOL0     H  925   6.186   6.098   4.762  1.7255 -0.9757  0.5535
    7MOL0     H  926   5.974   5.991   4.756  0.3248 -1.5904  2.5001
    7MOL0     H  927   5.571   6.021   4.744  0.6480  0.7901  1.1755
    7MOL0     H  928   5.377   5.927   4.666  1.0496 -1.1293 -1.2453
    7MOL0     H  929   3.768   5.157   5.040 -0.0867 -1.5709  1.2034
    7MOL0     H  930   3.775   5.036   5.241 -2.2569  0.2736 -0.2128
    7MOL0     H  931   3.869   5.115   5.737 -1.3721  0.0675 -2.4487
    7MOL0     H  932   3.922   4.999   5.943  0.6825 -1.0337 -0.5808
    7MOL0     H  933   4.066   4.810   5.974 -2.1987  1.9089 -0.1941
    7MOL0     H  934   4.018   4.648   5.904 -2.5223  0.7058 -0.4064
    7MOL0     H  935   4.000   4.728   6.193  0.9478  0.3977 -0.1846
    7MOL0     H  936   4.143   4.649   6.112 -0.3728  0.4272 -1.7153
    7MOL0     H  937   3.988   4.455   6.049  2.9778  2.3885 -0.3604
    7MOL0     H  938   3.862   4.532   6.143 -0.0438  1.0950  3.9660
    7MOL0     H  939   3.963   4.361   6.287 -0.7193 -1.1781 -1.8336
    7MOL0     H  940   4.118   4.434   6.255  0.0091  2.2834 -0.4648
    7MOL0     H  941   4.004   4.702   6.561  0.5284  1.8623 -1.0311
    7MOL0     H  942   3.715   4.667   5.816 -3.3526  1.2418 -0.2159
    7MOL0     H  943   3.553   4.670   5.634 -0.3774  1.7496  1.8266
    7MOL0     H  944   3.506   4.826   5.582  1.7403  1.8249 -0.1291
    7MOL0     H  945   3.636   4.745   5.492 -0.3901 -2.5473  0.0362
    8MOL0     O  946   2.418   4.599   3.542 -0.1702 -0.9327 -0.0128
    8MOL0     C  947   2.340   4.519   3.490 -1.0545  0.5289 -0.3155
    8MOL0     O  948   2.362   4.384   3.477  0.1529  0.1371 -0.0947
    8MOL0     C  949   2.483   4.330   3.504  0.3722 -0.0009 -0.1546
    8MOL0     C  950   2.493   4.229   3.600  0.2380  0.3919 -1.2709
    8MOL0     C  951   2.613   4.156   3.624  0.6895 -0.1657  0.6990
    8MOL0     C  952   2.728   4.191   3.547  0.3962  0.3895  0.0564
    8MOL0     O  953   2.845   4.118   3.553 -0.9754  0.4799 -0.6021
    8MOL0     C  954   2.866   4.033   3.671  0.6978  0.2184  0.3687
    8MOL0     C  955   3.012   3.977   3.678  0.6591 -0.1375  0.8202
    8MOL0     C  956   3.032   3.897   3.804 -0.2028 -0.1339 -0.0287
    8MOL0     C  957   3.169   3.835   3.821  0.2842 -0.8280 -0.6410
    8MOL0     C  958   3.203   3.726   3.712  0.8397  0.0447 -0.4849
    8MOL0     C  959   3.320   3.632   3.762 -0.4833 -1.1227 -0.1535
    8MOL0     C  960   3.454   3.700   3.796  0.8493 -0.6273 -0.3115
    8MOL0     C  961   3.549   3.601   3.859 -0.3142 -0.6865 -0.9357
    8MOL0     N  962   3.680   3.657   3.886 -0.6361 -0.1931  0.3981
    8MOL0     C  963   3.794   3.602   3.836 -0.7426 -0.3047  0.2659
    8MOL0     C  964   3.892   3.676   3.889  0.3517  0.4489 -0.0285
    8MOL0     C  965   4.038   3.666   3.879  1.1405 -0.1827  1.3018
    8MOL0     C  966   4.093   3.532   3.837 -0.1574  0.5557 -0.0324
    8MOL0     C  967   4.243   3.546   3.837  0.1961 -0.1424 -0.4239
    8MOL0     C  968   4.318   3.441   3.753 -0.7190  0.5924  1.0968
    8MOL0     O  969   4.310   3.305   3.804 -0.1728 -0.3756 -0.4105
    8MOL0     C  970   4.389   3.261   3.911 -0.2021  0.1396 -0.3075
    8MOL0     C  971   4.516   3.320   3.953  0.0073  0.5407 -0.1525
    8MOL0     C  972   4.596   3.272   4.052  0.4406 -0.1977 -0.3928
    8MOL0     C  973   4.562   3.152   4.115 -0.5603  0.2772  0.4847
    8MOL0     C  974   4.644   3.092   4.220  0.7269 -0.2220  0.0145
    8MOL0     O  975   4.770   3.145   4.241 -0.2019 -0.0409 -0.3258
    8MOL0     C  976   4.854   3.078   4.332  0.1295  0.6552  0.6439
    8MOL0     C  977   4.872   2.932   4.335 -0.6963 -0.0495 -0.2871
    8MOL0     C  978   4.982   2.882   4.411  0.6520  0.1619  0.0003
    8MOL0     C  979   5.055   2.967   4.494  0.2301 -0.0263  0.1159
    8MOL0     O  980   5.159   2.909   4.563  0.8510 -0.6203 -1.3435
    8MOL0     C  981   5.192   2.962   4.700  0.2461  0.2258 -0.1826
    8MOL0     C  982   5.305   2.883   4.762 -0.9657  0.3071 -0.6435
    8MOL0     C  983   5.315   2.908   4.913  0.1797 -0.3684 -0.0635
    8MOL0     C  984   5.433   2.832   4.975 -0.1085 -0.1900  0.6548
    8MOL0     C  985   5.449   2.833   5.124  1.0622  0.6626  0.7002
    8MOL0     C  986   5.321   2.787   5.200  0.0789 -0.1426  0.3990
    8MOL0     C  987   5.281   2.648   5.167 -0.3339  1.1561 -0.2701
    8MOL0     C  988   5.168   2.595   5.260  0.3861  0.2953 -0.5739
    8MOL0    Cl  989   5.022   2.694   5.221 -0.4670 -0.1511 -0.3417
    8MOL0     C  990   5.029   3.103   4.496  0.5820  0.3934  0.7930
    8MOL0     C  991   4.932   3.157   4.411 -0.5669  0.3960 -0.2749
    8MOL0     O  992   4.593   2.997   4.283  0.4723  0.2973  0.8482
    8MOL0     C  993   4.438   3.091   4.077  1.2528 -0.2700 -0.6338
    8MOL0     C  994   4.351   3.145   3.980  0.0148  0.6424 -1.3616
    8MOL0     N  995   3.835   3.776   3.955  0.3045 -0.4764 -0.2495
    8MOL0     N  996   3.704   3.767   3.953  0.5712 -0.0032 -0.7390
    8MOL0     C  997   2.725   4.311   3.464  0.1763  1.1257 -0.6609
    8MOL0     C  998   2.608   4.370   3.439  0.6757  0.7695  0.2129
    8MOL0     C  999   2.209   4.578   3.441 -0.7481 -0.1517 -0.6145
    8MOL0     C 1000   2.150   4.675   3.511 -1.2677 -0.5701  0.2927
    8MOL0     C 1001   2.025   4.721   3.477 -0.2232 -0.4921  0.1594
    8MOL0     C 1002   1.956   4.683   3.361 -0.0616  1.0406  0.0789
    8MOL0     O 1003   1.827   4.726   3.332  0.9175  0.1707  0.1719
    8MOL0     C 1004   1.749   4.804   3.420 -0.3563 -0.1140  1.0502
    8MOL0     C 1005   1.606   4.769   3.400 -0.1332  0.8233  0.4908
    8MOL0     C 1006   1.540   4.833   3.283  0.5161  0.9541 -0.0911
    8MOL0     C 1007   1.395   4.782   3.261  0.6790 -0.1282 -0.7585
    8MOL0     C 1008   1.297   4.807   3.375 -0.7263  0.4872  0.3615
    8MOL0     C 1009   1.228   4.806   3.476  0.1312 -0.5660  0.2732
    8MOL0     C 1010   2.020   4.589   3.280 -0.2339 -1.1388  0.6969
    8MOL0     C 1011   2.145   4.540   3.315  0.1353 -0.4061 -0.4024
    8MOL0     C 1012   2.206   4.439   3.223 -0.1746  0.3712  0.2497
    8MOL0     H 1013   2.409   4.205   3.665  1.9983  0.3594  1.1381
    8MOL0     H 1014   2.602   4.076   3.697  1.1664  1.2135  2.3616
    8MOL0     H 1015   2.849   4.092   3.762 -0.7281 -1.4330  1.2218
    8MOL0     H 1016   2.795   3.950   3.678 -0.5569  1.1816 -0.5214
    8MOL0     H 1017   3.082   4.060   3.689  0.5611 -0.2783  2.8558
    8MOL0     H 1018   3.032   3.919   3.588 -1.2139  1.6313 -0.8729
    8MOL0     H 1019   2.954   3.822   3.818  1.5805 -1.9333  0.7664
    8MOL0     H 1020   3.016   3.963   3.890  0.0441  1.1791 -0.9478
    8MOL0     H 1021   3.244   3.909   3.791  1.0577 -2.2265 -2.3927
    8MOL0     H 1022   3.159   3.793   3.921 -1.3841 -1.8987 -1.2129
    8MOL0     H 1023   3.115   3.663   3.699  0.1872  1.1238 -1.5454
    8MOL0     H 1024   3.229   3.760   3.612  2.2838  2.5819  0.6284
    8MOL0     H 1025   3.280   3.581   3.850 -1.1387  0.1054  0.2814
    8MOL0     H 1026   3.327   3.551   3.688 -2.0496 -1.5730  0.1584
    8MOL0     H 1027   3.441   3.781   3.869  1.4629 -1.1498  0.3911
    8MOL0     H 1028   3.482   3.750   3.703 -4.8909 -0.1370 -2.1566
    8MOL0     H 1029   3.504   3.559   3.949  1.2209  1.5872  1.0109
    8MOL0     H 1030   3.549   3.516   3.790 -2.0168 -0.7976 -0.8432
    8MOL0     H 1031   3.815   3.507   3.788  1.7221  0.6838 -0.8291
    8MOL0     H 1032   4.074   3.742   3.810  1.1388  1.6593  3.2238
    8MOL0     H 1033   4.067   3.691   3.982 -1.0846 -1.0178  2.1856
    8MOL0     H 1034   4.059   3.456   3.908 -1.4067  1.4364  0.3352
    8MOL0     H 1035   4.060   3.503   3.736 -0.3905  1.0457 -0.0988
    8MOL0     H 1036   4.283   3.526   3.937 -0.6924 -0.1519 -0.0626
    8MOL0     H 1037   4.274   3.645   3.804  0.2565  0.1614  0.5236
    8MOL0     H 1038   4.421   3.477   3.757  0.7087 -3.0904  2.4147
    8MOL0     H 1039   4.282   3.444   3.649  0.6468 -0.2010  0.5793
    8MOL0     H 1040   4.549   3.411   3.904  1.0470  0.0315 -0.4202
    8MOL0     H 1041   4.685   3.331   4.076 -0.2217  0.7817 -0.2776
    8MOL0     H 1042   4.820   2.867   4.265 -2.1528  2.6480 -1.8814
    8MOL0     H 1043   5.017   2.779   4.418  1.0083  0.3437  1.0322
    8MOL0     H 1044   5.229   3.065   4.702  1.2200 -0.0693 -1.8689
    8MOL0     H 1045   5.104   2.940   4.762  0.6401  0.9455  0.6480
    8MOL0     H 1046   5.288   2.776   4.746 -5.4211  0.6769  0.4831
    8MOL0     H 1047   5.401   2.915   4.721 -0.1866  0.3140  1.1014
    8MOL0     H 1048   5.332   3.013   4.937  0.5608 -0.3033 -0.5993
    8MOL0     H 1049   5.216   2.888   4.955 -0.9235  1.3871 -1.6265
    8MOL0     H 1050   5.519   2.881   4.928 -1.2690  1.3237  0.0128
    8MOL0     H 1051   5.439   2.728   4.943  2.3755 -0.7081  2.4493
    8MOL0     H 1052   5.472   2.936   5.150 -0.2325  1.1055  0.1797
    8MOL0     H 1053   5.533   2.770   5.154  0.6045 -1.1875 -1.5772
    8MOL0     H 1054   5.356   2.790   5.304  0.0002  0.0639  0.4201
    8MOL0     H 1055   5.239   2.855   5.175  0.9483 -0.3179 -3.5607
    8MOL0     H 1056   5.364   2.577   5.177 -0.9054  0.4825 -0.2321
    8MOL0     H 1057   5.257   2.652   5.060  0.9378 -2.0699 -0.8168
    8MOL0     H 1058   5.141   2.493   5.234  0.2976  0.3131 -0.5504
    8MOL0     H 1059   5.199   2.608   5.364  1.8090  0.0999 -0.9495
    8MOL0     H 1060   5.089   3.171   4.556 -1.5383  1.0948  2.2177
    8MOL0     H 1061   4.913   3.264   4.412  1.1248  0.7175 -0.6043
    8MOL0     H 1062   4.400   2.999   4.118 -1.2793  0.0886 -1.9127
    8MOL0     H 1063   4.266   3.090   3.942 -2.1513  2.6081  0.3528
    8MOL0     H 1064   2.812   4.338   3.406  2.3256 -0.9639  1.3555
    8MOL0     H 1065   2.607   4.444   3.360  1.3616 -0.9342 -1.4810
    8MOL0     H 1066   2.199   4.721   3.595  2.7657  1.1425 -2.6866
    8MOL0     H 1067   1.982   4.793   3.545  0.8736 -0.8783  1.2928
    8MOL0     H 1068   1.766   4.910   3.400 -0.7642 -0.2156  0.0642
    8MOL0     H 1069   1.781   4.782   3.522  0.4223  2.0510  1.3094
    8MOL0     H 1070   1.555   4.804   3.490 -0.0979 -1.2005  1.3570
    8MOL0     H 1071   1.594   4.661   3.389  3.9276  0.1206  1.4948
    8MOL0     H 1072   1.594   4.814   3.189  3.8873  1.9271  1.4925
    8MOL0     H 1073   1.523   4.941   3.294 -0.6906  1.0317 -2.1096
    8MOL0     H 1074   1.358   4.827   3.168 -0.9605  2.2520  0.8994
    8MOL0     H 1075   1.398   4.674   3.246 -0.7280 -0.1485 -1.0158
    8MOL0     H 1076   1.170   4.813   3.566 -0.6848  2.5382 -0.3639
    8MOL0     H 1077   1.969   4.559   3.188 -0.1851 -0.1904  0.3532
    8MOL0     H 1078   2.219   4.342   3.273  2.3776  0.6272  0.2164
    8MOL0     H 1079   2.142   4.424   3.136 -1.3518  1.8541  0.8092
    8MOL0     H 1080   2.301   4.472   3.181 -0.3426 -0.2803 -0.6719
    9MOL0     O 1081   7.210   6.938  10.911  0.5382  0.5378  0.0834
    9MOL0     C 1082   7.126   6.850  10.912  0.3169  0.3309 -0.3617
    9MOL0     O 1083   7.119   6.732  10.984 -0.2924 -0.2622 -0.3684
    9MOL0     C 1084   7.229   6.689  11.048 -0.2820  0.1578 -0.9786
    9MOL0     C 1085   7.271   6.546  11.027  0.8001 -0.3382  0.6297
    9MOL0     C 1086   7.394   6.503  11.081  0.1600 -0.5294  0.6998
    9MOL0     C 1087   7.464   6.578  11.176 -0.5746 -0.4575  0.5040
    9MOL0     O 1088   7.587   6.539  11.230 -0.4547 -0.2666  0.8698
    9MOL0     C 1089   7.628   6.405  11.215  0.3279 -0.3767 -0.2156
    9MOL0     C 1090   7.738   6.360  11.312 -0.6203  0.2181  0.0146
    9MOL0     C 1091   7.875   6.406  11.262 -0.3376 -0.1730 -0.8648
    9MOL0     C 1092   7.982   6.390  11.372 -0.6440 -0.0797 -0.3952
    9MOL0     C 1093   8.129   6.423  11.323 -0.0870 -0.5377  0.2671
    9MOL0     C 1094   8.231   6.426  11.439 -0.3228 -0.1252  0.6089
    9MOL0     C 1095   8.369   6.473  11.392 -0.7674  0.2022 -0.5866
    9MOL0     C 1096   8.470   6.440  11.505  0.0944 -0.3010  0.3422
    9MOL0     N 1097   8.598   6.501  11.472  0.6095 -0.2061  0.4252
    9MOL0     C 1098   8.676   6.567  11.569 -0.1338  0.8722 -0.6898
    9MOL0     C 1099   8.793   6.595  11.509 -0.2785  0.1051  0.9036
    9MOL0     C 1100   8.913   6.668  11.556 -0.1296 -0.0306  0.0621
    9MOL0     C 1101   9.050   6.604  11.522  0.3275 -0.0598 -0.3722
    9MOL0     C 1102   9.165   6.696  11.560  0.3393 -0.2653  0.8596
    9MOL0     C 1103   9.290   6.620  11.531  0.4075  0.3489  0.8427
    9MOL0     O 1104   9.405   6.706  11.557 -0.1052  0.4668  0.7831
    9MOL0     C 1105   9.467   6.648  11.666 -0.6524  0.3457  1.0800
    9MOL0     C 1106   9.411   6.638  11.793 -0.1821 -0.4304 -0.1337
    9MOL0     C 1107   9.478   6.569  11.897  0.0360 -0.4166 -0.7949
    9MOL0     C 1108   9.611   6.523  11.877 -0.1391  0.0344 -0.5052
    9MOL0     C 1109   9.691   6.441  11.974 -0.7089  0.5216  0.2584
    9MOL0     O 1110   9.822   6.452  11.965 -0.2851 -0.0307  0.6262
    9MOL0     C 1111   9.906   6.376  12.046  0.0246  0.0347 -0.0995
    9MOL0     C 1112   9.959   6.245  12.018 -0.9380 -0.4796  0.0982
    9MOL0     C 1113  10.058   6.191  12.099 -0.0540  0.0528 -0.9707
    9MOL0     C 1114  10.121   6.261  12.203  0.1839  0.2598 -0.0785
    9MOL0     O 1115  10.229   6.198  12.267 -0.1655  0.9946 -0.2180
    9MOL0     C 1116  10.276   6.239  12.399 -0.3737 -0.3877  1.1527
    9MOL0     C 1117  10.205   6.187  12.514 -0.3685 -0.3839 -0.4570
    9MOL0     C 1118  10.219   6.038  12.537  0.1355 -0.1410 -0.1222
    9MOL0     C 1119  10.125   5.984  12.658  0.0192  0.1347  0.1359
    9MOL0     C 1120  10.017   5.878  12.614 -0.3485 -0.2114 -0.5014
    9MOL0     C 1121   9.907   5.865  12.727  0.3163  0.0175 -0.5375
    9MOL0     C 1122   9.799   5.982  12.722 -0.1973  0.4229  0.0667
    9MOL0     C 1123   9.677   5.936  12.647  0.3382 -0.1448  0.8334
    9MOL0    Cl 1124   9.575   5.838  12.764  0.2933 -0.0730  0.3435
    9MOL0     C 1125  10.068   6.394  12.233 -0.8502 -0.4590 -0.1870
    9MOL0     C 1126   9.964   6.442  12.158  0.8144 -0.7637  0.6546
    9MOL0     O 1127   9.628   6.372  12.051  0.8221  0.4956 -0.4179
    9MOL0     C 1128   9.670   6.535  11.746 -0.2693  0.4655 -0.0191
    9MOL0     C 1129   9.599   6.593  11.639 -0.4236 -0.2179 -0.7265
    9MOL0     N 1130   8.787   6.531  11.388  0.1256 -0.0209 -0.2938
    9MOL0     N 1131   8.667   6.493  11.360 -0.1528  0.5401 -0.0754
    9MOL0     C 1132   7.409   6.697  11.213  0.5447 -0.2783  0.3894
    9MOL0     C 1133   7.298   6.756  11.150  0.6053  0.2118 -0.5666
    9MOL0     C 1134   7.023   6.867  10.804 -0.0324  0.8835 -0.1380
    9MOL0     C 1135   6.972   6.754  10.736  0.5915  0.2906 -0.4139
    9MOL0     C 1136   6.881   6.761  10.632 -0.0691  0.0820 -0.2580
    9MOL0     C 1137   6.830   6.891  10.594 -0.3318 -0.2000  0.0192
    9MOL0     O 1138   6.727   6.886  10.501 -0.0577 -0.0554 -0.3452
    9MOL0     C 1139   6.664   7.006  10.451  0.1567 -0.1578  0.2889
    9MOL0     C 1140   6.529   6.958  10.406 -0.2255 -0.1170 -0.3730
    9MOL0     C 1141   6.433   7.081  10.393 -0.3865  1.2583 -0.3323
    9MOL0     C 1142   6.299   7.039  10.329  0.7130 -0.5304 -0.5125
    9MOL0     C 1143   6.239   7.169  10.285 -0.1335 -0.3448 -0.5336
    9MOL0     C 1144   6.204   7.279  10.243 -0.9096  0.3331 -0.1193
    9MOL0     C 1145   6.885   7.001  10.663  0.1280  0.3652 -0.6476
    9MOL0     C 1146   6.978   6.998  10.766  0.1865 -0.0769 -0.4167
    9MOL0     C 1147   7.009   7.129  10.839  0.0449  0.0433  0.0701
    9MOL0     H 1148   7.204   6.475  10.979  1.1020  1.3996 -2.6523
    9MOL0     H 1149   7.432   6.411  11.037  0.2107 -0.4307  0.5376
    9MOL0     H 1150   7.541   6.345  11.241  0.6106 -0.7083 -0.0332
    9MOL0     H 1151   7.669   6.377  11.117  2.1448 -0.4307  0.5192
    9MOL0     H 1152   7.734   6.253  11.334  1.1311  0.2301  0.4622
    9MOL0     H 1153   7.719   6.411  11.407 -0.2176 -0.7302  0.6107
    9MOL0     H 1154   7.872   6.511  11.234 -1.9992  1.1898  3.5561
    9MOL0     H 1155   7.901   6.336  11.182  2.9167  0.5714 -0.6075
    9MOL0     H 1156   7.957   6.452  11.458  1.4757  0.1237  0.1296
    9MOL0     H 1157   7.993   6.285  11.401  3.3092  0.4804  0.7111
    9MOL0     H 1158   8.169   6.363  11.241  0.6095  0.8954 -0.4634
    9MOL0     H 1159   8.130   6.526  11.289 -0.4329  0.6245  3.4075
    9MOL0     H 1160   8.188   6.483  11.523 -0.3648  1.1723 -0.2690
    9MOL0     H 1161   8.252   6.326  11.476  0.6685  0.1528  0.8374
    9MOL0     H 1162   8.367   6.581  11.381  3.4194  0.6955  1.5657
    9MOL0     H 1163   8.395   6.422  11.298 -1.1307  0.9587 -1.1023
    9MOL0     H 1164   8.433   6.478  11.601 -3.2282 -2.0700 -0.1036
    9MOL0     H 1165   8.486   6.332  11.513 -0.7343 -0.4912 -0.3819
    9MOL0     H 1166   8.669   6.580  11.677 -0.7522 -3.5579 -0.0188
    9MOL0     H 1167   8.899   6.766  11.509 -0.9254  2.1509  4.2807
    9MOL0     H 1168   8.921   6.681  11.665  3.3165 -2.0794  0.1994
    9MOL0     H 1169   9.072   6.520  11.589  0.8192  1.3030  1.2287
    9MOL0     H 1170   9.057   6.588  11.414  0.2962  0.3837 -0.4387
    9MOL0     H 1171   9.154   6.720  11.666  0.7168  1.1655  0.5972
    9MOL0     H 1172   9.149   6.790  11.507  1.2251 -1.4922 -1.7448
    9MOL0     H 1173   9.303   6.580  11.429  0.5183  0.5119  0.7926
    9MOL0     H 1174   9.288   6.527  11.589  1.1728  0.7447  1.5173
    9MOL0     H 1175   9.321   6.695  11.816  1.4416  1.3264  2.4909
    9MOL0     H 1176   9.438   6.551  11.996  2.6146 -2.1692  0.0158
    9MOL0     H 1177   9.913   6.181  11.943 -1.0992 -0.6454  0.3335
    9MOL0     H 1178  10.097   6.090  12.083 -0.0130 -0.3194  1.1573
    9MOL0     H 1179  10.375   6.194  12.410  1.0652  1.6044 -2.1187
    9MOL0     H 1180  10.299   6.345  12.405 -2.2620  0.0440  1.4204
    9MOL0     H 1181  10.249   6.231  12.604 -1.2346  0.8462 -0.6137
    9MOL0     H 1182  10.105   6.230  12.506  0.5959  2.0856 -0.0325
    9MOL0     H 1183  10.209   5.980  12.444  1.4039 -0.2726 -0.2042
    9MOL0     H 1184  10.322   6.023  12.572  0.4388  0.7116 -0.6343
    9MOL0     H 1185  10.084   6.072  12.708  4.7076  3.0001 -0.4661
    9MOL0     H 1186  10.198   5.939  12.726  0.1219  0.4194  0.2141
    9MOL0     H 1187  10.072   5.784  12.602  1.6086  0.7310  0.7173
    9MOL0     H 1188   9.966   5.910  12.522 -0.8241  3.4155  0.8641
    9MOL0     H 1189   9.867   5.764  12.738  0.8225 -0.0723  0.6270
    9MOL0     H 1190   9.958   5.880  12.822 -1.2810  1.4320  0.1405
    9MOL0     H 1191   9.843   6.071  12.675  0.1169 -0.0931 -0.6462
    9MOL0     H 1192   9.770   6.003  12.825  3.3359  0.6472  1.1650
    9MOL0     H 1193   9.621   6.026  12.620  1.8313  1.4457  2.6397
    9MOL0     H 1194   9.701   5.876  12.559  2.0844  1.7252 -0.0559
    9MOL0     H 1195  10.103   6.459  12.313 -3.8951 -1.5431  2.2317
    9MOL0     H 1196   9.921   6.536  12.189  1.2876 -1.6920  4.7593
    9MOL0     H 1197   9.773   6.504  11.733 -0.0132  1.2487  0.0547
    9MOL0     H 1198   9.645   6.597  11.541  1.1318 -2.3061 -0.1519
    9MOL0     H 1199   7.459   6.757  11.288 -1.7837  0.7407  1.2136
    9MOL0     H 1200   7.259   6.849  11.190 -3.0331 -2.2189  2.1942
    9MOL0     H 1201   7.000   6.650  10.751  2.5274  0.7782 -0.3778
    9MOL0     H 1202   6.855   6.680  10.565 -0.1241 -1.0755  1.1167
    9MOL0     H 1203   6.710   7.048  10.362  0.4082  1.8047  1.2846
    9MOL0     H 1204   6.656   7.081  10.531  1.3506  0.0729  0.2003
    9MOL0     H 1205   6.490   6.887  10.480 -1.1576  0.9732  0.2188
    9MOL0     H 1206   6.548   6.905  10.313 -0.1647 -1.3218  0.3065
    9MOL0     H 1207   6.485   7.166  10.347  0.6297  0.6272 -0.3707
    9MOL0     H 1208   6.407   7.111  10.495 -0.5702  0.3850 -0.1167
    9MOL0     H 1209   6.325   6.979  10.241  0.8716 -0.8292 -0.2625
    9MOL0     H 1210   6.232   6.991  10.400 -0.5016  1.0775 -0.5176
    9MOL0     H 1211   6.164   7.371  10.207  0.2032  0.9250  0.1230
    9MOL0     H 1212   6.856   7.104  10.644 -0.4443  0.4543  0.6095
    9MOL0     H 1213   7.110   7.167  10.821 -0.5633  2.7492  1.7769
    9MOL0     H 1214   6.941   7.210  10.810 -0.5001 -1.0019 -1.7569
    9MOL0     H 1215   6.997   7.105  10.945  0.0258  0.6777  0.2107
   10MOL0     O 1216   9.258  10.151   4.759  0.0041 -0.0987 -0.4123
   10MOL0     C 1217   9.210  10.217   4.669 -0.3472  0.6268 -0.8594
   10MOL0     O 1218   9.281  10.263   4.567 -0.7039 -0.4031  0.0928
   10MOL0     C 1219   9.408  10.225   4.545 -0.2381  0.3589 -0.1591
   10MOL0     C 1220   9.435  10.091   4.522 -0.1916  0.4384 -0.7503
   10MOL0     C 1221   9.564  10.037   4.523  0.0677  0.9726  0.5006
   10MOL0     C 1222   9.674  10.124   4.524  0.1256 -1.0467  0.1443
   10MOL0     O 1223   9.803  10.084   4.530 -0.4208 -0.0169  0.4799
   10MOL0     C 1224   9.851   9.992   4.422  0.6847 -0.9258  0.6982
   10MOL0     C 1225   9.997   9.961   4.436  0.2880 -0.0610 -0.3456
   10MOL0     C 1226  10.013   9.871   4.562 -0.5456  0.5120  0.3922
   10MOL0     C 1227  10.160   9.846   4.611 -0.4216 -0.3550  0.7534
   10MOL0     C 1228  10.254   9.966   4.647 -0.0896  0.1051  0.0316
   10MOL0     C 1229  10.405   9.959   4.674 -0.3515  0.6001 -0.4345
   10MOL0     C 1230  10.487   9.872   4.576 -0.5572  0.2971  0.6765
   10MOL0     C 1231  10.455   9.899   4.427  0.7832 -0.0210 -0.5139
   10MOL0     N 1232  10.574   9.888   4.342 -0.7322 -0.1440  0.5204
   10MOL0     C 1233  10.642   9.772   4.305 -0.5135  0.1357 -1.0778
   10MOL0     C 1234  10.730   9.801   4.217  0.1556 -0.1236 -0.0069
   10MOL0     C 1235  10.829   9.713   4.130 -0.1491  0.0790 -0.1935
   10MOL0     C 1236  10.960   9.688   4.204  0.0334 -0.0124  0.0886
   10MOL0     C 1237  11.041   9.820   4.214 -0.4442  0.4614  0.0622
   10MOL0     C 1238  11.187   9.802   4.264 -0.9255 -0.7777  0.1596
   10MOL0     O 1239  11.194   9.718   4.376 -0.5347 -0.3273 -0.8137
   10MOL0     C 1240  11.325   9.727   4.433 -0.0877  0.9701 -0.6380
   10MOL0     C 1241  11.431   9.664   4.380 -0.0780  0.2705  0.4797
   10MOL0     C 1242  11.563   9.673   4.432 -0.8472 -0.6526  0.2826
   10MOL0     C 1243  11.592   9.741   4.550  0.1144  0.5354 -0.2942
   10MOL0     C 1244  11.732   9.743   4.610 -0.1350 -0.6089  0.5532
   10MOL0     O 1245  11.830   9.688   4.533 -0.2950 -1.1862 -0.9075
   10MOL0     C 1246  11.959   9.698   4.568 -0.0003  0.7762 -0.3452
   10MOL0     C 1247  12.030   9.580   4.563 -0.2102  0.0966  0.3292
   10MOL0     C 1248  12.170   9.576   4.595  0.1887  0.1184 -0.2101
   10MOL0     C 1249  12.226   9.692   4.650 -0.5618  0.1246  0.4818
   10MOL0     O 1250  12.360   9.687   4.684 -0.6238 -0.0271 -0.2662
   10MOL0     C 1251  12.445   9.802   4.655 -0.0467 -0.0336 -0.6350
   10MOL0     C 1252  12.514   9.862   4.780  0.1534 -0.7554  0.2713
   10MOL0     C 1253  12.596   9.983   4.751 -0.6050  0.5721  0.8737
   10MOL0     C 1254  12.745   9.949   4.763  0.5677 -0.1014  0.6310
   10MOL0     C 1255  12.825  10.071   4.743 -0.2999  0.2772  0.4376
   10MOL0     C 1256  12.970  10.045   4.771 -0.0829  0.0416  0.3705
   10MOL0     C 1257  13.043  10.182   4.772  0.1414  0.5156 -0.0792
   10MOL0     C 1258  13.192  10.169   4.773  0.8355  1.0399  0.6145
   10MOL0    Cl 1259  13.235  10.072   4.630 -0.1417 -0.5764 -0.2867
   10MOL0     C 1260  12.147   9.810   4.674  0.6639  0.0972 -0.3149
   10MOL0     C 1261  12.017   9.811   4.623 -0.3500  0.0233 -0.2136
   10MOL0     O 1262  11.750   9.792   4.722  0.1543  0.2293  0.3857
   10MOL0     C 1263  11.481   9.808   4.614  0.2527 -0.1776  0.8295
   10MOL0     C 1264  11.350   9.793   4.554 -0.6214  0.5270 -0.2929
   10MOL0     N 1265  10.713   9.932   4.183  0.1022 -0.4992 -0.2272
   10MOL0     N 1266  10.621   9.986   4.262 -1.1567 -0.1361 -0.5237
   10MOL0     C 1267   9.644  10.262   4.550 -0.7389  0.0040 -0.2715
   10MOL0     C 1268   9.517  10.311   4.547  0.0288 -0.0194 -1.0158
   10MOL0     C 1269   9.059  10.223   4.665 -0.0891 -0.6818 -0.5675
   10MOL0     C 1270   9.004  10.266   4.541  0.1478  0.0681 -0.0650
   10MOL0     C 1271   8.869  10.293   4.531 -0.1033  0.0243 -0.2193
   10MOL0     C 1272   8.786  10.273   4.639  0.5969 -0.6578 -0.5114
   10MOL0     O 1273   8.653  10.290   4.616 -0.2062  0.3882 -0.2648
   10MOL0     C 1274   8.556  10.238   4.707 -0.3390 -0.5687  0.1995
   10MOL0     C 1275   8.418  10.250   4.649  0.5253  0.4040  0.0585
   10MOL0     C 1276   8.404  10.150   4.534 -0.3298  0.6157 -0.3229
   10MOL0     C 1277   8.261  10.144   4.482 -0.7057 -0.3776  0.0094
   10MOL0     C 1278   8.199  10.268   4.440  0.0371  0.2394  0.1502
   10MOL0     C 1279   8.149  10.377   4.411  0.4218  0.1803  0.1667
   10MOL0     C 1280   8.837  10.231   4.763  0.3721  0.4438 -0.0393
   10MOL0     C 1281   8.976  10.206   4.779 -0.2351 -0.2863  0.3549
   10MOL0     C 1282   9.030  10.173   4.913 -1.5617  0.0703  0.3585
   10MOL0     H 1283   9.356  10.017   4.518 -0.1961  0.5177 -2.4748
   10MOL0     H 1284   9.590   9.932   4.508  0.0188  0.9651  0.4701
   10MOL0     H 1285   9.803   9.895   4.413  1.1804 -1.0539 -0.9929
   10MOL0     H 1286   9.826  10.038   4.326 -0.8414  1.7217  2.2400
   10MOL0     H 1287  10.062  10.049   4.440  0.8919 -0.5482  0.6861
   10MOL0     H 1288  10.027   9.901   4.349 -0.7827 -1.3272  0.1316
   10MOL0     H 1289   9.970   9.770   4.559  0.5471  0.0377  0.3801
   10MOL0     H 1290   9.968   9.919   4.650 -1.6520 -1.2672  0.8519
   10MOL0     H 1291  10.156   9.768   4.687 -0.5515 -0.9470  0.1528
   10MOL0     H 1292  10.205   9.785   4.532 -1.5536 -1.8889  1.2471
   10MOL0     H 1293  10.243  10.017   4.551 -1.7427 -2.9808 -1.5711
   10MOL0     H 1294  10.212  10.018   4.733 -1.0231 -1.1779  0.3836
   10MOL0     H 1295  10.452  10.058   4.680  3.7001 -1.0060 -1.9484
   10MOL0     H 1296  10.429   9.910   4.769  0.7230 -0.6166 -1.3071
   10MOL0     H 1297  10.476   9.765   4.595 -1.1276  0.1229 -0.5433
   10MOL0     H 1298  10.588   9.904   4.602 -0.2965  1.3117 -1.4344
   10MOL0     H 1299  10.377   9.832   4.391 -1.0525  3.4246 -3.6479
   10MOL0     H 1300  10.415   9.999   4.411 -1.9464 -0.5380  2.1550
   10MOL0     H 1301  10.625   9.670   4.340  0.4098  0.0461 -0.8604
   10MOL0     H 1302  10.781   9.620   4.100  1.9111 -0.3673 -2.4523
   10MOL0     H 1303  10.844   9.769   4.038 -1.2685  0.4458 -0.1680
   10MOL0     H 1304  10.932   9.651   4.303  0.8392 -1.2217 -0.1176
   10MOL0     H 1305  11.015   9.617   4.142 -1.2306  0.1209 -1.2510
   10MOL0     H 1306  10.982   9.886   4.278  2.2426  2.5169  0.5938
   10MOL0     H 1307  11.042   9.866   4.114 -1.8639  0.4716  0.0363
   10MOL0     H 1308  11.236   9.892   4.303  0.1251  0.1657 -3.0265
   10MOL0     H 1309  11.251   9.761   4.185  2.3831  2.5122  0.8196
   10MOL0     H 1310  11.406   9.628   4.281  0.7282  1.4583 -0.1877
   10MOL0     H 1311  11.642   9.635   4.369  0.5863  0.8857  1.0714
   10MOL0     H 1312  11.970   9.495   4.533 -2.3599  0.6425  2.6701
   10MOL0     H 1313  12.229   9.489   4.570  1.1778  0.3756  1.0989
   10MOL0     H 1314  12.526   9.756   4.598 -0.5498 -0.8868 -0.6662
   10MOL0     H 1315  12.382   9.876   4.604 -0.3306 -0.9590 -1.6675
   10MOL0     H 1316  12.437   9.902   4.847  0.5485  2.6009 -1.0860
   10MOL0     H 1317  12.576   9.788   4.831 -0.5588 -1.9511 -0.5219
   10MOL0     H 1318  12.594  10.016   4.647 -0.1422 -1.7260  0.0536
   10MOL0     H 1319  12.574  10.066   4.818 -1.4705 -0.4290  1.8851
   10MOL0     H 1320  12.760   9.866   4.693 -3.1913 -0.8766  0.5229
   10MOL0     H 1321  12.762   9.908   4.863 -0.5492  1.7863  1.6480
   10MOL0     H 1322  12.791  10.145   4.816  1.2972 -0.2242  1.7599
   10MOL0     H 1323  12.820  10.106   4.640 -1.0216 -0.4130  0.2279
   10MOL0     H 1324  12.978  10.002   4.872  1.2253 -0.5120  0.0507
   10MOL0     H 1325  13.007   9.974   4.697 -0.3285  0.6735 -0.3763
   10MOL0     H 1326  13.014  10.243   4.857 -0.6522 -0.1734  0.1519
   10MOL0     H 1327  13.028  10.248   4.686  1.0215  1.7669  0.6997
   10MOL0     H 1328  13.238  10.268   4.761  0.4448  1.1791  0.2380
   10MOL0     H 1329  13.228  10.128   4.868 -2.4813 -0.2201  1.4518
   10MOL0     H 1330  12.190   9.893   4.730 -2.4278  0.8773  1.1299
   10MOL0     H 1331  11.967   9.908   4.621  0.9457  0.7568 -2.9361
   10MOL0     H 1332  11.492   9.848   4.714 -6.3699  0.1604  1.8664
   10MOL0     H 1333  11.266   9.821   4.616  0.9466  1.1701  1.6440
   10MOL0     H 1334   9.736  10.319   4.544  0.2898 -1.6518 -1.1565
   10MOL0     H 1335   9.504  10.419   4.552 -1.5563 -0.1715 -1.2014
   10MOL0     H 1336   9.071  10.281   4.458  2.0525 -2.5501  0.8938
   10MOL0     H 1337   8.822  10.336   4.444  0.4770 -0.3908 -0.7445
   10MOL0     H 1338   8.558  10.292   4.802 -1.1268 -1.5823  0.8161
   10MOL0     H 1339   8.579  10.135   4.734  0.5161 -0.2288  0.8227
   10MOL0     H 1340   8.403  10.351   4.610 -0.5054  0.1768 -0.1514
   10MOL0     H 1341   8.345  10.223   4.726 -1.0530  1.5900 -0.9726
   10MOL0     H 1342   8.450  10.058   4.569  0.4130  1.2418  0.3694
   10MOL0     H 1343   8.480  10.171   4.458  2.3846 -2.9292  1.1645
   10MOL0     H 1344   8.253  10.080   4.394  2.0668 -0.7443 -0.0585
   10MOL0     H 1345   8.206  10.105   4.568  0.5747 -0.9423  0.6049
   10MOL0     H 1346   8.114  10.476   4.387  0.9262  0.5864  1.0586
   10MOL0     H 1347   8.775  10.224   4.852 -0.4112 -2.9946 -0.6944
   10MOL0     H 1348   9.069  10.071   4.914 -0.6294  0.4030 -0.0219
   10MOL0     H 1349   9.113  10.243   4.929 -2.0668  1.7554 -3.1843
   10MOL0     H 1350   8.966  10.180   5.001  1.7547  0.1236  2.9521
   11MOL0     O 1351   2.750   9.361   3.327  0.0834  0.2153 -0.3413
   11MOL0     C 1352   2.681   9.379   3.229 -0.0251  0.7093 -0.7343
   11MOL0     O 1353   2.718   9.473   3.132  0.4425 -0.1628  0.3408
   11MOL0     C 1354   2.844   9.542   3.144 -0.1414 -0.5030  0.1983
   11MOL0     C 1355   2.863   9.639   3.247 -0.2524  0.0603 -0.2672
   11MOL0     C 1356   2.987   9.708   3.247  0.2175 -0.8431 -0.6703
   11MOL0     C 1357   3.092   9.680   3.148  0.3578 -0.1688  1.4491
   11MOL0     O 1358   3.212   9.740   3.152 -0.3461 -0.0524  0.1197
   11MOL0     C 1359   3.316   9.653   3.197  0.2708  0.0644  0.7508
   11MOL0     C 1360   3.379   9.712   3.328 -0.1970 -0.0246 -0.0456
   11MOL0     C 1361   3.494   9.629   3.382 -0.3617 -0.2999  0.2421
   11MOL0     C 1362   3.631   9.645   3.317  0.7791  0.2208 -0.2304
   11MOL0     C 1363   3.732   9.541   3.367  0.6559  0.0738  1.5284
   11MOL0     C 1364   3.778   9.547   3.511  0.2492 -0.2349  0.6262
   11MOL0     C 1365   3.836   9.678   3.558  0.0196 -0.3520 -0.6521
   11MOL0     C 1366   3.980   9.692   3.514  0.9819 -0.4330 -0.5220
   11MOL0     N 1367   4.081   9.640   3.612 -0.0719  0.3772 -0.8497
   11MOL0     C 1368   4.098   9.693   3.739  0.3247 -0.9794  0.1650
   11MOL0     C 1369   4.199   9.626   3.781 -0.1110  0.4926  0.1017
   11MOL0     C 1370   4.248   9.638   3.915  0.3098 -0.0440 -0.6687
   11MOL0     C 1371   4.384   9.688   3.917 -0.0427  0.2603  0.9626
   11MOL0     C 1372   4.451   9.664   4.051  0.3807 -0.0548  0.3980
   11MOL0     C 1373   4.592   9.714   4.059  0.1978  0.1632 -0.1441
   11MOL0     O 1374   4.676   9.611   4.008 -0.2668 -0.3497 -0.4678
   11MOL0     C 1375   4.811   9.624   4.015  0.7038 -0.8190 -0.3214
   11MOL0     C 1376   4.869   9.539   3.927  0.0242  0.3635  0.2652
   11MOL0     C 1377   5.011   9.529   3.923  0.2545 -0.3581 -0.2737
   11MOL0     C 1378   5.096   9.598   4.011 -0.6115  0.3596  0.2712
   11MOL0     C 1379   5.240   9.594   3.994  0.3308 -0.0059  1.2503
   11MOL0     O 1380   5.314   9.687   4.057  0.3072  0.4237 -0.5778
   11MOL0     C 1381   5.453   9.695   4.047  0.7034  0.5288 -0.1698
   11MOL0     C 1382   5.531   9.648   4.154 -0.1628 -0.5092  0.4924
   11MOL0     C 1383   5.673   9.648   4.137 -0.4640  0.3589  0.1182
   11MOL0     C 1384   5.730   9.682   4.015 -0.0257 -0.8348  1.1091
   11MOL0     O 1385   5.864   9.690   4.005  0.2603 -0.1201  0.0746
   11MOL0     C 1386   5.936   9.647   3.889  0.1338 -0.0464  1.3556
   11MOL0     C 1387   6.077   9.607   3.914 -0.3968 -0.1332 -0.3935
   11MOL0     C 1388   6.150   9.544   3.799 -0.5787  0.7612 -0.8117
   11MOL0     C 1389   6.292   9.495   3.836  0.6227  0.7966 -0.3869
   11MOL0     C 1390   6.402   9.610   3.843  1.1756  0.8693  0.6222
   11MOL0     C 1391   6.534   9.556   3.904  0.2938  0.0916  0.4460
   11MOL0     C 1392   6.639   9.654   3.878 -0.3499  0.6251  0.1424
   11MOL0     C 1393   6.757   9.612   3.966  0.8523 -0.1105 -0.6905
   11MOL0    Cl 1394   6.913   9.654   3.888 -0.0234 -0.2682 -0.4819
   11MOL0     C 1395   5.647   9.726   3.910 -0.6858  0.0775  0.1320
   11MOL0     C 1396   5.509   9.739   3.927 -0.6312  0.5474 -0.4225
   11MOL0     O 1397   5.278   9.507   3.919  0.4376 -0.5544 -0.4825
   11MOL0     C 1398   5.032   9.694   4.091 -0.5462  0.0392 -0.6133
   11MOL0     C 1399   4.894   9.705   4.091  0.3204 -1.2095 -0.1270
   11MOL0     N 1400   4.235   9.529   3.685  0.0401  0.0125  0.2692
   11MOL0     N 1401   4.161   9.540   3.579  0.1805  0.4163 -0.2628
   11MOL0     C 1402   3.059   9.589   3.044  0.2461 -0.6563 -0.2429
   11MOL0     C 1403   2.939   9.519   3.044 -0.3877  0.1210 -0.6462
   11MOL0     C 1404   2.561   9.295   3.220 -0.3057  0.0987  0.4640
   11MOL0     C 1405   2.526   9.209   3.331  0.0093 -0.0278  0.0328
   11MOL0     C 1406   2.411   9.131   3.334  0.6395 -0.9341 -0.1892
   11MOL0     C 1407   2.326   9.119   3.220  0.4984  0.1944  1.1188
   11MOL0     O 1408   2.213   9.034   3.219  0.0417  0.3820  0.2083
   11MOL0     C 1409   2.237   8.890   3.215  0.2613 -0.7083 -0.2561
   11MOL0     C 1410   2.117   8.799   3.197  0.6173  0.4318 -0.4515
   11MOL0     C 1411   2.018   8.846   3.311 -0.6282  0.2965  0.1241
   11MOL0     C 1412   1.880   8.791   3.292 -0.2726 -0.1983 -0.3223
   11MOL0     C 1413   1.865   8.647   3.268  0.0481  0.0007  0.5889
   11MOL0     C 1414   1.840   8.540   3.220  0.4310 -0.4313  0.2182
   11MOL0     C 1415   2.362   9.193   3.105 -0.1874  0.0222 -0.0801
   11MOL0     C 1416   2.482   9.272   3.103  0.2377  0.3112 -0.0236
   11MOL0     C 1417   2.503   9.353   2.974 -0.6031  0.1454  0.2394
   11MOL0     H 1418   2.788   9.657   3.324 -0.5733  0.6941 -0.7205
   11MOL0     H 1419   3.013   9.772   3.330  3.4814 -0.9228 -1.5190
   11MOL0     H 1420   3.277   9.551   3.203  0.3061  0.0252  0.3291
   11MOL0     H 1421   3.390   9.650   3.117 -0.1245  1.4354  0.3204
   11MOL0     H 1422   3.298   9.719   3.402  2.0090  1.4937  2.3857
   11MOL0     H 1423   3.414   9.814   3.308 -0.5136  0.2237  0.6278
   11MOL0     H 1424   3.466   9.524   3.394  0.6018 -0.3587  2.3206
   11MOL0     H 1425   3.512   9.656   3.486 -1.8157  1.1243  0.1645
   11MOL0     H 1426   3.622   9.632   3.209  1.6619 -0.5113 -0.2295
   11MOL0     H 1427   3.666   9.746   3.341  1.0378  0.1457 -0.2948
   11MOL0     H 1428   3.692   9.441   3.347 -1.6441  0.4613  3.7279
   11MOL0     H 1429   3.825   9.539   3.308  0.2361 -2.1252  0.8511
   11MOL0     H 1430   3.699   9.517   3.580 -0.8736  0.1297 -0.4583
   11MOL0     H 1431   3.863   9.478   3.511  0.1909 -0.4206  3.6855
   11MOL0     H 1432   3.833   9.674   3.667 -1.1948 -1.4307 -0.6983
   11MOL0     H 1433   3.775   9.757   3.513 -3.4305 -3.5905 -2.2826
   11MOL0     H 1434   4.005   9.644   3.419  0.3659 -1.8928  0.0194
   11MOL0     H 1435   3.991   9.801   3.507 -1.3150 -0.0038  1.1469
   11MOL0     H 1436   4.047   9.783   3.774  2.2238  0.1074  0.2400
   11MOL0     H 1437   4.180   9.699   3.975  0.9098 -1.8605  2.0452
   11MOL0     H 1438   4.255   9.542   3.967  0.6296 -0.9249 -2.2934
   11MOL0     H 1439   4.441   9.635   3.840 -0.9202  2.6089 -1.4543
   11MOL0     H 1440   4.385   9.792   3.884 -0.4425 -0.1800 -0.5088
   11MOL0     H 1441   4.464   9.558   4.075  1.0353 -0.1455 -0.3300
   11MOL0     H 1442   4.394   9.697   4.139  2.1985 -3.5645  3.1756
   11MOL0     H 1443   4.612   9.739   4.164  0.1525 -1.1874  0.1991
   11MOL0     H 1444   4.602   9.805   3.999 -0.3475  1.0069  1.0055
   11MOL0     H 1445   4.827   9.460   3.865  1.9773 -0.4041 -0.1784
   11MOL0     H 1446   5.059   9.458   3.857  3.4079 -0.6915  2.1282
   11MOL0     H 1447   5.471   9.618   4.239 -2.0507  3.8846  0.9607
   11MOL0     H 1448   5.736   9.615   4.219 -1.6682  0.1561  1.0017
   11MOL0     H 1449   5.884   9.557   3.856 -0.1391 -0.2725  2.3528
   11MOL0     H 1450   5.923   9.726   3.815 -1.0213  0.1887  1.7731
   11MOL0     H 1451   6.119   9.703   3.947  0.3549 -1.2064  1.9721
   11MOL0     H 1452   6.083   9.540   4.000 -0.9906  1.3723  0.8744
   11MOL0     H 1453   6.094   9.470   3.740  1.0000 -1.8942  0.7941
   11MOL0     H 1454   6.165   9.626   3.728  0.6144  0.6152 -0.7583
   11MOL0     H 1455   6.315   9.417   3.762 -0.9060  1.0299 -1.1363
   11MOL0     H 1456   6.289   9.448   3.934 -2.1053 -0.2567 -0.8989
   11MOL0     H 1457   6.379   9.694   3.909  3.2780 -0.0453  2.6736
   11MOL0     H 1458   6.406   9.649   3.741  0.2597  0.7735  0.5396
   11MOL0     H 1459   6.507   9.537   4.008 -2.7432  2.1568  0.1496
   11MOL0     H 1460   6.572   9.465   3.857  4.5334  2.3787 -1.1217
   11MOL0     H 1461   6.607   9.754   3.907 -0.2721  0.3511  1.2177
   11MOL0     H 1462   6.667   9.656   3.773 -0.2673  4.3217  0.1313
   11MOL0     H 1463   6.759   9.665   4.062  2.2225 -0.1379 -0.6832
   11MOL0     H 1464   6.758   9.505   3.988 -0.0036  0.2825  1.5534
   11MOL0     H 1465   5.683   9.763   3.814  0.6582  0.7931  0.8810
   11MOL0     H 1466   5.446   9.766   3.843 -3.5442 -2.5257  0.5671
   11MOL0     H 1467   5.089   9.765   4.149 -3.4345  1.5429  0.6004
   11MOL0     H 1468   4.848   9.773   4.163 -2.0835 -0.2190 -2.4506
   11MOL0     H 1469   3.127   9.574   2.960 -1.9584 -0.9698 -2.0711
   11MOL0     H 1470   2.921   9.449   2.963  0.1425 -0.3395 -0.3716
   11MOL0     H 1471   2.581   9.211   3.425  1.2614  1.8050 -0.6715
   11MOL0     H 1472   2.389   9.086   3.431 -2.0705 -1.0735 -0.7741
   11MOL0     H 1473   2.284   8.859   3.309 -2.1474 -0.5358  1.0906
   11MOL0     H 1474   2.300   8.867   3.129 -1.0788  2.1811 -2.1606
   11MOL0     H 1475   2.154   8.699   3.221  0.1388  0.1228 -0.9618
   11MOL0     H 1476   2.091   8.793   3.091  0.1245 -2.7344 -0.2441
   11MOL0     H 1477   2.010   8.955   3.312  1.3695  0.6053 -2.8417
   11MOL0     H 1478   2.061   8.803   3.401 -0.6697 -3.0823 -1.3094
   11MOL0     H 1479   1.819   8.810   3.381  1.4947  0.4994  0.8017
   11MOL0     H 1480   1.837   8.845   3.208 -0.4181 -0.1692 -0.2297
   11MOL0     H 1481   1.817   8.448   3.170 -0.8924  1.1336 -2.2636
   11MOL0     H 1482   2.306   9.182   3.012 -2.8302 -4.2415  1.7142
   11MOL0     H 1483   2.608   9.358   2.943 -0.8511 -0.2859 -0.6788
   11MOL0     H 1484   2.451   9.305   2.891  2.5256 -0.8689 -1.2732
   11MOL0     H 1485   2.469   9.457   2.984  1.1267  0.7579  0.0667
   12MOL0     O 1486   3.059   8.984   4.201  0.5978  0.2316  0.1285
   12MOL0     C 1487   3.043   8.924   4.305  1.1291 -0.3537  0.0922
   12MOL0     O 1488   3.107   8.942   4.422 -0.0999 -0.3686 -0.1109
   12MOL0     C 1489   3.218   9.023   4.432  0.6966  0.3225 -0.1573
   12MOL0     C 1490   3.206   9.159   4.407 -0.0732  0.8715  0.3830
   12MOL0     C 1491   3.305   9.245   4.450 -0.5365 -0.8932  0.3744
   12MOL0     C 1492   3.423   9.199   4.515  0.7155 -0.1897  0.5293
   12MOL0     O 1493   3.511   9.297   4.563  0.0711  0.8934  0.3553
   12MOL0     C 1494   3.601   9.265   4.672 -0.0794  0.9374  0.3525
   12MOL0     C 1495   3.632   9.387   4.753  0.3263 -0.0495  0.2690
   12MOL0     C 1496   3.784   9.386   4.789 -0.2740 -0.7467 -1.0024
   12MOL0     C 1497   3.841   9.517   4.764  0.4311 -0.5005 -0.1420
   12MOL0     C 1498   3.994   9.526   4.815  0.3402  0.8027 -0.4156
   12MOL0     C 1499   4.056   9.655   4.764 -0.1571 -0.3300 -0.1503
   12MOL0     C 1500   4.207   9.660   4.794 -0.6015  0.1002  0.3561
   12MOL0     C 1501   4.249   9.667   4.940 -1.0077 -0.7029 -0.7710
   12MOL0     N 1502   4.398   9.690   4.967 -0.3413  0.0638 -0.1843
   12MOL0     C 1503   4.491   9.588   4.981  0.0806 -0.5614  0.0273
   12MOL0     C 1504   4.608   9.662   4.994  0.6771 -0.5389  0.5432
   12MOL0     C 1505   4.745   9.601   5.034  0.9654  0.1973  0.0327
   12MOL0     C 1506   4.777   9.642   5.180 -0.5918 -0.6324 -0.2746
   12MOL0     C 1507   4.913   9.578   5.219  0.8344 -0.4151 -0.2126
   12MOL0     C 1508   4.954   9.584   5.367  0.1539 -0.0624  0.0206
   12MOL0     O 1509   5.071   9.508   5.401 -0.1475 -0.2499  0.3043
   12MOL0     C 1510   5.194   9.547   5.363 -0.1578  0.1985 -0.3751
   12MOL0     C 1511   5.238   9.677   5.356 -0.1208 -0.7021  0.5441
   12MOL0     C 1512   5.373   9.703   5.320  0.0790  0.4638 -0.0247
   12MOL0     C 1513   5.474   9.608   5.302 -0.0990  0.2592  0.2193
   12MOL0     C 1514   5.620   9.641   5.275 -0.2761  0.0003  0.4930
   12MOL0     O 1515   5.702   9.538   5.261  0.2630  0.1029  0.2746
   12MOL0     C 1516   5.839   9.571   5.265  0.4800  0.0531 -0.8992
   12MOL0     C 1517   5.912   9.561   5.394  0.3459  0.8305  0.5225
   12MOL0     C 1518   6.047   9.589   5.387  0.1076  0.8236  0.3865
   12MOL0     C 1519   6.108   9.620   5.265 -0.3184 -0.5211  0.0043
   12MOL0     O 1520   6.238   9.656   5.277 -0.1154  0.0316  0.2301
   12MOL0     C 1521   6.273   9.769   5.188 -0.3920  0.7034  0.8031
   12MOL0     C 1522   6.372   9.857   5.266 -0.3709  0.4170  0.2075
   12MOL0     C 1523   6.494   9.915   5.170  0.7610  0.4371  0.3446
   12MOL0     C 1524   6.592   9.816   5.126  0.3807  0.3230  0.7788
   12MOL0     C 1525   6.709   9.878   5.050 -0.1212 -0.2988  0.4423
   12MOL0     C 1526   6.814   9.777   4.991  0.5400 -0.3386 -0.1548
   12MOL0     C 1527   6.941   9.842   4.942  0.6134  0.2674 -0.2067
   12MOL0     C 1528   6.922   9.950   4.832 -0.5744  0.0161  0.0896
   12MOL0    Cl 1529   6.853   9.892   4.678 -0.0780 -0.0911 -0.2843
   12MOL0     C 1530   6.039   9.601   5.146 -0.7734 -0.5893 -1.0689
   12MOL0     C 1531   5.899   9.588   5.144 -0.5098 -0.2448  0.5739
   12MOL0     O 1532   5.660   9.759   5.287  0.0367  0.4072 -0.4591
   12MOL0     C 1533   5.423   9.473   5.303  0.8426  1.3544 -1.0043
   12MOL0     C 1534   5.286   9.447   5.336 -0.1678  0.0717  0.1057
   12MOL0     N 1535   4.582   9.801   4.976 -0.3149  0.5734 -0.3011
   12MOL0     N 1536   4.458   9.815   4.966  0.7059  0.5176  0.0755
   12MOL0     C 1537   3.435   9.062   4.531 -0.7522  0.3211  0.4404
   12MOL0     C 1538   3.334   8.975   4.487  0.5544  0.1018  0.0658
   12MOL0     C 1539   2.942   8.825   4.306  0.7132 -0.4604  0.4201
   12MOL0     C 1540   2.941   8.734   4.425 -0.9069 -0.3746  0.3617
   12MOL0     C 1541   2.835   8.645   4.442  0.7105 -0.5200  0.2603
   12MOL0     C 1542   2.747   8.622   4.345 -0.0199  0.0120  0.0378
   12MOL0     O 1543   2.651   8.526   4.377 -0.2413 -0.3073  0.3845
   12MOL0     C 1544   2.569   8.474   4.265 -0.4652 -0.1520 -0.4107
   12MOL0     C 1545   2.489   8.361   4.308 -0.6565  0.0098 -0.0308
   12MOL0     C 1546   2.414   8.295   4.197 -0.2317  0.2220  0.4399
   12MOL0     C 1547   2.278   8.359   4.172 -0.5809 -0.1560 -0.0294
   12MOL0     C 1548   2.212   8.301   4.056  0.7313 -0.6752 -0.4575
   12MOL0     C 1549   2.124   8.267   3.980 -0.0637  0.4254 -0.3232
   12MOL0     C 1550   2.765   8.689   4.223 -0.0053  0.8218 -1.0035
   12MOL0     C 1551   2.852   8.794   4.201 -0.5055  0.0299  0.2835
   12MOL0     C 1552   2.829   8.878   4.077 -0.3496 -0.7674  0.2977
   12MOL0     H 1553   3.109   9.193   4.371  0.1405  0.7729 -0.2907
   12MOL0     H 1554   3.295   9.353   4.446  2.2562 -0.5767  0.2182
   12MOL0     H 1555   3.543   9.195   4.733  0.1040 -0.4453 -0.9902
   12MOL0     H 1556   3.688   9.218   4.626  1.1592  0.3030  3.1328
   12MOL0     H 1557   3.563   9.396   4.837 -0.5130 -0.0175 -0.4015
   12MOL0     H 1558   3.611   9.478   4.696  1.2017  0.0940  0.1542
   12MOL0     H 1559   3.841   9.310   4.735 -1.0661 -2.8171  0.8811
   12MOL0     H 1560   3.795   9.358   4.894  0.6792  0.9218 -0.6260
   12MOL0     H 1561   3.829   9.527   4.655 -2.5830 -2.4326 -0.1413
   12MOL0     H 1562   3.783   9.592   4.818  1.5067  0.4899 -0.3411
   12MOL0     H 1563   3.987   9.513   4.923 -0.5530 -1.4203 -0.6682
   12MOL0     H 1564   4.056   9.444   4.778 -2.3361 -1.7789  0.4146
   12MOL0     H 1565   4.040   9.670   4.656  0.9782  2.7830  0.0190
   12MOL0     H 1566   4.016   9.747   4.807  2.0070  2.1783 -3.0081
   12MOL0     H 1567   4.245   9.754   4.755  1.5358  0.2311  2.4953
   12MOL0     H 1568   4.246   9.566   4.754 -1.9345 -0.4350  0.2678
   12MOL0     H 1569   4.185   9.741   4.988 -0.8815 -0.6363 -0.7059
   12MOL0     H 1570   4.217   9.577   4.993 -1.5197 -0.0221  0.1075
   12MOL0     H 1571   4.478   9.482   5.002  1.7808 -1.5938 -3.4460
   12MOL0     H 1572   4.732   9.492   5.028 -2.9068  0.2809  2.8292
   12MOL0     H 1573   4.828   9.638   4.974  0.4229  0.6644 -0.4426
   12MOL0     H 1574   4.776   9.751   5.194 -0.9070 -0.7355  0.5573
   12MOL0     H 1575   4.697   9.605   5.245 -0.1988  3.0483  2.6775
   12MOL0     H 1576   4.992   9.616   5.154  1.1423 -2.4623 -1.1129
   12MOL0     H 1577   4.920   9.472   5.192 -1.8626 -1.2421  1.8188
   12MOL0     H 1578   4.873   9.553   5.434  0.0691  0.3667  0.1167
   12MOL0     H 1579   4.967   9.690   5.389 -1.3797  0.7452 -2.6087
   12MOL0     H 1580   5.181   9.768   5.375  2.9802  2.2031 -2.5528
   12MOL0     H 1581   5.411   9.805   5.315 -2.9311  1.8198  1.9063
   12MOL0     H 1582   5.850   9.536   5.479 -1.9521  0.8654 -1.0297
   12MOL0     H 1583   6.111   9.577   5.474  0.0585  0.0678  0.3235
   12MOL0     H 1584   6.322   9.740   5.095  0.9015  0.4759  1.5345
   12MOL0     H 1585   6.185   9.831   5.166 -2.6376 -1.9999  1.5181
   12MOL0     H 1586   6.317   9.939   5.313  2.8638  2.9034  0.0237
   12MOL0     H 1587   6.406   9.801   5.354  0.9568  0.2253 -0.4049
   12MOL0     H 1588   6.449   9.956   5.080  3.6263  1.7700 -0.5966
   12MOL0     H 1589   6.545  10.002   5.213 -0.9855  1.4594  0.4437
   12MOL0     H 1590   6.537   9.751   5.058  1.3875  1.1186 -0.8627
   12MOL0     H 1591   6.637   9.762   5.210  1.8619  1.1867  0.5761
   12MOL0     H 1592   6.759   9.945   5.120  1.6749  1.0828 -2.0232
   12MOL0     H 1593   6.662   9.930   4.967 -0.4355  0.3389  1.0130
   12MOL0     H 1594   6.845   9.716   5.077 -0.1204 -1.6182 -0.7845
   12MOL0     H 1595   6.756   9.725   4.914 -1.0465  0.5015  0.4135
   12MOL0     H 1596   7.005   9.758   4.916 -0.0929 -1.2826  2.7183
   12MOL0     H 1597   7.002   9.881   5.024  1.3494  2.9161 -1.8583
   12MOL0     H 1598   6.860  10.036   4.859  1.4123  2.1416 -1.7015
   12MOL0     H 1599   7.019   9.998   4.813 -0.6291  0.5030  0.9863
   12MOL0     H 1600   6.098   9.607   5.055 -0.4556 -1.3511 -0.9186
   12MOL0     H 1601   5.853   9.582   5.046 -1.5740 -0.1024  1.0484
   12MOL0     H 1602   5.495   9.392   5.298 -0.0001 -0.1340  4.3872
   12MOL0     H 1603   5.257   9.343   5.343  0.8991 -0.3561 -1.3762
   12MOL0     H 1604   3.528   9.016   4.562  0.5521  0.5381 -2.7757
   12MOL0     H 1605   3.338   8.867   4.498  0.6041 -0.0971 -1.6628
   12MOL0     H 1606   3.014   8.745   4.505 -0.5433  1.1680 -0.1475
   12MOL0     H 1607   2.824   8.601   4.541 -3.3228  0.3122  0.3454
   12MOL0     H 1608   2.632   8.440   4.182  0.4182  1.5701 -0.5037
   12MOL0     H 1609   2.496   8.549   4.234 -0.8176  0.5908  2.0073
   12MOL0     H 1610   2.423   8.401   4.385  0.2301 -0.0360  0.7773
   12MOL0     H 1611   2.550   8.278   4.345  0.3632  1.1244  0.8867
   12MOL0     H 1612   2.402   8.188   4.216 -0.2319 -0.4984 -2.9692
   12MOL0     H 1613   2.474   8.314   4.108 -1.7889  3.4433 -0.0595
   12MOL0     H 1614   2.211   8.349   4.258  0.5907  1.0483  1.0570
   12MOL0     H 1615   2.290   8.465   4.149 -2.2584  0.2435  0.8127
   12MOL0     H 1616   2.044   8.237   3.915  1.0220  1.1305 -2.0788
   12MOL0     H 1617   2.700   8.664   4.140 -1.4082  0.0765  0.2861
   12MOL0     H 1618   2.834   8.983   4.108 -0.5618 -0.6112 -0.1836
   12MOL0     H 1619   2.900   8.870   3.994 -0.3095  0.4831  0.1920
   12MOL0     H 1620   2.728   8.871   4.034  1.2093 -1.7780 -3.6394
   13MOL0     O 1621   8.886   0.085   3.322 -0.3041 -0.1975 -0.8973
   13MOL0     C 1622   8.928   0.194   3.361  0.0715 -0.5101  0.2492
   13MOL0     O 1623   8.871   0.317   3.333  0.8970  0.7330 -0.8652
   13MOL0     C 1624   8.742   0.315   3.290 -0.1917 -0.4906  0.3451
   13MOL0     C 1625   8.700   0.420   3.207  0.0985  0.2103 -0.9537
   13MOL0     C 1626   8.562   0.444   3.184  0.3890  0.0601  0.1866
   13MOL0     C 1627   8.462   0.354   3.222 -0.4624 -0.2120 -0.0141
   13MOL0     O 1628   8.334   0.355   3.185  0.6244  0.5868 -0.5884
   13MOL0     C 1629   8.259   0.473   3.145 -1.4286 -0.4476  0.7048
   13MOL0     C 1630   8.118   0.434   3.166 -0.1743  0.5618 -0.0647
   13MOL0     C 1631   8.018   0.522   3.094 -0.3629  0.0072 -0.3284
   13MOL0     C 1632   8.024   0.675   3.125 -0.0445 -0.2718 -1.0005
   13MOL0     C 1633   7.912   0.763   3.080  0.0959  0.1946  0.7881
   13MOL0     C 1634   7.864   0.744   2.933 -0.0320 -0.1744  0.4750
   13MOL0     C 1635   7.971   0.800   2.837  0.9030 -0.1800 -0.6002
   13MOL0     C 1636   7.923   0.833   2.695 -0.5231 -0.2353 -0.9487
   13MOL0     N 1637   8.029   0.899   2.613 -0.4083 -0.5065  0.5596
   13MOL0     C 1638   8.120   0.824   2.544  0.1250 -0.4314  0.6557
   13MOL0     C 1639   8.177   0.923   2.458  0.1157  0.3313 -1.0311
   13MOL0     C 1640   8.287   0.902   2.364  0.8091 -0.1121  0.2222
   13MOL0     C 1641   8.406   0.832   2.425 -0.6116 -0.4591 -0.1789
   13MOL0     C 1642   8.521   0.833   2.317 -0.6076 -0.8864  0.0235
   13MOL0     C 1643   8.653   0.765   2.345 -0.1690  0.2818 -0.6699
   13MOL0     O 1644   8.746   0.761   2.235 -0.1449  0.6130  0.5417
   13MOL0     C 1645   8.870   0.699   2.245 -0.1037 -0.3187  0.3545
   13MOL0     C 1646   8.942   0.680   2.371  0.5377 -0.8267 -0.1111
   13MOL0     C 1647   9.075   0.630   2.366  0.0528  0.0422  0.2537
   13MOL0     C 1648   9.128   0.580   2.247 -0.4384  0.4835  0.2712
   13MOL0     C 1649   9.261   0.519   2.244  0.4135  0.0191  0.4094
   13MOL0     O 1650   9.338   0.519   2.134  0.3240  0.9120  0.1835
   13MOL0     C 1651   9.469   0.493   2.153  0.3073 -0.3674  0.6322
   13MOL0     C 1652   9.534   0.592   2.232 -0.1639 -0.6999  1.0346
   13MOL0     C 1653   9.668   0.566   2.269  0.9874  0.3721 -1.0128
   13MOL0     C 1654   9.741   0.451   2.228 -0.6644  0.3466 -0.3100
   13MOL0     O 1655   9.867   0.439   2.282  0.2571  0.2684 -0.1448
   13MOL0     C 1656   9.956   0.345   2.225  0.0971  0.2378 -0.7988
   13MOL0     C 1657  10.105   0.353   2.279 -0.4924 -0.3722 -1.3725
   13MOL0     C 1658  10.190   0.246   2.213  0.3025 -0.6077 -0.3785
   13MOL0     C 1659  10.335   0.298   2.220  0.1549 -0.2587  0.0338
   13MOL0     C 1660  10.427   0.199   2.156 -0.3031 -0.3242  0.3166
   13MOL0     C 1661  10.418   0.203   1.999 -0.2304  0.6686 -0.2408
   13MOL0     C 1662  10.522   0.116   1.934 -0.3294 -0.1188  0.1972
   13MOL0     C 1663  10.527   0.130   1.787  0.5618 -0.4469  0.0173
   13MOL0    Cl 1664  10.608  -0.014   1.720 -0.3167 -0.5487  0.2136
   13MOL0     C 1665   9.675   0.361   2.145 -0.0350 -0.6846  0.1578
   13MOL0     C 1666   9.544   0.383   2.105  0.0426 -0.3423  0.3013
   13MOL0     O 1667   9.291   0.470   2.351  0.2438  0.5660  0.0901
   13MOL0     C 1668   9.060   0.606   2.123 -0.3058  0.0303  0.4035
   13MOL0     C 1669   8.933   0.663   2.126  0.0607  0.1215 -0.4723
   13MOL0     N 1670   8.128   1.042   2.503 -0.2983  0.4814  0.1573
   13MOL0     N 1671   8.033   1.027   2.585  0.3430  0.4294 -0.4329
   13MOL0     C 1672   8.507   0.241   3.296 -0.0297  0.2308  0.6760
   13MOL0     C 1673   8.639   0.232   3.337 -0.2358 -0.4051 -0.2015
   13MOL0     C 1674   9.055   0.196   3.435 -0.2100  0.5717  0.1761
   13MOL0     C 1675   9.147   0.086   3.401 -0.8686  0.1977  0.2601
   13MOL0     C 1676   9.261   0.077   3.476  0.4395 -0.4556 -0.0897
   13MOL0     C 1677   9.295   0.166   3.582 -0.5442  0.1414  0.0379
   13MOL0     O 1678   9.413   0.162   3.661 -0.0711 -0.4195 -0.1573
   13MOL0     C 1679   9.495   0.044   3.663 -0.1006  0.3136  1.1965
   13MOL0     C 1680   9.587   0.016   3.784  0.3927  0.5841 -0.1053
   13MOL0     C 1681   9.715  -0.071   3.751  0.7024 -1.4063  0.8197
   13MOL0     C 1682   9.812  -0.083   3.868  0.0082 -0.2802  0.6274
   13MOL0     C 1683   9.779  -0.189   3.965 -0.4859 -0.0811  0.3260
   13MOL0     C 1684   9.749  -0.269   4.050  0.6437  0.2931  0.2196
   13MOL0     C 1685   9.200   0.264   3.613 -0.4247  0.5342 -0.0030
   13MOL0     C 1686   9.082   0.284   3.535  0.1797 -0.8382  0.5767
   13MOL0     C 1687   8.991   0.407   3.576  0.2029  1.3383  1.0398
   13MOL0     H 1688   8.766   0.497   3.169  2.1559 -1.0569 -0.0736
   13MOL0     H 1689   8.541   0.540   3.138  0.1886  0.3893  0.9570
   13MOL0     H 1690   8.281   0.556   3.213  0.4110  0.0359 -0.3789
   13MOL0     H 1691   8.291   0.504   3.044 -1.4094 -2.1619  0.1579
   13MOL0     H 1692   8.086   0.431   3.270 -2.0838 -2.8082 -0.5956
   13MOL0     H 1693   8.104   0.333   3.126  2.9160  0.3443 -0.8855
   13MOL0     H 1694   7.916   0.483   3.107 -0.6274 -0.0499 -2.3210
   13MOL0     H 1695   8.043   0.506   2.989  1.5662  1.2231 -0.0861
   13MOL0     H 1696   8.014   0.676   3.234  0.1244 -3.3756 -0.8552
   13MOL0     H 1697   8.122   0.713   3.096  0.5668 -1.7837 -1.0348
   13MOL0     H 1698   7.822   0.739   3.137  0.8963 -2.0472  1.1765
   13MOL0     H 1699   7.923   0.871   3.097  2.6460  0.1571 -0.2062
   13MOL0     H 1700   7.843   0.641   2.905  1.3835 -0.2352 -0.4949
   13MOL0     H 1701   7.773   0.804   2.920  0.9724  1.2420 -0.2479
   13MOL0     H 1702   8.049   0.723   2.831  0.1024 -1.2302  1.4436
   13MOL0     H 1703   8.005   0.892   2.885 -0.7659 -0.0942  0.5148
   13MOL0     H 1704   7.888   0.741   2.649 -1.1409  0.3250 -1.6189
   13MOL0     H 1705   7.843   0.908   2.697 -1.2049 -0.9361 -1.5602
   13MOL0     H 1706   8.133   0.716   2.545 -2.3105 -0.8679 -2.3058
   13MOL0     H 1707   8.252   0.845   2.277 -1.4090 -1.1345  1.7012
   13MOL0     H 1708   8.317   1.001   2.327 -0.8699  0.6352  0.7745
   13MOL0     H 1709   8.432   0.879   2.521  1.0403  0.9696 -1.2717
   13MOL0     H 1710   8.381   0.727   2.440 -1.2176 -0.6572 -2.3299
   13MOL0     H 1711   8.562   0.932   2.298  0.1334 -1.3081 -0.6507
   13MOL0     H 1712   8.480   0.801   2.220  0.6539  0.5820 -1.0317
   13MOL0     H 1713   8.648   0.660   2.374 -0.9168  0.9038  1.6178
   13MOL0     H 1714   8.696   0.811   2.434  2.9374 -2.4688 -0.5634
   13MOL0     H 1715   8.900   0.710   2.466 -0.2446 -1.3035 -0.2953
   13MOL0     H 1716   9.126   0.625   2.462  0.2099  2.5900  0.3754
   13MOL0     H 1717   9.474   0.672   2.274  1.1541  2.1325 -2.0252
   13MOL0     H 1718   9.732   0.629   2.331  1.1702  0.5648 -1.3880
   13MOL0     H 1719   9.917   0.243   2.231 -2.8626  1.3772  2.0307
   13MOL0     H 1720   9.977   0.376   2.122 -0.3313  0.2151 -0.8914
   13MOL0     H 1721  10.149   0.451   2.260 -1.9762  0.9340  1.3427
   13MOL0     H 1722  10.111   0.334   2.386 -0.8506 -3.4814 -1.7984
   13MOL0     H 1723  10.169   0.149   2.259 -1.4815 -0.5913 -1.1193
   13MOL0     H 1724  10.154   0.230   2.111 -0.4426  1.1989 -0.4344
   13MOL0     H 1725  10.366   0.313   2.324  1.2456 -0.0394 -0.3038
   13MOL0     H 1726  10.346   0.395   2.170 -0.3315  0.3349  1.0449
   13MOL0     H 1727  10.402   0.097   2.184 -0.7612 -0.5414 -0.8285
   13MOL0     H 1728  10.527   0.224   2.191  1.0107 -2.5514 -1.5495
   13MOL0     H 1729  10.323   0.161   1.966  0.0134  1.3941 -1.9938
   13MOL0     H 1730  10.423   0.306   1.961  0.8055  1.9593  3.0076
   13MOL0     H 1731  10.507   0.012   1.965  1.9743 -0.3995  0.5705
   13MOL0     H 1732  10.622   0.140   1.972  0.8742 -1.7528 -1.7747
   13MOL0     H 1733  10.428   0.122   1.741  1.6176 -2.6940 -2.0900
   13MOL0     H 1734  10.580   0.224   1.770  0.4841 -0.1305  1.3935
   13MOL0     H 1735   9.725   0.266   2.126  0.0772 -0.2968 -1.6664
   13MOL0     H 1736   9.492   0.317   2.036 -3.0016  1.5217  0.6589
   13MOL0     H 1737   9.093   0.568   2.026 -0.5327  0.8569 -0.0041
   13MOL0     H 1738   8.882   0.660   2.031  1.0457 -1.7799 -0.9938
   13MOL0     H 1739   8.430   0.177   3.337 -1.0099  0.0433 -1.3367
   13MOL0     H 1740   8.668   0.152   3.405  2.4895  2.3751  2.1593
   13MOL0     H 1741   9.123   0.023   3.316  0.4610  1.9222 -1.4938
   13MOL0     H 1742   9.318  -0.014   3.467  1.0265 -0.0757 -0.2516
   13MOL0     H 1743   9.568   0.057   3.583 -0.8137 -1.5178  0.1864
   13MOL0     H 1744   9.436  -0.045   3.638  0.5071  0.3663 -0.5493
   13MOL0     H 1745   9.528  -0.036   3.860  0.3033 -2.4211 -2.0298
   13MOL0     H 1746   9.620   0.111   3.827  3.4654 -1.1181  1.6594
   13MOL0     H 1747   9.763  -0.013   3.672 -0.5657 -1.0246  0.3010
   13MOL0     H 1748   9.689  -0.174   3.725 -0.4416 -0.5447 -1.7340
   13MOL0     H 1749   9.909  -0.109   3.824  0.4586  0.9280  0.8797
   13MOL0     H 1750   9.822   0.010   3.924 -2.7907  2.0877 -2.4892
   13MOL0     H 1751   9.714  -0.329   4.132  0.8737 -1.4606 -0.9125
   13MOL0     H 1752   9.227   0.335   3.690  0.6247  0.0377  0.1117
   13MOL0     H 1753   8.890   0.369   3.594  1.7027 -2.1157  3.1823
   13MOL0     H 1754   9.029   0.461   3.663 -1.1811  3.0651  0.6259
   13MOL0     H 1755   9.000   0.481   3.495  2.1581 -0.3534 -0.3946
   14MOL0     O 1756   2.085   7.878   1.855 -0.3056  0.7808 -0.4545
   14MOL0     C 1757   2.112   7.816   1.750  0.3014 -0.2758 -0.2407
   14MOL0     O 1758   2.234   7.797   1.695 -0.2346  0.0421 -0.0915
   14MOL0     C 1759   2.338   7.874   1.741  0.9987  0.1957  0.6509
   14MOL0     C 1760   2.352   8.001   1.682  0.0306 -0.6662  0.8598
   14MOL0     C 1761   2.458   8.084   1.727 -0.2912 -0.4994  0.6709
   14MOL0     C 1762   2.551   8.039   1.815 -0.0210 -0.3093 -0.0046
   14MOL0     O 1763   2.640   8.124   1.855 -0.4221 -0.0508 -0.0367
   14MOL0     C 1764   2.778   8.085   1.832  0.1320 -0.0794 -0.1363
   14MOL0     C 1765   2.851   8.073   1.964  0.2560  0.7520 -0.0882
   14MOL0     C 1766   3.001   8.082   1.931  0.6167 -0.6518 -0.3789
   14MOL0     C 1767   3.083   8.055   2.061  0.4673 -0.5451  0.6091
   14MOL0     C 1768   3.234   8.083   2.029  0.9042 -0.0856  0.6989
   14MOL0     C 1769   3.320   8.045   2.146  0.1911  0.2760  0.0953
   14MOL0     C 1770   3.472   8.063   2.114  0.5094 -0.8266  1.1416
   14MOL0     C 1771   3.546   8.062   2.240  0.5166 -0.6137  0.6672
   14MOL0     N 1772   3.693   8.064   2.218 -1.1136 -0.0734 -0.2476
   14MOL0     C 1773   3.786   7.960   2.235 -0.0357  0.0598  0.0815
   14MOL0     C 1774   3.900   8.011   2.195 -0.3010  0.1655  0.3347
   14MOL0     C 1775   4.040   7.945   2.188  1.0418 -0.1082 -0.8125
   14MOL0     C 1776   4.119   7.956   2.319 -1.1758  0.5031  0.2148
   14MOL0     C 1777   4.262   7.917   2.285  0.7934 -0.0387  0.3822
   14MOL0     C 1778   4.358   7.899   2.412  0.2803 -0.0598  0.6330
   14MOL0     O 1779   4.474   7.839   2.354  0.2502  0.4514  0.4805
   14MOL0     C 1780   4.579   7.810   2.443 -0.0013  0.4196  0.3695
   14MOL0     C 1781   4.575   7.818   2.581  0.1351  0.0299  0.2072
   14MOL0     C 1782   4.686   7.767   2.655  0.2546  0.4302 -0.4758
   14MOL0     C 1783   4.802   7.706   2.582  0.9504  0.3202 -0.2982
   14MOL0     C 1784   4.911   7.657   2.668 -0.3043  0.5734 -0.4225
   14MOL0     O 1785   4.921   7.696   2.798 -0.2729 -0.7763 -0.1655
   14MOL0     C 1786   5.052   7.689   2.853 -0.0426 -0.6041  1.0597
   14MOL0     C 1787   5.079   7.634   2.976  0.0108 -0.6705  0.1360
   14MOL0     C 1788   5.209   7.623   3.032 -0.1346  1.4228 -0.2007
   14MOL0     C 1789   5.317   7.667   2.969 -0.8302 -0.5732 -0.3767
   14MOL0     O 1790   5.450   7.664   3.014 -0.4823 -0.4269  0.0189
   14MOL0     C 1791   5.489   7.553   3.095  0.5358 -0.3239  0.1544
   14MOL0     C 1792   5.577   7.598   3.211  0.8805  0.3375 -0.3207
   14MOL0     C 1793   5.700   7.676   3.171  0.0836 -0.1500  0.1299
   14MOL0     C 1794   5.775   7.714   3.301 -0.5217 -0.8240  0.0395
   14MOL0     C 1795   5.924   7.742   3.281  0.0232 -0.2804 -0.2247
   14MOL0     C 1796   5.973   7.727   3.429 -0.4192  0.4297  0.4736
   14MOL0     C 1797   6.127   7.754   3.440  0.4963 -0.5142  0.4171
   14MOL0     C 1798   6.216   7.663   3.351  0.4951 -0.9071  0.2614
   14MOL0    Cl 1799   6.395   7.719   3.370  0.2165  0.3273  0.1032
   14MOL0     C 1800   5.297   7.731   2.847 -0.4505  0.1779 -1.5431
   14MOL0     C 1801   5.170   7.746   2.786  0.5948 -0.2553  0.6158
   14MOL0     O 1802   4.990   7.581   2.610  0.3248  0.4154  0.1622
   14MOL0     C 1803   4.798   7.702   2.444 -0.3895 -0.2172 -0.4644
   14MOL0     C 1804   4.685   7.744   2.383 -0.0360  0.3654  0.0071
   14MOL0     N 1805   3.880   8.141   2.151  0.0708 -0.1224 -0.5430
   14MOL0     N 1806   3.752   8.166   2.150  0.1467  0.1350  0.2748
   14MOL0     C 1807   2.537   7.919   1.873 -0.4607 -0.3193 -0.9977
   14MOL0     C 1808   2.435   7.832   1.830 -0.6290 -0.0221 -0.9763
   14MOL0     C 1809   1.996   7.745   1.679 -0.7863  0.5953  0.5235
   14MOL0     C 1810   2.015   7.722   1.544 -0.5868  0.9235 -0.0768
   14MOL0     C 1811   1.927   7.643   1.467  0.0380  0.1937  0.3774
   14MOL0     C 1812   1.803   7.595   1.524  0.2495 -0.3262 -0.5792
   14MOL0     O 1813   1.713   7.512   1.460 -0.2394  0.3913 -0.9316
   14MOL0     C 1814   1.756   7.430   1.356 -0.6379  0.7283 -0.5749
   14MOL0     C 1815   1.720   7.483   1.222  0.2032  0.4176 -0.6952
   14MOL0     C 1816   1.571   7.484   1.205 -0.4526  0.4823 -0.5239
   14MOL0     C 1817   1.510   7.488   1.057 -0.3562 -0.8483  0.6383
   14MOL0     C 1818   1.549   7.372   0.979 -0.2421 -0.7015  0.8680
   14MOL0     C 1819   1.575   7.271   0.921  0.0987 -0.2049  0.1124
   14MOL0     C 1820   1.778   7.630   1.657  0.1443 -0.2000 -0.2542
   14MOL0     C 1821   1.873   7.702   1.732 -1.1334 -0.6098 -0.0409
   14MOL0     C 1822   1.843   7.724   1.876  1.0122 -0.4463  0.1628
   14MOL0     H 1823   2.282   8.033   1.605  0.8623 -1.5734 -0.3017
   14MOL0     H 1824   2.457   8.187   1.695 -1.1789 -0.5784  0.4143
   14MOL0     H 1825   2.784   7.995   1.770 -0.7971 -0.8964  0.9163
   14MOL0     H 1826   2.829   8.165   1.777  0.0980 -1.8699 -3.0110
   14MOL0     H 1827   2.822   7.980   2.013 -0.8644 -0.5034 -2.9136
   14MOL0     H 1828   2.821   8.155   2.029 -0.3220 -1.4366  2.5648
   14MOL0     H 1829   3.028   8.185   1.907  0.0084 -0.1607  0.8914
   14MOL0     H 1830   3.022   8.016   1.847 -0.4856 -0.9816 -0.4165
   14MOL0     H 1831   3.063   8.129   2.140 -1.4155 -0.3684  0.0095
   14MOL0     H 1832   3.059   7.957   2.102  1.4786 -0.5065  1.3359
   14MOL0     H 1833   3.256   8.030   1.936  3.3087  0.1058  1.0929
   14MOL0     H 1834   3.246   8.191   2.013 -2.1165  0.0614 -1.4213
   14MOL0     H 1835   3.297   8.117   2.225  1.8463  1.1726 -0.1979
   14MOL0     H 1836   3.304   7.937   2.159 -0.7881  0.0796 -2.2003
   14MOL0     H 1837   3.488   8.159   2.065  2.8755 -0.5372  2.3502
   14MOL0     H 1838   3.511   7.982   2.052  3.7217  0.2632  1.6060
   14MOL0     H 1839   3.522   8.153   2.296 -0.5465 -0.2554 -0.3352
   14MOL0     H 1840   3.518   7.977   2.304 -0.6755  0.0870  1.1043
   14MOL0     H 1841   3.786   7.859   2.275 -0.7817 -1.2223 -2.9341
   14MOL0     H 1842   4.038   7.839   2.162  2.6994 -0.4001  0.1671
   14MOL0     H 1843   4.094   7.995   2.107  2.2007 -1.7193 -1.0884
   14MOL0     H 1844   4.107   8.058   2.357 -1.1086  0.0300  1.5628
   14MOL0     H 1845   4.076   7.895   2.399 -1.4298  3.0105  2.1212
   14MOL0     H 1846   4.296   7.993   2.214 -1.6523 -0.6756 -1.5797
   14MOL0     H 1847   4.258   7.820   2.235 -1.8084  0.5946 -0.7702
   14MOL0     H 1848   4.320   7.834   2.491  1.2303 -1.2470  0.1310
   14MOL0     H 1849   4.387   7.995   2.455 -2.3022  0.8464  0.5350
   14MOL0     H 1850   4.498   7.870   2.637  1.7950  2.8138  0.1021
   14MOL0     H 1851   4.691   7.766   2.763 -0.3188  0.5300 -0.4439
   14MOL0     H 1852   4.990   7.600   3.027 -1.6989 -0.8362 -2.7127
   14MOL0     H 1853   5.221   7.593   3.136  0.3769  0.1877 -0.6004
   14MOL0     H 1854   5.412   7.494   3.146  2.2890 -1.1279  2.0133
   14MOL0     H 1855   5.539   7.488   3.023 -3.0890  0.7308 -3.7068
   14MOL0     H 1856   5.516   7.656   3.280  2.6800 -0.9316  2.5134
   14MOL0     H 1857   5.601   7.510   3.271 -1.1015 -0.1346 -0.1626
   14MOL0     H 1858   5.763   7.609   3.114 -2.7922 -2.6913 -0.3312
   14MOL0     H 1859   5.672   7.767   3.117  0.7952 -1.2076 -2.1091
   14MOL0     H 1860   5.763   7.630   3.370  0.7846 -0.2917  0.9690
   14MOL0     H 1861   5.725   7.803   3.342  0.8929  1.2410 -2.4549
   14MOL0     H 1862   5.947   7.839   3.237  1.8961 -0.7762 -0.4472
   14MOL0     H 1863   5.969   7.668   3.213 -1.2326 -1.9006  0.6318
   14MOL0     H 1864   5.917   7.795   3.494 -1.3113 -0.8432  1.0837
   14MOL0     H 1865   5.954   7.625   3.464  2.3771  0.1794  1.5174
   14MOL0     H 1866   6.146   7.730   3.545 -1.5025 -1.8026  0.5454
   14MOL0     H 1867   6.157   7.856   3.415 -0.0234 -0.4585 -0.0028
   14MOL0     H 1868   6.205   7.556   3.370 -1.5341 -0.7204  0.3213
   14MOL0     H 1869   6.192   7.680   3.245  2.1807 -1.2107 -0.2101
   14MOL0     H 1870   5.384   7.780   2.803 -0.4993  2.2398  0.4980
   14MOL0     H 1871   5.165   7.803   2.694 -3.7717  0.4405  1.0738
   14MOL0     H 1872   4.888   7.670   2.393 -1.0470 -1.1176 -1.0964
   14MOL0     H 1873   4.684   7.724   2.276  1.6622  0.1563 -0.0062
   14MOL0     H 1874   2.612   7.890   1.946 -1.6509 -0.6317  0.1269
   14MOL0     H 1875   2.436   7.733   1.876  1.7290  1.5283  2.7770
   14MOL0     H 1876   2.103   7.748   1.485  0.9542 -3.6854 -0.1948
   14MOL0     H 1877   1.962   7.620   1.367 -1.1256 -0.4095  0.0787
   14MOL0     H 1878   1.713   7.330   1.365  2.6619 -0.8735 -0.9405
   14MOL0     H 1879   1.861   7.399   1.358 -0.7066  0.5200  0.3619
   14MOL0     H 1880   1.776   7.427   1.147  1.2479  0.2596  0.1722
   14MOL0     H 1881   1.751   7.587   1.212 -3.2555  1.3572 -3.6174
   14MOL0     H 1882   1.539   7.572   1.261  1.4719 -0.4589  2.2993
   14MOL0     H 1883   1.536   7.395   1.258  0.0910 -0.4409 -1.6511
   14MOL0     H 1884   1.401   7.484   1.060 -0.4004 -2.8488 -1.3454
   14MOL0     H 1885   1.541   7.583   1.014  1.9365 -1.8376 -0.0471
   14MOL0     H 1886   1.621   7.191   0.866 -2.7111 -0.6572 -1.7877
   14MOL0     H 1887   1.685   7.600   1.704  0.9568 -1.2127  0.7568
   14MOL0     H 1888   1.751   7.673   1.907 -0.1420  1.1045 -0.5624
   14MOL0     H 1889   1.927   7.685   1.934  3.2551 -0.4042 -2.7804
   14MOL0     H 1890   1.827   7.828   1.909  2.0660 -0.6738  1.4723
   15MOL0     O 1891   1.806   1.812   5.440  0.0357  0.6511 -0.1994
   15MOL0     C 1892   1.725   1.852   5.359  0.0698 -0.2417 -0.1683
   15MOL0     O 1893   1.754   1.889   5.223  0.1989  0.0793 -0.2758
   15MOL0     C 1894   1.881   1.902   5.184 -0.0004 -0.4083  0.4766
   15MOL0     C 1895   1.991   1.944   5.256  0.0154 -1.5298 -0.4763
   15MOL0     C 1896   2.124   1.952   5.207 -0.9877 -0.8216 -0.0726
   15MOL0     C 1897   2.141   1.928   5.067 -0.1296 -0.7062  0.0576
   15MOL0     O 1898   2.280   1.929   5.031  0.4413 -0.6333  0.4604
   15MOL0     C 1899   2.324   1.866   4.911 -0.1460  0.9219 -0.9019
   15MOL0     C 1900   2.483   1.861   4.912 -0.2360 -0.4096  0.4842
   15MOL0     C 1901   2.547   1.846   5.060 -0.0733 -0.5055 -0.4838
   15MOL0     C 1902   2.694   1.802   5.061 -0.3822 -0.1000 -0.4914
   15MOL0     C 1903   2.767   1.847   5.195  0.7349 -0.3946  0.4079
   15MOL0     C 1904   2.914   1.818   5.197  0.3622 -1.1543  0.3868
   15MOL0     C 1905   2.945   1.665   5.185 -0.4790  0.0574 -0.6088
   15MOL0     C 1906   3.081   1.621   5.240 -0.0621 -0.0196 -0.9248
   15MOL0     N 1907   3.213   1.661   5.179  0.6094 -0.0265 -0.0698
   15MOL0     C 1908   3.295   1.755   5.230  0.3278  0.1447 -0.9442
   15MOL0     C 1909   3.408   1.746   5.152 -0.5648  0.6823  0.3543
   15MOL0     C 1910   3.547   1.811   5.171  1.0700 -0.4161  0.0372
   15MOL0     C 1911   3.551   1.936   5.092  0.5596 -0.2608 -0.3394
   15MOL0     C 1912   3.463   2.051   5.145 -0.6928 -0.0829  0.5289
   15MOL0     C 1913   3.487   2.168   5.057 -0.1540 -0.0121  0.3554
   15MOL0     O 1914   3.387   2.283   5.062  0.1162  0.3071 -0.5679
   15MOL0     C 1915   3.260   2.264   5.030 -0.0717 -0.4686 -0.3644
   15MOL0     C 1916   3.203   2.150   4.970  0.4526 -0.9099  0.0147
   15MOL0     C 1917   3.060   2.139   4.943 -0.2911  0.0912  0.7739
   15MOL0     C 1918   2.975   2.224   5.011 -0.1577  0.6948  0.3245
   15MOL0     C 1919   2.822   2.210   5.005  0.1813  0.2431  0.0183
   15MOL0     O 1920   2.754   2.309   5.066 -0.3548 -0.4003 -0.0723
   15MOL0     C 1921   2.619   2.317   5.086 -0.1796  0.1752  0.1533
   15MOL0     C 1922   2.548   2.210   5.145 -0.0793 -0.1642  0.1147
   15MOL0     C 1923   2.411   2.215   5.151  0.8668 -0.4470 -0.4393
   15MOL0     C 1924   2.338   2.332   5.118 -0.3595 -0.2685 -0.4493
   15MOL0     O 1925   2.197   2.331   5.148 -0.1883 -0.0916  0.2662
   15MOL0     C 1926   2.153   2.427   5.246  0.3773  0.8143 -0.2828
   15MOL0     C 1927   2.000   2.410   5.253 -0.8154 -0.2212 -0.9080
   15MOL0     C 1928   1.923   2.406   5.121 -0.0721 -0.5016 -0.0384
   15MOL0     C 1929   1.782   2.359   5.145 -0.3581 -0.1752 -0.3839
   15MOL0     C 1930   1.707   2.373   5.017  0.1546 -0.1859 -0.0540
   15MOL0     C 1931   1.577   2.282   5.028 -0.1919  0.3319  0.3077
   15MOL0     C 1932   1.461   2.347   4.945 -0.8333  0.0767 -0.0513
   15MOL0     C 1933   1.353   2.249   4.897  0.7039  0.1676  0.8821
   15MOL0    Cl 1934   1.292   2.131   5.018  0.1424  0.1153  0.2261
   15MOL0     C 1935   2.409   2.441   5.060 -0.9033 -0.0490 -0.8904
   15MOL0     C 1936   2.551   2.432   5.051 -0.4362  0.0769  0.9812
   15MOL0     O 1937   2.772   2.123   4.934 -0.0621 -0.4485  0.0359
   15MOL0     C 1938   3.038   2.331   5.080  0.1276 -0.0273 -0.3344
   15MOL0     C 1939   3.176   2.359   5.083 -0.4226 -0.2645  0.0272
   15MOL0     N 1940   3.373   1.659   5.050 -0.3045  0.9629 -1.0003
   15MOL0     N 1941   3.255   1.609   5.066  0.0264 -0.4883  0.5515
   15MOL0     C 1942   2.031   1.899   4.981 -0.7031 -0.2315 -0.0923
   15MOL0     C 1943   1.905   1.886   5.044 -0.1852 -0.1368  0.4643
   15MOL0     C 1944   1.583   1.856   5.400 -0.0750 -0.3343 -0.2607
   15MOL0     C 1945   1.569   1.862   5.541  0.6646  0.3336  0.5536
   15MOL0     C 1946   1.443   1.883   5.590 -0.4071 -0.2532 -0.6859
   15MOL0     C 1947   1.332   1.883   5.513  0.3628  0.7790  0.0499
   15MOL0     O 1948   1.210   1.923   5.576 -0.2428 -0.2288  0.1437
   15MOL0     C 1949   1.213   1.965   5.712  0.1282  0.4117  0.3150
   15MOL0     C 1950   1.075   2.011   5.756 -0.3287 -0.5470  0.6069
   15MOL0     C 1951   1.040   2.148   5.697  0.2218  1.0538 -0.5841
   15MOL0     C 1952   0.892   2.178   5.694  0.1342  0.0586 -0.4581
   15MOL0     C 1953   0.836   2.181   5.834 -0.4739  0.1188  0.3076
   15MOL0     C 1954   0.796   2.185   5.942 -0.6903 -0.6988 -0.3617
   15MOL0     C 1955   1.347   1.886   5.375  0.3718  0.7249  0.1188
   15MOL0     C 1956   1.472   1.866   5.309  0.7659  0.8811 -0.0851
   15MOL0     C 1957   1.474   1.866   5.158 -0.1101 -0.0187  0.0268
   15MOL0     H 1958   1.971   1.959   5.362 -1.9111 -0.0032 -1.0064
   15MOL0     H 1959   2.199   1.966   5.285 -1.4935  0.7225  0.1668
   15MOL0     H 1960   2.280   1.771   4.882  0.2328  0.7814 -1.0281
   15MOL0     H 1961   2.290   1.934   4.832 -2.5961  1.4084  0.4804
   15MOL0     H 1962   2.533   1.944   4.861  0.3252 -0.7023  0.5540
   15MOL0     H 1963   2.502   1.772   4.850 -0.3492  2.6550 -4.5118
   15MOL0     H 1964   2.484   1.776   5.116 -0.9132  0.8836  0.3654
   15MOL0     H 1965   2.537   1.945   5.106  1.6257  0.1008 -1.3423
   15MOL0     H 1966   2.692   1.693   5.050 -1.5165  0.0207 -1.6503
   15MOL0     H 1967   2.742   1.857   4.979  0.0039  1.7641  0.9167
   15MOL0     H 1968   2.738   1.953   5.193 -1.3920 -0.9341  0.4119
   15MOL0     H 1969   2.713   1.792   5.272  1.1419  0.4545  1.3158
   15MOL0     H 1970   2.961   1.860   5.107 -3.2811 -1.8690 -2.0609
   15MOL0     H 1971   2.956   1.861   5.289  1.3283 -3.2654  0.9952
   15MOL0     H 1972   2.942   1.628   5.082  0.1298 -0.5279 -0.4228
   15MOL0     H 1973   2.866   1.611   5.240  0.9614 -0.7881  0.7105
   15MOL0     H 1974   3.085   1.671   5.338 -0.9676 -0.1663 -0.8022
   15MOL0     H 1975   3.097   1.514   5.251  3.0730  0.4491  0.0234
   15MOL0     H 1976   3.278   1.812   5.321  0.1201 -3.8587  1.7617
   15MOL0     H 1977   3.557   1.832   5.278  0.4897 -1.3663  0.2934
   15MOL0     H 1978   3.628   1.745   5.139 -1.2255 -1.6865 -3.7604
   15MOL0     H 1979   3.651   1.981   5.097 -0.1234  1.1866  1.4777
   15MOL0     H 1980   3.526   1.918   4.987  1.1581  2.3385 -0.9997
   15MOL0     H 1981   3.490   2.066   5.250 -1.9907  2.2079  0.6150
   15MOL0     H 1982   3.356   2.032   5.131 -0.3208 -1.1125 -1.1871
   15MOL0     H 1983   3.497   2.123   4.958  3.1028 -0.8524  0.9432
   15MOL0     H 1984   3.586   2.208   5.082  0.3816 -0.1605 -1.4001
   15MOL0     H 1985   3.272   2.079   4.926 -0.3447 -1.5406 -0.2627
   15MOL0     H 1986   3.017   2.059   4.883 -0.8259 -0.1894  1.5236
   15MOL0     H 1987   2.597   2.115   5.163  0.5797 -0.4672 -2.7519
   15MOL0     H 1988   2.357   2.123   5.169  2.3869 -1.3006 -0.0557
   15MOL0     H 1989   2.196   2.403   5.344 -1.1803 -0.4670  0.1267
   15MOL0     H 1990   2.177   2.530   5.219  0.5279  1.1092  0.9431
   15MOL0     H 1991   1.970   2.321   5.308 -1.3350  1.0137  0.9016
   15MOL0     H 1992   1.959   2.493   5.311  0.1554 -1.0482  1.0226
   15MOL0     H 1993   1.938   2.504   5.074 -1.4248  0.3994  1.3496
   15MOL0     H 1994   1.972   2.327   5.063 -0.4602 -1.2701  0.6625
   15MOL0     H 1995   1.736   2.405   5.232  0.6157  1.2547 -0.5887
   15MOL0     H 1996   1.792   2.250   5.155  0.5252 -0.1605 -0.9023
   15MOL0     H 1997   1.761   2.327   4.934 -1.1785 -2.4723  0.2515
   15MOL0     H 1998   1.688   2.479   5.002  0.4368 -0.1619 -0.2608
   15MOL0     H 1999   1.595   2.183   4.984 -1.6212  0.2403 -0.1329
   15MOL0     H 2000   1.545   2.273   5.132 -0.8052  1.4782  0.2301
   15MOL0     H 2001   1.508   2.397   4.859  1.1030 -1.7206 -0.1240
   15MOL0     H 2002   1.413   2.410   5.019 -2.3677 -3.2732  2.0568
   15MOL0     H 2003   1.272   2.316   4.868  0.4128 -0.6884 -0.3137
   15MOL0     H 2004   1.390   2.189   4.814  2.3893 -0.2484  1.8915
   15MOL0     H 2005   2.352   2.528   5.029 -2.4546 -0.5369  0.4350
   15MOL0     H 2006   2.613   2.513   5.014  0.5796 -0.5065  1.3868
   15MOL0     H 2007   2.979   2.410   5.125  0.3692  0.3824 -0.7381
   15MOL0     H 2008   3.195   2.456   5.128 -1.1067  0.0657 -0.3805
   15MOL0     H 2009   2.036   1.878   4.875  1.3292 -0.4341 -0.0101
   15MOL0     H 2010   1.820   1.861   4.982 -0.2354  0.9723  0.0653
   15MOL0     H 2011   1.657   1.855   5.604  0.2622 -0.1481  1.0699
   15MOL0     H 2012   1.437   1.884   5.699 -0.2505 -2.1618 -0.6303
   15MOL0     H 2013   1.285   2.046   5.730  0.5294  0.6716 -2.0695
   15MOL0     H 2014   1.254   1.884   5.772  1.9890 -0.1451 -1.5949
   15MOL0     H 2015   1.047   2.014   5.862  1.1845 -1.6875  1.0692
   15MOL0     H 2016   1.011   1.936   5.709 -1.0531  1.1889 -1.3435
   15MOL0     H 2017   1.093   2.158   5.602  1.6399 -0.4165  0.0015
   15MOL0     H 2018   1.100   2.220   5.754  0.5191 -1.4026  2.4130
   15MOL0     H 2019   0.880   2.284   5.669  0.2832  1.0020  3.0507
   15MOL0     H 2020   0.836   2.125   5.617 -0.9161  0.0770  0.2835
   15MOL0     H 2021   0.738   2.199   6.031  2.2909  1.9170  1.3762
   15MOL0     H 2022   1.258   1.893   5.313 -0.1495  0.1997  0.8043
   15MOL0     H 2023   1.374   1.842   5.120 -0.4001 -1.8817  1.7386
   15MOL0     H 2024   1.500   1.970   5.136 -2.3864  0.8182  0.9138
   15MOL0     H 2025   1.546   1.790   5.128  1.2511  1.5446 -0.7585
   16MOL0     O 2026   0.637   2.943   6.803 -0.5861  0.2312  0.3779
   16MOL0     C 2027   0.606   2.821   6.796  0.5943 -0.4741 -0.1017
   16MOL0     O 2028   0.690   2.719   6.789  0.0112  0.6296 -0.7921
   16MOL0     C 2029   0.799   2.716   6.875  0.3229 -1.1250  1.0942
   16MOL0     C 2030   0.925   2.689   6.819  0.1931 -0.5214  0.0761
   16MOL0     C 2031   1.040   2.663   6.900  1.2899 -0.2619  1.1619
   16MOL0     C 2032   1.026   2.673   7.037 -0.3446  0.6463 -0.3124
   16MOL0     O 2033   1.139   2.654   7.122  0.2022 -0.6573  0.2916
   16MOL0     C 2034   1.142   2.637   7.266  0.4541 -0.3276  0.2713
   16MOL0     C 2035   1.181   2.763   7.348 -0.8406  0.0471  0.3328
   16MOL0     C 2036   1.321   2.819   7.306 -0.3435 -0.1629  0.2378
   16MOL0     C 2037   1.437   2.729   7.368  0.3506 -0.1621  0.3377
   16MOL0     C 2038   1.563   2.741   7.280 -0.3781  0.8059  0.3565
   16MOL0     C 2039   1.613   2.882   7.244  0.6971 -0.5892 -0.4170
   16MOL0     C 2040   1.736   2.881   7.162 -0.2153  0.6241  0.2771
   16MOL0     C 2041   1.855   2.804   7.239  1.3133 -0.4935 -0.1645
   16MOL0     N 2042   1.985   2.852   7.174  0.2933  0.4127 -0.1631
   16MOL0     C 2043   2.103   2.840   7.228  0.3509 -0.1774  0.0294
   16MOL0     C 2044   2.188   2.903   7.135  0.1983 -0.0478 -0.3971
   16MOL0     C 2045   2.331   2.931   7.143  0.4805 -0.5775 -0.2275
   16MOL0     C 2046   2.416   2.808   7.184 -1.0802 -0.6521  0.3585
   16MOL0     C 2047   2.498   2.739   7.072 -0.2541 -0.1727  0.3219
   16MOL0     C 2048   2.616   2.678   7.132 -0.6930 -1.0398 -0.0306
   16MOL0     O 2049   2.716   2.791   7.132  0.2362  0.4756 -0.2869
   16MOL0     C 2050   2.849   2.757   7.143 -0.2870 -0.7999  0.1783
   16MOL0     C 2051   2.910   2.635   7.115  0.0547  0.5691  0.2288
   16MOL0     C 2052   3.047   2.627   7.123 -0.1464  0.0932 -0.2865
   16MOL0     C 2053   3.130   2.741   7.148  0.3275  0.3585  0.8852
   16MOL0     C 2054   3.278   2.727   7.142  0.3172  0.3789 -0.1231
   16MOL0     O 2055   3.342   2.852   7.136  0.2219  0.3312 -0.0116
   16MOL0     C 2056   3.479   2.855   7.140  0.7670  0.2827 -0.0888
   16MOL0     C 2057   3.538   2.806   7.253 -0.6882 -0.2311  0.0162
   16MOL0     C 2058   3.687   2.804   7.266  0.7212 -0.4745  0.2097
   16MOL0     C 2059   3.758   2.849   7.146  0.3484 -0.1263  0.7103
   16MOL0     O 2060   3.891   2.870   7.126 -0.2392  0.3020  0.1010
   16MOL0     C 2061   3.975   2.889   7.238 -0.2099 -0.5675 -0.0115
   16MOL0     C 2062   4.127   2.856   7.216 -0.0146 -0.8897 -0.3702
   16MOL0     C 2063   4.211   2.919   7.336  0.1243 -0.5702  0.6017
   16MOL0     C 2064   4.357   2.900   7.290 -0.7167  0.4652 -0.3980
   16MOL0     C 2065   4.454   2.949   7.397 -0.1043 -0.1968 -0.9272
   16MOL0     C 2066   4.594   2.884   7.395 -0.0831 -0.1469  0.1429
   16MOL0     C 2067   4.708   2.974   7.456  0.6900  1.5252 -0.1856
   16MOL0     C 2068   4.849   2.908   7.463  0.1069  0.3370  0.5766
   16MOL0    Cl 2069   4.830   2.764   7.571 -0.6103  0.1931  0.1421
   16MOL0     C 2070   3.687   2.893   7.037  0.4710  0.7356  0.1614
   16MOL0     C 2071   3.550   2.900   7.033  0.5380 -0.0753 -0.1438
   16MOL0     O 2072   3.327   2.622   7.110 -0.4690 -0.3508 -0.4298
   16MOL0     C 2073   3.064   2.863   7.169  0.8883 -0.3091  0.2745
   16MOL0     C 2074   2.929   2.870   7.175 -0.6079  0.5288  0.2483
   16MOL0     N 2075   2.114   2.939   7.024 -1.0295 -0.3151  0.8148
   16MOL0     N 2076   1.993   2.909   7.053  0.4345 -0.3939 -0.0679
   16MOL0     C 2077   0.900   2.695   7.091 -0.1029 -0.8763 -0.0017
   16MOL0     C 2078   0.788   2.714   7.013  0.0480  0.3209  0.1719
   16MOL0     C 2079   0.476   2.798   6.747  0.3963  0.7344  1.1298
   16MOL0     C 2080   0.358   2.792   6.824  0.4860 -0.7869 -0.1421
   16MOL0     C 2081   0.233   2.765   6.763 -0.7337 -0.5667  0.5111
   16MOL0     C 2082   0.231   2.746   6.629 -0.0200 -0.2002 -0.5630
   16MOL0     O 2083   0.112   2.728   6.570  0.3515 -0.0848  0.0591
   16MOL0     C 2084  -0.005   2.677   6.641 -0.0180  0.8028 -0.3789
   16MOL0     C 2085  -0.093   2.590   6.546 -0.0321 -0.2203  0.0359
   16MOL0     C 2086  -0.211   2.525   6.620 -0.1654  0.4594 -0.3202
   16MOL0     C 2087  -0.331   2.623   6.634 -0.3808  0.3145 -0.0012
   16MOL0     C 2088  -0.440   2.557   6.708 -0.4645 -0.1224  0.2514
   16MOL0     C 2089  -0.536   2.512   6.769 -0.3573  0.1385  0.1176
   16MOL0     C 2090   0.338   2.754   6.545 -0.8668 -0.8597  0.1978
   16MOL0     C 2091   0.468   2.776   6.601 -0.1292  0.5665  0.0487
   16MOL0     C 2092   0.592   2.798   6.505 -0.0064 -0.5645 -0.5516
   16MOL0     H 2093   0.931   2.677   6.711  1.8929  1.2649 -0.0814
   16MOL0     H 2094   1.137   2.645   6.853 -0.4772 -0.5755 -2.7699
   16MOL0     H 2095   1.041   2.611   7.300 -1.1911  3.0835 -1.6226
   16MOL0     H 2096   1.214   2.560   7.297  1.5529  0.3509 -0.5274
   16MOL0     H 2097   1.185   2.731   7.452  2.8456  2.8706  1.2758
   16MOL0     H 2098   1.104   2.837   7.325 -2.9050 -2.7270 -2.6156
   16MOL0     H 2099   1.339   2.922   7.337  0.3296  0.3468 -1.6766
   16MOL0     H 2100   1.327   2.821   7.196  2.4465 -1.0971  0.3025
   16MOL0     H 2101   1.464   2.747   7.472  2.2646 -0.3432 -0.0931
   16MOL0     H 2102   1.415   2.622   7.361 -1.9661  0.2707  0.0445
   16MOL0     H 2103   1.641   2.684   7.332 -0.1668  0.0001 -0.7966
   16MOL0     H 2104   1.544   2.688   7.186  2.2533  0.3010  0.0267
   16MOL0     H 2105   1.531   2.931   7.191 -1.2542 -1.0222  1.9739
   16MOL0     H 2106   1.624   2.933   7.340  0.3066 -1.6077  0.1973
   16MOL0     H 2107   1.767   2.984   7.145 -1.7234  1.1055  0.2879
   16MOL0     H 2108   1.716   2.836   7.064 -1.5906  0.2281  0.7150
   16MOL0     H 2109   1.853   2.837   7.343 -0.1214  3.1952 -1.1825
   16MOL0     H 2110   1.847   2.695   7.239 -2.6339 -0.3302 -1.2711
   16MOL0     H 2111   2.118   2.802   7.329 -1.4782  0.1879  0.4824
   16MOL0     H 2112   2.364   2.972   7.047  0.1642  1.8923  0.6538
   16MOL0     H 2113   2.332   3.018   7.209  0.4634 -2.1416  1.9421
   16MOL0     H 2114   2.474   2.840   7.270 -1.5585 -1.1900  0.8906
   16MOL0     H 2115   2.359   2.726   7.228  1.3062 -2.5147  0.1500
   16MOL0     H 2116   2.536   2.808   6.997  3.1854 -1.4366  0.7189
   16MOL0     H 2117   2.427   2.669   7.030 -1.7384  1.8995 -0.8004
   16MOL0     H 2118   2.638   2.604   7.056 -0.8726 -0.2744 -0.8410
   16MOL0     H 2119   2.583   2.635   7.227 -2.6983  3.2966  1.5385
   16MOL0     H 2120   2.850   2.547   7.092 -0.3422  1.4478 -2.3791
   16MOL0     H 2121   3.090   2.531   7.098  2.4525  0.7826  1.1043
   16MOL0     H 2122   3.477   2.781   7.340 -0.8277  0.8105  0.2282
   16MOL0     H 2123   3.744   2.756   7.345 -0.3423 -1.6979  0.2698
   16MOL0     H 2124   3.977   2.996   7.263  2.6994 -0.2576 -1.1982
   16MOL0     H 2125   3.940   2.833   7.326 -0.7254  4.0555  3.0768
   16MOL0     H 2126   4.138   2.747   7.219 -1.0126 -1.0409 -1.4966
   16MOL0     H 2127   4.162   2.876   7.114  2.2546 -2.2490  0.0635
   16MOL0     H 2128   4.193   3.025   7.353  0.4265 -0.0040 -2.0561
   16MOL0     H 2129   4.185   2.865   7.427  2.8616 -0.0811  1.7896
   16MOL0     H 2130   4.383   2.960   7.203  4.9005 -1.5934 -0.5201
   16MOL0     H 2131   4.387   2.797   7.267  2.1859  0.7869  1.4329
   16MOL0     H 2132   4.406   2.923   7.492  0.1606  0.4874 -0.5908
   16MOL0     H 2133   4.464   3.058   7.400  0.6201 -0.2760 -0.2053
   16MOL0     H 2134   4.600   2.781   7.433 -1.5403 -0.6838 -0.9647
   16MOL0     H 2135   4.610   2.875   7.287 -0.2063  1.5822 -0.0455
   16MOL0     H 2136   4.685   3.005   7.558 -0.4663  2.0832 -0.5960
   16MOL0     H 2137   4.718   3.067   7.400  0.7309  0.4430 -2.0798
   16MOL0     H 2138   4.873   2.872   7.362 -0.9240 -0.0244  0.4426
   16MOL0     H 2139   4.925   2.980   7.493  0.9457 -0.3084  0.0553
   16MOL0     H 2140   3.729   2.943   6.950 -2.2946  2.9629 -0.0786
   16MOL0     H 2141   3.498   2.939   6.947  1.3727 -1.1557 -1.1793
   16MOL0     H 2142   3.113   2.957   7.191 -0.1711  0.2450  0.3377
   16MOL0     H 2143   2.883   2.967   7.193 -1.4155 -0.3113  3.4093
   16MOL0     H 2144   0.888   2.723   7.195  1.4544  3.2922 -0.7487
   16MOL0     H 2145   0.693   2.738   7.060  0.1251 -0.7562  0.9196
   16MOL0     H 2146   0.366   2.806   6.931  3.7591  0.0569 -0.3967
   16MOL0     H 2147   0.141   2.760   6.821 -1.9412 -2.0278 -1.3724
   16MOL0     H 2148  -0.061   2.765   6.675  0.4643  0.1256  2.4207
   16MOL0     H 2149   0.017   2.610   6.725  0.2607 -0.9619 -1.7988
   16MOL0     H 2150  -0.037   2.523   6.480 -0.9713 -1.9482  0.9347
   16MOL0     H 2151  -0.138   2.672   6.489 -2.6777 -0.0066  2.2127
   16MOL0     H 2152  -0.186   2.482   6.718 -1.9934  0.4589  0.1962
   16MOL0     H 2153  -0.242   2.434   6.568 -1.8611 -1.0294  2.9607
   16MOL0     H 2154  -0.295   2.708   6.693  0.7963 -0.5274  0.5442
   16MOL0     H 2155  -0.360   2.660   6.536 -1.5865  0.8084  0.5277
   16MOL0     H 2156  -0.620   2.470   6.822  0.9224 -1.0054  1.3096
   16MOL0     H 2157   0.328   2.752   6.437 -0.0396 -0.4488  0.1041
   16MOL0     H 2158   0.656   2.881   6.538  0.0242 -1.7143  2.6576
   16MOL0     H 2159   0.647   2.703   6.503  0.5314 -0.3133  0.7322
   16MOL0     H 2160   0.558   2.822   6.404 -2.7209  2.8547  0.9769
   17MOL0     O 2161   6.458   1.249   9.901 -0.3801  0.0254 -0.3544
   17MOL0     C 2162   6.432   1.353   9.956 -0.1781  0.5890 -0.0673
   17MOL0     O 2163   6.513   1.454   9.969 -0.4782 -0.3818  0.4527
   17MOL0     C 2164   6.638   1.449   9.914 -1.0457 -0.3323 -0.4040
   17MOL0     C 2165   6.688   1.556   9.851 -0.3317  0.0795 -0.4502
   17MOL0     C 2166   6.812   1.547   9.784  0.5729 -0.3587  1.4032
   17MOL0     C 2167   6.891   1.432   9.788 -0.3028  0.1075  1.5375
   17MOL0     O 2168   7.016   1.438   9.727 -0.0779  0.4384  0.3153
   17MOL0     C 2169   7.064   1.558   9.656  0.8547 -0.4369  0.1374
   17MOL0     C 2170   7.210   1.543   9.635  0.0471  0.4191  0.8295
   17MOL0     C 2171   7.260   1.641   9.534 -0.4989  0.6081  0.3459
   17MOL0     C 2172   7.394   1.618   9.479 -0.0385  0.3307  0.1335
   17MOL0     C 2173   7.456   1.746   9.404  0.8274 -0.6044  0.0954
   17MOL0     C 2174   7.573   1.699   9.302 -0.1732  0.6633 -1.1016
   17MOL0     C 2175   7.664   1.815   9.253 -0.2115 -0.4797  0.7244
   17MOL0     C 2176   7.774   1.764   9.170 -0.3365 -0.1241 -1.0317
   17MOL0     N 2177   7.848   1.881   9.122  0.3955  0.9163 -0.8325
   17MOL0     C 2178   7.811   1.972   9.028  0.5495 -0.0515 -0.4932
   17MOL0     C 2179   7.887   2.085   9.051  0.4216 -0.2258 -0.3373
   17MOL0     C 2180   7.875   2.214   8.973  0.1622 -0.3159  0.3691
   17MOL0     C 2181   7.976   2.319   9.025  0.0802  0.3442  0.1154
   17MOL0     C 2182   7.994   2.442   8.938  1.1147  0.3486 -0.1279
   17MOL0     C 2183   8.018   2.579   9.013 -0.4049  0.2549 -0.1235
   17MOL0     O 2184   8.072   2.664   8.907  0.1149 -0.1935 -0.0649
   17MOL0     C 2185   8.171   2.753   8.930 -0.1149 -0.3269  0.0934
   17MOL0     C 2186   8.221   2.773   9.058  0.5494  0.2625  0.3089
   17MOL0     C 2187   8.329   2.866   9.079  0.4420  0.2952 -0.2784
   17MOL0     C 2188   8.379   2.950   8.970  0.3576  0.8016 -0.3447
   17MOL0     C 2189   8.485   3.046   8.994  0.6184  0.6068  0.4601
   17MOL0     O 2190   8.541   3.104   8.884 -0.3237  0.1005  0.5009
   17MOL0     C 2191   8.652   3.187   8.903  0.5463 -0.2950 -0.2320
   17MOL0     C 2192   8.626   3.315   8.962  0.0683 -0.3076 -0.2839
   17MOL0     C 2193   8.732   3.407   8.981 -0.0793 -0.0267 -0.5431
   17MOL0     C 2194   8.860   3.368   8.939 -0.3744  0.2572  0.0257
   17MOL0     O 2195   8.979   3.438   8.942 -0.5638 -0.0438  0.2732
   17MOL0     C 2196   8.964   3.577   8.929  0.3631  0.7464  0.1316
   17MOL0     C 2197   9.101   3.637   8.898  0.0605 -0.1086 -0.2937
   17MOL0     C 2198   9.210   3.610   9.002  0.4322 -0.3885  1.1042
   17MOL0     C 2199   9.347   3.619   8.938 -0.2210 -0.0314  0.0101
   17MOL0     C 2200   9.448   3.552   9.028 -0.9031 -0.0873 -0.3108
   17MOL0     C 2201   9.588   3.575   8.976 -0.6475  1.6279  0.1802
   17MOL0     C 2202   9.705   3.543   9.072  1.0987  0.8997  1.5511
   17MOL0     C 2203   9.752   3.402   9.064  0.5482 -0.1334 -0.7056
   17MOL0    Cl 2204   9.841   3.379   8.909  0.0241  0.2270  0.1879
   17MOL0     C 2205   8.882   3.234   8.904 -0.3593 -0.1422  0.0393
   17MOL0     C 2206   8.779   3.145   8.877  0.3949 -0.3737  0.8921
   17MOL0     O 2207   8.511   3.075   9.108 -0.2567 -0.3343  0.1216
   17MOL0     C 2208   8.327   2.926   8.839  0.3528  0.0180  0.0490
   17MOL0     C 2209   8.221   2.832   8.825  0.9037  0.0917 -0.3040
   17MOL0     N 2210   7.984   2.051   9.144 -0.3991  0.6637  0.3387
   17MOL0     N 2211   7.956   1.928   9.186 -0.9075 -0.8431 -0.5994
   17MOL0     C 2212   6.840   1.321   9.855  0.1397 -0.3965 -0.6569
   17MOL0     C 2213   6.718   1.332   9.924 -1.0751  0.2192  0.3863
   17MOL0     C 2214   6.303   1.364  10.012  0.7793  0.2018 -0.0946
   17MOL0     C 2215   6.195   1.334   9.925  0.0409 -1.1110  0.0951
   17MOL0     C 2216   6.065   1.319   9.982 -0.6030  0.5942 -0.3667
   17MOL0     C 2217   6.041   1.364  10.113  0.0878  0.3048  0.3079
   17MOL0     O 2218   5.909   1.357  10.160 -0.2314  0.0991 -0.4375
   17MOL0     C 2219   5.880   1.413  10.293  0.2930  0.0500  0.0226
   17MOL0     C 2220   5.735   1.390  10.312  0.5538  0.7971  0.7595
   17MOL0     C 2221   5.693   1.375  10.462 -0.6194 -0.3281  1.3590
   17MOL0     C 2222   5.542   1.383  10.494 -0.3863  0.1031  0.3246
   17MOL0     C 2223   5.458   1.269  10.449 -0.0911  0.7434 -0.7318
   17MOL0     C 2224   5.388   1.180  10.402 -0.4554 -0.3154 -0.3489
   17MOL0     C 2225   6.150   1.396  10.191 -0.1791 -0.7215 -0.1940
   17MOL0     C 2226   6.282   1.397  10.149 -0.1355  0.1603  0.1785
   17MOL0     C 2227   6.391   1.399  10.253 -0.3400 -0.3584  0.5858
   17MOL0     H 2228   6.624   1.644   9.857 -1.5848 -0.8379  0.1496
   17MOL0     H 2229   6.841   1.647   9.752  0.6475 -0.2780  1.7253
   17MOL0     H 2230   7.001   1.566   9.567  0.3864 -1.3724  0.3739
   17MOL0     H 2231   7.051   1.650   9.714  0.0826 -1.3182  1.4260
   17MOL0     H 2232   7.229   1.442   9.599 -2.5426  1.2257 -3.5986
   17MOL0     H 2233   7.259   1.563   9.731  0.8170 -0.2347  0.5796
   17MOL0     H 2234   7.255   1.744   9.571  2.2411  1.2458 -0.7510
   17MOL0     H 2235   7.194   1.641   9.447  2.4899  1.2989 -2.1362
   17MOL0     H 2236   7.463   1.596   9.562 -0.0135 -1.3565 -0.2859
   17MOL0     H 2237   7.393   1.530   9.413 -3.0252  1.1463 -1.0974
   17MOL0     H 2238   7.381   1.805   9.350  0.1440 -0.0113  1.6235
   17MOL0     H 2239   7.497   1.817   9.476 -1.6364  1.3192 -0.2524
   17MOL0     H 2240   7.636   1.629   9.357 -2.2503 -0.3771  0.0684
   17MOL0     H 2241   7.527   1.657   9.212 -1.5125  1.7752 -0.9562
   17MOL0     H 2242   7.695   1.869   9.343 -1.9176  2.7042 -0.4544
   17MOL0     H 2243   7.598   1.883   9.199  2.1766  2.0107  0.7905
   17MOL0     H 2244   7.837   1.697   9.229 -2.3913 -0.1820  1.2804
   17MOL0     H 2245   7.731   1.718   9.080  1.2828  0.5463 -2.2067
   17MOL0     H 2246   7.728   1.958   8.960 -1.2994 -0.6000  1.7740
   17MOL0     H 2247   7.901   2.189   8.870 -1.8282 -1.5874  0.1253
   17MOL0     H 2248   7.774   2.255   8.977  0.6399  1.1040 -1.0474
   17MOL0     H 2249   7.950   2.351   9.127  3.1383 -2.0325  1.8518
   17MOL0     H 2250   8.074   2.270   9.037  0.6774  1.9077  2.3179
   17MOL0     H 2251   7.907   2.452   8.872  2.1665 -2.3258 -2.0836
   17MOL0     H 2252   8.081   2.415   8.877  0.1763 -1.0657 -0.8917
   17MOL0     H 2253   8.099   2.560   9.085 -0.5082 -1.1929 -0.3498
   17MOL0     H 2254   7.930   2.617   9.065 -0.2266 -1.4754  1.5776
   17MOL0     H 2255   8.186   2.723   9.147 -2.4429 -1.0359 -1.4522
   17MOL0     H 2256   8.369   2.874   9.179  1.1861 -0.5476 -0.4925
   17MOL0     H 2257   8.521   3.344   8.971 -0.2162 -1.3888 -0.0149
   17MOL0     H 2258   8.704   3.502   9.025 -0.5037  0.2444 -1.3785
   17MOL0     H 2259   8.897   3.608   8.849  0.2937 -1.3488 -0.6917
   17MOL0     H 2260   8.916   3.617   9.019 -2.9196  1.4619 -1.7909
   17MOL0     H 2261   9.133   3.593   8.803  0.3207  0.2963 -0.3988
   17MOL0     H 2262   9.083   3.744   8.883 -0.8586 -0.4565 -1.9093
   17MOL0     H 2263   9.207   3.683   9.083  1.2405  2.0741 -0.9435
   17MOL0     H 2264   9.195   3.510   9.044  1.8678 -1.4343 -0.7159
   17MOL0     H 2265   9.369   3.725   8.924 -0.1857 -0.0474 -0.0534
   17MOL0     H 2266   9.353   3.566   8.842  0.4714 -3.1503  1.6483
   17MOL0     H 2267   9.425   3.446   9.041 -0.6905  0.0163  1.0721
   17MOL0     H 2268   9.440   3.588   9.131  0.1473 -1.3520  0.2333
   17MOL0     H 2269   9.603   3.518   8.884 -0.8288 -0.6359  1.4575
   17MOL0     H 2270   9.598   3.678   8.944 -0.0284  1.1752 -1.1215
   17MOL0     H 2271   9.670   3.566   9.173 -2.2938  1.0914  0.4833
   17MOL0     H 2272   9.783   3.612   9.041  0.0361  1.4843  0.0252
   17MOL0     H 2273   9.813   3.385   9.153  0.5755  1.8484 -0.2967
   17MOL0     H 2274   9.662   3.339   9.065 -0.3536  1.1028 -0.0744
   17MOL0     H 2275   8.986   3.203   8.895 -0.2055  0.1228  0.8042
   17MOL0     H 2276   8.809   3.047   8.842 -0.9354 -1.3099  2.2514
   17MOL0     H 2277   8.363   2.987   8.757 -1.2531 -1.2563 -1.6861
   17MOL0     H 2278   8.171   2.827   8.729  0.7125  3.8061 -0.5531
   17MOL0     H 2279   6.906   1.235   9.849 -0.0526 -0.5655 -0.3142
   17MOL0     H 2280   6.689   1.249   9.987 -1.8912 -0.8633 -1.3410
   17MOL0     H 2281   6.225   1.293   9.829 -2.2919  0.7548 -1.5773
   17MOL0     H 2282   5.984   1.278   9.922  0.1481 -0.9763 -0.3654
   17MOL0     H 2283   5.912   1.517  10.303  0.4314 -0.1815  2.9696
   17MOL0     H 2284   5.947   1.355  10.357  0.8326  0.8119  0.1612
   17MOL0     H 2285   5.704   1.299  10.261  1.6200  1.8089 -1.8754
   17MOL0     H 2286   5.683   1.473  10.264 -2.1613 -1.8796 -1.3074
   17MOL0     H 2287   5.745   1.448  10.525  0.9473  3.0307 -3.3388
   17MOL0     H 2288   5.717   1.273  10.496  1.4284 -0.5241 -0.4697
   17MOL0     H 2289   5.525   1.391  10.602  0.1921 -1.7737  0.5976
   17MOL0     H 2290   5.500   1.474  10.450  0.3576  0.1721 -0.2658
   17MOL0     H 2291   5.339   1.101  10.350 -3.8135  0.7825  0.9061
   17MOL0     H 2292   6.132   1.422  10.295  2.8918  1.5919 -0.0878
   17MOL0     H 2293   6.354   1.428  10.352 -0.2930  0.6763  0.3158
   17MOL0     H 2294   6.447   1.305  10.260  2.7329  1.0902 -2.0640
   17MOL0     H 2295   6.466   1.477  10.235  2.9632 -3.1831  0.9025
   18MOL0     O 2296   9.590   6.909   5.286  0.1298 -0.7452 -0.3364
   18MOL0     C 2297   9.512   6.963   5.210  1.1416 -0.1933  0.1335
   18MOL0     O 2298   9.514   6.955   5.072 -0.0258  0.5871  0.2359
   18MOL0     C 2299   9.595   6.866   5.013 -0.4114  0.2324 -0.0166
   18MOL0     C 2300   9.673   6.906   4.909  0.5039  0.7863  0.6181
   18MOL0     C 2301   9.745   6.814   4.831 -0.0703 -1.0177 -0.6055
   18MOL0     C 2302   9.756   6.679   4.871  0.7466  0.0261  0.5552
   18MOL0     O 2303   9.815   6.581   4.796  0.5840 -0.6793 -0.3922
   18MOL0     C 2304   9.889   6.622   4.682 -0.6768 -0.5502 -0.2591
   18MOL0     C 2305   9.974   6.504   4.651  0.0784 -0.5064 -0.3907
   18MOL0     C 2306   9.881   6.393   4.602 -0.7131  0.8443  0.4267
   18MOL0     C 2307   9.936   6.243   4.612  0.0107  0.0951 -0.1729
   18MOL0     C 2308   9.839   6.140   4.544 -0.7146 -0.2570  0.0072
   18MOL0     C 2309   9.821   6.163   4.397  0.6163  0.5848 -0.5679
   18MOL0     C 2310   9.947   6.201   4.317  0.3380  0.3339  0.8011
   18MOL0     C 2311  10.018   6.076   4.274  0.3849 -0.0252 -0.2434
   18MOL0     N 2312  10.088   6.098   4.146 -0.0846  1.0023  0.3453
   18MOL0     C 2313  10.168   5.997   4.084 -0.8539 -1.3336  0.0771
   18MOL0     C 2314  10.205   6.051   3.964  0.6820 -0.5603  0.4428
   18MOL0     C 2315  10.289   5.977   3.862 -0.1822 -0.5238  0.6635
   18MOL0     C 2316  10.430   5.955   3.919 -0.2558  0.3212 -0.4635
   18MOL0     C 2317  10.509   6.082   3.945 -0.2623 -0.9689  0.1550
   18MOL0     C 2318  10.564   6.154   3.811  0.8573 -0.2780  0.5469
   18MOL0     O 2319  10.629   6.066   3.711 -0.1034 -0.0729  0.1673
   18MOL0     C 2320  10.756   6.017   3.729  0.0223  0.0059  0.3273
   18MOL0     C 2321  10.864   6.085   3.791 -0.1295  0.4667  0.4847
   18MOL0     C 2322  10.991   6.027   3.800 -0.1588 -1.1243  0.6089
   18MOL0     C 2323  11.028   5.901   3.736  0.3944  0.5528 -0.9355
   18MOL0     C 2324  11.165   5.854   3.740  0.9127  0.1623 -0.5851
   18MOL0     O 2325  11.199   5.763   3.642 -0.1053 -0.3568 -0.1485
   18MOL0     C 2326  11.332   5.725   3.626 -0.4458 -0.4546 -0.3003
   18MOL0     C 2327  11.410   5.679   3.732 -0.1639  0.6271 -0.0287
   18MOL0     C 2328  11.538   5.622   3.715 -0.0309 -0.7161 -0.4500
   18MOL0     C 2329  11.607   5.619   3.592 -0.0056 -0.3715 -0.0544
   18MOL0     O 2330  11.732   5.570   3.569 -0.9737  0.9966 -0.3358
   18MOL0     C 2331  11.806   5.533   3.685  0.2481  0.1457  0.1661
   18MOL0     C 2332  11.945   5.481   3.642 -0.4280  0.6988  0.0898
   18MOL0     C 2333  12.040   5.495   3.757  1.0336 -0.3231  0.4116
   18MOL0     C 2334  12.181   5.446   3.729 -0.0848  0.5707  0.5355
   18MOL0     C 2335  12.288   5.537   3.804  0.2016  0.8834  0.3256
   18MOL0     C 2336  12.305   5.492   3.945 -0.5025 -0.1956  0.1922
   18MOL0     C 2337  12.375   5.604   4.030  0.3678  0.1573 -0.5599
   18MOL0     C 2338  12.350   5.592   4.177  0.1994  0.6396  0.3152
   18MOL0    Cl 2339  12.467   5.707   4.257  0.5059 -0.1701  0.4131
   18MOL0     C 2340  11.525   5.680   3.490  0.4778 -0.2994 -0.1104
   18MOL0     C 2341  11.390   5.727   3.497 -0.0084 -0.1410 -0.1495
   18MOL0     O 2342  11.233   5.902   3.830  0.1044 -0.2185  0.0297
   18MOL0     C 2343  10.926   5.839   3.670 -0.1609  0.2146 -0.0297
   18MOL0     C 2344  10.794   5.891   3.670  0.1839  0.4781  0.3695
   18MOL0     N 2345  10.139   6.174   3.946  0.1980  0.2948  0.7047
   18MOL0     N 2346  10.085   6.202   4.061  0.3022  0.5540 -0.7154
   18MOL0     C 2347   9.700   6.637   4.987 -0.2464 -0.0191 -0.5155
   18MOL0     C 2348   9.608   6.728   5.050 -0.1171 -0.0946  0.5100
   18MOL0     C 2349   9.393   7.040   5.261 -0.3226  0.2081 -0.4957
   18MOL0     C 2350   9.285   7.069   5.178 -0.2621  0.3344 -0.7476
   18MOL0     C 2351   9.176   7.148   5.220  0.6909  0.0848  0.1075
   18MOL0     C 2352   9.171   7.201   5.349  0.6162  0.1794  0.0755
   18MOL0     O 2353   9.069   7.283   5.385 -0.7030 -0.3042 -0.2481
   18MOL0     C 2354   9.072   7.319   5.523 -0.2823 -0.4661  0.3144
   18MOL0     C 2355   8.954   7.406   5.556  0.4288  0.2046 -0.0578
   18MOL0     C 2356   8.951   7.535   5.468  0.1025  0.3170  0.1586
   18MOL0     C 2357   8.809   7.598   5.485  0.5829  0.0249 -0.1889
   18MOL0     C 2358   8.785   7.719   5.406  0.3048  0.5525 -0.0286
   18MOL0     C 2359   8.768   7.816   5.333  0.9693 -0.0071 -0.2998
   18MOL0     C 2360   9.282   7.173   5.431  0.4399 -0.5116  0.0241
   18MOL0     C 2361   9.396   7.104   5.386 -0.3051  0.1564  0.1734
   18MOL0     C 2362   9.507   7.109   5.483 -0.8997  0.2994 -0.4964
   18MOL0     H 2363   9.672   7.012   4.885 -0.8631  1.2822  2.5700
   18MOL0     H 2364   9.795   6.851   4.742  1.2066  1.9364  1.1862
   18MOL0     H 2365   9.825   6.651   4.598  3.6623  2.4068 -2.9779
   18MOL0     H 2366   9.961   6.701   4.702 -0.1468 -1.4139  1.4067
   18MOL0     H 2367  10.030   6.475   4.740 -1.7755 -0.8810  0.6884
   18MOL0     H 2368  10.051   6.528   4.576  1.8792  0.3310  1.6155
   18MOL0     H 2369   9.865   6.411   4.496  0.3976  2.5705  0.4984
   18MOL0     H 2370   9.789   6.396   4.661  1.0623  1.1029  3.4253
   18MOL0     H 2371  10.036   6.247   4.566  0.5117  0.5578  0.9130
   18MOL0     H 2372   9.959   6.218   4.716  0.5267  0.4119 -0.2013
   18MOL0     H 2373   9.889   6.043   4.551 -1.7293 -0.7176  1.7212
   18MOL0     H 2374   9.744   6.139   4.599 -2.0705  2.8041 -2.0604
   18MOL0     H 2375   9.777   6.071   4.358  0.2522  1.0060 -1.1655
   18MOL0     H 2376   9.753   6.248   4.388 -2.1998 -1.3921  0.7124
   18MOL0     H 2377  10.016   6.275   4.358 -0.5732  0.3243  2.4397
   18MOL0     H 2378   9.901   6.247   4.230 -0.1167  0.2136  0.9755
   18MOL0     H 2379  10.087   6.052   4.355  1.4308  1.2296 -0.7241
   18MOL0     H 2380   9.950   5.991   4.266  1.5085 -1.0351  0.5731
   18MOL0     H 2381  10.197   5.902   4.127  2.2197 -0.3068  0.5479
   18MOL0     H 2382  10.244   5.879   3.847 -0.6265 -0.2314  0.0109
   18MOL0     H 2383  10.311   6.031   3.769  2.3760 -4.2898 -1.1697
   18MOL0     H 2384  10.420   5.895   4.010  1.4797  0.5800 -0.0502
   18MOL0     H 2385  10.480   5.895   3.843  1.1303 -1.5509  1.7976
   18MOL0     H 2386  10.599   6.065   4.004  2.2069  1.9856 -2.3406
   18MOL0     H 2387  10.451   6.153   4.005  1.3423  1.0453 -0.5514
   18MOL0     H 2388  10.624   6.240   3.841  1.4890 -0.4130 -0.2878
   18MOL0     H 2389  10.479   6.196   3.757  3.0380 -0.2274 -3.2779
   18MOL0     H 2390  10.842   6.187   3.821  1.7738  0.6265  1.5472
   18MOL0     H 2391  11.074   6.087   3.836  1.3129 -2.1961 -0.8741
   18MOL0     H 2392  11.369   5.675   3.833  0.3596 -2.1497  0.1512
   18MOL0     H 2393  11.592   5.601   3.807 -1.0450 -0.3950  0.2364
   18MOL0     H 2394  11.814   5.629   3.738 -1.0121  1.1879 -1.4365
   18MOL0     H 2395  11.759   5.464   3.755  0.3863  0.4352  0.5484
   18MOL0     H 2396  11.927   5.375   3.618 -2.2763  0.7373  1.1044
   18MOL0     H 2397  11.982   5.519   3.546 -0.0783  0.6339  0.1976
   18MOL0     H 2398  12.040   5.600   3.785 -0.0563  0.2688 -1.5926
   18MOL0     H 2399  11.997   5.438   3.840  3.9650 -0.4520  1.9440
   18MOL0     H 2400  12.209   5.450   3.623  1.2017  1.5399  0.8925
   18MOL0     H 2401  12.183   5.341   3.760 -1.5532  0.4829  0.4371
   18MOL0     H 2402  12.256   5.642   3.801  1.6395  1.3596  0.7950
   18MOL0     H 2403  12.384   5.539   3.752  1.3713  0.1503  2.3493
   18MOL0     H 2404  12.209   5.471   3.994  0.2583 -0.3895  1.6348
   18MOL0     H 2405  12.366   5.402   3.944 -0.3685 -0.1086  0.4925
   18MOL0     H 2406  12.330   5.699   4.001 -0.6812  0.1582  0.9505
   18MOL0     H 2407  12.481   5.618   4.006  0.2898  3.9371  0.6954
   18MOL0     H 2408  12.246   5.613   4.201  0.2830  2.2478 -0.5669
   18MOL0     H 2409  12.372   5.493   4.217 -0.6011  0.1928 -0.3278
   18MOL0     H 2410  11.566   5.682   3.390  2.6836 -1.4289  0.7067
   18MOL0     H 2411  11.322   5.765   3.421 -1.4497 -2.2272  0.0135
   18MOL0     H 2412  10.950   5.761   3.599 -2.2725  0.0567 -0.6358
   18MOL0     H 2413  10.709   5.838   3.627 -1.8120  2.5192  1.5644
   18MOL0     H 2414   9.711   6.534   5.021  0.0100 -0.0500 -0.6977
   18MOL0     H 2415   9.551   6.684   5.130 -0.1042 -2.4384 -0.6884
   18MOL0     H 2416   9.277   7.030   5.077 -0.8346 -2.7375  0.3905
   18MOL0     H 2417   9.101   7.179   5.148  4.2314  2.8647 -2.7661
   18MOL0     H 2418   9.163   7.372   5.554 -0.3373 -1.8326  3.1644
   18MOL0     H 2419   9.068   7.234   5.591 -0.1222 -0.3134  0.5191
   18MOL0     H 2420   8.962   7.436   5.661  0.7086 -0.4135  0.1018
   18MOL0     H 2421   8.863   7.346   5.543  0.7469 -0.1257 -0.8406
   18MOL0     H 2422   8.953   7.502   5.363 -2.2711  3.0013 -0.8561
   18MOL0     H 2423   9.026   7.606   5.502  1.2962 -0.8278  0.0124
   18MOL0     H 2424   8.733   7.527   5.453 -3.0704  3.6670 -0.4485
   18MOL0     H 2425   8.804   7.623   5.592  1.4282  0.8709 -0.3212
   18MOL0     H 2426   8.774   7.904   5.271  1.8058 -0.5408 -0.9956
   18MOL0     H 2427   9.279   7.194   5.537 -1.8292 -1.7507  0.2868
   18MOL0     H 2428   9.497   7.192   5.553  0.8120  0.9246 -0.9476
   18MOL0     H 2429   9.519   7.020   5.545 -0.7391  1.1964  0.7870
   18MOL0     H 2430   9.599   7.145   5.436 -1.9237  0.7373 -2.2734
   19MOL0     O 2431   0.984   6.883   6.659  0.4518  0.3254 -0.6246
   19MOL0     C 2432   1.051   6.926   6.757  0.2711 -0.2552  0.2209
   19MOL0     O 2433   1.180   6.956   6.759 -0.0727 -0.2998  0.2068
   19MOL0     C 2434   1.270   6.890   6.674 -0.3912 -0.6509  0.3899
   19MOL0     C 2435   1.364   6.959   6.606 -0.5799  0.2529  0.5138
   19MOL0     C 2436   1.452   6.892   6.514 -0.9231  0.7795 -0.5268
   19MOL0     C 2437   1.438   6.752   6.502  0.2661 -0.4171  0.5540
   19MOL0     O 2438   1.516   6.681   6.407 -0.3462  0.1203  0.1087
   19MOL0     C 2439   1.592   6.567   6.453  0.6854  0.0366 -0.9094
   19MOL0     C 2440   1.720   6.612   6.536 -0.2210  0.0232 -0.3717
   19MOL0     C 2441   1.799   6.711   6.456 -1.0143  0.4425  0.2904
   19MOL0     C 2442   1.929   6.748   6.523 -0.8579 -0.3262 -0.1308
   19MOL0     C 2443   2.037   6.798   6.417  0.4975 -0.7484 -0.0628
   19MOL0     C 2444   2.168   6.836   6.480  0.0552 -0.2834  0.4617
   19MOL0     C 2445   2.279   6.876   6.382  0.8857 -0.9876 -0.1388
   19MOL0     C 2446   2.322   6.752   6.282 -0.7791  0.6798 -0.5348
   19MOL0     N 2447   2.443   6.794   6.214  0.4225 -0.2791  0.5501
   19MOL0     C 2448   2.434   6.864   6.099  0.7976  0.1023  0.6711
   19MOL0     C 2449   2.561   6.864   6.054 -0.7165  0.4440 -0.5691
   19MOL0     C 2450   2.604   6.916   5.923  0.2432 -0.1112 -0.2148
   19MOL0     C 2451   2.719   7.015   5.942 -0.5227 -0.3404 -0.2220
   19MOL0     C 2452   2.793   7.048   5.814 -0.1846 -1.5715  1.1879
   19MOL0     C 2453   2.926   7.131   5.825 -0.4567 -0.5390  0.3019
   19MOL0     O 2454   2.889   7.249   5.898  0.1470 -0.3436 -0.3474
   19MOL0     C 2455   2.981   7.313   5.982 -0.3318 -0.3695  0.5581
   19MOL0     C 2456   3.115   7.265   6.007  0.9531 -0.7893  0.8130
   19MOL0     C 2457   3.205   7.344   6.082  0.2212 -0.3375  0.2866
   19MOL0     C 2458   3.166   7.461   6.137  0.2619  0.1791  0.4403
   19MOL0     C 2459   3.261   7.547   6.205  1.0383  0.4859 -0.2699
   19MOL0     O 2460   3.386   7.506   6.199 -0.0542  0.0738  0.6229
   19MOL0     C 2461   3.492   7.555   6.275  0.5530 -0.1585 -1.2029
   19MOL0     C 2462   3.486   7.614   6.401  0.3992 -0.2735  0.5070
   19MOL0     C 2463   3.601   7.642   6.484 -0.0211  0.3920  0.1467
   19MOL0     C 2464   3.729   7.617   6.430 -0.4481 -0.7143 -1.1111
   19MOL0     O 2465   3.843   7.645   6.516  0.7634  0.4843  0.0173
   19MOL0     C 2466   3.962   7.572   6.486  0.8324  0.1228  0.4090
   19MOL0     C 2467   4.059   7.658   6.409 -0.8527 -0.5986 -0.7902
   19MOL0     C 2468   4.190   7.669   6.493 -0.6015 -0.1838  0.1262
   19MOL0     C 2469   4.285   7.784   6.437  0.1082  0.0942  0.4443
   19MOL0     C 2470   4.423   7.786   6.508  0.4849  0.4435  0.1107
   19MOL0     C 2471   4.524   7.678   6.458  0.3314 -0.3110  0.1091
   19MOL0     C 2472   4.654   7.689   6.539 -0.4104 -0.0055  0.1675
   19MOL0     C 2473   4.737   7.813   6.495  0.1341  0.4471 -0.0084
   19MOL0    Cl 2474   4.891   7.773   6.573 -0.0486 -0.3499 -0.3387
   19MOL0     C 2475   3.736   7.582   6.292 -0.4552  0.6033 -0.3879
   19MOL0     C 2476   3.620   7.549   6.220  0.2996  0.4323  0.1018
   19MOL0     O 2477   3.223   7.649   6.264  0.1171 -0.4620 -0.1279
   19MOL0     C 2478   3.035   7.498   6.119 -1.4689 -0.3980 -0.8149
   19MOL0     C 2479   2.947   7.435   6.038 -0.0426  0.1170 -0.0038
   19MOL0     N 2480   2.639   6.792   6.140  0.5010  0.4214 -0.7860
   19MOL0     N 2481   2.567   6.749   6.241  1.1039 -0.2777 -0.6233
   19MOL0     C 2482   1.343   6.679   6.577  0.1827 -0.0091  0.6296
   19MOL0     C 2483   1.256   6.754   6.659 -0.3513 -0.0381 -0.6189
   19MOL0     C 2484   0.975   6.966   6.879  0.4839 -0.7658 -0.6618
   19MOL0     C 2485   1.049   6.996   7.002  0.5203  0.7483 -0.7389
   19MOL0     C 2486   0.978   7.015   7.118 -0.3407  0.4905 -1.2014
   19MOL0     C 2487   0.848   7.005   7.133  0.2234 -0.0208 -0.1920
   19MOL0     O 2488   0.791   7.030   7.259 -0.1047  0.7705 -0.2667
   19MOL0     C 2489   0.650   6.986   7.278  0.2054  0.4134  0.8423
   19MOL0     C 2490   0.550   7.087   7.242  0.7218 -0.5467 -1.1608
   19MOL0     C 2491   0.540   7.188   7.355 -0.4524 -0.4169  0.4891
   19MOL0     C 2492   0.472   7.140   7.478 -0.0716 -0.2601 -0.6259
   19MOL0     C 2493   0.332   7.112   7.446  1.3839  0.6398  0.0212
   19MOL0     C 2494   0.212   7.085   7.426  0.1567 -0.5614  0.0129
   19MOL0     C 2495   0.769   6.980   7.024 -0.1149 -0.2016 -0.2730
   19MOL0     C 2496   0.833   6.959   6.899  0.5990 -0.7007 -0.0331
   19MOL0     C 2497   0.738   6.952   6.779  0.1473  0.3966 -0.1305
   19MOL0     H 2498   1.372   7.065   6.631 -2.0526  0.4036  0.3905
   19MOL0     H 2499   1.536   6.936   6.462  1.9136  0.6988  3.4751
   19MOL0     H 2500   1.533   6.510   6.525  2.9564  0.4312  1.3967
   19MOL0     H 2501   1.617   6.503   6.367  2.2584  0.3553 -0.7111
   19MOL0     H 2502   1.782   6.527   6.568 -3.8820 -1.9686  2.1357
   19MOL0     H 2503   1.688   6.667   6.625 -3.0512 -2.0677  0.0542
   19MOL0     H 2504   1.739   6.801   6.437 -2.4936  0.2436  3.3513
   19MOL0     H 2505   1.818   6.668   6.357 -0.0236  2.2445 -0.3506
   19MOL0     H 2506   1.909   6.816   6.606 -2.8697 -2.7750  1.5635
   19MOL0     H 2507   1.980   6.666   6.573  1.3605  2.3726  2.3144
   19MOL0     H 2508   2.051   6.706   6.358 -1.0400 -2.1207  1.5915
   19MOL0     H 2509   1.994   6.875   6.353  0.1885 -0.1675  0.8294
   19MOL0     H 2510   2.152   6.919   6.549  1.2811  1.3791 -1.1675
   19MOL0     H 2511   2.211   6.757   6.542  0.7530  2.0220  3.0744
   19MOL0     H 2512   2.371   6.907   6.432  1.0924 -0.2915 -0.9268
   19MOL0     H 2513   2.249   6.955   6.313  2.8855 -1.0466 -1.1613
   19MOL0     H 2514   2.345   6.664   6.344  0.4963  1.9412  0.8886
   19MOL0     H 2515   2.241   6.732   6.212 -0.5049 -2.1434 -0.1561
   19MOL0     H 2516   2.346   6.910   6.055  0.7211 -0.7788 -0.1361
   19MOL0     H 2517   2.633   6.834   5.857 -0.7207 -1.3549  0.8572
   19MOL0     H 2518   2.523   6.975   5.880  0.0393 -0.7251 -0.6785
   19MOL0     H 2519   2.680   7.108   5.984  1.1864  1.3276 -2.0734
   19MOL0     H 2520   2.793   6.975   6.012  0.1758  3.2547  1.3583
   19MOL0     H 2521   2.733   7.112   5.749  0.8406 -3.3357 -1.6957
   19MOL0     H 2522   2.810   6.953   5.763  2.9059  0.2415 -1.6083
   19MOL0     H 2523   2.966   7.154   5.726  0.1026 -1.4217  0.3089
   19MOL0     H 2524   2.994   7.069   5.884  0.2075 -0.0541  0.0599
   19MOL0     H 2525   3.138   7.178   5.947 -1.7399  0.2398 -1.9526
   19MOL0     H 2526   3.305   7.301   6.081 -0.0084 -0.9430 -2.0710
   19MOL0     H 2527   3.394   7.631   6.456 -0.4268 -4.2987  0.6736
   19MOL0     H 2528   3.599   7.680   6.585 -0.8226 -1.7787  1.0137
   19MOL0     H 2529   4.006   7.541   6.581 -0.3285 -1.6185  0.4332
   19MOL0     H 2530   3.945   7.475   6.438  0.2172 -0.3379  1.5127
   19MOL0     H 2531   4.083   7.595   6.322  0.0149 -1.6103  0.1452
   19MOL0     H 2532   4.025   7.752   6.366 -1.1785 -0.9228 -1.2485
   19MOL0     H 2533   4.169   7.700   6.596  1.4086 -0.7233  0.7382
   19MOL0     H 2534   4.235   7.569   6.493 -0.4627 -0.1388 -1.0396
   19MOL0     H 2535   4.235   7.881   6.446 -1.7257 -0.6541 -0.9880
   19MOL0     H 2536   4.306   7.767   6.331 -1.3376 -1.8344  0.4101
   19MOL0     H 2537   4.409   7.775   6.616  1.5260  1.0855  0.3274
   19MOL0     H 2538   4.473   7.881   6.487 -1.4969  1.2836 -1.0869
   19MOL0     H 2539   4.485   7.577   6.444 -1.8469  0.4596  0.3193
   19MOL0     H 2540   4.546   7.704   6.354  2.8431 -0.2609  0.5836
   19MOL0     H 2541   4.714   7.600   6.513 -0.9480 -0.5311  0.6969
   19MOL0     H 2542   4.630   7.681   6.645 -0.6611 -1.2583  0.0411
   19MOL0     H 2543   4.755   7.806   6.387 -0.4633 -1.6290 -0.0246
   19MOL0     H 2544   4.692   7.904   6.535  1.8753  1.2218  0.2881
   19MOL0     H 2545   3.828   7.553   6.243  0.8967  3.4349  0.3140
   19MOL0     H 2546   3.616   7.502   6.122  1.3778 -0.7042  0.5783
   19MOL0     H 2547   3.015   7.596   6.162  3.0025 -0.1900  1.3003
   19MOL0     H 2548   2.853   7.487   6.025 -0.4709 -0.0616  1.9799
   19MOL0     H 2549   1.326   6.576   6.550  0.4838  0.1875 -0.3586
   19MOL0     H 2550   1.183   6.696   6.715 -0.0005  2.3465  2.5882
   19MOL0     H 2551   1.158   6.992   7.005  0.4877 -2.5688  1.1132
   19MOL0     H 2552   1.037   7.045   7.204 -0.2949  3.6704 -2.2104
   19MOL0     H 2553   0.632   6.962   7.383 -0.3014 -1.0657  0.4412
   19MOL0     H 2554   0.616   6.895   7.226  1.9803 -0.7729  1.6876
   19MOL0     H 2555   0.455   7.033   7.228 -0.5966  0.6615  2.1465
   19MOL0     H 2556   0.587   7.134   7.150  2.9867  0.9091  0.3975
   19MOL0     H 2557   0.487   7.272   7.310  0.3189  0.3619  1.0013
   19MOL0     H 2558   0.642   7.216   7.385 -0.4300  0.4739 -0.3899
   19MOL0     H 2559   0.520   7.049   7.515 -1.4205  0.0157  2.0334
   19MOL0     H 2560   0.494   7.218   7.552 -1.0058 -0.4870 -0.0897
   19MOL0     H 2561   0.108   7.060   7.421 -0.1560  0.6393  0.0732
   19MOL0     H 2562   0.661   6.986   7.025 -0.2302 -1.8669  0.5206
   19MOL0     H 2563   0.644   7.006   6.793 -0.5997 -0.8623 -0.1375
   19MOL0     H 2564   0.787   7.000   6.693 -0.4202  0.1761 -0.5821
   19MOL0     H 2565   0.721   6.848   6.749  0.0380  1.0137 -2.4473
   20MOL0     O 2566   6.583   4.447   3.027  0.4555 -0.3518 -0.4850
   20MOL0     C 2567   6.650   4.548   3.012  0.7549 -0.7548 -0.5654
   20MOL0     O 2568   6.602   4.660   2.954  0.8832 -0.3906  0.6804
   20MOL0     C 2569   6.463   4.662   2.931 -0.3368 -0.0181  0.6221
   20MOL0     C 2570   6.379   4.654   3.037  0.7291 -0.0161 -0.1162
   20MOL0     C 2571   6.241   4.660   3.019 -0.9828 -0.4445 -0.2172
   20MOL0     C 2572   6.195   4.654   2.890  1.1123 -0.3651 -0.1855
   20MOL0     O 2573   6.058   4.642   2.858  0.8251  0.6589 -0.2433
   20MOL0     C 2574   5.958   4.575   2.947  0.1007  0.0292  0.5484
   20MOL0     C 2575   5.814   4.585   2.885  0.0431 -0.5636  0.2145
   20MOL0     C 2576   5.757   4.724   2.877 -0.9353  0.9494 -0.4807
   20MOL0     C 2577   5.605   4.720   2.878  0.1694  0.1945 -0.2387
   20MOL0     C 2578   5.545   4.751   3.012 -0.7668 -0.2110 -0.6306
   20MOL0     C 2579   5.392   4.753   3.011  0.9125  0.8436 -0.3942
   20MOL0     C 2580   5.318   4.624   2.973 -0.0264  0.3629  0.2439
   20MOL0     C 2581   5.328   4.514   3.080 -0.0608 -0.3013  1.0299
   20MOL0     N 2582   5.223   4.417   3.047 -0.5185 -0.1846  0.5793
   20MOL0     C 2583   5.235   4.294   2.993 -0.0684 -0.4484 -0.1438
   20MOL0     C 2584   5.110   4.245   2.992  0.0417  0.5398 -0.9147
   20MOL0     C 2585   5.071   4.116   2.933 -0.5146 -0.3230  0.0684
   20MOL0     C 2586   5.191   4.008   2.918  0.6932 -0.0801  0.4205
   20MOL0     C 2587   5.265   3.980   3.050  0.2400 -0.6358 -0.5880
   20MOL0     C 2588   5.370   3.861   3.026  1.0072 -0.1043 -0.3332
   20MOL0     O 2589   5.432   3.826   3.149 -0.5971  0.7818 -0.3860
   20MOL0     C 2590   5.550   3.754   3.133 -0.2229 -0.3463 -0.3591
   20MOL0     C 2591   5.596   3.687   3.019 -0.1933 -0.3087  0.9062
   20MOL0     C 2592   5.715   3.621   3.009 -0.8250 -0.3727 -0.0112
   20MOL0     C 2593   5.797   3.619   3.122 -0.0340 -0.0657 -0.3546
   20MOL0     C 2594   5.933   3.555   3.123  0.4041 -0.6342  0.0301
   20MOL0     O 2595   6.031   3.607   3.205 -0.1432  0.1710  0.6474
   20MOL0     C 2596   6.156   3.552   3.213 -0.3909 -0.4412  0.4336
   20MOL0     C 2597   6.244   3.627   3.299  1.2438  0.4657  0.1510
   20MOL0     C 2598   6.369   3.574   3.331  0.6217  0.4049 -0.2907
   20MOL0     C 2599   6.419   3.456   3.274 -0.0694  0.5868 -0.0857
   20MOL0     O 2600   6.546   3.415   3.319 -0.4227  0.5169 -0.3826
   20MOL0     C 2601   6.610   3.306   3.247  0.6053  0.1425  0.3523
   20MOL0     C 2602   6.676   3.333   3.112 -0.6314 -0.4421 -0.1059
   20MOL0     C 2603   6.809   3.414   3.131  0.2077 -0.3309 -0.0129
   20MOL0     C 2604   6.856   3.461   2.991 -0.0903  0.1753 -0.3485
   20MOL0     C 2605   6.976   3.557   2.998  0.2824 -0.2990 -0.2439
   20MOL0     C 2606   7.013   3.620   2.866  0.7798 -0.5500  0.1719
   20MOL0     C 2607   7.148   3.685   2.868  0.2277 -0.2122 -0.0353
   20MOL0     C 2608   7.198   3.723   2.724  0.6495  0.6257 -0.3464
   20MOL0    Cl 2609   7.081   3.826   2.635 -0.3998  0.1908 -0.6945
   20MOL0     C 2610   6.336   3.391   3.179 -0.1273 -0.2273 -0.0786
   20MOL0     C 2611   6.207   3.431   3.150 -0.7089 -0.2175 -0.1959
   20MOL0     O 2612   5.948   3.474   3.030 -0.2325  0.7020  0.3357
   20MOL0     C 2613   5.756   3.684   3.239 -0.1680 -0.2391  0.1786
   20MOL0     C 2614   5.638   3.746   3.245 -0.9903  0.0095 -0.1866
   20MOL0     N 2615   5.020   4.340   3.039  0.3042 -0.7075 -0.3649
   20MOL0     N 2616   5.092   4.443   3.083 -0.9090  0.1685  0.6594
   20MOL0     C 2617   6.274   4.641   2.776 -0.3882 -0.2418  0.2739
   20MOL0     C 2618   6.413   4.649   2.793 -0.9855  0.4029 -1.5695
   20MOL0     C 2619   6.792   4.555   3.063  0.3460 -0.1243 -0.5270
   20MOL0     C 2620   6.854   4.681   3.091  0.3628 -0.4830  0.1554
   20MOL0     C 2621   6.975   4.690   3.151 -0.2674 -0.1282 -0.7008
   20MOL0     C 2622   7.053   4.581   3.187 -0.1762 -0.9275 -0.5913
   20MOL0     O 2623   7.177   4.599   3.236 -0.8377  0.6289  0.5910
   20MOL0     C 2624   7.275   4.499   3.207 -1.0872 -0.4130  0.0350
   20MOL0     C 2625   7.404   4.550   3.274  0.4633  0.2334  0.2217
   20MOL0     C 2626   7.388   4.553   3.430  0.4194  0.1002  0.2585
   20MOL0     C 2627   7.396   4.405   3.477 -0.2246 -0.3084  0.2575
   20MOL0     C 2628   7.414   4.408   3.627 -0.6497 -0.3101  0.6457
   20MOL0     C 2629   7.433   4.395   3.744 -1.0302 -0.3008 -0.0804
   20MOL0     C 2630   6.992   4.454   3.169 -1.3857 -0.5917 -0.7633
   20MOL0     C 2631   6.867   4.442   3.109  0.4415  0.5783 -0.7915
   20MOL0     C 2632   6.818   4.303   3.119  0.5732 -0.3159  0.2126
   20MOL0     H 2633   6.417   4.661   3.138  0.7153  3.9462 -0.2169
   20MOL0     H 2634   6.170   4.652   3.101 -2.2108  1.1854 -1.0702
   20MOL0     H 2635   5.986   4.471   2.965  1.7008  0.4350  0.5322
   20MOL0     H 2636   5.957   4.622   3.046  1.2669  0.6017  0.3100
   20MOL0     H 2637   5.744   4.523   2.943  0.9419 -1.3417  0.5000
   20MOL0     H 2638   5.822   4.549   2.782  1.5546  0.5871 -0.1075
   20MOL0     H 2639   5.782   4.769   2.781 -1.3498  3.6894  0.6060
   20MOL0     H 2640   5.800   4.787   2.956 -4.6349  1.9513  0.9417
   20MOL0     H 2641   5.582   4.796   2.803  0.3672  1.6161  1.0825
   20MOL0     H 2642   5.548   4.639   2.832  1.5306 -0.0386 -1.5809
   20MOL0     H 2643   5.590   4.683   3.086 -3.3960  0.8036  2.1331
   20MOL0     H 2644   5.582   4.853   3.031  0.0841 -0.3026 -1.7249
   20MOL0     H 2645   5.360   4.778   3.112  0.6380  2.6144 -0.8838
   20MOL0     H 2646   5.356   4.833   2.944 -0.7527 -0.3483 -0.9779
   20MOL0     H 2647   5.340   4.592   2.871 -1.3765  1.5889 -0.4611
   20MOL0     H 2648   5.215   4.660   2.971  0.2187  1.0753 -1.5543
   20MOL0     H 2649   5.421   4.459   3.070  0.5391  0.6805  1.0439
   20MOL0     H 2650   5.334   4.550   3.183  2.6390 -2.3931  1.7272
   20MOL0     H 2651   5.327   4.256   2.949  0.4495 -0.8628  1.2396
   20MOL0     H 2652   4.995   4.064   2.993  0.3514 -0.7110  0.8463
   20MOL0     H 2653   5.021   4.137   2.837 -0.3692  1.6968  0.3970
   20MOL0     H 2654   5.145   3.918   2.876  2.1737 -0.6731  0.0331
   20MOL0     H 2655   5.263   4.041   2.843  3.4798 -3.0534  1.5680
   20MOL0     H 2656   5.198   3.942   3.128 -1.3738  1.2212 -0.9723
   20MOL0     H 2657   5.321   4.065   3.089  0.9922 -0.4382 -2.0493
   20MOL0     H 2658   5.446   3.905   2.960  0.2363  2.4934  0.3772
   20MOL0     H 2659   5.311   3.781   2.981 -0.6285  2.3334 -2.8880
   20MOL0     H 2660   5.541   3.688   2.926  0.0499 -0.9526  0.7520
   20MOL0     H 2661   5.754   3.590   2.913  1.2312  2.1821 -0.1018
   20MOL0     H 2662   6.201   3.701   3.365 -0.5919 -2.3884  2.4169
   20MOL0     H 2663   6.420   3.633   3.407 -2.5221  0.8792  1.6237
   20MOL0     H 2664   6.690   3.266   3.311  0.6727 -1.8158 -0.8611
   20MOL0     H 2665   6.537   3.226   3.232  2.3720 -0.9712 -3.9496
   20MOL0     H 2666   6.709   3.242   3.060  0.7521  0.7354 -1.3951
   20MOL0     H 2667   6.603   3.388   3.052  1.9499  0.7585 -2.3542
   20MOL0     H 2668   6.806   3.494   3.205  0.1185 -0.0939 -0.2725
   20MOL0     H 2669   6.889   3.348   3.165  1.0991  0.1298 -1.1588
   20MOL0     H 2670   6.781   3.519   2.936  1.6658  2.6868 -0.2826
   20MOL0     H 2671   6.889   3.371   2.939  0.6145 -1.4360  2.6731
   20MOL0     H 2672   7.060   3.497   3.035  0.7165  1.2477  1.4182
   20MOL0     H 2673   6.955   3.636   3.071  1.0612 -0.1032 -0.2287
   20MOL0     H 2674   7.037   3.530   2.808  2.5653 -0.1477  0.2188
   20MOL0     H 2675   6.934   3.680   2.820 -1.7743 -1.7135  2.7726
   20MOL0     H 2676   7.221   3.620   2.917  0.0754 -0.3526  0.0071
   20MOL0     H 2677   7.135   3.774   2.931 -0.7606 -0.1163 -0.3677
   20MOL0     H 2678   7.296   3.770   2.733  1.1223 -0.2529 -0.7542
   20MOL0     H 2679   7.226   3.640   2.659 -0.9020  0.1581 -0.4802
   20MOL0     H 2680   6.370   3.305   3.123  1.4118  0.0722  0.3341
   20MOL0     H 2681   6.159   3.366   3.077  0.6127 -0.9011 -0.4981
   20MOL0     H 2682   5.817   3.698   3.327  1.5873  1.3676 -1.1972
   20MOL0     H 2683   5.603   3.795   3.335 -0.7890  0.6748 -0.4632
   20MOL0     H 2684   6.220   4.632   2.682 -2.5080  0.7844  1.3178
   20MOL0     H 2685   6.488   4.645   2.714 -0.4099  0.8902 -1.0638
   20MOL0     H 2686   6.800   4.774   3.077  1.6661  0.1398 -0.9017
   20MOL0     H 2687   7.006   4.792   3.174 -1.4897 -0.0792  0.9518
   20MOL0     H 2688   7.295   4.485   3.100  1.9163 -1.2237  0.6018
   20MOL0     H 2689   7.243   4.404   3.250 -2.0255 -0.3034 -0.4176
   20MOL0     H 2690   7.433   4.650   3.241 -1.8299  0.4024 -1.5328
   20MOL0     H 2691   7.481   4.480   3.240 -1.3419 -1.4031 -0.7386
   20MOL0     H 2692   7.291   4.598   3.452 -0.0545  0.3358 -1.9922
   20MOL0     H 2693   7.467   4.608   3.481  1.3283 -0.9853  0.0611
   20MOL0     H 2694   7.307   4.347   3.449  0.5664 -1.5565  0.2588
   20MOL0     H 2695   7.489   4.360   3.443 -0.4349 -3.1200  2.9000
   20MOL0     H 2696   7.440   4.383   3.850 -2.5572 -0.1310  0.0686
   20MOL0     H 2697   7.034   4.361   3.207 -0.3449  0.9019  2.0591
   20MOL0     H 2698   6.905   4.237   3.121  1.0867  0.3558  0.3355
   20MOL0     H 2699   6.745   4.293   3.199 -1.5887  0.6327 -1.5448
   20MOL0     H 2700   6.759   4.274   3.032 -0.3059 -1.0025  1.0202
   21MOL0     O 2701   2.722   2.470   0.856 -0.0607 -0.3791 -0.2172
   21MOL0     C 2702   2.644   2.434   0.767  0.7097 -0.0852 -0.0144
   21MOL0     O 2703   2.659   2.457   0.632  0.4588 -0.2582 -0.2037
   21MOL0     C 2704   2.776   2.499   0.575 -0.7724 -0.5711 -0.2285
   21MOL0     C 2705   2.906   2.454   0.611  1.3654 -0.4006  0.1559
   21MOL0     C 2706   3.022   2.497   0.536  0.5392  0.3490  0.2782
   21MOL0     C 2707   3.013   2.591   0.429 -0.3580  0.1975 -0.4828
   21MOL0     O 2708   3.131   2.633   0.361 -0.0185  0.0007 -0.3699
   21MOL0     C 2709   3.246   2.646   0.445  0.3720 -0.2451  0.0736
   21MOL0     C 2710   3.231   2.762   0.557 -0.0730 -0.1783  0.1047
   21MOL0     C 2711   3.198   2.900   0.500 -0.5889  0.1438  0.3401
   21MOL0     C 2712   3.122   2.996   0.597  0.8825  0.2904 -0.2416
   21MOL0     C 2713   2.975   2.978   0.599 -0.3628  0.6027 -0.1053
   21MOL0     C 2714   2.912   3.094   0.668 -0.4794 -0.1421  0.3327
   21MOL0     C 2715   2.764   3.089   0.634  0.5654 -0.0777 -0.5932
   21MOL0     C 2716   2.702   3.213   0.691  0.1123  0.2833  0.2580
   21MOL0     N 2717   2.558   3.201   0.685  0.3129 -0.5002  0.0306
   21MOL0     C 2718   2.486   3.164   0.799  0.3344  0.6688  0.2443
   21MOL0     C 2719   2.357   3.176   0.761 -0.7607 -0.6134 -0.5615
   21MOL0     C 2720   2.228   3.140   0.831 -1.1919  0.1252  0.5124
   21MOL0     C 2721   2.247   3.057   0.952  0.1614 -0.2355 -0.0226
   21MOL0     C 2722   2.114   3.025   1.008  0.5505 -0.4810  0.0556
   21MOL0     C 2723   2.116   2.901   1.105  0.5020 -0.5845  0.8421
   21MOL0     O 2724   2.069   2.935   1.232 -0.2135 -0.0434 -0.0697
   21MOL0     C 2725   1.936   2.950   1.256 -0.4089 -0.0070 -0.4033
   21MOL0     C 2726   1.896   2.983   1.384  0.3714  0.8039 -0.0568
   21MOL0     C 2727   1.760   2.991   1.422 -0.5776  0.0606  0.1039
   21MOL0     C 2728   1.657   2.940   1.335  0.5385  1.0980 -0.1199
   21MOL0     C 2729   1.516   2.933   1.375  0.0525  0.7896 -0.0656
   21MOL0     O 2730   1.429   2.879   1.282 -0.1487  0.2360  0.1780
   21MOL0     C 2731   1.290   2.881   1.301 -0.0057 -0.8345  0.2794
   21MOL0     C 2732   1.221   2.826   1.410  1.4220 -0.2401 -0.1592
   21MOL0     C 2733   1.083   2.833   1.415 -0.2024 -0.3504 -0.3529
   21MOL0     C 2734   1.009   2.905   1.311  0.7415 -0.6644  0.2670
   21MOL0     O 2735   0.873   2.938   1.318 -0.0591 -0.2353 -0.2736
   21MOL0     C 2736   0.808   2.937   1.447  0.5392  0.3668  0.4228
   21MOL0     C 2737   0.675   3.003   1.418  0.0641  0.1803 -0.1074
   21MOL0     C 2738   0.584   3.018   1.539  0.1843 -0.7689 -0.2917
   21MOL0     C 2739   0.649   3.074   1.667  0.2866 -0.1724  0.1300
   21MOL0     C 2740   0.554   3.088   1.779  0.0554  0.0340  0.2755
   21MOL0     C 2741   0.599   3.190   1.891  0.3337  0.4611 -0.0484
   21MOL0     C 2742   0.737   3.128   1.952  0.1295  0.2048  1.0681
   21MOL0     C 2743   0.760   3.197   2.083  0.4168  0.5494 -0.2698
   21MOL0    Cl 2744   0.628   3.211   2.195 -0.1053  0.3685 -0.4307
   21MOL0     C 2745   1.088   2.955   1.203  0.8847  0.1639 -0.6692
   21MOL0     C 2746   1.222   2.933   1.192 -0.0019 -0.0636 -1.0977
   21MOL0     O 2747   1.486   2.972   1.485 -0.2469  0.2279 -0.6342
   21MOL0     C 2748   1.699   2.911   1.204 -0.1784  0.4320  0.2012
   21MOL0     C 2749   1.834   2.914   1.169  0.5727  0.5547 -0.3068
   21MOL0     N 2750   2.350   3.213   0.625 -0.3990  0.7125 -0.4126
   21MOL0     N 2751   2.476   3.247   0.588 -0.3384 -0.3919  0.1627
   21MOL0     C 2752   2.889   2.634   0.384 -0.2282  1.5220  0.0157
   21MOL0     C 2753   2.773   2.582   0.454 -0.0930 -0.1518 -0.4851
   21MOL0     C 2754   2.517   2.363   0.815  0.4053 -0.3683  0.1008
   21MOL0     C 2755   2.408   2.336   0.726  0.4200  0.4605  0.1790
   21MOL0     C 2756   2.284   2.272   0.762 -0.4542  0.2641  0.5077
   21MOL0     C 2757   2.263   2.244   0.896 -0.0880  0.0440  0.3755
   21MOL0     O 2758   2.143   2.208   0.958 -0.3149  0.8869  0.0409
   21MOL0     C 2759   2.026   2.197   0.875  1.0115 -0.2641 -0.0343
   21MOL0     C 2760   1.911   2.160   0.964 -0.9172 -0.6002 -0.3678
   21MOL0     C 2761   1.912   2.015   1.010  0.0199  0.3759  0.3914
   21MOL0     C 2762   1.820   1.998   1.131  0.1929 -0.1935  0.5185
   21MOL0     C 2763   1.813   1.853   1.157  0.5744  0.3229  0.0666
   21MOL0     C 2764   1.795   1.739   1.160  0.0211  0.3139  0.1972
   21MOL0     C 2765   2.373   2.256   0.980  0.3706 -0.5016 -0.0044
   21MOL0     C 2766   2.501   2.308   0.942  0.1174  0.2325 -0.7318
   21MOL0     C 2767   2.597   2.306   1.064 -0.2391 -1.2513 -0.2931
   21MOL0     H 2768   2.905   2.373   0.684 -1.6268 -1.3468 -0.7830
   21MOL0     H 2769   3.112   2.439   0.553  1.5249  1.5069 -0.8202
   21MOL0     H 2770   3.277   2.548   0.483 -0.6497 -0.5812  0.0742
   21MOL0     H 2771   3.323   2.672   0.372 -0.3519 -1.7178 -1.2785
   21MOL0     H 2772   3.323   2.767   0.617 -0.0034  0.0494 -0.0221
   21MOL0     H 2773   3.143   2.733   0.615 -1.4345  0.8962 -1.3412
   21MOL0     H 2774   3.139   2.894   0.408 -4.0623  0.2794  2.3732
   21MOL0     H 2775   3.300   2.926   0.469  0.7213 -5.5080 -1.1231
   21MOL0     H 2776   3.160   2.980   0.698  1.6517  0.3592 -0.5085
   21MOL0     H 2777   3.150   3.100   0.575  0.5612  0.2650 -0.8052
   21MOL0     H 2778   2.944   2.973   0.494  0.6381 -0.0003 -0.3818
   21MOL0     H 2779   2.939   2.887   0.646  1.4852 -0.9188 -1.4618
   21MOL0     H 2780   2.930   3.084   0.775 -0.2190 -0.5581  0.2537
   21MOL0     H 2781   2.961   3.187   0.636  1.6393 -1.2836  0.0950
   21MOL0     H 2782   2.720   2.996   0.672  0.3564  0.6149  0.9387
   21MOL0     H 2783   2.735   3.091   0.529  0.7657 -0.3455 -0.6538
   21MOL0     H 2784   2.725   3.226   0.797 -2.0979 -1.9969  1.1203
   21MOL0     H 2785   2.733   3.309   0.649 -0.0248 -0.1337 -0.8466
   21MOL0     H 2786   2.527   3.115   0.887 -1.1776 -2.3114 -0.5751
   21MOL0     H 2787   2.169   3.227   0.861  1.9153  3.6404 -2.4349
   21MOL0     H 2788   2.163   3.085   0.762 -0.9426  0.8731 -0.3372
   21MOL0     H 2789   2.302   2.965   0.930  2.1699  0.4157  1.8544
   21MOL0     H 2790   2.315   3.114   1.016  1.3062  0.8079 -2.0817
   21MOL0     H 2791   2.052   3.001   0.921 -0.9380  3.2072 -0.0706
   21MOL0     H 2792   2.072   3.113   1.057  0.9774 -1.4868  2.3360
   21MOL0     H 2793   2.217   2.861   1.118  1.1151  1.0503  1.4138
   21MOL0     H 2794   2.056   2.821   1.060  0.1418  0.0507  0.1713
   21MOL0     H 2795   1.969   3.007   1.461 -0.4898 -2.1648  1.8720
   21MOL0     H 2796   1.719   3.015   1.520 -0.2649  2.9700 -0.3785
   21MOL0     H 2797   1.276   2.783   1.492 -0.9129  1.7138  2.6635
   21MOL0     H 2798   1.020   2.788   1.491 -0.5893  0.2571 -0.3078
   21MOL0     H 2799   0.791   2.837   1.487 -0.1768  0.1658 -0.3545
   21MOL0     H 2800   0.853   3.005   1.519 -0.7046  3.7487 -1.7328
   21MOL0     H 2801   0.684   3.105   1.380 -0.4868 -0.5570 -2.3619
   21MOL0     H 2802   0.617   2.955   1.339  0.3128 -0.8977  0.3499
   21MOL0     H 2803   0.502   3.085   1.511  0.6809 -0.2513 -0.5161
   21MOL0     H 2804   0.540   2.920   1.564 -0.2986 -0.4158  0.2909
   21MOL0     H 2805   0.681   3.176   1.645  1.6957 -0.4691  0.6875
   21MOL0     H 2806   0.730   3.006   1.697 -0.4030 -0.1476  2.2101
   21MOL0     H 2807   0.539   2.993   1.831 -1.5134  1.1395  1.9924
   21MOL0     H 2808   0.451   3.100   1.745  0.4788  0.5954 -0.8831
   21MOL0     H 2809   0.627   3.282   1.840  0.7442  0.2707 -0.1702
   21MOL0     H 2810   0.527   3.209   1.971 -0.4794 -2.8903  0.1630
   21MOL0     H 2811   0.823   3.150   1.888 -0.4572 -0.6398 -0.0609
   21MOL0     H 2812   0.738   3.019   1.964  2.3595  0.1188  0.5038
   21MOL0     H 2813   0.839   3.140   2.133  0.4818  0.2679 -0.6930
   21MOL0     H 2814   0.805   3.293   2.054  0.5941 -0.4776 -3.8782
   21MOL0     H 2815   1.030   2.996   1.121  0.5301  2.0829  0.4958
   21MOL0     H 2816   1.281   2.973   1.110  1.3308  1.8506  0.6835
   21MOL0     H 2817   1.627   2.875   1.131 -0.0848 -2.0847  1.2675
   21MOL0     H 2818   1.865   2.887   1.069 -0.4477 -1.8905 -0.0180
   21MOL0     H 2819   2.893   2.680   0.286 -1.7541 -0.8340 -1.2398
   21MOL0     H 2820   2.671   2.607   0.428 -0.0012 -1.1324 -1.9130
   21MOL0     H 2821   2.427   2.357   0.621 -0.4321  1.7850  0.2616
   21MOL0     H 2822   2.201   2.257   0.692 -0.9980 -1.4950  1.4833
   21MOL0     H 2823   2.032   2.120   0.798  1.1533  0.9537 -1.2958
   21MOL0     H 2824   2.011   2.293   0.824  4.3344 -0.0556 -0.8402
   21MOL0     H 2825   1.819   2.179   0.908 -0.9014  0.2793 -0.1188
   21MOL0     H 2826   1.914   2.234   1.044  0.5088  1.3063 -2.0528
   21MOL0     H 2827   2.015   2.003   1.045 -0.8505 -0.0700  3.0618
   21MOL0     H 2828   1.877   1.948   0.931  1.2496 -0.6680  0.6983
   21MOL0     H 2829   1.853   2.061   1.214  2.8581  0.8011 -1.1783
   21MOL0     H 2830   1.721   2.035   1.103 -0.4906 -1.2209  1.4994
   21MOL0     H 2831   1.777   1.634   1.174 -3.2761  0.8825  0.9725
   21MOL0     H 2832   2.354   2.226   1.083  1.2596 -0.2422  0.2409
   21MOL0     H 2833   2.567   2.228   1.135  0.9520 -1.6781 -0.2256
   21MOL0     H 2834   2.694   2.281   1.019 -0.7249 -1.6383 -1.1488
   21MOL0     H 2835   2.593   2.399   1.121 -0.5924 -1.0415 -0.6637
   22MOL0     O 2836   6.338   9.106   8.928 -0.1593  0.3239 -0.2247
   22MOL0     C 2837   6.274   9.209   8.906  0.1574  0.6735 -1.0099
   22MOL0     O 2838   6.278   9.279   8.789  0.5966  0.1568  0.4053
   22MOL0     C 2839   6.337   9.212   8.678  0.4516 -1.3474 -0.9966
   22MOL0     C 2840   6.471   9.241   8.629 -0.0800 -0.4401 -0.6032
   22MOL0     C 2841   6.523   9.161   8.533  0.2186 -0.3825 -0.0872
   22MOL0     C 2842   6.458   9.049   8.476  0.7373 -0.0744  0.2984
   22MOL0     O 2843   6.530   8.964   8.396 -0.8096 -0.3697 -0.2924
   22MOL0     C 2844   6.470   8.831   8.365 -0.1124 -0.2559  0.3613
   22MOL0     C 2845   6.580   8.760   8.285  0.0082 -0.6697 -0.0285
   22MOL0     C 2846   6.608   8.834   8.147 -0.1680  0.0418  0.3322
   22MOL0     C 2847   6.663   8.740   8.043 -0.6975 -0.2872 -1.0838
   22MOL0     C 2848   6.792   8.673   8.085  0.3577  0.3280  0.1356
   22MOL0     C 2849   6.912   8.768   8.092  0.1447 -0.3270  0.2239
   22MOL0     C 2850   7.031   8.684   8.151  0.3527  0.4596  0.4756
   22MOL0     C 2851   7.034   8.628   8.295 -0.7246 -0.6586 -0.2662
   22MOL0     N 2852   7.174   8.600   8.329 -0.2148  0.3189 -0.7751
   22MOL0     C 2853   7.251   8.499   8.285  0.4637 -0.0330 -0.0703
   22MOL0     C 2854   7.376   8.539   8.325 -0.7672 -0.1438  0.9764
   22MOL0     C 2855   7.513   8.478   8.289 -0.3048 -0.7809 -0.6642
   22MOL0     C 2856   7.623   8.572   8.330 -0.8608  0.2218 -0.8378
   22MOL0     C 2857   7.766   8.512   8.304 -0.1841 -0.5600 -0.4874
   22MOL0     C 2858   7.891   8.551   8.390 -0.2135 -0.2042 -0.1675
   22MOL0     O 2859   7.891   8.694   8.407  0.1305 -0.4990  1.1899
   22MOL0     C 2860   8.009   8.750   8.458 -0.1568 -1.1081 -0.3855
   22MOL0     C 2861   8.116   8.683   8.524  0.3626 -0.3331 -0.0847
   22MOL0     C 2862   8.236   8.747   8.558  0.0239  0.3107 -0.4648
   22MOL0     C 2863   8.259   8.882   8.521  0.2712 -0.6811 -0.3862
   22MOL0     C 2864   8.395   8.941   8.542 -0.0367 -0.1937 -0.3566
   22MOL0     O 2865   8.493   8.861   8.588 -0.2502  0.1292 -0.2184
   22MOL0     C 2866   8.620   8.904   8.610  0.2678 -0.1452 -0.3251
   22MOL0     C 2867   8.684   9.009   8.548  0.3515 -1.4142  0.2623
   22MOL0     C 2868   8.818   9.039   8.573 -0.4210 -0.2236 -0.6062
   22MOL0     C 2869   8.901   8.950   8.633 -0.1910  0.3962  0.4195
   22MOL0     O 2870   9.039   8.962   8.633  0.0644  0.1261  0.3620
   22MOL0     C 2871   9.106   8.937   8.512  0.7055 -0.5400 -0.7339
   22MOL0     C 2872   9.250   8.982   8.535 -0.1745  0.2908  0.5182
   22MOL0     C 2873   9.320   9.016   8.400  0.7829 -0.1580  0.2053
   22MOL0     C 2874   9.322   9.167   8.376  0.7112 -0.2110  1.1357
   22MOL0     C 2875   9.402   9.207   8.251  0.3479  0.4125 -0.6103
   22MOL0     C 2876   9.331   9.151   8.124 -0.4852 -0.2279  0.2950
   22MOL0     C 2877   9.333   9.258   8.008  0.2863 -0.1486  0.1345
   22MOL0     C 2878   9.267   9.215   7.877 -0.2837  0.6529  0.7746
   22MOL0    Cl 2879   9.339   9.312   7.745  0.1953  0.1184  0.0189
   22MOL0     C 2880   8.843   8.843   8.694 -0.0205  0.3460  0.2718
   22MOL0     C 2881   8.708   8.819   8.680 -0.4649  0.0890  0.1718
   22MOL0     O 2882   8.402   9.061   8.522  0.9285 -0.0439 -0.7855
   22MOL0     C 2883   8.157   8.952   8.448 -0.5229 -0.7983 -0.1926
   22MOL0     C 2884   8.028   8.890   8.419  0.4853  0.2851 -0.0807
   22MOL0     N 2885   7.361   8.660   8.390 -0.7467 -0.1081  0.4882
   22MOL0     N 2886   7.242   8.700   8.397  0.0198 -0.1214  0.8818
   22MOL0     C 2887   6.327   9.026   8.521  0.0879  0.2826  0.2101
   22MOL0     C 2888   6.272   9.113   8.616 -0.0982 -0.0911 -0.5547
   22MOL0     C 2889   6.200   9.272   9.020  0.2341  1.0903  0.0396
   22MOL0     C 2890   6.145   9.399   8.993 -0.3860  0.8788 -0.4147
   22MOL0     C 2891   6.091   9.480   9.091  1.5866 -0.5645  0.1698
   22MOL0     C 2892   6.071   9.436   9.218  0.1395 -0.3218 -0.5932
   22MOL0     O 2893   6.009   9.504   9.324  0.8382 -0.3245 -0.3679
   22MOL0     C 2894   5.956   9.630   9.287 -0.3081  1.2022  0.3718
   22MOL0     C 2895   5.913   9.675   9.433 -0.4069  0.7236  0.6035
   22MOL0     C 2896   5.824   9.798   9.422 -0.5577  0.4577 -0.1546
   22MOL0     C 2897   5.753   9.845   9.548  0.5390 -0.6706  0.3153
   22MOL0     C 2898   5.650   9.755   9.590  0.0676  0.2206  0.3867
   22MOL0     C 2899   5.549   9.687   9.615  0.6159  0.6325  1.5795
   22MOL0     C 2900   6.120   9.309   9.246  0.0643  1.1906  0.4974
   22MOL0     C 2901   6.185   9.221   9.152  0.4954  1.1678 -0.3924
   22MOL0     C 2902   6.243   9.089   9.202  0.1359  0.4787 -0.1222
   22MOL0     H 2903   6.533   9.316   8.676  1.0189  1.4141 -4.5451
   22MOL0     H 2904   6.630   9.171   8.515  0.4313  0.0803  1.3178
   22MOL0     H 2905   6.442   8.769   8.451 -0.9359 -1.0034 -0.4308
   22MOL0     H 2906   6.377   8.854   8.312 -0.8245  2.1302  2.4441
   22MOL0     H 2907   6.535   8.661   8.275  0.9293 -1.0028 -1.1130
   22MOL0     H 2908   6.676   8.752   8.336  0.1930  0.4335 -0.1833
   22MOL0     H 2909   6.668   8.924   8.160 -1.3844  0.9225 -0.0331
   22MOL0     H 2910   6.510   8.858   8.104 -0.3285  0.1958  0.7725
   22MOL0     H 2911   6.583   8.666   8.029 -0.8982  0.1488 -2.3307
   22MOL0     H 2912   6.674   8.794   7.949 -1.6837  2.7986  0.4442
   22MOL0     H 2913   6.789   8.620   8.180 -0.0722 -0.3707 -0.2633
   22MOL0     H 2914   6.803   8.595   8.009 -0.0311  0.2792  0.1267
   22MOL0     H 2915   6.920   8.800   7.987 -2.1538 -1.2400 -0.2969
   22MOL0     H 2916   6.888   8.859   8.149 -3.0042 -0.3034 -0.8943
   22MOL0     H 2917   7.108   8.761   8.145  1.4719 -0.3836  2.7976
   22MOL0     H 2918   7.063   8.611   8.076  0.0079 -2.1783  2.7375
   22MOL0     H 2919   6.996   8.698   8.370  5.6767  1.1489  1.9803
   22MOL0     H 2920   6.980   8.532   8.301 -0.8821 -0.5191  0.7695
   22MOL0     H 2921   7.206   8.419   8.228  0.0440  1.6365 -2.2329
   22MOL0     H 2922   7.523   8.383   8.342 -1.7644 -0.4513  0.2645
   22MOL0     H 2923   7.516   8.472   8.180 -4.9326  0.3423 -1.0619
   22MOL0     H 2924   7.622   8.670   8.282  0.4923  0.1503 -1.0707
   22MOL0     H 2925   7.606   8.577   8.438 -0.9009  1.0579 -0.8822
   22MOL0     H 2926   7.793   8.526   8.199 -3.1591  0.6614 -1.2189
   22MOL0     H 2927   7.756   8.405   8.320  0.2938 -0.4117  0.9153
   22MOL0     H 2928   7.986   8.521   8.345 -0.7283  1.9186 -2.9715
   22MOL0     H 2929   7.871   8.517   8.492 -0.2244 -1.8404 -0.6797
   22MOL0     H 2930   8.092   8.580   8.550 -4.0884 -0.3147 -3.0257
   22MOL0     H 2931   8.305   8.689   8.618  0.0302  0.9275  0.1254
   22MOL0     H 2932   8.633   9.082   8.487  1.1339  1.1870  2.4974
   22MOL0     H 2933   8.870   9.130   8.541 -1.1754  1.3331  2.2325
   22MOL0     H 2934   9.108   8.831   8.486 -0.4538 -0.6707 -0.3219
   22MOL0     H 2935   9.058   8.991   8.429 -1.4860  0.4063  1.0557
   22MOL0     H 2936   9.246   9.070   8.600  1.7580 -0.4112  1.6869
   22MOL0     H 2937   9.308   8.899   8.577  0.6486  0.3261 -0.5130
   22MOL0     H 2938   9.423   8.984   8.384  0.3706 -3.1378  2.5805
   22MOL0     H 2939   9.262   8.969   8.320 -0.4169 -0.7546  1.3737
   22MOL0     H 2940   9.372   9.217   8.459  0.9966 -0.2581  0.9920
   22MOL0     H 2941   9.218   9.194   8.357  0.8324 -1.4859 -2.0268
   22MOL0     H 2942   9.503   9.164   8.258  0.1652 -0.0648 -0.8250
   22MOL0     H 2943   9.412   9.315   8.239 -0.9416  0.6917  0.6117
   22MOL0     H 2944   9.392   9.065   8.093 -1.0628 -0.3536 -0.5168
   22MOL0     H 2945   9.232   9.112   8.147 -0.0391 -0.0144  2.8298
   22MOL0     H 2946   9.437   9.278   7.979 -0.9375  3.4309 -2.4902
   22MOL0     H 2947   9.290   9.351   8.046 -1.2084 -0.5836 -0.4179
   22MOL0     H 2948   9.291   9.110   7.863 -1.0723  0.4281  1.0538
   22MOL0     H 2949   9.158   9.213   7.885 -0.5753 -2.0409 -2.0733
   22MOL0     H 2950   8.906   8.780   8.755 -0.9569  0.9778  1.9711
   22MOL0     H 2951   8.675   8.722   8.716 -0.2261  0.7367  2.2289
   22MOL0     H 2952   8.183   9.054   8.426  0.0251 -0.7378  0.6898
   22MOL0     H 2953   7.939   8.933   8.373 -1.8184 -1.0222  2.8515
   22MOL0     H 2954   6.259   8.949   8.485  1.9770 -1.4703  0.1743
   22MOL0     H 2955   6.174   9.091   8.655  0.5167 -1.3098  0.3506
   22MOL0     H 2956   6.159   9.443   8.895 -0.8949  1.5896 -0.1837
   22MOL0     H 2957   6.057   9.579   9.061  1.9068 -0.8925 -1.3124
   22MOL0     H 2958   5.869   9.621   9.221  1.1020 -1.7489 -1.2734
   22MOL0     H 2959   6.034   9.696   9.249  0.4956 -0.2939 -0.6793
   22MOL0     H 2960   6.009   9.689   9.483  0.3601  2.7677 -1.2703
   22MOL0     H 2961   5.847   9.605   9.486 -0.0519  0.2967  0.4842
   22MOL0     H 2962   5.745   9.766   9.354 -0.2651 -1.9112  0.5584
   22MOL0     H 2963   5.886   9.874   9.373  0.6245  0.0047  0.5949
   22MOL0     H 2964   5.822   9.857   9.632  1.0791  0.6697 -0.2947
   22MOL0     H 2965   5.699   9.939   9.536  0.4398 -0.9455 -1.7093
   22MOL0     H 2966   5.460   9.629   9.631 -0.4886  1.6384 -0.4736
   22MOL0     H 2967   6.119   9.271   9.347  0.0928 -1.1092 -0.3101
   22MOL0     H 2968   6.206   9.003   9.145 -1.3207  0.8072  0.3014
   22MOL0     H 2969   6.352   9.082   9.194  0.0340 -0.0273 -1.1710
   22MOL0     H 2970   6.212   9.074   9.306  2.0049 -0.7513  0.3048
   23MOL0     O 2971   8.155   7.504   5.247  0.1168  0.4208  0.0313
   23MOL0     C 2972   8.038   7.471   5.264  0.1724  0.6658  0.4739
   23MOL0     O 2973   7.931   7.550   5.304 -0.1041 -0.8403 -0.9192
   23MOL0     C 2974   7.958   7.691   5.305 -0.1709  0.6069 -0.6586
   23MOL0     C 2975   7.909   7.772   5.200  0.1028 -0.0941  0.2782
   23MOL0     C 2976   7.939   7.912   5.189  0.5358 -0.1609 -0.6827
   23MOL0     C 2977   8.021   7.972   5.283 -0.2597 -0.4259 -0.2013
   23MOL0     O 2978   8.049   8.100   5.280 -0.2699 -0.8315 -0.5025
   23MOL0     C 2979   8.183   8.144   5.318 -0.1449  0.5357  0.4538
   23MOL0     C 2980   8.217   8.264   5.237 -0.1306  0.1232 -0.9998
   23MOL0     C 2981   8.362   8.309   5.241 -0.2545  0.7217 -0.3097
   23MOL0     C 2982   8.394   8.457   5.230 -0.0609 -1.1144  0.4497
   23MOL0     C 2983   8.550   8.472   5.221 -0.7287 -1.0933 -0.6200
   23MOL0     C 2984   8.598   8.622   5.228  0.3216 -0.3615 -0.7615
   23MOL0     C 2985   8.742   8.639   5.185  0.2073 -0.0018  0.0633
   23MOL0     C 2986   8.780   8.788   5.141  0.0992 -0.4130 -0.1329
   23MOL0     N 2987   8.839   8.873   5.241  0.4571  0.1498 -0.0831
   23MOL0     C 2988   8.771   8.941   5.343  1.1453  0.2212  0.7616
   23MOL0     C 2989   8.868   9.018   5.406  0.1373  0.3322  0.5021
   23MOL0     C 2990   8.842   9.114   5.521  0.4453 -0.5590  0.7790
   23MOL0     C 2991   8.850   9.259   5.457 -0.1244  0.5068  0.3305
   23MOL0     C 2992   8.995   9.303   5.437  0.1794  0.3118  0.0504
   23MOL0     C 2993   9.007   9.445   5.391  0.3027  0.3102 -0.1675
   23MOL0     O 2994   9.137   9.486   5.342 -0.0972  0.3949  0.0154
   23MOL0     C 2995   9.220   9.549   5.426  0.1651  0.0299  0.2834
   23MOL0     C 2996   9.328   9.616   5.371 -0.4379  0.1700  0.7591
   23MOL0     C 2997   9.423   9.685   5.445  0.0248  0.1703 -0.5816
   23MOL0     C 2998   9.416   9.693   5.579 -0.2418 -0.0453  0.4344
   23MOL0     C 2999   9.528   9.749   5.660  0.2879 -0.7634 -0.3784
   23MOL0     O 3000   9.527   9.731   5.795  0.0658  0.0614  0.1013
   23MOL0     C 3001   9.637   9.753   5.867  0.3197 -0.1226  0.0484
   23MOL0     C 3002   9.685   9.644   5.932  0.0166  0.8642 -1.5291
   23MOL0     C 3003   9.810   9.655   5.996 -0.6895 -0.1434 -0.5936
   23MOL0     C 3004   9.870   9.781   6.022  0.2322 -0.2411  0.9917
   23MOL0     O 3005   9.990   9.778   6.078  0.4438  0.1059  0.2799
   23MOL0     C 3006  10.054   9.908   6.104 -0.1407  0.8765 -0.3147
   23MOL0     C 3007  10.196   9.892   6.167  0.3775  0.4531  0.0987
   23MOL0     C 3008  10.251  10.024   6.215  0.8280 -0.2325  0.7471
   23MOL0     C 3009  10.393   9.994   6.261  0.1202  0.6593  0.5159
   23MOL0     C 3010  10.483  10.124   6.289  0.7587  0.2363 -0.3277
   23MOL0     C 3011  10.609  10.074   6.359  0.2652  0.9562  0.1397
   23MOL0     C 3012  10.701  10.193   6.384  0.1416 -0.3557 -0.9789
   23MOL0     C 3013  10.836  10.138   6.424 -0.6969  0.3157  0.0077
   23MOL0    Cl 3014  10.838  10.054   6.580 -0.0798  0.1218 -0.1140
   23MOL0     C 3015   9.806   9.891   5.966  0.5876 -0.0281 -0.0371
   23MOL0     C 3016   9.682   9.880   5.891  0.4232  0.3648  0.1248
   23MOL0     O 3017   9.620   9.804   5.601  0.3826  0.1990  0.2940
   23MOL0     C 3018   9.301   9.636   5.639  0.2236 -0.7237  0.4314
   23MOL0     C 3019   9.209   9.569   5.567  0.5148  0.2341  0.5363
   23MOL0     N 3020   8.989   8.980   5.344 -0.4941 -0.3398 -0.0180
   23MOL0     N 3021   8.978   8.889   5.251  0.5229  0.2142  0.6888
   23MOL0     C 3022   8.085   7.891   5.382  0.6830 -0.3748 -0.3434
   23MOL0     C 3023   8.055   7.755   5.388 -1.0146 -0.3992  0.2481
   23MOL0     C 3024   8.009   7.325   5.247  0.7532  0.1415 -1.4276
   23MOL0     C 3025   7.916   7.300   5.153  0.3187 -0.1400  0.2010
   23MOL0     C 3026   7.858   7.177   5.137  0.7202 -0.3137 -0.0664
   23MOL0     C 3027   7.896   7.069   5.216 -0.8676 -0.0551 -0.3207
   23MOL0     O 3028   7.831   6.951   5.191 -0.4005  0.6307  0.3228
   23MOL0     C 3029   7.835   6.862   5.302 -0.0248 -0.2698 -0.5844
   23MOL0     C 3030   7.755   6.739   5.277 -0.0180  0.9442  1.0251
   23MOL0     C 3031   7.603   6.772   5.279  0.3938 -0.6605 -0.3903
   23MOL0     C 3032   7.503   6.664   5.223  0.5367 -0.3521  0.3189
   23MOL0     C 3033   7.529   6.650   5.082 -0.8575  0.8196  0.5350
   23MOL0     C 3034   7.545   6.653   4.961 -0.4936 -1.3357  0.3106
   23MOL0     C 3035   7.992   7.097   5.311 -0.0390  0.9087  0.1257
   23MOL0     C 3036   8.053   7.225   5.331 -0.7836 -0.3156 -0.3717
   23MOL0     C 3037   8.155   7.260   5.437 -0.8049 -0.7025  0.4835
   23MOL0     H 3038   7.847   7.718   5.129  0.6449 -0.3036 -0.0469
   23MOL0     H 3039   7.910   7.979   5.109 -0.7905  0.3788  0.2230
   23MOL0     H 3040   8.204   8.160   5.424  2.5616 -0.5406  0.1572
   23MOL0     H 3041   8.259   8.068   5.300 -0.9625 -1.0081  2.9399
   23MOL0     H 3042   8.161   8.352   5.270 -1.0092 -0.4546 -0.8994
   23MOL0     H 3043   8.190   8.252   5.131 -0.1773  0.5994 -1.0445
   23MOL0     H 3044   8.420   8.249   5.171  0.6597 -1.5610  2.2367
   23MOL0     H 3045   8.401   8.291   5.342  1.8839  1.6967 -0.8939
   23MOL0     H 3046   8.335   8.501   5.149 -1.4140  1.2074  2.5735
   23MOL0     H 3047   8.369   8.510   5.322  1.9732 -0.5526  0.7217
   23MOL0     H 3048   8.598   8.425   5.307  1.4597  1.8055 -0.0694
   23MOL0     H 3049   8.594   8.434   5.128  2.9369  1.7524 -0.3014
   23MOL0     H 3050   8.533   8.680   5.161  0.8311  1.4379  0.2399
   23MOL0     H 3051   8.597   8.650   5.334  0.6330 -3.0981  0.0207
   23MOL0     H 3052   8.754   8.583   5.092  0.8676  1.9021 -1.0484
   23MOL0     H 3053   8.800   8.598   5.268  0.5622  1.3191  0.4913
   23MOL0     H 3054   8.846   8.789   5.054 -0.6203  1.5061 -0.7135
   23MOL0     H 3055   8.692   8.834   5.095 -0.1288  0.4000  1.0693
   23MOL0     H 3056   8.665   8.944   5.366  1.2166  1.9283  0.9697
   23MOL0     H 3057   8.739   9.091   5.549  0.6336 -0.1331  1.8581
   23MOL0     H 3058   8.907   9.097   5.607 -0.0585  0.5589  1.4015
   23MOL0     H 3059   8.793   9.261   5.364 -0.0463 -1.4414  0.1892
   23MOL0     H 3060   8.789   9.323   5.521  0.0139 -1.5048  2.6475
   23MOL0     H 3061   9.052   9.240   5.368  0.0787 -3.6276  3.1953
   23MOL0     H 3062   9.030   9.279   5.538 -0.3524 -2.4476 -0.3362
   23MOL0     H 3063   8.982   9.516   5.471  1.5933 -2.3612  2.7938
   23MOL0     H 3064   8.942   9.452   5.303 -0.7430 -0.9011  0.4675
   23MOL0     H 3065   9.328   9.620   5.263  2.0311  0.9016  0.7219
   23MOL0     H 3066   9.513   9.736   5.413 -0.1087 -0.7266 -2.5612
   23MOL0     H 3067   9.629   9.552   5.923  1.4068 -0.4635  1.6556
   23MOL0     H 3068   9.852   9.565   6.040 -0.0788  0.9435  1.1619
   23MOL0     H 3069  10.071   9.966   6.013 -0.1528  1.9218  0.3286
   23MOL0     H 3070   9.989   9.966   6.170 -1.3869  0.2982 -0.9941
   23MOL0     H 3071  10.206   9.824   6.251  0.2459 -1.2383 -1.2088
   23MOL0     H 3072  10.254   9.850   6.085  0.8091 -0.6650  0.9588
   23MOL0     H 3073  10.249  10.095   6.131  0.2427 -0.2850  0.7089
   23MOL0     H 3074  10.191  10.079   6.289  1.7821  0.2676  1.1791
   23MOL0     H 3075  10.439   9.942   6.177 -2.6969  3.0543 -2.7643
   23MOL0     H 3076  10.388   9.931   6.350 -0.5745  0.8597  0.6262
   23MOL0     H 3077  10.433  10.198   6.352  2.0678  0.1853  0.8149
   23MOL0     H 3078  10.512  10.164   6.192  0.2491  0.6031 -0.3335
   23MOL0     H 3079  10.584  10.025   6.454 -2.0820 -0.4787 -1.1043
   23MOL0     H 3080  10.658  10.000   6.295 -0.8021  0.5414 -0.2380
   23MOL0     H 3081  10.672  10.254   6.470  0.6788 -3.1657  1.3647
   23MOL0     H 3082  10.708  10.257   6.296 -4.3548  2.1289  0.1515
   23MOL0     H 3083  10.887  10.076   6.350 -1.0459 -0.2589  0.2407
   23MOL0     H 3084  10.900  10.226   6.435  1.1689 -0.9995  0.0786
   23MOL0     H 3085   9.845   9.991   5.983  0.3032  0.4590 -2.0348
   23MOL0     H 3086   9.636   9.967   5.846  0.5766  0.2128 -0.3253
   23MOL0     H 3087   9.280   9.639   5.745 -2.7985 -2.3897 -0.0250
   23MOL0     H 3088   9.125   9.524   5.619 -2.1698  3.5486 -0.5634
   23MOL0     H 3089   8.162   7.926   5.450  1.7010 -2.4654 -0.3483
   23MOL0     H 3090   8.120   7.694   5.450  0.8507  0.2594 -0.9637
   23MOL0     H 3091   7.905   7.382   5.082 -1.2950  0.9711  1.6638
   23MOL0     H 3092   7.780   7.158   5.064 -0.4945  2.2279  0.4541
   23MOL0     H 3093   7.807   6.910   5.396  2.3538  0.4432 -0.1862
   23MOL0     H 3094   7.938   6.830   5.319  0.4080  1.2315 -0.1707
   23MOL0     H 3095   7.764   6.660   5.353 -1.3677  1.5264  1.8071
   23MOL0     H 3096   7.792   6.694   5.184 -0.7785 -1.1233  1.6620
   23MOL0     H 3097   7.593   6.867   5.226  1.3503 -0.5779 -0.4314
   23MOL0     H 3098   7.583   6.796   5.384  2.5454 -2.7746  0.5715
   23MOL0     H 3099   7.522   6.565   5.267 -0.4963 -1.7084 -2.0564
   23MOL0     H 3100   7.397   6.692   5.229 -0.0076 -2.2912  0.5080
   23MOL0     H 3101   7.544   6.655   4.854  1.4062 -0.6417  0.2765
   23MOL0     H 3102   8.035   7.020   5.374 -0.7490  0.4334  0.0398
   23MOL0     H 3103   8.123   7.336   5.509 -2.8520  0.5099 -1.5663
   23MOL0     H 3104   8.179   7.173   5.499  1.2504 -1.0483 -0.6896
   23MOL0     H 3105   8.245   7.288   5.380 -0.0585  1.0113  2.3667
   24MOL0     O 3106   6.537   6.417  10.119 -0.0858  0.3299  0.6681
   24MOL0     C 3107   6.459   6.459  10.035 -0.2434 -0.7320  0.3377
   24MOL0     O 3108   6.480   6.577   9.972 -0.3217 -0.2839 -0.3389
   24MOL0     C 3109   6.570   6.669  10.006 -1.0148 -0.3170  0.5563
   24MOL0     C 3110   6.602   6.768   9.911 -0.7775 -0.4150 -0.0712
   24MOL0     C 3111   6.686   6.870   9.945  0.2468  0.2790  0.4704
   24MOL0     C 3112   6.759   6.863  10.062  0.2543 -0.7353  0.3262
   24MOL0     O 3113   6.847   6.957  10.111  0.2287 -0.5726  0.7557
   24MOL0     C 3114   6.902   7.045  10.011  0.1581  0.4236 -0.1475
   24MOL0     C 3115   7.011   7.136  10.068 -0.8667 -0.3481  0.6103
   24MOL0     C 3116   6.980   7.210  10.202  0.4189 -0.4149 -0.1452
   24MOL0     C 3117   7.101   7.303  10.226  0.0680 -0.2533  0.0075
   24MOL0     C 3118   7.089   7.398  10.346 -0.1999 -0.3992 -0.2254
   24MOL0     C 3119   7.039   7.332  10.473 -0.4913 -0.8292 -0.1635
   24MOL0     C 3120   7.035   7.436  10.589 -0.2712 -0.2667  0.5561
   24MOL0     C 3121   7.176   7.493  10.627 -0.4018  0.4884  0.2850
   24MOL0     N 3122   7.175   7.510  10.774 -0.1837  0.1837 -0.5754
   24MOL0     C 3123   7.239   7.616  10.840  0.7293  0.4736  0.0256
   24MOL0     C 3124   7.252   7.580  10.968  0.2112  0.1038 -0.6094
   24MOL0     C 3125   7.317   7.667  11.075  0.7274  0.0769  0.9868
   24MOL0     C 3126   7.467   7.637  11.097  0.3152  0.3690  0.0696
   24MOL0     C 3127   7.495   7.693  11.241 -0.3637 -0.1740 -0.2838
   24MOL0     C 3128   7.642   7.657  11.279 -0.8953 -0.0453  0.0833
   24MOL0     O 3129   7.727   7.757  11.221 -0.4254  0.4332 -0.2524
   24MOL0     C 3130   7.861   7.740  11.243  0.0561 -0.0356 -0.4883
   24MOL0     C 3131   7.933   7.858  11.219 -0.6812 -0.4221 -0.0379
   24MOL0     C 3132   8.074   7.860  11.224 -0.4801 -0.9451 -0.7048
   24MOL0     C 3133   8.141   7.742  11.274  0.1332  0.7886  0.8404
   24MOL0     C 3134   8.288   7.739  11.302  0.0328 -0.4882 -0.4261
   24MOL0     O 3135   8.338   7.614  11.317  0.1619 -0.4451 -0.5989
   24MOL0     C 3136   8.478   7.601  11.337  0.7538 -0.6534  0.1393
   24MOL0     C 3137   8.571   7.656  11.252  1.4933  0.4447  0.3423
   24MOL0     C 3138   8.711   7.639  11.277  0.9299  0.2024  0.6384
   24MOL0     C 3139   8.751   7.570  11.396 -0.0035  0.9003  0.6123
   24MOL0     O 3140   8.880   7.549  11.417 -0.3874 -0.1220  0.1707
   24MOL0     C 3141   8.988   7.606  11.336 -0.2421  0.7483 -0.3889
   24MOL0     C 3142   9.118   7.539  11.386 -0.3985  0.3519 -0.1950
   24MOL0     C 3143   9.245   7.564  11.298  0.2017  0.1905 -0.1674
   24MOL0     C 3144   9.257   7.709  11.243  0.2065 -0.8337  0.4990
   24MOL0     C 3145   9.384   7.719  11.149 -0.4826 -0.1922  0.4710
   24MOL0     C 3146   9.519   7.713  11.225  0.0710 -0.0088  0.8115
   24MOL0     C 3147   9.626   7.791  11.151 -0.0194 -1.2663  0.0613
   24MOL0     C 3148   9.655   7.756  11.005 -0.3137  0.0328  0.0738
   24MOL0    Cl 3149   9.828   7.811  10.976 -0.7051  0.5171 -0.2584
   24MOL0     C 3150   8.657   7.506  11.474 -0.0026 -0.3175  0.4097
   24MOL0     C 3151   8.522   7.527  11.443  0.4753 -0.0574 -0.2517
   24MOL0     O 3152   8.355   7.842  11.291 -0.2424 -1.0542 -0.3680
   24MOL0     C 3153   8.064   7.619  11.293 -0.7473 -0.3795  0.0990
   24MOL0     C 3154   7.928   7.621  11.275  0.0481 -0.5494  0.3510
   24MOL0     N 3155   7.176   7.463  10.989 -0.1592 -0.1923  0.2990
   24MOL0     N 3156   7.148   7.421  10.869  0.3711  0.4118  0.0187
   24MOL0     C 3157   6.722   6.769  10.157 -0.0796  0.4944 -0.0499
   24MOL0     C 3158   6.628   6.675  10.131  0.2642 -0.3251 -0.2883
   24MOL0     C 3159   6.343   6.384   9.996  0.7538 -0.2165 -1.0405
   24MOL0     C 3160   6.244   6.456   9.928  0.3978  0.0564  0.1695
   24MOL0     C 3161   6.128   6.391   9.893 -0.5261 -0.4711 -0.0108
   24MOL0     C 3162   6.105   6.257   9.919 -0.3803 -0.3010 -0.0098
   24MOL0     O 3163   5.998   6.184   9.886  0.0238  0.3164  0.0292
   24MOL0     C 3164   5.896   6.257   9.820 -0.2878 -0.0174 -1.0984
   24MOL0     C 3165   5.795   6.144   9.785 -0.0974 -0.2790  0.8816
   24MOL0     C 3166   5.669   6.206   9.730  1.2812  0.4346  0.5012
   24MOL0     C 3167   5.588   6.089   9.681  0.0076  0.1404 -0.5506
   24MOL0     C 3168   5.510   6.037   9.797  0.3524  0.6023  0.7509
   24MOL0     C 3169   5.435   6.005   9.884 -0.6337 -0.4020 -0.1339
   24MOL0     C 3170   6.204   6.188   9.986  0.4974  0.2715 -0.1878
   24MOL0     C 3171   6.323   6.244  10.025 -1.2881 -0.1785  0.6419
   24MOL0     C 3172   6.418   6.156  10.098  0.4001  0.0632  0.3081
   24MOL0     H 3173   6.553   6.775   9.814 -1.5934  1.9372  0.4463
   24MOL0     H 3174   6.716   6.949   9.877  0.3634  0.6194  0.9188
   24MOL0     H 3175   6.933   6.988   9.923 -2.0150  0.8700 -1.2760
   24MOL0     H 3176   6.825   7.112   9.973 -1.0487 -1.3383 -0.9375
   24MOL0     H 3177   7.031   7.211   9.991 -0.9377 -0.4818  0.4617
   24MOL0     H 3178   7.096   7.070  10.087 -2.0619 -1.9583  0.5109
   24MOL0     H 3179   6.962   7.137  10.281 -0.4363 -1.7699 -1.5278
   24MOL0     H 3180   6.889   7.271  10.203 -0.3600 -1.5696  0.4014
   24MOL0     H 3181   7.183   7.238  10.258  0.8040  1.6641  2.2398
   24MOL0     H 3182   7.136   7.352  10.135 -1.4310 -2.5532 -1.9417
   24MOL0     H 3183   7.176   7.462  10.362 -0.2382  0.2427 -2.2291
   24MOL0     H 3184   7.021   7.479  10.319  0.8497  0.5194 -0.1814
   24MOL0     H 3185   6.940   7.290  10.453  0.7067 -3.1815 -1.5647
   24MOL0     H 3186   7.093   7.242  10.502  2.6147  1.1471  0.7186
   24MOL0     H 3187   6.982   7.388  10.671 -1.3270  1.9649  1.2633
   24MOL0     H 3188   6.967   7.517  10.559  1.5567  0.9977 -0.3806
   24MOL0     H 3189   7.249   7.416  10.601 -0.2502  0.2857  1.2649
   24MOL0     H 3190   7.201   7.583  10.570 -3.1459  2.9880  2.6666
   24MOL0     H 3191   7.285   7.705  10.797 -1.1793  3.0321  2.9326
   24MOL0     H 3192   7.302   7.774  11.053 -2.6318 -0.5504 -0.4026
   24MOL0     H 3193   7.262   7.657  11.169 -0.1695  3.1669  0.9240
   24MOL0     H 3194   7.483   7.529  11.095 -0.2429  0.2438  1.3761
   24MOL0     H 3195   7.539   7.680  11.026  0.2760  2.5831  1.2690
   24MOL0     H 3196   7.432   7.654  11.321  2.3770 -2.0751  1.1266
   24MOL0     H 3197   7.486   7.802  11.241  0.1707 -0.1271  0.1488
   24MOL0     H 3198   7.675   7.567  11.227 -0.2275  0.8738 -1.1352
   24MOL0     H 3199   7.656   7.640  11.387 -3.4651  0.6618  0.5934
   24MOL0     H 3200   7.895   7.952  11.179  0.2789 -0.1004 -0.2277
   24MOL0     H 3201   8.130   7.948  11.192 -1.5333 -0.1356 -0.3827
   24MOL0     H 3202   8.533   7.724  11.177 -1.5016 -1.0485  0.3471
   24MOL0     H 3203   8.775   7.695  11.210  0.5451  1.3547  1.1870
   24MOL0     H 3204   8.975   7.569  11.234 -2.6851  0.4037 -0.0128
   24MOL0     H 3205   9.006   7.714  11.332  2.2181  0.3770 -1.5338
   24MOL0     H 3206   9.147   7.569  11.487  2.4815 -1.0966 -0.4690
   24MOL0     H 3207   9.087   7.434  11.393 -1.0512  0.5500 -0.0498
   24MOL0     H 3208   9.339   7.539  11.348  1.5212  2.8608 -1.1459
   24MOL0     H 3209   9.228   7.506  11.207  1.6308 -1.2754  0.4516
   24MOL0     H 3210   9.274   7.792  11.312  1.2900 -1.5608  1.1276
   24MOL0     H 3211   9.165   7.723  11.185  1.4832 -1.6330 -1.8450
   24MOL0     H 3212   9.370   7.816  11.100 -0.7998 -0.7110 -0.4895
   24MOL0     H 3213   9.377   7.642  11.072 -1.7557 -0.3483  0.7178
   24MOL0     H 3214   9.495   7.759  11.321 -3.4594  0.8015 -0.2900
   24MOL0     H 3215   9.541   7.607  11.244  1.8179  0.3032  0.6768
   24MOL0     H 3216   9.722   7.777  11.203  0.1689 -1.3583 -0.3071
   24MOL0     H 3217   9.604   7.898  11.148 -2.2485 -1.6727 -3.0645
   24MOL0     H 3218   9.639   7.648  11.002  1.9266 -0.4203  1.4082
   24MOL0     H 3219   9.590   7.796  10.928  1.6808 -3.0554 -3.5551
   24MOL0     H 3220   8.697   7.444  11.554  0.4012  1.1539  1.3893
   24MOL0     H 3221   8.451   7.482  11.511 -2.0055  1.9020 -1.3784
   24MOL0     H 3222   8.107   7.529  11.337 -2.5052 -0.7112  1.2347
   24MOL0     H 3223   7.873   7.532  11.303 -2.3984  1.2693  1.7915
   24MOL0     H 3224   6.770   6.768  10.254  0.9355 -0.1264 -0.5423
   24MOL0     H 3225   6.615   6.610  10.217  1.6175  1.3710  1.2809
   24MOL0     H 3226   6.262   6.560   9.904  0.1400  0.3479  1.1876
   24MOL0     H 3227   6.062   6.454   9.834  1.6436 -0.0618 -2.1841
   24MOL0     H 3228   5.924   6.303   9.725 -2.4007  0.7668 -1.3937
   24MOL0     H 3229   5.843   6.330   9.881  0.0935 -1.9013  1.6484
   24MOL0     H 3230   5.765   6.081   9.869 -0.0941 -1.7498 -0.1872
   24MOL0     H 3231   5.838   6.076   9.711 -1.8109  0.7091 -1.1282
   24MOL0     H 3232   5.684   6.269   9.642 -2.0747 -0.9454 -1.2626
   24MOL0     H 3233   5.618   6.274   9.799  0.8289 -0.2865  0.8967
   24MOL0     H 3234   5.509   6.115   9.610 -0.2418 -1.2929 -0.8478
   24MOL0     H 3235   5.648   6.004   9.645  0.9939  0.6378 -0.1204
   24MOL0     H 3236   5.364   5.984   9.961 -1.7776 -0.0139 -1.0440
   24MOL0     H 3237   6.183   6.081   9.988  0.4494  0.0377 -4.5186
   24MOL0     H 3238   6.396   6.050  10.080  1.4624  0.0469 -1.0525
   24MOL0     H 3239   6.520   6.164  10.060  0.2859 -1.9237 -0.5679
   24MOL0     H 3240   6.415   6.168  10.207  1.7192  1.4831  0.2130
   25MOL0     O 3241   0.695   2.487   3.595  0.5861 -0.5243  0.5203
   25MOL0     C 3242   0.611   2.433   3.530  0.1385 -0.1756 -0.0304
   25MOL0     O 3243   0.575   2.300   3.541 -0.0850  0.1042 -0.6974
   25MOL0     C 3244   0.637   2.228   3.646 -0.3565  0.1538 -0.7189
   25MOL0     C 3245   0.762   2.190   3.624 -0.0588 -0.7920 -0.0039
   25MOL0     C 3246   0.840   2.123   3.717 -0.3676 -0.6612  0.3165
   25MOL0     C 3247   0.783   2.070   3.835  0.2267 -0.4624  0.2050
   25MOL0     O 3248   0.837   1.993   3.936  0.1403 -0.7502  0.1200
   25MOL0     C 3249   0.979   2.005   3.945 -0.2941  0.1475 -0.0914
   25MOL0     C 3250   1.043   1.909   4.041 -0.1816 -0.1901 -0.2827
   25MOL0     C 3251   1.192   1.909   4.081  0.1982  0.7155  0.2169
   25MOL0     C 3252   1.281   1.972   3.973  0.2895  0.0549  0.0136
   25MOL0     C 3253   1.424   1.915   3.995  0.0360 -0.2887  0.6515
   25MOL0     C 3254   1.523   1.965   3.889 -0.1979  0.3263  0.3608
   25MOL0     C 3255   1.662   1.895   3.898  0.1383 -0.6921  0.4574
   25MOL0     C 3256   1.747   1.950   4.017 -0.1378 -0.0611 -0.6204
   25MOL0     N 3257   1.879   1.888   4.022 -0.4591  0.2694 -0.5453
   25MOL0     C 3258   1.993   1.947   4.068 -1.0989  0.1752  0.1818
   25MOL0     C 3259   2.096   1.853   4.059  0.1691  0.1361 -0.5183
   25MOL0     C 3260   2.245   1.865   4.092  0.2988 -0.7436 -0.0295
   25MOL0     C 3261   2.328   1.841   3.965  0.5580  0.1130  0.3974
   25MOL0     C 3262   2.473   1.888   3.964  0.1452  0.6988  0.9174
   25MOL0     C 3263   2.557   1.823   3.853 -0.0130 -0.6402  0.4536
   25MOL0     O 3264   2.577   1.908   3.734  0.8170 -0.6238 -0.1127
   25MOL0     C 3265   2.713   1.922   3.699  0.3735  0.3933  0.3242
   25MOL0     C 3266   2.742   1.936   3.560  0.1469  0.2253  0.1317
   25MOL0     C 3267   2.870   1.948   3.512  0.6022  0.4140 -0.1401
   25MOL0     C 3268   2.989   1.962   3.602  0.5253  0.4814 -0.0532
   25MOL0     C 3269   3.122   1.976   3.551  0.6794 -1.1129 -1.1390
   25MOL0     O 3270   3.212   2.026   3.644  0.1547 -0.3180 -0.2695
   25MOL0     C 3271   3.339   2.034   3.600 -0.4511 -0.5700  0.7634
   25MOL0     C 3272   3.395   2.156   3.574 -0.3724 -0.2282 -0.4132
   25MOL0     C 3273   3.533   2.171   3.538  0.9744 -0.3951  0.6494
   25MOL0     C 3274   3.610   2.054   3.518 -0.0249 -0.6412 -0.0617
   25MOL0     O 3275   3.734   2.050   3.469  0.0051  0.5368  0.7132
   25MOL0     C 3276   3.780   2.171   3.390  0.2602 -0.2461  0.5585
   25MOL0     C 3277   3.926   2.144   3.334 -0.6156  0.2033  0.0333
   25MOL0     C 3278   3.978   2.264   3.262 -0.2545  0.4169  0.0791
   25MOL0     C 3279   4.126   2.242   3.222 -0.1268  0.4505  0.3313
   25MOL0     C 3280   4.195   2.365   3.160 -0.2585  1.2459  0.2335
   25MOL0     C 3281   4.328   2.319   3.085 -0.4351  0.5167 -0.5338
   25MOL0     C 3282   4.428   2.432   3.054 -0.4305  0.3656 -0.8154
   25MOL0     C 3283   4.559   2.381   2.992 -0.4434  0.4469  0.6826
   25MOL0    Cl 3284   4.527   2.332   2.820  0.0675 -0.0281 -0.0198
   25MOL0     C 3285   3.549   1.935   3.538  0.8303  0.0888  0.5532
   25MOL0     C 3286   3.420   1.919   3.587  0.3845  0.4425  0.2840
   25MOL0     O 3287   3.150   1.951   3.437 -0.5567 -0.3706  0.4228
   25MOL0     C 3288   2.963   1.955   3.743  0.0659  0.5098  0.9915
   25MOL0     C 3289   2.827   1.931   3.785 -0.2194 -1.3042 -0.4576
   25MOL0     N 3290   2.028   1.730   4.035  0.2017 -0.6246 -0.0630
   25MOL0     N 3291   1.901   1.752   4.029 -0.1376 -0.0329  0.2296
   25MOL0     C 3292   0.644   2.115   3.862 -0.0167 -0.4912  0.7793
   25MOL0     C 3293   0.576   2.193   3.763 -0.0032  0.2675 -0.2118
   25MOL0     C 3294   0.543   2.511   3.423  1.2870  0.0723 -0.4425
   25MOL0     C 3295   0.435   2.447   3.353  0.2739 -0.7536  0.1550
   25MOL0     C 3296   0.361   2.517   3.258  0.1447 -0.4538  0.6069
   25MOL0     C 3297   0.389   2.645   3.229 -0.0455 -1.2632 -0.2926
   25MOL0     O 3298   0.299   2.709   3.139 -0.5610  0.1544  0.0451
   25MOL0     C 3299   0.297   2.848   3.142 -0.2924 -0.2251 -0.1818
   25MOL0     C 3300   0.191   2.886   3.039  0.1016  1.2387 -0.1931
   25MOL0     C 3301   0.169   3.037   3.046 -0.0021 -0.0834  0.0344
   25MOL0     C 3302   0.099   3.111   2.933  0.3325 -0.8933 -0.1570
   25MOL0     C 3303  -0.018   3.042   2.869 -0.3120  0.5035 -0.4832
   25MOL0     C 3304  -0.102   2.987   2.808  0.4324 -0.9782  0.0386
   25MOL0     C 3305   0.490   2.711   3.300  1.0202 -0.3743  0.6512
   25MOL0     C 3306   0.576   2.646   3.389  0.3031  0.2667 -0.8811
   25MOL0     C 3307   0.695   2.723   3.443 -0.5227 -0.4604  0.2478
   25MOL0     H 3308   0.813   2.222   3.533 -2.0410 -1.2624 -1.3519
   25MOL0     H 3309   0.944   2.109   3.689  0.9672  2.3432  3.1279
   25MOL0     H 3310   1.032   1.981   3.852 -0.2950 -1.6758  0.3400
   25MOL0     H 3311   0.986   2.111   3.970 -1.2619 -0.0770  1.2258
   25MOL0     H 3312   1.020   1.808   4.007 -0.6523 -0.3652  0.5400
   25MOL0     H 3313   0.989   1.917   4.136  1.3318 -0.6424  0.6377
   25MOL0     H 3314   1.218   1.807   4.107  0.4163  0.9995  1.1413
   25MOL0     H 3315   1.205   1.966   4.173  0.1242  0.4164  0.4113
   25MOL0     H 3316   1.244   1.936   3.876  0.8393  2.1091 -1.0246
   25MOL0     H 3317   1.276   2.081   3.966 -0.7208 -0.0721 -1.8666
   25MOL0     H 3318   1.455   1.923   4.099  2.5474 -0.4709 -0.0015
   25MOL0     H 3319   1.414   1.807   3.980 -2.4020  0.1519 -1.8880
   25MOL0     H 3320   1.478   1.937   3.793 -0.2760  2.2630 -0.2064
   25MOL0     H 3321   1.543   2.072   3.893 -0.4397  0.3464  1.2023
   25MOL0     H 3322   1.710   1.895   3.800 -0.2100 -1.6426  0.2763
   25MOL0     H 3323   1.638   1.790   3.920  0.5865 -0.4744  2.0368
   25MOL0     H 3324   1.742   2.059   4.010 -1.2554 -0.1300 -1.1315
   25MOL0     H 3325   1.699   1.928   4.114 -1.1193 -0.4531 -1.1771
   25MOL0     H 3326   2.001   2.047   4.111  3.8313 -1.2172  3.3643
   25MOL0     H 3327   2.276   1.962   4.133 -1.7568 -1.5006  3.8238
   25MOL0     H 3328   2.270   1.791   4.169  0.3543 -1.0500 -0.3380
   25MOL0     H 3329   2.316   1.733   3.952  1.7806  0.2276 -2.2405
   25MOL0     H 3330   2.279   1.883   3.877  2.3878 -0.1692 -0.8182
   25MOL0     H 3331   2.525   1.883   4.060 -1.2967 -1.4972  1.6697
   25MOL0     H 3332   2.456   1.994   3.944 -0.0031  0.2723 -1.5909
   25MOL0     H 3333   2.506   1.730   3.828  1.2112 -1.1663 -0.2038
   25MOL0     H 3334   2.654   1.801   3.900  0.2940  0.5642  0.4165
   25MOL0     H 3335   2.658   1.926   3.492 -0.6921 -3.1667  1.4879
   25MOL0     H 3336   2.892   1.944   3.406 -0.9993 -2.2242 -0.4810
   25MOL0     H 3337   3.341   2.249   3.590 -0.5007 -0.5793  1.5026
   25MOL0     H 3338   3.576   2.271   3.533 -1.0387  0.6121  2.0825
   25MOL0     H 3339   3.709   2.199   3.312  0.0288  0.7648  1.1209
   25MOL0     H 3340   3.787   2.257   3.458 -0.7040  1.0932 -0.9786
   25MOL0     H 3341   3.998   2.109   3.409 -0.5911 -0.6277 -0.3647
   25MOL0     H 3342   3.923   2.057   3.268 -3.8846  0.2100  0.0344
   25MOL0     H 3343   3.915   2.276   3.172 -1.4753 -1.6499  0.5874
   25MOL0     H 3344   3.965   2.357   3.317  1.3503  1.7217 -1.6167
   25MOL0     H 3345   4.131   2.158   3.152  2.7106  0.0255  0.9439
   25MOL0     H 3346   4.195   2.217   3.303  0.8695 -1.8309 -1.1127
   25MOL0     H 3347   4.216   2.439   3.238 -2.2195  1.8340  0.2589
   25MOL0     H 3348   4.131   2.415   3.087  3.1333  3.2418 -1.6143
   25MOL0     H 3349   4.384   2.240   3.136  0.7778  2.3594  1.1529
   25MOL0     H 3350   4.295   2.268   2.994  1.3923 -0.5690 -0.6301
   25MOL0     H 3351   4.462   2.483   3.145 -2.4015  0.0098  0.1623
   25MOL0     H 3352   4.382   2.506   2.987 -1.1754 -0.2945 -1.0468
   25MOL0     H 3353   4.634   2.460   2.998  0.5000 -0.3301 -0.3614
   25MOL0     H 3354   4.598   2.299   3.053 -0.8303 -1.7319 -1.8187
   25MOL0     H 3355   3.603   1.843   3.516  1.4386  0.8052 -1.0797
   25MOL0     H 3356   3.370   1.825   3.610 -0.6625  1.0473  0.5881
   25MOL0     H 3357   3.036   1.971   3.822  1.6666  0.9947 -0.5179
   25MOL0     H 3358   2.801   1.946   3.890 -2.5430 -0.8664 -1.0483
   25MOL0     H 3359   0.593   2.080   3.951 -0.2628  3.0683  2.2226
   25MOL0     H 3360   0.471   2.221   3.771 -0.0615 -0.1179  0.4455
   25MOL0     H 3361   0.410   2.342   3.367  0.8292 -1.4445 -3.1056
   25MOL0     H 3362   0.267   2.489   3.212  0.5291 -2.3174  0.8916
   25MOL0     H 3363   0.390   2.892   3.106  0.6545 -3.2609 -1.7374
   25MOL0     H 3364   0.266   2.882   3.242 -0.1582 -1.1712  0.1933
   25MOL0     H 3365   0.104   2.830   3.073  1.3453 -0.3167  0.5866
   25MOL0     H 3366   0.209   2.878   2.931 -2.3215 -2.0609 -0.5311
   25MOL0     H 3367   0.265   3.084   3.069 -0.5858 -0.4322  3.8232
   25MOL0     H 3368   0.119   3.046   3.142  2.5366 -2.3264  1.7217
   25MOL0     H 3369   0.072   3.209   2.974  1.9060 -0.4896  0.0012
   25MOL0     H 3370   0.172   3.131   2.855  0.5447  0.1458  0.2893
   25MOL0     H 3371  -0.178   2.962   2.737  0.3362  2.2046 -1.1484
   25MOL0     H 3372   0.505   2.818   3.287 -0.5300 -0.4067 -1.9311
   25MOL0     H 3373   0.671   2.766   3.541  1.5143 -3.3681  2.2171
   25MOL0     H 3374   0.785   2.663   3.457 -2.2252 -3.6488 -1.2966
   25MOL0     H 3375   0.709   2.805   3.372  1.1456 -0.9280 -0.0003
   26MOL0     O 3376   7.832   8.857   0.094 -0.6513  0.9514 -0.1252
   26MOL0     C 3377   7.765   8.909   0.007  0.4831 -0.4177 -0.4410
   26MOL0     O 3378   7.804   9.019  -0.060  0.1812 -1.1872  0.5682
   26MOL0     C 3379   7.943   9.050  -0.074  0.4399  0.5277  0.0925
   26MOL0     C 3380   8.021   9.107   0.020  0.2122  0.6931  0.3836
   26MOL0     C 3381   8.158   9.123  -0.006  0.2389  0.0914 -0.7432
   26MOL0     C 3382   8.215   9.089  -0.128  0.2952 -0.2009  0.4227
   26MOL0     O 3383   8.350   9.101  -0.145  0.0318 -0.4478  0.1554
   26MOL0     C 3384   8.428   9.013  -0.227  0.2547 -1.3855 -0.2124
   26MOL0     C 3385   8.580   9.027  -0.204  0.3035 -0.2420  0.4257
   26MOL0     C 3386   8.615   9.179  -0.200  0.1955 -0.3315 -0.9717
   26MOL0     C 3387   8.771   9.205  -0.211 -0.8597 -0.2591 -0.2556
   26MOL0     C 3388   8.849   9.180  -0.074  0.6183  0.0600  0.0350
   26MOL0     C 3389   8.996   9.154  -0.093 -0.2485 -0.2572  0.7977
   26MOL0     C 3390   9.079   9.167   0.040  0.2892 -0.2741 -0.3282
   26MOL0     C 3391   9.222   9.123   0.018 -0.2696 -0.1689 -0.0516
   26MOL0     N 3392   9.312   9.144   0.135 -0.0170  0.0302  0.3896
   26MOL0     C 3393   9.402   9.244   0.147  0.7472 -0.2720  0.1792
   26MOL0     C 3394   9.483   9.208   0.250  0.3517 -0.2154  0.0744
   26MOL0     C 3395   9.605   9.294   0.291  0.0673  0.5856  0.0288
   26MOL0     C 3396   9.652   9.400   0.190 -0.1413 -0.3001 -0.5097
   26MOL0     C 3397   9.585   9.538   0.213  0.4339 -0.6800 -0.0027
   26MOL0     C 3398   9.635   9.620   0.334  0.4025 -0.1249  0.1905
   26MOL0     O 3399   9.780   9.614   0.326 -0.2429  0.2070 -0.1420
   26MOL0     C 3400   9.859   9.658   0.425  0.3300  0.3609 -0.1652
   26MOL0     C 3401   9.986   9.701   0.384  0.4792  0.1495 -0.6911
   26MOL0     C 3402  10.076   9.744   0.485 -0.4503 -0.1419  0.3272
   26MOL0     C 3403  10.041   9.740   0.624  1.0873 -0.0104  0.2651
   26MOL0     C 3404  10.136   9.772   0.727 -0.0667 -0.1160 -0.3048
   26MOL0     O 3405  10.103   9.730   0.862 -0.2546 -0.5572  0.1372
   26MOL0     C 3406  10.201   9.751   0.957  0.4633 -0.2511 -0.1684
   26MOL0     C 3407  10.328   9.694   0.945 -0.3348 -0.7947 -0.2956
   26MOL0     C 3408  10.428   9.724   1.046 -0.2546 -0.2417 -0.1667
   26MOL0     C 3409  10.396   9.810   1.159 -0.1011  0.4150  0.8600
   26MOL0     O 3410  10.494   9.836   1.251 -0.3408  0.3509  0.6980
   26MOL0     C 3411  10.474   9.936   1.346 -0.1542 -0.9545 -0.7466
   26MOL0     C 3412  10.595   9.956   1.440  0.2740  0.3567 -0.1563
   26MOL0     C 3413  10.629   9.815   1.498  0.9271 -0.5493 -0.9951
   26MOL0     C 3414  10.751   9.814   1.599  0.2018 -0.3552 -0.4244
   26MOL0     C 3415  10.887   9.864   1.534  0.3337  0.4483 -0.0935
   26MOL0     C 3416  10.987   9.891   1.646  0.1698  0.2782 -0.8847
   26MOL0     C 3417  11.119   9.951   1.598 -1.0170  0.3255 -0.9305
   26MOL0     C 3418  11.208   9.995   1.721  0.1895 -0.2500 -0.5765
   26MOL0    Cl 3419  11.154  10.153   1.795 -0.3448 -0.0927 -0.2761
   26MOL0     C 3420  10.266   9.865   1.160 -0.3227 -0.8474 -0.2453
   26MOL0     C 3421  10.166   9.838   1.065 -0.3468  0.4237 -0.7385
   26MOL0     O 3422  10.232   9.843   0.692 -0.2203  0.1336 -0.1670
   26MOL0     C 3423   9.917   9.690   0.657 -0.0271  0.4383 -0.4162
   26MOL0     C 3424   9.832   9.638   0.556  0.2533  0.9798  0.1105
   26MOL0     N 3425   9.441   9.092   0.305  0.0970  0.5725 -0.1650
   26MOL0     N 3426   9.342   9.052   0.226 -0.7826 -0.1210  0.2843
   26MOL0     C 3427   8.132   9.027  -0.226  0.5099 -0.0453 -0.0268
   26MOL0     C 3428   7.995   9.013  -0.195  0.3891 -0.3944 -0.2759
   26MOL0     C 3429   7.626   8.865  -0.004  0.8632  0.6057 -0.0555
   26MOL0     C 3430   7.587   8.735   0.035 -0.5334 -0.1136  0.0715
   26MOL0     C 3431   7.461   8.681   0.013 -0.3993  0.3448 -0.7266
   26MOL0     C 3432   7.371   8.750  -0.068 -0.1579  0.0417  0.2047
   26MOL0     O 3433   7.248   8.686  -0.090  0.0673 -0.5006 -0.1580
   26MOL0     C 3434   7.131   8.771  -0.112 -0.5140 -0.1413  0.1152
   26MOL0     C 3435   7.005   8.695  -0.119  0.4342 -0.0214  0.0332
   26MOL0     C 3436   6.960   8.638   0.015 -0.2756  1.0733 -0.0909
   26MOL0     C 3437   6.805   8.644   0.039 -0.3155 -0.7180 -0.1181
   26MOL0     C 3438   6.725   8.575  -0.070 -0.4137 -0.4472  0.4153
   26MOL0     C 3439   6.646   8.521  -0.149 -0.6244 -0.5106  0.5676
   26MOL0     C 3440   7.404   8.877  -0.110  0.3020  0.8253  0.0213
   26MOL0     C 3441   7.526   8.938  -0.079 -0.2725 -0.9771  0.1484
   26MOL0     C 3442   7.544   9.086  -0.109  0.3904  0.1742  0.2773
   26MOL0     H 3443   7.976   9.128   0.116 -0.5731 -0.6891  0.3470
   26MOL0     H 3444   8.228   9.157   0.069 -0.7893  1.3564 -0.3296
   26MOL0     H 3445   8.399   8.909  -0.211 -0.5853 -1.0534  0.5111
   26MOL0     H 3446   8.406   9.039  -0.331 -2.2985 -0.2255  0.5282
   26MOL0     H 3447   8.632   8.989  -0.292 -0.8875 -0.4844 -0.1883
   26MOL0     H 3448   8.602   8.967  -0.115  0.7046 -0.6589  0.0529
   26MOL0     H 3449   8.573   9.212  -0.105 -0.2258 -0.0713 -1.2458
   26MOL0     H 3450   8.566   9.241  -0.275  3.0835  1.3337 -1.6629
   26MOL0     H 3451   8.812   9.130  -0.280 -0.1033  2.1750 -2.6380
   26MOL0     H 3452   8.790   9.305  -0.251  0.3076  1.0529  3.2291
   26MOL0     H 3453   8.837   9.268  -0.010 -0.1105  0.0748 -0.1241
   26MOL0     H 3454   8.803   9.092  -0.030  1.8072 -0.3113  0.5826
   26MOL0     H 3455   9.014   9.054  -0.134  2.4793  1.5741 -2.9612
   26MOL0     H 3456   9.032   9.222  -0.170  2.4517 -2.9139 -0.4996
   26MOL0     H 3457   9.036   9.106   0.120  0.3734 -0.4416 -0.4110
   26MOL0     H 3458   9.076   9.272   0.071 -2.7002 -1.0254  2.5543
   26MOL0     H 3459   9.217   9.016  -0.003  1.1726 -0.2714  0.0249
   26MOL0     H 3460   9.264   9.180  -0.065 -0.2863  1.6172  1.1095
   26MOL0     H 3461   9.410   9.334   0.088  0.9179 -0.6253 -0.3487
   26MOL0     H 3462   9.570   9.336   0.386 -1.6483  0.7528 -0.6438
   26MOL0     H 3463   9.688   9.232   0.325 -0.4794  0.1721  0.6555
   26MOL0     H 3464   9.761   9.414   0.193 -0.2748  2.8615 -3.5505
   26MOL0     H 3465   9.621   9.372   0.089 -1.3066 -1.9082  0.2553
   26MOL0     H 3466   9.476   9.528   0.218  0.5849 -1.8614  1.7572
   26MOL0     H 3467   9.612   9.602   0.128 -0.9270  2.2140  1.5876
   26MOL0     H 3468   9.587   9.594   0.429 -2.0847 -2.0983 -1.4692
   26MOL0     H 3469   9.596   9.718   0.307 -4.3765 -1.6932  0.3784
   26MOL0     H 3470  10.025   9.682   0.285  1.3732 -1.6399 -0.0451
   26MOL0     H 3471  10.178   9.779   0.472 -0.3855  0.7735  2.7525
   26MOL0     H 3472  10.359   9.635   0.859  2.3978 -0.4780  0.4001
   26MOL0     H 3473  10.525   9.682   1.024 -0.7445 -1.7478  0.4568
   26MOL0     H 3474  10.462  10.031   1.294 -0.5923 -1.0340 -0.7933
   26MOL0     H 3475  10.388   9.917   1.411  0.4202  1.1215  0.6855
   26MOL0     H 3476  10.686   9.989   1.388  0.9627 -2.0751 -0.6220
   26MOL0     H 3477  10.560  10.022   1.521 -1.6652 -1.4665  0.5811
   26MOL0     H 3478  10.546   9.770   1.554  2.7786  0.1126  2.6509
   26MOL0     H 3479  10.660   9.750   1.416 -4.1613 -1.4300 -2.5391
   26MOL0     H 3480  10.768   9.716   1.643  2.2502  1.0417  2.2218
   26MOL0     H 3481  10.719   9.875   1.685  0.7038  1.5626 -1.5301
   26MOL0     H 3482  10.887   9.957   1.477  1.9118 -0.2376 -1.2876
   26MOL0     H 3483  10.919   9.787   1.463  0.0522 -0.6489  0.9296
   26MOL0     H 3484  10.944   9.955   1.723  1.8349 -1.8856  2.0510
   26MOL0     H 3485  11.013   9.806   1.710  0.3221 -0.2971 -1.6896
   26MOL0     H 3486  11.112  10.036   1.530  0.2185  0.0255 -1.4579
   26MOL0     H 3487  11.169   9.872   1.541 -1.5258  0.9282 -2.2571
   26MOL0     H 3488  11.212   9.918   1.799  1.3445 -0.5830 -0.9462
   26MOL0     H 3489  11.313  10.010   1.694  0.9858  0.7509  2.6172
   26MOL0     H 3490  10.241   9.932   1.242 -0.8568  0.3470 -1.3526
   26MOL0     H 3491  10.070   9.883   1.087 -0.1322 -0.3580  2.0999
   26MOL0     H 3492   9.893   9.664   0.760  3.5544 -1.2636  0.1235
   26MOL0     H 3493   9.739   9.595   0.590  1.0619  1.3066  3.0031
   26MOL0     H 3494   8.177   8.994  -0.319  0.0304 -0.3821 -0.1405
   26MOL0     H 3495   7.934   8.964  -0.271  0.8786 -1.9301  0.2846
   26MOL0     H 3496   7.658   8.675   0.091 -1.0955 -0.3080  0.5942
   26MOL0     H 3497   7.453   8.581   0.053 -0.0735  1.1204  1.3838
   26MOL0     H 3498   7.136   8.812  -0.213 -0.3877  0.6797  0.4461
   26MOL0     H 3499   7.119   8.853  -0.040 -2.8839  0.2131 -0.5851
   26MOL0     H 3500   7.008   8.623  -0.200 -0.7788 -0.3215  0.2340
   26MOL0     H 3501   6.930   8.769  -0.148 -1.1870 -1.1490  1.1229
   26MOL0     H 3502   7.012   8.688   0.097 -1.5377  0.7683  0.9266
   26MOL0     H 3503   6.992   8.534   0.029  2.4849  1.3216 -3.1731
   26MOL0     H 3504   6.773   8.595   0.131 -0.7077  1.7405  1.1559
   26MOL0     H 3505   6.767   8.747   0.040 -0.8963 -0.9310  0.5857
   26MOL0     H 3506   6.572   8.477  -0.213 -0.8092 -1.0855  1.1593
   26MOL0     H 3507   7.338   8.918  -0.186 -1.2612 -2.5826 -0.6478
   26MOL0     H 3508   7.445   9.131  -0.125  0.4645 -0.1174 -1.1332
   26MOL0     H 3509   7.579   9.151  -0.028 -3.5163  1.8084  0.8674
   26MOL0     H 3510   7.593   9.096  -0.206  0.3839 -1.1849  0.1062
   27MOL0     O 3511   8.625   6.734   4.770  0.6617  0.3790 -0.0880
   27MOL0     C 3512   8.551   6.792   4.691  0.1993 -0.3450  0.3852
   27MOL0     O 3513   8.589   6.907   4.620 -0.6150  0.6966 -0.0154
   27MOL0     C 3514   8.709   6.966   4.656  0.5753 -0.5140  0.6100
   27MOL0     C 3515   8.820   6.949   4.575  0.6386  0.1160  0.3644
   27MOL0     C 3516   8.942   7.007   4.619 -0.4002 -0.8326  1.0377
   27MOL0     C 3517   8.956   7.089   4.729  0.1092  0.0537  0.5702
   27MOL0     O 3518   9.057   7.169   4.765  0.2661 -0.2422 -0.2057
   27MOL0     C 3519   9.176   7.177   4.679  0.7230  0.5830  0.2803
   27MOL0     C 3520   9.298   7.079   4.694  0.1240 -0.4715 -0.2223
   27MOL0     C 3521   9.284   6.943   4.620 -0.0069 -0.0843 -0.3923
   27MOL0     C 3522   9.419   6.865   4.618 -0.0766 -0.1702  0.8641
   27MOL0     C 3523   9.401   6.720   4.565  0.2822 -0.3590 -0.2483
   27MOL0     C 3524   9.532   6.644   4.581 -0.7183 -0.1720 -1.4446
   27MOL0     C 3525   9.523   6.517   4.494 -0.0086  0.4710  0.3531
   27MOL0     C 3526   9.547   6.545   4.343  0.3009 -0.0635 -0.6602
   27MOL0     N 3527   9.657   6.631   4.314 -0.9356 -0.3895  0.1029
   27MOL0     C 3528   9.665   6.738   4.228 -0.0991  0.0678  0.3927
   27MOL0     C 3529   9.796   6.749   4.188  0.7939  0.8041 -0.6313
   27MOL0     C 3530   9.863   6.852   4.089  0.5830 -0.4090 -0.8451
   27MOL0     C 3531   9.986   6.793   4.013  0.3003  1.0904 -0.3992
   27MOL0     C 3532   9.990   6.821   3.856  0.0108  0.5620 -1.1687
   27MOL0     C 3533  10.127   6.788   3.793  0.3686  0.0015 -0.2875
   27MOL0     O 3534  10.155   6.647   3.786  0.6011  0.4349  0.5095
   27MOL0     C 3535  10.271   6.611   3.850  0.1453 -0.2286 -0.1965
   27MOL0     C 3536  10.258   6.521   3.962 -0.0750 -0.0179  0.4856
   27MOL0     C 3537  10.372   6.464   4.020  0.1870 -0.4489 -0.1423
   27MOL0     C 3538  10.493   6.509   3.976 -0.6505 -0.8767  1.0150
   27MOL0     C 3539  10.616   6.459   4.050  0.2417  0.5045 -0.0225
   27MOL0     O 3540  10.603   6.357   4.144 -0.1625  0.4181 -0.0520
   27MOL0     C 3541  10.713   6.293   4.188  0.5228  0.3879  0.3670
   27MOL0     C 3542  10.727   6.282   4.324 -0.6168  0.4270 -0.0491
   27MOL0     C 3543  10.833   6.209   4.379 -1.0449 -0.3633 -0.3821
   27MOL0     C 3544  10.935   6.158   4.298 -0.3091 -0.2914 -0.3260
   27MOL0     O 3545  11.026   6.074   4.362  0.2827 -0.3124 -0.0352
   27MOL0     C 3546  11.143   6.037   4.296 -0.3426 -0.1665 -0.2118
   27MOL0     C 3547  11.233   5.964   4.393  0.0027 -0.4858  0.1358
   27MOL0     C 3548  11.379   5.981   4.347 -0.4498 -0.1389 -0.4684
   27MOL0     C 3549  11.456   5.883   4.441  0.6101 -0.4812  0.0273
   27MOL0     C 3550  11.614   5.875   4.416  0.2312 -0.2559  0.0673
   27MOL0     C 3551  11.655   5.861   4.270 -0.2675 -1.2514  0.1268
   27MOL0     C 3552  11.808   5.866   4.256  0.1428 -0.5942  0.0668
   27MOL0     C 3553  11.842   5.882   4.108  0.3256 -0.4083  0.8012
   27MOL0    Cl 3554  11.844   5.712   4.024  0.2532  0.7213 -0.1110
   27MOL0     C 3555  10.924   6.176   4.155 -0.1912  0.1447 -0.3133
   27MOL0     C 3556  10.816   6.237   4.104 -0.9583 -0.1412 -0.5406
   27MOL0     O 3557  10.723   6.506   4.018 -0.2429  0.1891 -0.3212
   27MOL0     C 3558  10.509   6.602   3.867  0.4653 -0.3210  0.0263
   27MOL0     C 3559  10.395   6.650   3.800  0.2546 -0.8567 -0.6595
   27MOL0     N 3560   9.866   6.652   4.256  0.4143 -0.5985  0.5868
   27MOL0     N 3561   9.783   6.590   4.334 -0.2825 -0.4641 -0.2689
   27MOL0     C 3562   8.849   7.098   4.811 -0.3749 -0.2467 -0.6778
   27MOL0     C 3563   8.726   7.037   4.777 -0.0392  0.3084  0.8065
   27MOL0     C 3564   8.411   6.748   4.667  0.1086  0.1863 -0.5119
   27MOL0     C 3565   8.326   6.836   4.597  0.2060 -0.4837 -0.1721
   27MOL0     C 3566   8.197   6.800   4.570 -0.1463  1.3001 -0.2962
   27MOL0     C 3567   8.142   6.678   4.622  0.7242  0.2256 -0.4829
   27MOL0     O 3568   8.012   6.653   4.580 -0.3641 -0.1224 -0.2405
   27MOL0     C 3569   7.949   6.522   4.599 -0.3013  0.0791 -0.3960
   27MOL0     C 3570   7.800   6.531   4.548  0.0414  0.1333  0.0065
   27MOL0     C 3571   7.721   6.404   4.604 -0.2503  0.4914  0.2537
   27MOL0     C 3572   7.587   6.389   4.529 -0.6558 -0.1028  0.5281
   27MOL0     C 3573   7.479   6.466   4.595  0.8425 -0.3408 -0.7282
   27MOL0     C 3574   7.383   6.511   4.657  0.2103 -0.1842  0.6230
   27MOL0     C 3575   8.224   6.588   4.687 -0.4218 -0.0431 -0.2906
   27MOL0     C 3576   8.357   6.623   4.718  0.2429 -0.0760 -0.5140
   27MOL0     C 3577   8.435   6.527   4.799  0.3004  0.1367 -0.6910
   27MOL0     H 3578   8.813   6.875   4.496  1.2528 -0.6112  0.9651
   27MOL0     H 3579   9.031   6.983   4.562 -0.1361  0.5217  0.8480
   27MOL0     H 3580   9.136   7.181   4.577 -1.0095  2.3449  0.9584
   27MOL0     H 3581   9.199   7.284   4.678 -0.6067  0.8846  0.0245
   27MOL0     H 3582   9.306   7.059   4.801 -0.8620  3.5074  0.7434
   27MOL0     H 3583   9.387   7.131   4.659 -0.3130  0.5443  0.1403
   27MOL0     H 3584   9.258   6.964   4.516 -1.1189 -3.3627 -0.9098
   27MOL0     H 3585   9.200   6.883   4.658  0.2425 -0.5147 -0.5103
   27MOL0     H 3586   9.490   6.917   4.552  0.5433  0.5825  2.0781
   27MOL0     H 3587   9.466   6.867   4.717 -0.9478  0.3366  1.2802
   27MOL0     H 3588   9.330   6.657   4.621  0.4260 -0.2371  0.0712
   27MOL0     H 3589   9.365   6.711   4.463 -0.6797  1.0122 -0.0606
   27MOL0     H 3590   9.614   6.713   4.558 -0.3521 -0.1536 -0.1293
   27MOL0     H 3591   9.539   6.610   4.684 -1.1083 -2.8738 -2.2300
   27MOL0     H 3592   9.427   6.469   4.515  0.3861 -1.1087 -1.2110
   27MOL0     H 3593   9.608   6.452   4.518  2.4854  2.6592 -1.8963
   27MOL0     H 3594   9.560   6.450   4.290  2.4550  0.4198 -1.0767
   27MOL0     H 3595   9.458   6.593   4.303 -0.1568  0.0928  0.5182
   27MOL0     H 3596   9.597   6.812   4.187  0.6478  1.3737  1.4036
   27MOL0     H 3597   9.791   6.885   4.014 -1.5753  1.5634  1.8624
   27MOL0     H 3598   9.902   6.939   4.142  0.1707 -0.0386 -1.1454
   27MOL0     H 3599  10.073   6.835   4.066  0.5219 -0.9525  0.9597
   27MOL0     H 3600   9.988   6.685   4.031  2.6337  0.9111 -1.4122
   27MOL0     H 3601   9.962   6.923   3.829 -1.1852  0.2679 -1.1028
   27MOL0     H 3602   9.913   6.757   3.813  0.2465 -1.7673  1.6162
   27MOL0     H 3603  10.200   6.839   3.856  2.4673 -0.2892 -2.3393
   27MOL0     H 3604  10.133   6.834   3.694 -0.4291 -1.6216 -1.1360
   27MOL0     H 3605  10.159   6.483   3.986 -0.4311  0.1203 -0.7208
   27MOL0     H 3606  10.363   6.373   4.077 -1.7461  0.3408  0.8966
   27MOL0     H 3607  10.659   6.326   4.396 -1.2314 -0.1343 -0.2832
   27MOL0     H 3608  10.844   6.183   4.484  3.0668  0.8574 -0.3330
   27MOL0     H 3609  11.131   5.969   4.211  1.6233  1.6702 -2.0712
   27MOL0     H 3610  11.196   6.127   4.265  1.1789 -0.9456  0.0275
   27MOL0     H 3611  11.222   6.015   4.489  0.6569 -0.2569  0.0915
   27MOL0     H 3612  11.211   5.858   4.412  1.6220 -0.7673  0.5666
   27MOL0     H 3613  11.386   5.949   4.243 -2.9116  1.1366 -1.1295
   27MOL0     H 3614  11.413   6.085   4.356 -0.5580  0.0485 -1.9290
   27MOL0     H 3615  11.425   5.778   4.443  0.4080 -0.4228  0.0225
   27MOL0     H 3616  11.442   5.918   4.544  1.6752  1.0437 -0.3056
   27MOL0     H 3617  11.664   5.798   4.477 -0.5889 -0.3215  0.6640
   27MOL0     H 3618  11.651   5.969   4.457  3.5499 -2.4619  2.7055
   27MOL0     H 3619  11.620   5.762   4.239 -2.7274 -0.7011  0.9263
   27MOL0     H 3620  11.612   5.936   4.203  0.4434 -1.2094 -0.2869
   27MOL0     H 3621  11.858   5.786   4.313  1.1145 -2.3924 -3.0755
   27MOL0     H 3622  11.844   5.958   4.302  0.1735  0.8439 -2.6337
   27MOL0     H 3623  11.777   5.945   4.046  0.3546 -1.5460 -0.4220
   27MOL0     H 3624  11.942   5.926   4.105 -1.2467  3.5666  0.3821
   27MOL0     H 3625  11.004   6.139   4.092 -0.2455  1.7747 -1.3986
   27MOL0     H 3626  10.813   6.255   3.997 -1.0449  0.3308 -0.4620
   27MOL0     H 3627  10.608   6.645   3.855 -0.3659  2.3254  1.7824
   27MOL0     H 3628  10.398   6.724   3.720  1.6664 -1.8593 -1.5799
   27MOL0     H 3629   8.845   7.155   4.904  0.9002 -1.1033 -0.0772
   27MOL0     H 3630   8.643   7.046   4.846  1.0711  1.4505  2.0829
   27MOL0     H 3631   8.358   6.931   4.555 -1.9828  0.1070 -0.6157
   27MOL0     H 3632   8.133   6.854   4.502 -0.4700 -0.8237 -1.7721
   27MOL0     H 3633   7.936   6.504   4.706 -2.5286 -0.3488 -0.6995
   27MOL0     H 3634   8.008   6.439   4.557 -0.4887 -0.1168 -0.2712
   27MOL0     H 3635   7.793   6.523   4.439 -0.3058  0.1893  0.0227
   27MOL0     H 3636   7.753   6.625   4.579 -1.4900 -0.7916  0.6156
   27MOL0     H 3637   7.720   6.410   4.714  2.7406  0.5426  0.3662
   27MOL0     H 3638   7.787   6.319   4.588 -0.1100 -0.1853  3.6020
   27MOL0     H 3639   7.599   6.417   4.424  0.1833  1.2705  0.9570
   27MOL0     H 3640   7.559   6.284   4.539 -1.7844  0.3373  2.6709
   27MOL0     H 3641   7.305   6.556   4.716  0.4989  1.5681 -0.2779
   27MOL0     H 3642   8.195   6.489   4.718  2.9340 -1.8067 -2.1687
   27MOL0     H 3643   8.450   6.560   4.902 -1.0778 -3.0887  0.7007
   27MOL0     H 3644   8.384   6.430   4.798 -0.7003  0.5395  2.5188
   27MOL0     H 3645   8.535   6.503   4.761 -0.0667 -1.2984 -0.8047
   28MOL0     O 3646   0.979   8.888  10.135 -0.1234  0.2130  0.0103
   28MOL0     C 3647   0.967   8.987  10.207  0.2346 -0.6421  0.3337
   28MOL0     O 3648   1.072   9.057  10.264  0.4884  0.5399 -0.1344
   28MOL0     C 3649   1.204   9.027  10.243  0.1251 -0.4099 -0.5960
   28MOL0     C 3650   1.261   8.985  10.122 -0.9788  0.6224 -0.0977
   28MOL0     C 3651   1.394   8.937  10.113  0.0714  0.7548  0.2343
   28MOL0     C 3652   1.475   8.946  10.224  0.4506  1.0243 -0.2680
   28MOL0     O 3653   1.610   8.917  10.206 -0.1572  0.0286  0.1613
   28MOL0     C 3654   1.696   8.929  10.319  0.5219 -0.2969 -0.1828
   28MOL0     C 3655   1.836   8.866  10.276 -0.7638 -0.8210 -0.8178
   28MOL0     C 3656   1.835   8.711  10.256  0.4606 -0.1561  0.0407
   28MOL0     C 3657   1.768   8.634  10.372  0.5968 -0.8996 -0.7451
   28MOL0     C 3658   1.786   8.489  10.348 -0.6829 -0.4144  0.4964
   28MOL0     C 3659   1.743   8.430  10.217  0.6550 -0.3993  0.6700
   28MOL0     C 3660   1.588   8.432  10.205 -0.4348 -0.2093 -0.5537
   28MOL0     C 3661   1.548   8.360  10.077 -0.0650 -0.3158  0.6129
   28MOL0     N 3662   1.404   8.343  10.059  0.0329  0.5994 -0.2633
   28MOL0     C 3663   1.346   8.224  10.026 -0.1703 -0.1793  0.4166
   28MOL0     C 3664   1.208   8.245  10.044 -0.7462  0.5660  0.8968
   28MOL0     C 3665   1.113   8.134  10.035  0.0710 -0.0419  0.3880
   28MOL0     C 3666   0.965   8.154  10.042  0.5750 -0.9037  0.2118
   28MOL0     C 3667   0.899   8.018  10.021  0.0195 -0.0724  0.7022
   28MOL0     C 3668   0.747   8.024  10.026  0.2532 -1.0494 -0.2283
   28MOL0     O 3669   0.682   8.111   9.921  0.0538 -0.5352  0.3340
   28MOL0     C 3670   0.541   8.117   9.913  0.2374 -0.1209 -0.5090
   28MOL0     C 3671   0.492   8.148   9.785 -0.7635  0.5215  0.2064
   28MOL0     C 3672   0.359   8.163   9.770  1.1529 -0.1995 -0.4836
   28MOL0     C 3673   0.267   8.143   9.871  0.6487 -0.0996  0.6145
   28MOL0     C 3674   0.122   8.139   9.838  0.7721  0.2349  1.0645
   28MOL0     O 3675   0.039   8.073   9.929 -0.6039 -0.5327  0.0640
   28MOL0     C 3676  -0.099   8.083   9.942  0.1661  0.2562 -0.1640
   28MOL0     C 3677  -0.151   8.072  10.069  1.1311  0.7310  0.8259
   28MOL0     C 3678  -0.288   8.081  10.085 -0.9331 -0.1187 -0.1256
   28MOL0     C 3679  -0.383   8.095   9.980  0.4018  0.9822  0.5959
   28MOL0     O 3680  -0.514   8.097  10.015  0.0063  0.8705 -0.0526
   28MOL0     C 3681  -0.616   8.106   9.917  0.3936  0.3421  0.1452
   28MOL0     C 3682  -0.734   8.179   9.981  0.0968 -0.3388  0.2445
   28MOL0     C 3683  -0.845   8.093  10.022  0.7235  1.0524 -0.4363
   28MOL0     C 3684  -0.974   8.174  10.031 -0.4479  0.5537  0.6747
   28MOL0     C 3685  -1.095   8.095  10.015  0.4526  0.6906 -0.2075
   28MOL0     C 3686  -1.222   8.183   9.991 -0.6634 -0.1712 -0.7811
   28MOL0     C 3687  -1.347   8.108  10.041  0.0429 -0.0201 -0.8593
   28MOL0     C 3688  -1.473   8.196  10.037  0.3378  0.5534 -0.4686
   28MOL0    Cl 3689  -1.483   8.331  10.167  0.2909 -0.2135  0.0647
   28MOL0     C 3690  -0.323   8.088   9.851  0.4226  0.3339 -0.9571
   28MOL0     C 3691  -0.184   8.084   9.823 -0.4477 -0.6573  0.2135
   28MOL0     O 3692   0.082   8.197   9.735  0.3852  0.0261 -0.1466
   28MOL0     C 3693   0.320   8.109   9.997  0.2133 -0.4365 -0.7794
   28MOL0     C 3694   0.457   8.102  10.021 -0.4665 -0.6599  0.5204
   28MOL0     N 3695   1.188   8.378  10.068  0.5673 -0.2042  0.5196
   28MOL0     N 3696   1.303   8.432  10.079 -0.1953 -0.3238 -0.4500
   28MOL0     C 3697   1.422   8.998  10.343 -0.7448 -0.0483  0.4633
   28MOL0     C 3698   1.292   9.040  10.353  0.2648 -0.7091 -0.4575
   28MOL0     C 3699   0.834   9.059  10.209  0.2657 -0.5252 -0.3398
   28MOL0     C 3700   0.830   9.188  10.267  0.0572  0.8555 -0.1695
   28MOL0     C 3701   0.712   9.247  10.283 -0.7461  0.7719 -0.2050
   28MOL0     C 3702   0.601   9.209  10.212 -0.2868  0.1897 -0.2421
   28MOL0     O 3703   0.474   9.266  10.217 -0.4911  0.3109  0.3499
   28MOL0     C 3704   0.465   9.399  10.268 -0.5793 -0.9849  0.5141
   28MOL0     C 3705   0.361   9.493  10.214 -0.8822 -0.4641  0.6400
   28MOL0     C 3706   0.382   9.634  10.270  0.7479 -0.1496  0.2054
   28MOL0     C 3707   0.366   9.736  10.158 -1.5441  0.3400 -0.3231
   28MOL0     C 3708   0.488   9.739  10.076 -0.0255  0.0525  0.2115
   28MOL0     C 3709   0.586   9.739  10.010  0.2007  0.2911  0.0037
   28MOL0     C 3710   0.601   9.084  10.141  0.4191 -0.6140  0.4318
   28MOL0     C 3711   0.719   9.011  10.132 -0.0627  0.5992  0.3311
   28MOL0     C 3712   0.728   8.896  10.042  0.6642  0.9862 -0.0132
   28MOL0     H 3713   1.196   8.961  10.038  1.0611  0.0287 -1.5650
   28MOL0     H 3714   1.428   8.915  10.013 -1.9130 -0.7925 -0.1488
   28MOL0     H 3715   1.714   9.036  10.333  1.0124 -0.3121 -0.6419
   28MOL0     H 3716   1.659   8.886  10.412 -0.3958  1.3303  0.2372
   28MOL0     H 3717   1.914   8.885  10.350 -0.6900  1.7350 -1.4535
   28MOL0     H 3718   1.866   8.920  10.186  0.1165 -0.6427 -0.4180
   28MOL0     H 3719   1.937   8.681  10.234  0.3541  0.1501 -0.9220
   28MOL0     H 3720   1.779   8.696  10.163 -0.2042 -0.7802  0.5318
   28MOL0     H 3721   1.819   8.665  10.463  0.5436  1.5516 -1.4729
   28MOL0     H 3722   1.663   8.662  10.384  0.6478 -1.4738  1.4873
   28MOL0     H 3723   1.894   8.472  10.357 -0.5703  0.3091  0.6164
   28MOL0     H 3724   1.735   8.439  10.430 -0.2193 -0.0552  1.0061
   28MOL0     H 3725   1.788   8.477  10.128  0.4450 -2.9153 -0.8846
   28MOL0     H 3726   1.778   8.327  10.211  0.3414 -0.4820  0.1533
   28MOL0     H 3727   1.554   8.536  10.202 -1.4725 -0.4662  1.1311
   28MOL0     H 3728   1.530   8.390  10.288 -1.2400  1.0574 -0.4509
   28MOL0     H 3729   1.586   8.415   9.990  0.3764 -0.0888  0.9483
   28MOL0     H 3730   1.586   8.258  10.080  0.6568 -0.2719 -2.7635
   28MOL0     H 3731   1.396   8.128  10.014  1.7090  0.3928  2.8010
   28MOL0     H 3732   1.133   8.096   9.935  0.1733  1.1622 -0.0643
   28MOL0     H 3733   1.144   8.056  10.105 -2.3036  1.3416  3.1963
   28MOL0     H 3734   0.937   8.208  10.133  1.0253  1.0574 -0.7381
   28MOL0     H 3735   0.932   8.219   9.960  2.0698 -0.7550 -0.2956
   28MOL0     H 3736   0.941   7.943  10.088  1.2559 -0.4879 -0.4876
   28MOL0     H 3737   0.925   7.988   9.919  1.8406 -2.3264  1.7146
   28MOL0     H 3738   0.733   8.080  10.120  2.3905  1.6189 -1.3634
   28MOL0     H 3739   0.705   7.924  10.013 -1.3130 -0.1646 -2.6750
   28MOL0     H 3740   0.561   8.165   9.703 -0.3287 -1.0292  0.2177
   28MOL0     H 3741   0.329   8.194   9.670  1.7972  1.5992 -0.1534
   28MOL0     H 3742  -0.084   8.063  10.154  2.8971  1.4120 -0.4252
   28MOL0     H 3743  -0.329   8.069  10.185  0.0901  0.3671  0.3667
   28MOL0     H 3744  -0.586   8.170   9.833 -1.4573 -1.2652 -1.8520
   28MOL0     H 3745  -0.645   8.008   9.879 -1.9621  1.0023  0.1362
   28MOL0     H 3746  -0.698   8.242  10.063  1.7453 -0.3680 -0.4177
   28MOL0     H 3747  -0.774   8.250   9.908  1.6192  1.8029  1.3762
   28MOL0     H 3748  -0.849   8.014   9.947 -0.7554  0.0600  0.6103
   28MOL0     H 3749  -0.807   8.052  10.117  1.1404 -1.3955 -1.5866
   28MOL0     H 3750  -0.976   8.249   9.952  2.0135 -1.1108 -1.1006
   28MOL0     H 3751  -0.978   8.236  10.121 -0.9329 -0.2610  1.2283
   28MOL0     H 3752  -1.113   8.031  10.102 -0.7945 -0.9577 -1.6041
   28MOL0     H 3753  -1.073   8.035   9.926  2.8390  0.3772  0.5246
   28MOL0     H 3754  -1.215   8.279  10.043 -1.4354 -0.2813 -0.4663
   28MOL0     H 3755  -1.241   8.212   9.887  0.5759  1.3702 -0.6096
   28MOL0     H 3756  -1.340   8.074  10.145 -2.9840 -1.3285 -0.9974
   28MOL0     H 3757  -1.367   8.020   9.980 -0.6341 -0.5247  0.0549
   28MOL0     H 3758  -1.482   8.245   9.939  1.3268  1.9526  0.1107
   28MOL0     H 3759  -1.552   8.124  10.059  0.7816  0.3507  0.5121
   28MOL0     H 3760  -0.394   8.080   9.769 -1.6465  2.1612  0.5545
   28MOL0     H 3761  -0.141   8.075   9.724 -1.3484 -1.1789 -0.1382
   28MOL0     H 3762   0.254   8.098  10.082 -1.0298  0.1638 -1.6252
   28MOL0     H 3763   0.485   8.073  10.122 -0.3774 -0.3590  0.5844
   28MOL0     H 3764   1.484   9.015  10.431 -0.1232  4.1858 -0.6187
   28MOL0     H 3765   1.261   9.068  10.453  1.9785  0.9875 -0.3430
   28MOL0     H 3766   0.923   9.233  10.301  0.4564  0.3607 -0.5986
   28MOL0     H 3767   0.717   9.337  10.344 -1.4344  0.6270  0.0763
   28MOL0     H 3768   0.557   9.444  10.229 -1.9814 -0.3364 -2.3356
   28MOL0     H 3769   0.458   9.408  10.377  2.4768  1.3207  0.6420
   28MOL0     H 3770   0.269   9.442  10.243 -1.4264  0.0311 -0.1504
   28MOL0     H 3771   0.372   9.492  10.105  0.6447  2.8096  0.6291
   28MOL0     H 3772   0.482   9.632  10.316  0.9422  1.9001 -0.0358
   28MOL0     H 3773   0.309   9.659  10.348 -0.5041  0.1083 -1.0221
   28MOL0     H 3774   0.282   9.721  10.090 -0.2155  0.3287 -2.0204
   28MOL0     H 3775   0.352   9.837  10.198  3.0979  1.2106 -0.3396
   28MOL0     H 3776   0.673   9.713   9.953  1.3682  1.7051  1.0549
   28MOL0     H 3777   0.507   9.050  10.099 -0.4981 -1.8189  3.1845
   28MOL0     H 3778   0.631   8.881   9.995  1.1910 -1.7384 -0.3977
   28MOL0     H 3779   0.797   8.932   9.965  0.1159  1.3791 -0.3276
   28MOL0     H 3780   0.753   8.799  10.086  0.2758  0.8649 -0.0550
   29MOL0     O 3781   4.547   1.361   5.879  0.1233  0.0741 -0.3325
   29MOL0     C 3782   4.478   1.430   5.813  0.0300 -0.2838  0.1382
   29MOL0     O 3783   4.515   1.482   5.687 -0.3154 -0.3767 -0.1477
   29MOL0     C 3784   4.646   1.507   5.662 -0.8575 -0.0081  0.2820
   29MOL0     C 3785   4.693   1.640   5.646  0.7390 -0.0819  0.5747
   29MOL0     C 3786   4.837   1.658   5.621  0.7719 -0.5444  0.6447
   29MOL0     C 3787   4.918   1.547   5.590 -0.0582 -0.8748 -0.5114
   29MOL0     O 3788   5.048   1.536   5.551 -0.1232 -0.3878 -0.2284
   29MOL0     C 3789   5.110   1.659   5.493  1.0339  0.5581  0.4388
   29MOL0     C 3790   5.248   1.631   5.430 -0.4905  0.4991 -0.6828
   29MOL0     C 3791   5.345   1.754   5.462  0.4817  0.7196 -0.2937
   29MOL0     C 3792   5.472   1.755   5.365 -0.7033 -0.1717  0.3887
   29MOL0     C 3793   5.571   1.866   5.397 -0.1882  0.2260 -0.7442
   29MOL0     C 3794   5.693   1.871   5.313 -0.1791  0.2943  0.1430
   29MOL0     C 3795   5.779   1.998   5.343  0.6190 -0.3617 -0.7043
   29MOL0     C 3796   5.927   1.982   5.292  0.6241  0.2227 -0.1038
   29MOL0     N 3797   5.987   2.112   5.309 -0.4306  0.0966 -0.0092
   29MOL0     C 3798   6.014   2.198   5.202 -0.4139  0.2241  0.4688
   29MOL0     C 3799   6.051   2.312   5.253 -0.4842 -0.5711 -1.0864
   29MOL0     C 3800   6.093   2.432   5.178 -0.1470 -0.5307  0.2862
   29MOL0     C 3801   6.118   2.558   5.262  0.2696 -0.6455  0.6621
   29MOL0     C 3802   6.198   2.665   5.192 -0.7982 -0.0652  0.8129
   29MOL0     C 3803   6.346   2.646   5.178 -0.6978 -0.2370 -0.5812
   29MOL0     O 3804   6.414   2.658   5.306  0.2080  0.0945  0.7973
   29MOL0     C 3805   6.549   2.691   5.316  0.5293 -0.4113 -0.5708
   29MOL0     C 3806   6.615   2.698   5.447  0.1859 -0.6421  0.4674
   29MOL0     C 3807   6.754   2.722   5.453  0.0795  0.4191 -0.2670
   29MOL0     C 3808   6.827   2.724   5.333 -0.2909 -0.4757 -0.4941
   29MOL0     C 3809   6.974   2.732   5.326 -0.1934 -0.3217  0.3476
   29MOL0     O 3810   7.052   2.652   5.411 -0.1293  0.5730  0.6119
   29MOL0     C 3811   7.187   2.670   5.440  0.0771  0.6061  0.3935
   29MOL0     C 3812   7.265   2.778   5.402 -0.2161 -0.2715 -0.1098
   29MOL0     C 3813   7.397   2.787   5.446  0.3400  0.4840  0.8059
   29MOL0     C 3814   7.459   2.686   5.520  0.6407  0.5525  0.0185
   29MOL0     O 3815   7.591   2.666   5.549  0.2609  0.5152 -0.9825
   29MOL0     C 3816   7.676   2.692   5.429 -0.0368  0.6937 -0.1999
   29MOL0     C 3817   7.820   2.695   5.464  0.5409  0.1725 -0.4294
   29MOL0     C 3818   7.864   2.555   5.491 -0.6022  0.0985 -0.1743
   29MOL0     C 3819   8.016   2.543   5.467 -0.4495 -0.0767  0.6691
   29MOL0     C 3820   8.101   2.611   5.569  0.5362  0.5018  0.2002
   29MOL0     C 3821   8.193   2.503   5.634 -0.7856 -0.8253 -0.2914
   29MOL0     C 3822   8.289   2.572   5.725 -0.0287 -0.7502  0.2808
   29MOL0     C 3823   8.352   2.482   5.833 -0.5307 -0.4141  0.6739
   29MOL0    Cl 3824   8.245   2.411   5.950  0.3186 -0.4358  0.3571
   29MOL0     C 3825   7.374   2.588   5.573  0.0934 -0.1819 -0.5465
   29MOL0     C 3826   7.239   2.586   5.537 -0.3913  0.4991  0.1047
   29MOL0     O 3827   7.019   2.813   5.248 -0.0636 -0.2618 -0.0505
   29MOL0     C 3828   6.761   2.709   5.210 -0.4395 -0.6238 -0.2144
   29MOL0     C 3829   6.627   2.712   5.208  0.7988 -0.2022  0.8599
   29MOL0     N 3830   6.064   2.291   5.392 -0.2569 -0.5027  0.5695
   29MOL0     N 3831   6.030   2.174   5.424 -0.1752  0.1845 -0.0385
   29MOL0     C 3832   4.865   1.420   5.607 -0.0517 -0.3842  0.3027
   29MOL0     C 3833   4.740   1.399   5.656 -0.4053  0.9000  0.7581
   29MOL0     C 3834   4.337   1.462   5.860 -0.2959  0.5783 -0.8613
   29MOL0     C 3835   4.253   1.519   5.770 -0.4236  0.2699 -0.0358
   29MOL0     C 3836   4.125   1.555   5.808  0.0283 -0.1305  0.2787
   29MOL0     C 3837   4.069   1.514   5.927 -0.2177 -0.7188  0.1756
   29MOL0     O 3838   3.934   1.549   5.932 -0.4686  0.3879 -0.6225
   29MOL0     C 3839   3.871   1.548   6.061 -0.7896 -0.2340  0.5520
   29MOL0     C 3840   3.838   1.412   6.116  1.1163 -0.2012  0.1787
   29MOL0     C 3841   3.711   1.409   6.198 -0.1431  0.5965  0.3542
   29MOL0     C 3842   3.592   1.425   6.112 -0.0723  0.2946 -0.4907
   29MOL0     C 3843   3.473   1.405   6.198  0.1672  0.2365  0.5660
   29MOL0     C 3844   3.376   1.391   6.268  0.0889  0.6038 -0.5739
   29MOL0     C 3845   4.149   1.448   6.012 -0.1292  0.5626 -0.2642
   29MOL0     C 3846   4.282   1.424   5.984  0.0936  0.4615 -0.1791
   29MOL0     C 3847   4.354   1.351   6.103  0.8185 -0.2606 -0.4210
   29MOL0     H 3848   4.629   1.727   5.647  2.1871  1.0479  3.1375
   29MOL0     H 3849   4.868   1.760   5.606  2.5657 -0.9408  1.4373
   29MOL0     H 3850   5.046   1.697   5.413 -3.0428 -1.7756  2.2353
   29MOL0     H 3851   5.113   1.742   5.564  0.7730  3.0818 -2.3369
   29MOL0     H 3852   5.232   1.613   5.323 -0.8904 -2.2566 -0.2443
   29MOL0     H 3853   5.284   1.539   5.477 -0.3970  0.6034 -0.5480
   29MOL0     H 3854   5.386   1.762   5.563  2.1369  0.8293 -0.9413
   29MOL0     H 3855   5.283   1.842   5.442  0.7300  0.9615 -0.0082
   29MOL0     H 3856   5.524   1.661   5.389  0.7194  0.0623 -1.5606
   29MOL0     H 3857   5.438   1.765   5.262 -0.7810 -0.4897  0.3833
   29MOL0     H 3858   5.505   1.952   5.379  1.0225  0.8826 -2.2559
   29MOL0     H 3859   5.606   1.870   5.501 -1.1374  1.8987 -0.4524
   29MOL0     H 3860   5.760   1.787   5.334 -0.2109  0.5906  1.5529
   29MOL0     H 3861   5.672   1.873   5.206 -0.1906 -0.1626  0.1356
   29MOL0     H 3862   5.788   2.014   5.451 -1.8854  1.4025 -0.6618
   29MOL0     H 3863   5.736   2.087   5.296 -2.3997  0.8638  3.7277
   29MOL0     H 3864   5.980   1.902   5.345 -1.6683 -0.7428  0.8531
   29MOL0     H 3865   5.937   1.961   5.185 -1.8087  1.4014 -0.6273
   29MOL0     H 3866   5.999   2.179   5.096 -3.7266  0.6253  0.7696
   29MOL0     H 3867   6.189   2.408   5.131  0.6236  2.4329  0.1163
   29MOL0     H 3868   6.026   2.460   5.096  1.9302  2.4128 -0.5739
   29MOL0     H 3869   6.023   2.600   5.297  0.9546  0.1440  1.6567
   29MOL0     H 3870   6.172   2.531   5.353  0.2609 -1.5220  0.4146
   29MOL0     H 3871   6.177   2.763   5.237  0.0972  1.0334 -1.0420
   29MOL0     H 3872   6.149   2.665   5.094 -0.9327  1.7878  0.8389
   29MOL0     H 3873   6.373   2.723   5.105 -0.7985  0.4800  0.1327
   29MOL0     H 3874   6.375   2.551   5.132  1.4290 -0.8480  1.7779
   29MOL0     H 3875   6.557   2.692   5.539  2.0945 -0.5296  1.7393
   29MOL0     H 3876   6.805   2.734   5.548 -0.9618  1.8720  0.1304
   29MOL0     H 3877   7.228   2.862   5.345 -2.0524 -1.6551 -1.0935
   29MOL0     H 3878   7.457   2.877   5.433  2.1776 -1.0230 -2.3845
   29MOL0     H 3879   7.658   2.629   5.342 -1.9900  2.5690 -1.2264
   29MOL0     H 3880   7.658   2.793   5.393  0.0881  0.6075 -0.5046
   29MOL0     H 3881   7.878   2.742   5.384 -1.9523  2.9244 -0.7642
   29MOL0     H 3882   7.839   2.756   5.553 -2.8557  1.7669 -0.6389
   29MOL0     H 3883   7.848   2.531   5.596  0.9239 -0.6499 -0.0943
   29MOL0     H 3884   7.811   2.483   5.427  0.3294  2.0310 -3.3833
   29MOL0     H 3885   8.045   2.576   5.367  1.4093 -1.8680  0.5625
   29MOL0     H 3886   8.032   2.435   5.467 -0.5923 -0.1040  1.8628
   29MOL0     H 3887   8.039   2.652   5.649 -0.6284 -1.0256  0.1373
   29MOL0     H 3888   8.153   2.693   5.519  2.3349 -1.4429 -1.3265
   29MOL0     H 3889   8.123   2.435   5.683  1.5453 -3.5138 -0.4439
   29MOL0     H 3890   8.250   2.445   5.560 -0.5518 -0.8340 -0.1059
   29MOL0     H 3891   8.227   2.644   5.779 -0.5522 -0.6538 -0.4417
   29MOL0     H 3892   8.367   2.620   5.665 -2.3383  1.8234 -0.8814
   29MOL0     H 3893   8.419   2.411   5.785 -0.8608 -0.8142  0.8036
   29MOL0     H 3894   8.417   2.534   5.903 -1.2778  0.2467  0.8978
   29MOL0     H 3895   7.411   2.511   5.641 -1.5802  0.0967  0.7539
   29MOL0     H 3896   7.182   2.514   5.594 -0.5254  1.9825  1.9359
   29MOL0     H 3897   6.820   2.702   5.119 -4.4792  0.8755 -3.1988
   29MOL0     H 3898   6.580   2.708   5.110  4.0299 -1.6256 -0.7616
   29MOL0     H 3899   4.937   1.338   5.601  0.3630 -0.3188  3.1136
   29MOL0     H 3900   4.715   1.294   5.662  0.4938  0.4601 -1.8435
   29MOL0     H 3901   4.290   1.550   5.673 -0.5103  3.6270  0.8968
   29MOL0     H 3902   4.069   1.622   5.743  2.4500  2.0799  0.3655
   29MOL0     H 3903   3.783   1.603   6.027  0.6292  1.7121 -0.2234
   29MOL0     H 3904   3.940   1.604   6.125 -0.0064  0.3412 -0.7496
   29MOL0     H 3905   3.912   1.360   6.179 -0.2782 -1.3092  0.9631
   29MOL0     H 3906   3.827   1.350   6.027  0.9192  1.3776 -0.9267
   29MOL0     H 3907   3.709   1.478   6.283 -2.3650  0.9224  0.0922
   29MOL0     H 3908   3.706   1.306   6.236 -0.3464  0.4787  0.0190
   29MOL0     H 3909   3.604   1.525   6.069  2.9198 -0.6605 -2.2044
   29MOL0     H 3910   3.609   1.366   6.021 -0.8530  0.2278 -0.5974
   29MOL0     H 3911   3.291   1.377   6.332 -0.7342  5.5010 -0.2605
   29MOL0     H 3912   4.108   1.409   6.105  2.2696 -0.8233  0.2811
   29MOL0     H 3913   4.283   1.285   6.155  1.6884  0.2737  1.5600
   29MOL0     H 3914   4.439   1.289   6.074  0.9803  0.5431 -1.7302
   29MOL0     H 3915   4.393   1.427   6.171  1.5327 -0.4918 -0.5612
   30MOL0     O 3916   8.123   5.754   3.373 -0.4780  0.9435  0.1095
   30MOL0     C 3917   8.049   5.813   3.447  0.2270 -0.0352  0.2068
   30MOL0     O 3918   8.073   5.845   3.569 -0.2850 -0.7007 -0.5096
   30MOL0     C 3919   8.200   5.859   3.619  0.8348  0.1448 -0.1592
   30MOL0     C 3920   8.230   5.763   3.718 -0.0385  0.3435  0.6312
   30MOL0     C 3921   8.368   5.756   3.748 -0.0565  0.3629  1.3342
   30MOL0     C 3922   8.464   5.841   3.690  1.0711 -0.7525  0.7310
   30MOL0     O 3923   8.588   5.818   3.733 -0.0686 -1.0709 -0.2342
   30MOL0     C 3924   8.693   5.870   3.655 -0.6355  0.2314 -0.2712
   30MOL0     C 3925   8.840   5.819   3.678  0.2671  0.3984 -0.2008
   30MOL0     C 3926   8.948   5.927   3.631  0.7800  0.7817 -0.2558
   30MOL0     C 3927   9.091   5.870   3.648 -1.0935 -0.3428  0.5438
   30MOL0     C 3928   9.191   5.966   3.581  0.6797  0.0946  0.1161
   30MOL0     C 3929   9.206   6.101   3.654 -1.1848 -0.1916  0.1716
   30MOL0     C 3930   9.287   6.196   3.564  0.2295 -0.5305  0.7982
   30MOL0     C 3931   9.255   6.345   3.611 -0.1295 -0.5052 -0.4348
   30MOL0     N 3932   9.334   6.437   3.530 -0.4314 -0.5275  0.3814
   30MOL0     C 3933   9.466   6.458   3.538 -0.4354 -0.4259 -0.1946
   30MOL0     C 3934   9.499   6.554   3.450 -0.2109  0.3215  0.3096
   30MOL0     C 3935   9.636   6.602   3.425  0.3409 -0.5255 -0.3783
   30MOL0     C 3936   9.664   6.581   3.282  0.4267 -0.0870 -0.1124
   30MOL0     C 3937   9.799   6.640   3.254  0.4605 -0.3206  0.4511
   30MOL0     C 3938   9.824   6.632   3.106  0.3380  0.3864 -0.2291
   30MOL0     O 3939   9.951   6.676   3.070  0.1307 -0.5395 -0.0674
   30MOL0     C 3940  10.062   6.595   3.083  0.4442  0.2275  0.6215
   30MOL0     C 3941  10.190   6.650   3.053  0.4263 -0.4660  0.9303
   30MOL0     C 3942  10.307   6.574   3.050 -0.8032  0.2485 -0.6467
   30MOL0     C 3943  10.304   6.434   3.076 -0.2798 -0.4973 -0.1088
   30MOL0     C 3944  10.431   6.359   3.083 -0.4495 -0.2408  0.2121
   30MOL0     O 3945  10.554   6.422   3.094 -0.5066  0.2087 -0.3614
   30MOL0     C 3946  10.673   6.361   3.053 -0.7389 -0.2215  0.6462
   30MOL0     C 3947  10.781   6.363   3.143 -0.0443  1.4968  0.3649
   30MOL0     C 3948  10.905   6.298   3.109  0.9035  0.8993  0.5521
   30MOL0     C 3949  10.919   6.233   2.989 -0.7919  0.2860 -0.2802
   30MOL0     O 3950  11.041   6.168   2.962 -0.5203  0.3658  0.1237
   30MOL0     C 3951  11.058   6.072   2.857 -0.1043  0.4750  1.2779
   30MOL0     C 3952  11.203   6.030   2.834  0.7013  0.9529 -0.4268
   30MOL0     C 3953  11.305   6.123   2.896 -0.4167 -0.8543  0.4505
   30MOL0     C 3954  11.449   6.092   2.868  0.6478  0.1640 -0.1432
   30MOL0     C 3955  11.539   6.193   2.929  0.5607 -0.1187  0.6024
   30MOL0     C 3956  11.681   6.202   2.886 -0.1223  0.2085  0.7678
   30MOL0     C 3957  11.769   6.090   2.941 -0.1716  0.1824 -0.7286
   30MOL0     C 3958  11.923   6.110   2.915  0.2505  0.0467 -0.2418
   30MOL0    Cl 3959  11.956   6.160   2.741  0.6232 -0.2133 -0.5988
   30MOL0     C 3960  10.813   6.244   2.901  0.5379  0.1853  0.7451
   30MOL0     C 3961  10.689   6.300   2.927 -0.7839  0.2246 -0.9328
   30MOL0     O 3962  10.420   6.239   3.062  0.2304  1.3736  0.4726
   30MOL0     C 3963  10.179   6.380   3.116 -0.1300 -0.0265  0.2933
   30MOL0     C 3964  10.059   6.459   3.115  0.9054  0.2742  0.3770
   30MOL0     N 3965   9.380   6.592   3.384 -0.2509 -0.7464  0.6220
   30MOL0     N 3966   9.280   6.523   3.439 -0.0013  0.1515 -0.6477
   30MOL0     C 3967   8.428   5.942   3.593  1.0249 -0.4257 -0.5678
   30MOL0     C 3968   8.287   5.953   3.561  0.0519  0.9393 -1.0221
   30MOL0     C 3969   7.908   5.844   3.405  0.0441  0.2428 -0.5941
   30MOL0     C 3970   7.814   5.859   3.503  0.2337  0.0686 -0.0809
   30MOL0     C 3971   7.682   5.900   3.482 -0.1243 -0.2467 -0.7125
   30MOL0     C 3972   7.645   5.924   3.354  0.0535 -0.1167 -0.2912
   30MOL0     O 3973   7.512   5.946   3.325  0.1585 -0.1881  0.1939
   30MOL0     C 3974   7.420   5.943   3.428  0.5204  0.2874 -0.3614
   30MOL0     C 3975   7.283   5.977   3.368 -0.5130  0.1343 -0.0105
   30MOL0     C 3976   7.158   5.951   3.459 -0.7323 -0.5746 -0.0792
   30MOL0     C 3977   7.030   5.991   3.377 -0.1569  0.3483 -0.2894
   30MOL0     C 3978   7.008   5.898   3.265  1.2500  0.8188 -0.1260
   30MOL0     C 3979   6.985   5.824   3.173  0.4108 -0.8451  0.0939
   30MOL0     C 3980   7.743   5.920   3.257  0.3171 -0.1361 -0.8343
   30MOL0     C 3981   7.874   5.881   3.271 -0.4752  0.2876  0.2245
   30MOL0     C 3982   7.958   5.902   3.148  0.2030 -1.1884  0.1989
   30MOL0     H 3983   8.155   5.707   3.772  0.1069 -0.2826  0.2003
   30MOL0     H 3984   8.401   5.693   3.830  2.4109 -0.8892 -0.4845
   30MOL0     H 3985   8.665   5.848   3.551 -0.7485 -0.9718  0.0027
   30MOL0     H 3986   8.680   5.976   3.676 -0.8625 -0.0503  1.0918
   30MOL0     H 3987   8.856   5.720   3.635 -1.1541  0.3904 -0.7547
   30MOL0     H 3988   8.847   5.796   3.785 -1.5381 -3.1077 -0.7150
   30MOL0     H 3989   8.929   6.022   3.682 -1.3088  0.5055 -0.4081
   30MOL0     H 3990   8.927   5.952   3.526 -0.2424  1.3799  0.0764
   30MOL0     H 3991   9.118   5.866   3.754 -0.5187  1.9832  0.5407
   30MOL0     H 3992   9.093   5.768   3.607  2.3314 -0.3356  0.4404
   30MOL0     H 3993   9.290   5.920   3.589  0.4905 -0.2950  0.2169
   30MOL0     H 3994   9.171   5.976   3.474  2.0564 -2.3220 -0.4463
   30MOL0     H 3995   9.113   6.153   3.681 -0.6695  0.6071  0.4396
   30MOL0     H 3996   9.259   6.076   3.746 -1.6098  0.7390  0.6858
   30MOL0     H 3997   9.270   6.199   3.456 -0.4392 -1.5599  0.8602
   30MOL0     H 3998   9.391   6.166   3.578 -0.4344 -2.2697  2.4097
   30MOL0     H 3999   9.149   6.361   3.591 -0.0779  0.3863 -0.0679
   30MOL0     H 4000   9.271   6.356   3.718 -0.9579 -1.8215 -0.1637
   30MOL0     H 4001   9.535   6.397   3.596 -2.7114 -2.9915  0.0099
   30MOL0     H 4002   9.633   6.711   3.437  1.1234 -0.6060  0.7455
   30MOL0     H 4003   9.711   6.547   3.483 -0.3520  0.3104  1.3676
   30MOL0     H 4004   9.680   6.474   3.262  1.0717  0.0514 -0.3414
   30MOL0     H 4005   9.582   6.620   3.220  0.0608 -1.9946 -0.9136
   30MOL0     H 4006   9.878   6.597   3.315  1.6455  1.9611  0.6377
   30MOL0     H 4007   9.804   6.745   3.286  0.5624 -0.6406  1.5113
   30MOL0     H 4008   9.740   6.681   3.057 -1.8439 -1.9147  0.9465
   30MOL0     H 4009   9.811   6.525   3.085 -0.2238  0.1326  1.2799
   30MOL0     H 4010  10.195   6.756   3.031  0.2123 -0.8596 -1.2042
   30MOL0     H 4011  10.395   6.632   3.024 -1.0353  0.4714 -0.9488
   30MOL0     H 4012  10.767   6.433   3.225 -0.6186 -0.0748  1.6819
   30MOL0     H 4013  10.991   6.310   3.173  2.2385 -0.2927 -0.9502
   30MOL0     H 4014  11.004   5.984   2.893  1.0794  0.3419  2.8476
   30MOL0     H 4015  11.027   6.111   2.759  0.8953 -1.8384 -0.0477
   30MOL0     H 4016  11.221   5.933   2.881  1.1721  1.1158 -0.2565
   30MOL0     H 4017  11.227   6.007   2.730 -1.1754  1.1852 -0.9373
   30MOL0     H 4018  11.294   6.221   2.849 -1.2822  0.1960  2.7014
   30MOL0     H 4019  11.284   6.136   3.003  0.5219 -1.5659  0.7379
   30MOL0     H 4020  11.453   6.089   2.759  0.5498 -0.7980 -0.1303
   30MOL0     H 4021  11.471   5.995   2.915 -2.1869 -1.1678 -1.2962
   30MOL0     H 4022  11.545   6.174   3.037 -0.5057 -0.1025  0.6759
   30MOL0     H 4023  11.494   6.292   2.912 -0.6242 -0.0591  3.4204
   30MOL0     H 4024  11.680   6.187   2.778  2.4569 -1.0336  0.8418
   30MOL0     H 4025  11.727   6.298   2.912  0.8814  0.1970 -0.7854
   30MOL0     H 4026  11.737   5.992   2.904  2.2671 -1.2835  0.7666
   30MOL0     H 4027  11.757   6.088   3.050  0.0615  1.7578 -0.6452
   30MOL0     H 4028  11.952   6.190   2.985 -3.0503 -0.8139  2.3673
   30MOL0     H 4029  11.973   6.017   2.944 -1.6527 -0.7302  0.7092
   30MOL0     H 4030  10.819   6.196   2.804  1.8065 -1.9262  1.7944
   30MOL0     H 4031  10.603   6.302   2.860  0.3932  0.2956 -2.4955
   30MOL0     H 4032  10.164   6.276   3.144  1.5157 -0.3298  0.0977
   30MOL0     H 4033   9.964   6.414   3.143  0.2352  2.0894  1.1900
   30MOL0     H 4034   8.504   6.008   3.553  1.3956 -0.8819 -0.6151
   30MOL0     H 4035   8.251   6.014   3.479 -0.9242 -1.1358 -2.1994
   30MOL0     H 4036   7.831   5.830   3.606  0.7582 -1.8140 -0.6485
   30MOL0     H 4037   7.619   5.911   3.570  1.1476  1.5686  0.0532
   30MOL0     H 4038   7.449   6.008   3.511  1.3595 -0.5851  0.0464
   30MOL0     H 4039   7.421   5.839   3.459  1.6155  0.3502 -0.1530
   30MOL0     H 4040   7.275   5.919   3.276  1.8458 -2.2614  1.1595
   30MOL0     H 4041   7.297   6.080   3.335  1.9326 -0.1542 -0.0588
   30MOL0     H 4042   7.175   6.002   3.554 -0.8225 -0.4877 -0.1095
   30MOL0     H 4043   7.146   5.844   3.477 -1.1970 -0.0340  3.4289
   30MOL0     H 4044   6.941   6.006   3.439 -1.0006  0.3038 -1.4578
   30MOL0     H 4045   7.032   6.092   3.334  0.9628  0.0812 -0.9084
   30MOL0     H 4046   6.964   5.759   3.090  0.2483  0.7877 -1.1920
   30MOL0     H 4047   7.710   5.948   3.157  1.8205 -1.0525 -1.6304
   30MOL0     H 4048   7.904   5.867   3.060  0.1572 -0.4455 -0.0794
   30MOL0     H 4049   7.992   6.003   3.123  0.7113 -1.8135 -1.8401
   30MOL0     H 4050   8.051   5.845   3.143  1.2218  0.5059 -2.2342
   31MOL0     O 4051   0.600   4.482   4.788  0.3891 -0.1314  0.3414
   31MOL0     C 4052   0.557   4.486   4.903 -0.0732 -0.8972 -0.6255
   31MOL0     O 4053   0.579   4.392   4.994  0.3163  0.1025 -0.2695
   31MOL0     C 4054   0.676   4.301   4.969 -0.0665 -1.1400  0.2667
   31MOL0     C 4055   0.657   4.164   5.000  1.1173 -0.5837  0.2537
   31MOL0     C 4056   0.745   4.064   4.968 -0.0440 -0.2720 -0.1974
   31MOL0     C 4057   0.864   4.087   4.910 -0.0139  0.1225 -0.3846
   31MOL0     O 4058   0.959   3.995   4.887 -0.2431 -0.2728 -0.1845
   31MOL0     C 4059   1.068   4.012   4.793 -0.0305 -1.5248 -0.2776
   31MOL0     C 4060   1.147   3.887   4.783  0.1819 -0.0166 -0.1649
   31MOL0     C 4061   1.284   3.916   4.723 -0.4220 -0.9429  0.1291
   31MOL0     C 4062   1.290   3.967   4.582 -0.4325 -0.5327  0.4185
   31MOL0     C 4063   1.430   3.987   4.518 -0.5876 -0.5170  0.8087
   31MOL0     C 4064   1.406   4.033   4.377  0.3649  1.0102 -0.9129
   31MOL0     C 4065   1.530   4.025   4.296  0.9369  0.0375  0.3569
   31MOL0     C 4066   1.527   4.132   4.186 -0.3645 -0.3964  0.0245
   31MOL0     N 4067   1.626   4.091   4.082 -0.2036 -0.2578  0.2591
   31MOL0     C 4068   1.597   3.993   3.995  1.0320 -0.1825  0.1785
   31MOL0     C 4069   1.702   4.000   3.914  0.3936 -0.1016  0.2362
   31MOL0     C 4070   1.714   3.933   3.784  0.4871 -0.0398 -0.6970
   31MOL0     C 4071   1.734   3.783   3.811  1.0325  0.0762  0.4591
   31MOL0     C 4072   1.722   3.691   3.692 -0.6905  0.5200 -0.1549
   31MOL0     C 4073   1.622   3.728   3.579 -0.6787 -0.5154 -0.4892
   31MOL0     O 4074   1.503   3.771   3.647  0.1679  0.2825  0.7109
   31MOL0     C 4075   1.399   3.811   3.584  0.2093 -0.1288 -0.1460
   31MOL0     C 4076   1.284   3.744   3.616  0.5564 -0.5113  0.1334
   31MOL0     C 4077   1.164   3.800   3.575  0.4791  0.3654 -0.5145
   31MOL0     C 4078   1.153   3.900   3.474  0.2652 -0.3071 -0.1367
   31MOL0     C 4079   1.019   3.937   3.429  0.6753 -0.0304  0.0006
   31MOL0     O 4080   0.910   3.866   3.472  0.6750  0.8401 -0.3647
   31MOL0     C 4081   0.784   3.899   3.432  0.4949  0.5386 -1.7294
   31MOL0     C 4082   0.694   3.792   3.416 -0.2780  0.8740  0.1066
   31MOL0     C 4083   0.564   3.813   3.365 -0.3805  0.2341 -0.1886
   31MOL0     C 4084   0.519   3.941   3.342 -0.3463 -0.7802  0.4587
   31MOL0     O 4085   0.395   3.982   3.288  0.3418  0.0708 -0.1065
   31MOL0     C 4086   0.302   3.882   3.231  0.0142 -0.8654 -0.1993
   31MOL0     C 4087   0.168   3.949   3.205  0.0459  0.2349  0.2370
   31MOL0     C 4088   0.179   4.048   3.078  0.1997 -0.6666  0.6718
   31MOL0     C 4089   0.173   3.958   2.958 -0.5229 -0.4136 -0.3198
   31MOL0     C 4090   0.178   4.014   2.817 -0.7950 -0.6126 -0.3659
   31MOL0     C 4091   0.072   4.127   2.791 -0.5704 -0.6198 -0.1858
   31MOL0     C 4092  -0.077   4.093   2.804 -0.1509  0.3795  0.2703
   31MOL0     C 4093  -0.174   4.198   2.739  0.7188  0.5417 -0.3726
   31MOL0    Cl 4094  -0.197   4.138   2.575  0.3871  0.2774  0.3555
   31MOL0     C 4095   0.603   4.048   3.374  0.2955 -0.1313  0.2473
   31MOL0     C 4096   0.736   4.033   3.413  0.1164 -0.1233 -0.8939
   31MOL0     O 4097   1.020   4.044   3.364  0.2319 -0.9168  0.2971
   31MOL0     C 4098   1.270   3.942   3.416 -0.2160 -0.0204 -0.4022
   31MOL0     C 4099   1.396   3.903   3.476 -0.6641  0.4410  0.1247
   31MOL0     N 4100   1.786   4.095   3.944 -0.1056 -0.7817  0.0633
   31MOL0     N 4101   1.742   4.150   4.047  0.3043  0.4037 -0.0529
   31MOL0     C 4102   0.894   4.224   4.885 -0.0752  0.8773  0.9892
   31MOL0     C 4103   0.800   4.324   4.908  0.9425 -0.4111  0.2003
   31MOL0     C 4104   0.447   4.589   4.941  0.9092  0.4973  0.9244
   31MOL0     C 4105   0.358   4.553   5.050  1.4507 -0.0976  0.0412
   31MOL0     C 4106   0.259   4.643   5.107  0.4025  0.4489  0.6980
   31MOL0     C 4107   0.252   4.766   5.046  0.7621  0.0902 -0.0077
   31MOL0     O 4108   0.166   4.867   5.087 -0.0800 -0.0319 -0.5994
   31MOL0     C 4109   0.057   4.832   5.177  0.0495  0.6001  0.5932
   31MOL0     C 4110  -0.038   4.949   5.178 -0.5994 -0.2146 -0.6380
   31MOL0     C 4111  -0.143   4.927   5.281  0.8831 -0.2750 -0.9135
   31MOL0     C 4112  -0.235   5.059   5.290  0.6958 -0.1738  0.2879
   31MOL0     C 4113  -0.354   5.044   5.381  0.1676  0.5009  1.1475
   31MOL0     C 4114  -0.447   5.035   5.456  0.2917 -0.5847  0.5823
   31MOL0     C 4115   0.339   4.803   4.947 -0.6531  0.4767 -0.2869
   31MOL0     C 4116   0.439   4.717   4.901  0.3683 -0.1693  0.6569
   31MOL0     C 4117   0.541   4.770   4.799  0.3100 -0.4301  0.1686
   31MOL0     H 4118   0.567   4.141   5.056  0.2315  0.7878 -0.5661
   31MOL0     H 4119   0.709   3.967   5.000 -0.7145  0.8160  2.6650
   31MOL0     H 4120   1.025   4.038   4.696  3.3551 -1.4138 -1.8902
   31MOL0     H 4121   1.129   4.101   4.812 -2.5943  0.4700 -0.7769
   31MOL0     H 4122   1.095   3.817   4.717 -1.1000  1.8462 -1.2272
   31MOL0     H 4123   1.161   3.836   4.879 -3.2717 -0.7013  0.1145
   31MOL0     H 4124   1.330   3.817   4.728  0.7246 -0.3660  1.8518
   31MOL0     H 4125   1.338   3.987   4.786  1.4320  2.1104 -4.3573
   31MOL0     H 4126   1.245   3.885   4.526  0.7172 -0.7929 -0.1450
   31MOL0     H 4127   1.224   4.054   4.576 -1.3530 -1.2152  0.4073
   31MOL0     H 4128   1.488   4.066   4.567 -0.8530 -1.1329  2.1592
   31MOL0     H 4129   1.488   3.896   4.505 -0.6047 -0.1007 -4.8477
   31MOL0     H 4130   1.329   3.967   4.336  1.2564  0.6223 -2.0237
   31MOL0     H 4131   1.366   4.134   4.381  1.4071  1.5141 -2.2684
   31MOL0     H 4132   1.533   3.923   4.257  0.6180  0.0963  0.1733
   31MOL0     H 4133   1.619   4.038   4.359  0.4551 -1.9184  1.5070
   31MOL0     H 4134   1.429   4.130   4.137 -0.5758  1.8953  0.2834
   31MOL0     H 4135   1.543   4.236   4.215  0.6243  0.1979 -2.4206
   31MOL0     H 4136   1.514   3.926   3.974  1.9649 -1.0994 -0.7093
   31MOL0     H 4137   1.615   3.944   3.739 -0.5487 -0.4971  1.3291
   31MOL0     H 4138   1.791   3.977   3.721  1.7427 -0.5345  0.4432
   31MOL0     H 4139   1.822   3.756   3.871  2.6766  2.6764 -0.6173
   31MOL0     H 4140   1.656   3.754   3.881  0.9645  2.2291  1.3374
   31MOL0     H 4141   1.690   3.597   3.738  0.5732  1.2905  2.5090
   31MOL0     H 4142   1.822   3.678   3.649 -0.5387 -1.4096  0.6809
   31MOL0     H 4143   1.603   3.647   3.509  1.0724 -1.2766 -0.1348
   31MOL0     H 4144   1.668   3.814   3.530 -0.1833  0.3190  1.3355
   31MOL0     H 4145   1.277   3.652   3.673 -0.1712 -2.4756 -2.9357
   31MOL0     H 4146   1.067   3.763   3.608 -1.1540  3.4351 -1.4728
   31MOL0     H 4147   0.720   3.687   3.426 -1.3697  0.5079 -0.5971
   31MOL0     H 4148   0.497   3.733   3.336 -0.9853  0.8668 -0.5699
   31MOL0     H 4149   0.350   3.848   3.138  0.5734  1.8227 -0.9911
   31MOL0     H 4150   0.282   3.810   3.311  1.4037  0.6688  1.6297
   31MOL0     H 4151   0.104   3.862   3.188  3.2257 -1.8345 -2.3971
   31MOL0     H 4152   0.154   3.994   3.304  0.4754  0.1775  0.3293
   31MOL0     H 4153   0.100   4.123   3.085  0.0892 -0.5088 -1.5879
   31MOL0     H 4154   0.272   4.106   3.074  0.1669 -0.6228  0.5467
   31MOL0     H 4155   0.078   3.906   2.971  0.3209 -1.7778  0.5664
   31MOL0     H 4156   0.266   3.902   2.968  0.2310  0.7561 -0.4997
   31MOL0     H 4157   0.177   3.935   2.741 -3.9491 -0.9931 -0.0807
   31MOL0     H 4158   0.274   4.065   2.808 -2.2511  2.3004 -0.6295
   31MOL0     H 4159   0.099   4.212   2.854  3.6172 -2.3162  0.6014
   31MOL0     H 4160   0.094   4.172   2.693  1.4296  1.3547  1.0861
   31MOL0     H 4161  -0.103   4.090   2.910 -0.9011  1.8802  0.1480
   31MOL0     H 4162  -0.087   3.988   2.775  0.6743 -0.3409  2.3679
   31MOL0     H 4163  -0.263   4.194   2.802  0.2558  1.3210 -0.9790
   31MOL0     H 4164  -0.126   4.295   2.729  0.3230  0.7530 -0.2240
   31MOL0     H 4165   0.557   4.145   3.361  0.0270 -0.0553  1.6162
   31MOL0     H 4166   0.803   4.119   3.417  0.4422 -0.4151  2.5423
   31MOL0     H 4167   1.269   4.005   3.328  1.3187 -2.4919 -2.3003
   31MOL0     H 4168   1.488   3.954   3.447 -0.7306  1.8569  2.2291
   31MOL0     H 4169   0.991   4.259   4.851  0.2872 -0.0073  1.0887
   31MOL0     H 4170   0.832   4.426   4.893  3.8188 -1.0078  1.6480
   31MOL0     H 4171   0.351   4.452   5.088 -1.5118 -0.9891 -2.4454
   31MOL0     H 4172   0.198   4.602   5.187  1.6722 -0.7044  1.1331
   31MOL0     H 4173   0.091   4.796   5.275  2.5880 -2.9690 -1.3621
   31MOL0     H 4174   0.005   4.745   5.135  2.0752 -0.6666  0.5409
   31MOL0     H 4175  -0.086   4.969   5.082 -0.4119 -3.5517 -1.5642
   31MOL0     H 4176   0.018   5.031   5.224 -2.9516  0.0037  2.1328
   31MOL0     H 4177  -0.109   4.897   5.380 -4.1168 -2.1267  0.5773
   31MOL0     H 4178  -0.208   4.843   5.256 -1.3160  1.2209 -0.5611
   31MOL0     H 4179  -0.178   5.145   5.325 -0.7314  0.5290  0.9185
   31MOL0     H 4180  -0.264   5.082   5.187  0.2304  1.0925  0.6793
   31MOL0     H 4181  -0.531   5.023   5.521 -2.1214  1.8291 -1.8148
   31MOL0     H 4182   0.327   4.899   4.897 -1.3949  0.9273  0.7287
   31MOL0     H 4183   0.643   4.739   4.824  1.5007 -1.1440 -4.5686
   31MOL0     H 4184   0.542   4.727   4.698  2.1464 -1.5131  0.5888
   31MOL0     H 4185   0.529   4.879   4.796 -0.8874 -0.3854  3.1229
   32MOL0     O 4186   4.488   7.406   5.616  0.5905 -0.2133 -0.2305
   32MOL0     C 4187   4.442   7.295   5.624  0.4813  0.0619 -0.1860
   32MOL0     O 4188   4.518   7.180   5.629 -0.1625 -0.2328  0.2448
   32MOL0     C 4189   4.651   7.188   5.663  0.2975 -0.5360  0.9574
   32MOL0     C 4190   4.687   7.274   5.764  0.2130 -1.1545 -0.3487
   32MOL0     C 4191   4.822   7.275   5.807  0.0472 -0.4790  0.0708
   32MOL0     C 4192   4.922   7.211   5.736  0.3107 -0.1894  1.2717
   32MOL0     O 4193   5.057   7.237   5.760 -0.0504 -0.4930 -0.2672
   32MOL0     C 4194   5.149   7.139   5.717 -0.4410  0.2742 -0.9016
   32MOL0     C 4195   5.274   7.181   5.787  0.1953  0.3587  0.0227
   32MOL0     C 4196   5.387   7.082   5.784 -0.7029 -0.2061  0.5132
   32MOL0     C 4197   5.500   7.131   5.880 -0.6968  0.0407 -0.7403
   32MOL0     C 4198   5.628   7.047   5.861 -0.5757  0.2201 -1.7981
   32MOL0     C 4199   5.745   7.090   5.945 -0.5603  0.4708 -0.4194
   32MOL0     C 4200   5.879   7.037   5.880  0.4286  0.4128  0.2979
   32MOL0     C 4201   5.888   6.884   5.911 -0.5072  0.1910 -0.6838
   32MOL0     N 4202   6.021   6.843   5.852  0.0001  0.4882  0.7638
   32MOL0     C 4203   6.046   6.833   5.715  0.2578  0.7829  0.5561
   32MOL0     C 4204   6.168   6.761   5.705 -0.0270  0.2185  0.3715
   32MOL0     C 4205   6.238   6.730   5.570 -0.4590  0.4221 -0.4126
   32MOL0     C 4206   6.224   6.580   5.550  1.0376 -0.5958  0.1158
   32MOL0     C 4207   6.287   6.491   5.657 -0.3216 -0.0399  0.7509
   32MOL0     C 4208   6.441   6.504   5.680 -0.5928  0.6653  0.0385
   32MOL0     O 4209   6.523   6.512   5.557  0.8009 -0.1778  0.1739
   32MOL0     C 4210   6.657   6.534   5.582  0.2476  0.2000 -0.3232
   32MOL0     C 4211   6.726   6.571   5.465 -0.0979 -0.7821 -0.3255
   32MOL0     C 4212   6.860   6.598   5.465 -0.0855  1.3072 -0.4897
   32MOL0     C 4213   6.936   6.565   5.581 -0.3858  0.2728 -0.3832
   32MOL0     C 4214   7.081   6.587   5.574  0.2987  0.4583  0.1997
   32MOL0     O 4215   7.153   6.568   5.688 -0.0986  1.0807 -0.2489
   32MOL0     C 4216   7.283   6.622   5.690  0.4191  0.4834 -0.8894
   32MOL0     C 4217   7.385   6.536   5.695 -0.3773 -0.2719  0.0797
   32MOL0     C 4218   7.520   6.583   5.714 -0.3807 -0.2681  0.1356
   32MOL0     C 4219   7.553   6.715   5.743  0.0693  0.4740  0.1254
   32MOL0     O 4220   7.688   6.732   5.778  0.5741 -0.9362  0.6553
   32MOL0     C 4221   7.742   6.870   5.774  0.0285 -0.2001 -0.2079
   32MOL0     C 4222   7.881   6.860   5.840  0.6351 -0.4689 -0.3821
   32MOL0     C 4223   7.976   6.805   5.737 -0.6841  0.0169 -0.0520
   32MOL0     C 4224   8.118   6.841   5.787  1.0981  0.7716  0.1996
   32MOL0     C 4225   8.149   6.785   5.930  0.1727  0.0227  0.3629
   32MOL0     C 4226   8.291   6.808   5.964 -0.6390  0.5200 -0.2014
   32MOL0     C 4227   8.390   6.702   5.906  0.6578  0.5778  0.8443
   32MOL0     C 4228   8.541   6.731   5.897 -0.0748 -0.4939  0.3380
   32MOL0    Cl 4229   8.597   6.749   6.064 -0.1478 -0.0340  0.1856
   32MOL0     C 4230   7.443   6.805   5.744  0.5759 -0.6511  0.0689
   32MOL0     C 4231   7.314   6.757   5.710  0.0382  0.5170 -0.2682
   32MOL0     O 4232   7.133   6.617   5.463  0.4355 -0.3179 -0.3671
   32MOL0     C 4233   6.872   6.530   5.700  0.8608  0.3722 -0.7199
   32MOL0     C 4234   6.734   6.517   5.696  0.1514 -0.0235  0.6298
   32MOL0     N 4235   6.205   6.734   5.833  0.0665  0.4169 -0.1248
   32MOL0     N 4236   6.115   6.768   5.921  0.4360 -0.1159  1.0336
   32MOL0     C 4237   4.888   7.126   5.628  0.7008 -0.5601  0.4446
   32MOL0     C 4238   4.748   7.109   5.600  0.4080  0.0316 -0.2739
   32MOL0     C 4239   4.287   7.270   5.602 -0.8060 -0.4700 -0.1473
   32MOL0     C 4240   4.255   7.146   5.547 -0.8207 -0.3026  0.3898
   32MOL0     C 4241   4.118   7.108   5.534  0.0287 -0.3171  0.0124
   32MOL0     C 4242   4.014   7.204   5.544 -0.9190 -0.2617 -0.1521
   32MOL0     O 4243   3.878   7.183   5.540 -0.6208 -0.6393  0.9933
   32MOL0     C 4244   3.841   7.043   5.531  0.7503  0.0958  0.6456
   32MOL0     C 4245   3.690   7.029   5.530 -0.3494 -0.0435 -0.1470
   32MOL0     C 4246   3.647   6.892   5.481 -0.0836 -0.3251  0.0253
   32MOL0     C 4247   3.488   6.875   5.483  0.3698  0.3109  0.6774
   32MOL0     C 4248   3.452   6.733   5.448 -0.1746 -0.3203 -0.1181
   32MOL0     C 4249   3.426   6.616   5.426 -0.2356 -1.2305  0.2634
   32MOL0     C 4250   4.054   7.332   5.605  0.1911  1.0345  0.5267
   32MOL0     C 4251   4.182   7.361   5.625 -0.2718 -1.0670  0.0232
   32MOL0     C 4252   4.216   7.488   5.698 -0.2737 -0.1343  0.0785
   32MOL0     H 4253   4.611   7.332   5.814  1.0851 -1.7873  1.8270
   32MOL0     H 4254   4.873   7.334   5.883  1.3814 -0.3219 -0.8990
   32MOL0     H 4255   5.125   7.033   5.727 -0.2128  0.3923  1.3363
   32MOL0     H 4256   5.168   7.166   5.612  1.9886  4.3577  0.3644
   32MOL0     H 4257   5.249   7.164   5.893  0.8517 -1.0730 -0.0361
   32MOL0     H 4258   5.308   7.282   5.762  1.3021 -0.3181 -1.2925
   32MOL0     H 4259   5.426   7.079   5.681 -1.7669 -1.2800  0.1140
   32MOL0     H 4260   5.350   6.983   5.811 -1.0810  0.1808  1.4400
   32MOL0     H 4261   5.522   7.237   5.868  1.2378 -0.2404  0.0004
   32MOL0     H 4262   5.458   7.124   5.981 -0.1746 -0.5140 -0.5516
   32MOL0     H 4263   5.603   6.944   5.886  0.0325  0.1321 -1.5226
   32MOL0     H 4264   5.662   7.063   5.759 -0.7183  2.8695 -1.5065
   32MOL0     H 4265   5.748   7.199   5.936  0.3378  0.3326 -2.7337
   32MOL0     H 4266   5.726   7.063   6.049  1.3520 -0.4597 -0.2595
   32MOL0     H 4267   5.961   7.092   5.927 -0.2740  2.7516 -1.0606
   32MOL0     H 4268   5.883   7.035   5.770  0.3674 -0.3034  0.2983
   32MOL0     H 4269   5.880   6.865   6.018  2.2640 -1.6149 -0.6641
   32MOL0     H 4270   5.806   6.831   5.862 -2.6292  0.3488  2.4697
   32MOL0     H 4271   5.990   6.869   5.629 -2.0043 -3.1365  0.1485
   32MOL0     H 4272   6.196   6.783   5.483 -0.1851  0.3022 -0.6192
   32MOL0     H 4273   6.344   6.755   5.567 -0.5234  0.7012 -0.4155
   32MOL0     H 4274   6.116   6.561   5.553  1.0755 -0.8578 -0.1352
   32MOL0     H 4275   6.262   6.556   5.450  1.4311 -1.4454  0.4559
   32MOL0     H 4276   6.278   6.389   5.618 -3.0310  0.3991  0.0877
   32MOL0     H 4277   6.240   6.505   5.755 -1.3237  2.3524 -0.0163
   32MOL0     H 4278   6.474   6.419   5.739 -0.5095 -1.1802 -2.5118
   32MOL0     H 4279   6.451   6.594   5.741  1.4839 -0.3641  1.3149
   32MOL0     H 4280   6.660   6.585   5.381 -1.2938 -0.4706  0.6379
   32MOL0     H 4281   6.898   6.633   5.369  2.9899  2.3380  0.9617
   32MOL0     H 4282   7.361   6.430   5.692  1.9418 -0.8531 -0.5325
   32MOL0     H 4283   7.596   6.506   5.716 -1.3610 -1.2693  1.8003
   32MOL0     H 4284   7.746   6.896   5.668  0.7803 -1.9329 -0.6426
   32MOL0     H 4285   7.675   6.939   5.827 -1.0995 -0.4667 -1.2223
   32MOL0     H 4286   7.903   6.959   5.879 -0.5432  0.9246 -3.0044
   32MOL0     H 4287   7.869   6.789   5.923 -0.9760 -0.5945 -0.6871
   32MOL0     H 4288   7.966   6.697   5.734 -1.5191  0.1114 -1.3266
   32MOL0     H 4289   7.958   6.840   5.635  1.7830 -1.4865 -1.0800
   32MOL0     H 4290   8.133   6.950   5.782  0.5805  0.9876  2.4909
   32MOL0     H 4291   8.186   6.785   5.722  0.2005  2.3625 -2.2867
   32MOL0     H 4292   8.120   6.679   5.940  0.1694  0.0427  0.5738
   32MOL0     H 4293   8.080   6.833   6.001 -1.1147 -1.5431  0.2336
   32MOL0     H 4294   8.334   6.906   5.940  1.8419  0.1603  2.2481
   32MOL0     H 4295   8.302   6.803   6.073  3.7208  0.5293 -0.4552
   32MOL0     H 4296   8.360   6.698   5.801  1.3514  1.9444  0.5799
   32MOL0     H 4297   8.380   6.606   5.958  2.9554  0.4136  1.0585
   32MOL0     H 4298   8.602   6.653   5.851 -1.4284 -1.7482  0.5849
   32MOL0     H 4299   8.550   6.826   5.844 -1.5145 -0.7991 -0.5211
   32MOL0     H 4300   7.445   6.909   5.775 -1.2882 -0.5612 -0.0273
   32MOL0     H 4301   7.225   6.820   5.711  0.2891  1.1041 -3.6393
   32MOL0     H 4302   6.920   6.519   5.796 -0.2186  1.1220 -0.0764
   32MOL0     H 4303   6.701   6.500   5.798 -0.3207  5.6771  1.7598
   32MOL0     H 4304   4.952   7.086   5.549  1.8259 -0.2575  1.1754
   32MOL0     H 4305   4.706   7.040   5.528 -0.3382 -2.2052  2.1260
   32MOL0     H 4306   4.334   7.072   5.541 -0.3390  0.1966  0.3956
   32MOL0     H 4307   4.108   7.001   5.519 -0.2348 -0.3513  0.4194
   32MOL0     H 4308   3.883   6.991   5.618  2.0511 -1.3547 -0.7699
   32MOL0     H 4309   3.878   6.987   5.445 -3.2750 -2.1823  0.1646
   32MOL0     H 4310   3.648   7.102   5.461 -3.6387 -3.0878 -1.6892
   32MOL0     H 4311   3.656   7.043   5.633 -0.2446  0.8885 -0.2276
   32MOL0     H 4312   3.692   6.822   5.552 -0.0680  0.0969  0.4355
   32MOL0     H 4313   3.680   6.873   5.378 -1.1810 -3.5870  0.1567
   32MOL0     H 4314   3.449   6.898   5.583  0.6580 -1.7245  1.3025
   32MOL0     H 4315   3.441   6.944   5.412  0.0568  1.4685  1.9648
   32MOL0     H 4316   3.409   6.512   5.403  1.3889 -1.3519 -0.5273
   32MOL0     H 4317   3.979   7.399   5.645  0.3639  1.1917  0.5855
   32MOL0     H 4318   4.133   7.504   5.767 -0.1974 -0.8476  0.3436
   32MOL0     H 4319   4.300   7.477   5.768  0.5229  0.5459 -0.7379
   32MOL0     H 4320   4.242   7.573   5.634  1.9910 -0.8135  0.0024
   33MOL0     O 4321   1.134   8.737   0.834  0.0708  0.1708  0.7715
   33MOL0     C 4322   1.116   8.777   0.714 -0.4329  0.0198 -0.2805
   33MOL0     O 4323   1.220   8.820   0.637  0.6114 -0.2840  0.3970
   33MOL0     C 4324   1.349   8.812   0.684 -1.0976 -0.4638 -0.2354
   33MOL0     C 4325   1.405   8.915   0.754 -0.4369  0.0766  0.0669
   33MOL0     C 4326   1.536   8.904   0.792 -0.5652 -0.3857  0.3210
   33MOL0     C 4327   1.611   8.794   0.780 -0.7814 -0.2473 -0.5183
   33MOL0     O 4328   1.736   8.806   0.834 -0.2104 -0.0456  0.2335
   33MOL0     C 4329   1.806   8.689   0.868 -0.9637  0.4846  0.6885
   33MOL0     C 4330   1.906   8.719   0.984  0.7471 -0.0710 -0.3898
   33MOL0     C 4331   2.033   8.783   0.935 -0.3931 -0.3203  0.8415
   33MOL0     C 4332   2.157   8.801   1.027 -0.3168 -0.2563 -0.3085
   33MOL0     C 4333   2.264   8.896   0.978 -0.4570 -0.4089 -0.2806
   33MOL0     C 4334   2.363   8.917   1.097  0.1618 -0.0224  0.1886
   33MOL0     C 4335   2.488   8.989   1.042  0.2853 -0.3670  0.1364
   33MOL0     C 4336   2.455   9.124   0.988  0.3684 -0.7444 -0.0828
   33MOL0     N 4337   2.578   9.201   0.974  0.2149  0.2238  0.7070
   33MOL0     C 4338   2.649   9.218   0.857  1.4106  0.2374 -0.4367
   33MOL0     C 4339   2.743   9.306   0.878  0.1833  0.2901  0.0721
   33MOL0     C 4340   2.841   9.357   0.775  0.2776 -0.0959 -0.0554
   33MOL0     C 4341   2.976   9.289   0.784 -0.9264  0.7765 -0.4733
   33MOL0     C 4342   2.997   9.144   0.818  0.2233 -0.3539 -0.1424
   33MOL0     C 4343   3.135   9.101   0.867 -0.3567 -0.2972  0.7692
   33MOL0     O 4344   3.217   9.090   0.748 -0.2477 -0.5863 -0.2116
   33MOL0     C 4345   3.348   9.064   0.776 -0.0136  0.6677  0.1444
   33MOL0     C 4346   3.433   9.177   0.805  0.4578  0.2843  0.0989
   33MOL0     C 4347   3.568   9.163   0.827  0.3205  0.1631 -0.7935
   33MOL0     C 4348   3.625   9.039   0.836 -0.7648  0.3641 -0.4590
   33MOL0     C 4349   3.765   9.015   0.869  0.0487  0.2038 -0.9294
   33MOL0     O 4350   3.839   9.126   0.882  0.2582 -0.1396 -0.1908
   33MOL0     C 4351   3.973   9.117   0.900 -0.5811 -0.0156 -0.1115
   33MOL0     C 4352   4.028   9.050   1.014  0.3702 -0.3078  0.4883
   33MOL0     C 4353   4.161   9.015   1.019 -0.0655 -0.1930  0.4790
   33MOL0     C 4354   4.252   9.052   0.924  0.2353  0.0478 -0.3480
   33MOL0     O 4355   4.371   8.987   0.917 -0.0228  0.4338 -0.6564
   33MOL0     C 4356   4.489   9.060   0.886 -0.2459  0.7925  0.4821
   33MOL0     C 4357   4.570   9.048   1.015 -0.4846 -0.1494 -0.0427
   33MOL0     C 4358   4.719   9.079   0.994  0.2050 -0.3095  0.7880
   33MOL0     C 4359   4.801   9.054   1.119 -0.3647 -0.0194 -0.7652
   33MOL0     C 4360   4.756   9.149   1.244  0.3770  0.1968  0.3937
   33MOL0     C 4361   4.845   9.125   1.371 -0.3445  0.1713 -0.0830
   33MOL0     C 4362   5.000   9.124   1.351 -0.4838 -0.1613 -0.0293
   33MOL0     C 4363   5.087   9.121   1.481  0.9014  0.4683  0.7692
   33MOL0    Cl 4364   5.049   9.248   1.586 -0.1315 -0.0883 -0.6361
   33MOL0     C 4365   4.207   9.127   0.817  0.8820  0.7728 -0.3033
   33MOL0     C 4366   4.065   9.158   0.805 -0.6146  0.0920  0.3331
   33MOL0     O 4367   3.808   8.900   0.895  0.9246  0.6442  0.5121
   33MOL0     C 4368   3.540   8.925   0.811  0.2836 -0.2062 -0.8328
   33MOL0     C 4369   3.401   8.938   0.781 -0.6542 -0.1873 -0.0869
   33MOL0     N 4370   2.711   9.358   0.995  0.5082  1.0183 -0.4885
   33MOL0     N 4371   2.621   9.292   1.058  0.1358 -0.5561 -0.5580
   33MOL0     C 4372   1.554   8.688   0.708 -0.9400 -0.0970 -0.6057
   33MOL0     C 4373   1.429   8.700   0.664  0.8505 -0.4951 -0.8655
   33MOL0     C 4374   0.981   8.787   0.654 -0.8049  0.5194  0.4633
   33MOL0     C 4375   0.972   8.811   0.514  0.1249  0.0386 -0.5989
   33MOL0     C 4376   0.849   8.806   0.448 -0.0867 -0.4573 -0.9683
   33MOL0     C 4377   0.728   8.780   0.515 -0.3542 -0.1098  0.5675
   33MOL0     O 4378   0.608   8.782   0.437  0.5605  0.5403  0.5419
   33MOL0     C 4379   0.479   8.793   0.510 -0.2017 -0.0854  1.3218
   33MOL0     C 4380   0.366   8.813   0.405  0.2923 -0.4958 -0.0366
   33MOL0     C 4381   0.381   8.940   0.331  0.0523  0.3523  0.1332
   33MOL0     C 4382   0.311   8.951   0.190 -0.1620 -0.1855 -0.2354
   33MOL0     C 4383   0.165   8.926   0.186  0.4383  0.3060 -0.5016
   33MOL0     C 4384   0.050   8.892   0.201  0.1774 -0.8429 -0.1592
   33MOL0     C 4385   0.737   8.756   0.652  0.2100 -0.1305  0.2056
   33MOL0     C 4386   0.863   8.757   0.721  0.1050 -0.2498 -0.2026
   33MOL0     C 4387   0.857   8.726   0.873 -0.0047 -0.7876  0.8559
   33MOL0     H 4388   1.336   8.994   0.781  0.4383 -0.0173  2.8711
   33MOL0     H 4389   1.582   8.982   0.852 -1.6671 -0.2013  0.9495
   33MOL0     H 4390   1.741   8.612   0.911  1.2251 -0.8981  1.6888
   33MOL0     H 4391   1.841   8.641   0.776  2.8839  1.6859  1.3273
   33MOL0     H 4392   1.931   8.626   1.036 -1.0181  2.5440  6.0780
   33MOL0     H 4393   1.854   8.768   1.067 -0.0344  1.5732 -1.7947
   33MOL0     H 4394   2.004   8.878   0.889 -0.6276 -0.8329 -0.1170
   33MOL0     H 4395   2.073   8.725   0.851  1.7971  1.0036  0.9091
   33MOL0     H 4396   2.127   8.836   1.127  2.3585  1.3236  0.0325
   33MOL0     H 4397   2.210   8.706   1.038 -0.2163 -0.0779  0.9660
   33MOL0     H 4398   2.315   8.867   0.886  1.8222 -0.5754  0.9591
   33MOL0     H 4399   2.210   8.990   0.960  0.4773  0.1498 -0.2434
   33MOL0     H 4400   2.316   8.977   1.176  2.1641  1.5533  0.2666
   33MOL0     H 4401   2.400   8.826   1.145  0.0546  0.2801  0.8596
   33MOL0     H 4402   2.524   8.923   0.962 -1.2864 -0.2243 -0.7419
   33MOL0     H 4403   2.567   8.998   1.117  2.9290 -0.6931 -2.4393
   33MOL0     H 4404   2.402   9.108   0.894 -0.7654 -1.8728  0.7259
   33MOL0     H 4405   2.394   9.185   1.055  1.1884  2.2428 -1.8460
   33MOL0     H 4406   2.632   9.167   0.762 -3.8631  0.5917  0.0143
   33MOL0     H 4407   2.804   9.352   0.672  0.2004 -0.2562 -0.0213
   33MOL0     H 4408   2.852   9.464   0.791  0.7967  0.0014 -0.9990
   33MOL0     H 4409   3.028   9.331   0.697  1.3570  0.0633  0.4614
   33MOL0     H 4410   3.016   9.341   0.872  0.1112 -1.0809  0.2145
   33MOL0     H 4411   2.961   9.092   0.730 -1.2351  2.1068 -1.0921
   33MOL0     H 4412   2.930   9.118   0.900 -1.2827  1.4880 -0.7174
   33MOL0     H 4413   3.129   8.998   0.903  1.7657 -0.3925  1.0070
   33MOL0     H 4414   3.174   9.167   0.945 -2.1772  0.6735  0.9028
   33MOL0     H 4415   3.386   9.275   0.811  0.5869  0.3321  0.3681
   33MOL0     H 4416   3.626   9.249   0.859 -0.0984  0.5920 -1.1714
   33MOL0     H 4417   3.964   9.008   1.091 -0.5118 -0.5712 -0.3761
   33MOL0     H 4418   4.188   8.943   1.096  0.3448  1.1957  1.6698
   33MOL0     H 4419   4.556   9.019   0.810 -2.0451 -0.5788 -0.4470
   33MOL0     H 4420   4.469   9.163   0.853 -0.0585  1.4984  2.4729
   33MOL0     H 4421   4.521   9.105   1.095 -0.8491 -0.5781  0.0400
   33MOL0     H 4422   4.564   8.942   1.041 -0.1061 -0.0905  0.2941
   33MOL0     H 4423   4.764   9.027   0.909 -1.4433 -0.7252  0.1407
   33MOL0     H 4424   4.725   9.188   0.982  2.8443 -0.0575  3.3270
   33MOL0     H 4425   4.905   9.077   1.097  0.0458  0.1918  1.2000
   33MOL0     H 4426   4.802   8.949   1.151  1.9548 -0.0763 -0.8879
   33MOL0     H 4427   4.648   9.141   1.264  0.8348 -0.6048  2.8932
   33MOL0     H 4428   4.774   9.251   1.210  0.5146 -1.2623 -4.6636
   33MOL0     H 4429   4.826   9.201   1.447 -0.8461 -2.1790  2.3159
   33MOL0     H 4430   4.815   9.024   1.403 -1.4957  0.1343 -1.1731
   33MOL0     H 4431   5.019   9.218   1.299  0.4336 -0.0234  0.5421
   33MOL0     H 4432   5.032   9.055   1.273  2.2487  0.5245  0.4015
   33MOL0     H 4433   5.065   9.025   1.529  0.0087  0.7045  0.8492
   33MOL0     H 4434   5.192   9.143   1.460  0.8427 -0.8234 -1.1189
   33MOL0     H 4435   4.290   9.147   0.749  1.0058  0.8640 -0.1265
   33MOL0     H 4436   4.027   9.204   0.715  0.6247  0.8836  0.1982
   33MOL0     H 4437   3.579   8.825   0.824  1.0591 -0.1530 -2.5754
   33MOL0     H 4438   3.350   8.842   0.778  0.1386 -0.8196  2.8229
   33MOL0     H 4439   1.610   8.595   0.702  1.2957  1.2044 -1.6241
   33MOL0     H 4440   1.388   8.615   0.609  0.7491 -0.8869 -0.1857
   33MOL0     H 4441   1.065   8.827   0.459 -0.2327  1.4640 -0.8195
   33MOL0     H 4442   0.860   8.812   0.340  2.1356 -0.7479 -0.8110
   33MOL0     H 4443   0.496   8.881   0.573  0.8883 -0.3915  1.4888
   33MOL0     H 4444   0.458   8.708   0.577  0.8466  1.6441  4.0308
   33MOL0     H 4445   0.267   8.823   0.451  1.0440  2.3710  1.1473
   33MOL0     H 4446   0.370   8.737   0.326 -0.6811  1.9812 -2.6545
   33MOL0     H 4447   0.485   8.972   0.321  1.2996 -2.6106  2.1652
   33MOL0     H 4448   0.336   9.012   0.400 -1.7209 -0.5496 -0.0134
   33MOL0     H 4449   0.331   9.054   0.159  1.3183 -1.3955 -3.7840
   33MOL0     H 4450   0.364   8.887   0.118 -0.7376 -0.6392 -0.2653
   33MOL0     H 4451  -0.053   8.863   0.213  0.2481 -1.4519 -0.8737
   33MOL0     H 4452   0.643   8.729   0.700 -0.3800 -2.2208 -1.9158
   33MOL0     H 4453   0.907   8.809   0.923 -4.4245  4.9663 -2.8529
   33MOL0     H 4454   0.751   8.716   0.897 -0.5066  1.1484 -0.3626
   33MOL0     H 4455   0.901   8.627   0.887  1.0215 -0.6640 -1.0952
   34MOL0     O 4456   6.058   1.782   1.294  0.0233 -0.4267  0.2162
   34MOL0     C 4457   6.008   1.852   1.210  0.1670  0.1997  0.7310
   34MOL0     O 4458   6.012   1.831   1.079  0.5242  0.1789 -0.9025
   34MOL0     C 4459   6.057   1.709   1.033 -0.1518  0.0560  0.1372
   34MOL0     C 4460   6.143   1.715   0.933 -0.3421  0.9456  0.4673
   34MOL0     C 4461   6.187   1.602   0.870  0.0172  0.3647  0.8885
   34MOL0     C 4462   6.137   1.477   0.904  0.2381  0.2841 -0.4061
   34MOL0     O 4463   6.174   1.355   0.864 -0.0748  0.1002  0.8608
   34MOL0     C 4464   6.288   1.329   0.787  0.0491 -0.6137  0.2172
   34MOL0     C 4465   6.267   1.199   0.715 -0.5478  0.2122 -0.0099
   34MOL0     C 4466   6.390   1.185   0.619 -1.0518  0.4176  0.9429
   34MOL0     C 4467   6.397   1.045   0.546 -0.0045  0.3844 -1.0309
   34MOL0     C 4468   6.496   1.051   0.426 -0.2925 -0.3258  0.4647
   34MOL0     C 4469   6.638   1.087   0.470  0.1154  1.2280  0.8073
   34MOL0     C 4470   6.738   1.079   0.350  0.6565  0.4174 -0.9005
   34MOL0     C 4471   6.714   1.176   0.236  0.2366  0.0857  0.6557
   34MOL0     N 4472   6.830   1.191   0.151 -0.4562 -0.3088 -0.0258
   34MOL0     C 4473   6.947   1.245   0.193 -0.1035 -0.6562  0.4290
   34MOL0     C 4474   7.035   1.217   0.091  0.4706  0.0779 -0.7048
   34MOL0     C 4475   7.179   1.266   0.078  0.3744  0.6269  0.5247
   34MOL0     C 4476   7.271   1.211   0.189  0.6459 -0.5230 -0.1675
   34MOL0     C 4477   7.408   1.196   0.128  0.1569  0.0844  0.2675
   34MOL0     C 4478   7.490   1.330   0.113  0.1386 -0.1157 -0.2979
   34MOL0     O 4479   7.575   1.300   0.008 -0.6543 -0.5948 -0.2725
   34MOL0     C 4480   7.707   1.273   0.040  0.3115 -0.1678  0.3528
   34MOL0     C 4481   7.736   1.210   0.163 -0.6920 -0.2982 -0.2386
   34MOL0     C 4482   7.868   1.168   0.195 -0.5980  0.4839  0.0384
   34MOL0     C 4483   7.970   1.183   0.101  0.3743  0.0492  0.2119
   34MOL0     C 4484   8.104   1.116   0.125  0.3221  0.5813  0.8523
   34MOL0     O 4485   8.192   1.112   0.019  0.2040  0.4421 -0.6975
   34MOL0     C 4486   8.317   1.070   0.039 -0.1793  0.4760  0.4398
   34MOL0     C 4487   8.423   1.147  -0.016  0.7011  0.3993  0.0643
   34MOL0     C 4488   8.554   1.097  -0.007  0.0087  1.1256 -0.9623
   34MOL0     C 4489   8.590   0.976   0.063 -0.0992 -0.4470  0.8743
   34MOL0     O 4490   8.710   0.916   0.073 -0.1530 -0.3235  0.2868
   34MOL0     C 4491   8.823   0.973   0.019 -0.1382 -0.2032 -0.5361
   34MOL0     C 4492   8.873   1.084   0.107 -0.2902  0.5080  0.5990
   34MOL0     C 4493   8.970   1.169   0.018  1.1523  0.0189 -0.1295
   34MOL0     C 4494   9.094   1.092  -0.013 -0.5805  0.2453 -0.6970
   34MOL0     C 4495   9.201   1.191  -0.056 -0.2062  0.1457  0.4096
   34MOL0     C 4496   9.323   1.110  -0.102 -0.1305  0.2820 -0.0257
   34MOL0     C 4497   9.412   1.045   0.005  0.8010 -0.2854  0.0626
   34MOL0     C 4498   9.499   0.939  -0.055  0.0126  0.8767  0.5457
   34MOL0    Cl 4499   9.409   0.786  -0.051  0.1105  0.1765 -0.4147
   34MOL0     C 4500   8.482   0.911   0.125 -0.3979  0.1567 -0.2358
   34MOL0     C 4501   8.353   0.956   0.106 -0.2617  0.2122  0.2283
   34MOL0     O 4502   8.119   1.067   0.236  0.2244 -0.6989  0.5330
   34MOL0     C 4503   7.942   1.244  -0.018 -0.5145 -0.5468 -0.6416
   34MOL0     C 4504   7.810   1.287  -0.052  0.8826 -0.4102 -0.9990
   34MOL0     N 4505   6.968   1.142  -0.000 -0.5847 -0.1733 -0.1773
   34MOL0     N 4506   6.852   1.125   0.033  0.1140  0.3162 -0.1825
   34MOL0     C 4507   6.046   1.468   1.006  0.4879  0.1194  0.5998
   34MOL0     C 4508   6.001   1.586   1.067 -0.2570  0.0896  0.3633
   34MOL0     C 4509   5.933   1.974   1.270  0.1631  0.6690  0.4864
   34MOL0     C 4510   5.854   2.048   1.181  0.0213 -0.3872  0.8411
   34MOL0     C 4511   5.796   2.171   1.220 -0.6427  0.5953 -0.3490
   34MOL0     C 4512   5.812   2.217   1.353  0.4543 -0.4917  0.0832
   34MOL0     O 4513   5.755   2.336   1.399  0.4733  0.1583 -0.0656
   34MOL0     C 4514   5.622   2.309   1.451 -1.0852  0.1577 -0.2594
   34MOL0     C 4515   5.555   2.441   1.493  0.1085 -0.5809 -0.6183
   34MOL0     C 4516   5.412   2.413   1.532 -0.2058  0.1332 -0.1520
   34MOL0     C 4517   5.347   2.527   1.610  0.3617  0.0584 -0.8690
   34MOL0     C 4518   5.357   2.661   1.556 -0.3194 -0.0490  0.5678
   34MOL0     C 4519   5.360   2.776   1.515  0.3685  0.4814  0.3450
   34MOL0     C 4520   5.891   2.148   1.442 -0.0584  0.6789 -0.1371
   34MOL0     C 4521   5.952   2.022   1.407  0.4653  1.1123  0.3620
   34MOL0     C 4522   5.997   1.942   1.521  1.0155  0.2036 -0.7029
   34MOL0     H 4523   6.169   1.817   0.906 -2.0912  1.8414  1.9885
   34MOL0     H 4524   6.245   1.601   0.778  1.4610  2.6957  1.6670
   34MOL0     H 4525   6.314   1.412   0.722  1.9804 -0.1720  1.4568
   34MOL0     H 4526   6.377   1.316   0.851  1.1395 -1.8654 -1.4612
   34MOL0     H 4527   6.175   1.193   0.655 -0.4147 -0.4129 -0.1534
   34MOL0     H 4528   6.263   1.114   0.783 -3.8754 -0.1568 -0.4771
   34MOL0     H 4529   6.486   1.220   0.657 -0.1722  1.0564 -1.6723
   34MOL0     H 4530   6.374   1.266   0.547 -0.2627  0.6848  1.0603
   34MOL0     H 4531   6.427   0.969   0.619 -1.9993 -1.0361 -1.5944
   34MOL0     H 4532   6.297   1.009   0.518 -0.2779 -0.1377  0.4944
   34MOL0     H 4533   6.484   0.959   0.368  0.2014  1.4137 -2.6286
   34MOL0     H 4534   6.453   1.128   0.361 -0.2157 -2.0701 -1.7359
   34MOL0     H 4535   6.654   1.182   0.523  1.7423  0.5885  1.5405
   34MOL0     H 4536   6.666   1.012   0.544  0.8571  1.3871  0.6994
   34MOL0     H 4537   6.744   0.973   0.324 -0.8437 -0.0205  0.3829
   34MOL0     H 4538   6.833   1.109   0.396  1.2431 -2.0131 -0.3405
   34MOL0     H 4539   6.630   1.133   0.181 -0.1371 -0.0446  1.3162
   34MOL0     H 4540   6.681   1.279   0.257  1.6797  1.1217 -1.6771
   34MOL0     H 4541   6.966   1.310   0.278 -2.7787  0.8712 -0.0338
   34MOL0     H 4542   7.210   1.231  -0.021 -0.9796 -1.0481  0.6330
   34MOL0     H 4543   7.181   1.375   0.078  0.0419  0.6442 -0.2496
   34MOL0     H 4544   7.284   1.286   0.267  2.5217 -1.0948  0.1161
   34MOL0     H 4545   7.228   1.122   0.236 -0.1356  1.4244  3.0863
   34MOL0     H 4546   7.402   1.140   0.034  1.0265 -3.6874  2.2453
   34MOL0     H 4547   7.471   1.126   0.184 -1.6766 -0.3562  1.8634
   34MOL0     H 4548   7.529   1.365   0.209 -0.8712 -0.7499  0.3710
   34MOL0     H 4549   7.423   1.412   0.085  1.6645  2.5183  3.0142
   34MOL0     H 4550   7.658   1.184   0.234  0.2071 -2.5319 -0.0070
   34MOL0     H 4551   7.882   1.111   0.286  0.6418  0.1573 -0.3337
   34MOL0     H 4552   8.409   1.236  -0.077 -2.2811 -0.0251 -0.0548
   34MOL0     H 4553   8.630   1.149  -0.065  0.2279  0.8848 -0.8924
   34MOL0     H 4554   8.900   0.895   0.015 -0.0165 -0.0316 -2.6936
   34MOL0     H 4555   8.797   1.014  -0.079 -1.3752  0.4888  0.0554
   34MOL0     H 4556   8.788   1.141   0.146 -1.4404  1.4611 -2.9059
   34MOL0     H 4557   8.927   1.040   0.191  0.6102 -1.6306 -0.9776
   34MOL0     H 4558   8.920   1.197  -0.075 -0.5902 -1.8787  0.1704
   34MOL0     H 4559   8.997   1.252   0.084  2.0847 -1.6547  1.6776
   34MOL0     H 4560   9.081   1.026  -0.100  0.0327  0.4006 -0.9130
   34MOL0     H 4561   9.128   1.041   0.077 -0.2904  1.1612 -0.2825
   34MOL0     H 4562   9.222   1.261   0.026 -1.1430  1.5043 -0.4713
   34MOL0     H 4563   9.164   1.250  -0.140  1.8310  0.5527 -0.2653
   34MOL0     H 4564   9.301   1.035  -0.179  1.4346 -4.3001  3.5113
   34MOL0     H 4565   9.382   1.187  -0.152  0.3053  0.0913  0.1824
   34MOL0     H 4566   9.348   1.006   0.085 -0.5194  2.9671  0.7429
   34MOL0     H 4567   9.474   1.127   0.041 -0.1318  0.7962 -0.7242
   34MOL0     H 4568   9.524   0.958  -0.159  0.2948 -2.7507 -0.1667
   34MOL0     H 4569   9.588   0.920   0.006  3.0085  0.5595 -3.5519
   34MOL0     H 4570   8.502   0.821   0.182 -2.3532  0.5210  1.1440
   34MOL0     H 4571   8.278   0.902   0.163 -0.5755  1.8160  1.3943
   34MOL0     H 4572   8.025   1.265  -0.085  1.3294  0.2708  1.7317
   34MOL0     H 4573   7.794   1.328  -0.151 -0.0488  3.1657  0.4849
   34MOL0     H 4574   6.007   1.371   1.036 -0.9107 -1.4232 -4.9657
   34MOL0     H 4575   5.930   1.580   1.149 -0.1533  2.1712  0.6491
   34MOL0     H 4576   5.836   2.007   1.082  2.3658 -0.6663  0.4903
   34MOL0     H 4577   5.750   2.236   1.147 -1.3459  1.3784  0.7482
   34MOL0     H 4578   5.623   2.233   1.530 -0.6371 -2.7292 -2.8369
   34MOL0     H 4579   5.563   2.256   1.375 -2.1898  0.0632  0.6438
   34MOL0     H 4580   5.556   2.518   1.415  1.0454  2.3884  2.1312
   34MOL0     H 4581   5.609   2.483   1.578 -1.1274  0.2312 -0.2098
   34MOL0     H 4582   5.404   2.320   1.590 -0.9433 -0.1683 -0.7140
   34MOL0     H 4583   5.356   2.395   1.440  1.4884  1.8544 -1.5758
   34MOL0     H 4584   5.243   2.503   1.635  1.2695 -0.9805  2.3752
   34MOL0     H 4585   5.387   2.529   1.712  1.2660  0.3616 -1.2207
   34MOL0     H 4586   5.348   2.881   1.498  0.8057  0.2038 -2.0233
   34MOL0     H 4587   5.896   2.182   1.546 -0.4280  0.3661 -0.0146
   34MOL0     H 4588   6.105   1.948   1.536  1.1828  2.5995 -2.4426
   34MOL0     H 4589   5.943   1.972   1.612  0.4166  0.5430 -1.1617
   34MOL0     H 4590   5.960   1.839   1.518  3.3717 -0.6908 -1.5141
   35MOL0     O 4591   9.127   0.545   7.483 -0.4243  0.2031 -0.1302
   35MOL0     C 4592   9.088   0.507   7.376  0.1381  0.0377  0.3788
   35MOL0     O 4593   9.118   0.562   7.257  0.1311  0.2211 -0.3204
   35MOL0     C 4594   9.239   0.630   7.234  0.1020 -0.1149  0.1949
   35MOL0     C 4595   9.275   0.741   7.306 -0.0895 -0.1380  0.3396
   35MOL0     C 4596   9.404   0.800   7.283 -0.1120  0.4323  0.1937
   35MOL0     C 4597   9.500   0.739   7.195  0.7370 -0.4873 -0.6607
   35MOL0     O 4598   9.627   0.797   7.194  1.1080 -0.4817  0.0539
   35MOL0     C 4599   9.729   0.746   7.113  0.1432  0.4441  0.6568
   35MOL0     C 4600   9.831   0.856   7.108  0.0149  0.3211  0.7076
   35MOL0     C 4601   9.943   0.808   7.010  0.9913 -1.3702 -0.8242
   35MOL0     C 4602  10.046   0.714   7.071 -0.7661  0.2058 -0.8634
   35MOL0     C 4603  10.202   0.739   7.024  0.8224  0.8946  0.0345
   35MOL0     C 4604  10.218   0.747   6.873  0.0335 -0.2553 -0.4645
   35MOL0     C 4605  10.198   0.605   6.802 -0.1953 -0.4071 -0.6427
   35MOL0     C 4606  10.171   0.621   6.653 -0.2519 -0.8555  0.5189
   35MOL0     N 4607  10.269   0.698   6.574 -0.3298  0.8413  0.2474
   35MOL0     C 4608  10.397   0.659   6.557 -0.2608  0.3623 -0.1689
   35MOL0     C 4609  10.460   0.763   6.504  0.4482  0.0080  1.2618
   35MOL0     C 4610  10.603   0.772   6.458  0.3090  0.0585  0.9782
   35MOL0     C 4611  10.677   0.857   6.562  0.3244 -0.4080  0.8738
   35MOL0     C 4612  10.825   0.873   6.539  0.5285  0.2964  0.3847
   35MOL0     C 4613  10.863   0.989   6.624 -0.8359 -0.9893 -0.9515
   35MOL0     O 4614  10.834   1.116   6.555  0.0156  0.1640 -0.6486
   35MOL0     C 4615  10.916   1.220   6.588  0.1251  1.1299 -0.5828
   35MOL0     C 4616  10.982   1.239   6.709 -0.7665  0.7155 -0.1766
   35MOL0     C 4617  11.078   1.336   6.718 -0.3980 -0.2204  0.7918
   35MOL0     C 4618  11.108   1.417   6.612  0.8522 -0.1536  0.0112
   35MOL0     C 4619  11.223   1.500   6.624  0.0106 -0.1471 -0.1624
   35MOL0     O 4620  11.314   1.470   6.723 -0.7483  0.4057  0.1229
   35MOL0     C 4621  11.429   1.539   6.736  0.0636  0.1245 -0.7778
   35MOL0     C 4622  11.422   1.663   6.806 -0.0062 -0.7679 -0.0824
   35MOL0     C 4623  11.536   1.735   6.847  0.5528  0.1732  0.7601
   35MOL0     C 4624  11.663   1.685   6.811 -0.1882 -0.2983  0.6061
   35MOL0     O 4625  11.787   1.743   6.843 -0.0411 -0.3979  0.0661
   35MOL0     C 4626  11.774   1.862   6.918  0.3129 -0.6207  0.2347
   35MOL0     C 4627  11.909   1.917   6.933  0.9112 -0.0834  1.1715
   35MOL0     C 4628  11.994   1.844   7.033 -0.2950 -0.0133  0.1863
   35MOL0     C 4629  12.131   1.907   7.064 -0.0041 -1.4888 -0.7857
   35MOL0     C 4630  12.215   1.813   7.158 -0.2869  0.3801  0.0651
   35MOL0     C 4631  12.340   1.882   7.211 -0.4598  0.0396  0.4436
   35MOL0     C 4632  12.450   1.804   7.287  0.2174 -0.6782  0.3275
   35MOL0     C 4633  12.565   1.903   7.316 -0.0268  0.7209  0.8561
   35MOL0    Cl 4634  12.694   1.820   7.408  0.0629 -0.2580  0.5461
   35MOL0     C 4635  11.670   1.562   6.744  0.0960  0.1997  0.8634
   35MOL0     C 4636  11.552   1.489   6.715 -0.6101  0.4063  0.1516
   35MOL0     O 4637  11.233   1.594   6.549  0.3407  0.2368 -0.3125
   35MOL0     C 4638  11.034   1.404   6.497 -0.2744 -0.5736  0.0966
   35MOL0     C 4639  10.942   1.307   6.488  0.5669 -0.0328  0.4651
   35MOL0     N 4640  10.362   0.862   6.501  0.6821 -0.3043  0.3516
   35MOL0     N 4641  10.247   0.827   6.548 -0.6115 -0.6551  0.0521
   35MOL0     C 4642   9.455   0.626   7.122  0.3594  0.0598  0.4569
   35MOL0     C 4643   9.323   0.580   7.137 -0.1966 -0.1475  0.1378
   35MOL0     C 4644   8.980   0.404   7.375  0.3585  0.1291 -0.1430
   35MOL0     C 4645   8.972   0.314   7.485 -0.7947 -0.1724  1.1732
   35MOL0     C 4646   8.879   0.214   7.484  0.6888  0.3676 -0.1196
   35MOL0     C 4647   8.787   0.201   7.377 -0.1310  0.3858  0.4520
   35MOL0     O 4648   8.703   0.088   7.367 -0.4885  0.3103 -0.0120
   35MOL0     C 4649   8.703  -0.025   7.451  0.6678 -0.2316 -0.1686
   35MOL0     C 4650   8.622  -0.018   7.589 -0.2682 -0.2845  0.7203
   35MOL0     C 4651   8.474   0.006   7.568 -0.6057  0.3885 -0.0644
   35MOL0     C 4652   8.388  -0.106   7.628  1.1724 -0.2591 -0.0787
   35MOL0     C 4653   8.241  -0.079   7.600 -0.2411 -0.6938 -0.2488
   35MOL0     C 4654   8.119  -0.089   7.575  0.3845  0.0742  0.4215
   35MOL0     C 4655   8.785   0.296   7.286  0.2497 -0.4452  1.0734
   35MOL0     C 4656   8.879   0.398   7.272 -0.2548  0.5108 -0.5128
   35MOL0     C 4657   8.854   0.508   7.172  0.6443  0.0849  0.1440
   35MOL0     H 4658   9.194   0.775   7.370 -0.4237 -0.5750  0.1551
   35MOL0     H 4659   9.428   0.874   7.358  0.1471 -0.7616  1.3207
   35MOL0     H 4660   9.779   0.659   7.155 -0.1183 -0.4503 -0.8224
   35MOL0     H 4661   9.689   0.725   7.013 -2.2745 -0.1708  1.6948
   35MOL0     H 4662   9.871   0.871   7.208  0.3766  0.8977  0.4810
   35MOL0     H 4663   9.786   0.950   7.076 -1.1959 -0.2936  0.5433
   35MOL0     H 4664   9.995   0.901   6.983 -0.5463 -0.6808 -1.5354
   35MOL0     H 4665   9.900   0.760   6.922  0.5698 -1.2971 -0.6594
   35MOL0     H 4666  10.044   0.723   7.180  1.5937 -1.6933 -0.5947
   35MOL0     H 4667  10.023   0.614   7.032  1.1854  0.3791 -2.6501
   35MOL0     H 4668  10.228   0.837   7.066  0.4459  1.3744 -0.8171
   35MOL0     H 4669  10.256   0.656   7.070  1.8264  0.9819 -0.9297
   35MOL0     H 4670  10.134   0.810   6.843  0.9735  1.3060  0.0554
   35MOL0     H 4671  10.307   0.803   6.844  0.4066 -1.2351 -1.2920
   35MOL0     H 4672  10.114   0.550   6.844 -0.8373 -0.5179 -2.0171
   35MOL0     H 4673  10.287   0.542   6.811 -0.4081 -0.5660  0.3974
   35MOL0     H 4674  10.162   0.525   6.601 -0.4033 -1.0523  0.9020
   35MOL0     H 4675  10.072   0.669   6.645 -0.6951 -1.9841 -1.7956
   35MOL0     H 4676  10.435   0.566   6.598  1.7974  0.6020 -1.4164
   35MOL0     H 4677  10.651   0.677   6.433  2.0534  0.5782  2.1166
   35MOL0     H 4678  10.605   0.832   6.366 -3.0404 -1.9638 -0.6247
   35MOL0     H 4679  10.638   0.959   6.564  2.2292  0.4263 -0.7015
   35MOL0     H 4680  10.658   0.802   6.654 -1.9575 -1.2971 -0.0391
   35MOL0     H 4681  10.837   0.900   6.433 -4.4105  0.2920 -0.4018
   35MOL0     H 4682  10.886   0.790   6.574 -1.1271  0.2158  3.3695
   35MOL0     H 4683  10.969   0.978   6.646 -0.7788 -2.9647 -1.9430
   35MOL0     H 4684  10.804   0.987   6.717 -1.4039  2.8490 -1.0882
   35MOL0     H 4685  10.955   1.172   6.790  2.1429 -1.6458 -0.9724
   35MOL0     H 4686  11.133   1.336   6.812  1.9035 -1.0687 -0.4699
   35MOL0     H 4687  11.327   1.710   6.830  1.1354  0.8385  1.6380
   35MOL0     H 4688  11.514   1.834   6.886 -0.8493 -0.2486  1.0902
   35MOL0     H 4689  11.719   1.938   6.862  1.9128  1.1157  0.9123
   35MOL0     H 4690  11.730   1.857   7.018  1.3730  1.8669  0.8951
   35MOL0     H 4691  11.943   1.915   6.830 -1.3624 -0.1807  0.3737
   35MOL0     H 4692  11.896   2.020   6.970 -2.2510 -0.5089  1.5681
   35MOL0     H 4693  11.936   1.834   7.125 -0.9993 -2.5517 -0.4565
   35MOL0     H 4694  12.003   1.741   6.999  0.6893 -0.2424  1.0883
   35MOL0     H 4695  12.124   2.009   7.104  2.2500 -0.3326 -3.0670
   35MOL0     H 4696  12.189   1.910   6.971 -0.4246 -1.0071 -1.0354
   35MOL0     H 4697  12.240   1.727   7.096  0.1435  0.1538  0.5409
   35MOL0     H 4698  12.146   1.774   7.233 -1.4353 -2.1932 -2.1649
   35MOL0     H 4699  12.396   1.920   7.125  4.0333 -0.8698  2.6563
   35MOL0     H 4700  12.301   1.962   7.274 -1.9642 -0.8060  0.6385
   35MOL0     H 4701  12.481   1.724   7.220 -0.3836 -0.0819 -0.6884
   35MOL0     H 4702  12.409   1.771   7.383  2.8469  1.9410  2.5614
   35MOL0     H 4703  12.615   1.924   7.221  0.9914  2.2176  1.6789
   35MOL0     H 4704  12.534   1.991   7.373  1.3811 -0.4780  3.6196
   35MOL0     H 4705  11.763   1.515   6.715 -1.0215 -3.0701  2.0309
   35MOL0     H 4706  11.578   1.392   6.674  1.1255  0.1695  1.6631
   35MOL0     H 4707  11.072   1.447   6.405  1.7991  0.4857  1.3628
   35MOL0     H 4708  10.886   1.299   6.395 -0.0540 -2.9152  0.9967
   35MOL0     H 4709   9.514   0.566   7.054 -0.2410  0.1424 -0.1429
   35MOL0     H 4710   9.289   0.496   7.076  1.8627 -1.0470  0.1546
   35MOL0     H 4711   9.031   0.327   7.576  1.2711  1.0215 -0.2297
   35MOL0     H 4712   8.894   0.147   7.568  0.0223  1.6032  1.0201
   35MOL0     H 4713   8.805  -0.055   7.476  0.4192 -1.7094 -0.8549
   35MOL0     H 4714   8.665  -0.108   7.390  0.1345 -0.4620  0.4637
   35MOL0     H 4715   8.654   0.077   7.631  0.5215 -0.6266  0.9142
   35MOL0     H 4716   8.641  -0.103   7.656  2.1452  0.6836  1.3899
   35MOL0     H 4717   8.445   0.002   7.463 -0.5213  0.2534 -0.0824
   35MOL0     H 4718   8.451   0.102   7.615  0.5835 -0.1768  1.8007
   35MOL0     H 4719   8.431  -0.199   7.590  0.7443 -1.0662  1.3448
   35MOL0     H 4720   8.397  -0.110   7.737  0.3659  2.1262  0.1443
   35MOL0     H 4721   8.014  -0.081   7.556  0.4833 -0.6855 -0.4824
   35MOL0     H 4722   8.711   0.287   7.208  1.0739 -1.2895  0.3528
   35MOL0     H 4723   8.754   0.495   7.130  1.9273 -1.1635 -2.8156
   35MOL0     H 4724   8.864   0.600   7.230 -0.9587 -0.1883  0.8897
   35MOL0     H 4725   8.922   0.503   7.086  0.9915 -1.1743  0.4658
   36MOL0     O 4726   3.218   8.058   4.571  0.9883 -0.0627  1.0861
   36MOL0     C 4727   3.227   7.951   4.629  0.8833  1.2504  0.7376
   36MOL0     O 4728   3.314   7.919   4.730  0.4592  0.4066 -0.2389
   36MOL0     C 4729   3.409   8.011   4.766  0.3987  0.1972 -0.4444
   36MOL0     C 4730   3.492   8.083   4.683  0.3348 -0.4292  0.0786
   36MOL0     C 4731   3.595   8.168   4.728 -0.2518  0.4742 -0.1727
   36MOL0     C 4732   3.611   8.185   4.865 -0.6698  0.6405 -0.0600
   36MOL0     O 4733   3.708   8.261   4.929 -0.2108 -0.3279  0.6912
   36MOL0     C 4734   3.831   8.187   4.950 -0.3483 -0.1893  0.4252
   36MOL0     C 4735   3.936   8.262   5.019  0.9942  0.9967 -0.0979
   36MOL0     C 4736   4.061   8.167   5.042 -0.4290 -0.0682 -0.4714
   36MOL0     C 4737   4.159   8.239   5.141 -0.5596 -0.0347 -0.0580
   36MOL0     C 4738   4.263   8.143   5.200 -0.5468 -0.7604  0.6085
   36MOL0     C 4739   4.366   8.083   5.103  0.0269 -0.0659  0.5540
   36MOL0     C 4740   4.495   8.041   5.173  0.5279 -0.2257  0.1747
   36MOL0     C 4741   4.580   8.167   5.219 -0.7402 -0.0449 -0.5179
   36MOL0     N 4742   4.726   8.133   5.206 -0.0731 -0.1923 -0.0711
   36MOL0     C 4743   4.800   8.061   5.291 -0.0456  0.0864 -1.0606
   36MOL0     C 4744   4.924   8.067   5.240 -1.0380  0.1088 -0.0163
   36MOL0     C 4745   5.036   8.000   5.302  1.0913  0.1108 -0.9129
   36MOL0     C 4746   5.177   8.042   5.267 -0.0356  0.3932  0.1742
   36MOL0     C 4747   5.286   7.942   5.326  0.0268 -0.7316  0.2868
   36MOL0     C 4748   5.418   8.020   5.320  0.8360 -0.1458  0.0182
   36MOL0     O 4749   5.521   7.932   5.366  0.3828 -0.2149 -0.2092
   36MOL0     C 4750   5.653   7.977   5.359  0.2358 -0.0491  0.6329
   36MOL0     C 4751   5.751   7.878   5.398  0.2452  0.0869  0.2016
   36MOL0     C 4752   5.890   7.917   5.400  1.0193  0.4117 -0.1972
   36MOL0     C 4753   5.928   8.045   5.375  0.4594  0.2604 -1.3671
   36MOL0     C 4754   6.074   8.085   5.396  0.4525  0.2550 -0.0714
   36MOL0     O 4755   6.155   7.999   5.453 -0.0420  0.0029  0.4922
   36MOL0     C 4756   6.288   8.016   5.478 -0.6735 -1.0605  0.1341
   36MOL0     C 4757   6.353   8.151   5.486  1.2136 -0.2464 -0.3125
   36MOL0     C 4758   6.493   8.146   5.504  0.8509 -0.4435 -0.2891
   36MOL0     C 4759   6.559   8.030   5.538 -0.6295 -0.4353 -0.2524
   36MOL0     O 4760   6.693   8.050   5.552  0.4232  0.2533  0.0252
   36MOL0     C 4761   6.771   7.986   5.655 -0.8288 -0.1346 -0.0225
   36MOL0     C 4762   6.918   8.027   5.648  0.0293 -0.6647  0.8709
   36MOL0     C 4763   6.979   8.039   5.789 -0.3979 -0.3034  0.2747
   36MOL0     C 4764   7.126   8.077   5.774  0.8152 -0.0476  0.3566
   36MOL0     C 4765   7.193   8.141   5.900  0.1175 -0.4815 -1.4627
   36MOL0     C 4766   7.183   8.049   6.025 -0.3540  0.1207 -0.2814
   36MOL0     C 4767   7.258   8.108   6.145 -0.2047 -0.2805  0.7520
   36MOL0     C 4768   7.227   8.018   6.266  0.2054 -0.6146 -0.2516
   36MOL0    Cl 4769   7.281   7.848   6.237  0.0783  0.3231  0.2181
   36MOL0     C 4770   6.498   7.909   5.541 -0.8049  0.2932 -0.0308
   36MOL0     C 4771   6.361   7.902   5.518 -0.4496  0.5565  0.0927
   36MOL0     O 4772   6.108   8.192   5.340  0.8097 -0.1884  0.9516
   36MOL0     C 4773   5.827   8.144   5.348 -0.9719  0.1181 -0.0120
   36MOL0     C 4774   5.695   8.107   5.340 -0.0922 -0.1592  0.3659
   36MOL0     N 4775   4.931   8.136   5.123 -0.9665 -0.1311  0.1977
   36MOL0     N 4776   4.808   8.172   5.100  0.5410  0.4029  1.1529
   36MOL0     C 4777   3.545   8.093   4.942 -0.1262 -1.0050 -0.1086
   36MOL0     C 4778   3.446   8.010   4.898 -0.1609  0.2231  0.3321
   36MOL0     C 4779   3.120   7.851   4.603 -0.5078 -0.2715  0.1123
   36MOL0     C 4780   3.082   7.765   4.712  0.4788 -0.3355  0.2703
   36MOL0     C 4781   2.973   7.674   4.696 -0.0729 -0.2916 -0.6854
   36MOL0     C 4782   2.896   7.679   4.582 -0.2097  0.0802 -0.3613
   36MOL0     O 4783   2.803   7.591   4.550  0.7709  0.8766  0.2509
   36MOL0     C 4784   2.739   7.499   4.648 -0.1716 -0.8341  0.4171
   36MOL0     C 4785   2.614   7.440   4.597  0.2440 -0.0068  0.2112
   36MOL0     C 4786   2.515   7.415   4.710 -1.2806  0.2290  0.5166
   36MOL0     C 4787   2.393   7.339   4.677  0.8901  0.5375  0.7932
   36MOL0     C 4788   2.297   7.434   4.614  0.1830  0.4605 -0.0927
   36MOL0     C 4789   2.222   7.511   4.560  0.1338  0.8310 -0.5775
   36MOL0     C 4790   2.937   7.758   4.482  0.0158 -0.6908 -0.7583
   36MOL0     C 4791   3.035   7.851   4.492  0.0995 -1.1658  0.2350
   36MOL0     C 4792   3.048   7.951   4.377 -0.2013 -0.1241  0.1863
   36MOL0     H 4793   3.471   8.082   4.576  2.3269  1.1353 -0.3971
   36MOL0     H 4794   3.662   8.214   4.656 -0.6513  1.0494 -0.1871
   36MOL0     H 4795   3.821   8.094   5.006  3.0503 -0.5063  0.7670
   36MOL0     H 4796   3.879   8.164   4.855  3.2990  0.4488  1.9271
   36MOL0     H 4797   3.896   8.284   5.118 -1.7219  1.4332 -1.2124
   36MOL0     H 4798   3.979   8.354   4.979  2.7361  0.1963 -0.1959
   36MOL0     H 4799   4.109   8.148   4.946  0.9519 -0.3900  0.2616
   36MOL0     H 4800   4.038   8.067   5.081  1.0781 -0.8325 -1.4591
   36MOL0     H 4801   4.197   8.329   5.093 -1.7907  0.9560  0.7465
   36MOL0     H 4802   4.098   8.283   5.220  0.2115  0.8167  0.0811
   36MOL0     H 4803   4.327   8.202   5.266  2.5384 -1.6638 -1.3687
   36MOL0     H 4804   4.213   8.063   5.256  0.2757 -1.7343 -0.0125
   36MOL0     H 4805   4.332   8.001   5.040  0.5401 -0.2379  0.4952
   36MOL0     H 4806   4.399   8.161   5.034  2.9868  0.5621  2.4599
   36MOL0     H 4807   4.558   7.991   5.098  1.2115  2.9959 -1.5743
   36MOL0     H 4808   4.471   7.971   5.253  2.9579 -3.4498 -1.6541
   36MOL0     H 4809   4.569   8.250   5.149  0.9447 -1.1989 -2.2671
   36MOL0     H 4810   4.547   8.191   5.320 -2.3706 -3.0553 -0.2158
   36MOL0     H 4811   4.776   8.006   5.381  2.6436  2.3023  1.2246
   36MOL0     H 4812   5.031   7.993   5.411  1.6641 -3.5455 -0.9950
   36MOL0     H 4813   5.032   7.896   5.270  0.2217 -1.3271  3.2111
   36MOL0     H 4814   5.192   8.057   5.160  0.5662  3.0089  0.5454
   36MOL0     H 4815   5.200   8.142   5.305  1.5334  1.2479 -2.7598
   36MOL0     H 4816   5.293   7.849   5.270 -0.0495 -0.8760  0.5143
   36MOL0     H 4817   5.273   7.926   5.433 -1.0398  1.5883  0.5836
   36MOL0     H 4818   5.413   8.104   5.389  1.1287  0.2200 -0.4057
   36MOL0     H 4819   5.433   8.058   5.219 -1.2485  0.3657 -0.1358
   36MOL0     H 4820   5.724   7.774   5.414 -0.8672  0.3825  0.3312
   36MOL0     H 4821   5.957   7.841   5.438 -1.5156 -1.1036  1.6090
   36MOL0     H 4822   6.296   8.242   5.468 -1.7358 -2.2113 -1.7923
   36MOL0     H 4823   6.553   8.236   5.501  1.4013 -0.8459 -2.8411
   36MOL0     H 4824   6.732   8.015   5.753  1.4047  1.0198  0.5925
   36MOL0     H 4825   6.757   7.878   5.648  0.5174 -0.2097 -3.4899
   36MOL0     H 4826   6.963   7.941   5.599 -2.2471 -0.7094 -1.3749
   36MOL0     H 4827   6.931   8.121   5.593  0.8448 -1.3210 -0.1080
   36MOL0     H 4828   6.925   8.110   5.853  1.7817 -1.3837  3.5755
   36MOL0     H 4829   6.976   7.941   5.836 -1.4116 -0.1165  0.6231
   36MOL0     H 4830   7.132   8.155   5.698 -0.1788  1.6803  1.9563
   36MOL0     H 4831   7.183   7.988   5.742  1.0071  0.3390 -0.4040
   36MOL0     H 4832   7.136   8.232   5.918 -3.1761 -3.1061  3.7766
   36MOL0     H 4833   7.300   8.158   5.881 -0.1169  0.4551 -1.9982
   36MOL0     H 4834   7.077   8.027   6.045 -0.3489  0.3173 -0.0349
   36MOL0     H 4835   7.231   7.958   5.989  1.6094  2.2274 -3.4597
   36MOL0     H 4836   7.215   8.203   6.176  0.7178 -0.0619  1.4124
   36MOL0     H 4837   7.364   8.129   6.127 -0.2240 -1.1520 -0.5575
   36MOL0     H 4838   7.270   8.056   6.359  0.6495 -2.0719  0.1699
   36MOL0     H 4839   7.119   8.028   6.279  0.3311 -0.4709  0.7997
   36MOL0     H 4840   6.560   7.820   5.546  0.2358  1.0570  1.2633
   36MOL0     H 4841   6.314   7.804   5.514  1.9713 -0.6513 -2.9940
   36MOL0     H 4842   5.838   8.250   5.333 -3.0389  0.0139 -3.2236
   36MOL0     H 4843   5.621   8.183   5.318 -1.2660 -1.9065 -2.2076
   36MOL0     H 4844   3.554   8.085   5.050  3.7561 -0.0975 -0.2417
   36MOL0     H 4845   3.392   7.946   4.967  0.8919  0.1999  1.1553
   36MOL0     H 4846   3.129   7.765   4.810 -1.1541 -3.2025  1.1868
   36MOL0     H 4847   2.944   7.599   4.769  1.4049  1.2256  1.5784
   36MOL0     H 4848   2.715   7.565   4.732 -0.1232 -0.4812  0.1547
   36MOL0     H 4849   2.811   7.425   4.685  1.5160 -0.2099 -1.4345
   36MOL0     H 4850   2.626   7.342   4.550 -0.9932 -0.0051 -0.1692
   36MOL0     H 4851   2.554   7.502   4.530  0.5937 -2.2208 -2.3287
   36MOL0     H 4852   2.497   7.512   4.758 -2.0054 -0.1688  1.0679
   36MOL0     H 4853   2.567   7.346   4.777  0.9668  1.5474  0.2190
   36MOL0     H 4854   2.415   7.255   4.610  0.3185  0.5955  0.5252
   36MOL0     H 4855   2.341   7.295   4.762  1.4896  1.2250  1.5335
   36MOL0     H 4856   2.158   7.580   4.508 -1.4300 -1.1901 -1.4820
   36MOL0     H 4857   2.890   7.744   4.385  0.1163  2.0716 -1.2811
   36MOL0     H 4858   3.147   7.971   4.336 -0.1780  1.1848  0.8146
   36MOL0     H 4859   2.994   7.905   4.294 -1.3038  0.9838  0.2528
   36MOL0     H 4860   3.013   8.053   4.398 -1.8186 -0.7041  0.4238
   37MOL0     O 4861   5.674   3.557  11.229 -0.3702  0.1486  0.7558
   37MOL0     C 4862   5.693   3.449  11.171  0.9312 -0.2778 -0.1987
   37MOL0     O 4863   5.792   3.430  11.072 -0.0096  0.6516  0.2818
   37MOL0     C 4864   5.890   3.521  11.053 -0.1995 -0.7458 -0.6731
   37MOL0     C 4865   5.961   3.582  11.162 -0.1924 -1.3592  0.2738
   37MOL0     C 4866   6.067   3.673  11.133 -0.5712  0.5203 -0.5966
   37MOL0     C 4867   6.094   3.698  11.000 -0.5915  0.0020 -0.3672
   37MOL0     O 4868   6.198   3.773  10.956  0.1467 -0.5343 -0.3990
   37MOL0     C 4869   6.308   3.788  11.035 -0.3608  0.8057 -0.9226
   37MOL0     C 4870   6.399   3.877  10.958 -0.0036  0.5637  0.5146
   37MOL0     C 4871   6.536   3.886  11.030 -0.2082 -0.5182  0.3910
   37MOL0     C 4872   6.635   3.978  10.954 -0.8466 -0.3893  0.8251
   37MOL0     C 4873   6.770   3.992  11.021  0.7127 -0.9699  0.0892
   37MOL0     C 4874   6.866   3.876  10.990 -1.2281 -0.3554  0.5246
   37MOL0     C 4875   7.004   3.906  11.047 -0.2407 -0.0514 -1.3745
   37MOL0     C 4876   7.088   4.004  10.962 -0.3540  0.2874  0.3687
   37MOL0     N 4877   7.231   3.982  10.990  0.1123  0.1929  0.1318
   37MOL0     C 4878   7.304   4.069  11.071  1.2497  0.6446  0.0089
   37MOL0     C 4879   7.431   4.015  11.064 -0.2461 -0.2916  0.4141
   37MOL0     C 4880   7.555   4.075  11.124  0.2164 -0.4488  0.4479
   37MOL0     C 4881   7.628   4.175  11.032 -0.7852 -0.5456  0.6288
   37MOL0     C 4882   7.772   4.192  11.081 -0.0601 -0.6788 -0.2890
   37MOL0     C 4883   7.794   4.317  11.182  0.0760 -0.1956  0.2425
   37MOL0     O 4884   7.928   4.372  11.170  0.1939  0.0759  0.3733
   37MOL0     C 4885   8.033   4.329  11.243  0.3407 -0.5034 -0.5542
   37MOL0     C 4886   8.025   4.209  11.314  0.7215  0.7881  0.1816
   37MOL0     C 4887   8.127   4.172  11.401  0.1435 -0.2232  0.1271
   37MOL0     C 4888   8.249   4.243  11.408  0.3550  0.1566 -0.7809
   37MOL0     C 4889   8.356   4.205  11.492 -0.3538  0.4893 -0.0617
   37MOL0     O 4890   8.448   4.302  11.532 -0.6644 -0.1374  0.2423
   37MOL0     C 4891   8.574   4.264  11.586  0.2696  0.0265 -0.3796
   37MOL0     C 4892   8.640   4.342  11.676 -0.4369  0.0876  0.2046
   37MOL0     C 4893   8.767   4.317  11.720 -0.2856 -0.4419 -0.4600
   37MOL0     C 4894   8.837   4.204  11.677 -0.5896  0.5418  0.1536
   37MOL0     O 4895   8.967   4.163  11.718 -0.3209  0.0813  0.6396
   37MOL0     C 4896   9.030   4.248  11.818 -0.3430 -0.3233  0.6201
   37MOL0     C 4897   8.958   4.247  11.956 -0.0557 -1.1743  0.2490
   37MOL0     C 4898   8.943   4.104  12.002  0.5887  0.0080 -0.2158
   37MOL0     C 4899   8.957   4.090  12.149  0.6122 -0.4203 -0.7410
   37MOL0     C 4900   8.926   3.945  12.194  0.3064 -0.6316 -0.5305
   37MOL0     C 4901   9.003   3.917  12.336 -0.5730 -0.2739  0.0338
   37MOL0     C 4902   8.997   3.779  12.412  0.3522 -0.3214  0.3148
   37MOL0     C 4903   9.057   3.657  12.331  0.0726 -0.2576 -0.7249
   37MOL0    Cl 4904   9.235   3.690  12.311 -0.1894  0.1307  0.3527
   37MOL0     C 4905   8.771   4.121  11.595  0.0581 -0.4780  0.1214
   37MOL0     C 4906   8.641   4.143  11.555  0.3587 -0.1451  0.4265
   37MOL0     O 4907   8.362   4.086  11.524  0.4541  0.2551 -0.1760
   37MOL0     C 4908   8.255   4.361  11.339  0.2585 -0.2345  0.2437
   37MOL0     C 4909   8.152   4.400  11.249  0.0087 -0.2436 -0.4011
   37MOL0     N 4910   7.429   3.909  10.979 -0.2302  0.3230  1.3187
   37MOL0     N 4911   7.307   3.886  10.941 -0.3599 -0.3171 -0.3694
   37MOL0     C 4912   6.022   3.634  10.896  0.3206 -0.3968 -0.4367
   37MOL0     C 4913   5.923   3.550  10.921  0.1489 -0.4426  0.2321
   37MOL0     C 4914   5.592   3.337  11.185  0.5149  0.1687  1.1210
   37MOL0     C 4915   5.615   3.219  11.106 -0.2045  0.0618  0.6768
   37MOL0     C 4916   5.522   3.117  11.106 -0.1240  0.8333  0.2203
   37MOL0     C 4917   5.395   3.129  11.166 -0.0833 -0.0799 -0.1039
   37MOL0     O 4918   5.302   3.026  11.157 -0.3477 -0.5833 -0.0552
   37MOL0     C 4919   5.181   3.050  11.227 -0.7218  0.4370  0.6075
   37MOL0     C 4920   5.088   2.936  11.217 -0.2609 -0.4949  0.7209
   37MOL0     C 4921   4.959   2.970  11.300 -0.5147  0.3615 -0.3574
   37MOL0     C 4922   4.874   2.851  11.286 -0.0940 -0.1412  0.4263
   37MOL0     C 4923   4.929   2.738  11.362  0.4514  0.6380  0.3045
   37MOL0     C 4924   4.991   2.661  11.433 -0.1350  0.4597 -0.3580
   37MOL0     C 4925   5.371   3.239  11.239  0.0822 -0.1989 -0.1304
   37MOL0     C 4926   5.458   3.345  11.250 -0.7038  0.1091  0.7908
   37MOL0     C 4927   5.422   3.459  11.335 -0.0806 -0.1371  0.8489
   37MOL0     H 4928   5.924   3.575  11.264 -0.0505  0.9699  0.5187
   37MOL0     H 4929   6.121   3.726  11.211 -1.9158 -0.1874  0.8445
   37MOL0     H 4930   6.289   3.843  11.127 -0.5269  1.6114 -1.4210
   37MOL0     H 4931   6.360   3.695  11.058  0.8875  1.0571 -2.5112
   37MOL0     H 4932   6.354   3.975  10.942 -2.6857 -0.7138 -0.5146
   37MOL0     H 4933   6.418   3.820  10.867  1.3902 -0.4968  1.4280
   37MOL0     H 4934   6.586   3.789  11.042  1.5361  0.4442  1.2394
   37MOL0     H 4935   6.522   3.927  11.131 -1.2889 -1.5882  0.7082
   37MOL0     H 4936   6.657   3.935  10.856 -1.1460  0.8208  0.1950
   37MOL0     H 4937   6.593   4.078  10.940  1.7339  1.0003  2.1338
   37MOL0     H 4938   6.812   4.087  10.987  0.1194 -1.7837 -3.3618
   37MOL0     H 4939   6.758   3.990  11.129 -0.2342  1.9644  0.1064
   37MOL0     H 4940   6.823   3.782  11.025 -3.6776 -0.2729 -1.8447
   37MOL0     H 4941   6.870   3.857  10.882  3.7381  1.1627  0.2164
   37MOL0     H 4942   7.059   3.812  11.048  0.8586  0.5738 -1.5731
   37MOL0     H 4943   6.991   3.945  11.148 -0.7223  0.9770 -1.8149
   37MOL0     H 4944   7.074   3.989  10.854 -2.9217  2.6108  0.2696
   37MOL0     H 4945   7.056   4.107  10.977 -0.4723  0.3722 -0.4321
   37MOL0     H 4946   7.245   4.145  11.121 -3.0404 -1.8974 -0.7278
   37MOL0     H 4947   7.523   4.114  11.221  3.5300 -3.5699  3.0542
   37MOL0     H 4948   7.622   3.993  11.148  0.8771 -0.4872 -1.3741
   37MOL0     H 4949   7.639   4.121  10.937 -2.7858 -0.8713  0.5416
   37MOL0     H 4950   7.570   4.263  11.002  1.3847 -0.6119 -5.0046
   37MOL0     H 4951   7.827   4.205  10.987  2.8619 -2.7617  0.9694
   37MOL0     H 4952   7.807   4.100  11.129  3.8320  1.2922  1.0739
   37MOL0     H 4953   7.765   4.277  11.279 -0.1665  0.3798  0.4146
   37MOL0     H 4954   7.731   4.403  11.156  0.7841 -0.2188 -1.7180
   37MOL0     H 4955   7.936   4.147  11.311  1.4139 -0.1861 -1.1469
   37MOL0     H 4956   8.112   4.074  11.445  0.3962 -0.6938 -0.8151
   37MOL0     H 4957   8.603   4.439  11.709  2.7780  2.3227 -2.1505
   37MOL0     H 4958   8.809   4.399  11.778 -0.6580  0.1055 -0.9516
   37MOL0     H 4959   9.134   4.218  11.837 -0.0165  0.8646  0.7536
   37MOL0     H 4960   9.037   4.345  11.768 -0.3031 -1.5718 -1.9766
   37MOL0     H 4961   9.018   4.304  12.027  1.3728  1.2441 -2.6443
   37MOL0     H 4962   8.864   4.303  11.954  0.2883 -0.5862  0.0958
   37MOL0     H 4963   8.846   4.059  11.979 -1.1733  1.7725  3.0537
   37MOL0     H 4964   9.010   4.037  11.947  2.3808  0.6500  1.0958
   37MOL0     H 4965   8.887   4.156  12.202 -0.0405 -2.0079  0.4854
   37MOL0     H 4966   9.059   4.121  12.175  1.1066 -0.7919 -2.1524
   37MOL0     H 4967   8.958   3.863  12.129  1.6134 -1.2699  0.8663
   37MOL0     H 4968   8.821   3.943  12.224  0.7781 -0.3176  1.2616
   37MOL0     H 4969   9.107   3.930  12.305 -0.6665 -1.2922 -0.7756
   37MOL0     H 4970   8.966   4.005  12.388  0.9109  1.3523 -1.5396
   37MOL0     H 4971   8.894   3.759  12.443  0.2189  3.0756  2.5219
   37MOL0     H 4972   9.044   3.788  12.510 -3.8075 -2.8392  2.8379
   37MOL0     H 4973   9.050   3.564  12.388 -0.7232  1.2608  1.8127
   37MOL0     H 4974   8.994   3.651  12.242 -1.7241  0.0809  0.4528
   37MOL0     H 4975   8.820   4.032  11.555  1.5212  0.7287 -0.8832
   37MOL0     H 4976   8.604   4.063  11.492  0.8854  1.2926 -1.8116
   37MOL0     H 4977   8.341   4.425  11.358  0.1274 -0.4333  1.6239
   37MOL0     H 4978   8.165   4.488  11.186  0.1899 -1.6130 -2.3388
   37MOL0     H 4979   6.038   3.656  10.791 -1.1144  0.7936 -0.4393
   37MOL0     H 4980   5.874   3.506  10.835 -1.4250  2.9283 -0.8074
   37MOL0     H 4981   5.702   3.201  11.044 -0.9313  1.6794 -0.9239
   37MOL0     H 4982   5.549   3.024  11.056 -0.4670 -0.2148  1.9261
   37MOL0     H 4983   5.132   3.139  11.185  0.1845 -0.8584 -3.7221
   37MOL0     H 4984   5.209   3.058  11.332 -0.0085 -0.4483  0.5025
   37MOL0     H 4985   5.148   2.853  11.256  2.6631  0.2351 -1.8327
   37MOL0     H 4986   5.054   2.915  11.115 -3.5523 -0.1199  1.6312
   37MOL0     H 4987   4.913   3.055  11.250 -1.2400  0.2776  0.1641
   37MOL0     H 4988   4.993   2.979  11.404 -1.2893 -2.6733  0.2583
   37MOL0     H 4989   4.784   2.882  11.340 -0.6824 -3.2305  1.4322
   37MOL0     H 4990   4.843   2.828  11.184  1.8862  1.9473 -0.7420
   37MOL0     H 4991   5.052   2.603  11.500  0.9931 -0.7715 -2.3339
   37MOL0     H 4992   5.273   3.256  11.284  0.8219  0.0514  1.4607
   37MOL0     H 4993   5.404   3.546  11.269  0.5561 -0.9443 -0.4274
   37MOL0     H 4994   5.326   3.442  11.384 -1.9105  2.6670 -1.3771
   37MOL0     H 4995   5.502   3.474  11.407 -1.9919 -1.1848  3.3115
   38MOL0     O 4996   6.660   5.509   2.451 -0.6752 -0.4993 -0.1015
   38MOL0     C 4997   6.624   5.457   2.557  0.2907  0.0890 -0.0610
   38MOL0     O 4998   6.709   5.416   2.652  0.5048 -0.0291 -0.1843
   38MOL0     C 4999   6.798   5.505   2.690 -0.3231  0.7572 -0.7981
   38MOL0     C 5000   6.927   5.444   2.721  0.2634 -0.5480  0.3853
   38MOL0     C 5001   7.033   5.533   2.758 -0.2513  0.4010 -0.0253
   38MOL0     C 5002   7.020   5.668   2.778  0.0652 -0.7078 -0.2997
   38MOL0     O 5003   7.137   5.736   2.805 -0.3781  0.1361 -0.2516
   38MOL0     C 5004   7.110   5.883   2.827  0.3320  1.0056  0.0564
   38MOL0     C 5005   7.219   5.937   2.907  0.1628  0.3134 -1.2337
   38MOL0     C 5006   7.359   5.918   2.841  0.1188  0.0525 -0.0990
   38MOL0     C 5007   7.460   6.027   2.884  0.3590 -0.4152 -1.1392
   38MOL0     C 5008   7.587   6.028   2.798  0.6460  0.4932 -0.3857
   38MOL0     C 5009   7.679   6.138   2.859 -0.3303 -0.2867  0.0969
   38MOL0     C 5010   7.827   6.112   2.843 -1.1767 -0.2641  0.2624
   38MOL0     C 5011   7.901   6.241   2.883 -0.0349 -0.0367 -0.3430
   38MOL0     N 5012   8.039   6.223   2.830 -0.3141 -0.6105  0.0078
   38MOL0     C 5013   8.075   6.252   2.704  0.2668 -0.5515  0.6882
   38MOL0     C 5014   8.200   6.214   2.690 -0.3300 -0.1881 -0.7642
   38MOL0     C 5015   8.273   6.209   2.559  0.3392  0.2811  0.7724
   38MOL0     C 5016   8.407   6.288   2.561 -0.5958  0.1459 -0.4406
   38MOL0     C 5017   8.501   6.226   2.452 -0.5621  0.3811  0.3190
   38MOL0     C 5018   8.639   6.262   2.483 -0.1744  1.1638 -0.0089
   38MOL0     O 5019   8.712   6.266   2.355  0.1919 -0.1720 -0.6561
   38MOL0     C 5020   8.839   6.320   2.352  0.1243 -1.4676 -0.0047
   38MOL0     C 5021   8.919   6.342   2.467 -0.2846  0.5389 -0.4705
   38MOL0     C 5022   9.045   6.385   2.453 -0.1917 -0.2486 -0.1955
   38MOL0     C 5023   9.104   6.410   2.324 -0.5434  0.1266 -0.7311
   38MOL0     C 5024   9.239   6.473   2.327  0.1005 -0.4968 -0.0389
   38MOL0     O 5025   9.308   6.434   2.224 -0.3411  0.4673 -0.3329
   38MOL0     C 5026   9.447   6.436   2.215 -0.5592 -0.0924  0.2320
   38MOL0     C 5027   9.524   6.322   2.187  0.2576 -0.2751 -0.7061
   38MOL0     C 5028   9.660   6.332   2.186  0.9279 -0.6191  1.0861
   38MOL0     C 5029   9.727   6.452   2.219  0.4374  0.2706 -0.3010
   38MOL0     O 5030   9.861   6.463   2.238 -0.0076  0.0173  0.2921
   38MOL0     C 5031   9.936   6.344   2.227  0.1410  0.1027 -0.3337
   38MOL0     C 5032  10.087   6.382   2.227 -0.0499  0.3328 -0.4001
   38MOL0     C 5033  10.156   6.359   2.093  0.2569 -0.0458  0.7449
   38MOL0     C 5034  10.300   6.401   2.093 -0.0878  0.4903  0.6909
   38MOL0     C 5035  10.374   6.407   1.958  1.0734  0.2793  0.3526
   38MOL0     C 5036  10.359   6.267   1.887  0.3013  0.6760 -0.5399
   38MOL0     C 5037  10.428   6.274   1.748  0.0744 -0.4601 -0.9302
   38MOL0     C 5038  10.402   6.148   1.657  0.4452  0.7674  0.4203
   38MOL0    Cl 5039  10.547   6.107   1.557 -0.2810  0.0142  0.3580
   38MOL0     C 5040   9.661   6.576   2.227 -0.2353  0.5758 -0.0138
   38MOL0     C 5041   9.518   6.566   2.229  0.2180  0.4869 -0.5293
   38MOL0     O 5042   9.285   6.532   2.422 -0.1385  0.3183 -0.2610
   38MOL0     C 5043   9.032   6.377   2.210 -0.1291  0.2062  0.3477
   38MOL0     C 5044   8.897   6.340   2.227  0.4056  0.1855  0.1946
   38MOL0     N 5045   8.253   6.173   2.811  0.3552  0.5446  0.4625
   38MOL0     N 5046   8.152   6.174   2.894  0.9223 -0.5067 -0.1108
   38MOL0     C 5047   6.898   5.725   2.741  0.4434  0.0223  0.0166
   38MOL0     C 5048   6.788   5.643   2.700  0.0727  0.2537 -0.2115
   38MOL0     C 5049   6.483   5.417   2.576 -0.1754 -0.2296  0.6532
   38MOL0     C 5050   6.452   5.301   2.642 -0.0824  0.5177  0.1320
   38MOL0     C 5051   6.328   5.266   2.683  0.2291  0.2302 -0.0953
   38MOL0     C 5052   6.220   5.353   2.656  0.1033  0.4358 -0.5360
   38MOL0     O 5053   6.091   5.327   2.708  0.4965 -1.0002 -0.1545
   38MOL0     C 5054   6.042   5.425   2.809 -0.1196 -0.1691  0.6752
   38MOL0     C 5055   6.137   5.454   2.915 -0.6058 -0.5314 -0.1990
   38MOL0     C 5056   6.074   5.508   3.048  0.5745 -0.0844 -0.5548
   38MOL0     C 5057   6.088   5.654   3.058  0.0508 -1.3157  0.1882
   38MOL0     C 5058   6.032   5.732   2.948 -0.1254 -0.5280 -0.4932
   38MOL0     C 5059   6.007   5.808   2.850  0.6557  0.3311 -0.3361
   38MOL0     C 5060   6.251   5.469   2.578 -0.6200  1.0191 -0.5231
   38MOL0     C 5061   6.380   5.509   2.547  0.2383  0.2559 -0.1589
   38MOL0     C 5062   6.398   5.648   2.486 -0.2370 -0.1616 -0.3620
   38MOL0     H 5063   6.953   5.343   2.689 -0.2110 -0.6750  0.3922
   38MOL0     H 5064   7.132   5.492   2.775 -0.8424 -1.7106 -1.2093
   38MOL0     H 5065   7.109   5.939   2.733 -1.6380  0.4518 -0.3027
   38MOL0     H 5066   7.019   5.891   2.888  0.7778  1.3719  0.6774
   38MOL0     H 5067   7.212   5.903   3.011 -1.8849  2.6284 -0.5285
   38MOL0     H 5068   7.199   6.043   2.923 -0.3558 -0.0983  1.3470
   38MOL0     H 5069   7.348   5.917   2.732 -1.2516  2.0758 -0.0279
   38MOL0     H 5070   7.407   5.828   2.881  1.8063 -0.3503 -2.8076
   38MOL0     H 5071   7.412   6.125   2.882  0.9263 -0.0799  0.3986
   38MOL0     H 5072   7.489   6.013   2.988  1.2615  1.7618 -1.0445
   38MOL0     H 5073   7.639   5.932   2.798 -2.4286 -1.3440 -1.7747
   38MOL0     H 5074   7.560   6.044   2.693 -0.0671 -1.7833 -0.6162
   38MOL0     H 5075   7.649   6.231   2.809 -0.7106 -0.7473 -0.5474
   38MOL0     H 5076   7.659   6.152   2.966 -1.1057 -0.4885 -0.0119
   38MOL0     H 5077   7.854   6.074   2.744 -4.4075 -2.5051  0.0792
   38MOL0     H 5078   7.851   6.023   2.902  1.4117 -1.0820 -1.8338
   38MOL0     H 5079   7.851   6.332   2.847  0.9413  0.2517 -1.0054
   38MOL0     H 5080   7.896   6.263   2.990  0.0343  2.0369 -0.7184
   38MOL0     H 5081   8.012   6.277   2.619 -0.5929  1.4684  1.8435
   38MOL0     H 5082   8.299   6.104   2.542 -0.4208 -0.2826  2.7984
   38MOL0     H 5083   8.203   6.240   2.481  0.0665  2.2184  1.7314
   38MOL0     H 5084   8.395   6.394   2.536 -1.0169 -0.0944 -1.3246
   38MOL0     H 5085   8.453   6.284   2.660 -1.0584 -0.9348 -0.2570
   38MOL0     H 5086   8.471   6.268   2.355  1.3953 -0.8741 -0.9096
   38MOL0     H 5087   8.494   6.117   2.455  1.3805  0.2211  4.0717
   38MOL0     H 5088   8.684   6.194   2.556  0.1009  0.8464 -0.4717
   38MOL0     H 5089   8.646   6.352   2.544  3.5818  0.9317  0.1097
   38MOL0     H 5090   8.872   6.340   2.565 -0.6867  2.6639 -0.5802
   38MOL0     H 5091   9.098   6.407   2.545  0.8568  0.5651 -0.9804
   38MOL0     H 5092   9.478   6.229   2.155 -0.2572 -0.8086  1.3971
   38MOL0     H 5093   9.703   6.233   2.169 -1.2038 -1.5950  0.9867
   38MOL0     H 5094   9.925   6.285   2.319  1.3456  2.1964  1.2571
   38MOL0     H 5095   9.910   6.294   2.134  0.4122 -1.2704  0.3054
   38MOL0     H 5096  10.097   6.485   2.261 -3.1740  1.7906 -3.3591
   38MOL0     H 5097  10.141   6.323   2.302  2.0312  0.1290 -1.9690
   38MOL0     H 5098  10.148   6.254   2.066  1.9259  0.1885 -0.8483
   38MOL0     H 5099  10.112   6.417   2.011 -1.0397  1.2819  2.2936
   38MOL0     H 5100  10.349   6.319   2.146  1.0703  0.4814 -0.3416
   38MOL0     H 5101  10.322   6.493   2.149  2.7060 -0.1412  0.7883
   38MOL0     H 5102  10.482   6.408   1.973  0.9686 -2.9955  2.3709
   38MOL0     H 5103  10.335   6.489   1.898 -0.1490  0.7340  1.6993
   38MOL0     H 5104  10.390   6.187   1.955 -2.8130  1.9515  2.6421
   38MOL0     H 5105  10.253   6.248   1.870 -0.0342  1.3068  0.7483
   38MOL0     H 5106  10.535   6.293   1.764  0.1562 -1.0614 -0.7571
   38MOL0     H 5107  10.393   6.364   1.697 -0.0488  1.3550  2.0654
   38MOL0     H 5108  10.374   6.061   1.716 -1.7204  0.7707 -0.5102
   38MOL0     H 5109  10.316   6.171   1.593 -0.3867  0.7789  1.5201
   38MOL0     H 5110   9.718   6.662   2.262 -0.7862  0.1980  1.9125
   38MOL0     H 5111   9.451   6.648   2.256 -0.9069 -0.7473  0.5695
   38MOL0     H 5112   9.074   6.386   2.111  0.6578  0.3158  0.6886
   38MOL0     H 5113   8.837   6.328   2.138  0.8019  2.7709 -0.5081
   38MOL0     H 5114   6.874   5.830   2.731 -0.1769 -0.2314 -1.3703
   38MOL0     H 5115   6.698   5.697   2.671  0.1899 -0.1059 -1.2781
   38MOL0     H 5116   6.538   5.237   2.658 -0.3252 -0.7319 -2.8922
   38MOL0     H 5117   6.304   5.173   2.735  1.7556 -1.3200 -2.0014
   38MOL0     H 5118   5.942   5.392   2.839  0.1239 -1.8122 -0.2365
   38MOL0     H 5119   6.027   5.514   2.748 -2.1113 -0.8568  0.1077
   38MOL0     H 5120   6.209   5.521   2.868 -1.9765  1.5547  0.5398
   38MOL0     H 5121   6.189   5.361   2.938 -1.0067 -0.2695  1.9416
   38MOL0     H 5122   6.111   5.456   3.137  0.8056 -0.2839 -0.7685
   38MOL0     H 5123   5.966   5.488   3.047  0.3430  0.5506  2.2795
   38MOL0     H 5124   6.040   5.696   3.146  0.1020  2.9713 -1.5920
   38MOL0     H 5125   6.196   5.672   3.062  0.2620 -2.4605  0.0116
   38MOL0     H 5126   5.982   5.861   2.760 -1.8678  0.2006  0.2084
   38MOL0     H 5127   6.167   5.534   2.554  0.0770  2.1330 -0.0118
   38MOL0     H 5128   6.311   5.715   2.486  1.4459  2.1541 -0.2572
   38MOL0     H 5129   6.476   5.703   2.538 -1.0279  1.8848 -1.1997
   38MOL0     H 5130   6.425   5.638   2.380  0.6261  1.2708 -0.3097
   39MOL0     O 5131   6.110   2.809   2.612 -0.7199  0.8882 -0.0016
   39MOL0     C 5132   6.054   2.726   2.544  0.3988  0.5946 -0.0849
   39MOL0     O 5133   6.116   2.634   2.464  1.3032 -0.3178 -0.7009
   39MOL0     C 5134   6.253   2.639   2.451  0.5258 -0.6751 -0.4776
   39MOL0     C 5135   6.304   2.662   2.321  0.6239  0.6034  0.4921
   39MOL0     C 5136   6.439   2.659   2.297  0.1454 -0.1228  1.0059
   39MOL0     C 5137   6.525   2.600   2.390  0.0440 -0.5515 -0.2423
   39MOL0     O 5138   6.649   2.563   2.374 -0.1153  0.0023  0.3743
   39MOL0     C 5139   6.754   2.637   2.437  0.3750  0.1644 -0.1526
   39MOL0     C 5140   6.871   2.546   2.446  0.0698  0.4552  0.7337
   39MOL0     C 5141   6.991   2.607   2.515 -0.0917  0.9485 -0.0942
   39MOL0     C 5142   7.110   2.519   2.488  0.0402  0.1432  0.4659
   39MOL0     C 5143   7.222   2.552   2.582 -0.7946  0.1017 -0.0611
   39MOL0     C 5144   7.283   2.697   2.554 -0.5211  0.2251  0.2679
   39MOL0     C 5145   7.390   2.735   2.645 -0.2423 -0.7112 -0.2679
   39MOL0     C 5146   7.338   2.779   2.786  0.0560 -0.3028 -0.3214
   39MOL0     N 5147   7.445   2.822   2.878 -0.8099  0.9590 -0.3627
   39MOL0     C 5148   7.502   2.736   2.966 -0.5338 -0.5327  0.4490
   39MOL0     C 5149   7.602   2.815   3.026  0.1997  0.6815  0.0560
   39MOL0     C 5150   7.696   2.755   3.127  0.6783 -0.6877 -0.5440
   39MOL0     C 5151   7.842   2.746   3.075  1.2618 -0.0677 -0.6644
   39MOL0     C 5152   7.926   2.674   3.184 -0.2095  0.7345 -0.3779
   39MOL0     C 5153   8.079   2.688   3.163 -0.5572 -0.0824 -0.6197
   39MOL0     O 5154   8.125   2.640   3.038 -0.0239  0.3975 -0.4855
   39MOL0     C 5155   8.262   2.629   3.031 -0.7817  0.3931  0.4906
   39MOL0     C 5156   8.308   2.558   2.922 -0.7434 -0.2534 -0.6441
   39MOL0     C 5157   8.446   2.537   2.907 -0.1888 -0.1672  0.0933
   39MOL0     C 5158   8.536   2.600   2.990  0.4729  0.0722 -0.4621
   39MOL0     C 5159   8.683   2.600   2.963 -0.6064  0.3917  0.5320
   39MOL0     O 5160   8.759   2.632   3.064 -0.5648  0.0545  0.6501
   39MOL0     C 5161   8.892   2.620   3.074  0.2919  0.3702  0.4016
   39MOL0     C 5162   8.942   2.611   3.208  0.4760 -0.3390 -0.5292
   39MOL0     C 5163   9.078   2.580   3.232  0.8124 -0.7119  0.9433
   39MOL0     C 5164   9.163   2.552   3.125  0.1907  0.2487  0.2230
   39MOL0     O 5165   9.288   2.499   3.127 -0.7872 -0.5075 -0.0731
   39MOL0     C 5166   9.352   2.471   3.251  1.2350  0.2842 -0.8836
   39MOL0     C 5167   9.457   2.366   3.235  0.1769 -0.2458  0.1768
   39MOL0     C 5168   9.453   2.260   3.351  0.3918 -0.8941  0.4218
   39MOL0     C 5169   9.516   2.321   3.474  1.0768 -0.4375 -0.1171
   39MOL0     C 5170   9.652   2.260   3.512  0.3811 -0.7698 -0.1579
   39MOL0     C 5171   9.771   2.292   3.413  0.4846 -0.5094 -0.2784
   39MOL0     C 5172   9.907   2.259   3.462 -0.3234  0.6497 -0.4575
   39MOL0     C 5173   9.955   2.312   3.596 -0.4443 -0.4599  0.3565
   39MOL0    Cl 5174  10.137   2.303   3.595 -0.0980 -0.5163  0.0589
   39MOL0     C 5175   9.107   2.562   2.994  0.0015 -0.9655 -0.3488
   39MOL0     C 5176   8.977   2.604   2.963  0.1555 -0.3124 -0.4484
   39MOL0     O 5177   8.718   2.560   2.854 -0.1865 -0.2268 -0.0355
   39MOL0     C 5178   8.485   2.679   3.102  0.0944 -0.0377  0.1102
   39MOL0     C 5179   8.353   2.689   3.118  0.2423 -0.1831  0.2296
   39MOL0     N 5180   7.601   2.943   2.976  0.2677  0.2184 -0.0760
   39MOL0     N 5181   7.504   2.943   2.893  0.2467  0.5217 -1.1085
   39MOL0     C 5182   6.473   2.567   2.524 -0.0600  0.4396 -0.0601
   39MOL0     C 5183   6.337   2.589   2.555 -0.2210  1.1833  0.1119
   39MOL0     C 5184   5.911   2.736   2.525 -0.5882 -0.1661  0.2583
   39MOL0     C 5185   5.857   2.646   2.435  0.4812  0.4122 -0.7274
   39MOL0     C 5186   5.717   2.636   2.422  1.2290  0.5920  0.1840
   39MOL0     C 5187   5.633   2.728   2.481  0.0869 -0.2137 -0.7072
   39MOL0     O 5188   5.502   2.712   2.437  0.3123  1.3640  0.1622
   39MOL0     C 5189   5.399   2.781   2.512  0.2460 -0.1906  0.1603
   39MOL0     C 5190   5.261   2.748   2.466  0.3029  0.0932 -0.1460
   39MOL0     C 5191   5.231   2.807   2.324  0.0577  0.5308 -0.7044
   39MOL0     C 5192   5.082   2.829   2.297  0.0310  0.4393 -0.1007
   39MOL0     C 5193   5.027   2.935   2.385 -0.2943  0.7449  0.2821
   39MOL0     C 5194   4.993   3.011   2.470 -0.0043 -0.3966  1.0004
   39MOL0     C 5195   5.682   2.824   2.567 -0.2632 -0.0445  0.4786
   39MOL0     C 5196   5.824   2.832   2.588 -0.4881 -1.1183  0.4430
   39MOL0     C 5197   5.873   2.934   2.697  0.5580 -0.7834  0.0532
   39MOL0     H 5198   6.235   2.675   2.238  0.4399  1.0013  0.7028
   39MOL0     H 5199   6.460   2.683   2.193  0.2464  3.4414  1.6957
   39MOL0     H 5200   6.782   2.728   2.383 -0.9057  0.6425 -0.0496
   39MOL0     H 5201   6.733   2.671   2.539  0.4032  1.3308 -0.5129
   39MOL0     H 5202   6.893   2.518   2.342 -0.9381  0.4407  0.5176
   39MOL0     H 5203   6.843   2.449   2.490 -1.7484 -0.6072 -2.4191
   39MOL0     H 5204   6.959   2.595   2.619 -1.9579 -1.0041 -0.8043
   39MOL0     H 5205   7.001   2.712   2.486 -1.2662  1.1552  0.1882
   39MOL0     H 5206   7.072   2.419   2.510 -0.0925 -0.4238 -2.0445
   39MOL0     H 5207   7.147   2.528   2.385 -0.9232  1.3921  0.1964
   39MOL0     H 5208   7.195   2.532   2.686  0.8559  1.4359  0.6656
   39MOL0     H 5209   7.310   2.490   2.563 -0.8293 -0.2952  1.0370
   39MOL0     H 5210   7.328   2.682   2.455 -0.4595 -1.3993  0.5107
   39MOL0     H 5211   7.215   2.781   2.536  0.2134  0.2187 -3.3111
   39MOL0     H 5212   7.442   2.824   2.606 -2.8756  0.6060 -0.9971
   39MOL0     H 5213   7.470   2.661   2.653  0.4178  0.0058  0.0021
   39MOL0     H 5214   7.272   2.865   2.774  0.6245  0.2483  0.3732
   39MOL0     H 5215   7.293   2.697   2.842  0.9280  0.5211  1.6680
   39MOL0     H 5216   7.469   2.634   2.986  0.5862 -0.9391  0.3023
   39MOL0     H 5217   7.683   2.819   3.215  0.9730 -1.0060 -0.2676
   39MOL0     H 5218   7.655   2.661   3.164 -1.3943  0.0220 -0.8945
   39MOL0     H 5219   7.843   2.701   2.975 -2.3692  2.1866 -1.8990
   39MOL0     H 5220   7.856   2.853   3.057 -0.1725 -0.1641 -2.7321
   39MOL0     H 5221   7.892   2.570   3.187 -0.4930  0.8524  0.6673
   39MOL0     H 5222   7.905   2.714   3.284  2.7196  1.5248  0.0088
   39MOL0     H 5223   8.134   2.639   3.243  2.1852  3.7198  0.0902
   39MOL0     H 5224   8.097   2.796   3.169 -2.8302  0.3862 -1.0031
   39MOL0     H 5225   8.235   2.498   2.869 -2.0551 -1.2124  2.0222
   39MOL0     H 5226   8.470   2.470   2.825 -1.4647  0.3677 -0.7494
   39MOL0     H 5227   8.885   2.645   3.294  2.2243 -0.7893  0.8697
   39MOL0     H 5228   9.110   2.561   3.334  1.5638 -1.2895  0.6130
   39MOL0     H 5229   9.391   2.561   3.298  0.4531  0.0401  0.2831
   39MOL0     H 5230   9.276   2.434   3.320  0.7894 -0.3794 -1.7012
   39MOL0     H 5231   9.439   2.320   3.138  2.4786  2.5359 -1.7279
   39MOL0     H 5232   9.551   2.421   3.233 -0.0682  0.1486 -1.6459
   39MOL0     H 5233   9.356   2.216   3.378  1.7062 -3.1122  1.8265
   39MOL0     H 5234   9.523   2.182   3.321  0.2438  0.2719 -3.4711
   39MOL0     H 5235   9.453   2.305   3.562  2.0751 -2.4098  0.3038
   39MOL0     H 5236   9.544   2.426   3.463  0.9558 -0.4881 -0.9831
   39MOL0     H 5237   9.655   2.151   3.527 -2.7090 -0.9762 -0.3570
   39MOL0     H 5238   9.676   2.302   3.610 -0.0180 -1.1265  0.0981
   39MOL0     H 5239   9.744   2.239   3.321  2.5704  1.9892 -2.5301
   39MOL0     H 5240   9.766   2.399   3.389 -0.2741 -0.5217 -0.1872
   39MOL0     H 5241   9.976   2.303   3.388  0.6010 -0.5965 -0.3651
   39MOL0     H 5242   9.929   2.152   3.464  2.2409  1.1176  0.3035
   39MOL0     H 5243   9.924   2.416   3.611  3.6042  1.5083 -2.6948
   39MOL0     H 5244   9.909   2.242   3.666 -1.5787 -1.4430 -1.3048
   39MOL0     H 5245   9.173   2.538   2.911  1.3921  1.6865 -0.0971
   39MOL0     H 5246   8.935   2.631   2.867 -0.5174  3.4346  0.7411
   39MOL0     H 5247   8.546   2.709   3.186  0.3107 -1.2795  0.4177
   39MOL0     H 5248   8.326   2.753   3.201  1.7949  1.4074 -0.4173
   39MOL0     H 5249   6.544   2.513   2.585 -0.0111  1.2497  0.6147
   39MOL0     H 5250   6.303   2.562   2.655 -1.6889 -5.8674 -1.7356
   39MOL0     H 5251   5.908   2.565   2.384  0.7813 -1.9434  2.9457
   39MOL0     H 5252   5.677   2.545   2.379 -0.5863  2.2265 -1.7760
   39MOL0     H 5253   5.414   2.889   2.514 -0.4479 -0.0256 -1.5759
   39MOL0     H 5254   5.409   2.742   2.614  2.4764  1.2346  0.5544
   39MOL0     H 5255   5.183   2.774   2.539  0.4381 -1.9853  0.8054
   39MOL0     H 5256   5.257   2.639   2.454 -0.2522  0.4073 -4.4356
   39MOL0     H 5257   5.264   2.727   2.257 -0.0542 -1.0481  1.0351
   39MOL0     H 5258   5.290   2.897   2.303 -0.1503  1.1173  1.0499
   39MOL0     H 5259   5.074   2.852   2.190  4.9620  4.5645  0.0263
   39MOL0     H 5260   5.025   2.736   2.305  2.0304 -0.8641 -0.3878
   39MOL0     H 5261   4.985   3.071   2.559 -1.4434  2.5334 -0.9465
   39MOL0     H 5262   5.626   2.895   2.626  0.6330 -0.1697  1.5135
   39MOL0     H 5263   5.921   2.869   2.770 -3.0129 -1.0564  2.4211
   39MOL0     H 5264   5.931   3.018   2.658  1.0846 -2.2272 -2.4625
   39MOL0     H 5265   5.786   2.972   2.753 -1.1603 -1.7352 -1.8532
   40MOL0     O 5266  10.666  10.990   1.153 -0.2355 -0.1324 -0.8353
   40MOL0     C 5267  10.596  10.890   1.167  0.4264 -0.2301  0.0353
   40MOL0     O 5268  10.643  10.760   1.160  0.2125 -0.3844  0.0962
   40MOL0     C 5269  10.775  10.745   1.180 -0.7991 -0.2293  0.2807
   40MOL0     C 5270  10.831  10.736   1.307  0.2473 -0.1049  0.0993
   40MOL0     C 5271  10.970  10.752   1.338  0.3019  0.2114  1.3078
   40MOL0     C 5272  11.062  10.762   1.233  0.1308 -0.8739  0.2511
   40MOL0     O 5273  11.206  10.762   1.249 -0.2470 -0.4159 -0.0188
   40MOL0     C 5274  11.256  10.756   1.381  0.2254  0.2809  0.8072
   40MOL0     C 5275  11.402  10.734   1.358 -0.1550  0.6299  0.3585
   40MOL0     C 5276  11.486  10.857   1.308  0.0366 -0.0406 -0.3177
   40MOL0     C 5277  11.631  10.817   1.290  0.2287  0.2454 -0.8918
   40MOL0     C 5278  11.712  10.938   1.238 -0.6861  0.3532  0.0367
   40MOL0     C 5279  11.862  10.914   1.251 -0.4991  0.2964 -0.3018
   40MOL0     C 5280  11.922  10.948   1.386  0.6781 -0.4728 -0.5362
   40MOL0     C 5281  11.968  11.100   1.387  0.3975  0.8295 -0.8476
   40MOL0     N 5282  12.021  11.138   1.522 -0.3146  0.5986  1.3070
   40MOL0     C 5283  12.131  11.072   1.579  0.4026 -0.4531  0.3403
   40MOL0     C 5284  12.167  11.142   1.685 -0.1232  0.1869 -0.1729
   40MOL0     C 5285  12.297  11.115   1.761 -0.0627  0.9598 -0.1291
   40MOL0     C 5286  12.416  11.179   1.696 -0.0375 -0.2934  0.1258
   40MOL0     C 5287  12.425  11.328   1.725 -0.5780 -0.0588  0.9426
   40MOL0     C 5288  12.555  11.396   1.673 -0.6714  0.4270  0.4566
   40MOL0     O 5289  12.661  11.355   1.764 -0.3562  0.5211  0.7912
   40MOL0     C 5290  12.782  11.419   1.726  0.3285  0.9062  0.2064
   40MOL0     C 5291  12.839  11.400   1.591  0.7853 -0.0235 -0.2068
   40MOL0     C 5292  12.967  11.444   1.567 -0.1029 -0.5599 -0.1668
   40MOL0     C 5293  13.049  11.503   1.666  0.5926 -0.0094  0.1475
   40MOL0     C 5294  13.190  11.552   1.640  0.7765 -0.3180  0.0913
   40MOL0     O 5295  13.270  11.591   1.749 -0.1547 -0.2264  0.8620
   40MOL0     C 5296  13.395  11.637   1.715  1.1585 -0.7647 -0.6068
   40MOL0     C 5297  13.405  11.765   1.673  0.7022  0.3029 -0.0379
   40MOL0     C 5298  13.527  11.821   1.640 -0.6639 -0.3436 -0.0822
   40MOL0     C 5299  13.636  11.743   1.648 -0.0096 -0.5577  0.0495
   40MOL0     O 5300  13.744  11.815   1.622 -0.9000  0.4753  0.2897
   40MOL0     C 5301  13.867  11.747   1.641  0.9015  0.4371 -0.0714
   40MOL0     C 5302  13.976  11.856   1.630  0.6723  0.2932  0.4013
   40MOL0     C 5303  14.110  11.793   1.655  0.4052 -1.1562 -0.8877
   40MOL0     C 5304  14.216  11.901   1.648  0.9306 -0.4036 -0.0537
   40MOL0     C 5305  14.350  11.857   1.714  0.3948  0.7357  0.4264
   40MOL0     C 5306  14.442  11.972   1.742 -0.0834  0.3604  0.2123
   40MOL0     C 5307  14.577  11.944   1.808 -0.3577 -0.2763 -0.3714
   40MOL0     C 5308  14.680  12.061   1.801 -0.1050  0.3138  0.1997
   40MOL0    Cl 5309  14.849  12.022   1.863  0.0034 -0.2050  0.0030
   40MOL0     C 5310  13.634  11.607   1.686  0.0953  0.0332 -0.6986
   40MOL0     C 5311  13.511  11.558   1.715  0.3929  0.0216 -0.1118
   40MOL0     O 5312  13.227  11.554   1.521  0.1517  0.4927 -0.9879
   40MOL0     C 5313  12.991  11.526   1.791 -0.2803  0.3953 -0.2521
   40MOL0     C 5314  12.850  11.496   1.819 -0.0231 -0.2837  0.4969
   40MOL0     N 5315  12.074  11.245   1.698 -0.1859 -1.3219  0.1233
   40MOL0     N 5316  11.982  11.235   1.606 -0.8650  0.7984  0.0373
   40MOL0     C 5317  11.012  10.760   1.105  1.2000  0.1088  0.1201
   40MOL0     C 5318  10.873  10.761   1.076 -0.2508  0.1405  0.2449
   40MOL0     C 5319  10.449  10.913   1.204 -0.1402  0.3039 -0.0302
   40MOL0     C 5320  10.359  10.807   1.182 -0.1748  0.3181 -0.4455
   40MOL0     C 5321  10.222  10.812   1.200  0.5453 -0.7968  0.5007
   40MOL0     C 5322  10.164  10.926   1.254  0.2898  1.0676  0.1761
   40MOL0     O 5323  10.032  10.933   1.261  0.0748  0.1302  0.4451
   40MOL0     C 5324   9.949  10.812   1.263  0.4500 -0.0602 -0.2197
   40MOL0     C 5325   9.959  10.722   1.387  0.0973 -0.1885  0.0201
   40MOL0     C 5326   9.944  10.793   1.526 -0.4835 -0.5589  0.2099
   40MOL0     C 5327   9.818  10.874   1.548  0.5361 -0.1475  0.1392
   40MOL0     C 5328   9.819  10.929   1.685  0.7688  0.0102  0.7954
   40MOL0     C 5329   9.818  10.979   1.792  0.3546 -0.4966  0.1547
   40MOL0     C 5330  10.246  11.039   1.281 -0.1607 -0.5884  1.0876
   40MOL0     C 5331  10.384  11.033   1.250 -0.3167 -0.2545  0.0886
   40MOL0     C 5332  10.450  11.167   1.301  0.9072  0.1323  0.1948
   40MOL0     H 5333  10.785  10.715   1.403  3.1532  0.6760  1.8196
   40MOL0     H 5334  11.006  10.734   1.439  0.4339 -1.2164  1.0311
   40MOL0     H 5335  11.248  10.848   1.440 -0.6768  0.5006  0.3636
   40MOL0     H 5336  11.213  10.669   1.432 -0.2938  0.5986  0.9125
   40MOL0     H 5337  11.429  10.651   1.291 -3.4785  0.6900 -1.2479
   40MOL0     H 5338  11.434  10.702   1.458 -2.7733  1.1696  1.4464
   40MOL0     H 5339  11.486  10.940   1.378  0.7644  0.3980 -0.8131
   40MOL0     H 5340  11.442  10.900   1.218 -1.5306 -0.0482  0.4177
   40MOL0     H 5341  11.680  10.793   1.385 -0.7058  1.2445 -0.1287
   40MOL0     H 5342  11.639  10.738   1.215 -2.0946  0.7646 -1.7495
   40MOL0     H 5343  11.686  10.945   1.132  3.6917 -0.4131 -1.2775
   40MOL0     H 5344  11.681  11.030   1.288  1.6420 -0.9949  4.5177
   40MOL0     H 5345  11.888  10.812   1.222  5.1233  0.9135  1.4095
   40MOL0     H 5346  11.904  10.988   1.183 -1.3643  0.2292 -0.9227
   40MOL0     H 5347  12.005  10.886   1.421  0.3562 -1.2727 -1.1580
   40MOL0     H 5348  11.844  10.935   1.462  0.2956 -0.1576 -0.8694
   40MOL0     H 5349  12.044  11.123   1.312 -0.9809  0.6809 -2.3688
   40MOL0     H 5350  11.882  11.162   1.358  0.7192  0.1110 -3.6343
   40MOL0     H 5351  12.181  10.982   1.546  0.6639 -1.2328  2.6878
   40MOL0     H 5352  12.293  11.142   1.867  3.1721 -1.0868  0.6885
   40MOL0     H 5353  12.327  11.009   1.758  0.1022  1.0259 -1.7137
   40MOL0     H 5354  12.512  11.137   1.727  0.0394 -1.1751 -1.2227
   40MOL0     H 5355  12.426  11.171   1.588  0.2089 -2.1095  0.2570
   40MOL0     H 5356  12.413  11.349   1.832 -1.8529  1.2988  0.5695
   40MOL0     H 5357  12.340  11.375   1.675  1.1253  3.0599  0.7119
   40MOL0     H 5358  12.544  11.504   1.677  0.8121  0.6949 -1.3777
   40MOL0     H 5359  12.567  11.356   1.572 -1.9906 -0.8580  0.7583
   40MOL0     H 5360  12.796  11.331   1.519  0.3713 -1.0173  0.9719
   40MOL0     H 5361  13.012  11.418   1.472  2.3980 -1.2537  1.1152
   40MOL0     H 5362  13.317  11.820   1.643 -0.1184 -1.6530 -1.3927
   40MOL0     H 5363  13.536  11.924   1.607  0.3804 -1.1790 -2.6464
   40MOL0     H 5364  13.878  11.690   1.734 -0.0516 -0.9759 -0.7831
   40MOL0     H 5365  13.882  11.675   1.559  1.3479  1.3905 -0.8500
   40MOL0     H 5366  13.960  11.906   1.534  1.2414 -0.1431  0.0730
   40MOL0     H 5367  13.948  11.926   1.709 -2.2249  1.1766 -1.2536
   40MOL0     H 5368  14.110  11.749   1.755 -0.4200  0.4335 -0.1584
   40MOL0     H 5369  14.129  11.710   1.585  0.9035 -0.2641 -1.8514
   40MOL0     H 5370  14.177  11.992   1.693  0.0801 -0.8754  0.1879
   40MOL0     H 5371  14.219  11.927   1.542 -1.5951  2.7566  0.5061
   40MOL0     H 5372  14.398  11.788   1.644 -0.7275  0.4204 -0.0628
   40MOL0     H 5373  14.320  11.810   1.808 -1.5367  0.3579 -0.3356
   40MOL0     H 5374  14.463  12.025   1.649  2.4786 -0.5459  0.2105
   40MOL0     H 5375  14.386  12.038   1.809  3.1276  1.8628  1.5823
   40MOL0     H 5376  14.617  11.859   1.752  1.7370 -1.5355  2.7584
   40MOL0     H 5377  14.553  11.923   1.913  1.9182  1.0592  0.4783
   40MOL0     H 5378  14.695  12.095   1.698  0.0810 -0.1983  0.0540
   40MOL0     H 5379  14.632  12.138   1.861 -0.2683  0.5203 -0.1921
   40MOL0     H 5380  13.727  11.551   1.690 -0.4989 -0.9843 -0.7587
   40MOL0     H 5381  13.490  11.455   1.743  0.0896 -0.0606 -0.6242
   40MOL0     H 5382  13.054  11.576   1.865  0.2121 -1.8189  0.9103
   40MOL0     H 5383  12.810  11.521   1.916  1.2541 -0.2729  1.0371
   40MOL0     H 5384  11.082  10.773   1.023  1.6915  1.5909  0.7514
   40MOL0     H 5385  10.840  10.771   0.973  2.9803  1.4772 -0.7883
   40MOL0     H 5386  10.407  10.712   1.161  1.2513  0.8619  0.2336
   40MOL0     H 5387  10.161  10.724   1.183  2.1517 -1.5124 -1.9041
   40MOL0     H 5388   9.957  10.754   1.171  0.7699 -1.1777  0.5008
   40MOL0     H 5389   9.845  10.846   1.260 -0.1313 -1.7471 -0.0754
   40MOL0     H 5390  10.057  10.675   1.405 -0.5880 -1.1679  1.4134
   40MOL0     H 5391   9.897  10.633   1.384 -0.6320  0.1692  2.2531
   40MOL0     H 5392  10.028  10.862   1.534  0.1811 -1.4302  0.9127
   40MOL0     H 5393   9.960  10.729   1.613  0.3993  0.1409  0.5695
   40MOL0     H 5394   9.820  10.956   1.476  1.7595 -0.9594 -0.7816
   40MOL0     H 5395   9.725  10.817   1.541  0.1427  0.6407 -1.3959
   40MOL0     H 5396   9.804  11.006   1.895 -2.6890  1.2024 -0.6105
   40MOL0     H 5397  10.205  11.131   1.323  0.2124  0.9773 -1.7505
   40MOL0     H 5398  10.423  11.250   1.236 -3.5751 -0.9260  0.3908
   40MOL0     H 5399  10.402  11.190   1.397 -1.7337 -2.0565 -0.4750
   40MOL0     H 5400  10.559  11.165   1.310  1.0392  1.7132 -0.7566
   41MOL0     O 5401   5.467  11.097   1.646  0.3918  0.6970 -0.7034
   41MOL0     C 5402   5.385  11.169   1.589 -0.3654  0.4827 -0.2373
   41MOL0     O 5403   5.413  11.286   1.528 -0.4602 -0.0263 -0.4192
   41MOL0     C 5404   5.535  11.343   1.545 -0.9245 -0.1981  0.0557
   41MOL0     C 5405   5.653  11.272   1.510 -0.2653  0.3803 -0.3754
   41MOL0     C 5406   5.779  11.326   1.523 -0.0459 -0.2939  0.1462
   41MOL0     C 5407   5.792  11.461   1.561 -0.7477  0.3160 -0.1788
   41MOL0     O 5408   5.914  11.512   1.570  0.1685  0.0910 -0.2082
   41MOL0     C 5409   5.960  11.555   1.695  0.5578 -0.2032  0.8649
   41MOL0     C 5410   6.061  11.460   1.759  0.5616  0.6868 -0.4643
   41MOL0     C 5411   6.182  11.419   1.670 -0.0583  0.5357  0.3183
   41MOL0     C 5412   6.295  11.355   1.756  0.1569  0.4260  0.1762
   41MOL0     C 5413   6.364  11.463   1.850 -0.0306  1.2069 -0.1235
   41MOL0     C 5414   6.500  11.409   1.897 -0.5511 -0.2476 -0.8098
   41MOL0     C 5415   6.598  11.514   1.968  0.3489 -0.0547  0.3461
   41MOL0     C 5416   6.739  11.450   1.964 -0.3938  0.3423 -0.0117
   41MOL0     N 5417   6.835  11.545   2.027 -0.0451  0.5800 -0.1993
   41MOL0     C 5418   6.873  11.674   1.979  0.5860 -0.2197 -0.1748
   41MOL0     C 5419   6.959  11.721   2.079  0.5661  0.0182  0.5506
   41MOL0     C 5420   7.030  11.847   2.072 -0.3617 -0.2369  0.9861
   41MOL0     C 5421   7.165  11.836   1.987  0.0061  0.1902 -0.0004
   41MOL0     C 5422   7.261  11.960   1.997 -0.2425 -0.2252 -0.2788
   41MOL0     C 5423   7.358  11.958   1.875  0.0846  0.2076  0.3760
   41MOL0     O 5424   7.456  12.052   1.909 -0.4412 -0.0656 -0.0258
   41MOL0     C 5425   7.566  12.047   1.828 -0.5960  0.2736 -0.0169
   41MOL0     C 5426   7.585  11.981   1.707 -0.6646  0.7330 -0.3241
   41MOL0     C 5427   7.715  11.976   1.645 -0.2498 -1.0852  0.2251
   41MOL0     C 5428   7.818  12.054   1.695  0.9159  0.6314  0.7072
   41MOL0     C 5429   7.949  12.038   1.641  0.5181 -0.7054 -0.0905
   41MOL0     O 5430   7.964  11.964   1.531  0.6368 -0.0214  0.0336
   41MOL0     C 5431   8.083  11.940   1.485 -0.7317  0.6103  1.3955
   41MOL0     C 5432   8.095  11.821   1.404 -0.6951 -0.2411 -0.1712
   41MOL0     C 5433   8.216  11.779   1.343 -0.7713 -0.8552 -0.1121
   41MOL0     C 5434   8.335  11.853   1.373 -0.1665  0.1789 -0.1298
   41MOL0     O 5435   8.463  11.821   1.339 -0.0773  0.8616 -0.0971
   41MOL0     C 5436   8.505  11.696   1.395  0.1587  0.0007 -0.0519
   41MOL0     C 5437   8.652  11.686   1.372  0.0456  0.0437  0.2509
   41MOL0     C 5438   8.746  11.587   1.448 -0.6893 -0.5346  0.3227
   41MOL0     C 5439   8.889  11.615   1.403 -0.5179 -0.5553 -1.5058
   41MOL0     C 5440   8.990  11.518   1.452 -0.1385  0.3896 -0.0861
   41MOL0     C 5441   9.120  11.561   1.392 -0.4096  0.6868 -0.8784
   41MOL0     C 5442   9.234  11.462   1.404  0.3015 -0.6942 -0.2045
   41MOL0     C 5443   9.366  11.525   1.375  0.0250 -0.6113 -0.4224
   41MOL0    Cl 5444   9.376  11.585   1.197 -0.2192 -0.2410 -0.3221
   41MOL0     C 5445   8.326  11.964   1.449 -0.0715 -1.2400  0.3912
   41MOL0     C 5446   8.206  12.010   1.501 -0.0140  0.3165  0.5278
   41MOL0     O 5447   8.040  12.095   1.705 -0.8602  0.3884  0.5438
   41MOL0     C 5448   7.794  12.137   1.808  0.7929  1.0455  0.0459
   41MOL0     C 5449   7.666  12.131   1.874 -0.7731  0.6016 -0.7201
   41MOL0     N 5450   6.974  11.614   2.171 -0.1591  0.0017  0.2097
   41MOL0     N 5451   6.902  11.514   2.141 -0.2043 -0.1133 -0.1911
   41MOL0     C 5452   5.682  11.534   1.597  0.4984 -0.3006  0.3165
   41MOL0     C 5453   5.551  11.476   1.586  0.7235  0.6373 -0.1679
   41MOL0     C 5454   5.235  11.142   1.592 -0.6000  0.5644  0.3099
   41MOL0     C 5455   5.154  11.181   1.492  0.2666 -0.6068  0.4046
   41MOL0     C 5456   5.020  11.165   1.498  1.0885 -0.3643  0.0896
   41MOL0     C 5457   4.951  11.114   1.610 -0.7973 -0.0530  0.0418
   41MOL0     O 5458   4.816  11.116   1.610 -0.7284 -0.0560 -0.0125
   41MOL0     C 5459   4.720  11.082   1.711 -0.8717 -1.5645  0.0703
   41MOL0     C 5460   4.587  11.146   1.668 -0.3268  0.6278 -0.1847
   41MOL0     C 5461   4.473  11.110   1.759 -0.4004 -1.1844  0.0074
   41MOL0     C 5462   4.351  11.142   1.678 -0.0449  0.1719 -0.0489
   41MOL0     C 5463   4.235  11.071   1.741  0.0468 -0.1802  0.3948
   41MOL0     C 5464   4.141  11.013   1.787  0.5482 -0.2112 -0.0301
   41MOL0     C 5465   5.030  11.073   1.719 -0.1112  0.2529  0.1000
   41MOL0     C 5466   5.168  11.072   1.699 -0.5961  0.8123 -0.3189
   41MOL0     C 5467   5.237  11.009   1.818  0.2937 -0.6592 -0.0582
   41MOL0     H 5468   5.648  11.169   1.474  0.9482  1.1479 -2.9757
   41MOL0     H 5469   5.870  11.269   1.505 -0.9302 -1.1364 -1.8580
   41MOL0     H 5470   6.006  11.654   1.684 -1.8425  0.7452 -1.9386
   41MOL0     H 5471   5.868  11.567   1.753 -1.3491 -2.1575 -1.5468
   41MOL0     H 5472   6.015  11.362   1.776 -0.1503  1.0865 -0.0763
   41MOL0     H 5473   6.089  11.511   1.851 -1.0956 -0.2740  0.6243
   41MOL0     H 5474   6.223  11.512   1.629 -2.7979  0.4491 -3.1475
   41MOL0     H 5475   6.158  11.359   1.581  2.6317  0.9758 -0.7725
   41MOL0     H 5476   6.245  11.276   1.813 -0.4525  2.1874  2.2205
   41MOL0     H 5477   6.364  11.303   1.689  0.9501 -1.2130  2.1302
   41MOL0     H 5478   6.373  11.548   1.782  1.5197  0.0530 -1.4710
   41MOL0     H 5479   6.304  11.488   1.937  1.2828  3.3178  0.2369
   41MOL0     H 5480   6.495  11.323   1.964  0.3338  0.7927  0.6478
   41MOL0     H 5481   6.549  11.361   1.812  0.6643 -1.6626  0.6386
   41MOL0     H 5482   6.553  11.525   2.068 -2.8137 -3.7429 -0.4392
   41MOL0     H 5483   6.590  11.610   1.918 -1.3727 -0.6074 -0.5190
   41MOL0     H 5484   6.745  11.352   2.012  0.0732 -0.7446 -2.1781
   41MOL0     H 5485   6.781  11.440   1.863 -1.9726  0.1801 -0.6707
   41MOL0     H 5486   6.840  11.739   1.898 -0.1557  2.2256  1.9567
   41MOL0     H 5487   6.959  11.915   2.023 -0.0704 -0.0923  0.7618
   41MOL0     H 5488   7.052  11.884   2.173  0.2175 -0.8571  1.0905
   41MOL0     H 5489   7.225  11.751   2.021 -1.0039 -0.6325 -0.2389
   41MOL0     H 5490   7.138  11.822   1.882  0.8335 -0.7323 -0.1092
   41MOL0     H 5491   7.321  11.969   2.088  0.6848 -0.8716 -0.8118
   41MOL0     H 5492   7.215  12.059   1.988 -0.0971 -0.0316  0.9958
   41MOL0     H 5493   7.301  11.977   1.783 -0.2715 -0.2213  0.5046
   41MOL0     H 5494   7.410  11.862   1.872  3.5164  1.9306  0.3140
   41MOL0     H 5495   7.508  11.916   1.667  0.7088 -1.7100  0.7520
   41MOL0     H 5496   7.724  11.911   1.559  0.6071  0.7072 -1.0832
   41MOL0     H 5497   8.001  11.769   1.394 -1.0333 -0.2783  2.4606
   41MOL0     H 5498   8.214  11.690   1.281  1.7328  0.0922 -1.6678
   41MOL0     H 5499   8.474  11.698   1.499  0.1677  0.3319 -0.0541
   41MOL0     H 5500   8.452  11.615   1.344 -0.8099  0.4859  0.1636
   41MOL0     H 5501   8.677  11.673   1.266  1.0091 -0.2051  0.4950
   41MOL0     H 5502   8.686  11.787   1.396 -1.0154  0.3988  0.3155
   41MOL0     H 5503   8.747  11.591   1.557 -0.2695 -1.6011  0.3637
   41MOL0     H 5504   8.726  11.485   1.414 -2.3800 -0.4637  1.0458
   41MOL0     H 5505   8.906  11.712   1.451 -1.8531 -1.0754  0.0908
   41MOL0     H 5506   8.892  11.649   1.298 -0.4453 -0.7022 -1.5505
   41MOL0     H 5507   8.964  11.417   1.419 -2.2779  0.6792  0.5906
   41MOL0     H 5508   8.993  11.515   1.561 -0.6973 -1.4763 -0.0805
   41MOL0     H 5509   9.113  11.586   1.286 -0.3192 -2.2203 -1.6738
   41MOL0     H 5510   9.148  11.654   1.443  0.5752 -0.0259 -0.0537
   41MOL0     H 5511   9.219  11.372   1.343  0.2801  0.4349 -1.9322
   41MOL0     H 5512   9.228  11.430   1.509 -0.2093 -3.2682 -0.9585
   41MOL0     H 5513   9.370  11.612   1.442 -2.4956 -1.0613  0.4224
   41MOL0     H 5514   9.454  11.464   1.397  2.6119  2.4645 -1.4484
   41MOL0     H 5515   8.418  12.019   1.465 -0.3444 -0.9776  1.0952
   41MOL0     H 5516   8.204  12.109   1.545  2.5131  1.4035 -1.5139
   41MOL0     H 5517   7.877  12.195   1.847  1.7509  0.9595 -1.7828
   41MOL0     H 5518   7.646  12.185   1.966 -1.0545  0.1039 -0.4870
   41MOL0     H 5519   5.688  11.632   1.642  1.8162 -0.3220  0.2242
   41MOL0     H 5520   5.472  11.545   1.614  2.5235  2.6288  0.2458
   41MOL0     H 5521   5.195  11.212   1.396  0.2574 -1.3801  0.1408
   41MOL0     H 5522   4.944  11.198   1.427 -1.6963 -0.9945  2.5660
   41MOL0     H 5523   4.744  11.136   1.802  2.1015  0.0295 -1.5193
   41MOL0     H 5524   4.709  10.975   1.730 -0.4287 -1.8503 -1.1642
   41MOL0     H 5525   4.564  11.115   1.565  1.2371 -2.6345  0.3154
   41MOL0     H 5526   4.609  11.253   1.672  2.3041  0.1114  2.4738
   41MOL0     H 5527   4.474  11.170   1.850 -0.5823 -0.0177 -0.7265
   41MOL0     H 5528   4.474  11.003   1.783  1.7251 -0.9028  1.3769
   41MOL0     H 5529   4.346  11.251   1.672 -1.1127  0.2318  1.3786
   41MOL0     H 5530   4.360  11.093   1.581 -1.6166  0.2494 -0.2542
   41MOL0     H 5531   4.056  10.967   1.832 -1.3483  1.9670 -1.2059
   41MOL0     H 5532   4.983  11.021   1.802 -0.6071 -0.4613 -0.6097
   41MOL0     H 5533   5.263  10.908   1.785 -0.4292 -0.0267 -2.8926
   41MOL0     H 5534   5.323  11.075   1.837  1.9276 -2.0378 -2.1758
   41MOL0     H 5535   5.169  10.997   1.903 -1.5216 -3.3939 -1.7604
   42MOL0     O 5536  10.343   8.073   1.980  0.2786 -0.0587 -0.2450
   42MOL0     C 5537  10.318   7.964   2.028  0.0593 -0.3756 -0.5135
   42MOL0     O 5538  10.399   7.892   2.107 -0.1228  0.2245  0.8242
   42MOL0     C 5539  10.509   7.948   2.159  0.0157  0.6344 -0.5954
   42MOL0     C 5540  10.506   8.002   2.287  0.1351 -0.4027  0.5685
   42MOL0     C 5541  10.609   8.071   2.351 -0.4309  0.1888  0.8922
   42MOL0     C 5542  10.730   8.088   2.274 -0.3018  0.2354 -0.0986
   42MOL0     O 5543  10.826   8.165   2.339  0.1755 -0.1568 -0.5329
   42MOL0     C 5544  10.917   8.247   2.260  0.0624  0.3442 -1.4569
   42MOL0     C 5545  11.047   8.162   2.227  0.0112 -0.0142 -0.3122
   42MOL0     C 5546  11.145   8.221   2.130 -0.3279 -0.6353  0.1168
   42MOL0     C 5547  11.232   8.330   2.193 -0.5495  0.0372  0.3577
   42MOL0     C 5548  11.342   8.389   2.106 -0.3755  0.3117  0.2539
   42MOL0     C 5549  11.427   8.496   2.194  0.1957 -0.4706  0.1032
   42MOL0     C 5550  11.530   8.559   2.099 -0.1133  0.3307 -0.0753
   42MOL0     C 5551  11.587   8.685   2.161  0.5748  0.4088 -0.1169
   42MOL0     N 5552  11.704   8.745   2.084  0.1507  0.1153 -0.4359
   42MOL0     C 5553  11.756   8.872   2.117  0.4101  0.7607 -0.1707
   42MOL0     C 5554  11.854   8.888   2.030 -0.7053 -0.2088  0.5873
   42MOL0     C 5555  11.951   8.991   2.029 -0.3128 -0.5076  0.5623
   42MOL0     C 5556  12.084   8.943   2.094  0.5524  0.3216  0.0069
   42MOL0     C 5557  12.172   9.064   2.130 -0.1591  0.3666 -0.0073
   42MOL0     C 5558  12.309   9.032   2.193 -0.7681  0.1536  0.4862
   42MOL0     O 5559  12.399   8.951   2.105  0.1525  0.2124 -0.2754
   42MOL0     C 5560  12.532   8.974   2.124 -0.2799 -0.0886  0.0461
   42MOL0     C 5561  12.592   8.982   2.252 -0.5924 -0.6357 -0.9285
   42MOL0     C 5562  12.728   9.008   2.261  0.1671 -0.1265  0.0121
   42MOL0     C 5563  12.813   9.024   2.150  0.3554  0.2342 -0.1544
   42MOL0     C 5564  12.954   9.067   2.173  0.8830 -0.2219  0.7790
   42MOL0     O 5565  12.987   9.102   2.300  0.5244 -0.2551 -0.3839
   42MOL0     C 5566  13.107   9.144   2.324 -0.4263 -0.4428 -0.4128
   42MOL0     C 5567  13.221   9.062   2.308  0.1966 -0.5133  0.4378
   42MOL0     C 5568  13.350   9.104   2.330  0.3220 -0.8307 -0.2063
   42MOL0     C 5569  13.370   9.222   2.395  0.1031  0.4989 -0.1768
   42MOL0     O 5570  13.500   9.254   2.427 -0.3693  0.2785 -0.5846
   42MOL0     C 5571  13.521   9.371   2.508  0.1696  0.4079 -0.5096
   42MOL0     C 5572  13.663   9.378   2.574 -0.5685  0.0054 -0.4891
   42MOL0     C 5573  13.754   9.473   2.497 -0.1618  0.2273 -0.1512
   42MOL0     C 5574  13.897   9.467   2.548 -0.4199 -0.5587 -0.1099
   42MOL0     C 5575  13.994   9.574   2.495  0.0487  0.1408 -0.4542
   42MOL0     C 5576  14.125   9.583   2.584 -0.7663  1.5512  0.3575
   42MOL0     C 5577  14.222   9.694   2.553  0.4829 -0.2805  0.4223
   42MOL0     C 5578  14.346   9.671   2.634 -0.1026  0.8741  0.3045
   42MOL0    Cl 5579  14.466   9.798   2.579  0.5133  0.0873 -0.5980
   42MOL0     C 5580  13.258   9.305   2.422  0.8456 -0.0237 -0.1246
   42MOL0     C 5581  13.127   9.272   2.384  0.9414  0.1550 -0.8870
   42MOL0     O 5582  13.031   9.068   2.076 -0.0571 -0.3589 -0.3380
   42MOL0     C 5583  12.747   9.026   2.024  0.0447 -0.3391 -0.2259
   42MOL0     C 5584  12.615   8.986   2.013  0.6812  0.7282 -0.3030
   42MOL0     N 5585  11.863   8.779   1.948 -0.5691 -0.5969  0.4887
   42MOL0     N 5586  11.770   8.696   1.981 -0.6540  0.5367  0.2482
   42MOL0     C 5587  10.737   8.038   2.142  0.1462 -0.1883  0.7792
   42MOL0     C 5588  10.624   7.976   2.086  0.0328  0.1157  0.4697
   42MOL0     C 5589  10.193   7.889   1.990 -0.0017  0.1988 -0.1283
   42MOL0     C 5590  10.179   7.746   1.992 -0.3693  1.0144  0.4404
   42MOL0     C 5591  10.068   7.675   1.953  0.4247  0.3490  0.0424
   42MOL0     C 5592   9.960   7.751   1.907 -0.8820 -0.2186  0.3019
   42MOL0     O 5593   9.854   7.671   1.865 -0.2303  0.1656  0.6044
   42MOL0     C 5594   9.726   7.729   1.854  0.3501  0.2006  0.1525
   42MOL0     C 5595   9.624   7.624   1.805  0.3418  0.2196  0.5771
   42MOL0     C 5596   9.614   7.612   1.649  0.2361  0.7562 -0.3220
   42MOL0     C 5597   9.738   7.532   1.608 -0.0951  0.2336 -0.0545
   42MOL0     C 5598   9.711   7.455   1.485 -0.4911  0.2478 -0.0909
   42MOL0     C 5599   9.689   7.394   1.380  0.0639  0.1892 -0.1134
   42MOL0     C 5600   9.970   7.890   1.900  1.6012  1.2254  0.3647
   42MOL0     C 5601  10.075   7.962   1.951  0.0744  0.2898  0.6150
   42MOL0     C 5602  10.059   8.111   1.953  0.6634 -0.0978 -0.4487
   42MOL0     H 5603  10.420   8.005   2.352 -0.3652  1.9248 -0.0965
   42MOL0     H 5604  10.603   8.115   2.451 -0.9687  1.0916  0.4757
   42MOL0     H 5605  10.869   8.283   2.169 -2.7028  2.9411  0.7852
   42MOL0     H 5606  10.949   8.338   2.312 -0.9295 -0.4948  0.7807
   42MOL0     H 5607  11.022   8.061   2.192  1.0274 -0.1831 -0.5964
   42MOL0     H 5608  11.096   8.149   2.324  0.2367  1.9614 -0.1296
   42MOL0     H 5609  11.076   8.274   2.064 -0.2363  2.2039  2.1227
   42MOL0     H 5610  11.212   8.150   2.080 -1.5748 -1.0560 -1.0043
   42MOL0     H 5611  11.163   8.406   2.232 -1.6430 -2.1221  2.9162
   42MOL0     H 5612  11.289   8.278   2.270 -2.1139 -2.2863  0.0383
   42MOL0     H 5613  11.413   8.312   2.073  0.5014  0.7982  0.9611
   42MOL0     H 5614  11.304   8.443   2.019  1.6974  2.6673  0.6865
   42MOL0     H 5615  11.372   8.576   2.245  0.8820  1.3061 -1.7968
   42MOL0     H 5616  11.478   8.448   2.278 -0.9676 -0.8265  0.6367
   42MOL0     H 5617  11.496   8.570   1.996  1.6814 -2.3470 -1.0590
   42MOL0     H 5618  11.605   8.480   2.089 -0.5365 -0.1516  0.4181
   42MOL0     H 5619  11.510   8.762   2.172 -0.8802 -0.7180 -1.8494
   42MOL0     H 5620  11.610   8.673   2.267  0.8422  1.3176 -0.0650
   42MOL0     H 5621  11.725   8.941   2.194 -0.2947  2.4131 -1.8435
   42MOL0     H 5622  11.979   9.035   1.932  2.4782  0.4874  1.7352
   42MOL0     H 5623  11.911   9.075   2.087  2.7124 -0.7443  3.2102
   42MOL0     H 5624  12.059   8.880   2.180 -0.8881  0.5747 -0.2112
   42MOL0     H 5625  12.144   8.882   2.026  3.0215  0.5584  1.8072
   42MOL0     H 5626  12.118   9.127   2.203 -1.8249  0.5756 -1.3567
   42MOL0     H 5627  12.190   9.130   2.045 -1.6960 -0.8514 -1.3354
   42MOL0     H 5628  12.291   8.972   2.282 -0.4408 -3.0799 -1.4829
   42MOL0     H 5629  12.363   9.125   2.214 -1.0296  1.0570 -2.3313
   42MOL0     H 5630  12.540   8.970   2.347 -0.5785 -0.3213 -0.8811
   42MOL0     H 5631  12.769   9.000   2.361  0.9675 -3.1269 -0.4474
   42MOL0     H 5632  13.200   8.964   2.266  0.6841  0.1869 -1.5999
   42MOL0     H 5633  13.434   9.045   2.297 -0.3030  0.0515 -3.7941
   42MOL0     H 5634  13.498   9.462   2.452  0.1677 -1.3835 -3.6529
   42MOL0     H 5635  13.443   9.375   2.584 -0.8047  0.0394 -1.4626
   42MOL0     H 5636  13.652   9.407   2.678 -2.4291  1.1934 -0.9585
   42MOL0     H 5637  13.696   9.274   2.561 -1.7037 -0.5335  0.6812
   42MOL0     H 5638  13.755   9.450   2.390 -0.7726 -1.2779  0.1430
   42MOL0     H 5639  13.720   9.575   2.518 -1.6926 -0.7255  2.5939
   42MOL0     H 5640  13.939   9.368   2.525 -0.5488 -0.0914 -2.6399
   42MOL0     H 5641  13.880   9.477   2.656 -2.9186  1.2674 -0.5872
   42MOL0     H 5642  13.944   9.671   2.504  2.4991  1.3630  1.0257
   42MOL0     H 5643  14.010   9.556   2.388 -0.3662  1.2848 -0.7284
   42MOL0     H 5644  14.090   9.603   2.686 -4.4203 -1.6498 -0.0053
   42MOL0     H 5645  14.172   9.484   2.586 -1.4229  1.2344  0.4976
   42MOL0     H 5646  14.175   9.791   2.573  1.2872  0.4571 -1.1405
   42MOL0     H 5647  14.249   9.696   2.447  3.0280 -1.1480  0.9815
   42MOL0     H 5648  14.329   9.687   2.741  2.5007 -1.3413  1.2014
   42MOL0     H 5649  14.384   9.570   2.613  0.2673  1.0233  0.2427
   42MOL0     H 5650  13.279   9.404   2.460 -2.8613  0.7698  0.3144
   42MOL0     H 5651  13.042   9.324   2.428 -0.2867 -3.1034  0.9469
   42MOL0     H 5652  12.800   9.074   1.942  1.1992  0.5380  0.9915
   42MOL0     H 5653  12.563   8.976   1.918  0.3463  1.6361 -0.2246
   42MOL0     H 5654  10.824   8.038   2.078 -2.3411 -1.0768 -2.9424
   42MOL0     H 5655  10.630   7.929   1.989 -1.5237 -1.0462  0.8997
   42MOL0     H 5656  10.268   7.684   1.998 -1.6405 -1.2018 -1.6035
   42MOL0     H 5657  10.063   7.567   1.941  2.3669 -0.0804  2.3929
   42MOL0     H 5658   9.714   7.815   1.787 -0.7088  1.4431  1.8554
   42MOL0     H 5659   9.686   7.773   1.946 -0.5686 -0.4491  0.0823
   42MOL0     H 5660   9.521   7.647   1.831 -0.0764 -1.8915  1.0138
   42MOL0     H 5661   9.631   7.527   1.855 -0.3715 -0.2916 -0.2695
   42MOL0     H 5662   9.615   7.710   1.601 -0.9696  0.6954 -0.4888
   42MOL0     H 5663   9.530   7.555   1.609  0.0246  0.0028  1.1077
   42MOL0     H 5664   9.823   7.595   1.581 -0.1707  1.1890  1.8461
   42MOL0     H 5665   9.757   7.471   1.697 -1.0489  2.1013  1.4855
   42MOL0     H 5666   9.678   7.345   1.285  3.2659  2.7472 -2.0373
   42MOL0     H 5667   9.883   7.941   1.859  1.0978  1.7233  1.9655
   42MOL0     H 5668  10.089   8.153   2.050  1.0995 -1.6195  0.1043
   42MOL0     H 5669  10.130   8.147   1.878 -0.2889  0.2616 -1.1947
   42MOL0     H 5670   9.962   8.147   1.919  0.8384  0.3065 -0.5273
   43MOL0     O 5671  10.266   7.984   2.716 -0.5672  0.0266 -0.2711
   43MOL0     C 5672  10.382   7.947   2.704 -0.4456  0.8770 -0.1809
   43MOL0     O 5673  10.419   7.822   2.659  0.5188  0.1804  0.2603
   43MOL0     C 5674  10.320   7.736   2.617 -1.3252  0.2089  0.1675
   43MOL0     C 5675  10.245   7.675   2.726  0.5517 -0.9230 -0.0763
   43MOL0     C 5676  10.147   7.572   2.697 -1.0102  0.3446 -0.6622
   43MOL0     C 5677  10.136   7.524   2.570  0.2841  0.0988 -0.2515
   43MOL0     O 5678  10.046   7.417   2.567  0.0997  0.4822  0.2599
   43MOL0     C 5679  10.041   7.339   2.448  0.1845  0.3342 -0.2472
   43MOL0     C 5680   9.973   7.200   2.472  0.2703  0.0890 -0.2906
   43MOL0     C 5681   9.822   7.208   2.479  0.0116  0.5458 -0.3260
   43MOL0     C 5682   9.765   7.260   2.609  0.0148  1.1342  0.2501
   43MOL0     C 5683   9.615   7.245   2.632  0.4599 -0.0376  0.3909
   43MOL0     C 5684   9.534   7.303   2.520  0.2164 -0.3652  0.5096
   43MOL0     C 5685   9.388   7.311   2.551  0.8368  0.5933 -0.5196
   43MOL0     C 5686   9.315   7.180   2.514 -0.2016 -0.3430 -0.5033
   43MOL0     N 5687   9.183   7.163   2.586 -0.0969 -0.4464  0.7494
   43MOL0     C 5688   9.158   7.182   2.717  0.4854  0.0699 -0.1635
   43MOL0     C 5689   9.026   7.173   2.731 -0.4619 -0.0162 -0.3912
   43MOL0     C 5690   8.964   7.172   2.871 -0.0596 -1.0087  0.0676
   43MOL0     C 5691   8.877   7.056   2.903 -0.4651  0.7721 -0.0787
   43MOL0     C 5692   8.965   6.938   2.940  0.2383 -0.1694 -0.0242
   43MOL0     C 5693   8.862   6.821   2.933  0.5600  0.1120 -0.2900
   43MOL0     O 5694   8.894   6.705   3.013 -0.1837 -0.1678  0.4424
   43MOL0     C 5695   9.021   6.649   2.985  0.2097 -0.0578 -0.9152
   43MOL0     C 5696   9.076   6.644   2.857  0.3642 -0.1077  0.4668
   43MOL0     C 5697   9.199   6.601   2.829 -0.3823 -0.4075  0.2645
   43MOL0     C 5698   9.282   6.563   2.934 -0.0438 -0.0447 -0.0039
   43MOL0     C 5699   9.420   6.514   2.907  0.4194  0.4464  0.1357
   43MOL0     O 5700   9.434   6.455   2.778  0.0524 -0.0664 -0.2020
   43MOL0     C 5701   9.559   6.403   2.735 -0.5185 -0.0376 -0.0432
   43MOL0     C 5702   9.610   6.433   2.608 -0.2330  0.0851  0.1118
   43MOL0     C 5703   9.743   6.397   2.572 -0.4494  0.1692  0.1611
   43MOL0     C 5704   9.825   6.316   2.649 -0.2520  0.2408 -0.3666
   43MOL0     O 5705   9.950   6.284   2.594  0.3686 -0.2775  0.4457
   43MOL0     C 5706  10.047   6.227   2.677 -0.5239  0.3701 -0.4087
   43MOL0     C 5707  10.163   6.174   2.594 -0.0193  0.0194 -0.0205
   43MOL0     C 5708  10.231   6.051   2.659  0.1191  0.0410  0.3185
   43MOL0     C 5709  10.314   6.087   2.775  0.9537 -0.2560 -0.1392
   43MOL0     C 5710  10.377   5.968   2.850  0.1768 -0.3419  1.2366
   43MOL0     C 5711  10.487   5.904   2.768  0.8578 -0.2212  0.3866
   43MOL0     C 5712  10.552   5.791   2.842 -0.7539  0.5871 -0.1340
   43MOL0     C 5713  10.675   5.745   2.770  0.1866 -0.0714 -0.5218
   43MOL0    Cl 5714  10.818   5.857   2.783 -0.2627 -0.1510 -0.0122
   43MOL0     C 5715   9.773   6.275   2.772 -0.2790 -0.4074 -0.9074
   43MOL0     C 5716   9.648   6.323   2.810 -0.0581  0.2212 -1.2094
   43MOL0     O 5717   9.516   6.536   2.984  0.0654  0.1717 -0.1788
   43MOL0     C 5718   9.235   6.566   3.065 -0.5338  0.8375  0.4257
   43MOL0     C 5719   9.106   6.610   3.093  0.4673 -0.2236 -0.1105
   43MOL0     N 5720   8.968   7.161   2.600 -0.2673 -0.6630  0.0943
   43MOL0     N 5721   9.063   7.159   2.518  0.2937 -0.4905  0.1426
   43MOL0     C 5722  10.204   7.582   2.464 -0.6028  0.1553  0.4651
   43MOL0     C 5723  10.293   7.690   2.488 -0.9892 -0.2117  0.5380
   43MOL0     C 5724  10.488   8.042   2.742  0.4277  0.3455 -0.3953
   43MOL0     C 5725  10.454   8.160   2.804 -1.3841 -0.4482  0.5386
   43MOL0     C 5726  10.540   8.262   2.827 -1.3369  0.3544 -0.2510
   43MOL0     C 5727  10.676   8.250   2.804 -0.0488 -0.6552  0.2202
   43MOL0     O 5728  10.773   8.342   2.832 -0.3857 -0.1942 -0.1908
   43MOL0     C 5729  10.743   8.426   2.941 -0.2865  0.2112  0.7460
   43MOL0     C 5730  10.864   8.501   2.991  0.4530  0.5760  0.4733
   43MOL0     C 5731  10.991   8.424   3.031  0.3956  0.4141 -0.0169
   43MOL0     C 5732  11.110   8.505   3.073  0.4073  0.7106 -1.1711
   43MOL0     C 5733  11.165   8.601   2.973 -0.0760  0.4155  0.2969
   43MOL0     C 5734  11.185   8.685   2.890 -1.3912 -0.8572 -0.9713
   43MOL0     C 5735  10.717   8.135   2.740 -0.1329  0.0075 -0.2770
   43MOL0     C 5736  10.627   8.030   2.707  0.3178  0.9231  0.0003
   43MOL0     C 5737  10.699   7.902   2.647 -0.7962  0.4081  0.8199
   43MOL0     H 5738  10.263   7.702   2.830  3.5622 -0.2394 -0.6638
   43MOL0     H 5739  10.098   7.535   2.787 -1.3887  3.3497  0.4867
   43MOL0     H 5740   9.984   7.391   2.371 -0.8472 -1.8527 -1.0435
   43MOL0     H 5741  10.144   7.315   2.421 -0.6982 -2.7660 -1.3737
   43MOL0     H 5742  10.002   7.164   2.572 -2.2730  2.6483  1.5413
   43MOL0     H 5743  10.004   7.133   2.392 -0.0941  1.5322 -1.6819
   43MOL0     H 5744   9.798   7.102   2.470  1.4347  0.2099 -0.3870
   43MOL0     H 5745   9.784   7.259   2.390  1.6660 -1.3469 -2.2084
   43MOL0     H 5746   9.818   7.209   2.690 -0.9781 -1.7306 -0.7834
   43MOL0     H 5747   9.792   7.366   2.602  1.1855  0.9369  1.3653
   43MOL0     H 5748   9.582   7.142   2.652 -0.5271 -0.0110 -0.9377
   43MOL0     H 5749   9.583   7.301   2.720 -0.4986  1.4595 -0.8586
   43MOL0     H 5750   9.578   7.402   2.502 -2.0327  0.9612  1.9679
   43MOL0     H 5751   9.553   7.244   2.430 -0.6438 -0.8135  0.6216
   43MOL0     H 5752   9.343   7.391   2.492  1.1312  0.3114 -1.1450
   43MOL0     H 5753   9.363   7.329   2.656 -1.6030 -3.8904 -0.0976
   43MOL0     H 5754   9.273   7.194   2.414 -2.0011  0.2029  0.2926
   43MOL0     H 5755   9.384   7.095   2.521 -0.0993 -0.2969 -0.8867
   43MOL0     H 5756   9.235   7.192   2.794  0.7555  2.8140 -0.6629
   43MOL0     H 5757   9.040   7.187   2.948  0.8954  0.7435 -1.1443
   43MOL0     H 5758   8.898   7.260   2.878 -0.4251 -1.3225  0.7356
   43MOL0     H 5759   8.814   7.080   2.990  0.6271  1.5518  0.5154
   43MOL0     H 5760   8.819   7.029   2.815  1.9675 -0.6362 -1.3517
   43MOL0     H 5761   9.018   6.945   3.035 -1.4191 -0.6781  0.9702
   43MOL0     H 5762   9.040   6.930   2.860 -0.7579  0.5159 -1.0539
   43MOL0     H 5763   8.842   6.794   2.829  0.2974 -1.7053  0.2101
   43MOL0     H 5764   8.763   6.839   2.976  1.1384 -0.7098  1.5060
   43MOL0     H 5765   9.021   6.663   2.765  1.5787 -3.0819 -0.9936
   43MOL0     H 5766   9.234   6.609   2.727 -0.4099 -0.1584  0.2740
   43MOL0     H 5767   9.546   6.492   2.542  0.9843 -0.8415 -2.0083
   43MOL0     H 5768   9.783   6.432   2.477 -1.9231  1.3217 -0.0776
   43MOL0     H 5769  10.078   6.301   2.752 -2.5795 -0.3246  1.2120
   43MOL0     H 5770  10.002   6.139   2.723 -0.3714  0.4731 -0.0617
   43MOL0     H 5771  10.120   6.150   2.496 -1.0041  0.6290  0.2424
   43MOL0     H 5772  10.231   6.258   2.577  0.1196 -0.1666 -0.4025
   43MOL0     H 5773  10.154   5.982   2.696 -2.3446  2.5294  0.2234
   43MOL0     H 5774  10.303   6.013   2.586 -0.1289  2.4501 -1.2851
   43MOL0     H 5775  10.245   6.128   2.850 -1.1034 -1.2079 -1.4256
   43MOL0     H 5776  10.394   6.159   2.756  0.8338  0.5591  2.1697
   43MOL0     H 5777  10.294   5.900   2.869 -1.2374  0.9283 -0.0654
   43MOL0     H 5778  10.411   5.999   2.949  1.1242  0.8389  0.5775
   43MOL0     H 5779  10.446   5.866   2.674  2.0345  2.3662 -1.2867
   43MOL0     H 5780  10.557   5.987   2.751  0.1331  0.2104 -0.5303
   43MOL0     H 5781  10.482   5.709   2.859  1.3429 -1.1484  0.5553
   43MOL0     H 5782  10.585   5.814   2.944 -3.1516  0.8989  0.6372
   43MOL0     H 5783  10.698   5.649   2.817  0.4831  1.0153  1.6859
   43MOL0     H 5784  10.664   5.741   2.661  2.4892  3.4123 -1.0517
   43MOL0     H 5785   9.830   6.218   2.844  0.0390  0.6167 -0.3130
   43MOL0     H 5786   9.599   6.281   2.898 -0.3972  1.0729 -0.9792
   43MOL0     H 5787   9.305   6.520   3.134 -0.2355 -2.4586 -1.8600
   43MOL0     H 5788   9.070   6.606   3.196 -0.0242 -0.1648 -0.2772
   43MOL0     H 5789  10.213   7.540   2.365  1.0228 -0.6030  0.8934
   43MOL0     H 5790  10.358   7.717   2.406 -0.4956 -2.5966  0.0705
   43MOL0     H 5791  10.352   8.180   2.834 -1.9207 -1.3959 -0.5522
   43MOL0     H 5792  10.507   8.352   2.878  1.3967  1.3435 -0.0922
   43MOL0     H 5793  10.710   8.370   3.029  0.6075 -2.5261 -0.5428
   43MOL0     H 5794  10.677   8.502   2.899  1.5324  1.4627 -0.0104
   43MOL0     H 5795  10.822   8.552   3.078 -0.2844  0.1556  0.3708
   43MOL0     H 5796  10.894   8.570   2.911  0.2810 -1.5662 -1.5466
   43MOL0     H 5797  11.026   8.358   2.951  2.3220  1.2037  0.1291
   43MOL0     H 5798  10.976   8.358   3.117  3.8561 -0.1452  0.3046
   43MOL0     H 5799  11.069   8.561   3.158 -1.2426  1.8968 -2.6518
   43MOL0     H 5800  11.193   8.443   3.108  3.1860  4.3057 -0.7837
   43MOL0     H 5801  11.195   8.765   2.819  0.7276  0.1692  0.3743
   43MOL0     H 5802  10.824   8.125   2.723 -0.0722 -1.1256  0.6169
   43MOL0     H 5803  10.674   7.814   2.707  2.4869 -1.6457 -0.5520
   43MOL0     H 5804  10.665   7.895   2.544  0.1321 -0.0596  0.5296
   43MOL0     H 5805  10.808   7.908   2.652 -0.2608 -2.9792 -2.3701
   44MOL0     O 5806  11.081   6.677   5.376  0.0116  0.1449  0.8040
   44MOL0     C 5807  11.007   6.748   5.440 -0.3163  0.4871 -0.2038
   44MOL0     O 5808  11.023   6.888   5.454 -0.5429  0.7955 -0.1700
   44MOL0     C 5809  11.118   6.949   5.368 -0.8885 -0.2290 -0.4435
   44MOL0     C 5810  11.086   7.051   5.278  0.3961 -0.1498  0.0615
   44MOL0     C 5811  11.188   7.105   5.189  0.1845  0.5749 -0.7734
   44MOL0     C 5812  11.319   7.063   5.202  0.6667  0.5476  0.3230
   44MOL0     O 5813  11.430   7.111   5.136 -0.2373 -0.1907 -0.9913
   44MOL0     C 5814  11.438   7.253   5.120  0.8106 -0.0391  0.0829
   44MOL0     C 5815  11.548   7.295   5.019  0.5653  0.1430 -0.6932
   44MOL0     C 5816  11.680   7.255   5.080  0.0307 -0.2249 -0.2909
   44MOL0     C 5817  11.787   7.297   4.986 -0.2120 -0.1362 -0.0159
   44MOL0     C 5818  11.927   7.266   5.049  0.7133 -0.6304 -0.2590
   44MOL0     C 5819  12.033   7.342   4.967  1.4945 -0.5521 -0.2274
   44MOL0     C 5820  12.169   7.282   4.984 -0.4146 -0.1299 -0.1411
   44MOL0     C 5821  12.225   7.327   5.121  0.1889 -0.3949 -0.3958
   44MOL0     N 5822  12.340   7.253   5.168 -0.4384 -0.2344  0.3412
   44MOL0     C 5823  12.345   7.142   5.249 -0.3899 -0.0985  0.3258
   44MOL0     C 5824  12.471   7.090   5.235 -0.0596 -0.2181  0.1565
   44MOL0     C 5825  12.524   6.963   5.298 -0.5936  0.3842 -0.0449
   44MOL0     C 5826  12.649   6.999   5.383  0.2038 -0.3576  0.1847
   44MOL0     C 5827  12.724   6.883   5.434  0.8974  0.3610 -0.3419
   44MOL0     C 5828  12.872   6.906   5.488  0.8278  0.3597 -0.0499
   44MOL0     O 5829  12.876   6.900   5.633 -0.5239 -0.4230  0.4951
   44MOL0     C 5830  12.992   6.863   5.696 -0.3956  1.0375  0.5747
   44MOL0     C 5831  12.987   6.881   5.835  0.4790 -0.9169 -0.5314
   44MOL0     C 5832  13.092   6.860   5.918  0.2455 -0.0454  0.5375
   44MOL0     C 5833  13.207   6.799   5.865 -0.7509 -0.6648  0.5179
   44MOL0     C 5834  13.320   6.767   5.949  0.2192 -1.0177 -0.0284
   44MOL0     O 5835  13.420   6.683   5.904 -0.3622  0.1379  0.3912
   44MOL0     C 5836  13.485   6.597   5.991  0.3338 -0.5372  0.1644
   44MOL0     C 5837  13.622   6.589   5.977  0.7887 -0.4308 -0.1144
   44MOL0     C 5838  13.692   6.503   6.062 -0.2965  0.5008 -0.5154
   44MOL0     C 5839  13.632   6.440   6.172 -0.7177  0.8241 -0.3250
   44MOL0     O 5840  13.706   6.378   6.269 -0.1572 -0.5508  0.0403
   44MOL0     C 5841  13.791   6.276   6.212  0.3125  0.5006  0.3066
   44MOL0     C 5842  13.842   6.201   6.336 -0.5768  0.7154 -0.1803
   44MOL0     C 5843  13.976   6.249   6.391 -0.4631 -0.0160  0.5169
   44MOL0     C 5844  13.966   6.381   6.479  0.3266 -0.2619 -0.2008
   44MOL0     C 5845  14.105   6.426   6.537  0.5603  0.4860 -0.9601
   44MOL0     C 5846  14.170   6.328   6.639  0.3618  0.6232 -0.6136
   44MOL0     C 5847  14.317   6.374   6.686  0.1120  0.0222  0.5119
   44MOL0     C 5848  14.358   6.333   6.828 -0.5925 -0.6361 -0.2149
   44MOL0    Cl 5849  14.304   6.161   6.854 -0.4848  0.5095  0.0231
   44MOL0     C 5850  13.494   6.462   6.190 -0.8003  0.1573 -0.5636
   44MOL0     C 5851  13.420   6.535   6.095 -0.4650 -0.1151  0.0482
   44MOL0     O 5852  13.315   6.814   6.065  0.0276 -0.0472 -0.1562
   44MOL0     C 5853  13.215   6.771   5.727  0.3750  0.5943 -0.3087
   44MOL0     C 5854  13.111   6.809   5.639 -0.1225  0.2491 -0.7624
   44MOL0     N 5855  12.541   7.174   5.152 -0.2002 -0.5169 -0.3640
   44MOL0     N 5856  12.466   7.270   5.113 -0.2585 -0.1268  0.1371
   44MOL0     C 5857  11.352   6.957   5.288  0.2373 -0.5094  0.3375
   44MOL0     C 5858  11.252   6.904   5.377 -0.9433  0.7172  0.2512
   44MOL0     C 5859  10.896   6.680   5.512  1.1391  0.8625  0.1994
   44MOL0     C 5860  10.926   6.557   5.576  0.4873  0.1326 -0.4897
   44MOL0     C 5861  10.829   6.479   5.647  0.1796  0.1808 -0.4309
   44MOL0     C 5862  10.698   6.531   5.651 -0.0362 -0.3303  0.1823
   44MOL0     O 5863  10.592   6.484   5.725 -0.0858 -0.2449 -0.0388
   44MOL0     C 5864  10.607   6.357   5.788 -0.2336  0.1965  0.0217
   44MOL0     C 5865  10.467   6.303   5.821 -0.5740 -0.1483  0.7826
   44MOL0     C 5866  10.411   6.348   5.955  0.5104  0.0877  0.4505
   44MOL0     C 5867  10.260   6.316   5.976 -0.1014  0.7871 -1.5965
   44MOL0     C 5868  10.173   6.412   5.915  0.2432 -0.8535 -0.1959
   44MOL0     C 5869  10.085   6.489   5.869  0.2705  1.0839 -0.1134
   44MOL0     C 5870  10.671   6.655   5.583  1.2497  0.2069  0.8764
   44MOL0     C 5871  10.768   6.728   5.518  0.0722 -0.2199 -0.4005
   44MOL0     C 5872  10.721   6.865   5.471  0.1807  0.1927 -0.2690
   44MOL0     H 5873  10.991   7.102   5.269  1.2718  1.2737 -1.9462
   44MOL0     H 5874  11.159   7.179   5.114  0.8288  1.3199 -0.3108
   44MOL0     H 5875  11.340   7.281   5.080 -0.5445 -2.7522  1.2489
   44MOL0     H 5876  11.463   7.304   5.213  1.4576  0.3349 -0.2870
   44MOL0     H 5877  11.551   7.405   5.025  1.3941  0.0379  3.6724
   44MOL0     H 5878  11.506   7.263   4.923 -3.6301 -0.3455  1.0828
   44MOL0     H 5879  11.693   7.148   5.096 -0.1494  0.0105  1.6676
   44MOL0     H 5880  11.685   7.298   5.180 -2.1037 -0.3235 -0.1044
   44MOL0     H 5881  11.770   7.259   4.885 -0.4597  1.1702 -0.4776
   44MOL0     H 5882  11.780   7.405   4.970  0.2204 -0.3011 -1.4077
   44MOL0     H 5883  11.929   7.296   5.155  3.6093  1.1027 -0.6897
   44MOL0     H 5884  11.949   7.160   5.035  1.1731 -0.1918 -3.5885
   44MOL0     H 5885  12.017   7.332   4.859 -0.6861  2.3449 -0.2737
   44MOL0     H 5886  12.028   7.449   4.989 -1.3635 -0.6455 -0.1245
   44MOL0     H 5887  12.241   7.312   4.907  1.2078  0.0256  1.3468
   44MOL0     H 5888  12.163   7.174   4.972  0.9021 -0.3372  0.7419
   44MOL0     H 5889  12.247   7.434   5.117  3.0023 -0.6727  2.8949
   44MOL0     H 5890  12.155   7.323   5.206 -0.8064  0.4294 -1.1533
   44MOL0     H 5891  12.269   7.096   5.311 -0.5504  0.0957  0.2749
   44MOL0     H 5892  12.449   6.922   5.366 -0.6483  1.6223  0.6692
   44MOL0     H 5893  12.546   6.894   5.215  0.4547 -0.5128  0.9290
   44MOL0     H 5894  12.723   7.054   5.324 -1.5691  1.6429 -0.2961
   44MOL0     H 5895  12.611   7.060   5.465 -0.8340 -1.1257  0.3003
   44MOL0     H 5896  12.729   6.808   5.354 -0.5101  0.6806 -0.7460
   44MOL0     H 5897  12.664   6.837   5.513  0.7624 -2.1683 -1.7959
   44MOL0     H 5898  12.908   7.005   5.458  0.5007  2.0685  4.3717
   44MOL0     H 5899  12.936   6.833   5.439 -0.1131  0.6871 -1.8362
   44MOL0     H 5900  12.894   6.909   5.883 -0.9467 -0.6354 -3.2445
   44MOL0     H 5901  13.078   6.872   6.025 -2.7683 -0.4712  0.3009
   44MOL0     H 5902  13.673   6.637   5.894  0.3663 -0.5214 -0.4298
   44MOL0     H 5903  13.798   6.496   6.037 -0.5202  2.3568 -2.2446
   44MOL0     H 5904  13.736   6.205   6.150 -0.1146  0.1202  1.0993
   44MOL0     H 5905  13.877   6.305   6.151  0.2724  0.4331  0.2181
   44MOL0     H 5906  13.764   6.191   6.412 -0.5626  0.2580 -0.2238
   44MOL0     H 5907  13.867   6.099   6.307  0.6008  0.7321  0.7033
   44MOL0     H 5908  14.027   6.170   6.447 -0.8844 -0.7298 -0.0979
   44MOL0     H 5909  14.038   6.271   6.303  0.2164  3.4784  1.7135
   44MOL0     H 5910  13.893   6.363   6.558 -3.4855 -1.6803 -3.7053
   44MOL0     H 5911  13.927   6.461   6.416 -0.9330 -0.5906  0.1449
   44MOL0     H 5912  14.090   6.526   6.578 -0.2750 -0.3990  1.0281
   44MOL0     H 5913  14.173   6.439   6.452  2.5181 -0.4995  0.3594
   44MOL0     H 5914  14.108   6.327   6.729  2.2419 -1.5197  0.7766
   44MOL0     H 5915  14.168   6.228   6.594 -0.9750  0.7026 -0.7613
   44MOL0     H 5916  14.324   6.483   6.677 -2.2739  0.2522  0.8539
   44MOL0     H 5917  14.386   6.326   6.615 -0.9205  0.0960 -0.5709
   44MOL0     H 5918  14.463   6.348   6.853 -1.4004  0.9526  2.8246
   44MOL0     H 5919  14.318   6.403   6.902  1.5027  0.2207  0.1616
   44MOL0     H 5920  13.434   6.410   6.264 -1.0871 -0.2453 -1.0704
   44MOL0     H 5921  13.311   6.536   6.100 -0.4413  0.6897  0.8434
   44MOL0     H 5922  13.313   6.744   5.690  0.6685  1.6461 -0.3217
   44MOL0     H 5923  13.114   6.805   5.530 -1.2175 -0.0180 -0.7925
   44MOL0     H 5924  11.454   6.918   5.289 -0.4560 -2.3968  1.2498
   44MOL0     H 5925  11.298   6.838   5.449 -0.8087  1.8469  1.2272
   44MOL0     H 5926  11.029   6.524   5.576 -0.0519 -1.7134 -0.2606
   44MOL0     H 5927  10.861   6.390   5.699 -2.4510 -0.9489 -0.5971
   44MOL0     H 5928  10.662   6.363   5.883 -0.4857 -0.8450  0.2411
   44MOL0     H 5929  10.660   6.287   5.724 -2.0713 -1.1344 -0.1258
   44MOL0     H 5930  10.463   6.194   5.820  1.1589 -0.2415  0.8594
   44MOL0     H 5931  10.401   6.314   5.735 -1.7208  0.5823  1.7208
   44MOL0     H 5932  10.429   6.456   5.960  0.0791  0.3943 -2.6748
   44MOL0     H 5933  10.463   6.298   6.037  0.7864  0.0872  0.2726
   44MOL0     H 5934  10.225   6.219   5.939 -4.3113  1.5344 -0.1231
   44MOL0     H 5935  10.239   6.317   6.084 -0.0086 -1.1150 -1.5200
   44MOL0     H 5936  10.003   6.549   5.837 -0.5343  1.4096  2.3426
   44MOL0     H 5937  10.570   6.695   5.588  0.3724 -1.8954  1.1534
   44MOL0     H 5938  10.613   6.881   5.462  0.2544  0.5859 -0.5362
   44MOL0     H 5939  10.764   6.936   5.541  4.2430 -1.3509 -0.9523
   44MOL0     H 5940  10.772   6.890   5.377  1.7002  0.8205  0.6912
   45MOL0     O 5941   5.028  10.031   1.661  0.5013  0.7625 -0.6591
   45MOL0     C 5942   4.970  10.127   1.696  0.1629 -0.8411 -0.1114
   45MOL0     O 5943   5.019  10.254   1.685 -0.6881  0.1983  0.1733
   45MOL0     C 5944   5.144  10.276   1.644  0.0552  0.7558  0.5460
   45MOL0     C 5945   5.229  10.356   1.723  0.0752  0.1406 -0.4601
   45MOL0     C 5946   5.359  10.386   1.667  0.6616  0.5182 -0.6352
   45MOL0     C 5947   5.399  10.342   1.543 -0.0295 -0.4279  0.5270
   45MOL0     O 5948   5.517  10.381   1.489 -0.6536  0.0128 -0.6131
   45MOL0     C 5949   5.619  10.279   1.506 -0.3586  0.4405 -0.7958
   45MOL0     C 5950   5.665  10.256   1.654 -0.1924  0.3380  0.4037
   45MOL0     C 5951   5.734  10.385   1.709  0.5960 -0.1307 -0.7953
   45MOL0     C 5952   5.750  10.376   1.861 -0.7807  0.1528  0.9195
   45MOL0     C 5953   5.848  10.482   1.912  0.0567  0.0890  0.3907
   45MOL0     C 5954   5.846  10.506   2.055 -0.4205 -0.3523  0.8138
   45MOL0     C 5955   5.987  10.567   2.101  0.5328  0.5539 -0.7500
   45MOL0     C 5956   6.030  10.682   2.007  1.0423 -0.1544 -0.5685
   45MOL0     N 5957   6.155  10.751   2.048  0.2074  0.1025  0.4437
   45MOL0     C 5958   6.191  10.787   2.177 -0.2630 -0.3943  0.1808
   45MOL0     C 5959   6.319  10.819   2.165  0.3183 -0.5119 -0.4947
   45MOL0     C 5960   6.398  10.881   2.279  0.2770 -0.3731  0.5503
   45MOL0     C 5961   6.539  10.929   2.250 -0.0120  0.3752  0.4573
   45MOL0     C 5962   6.614  10.997   2.365 -0.3298  0.2356  1.0441
   45MOL0     C 5963   6.746  11.067   2.321  0.2938  0.8012  0.4784
   45MOL0     O 5964   6.851  10.973   2.311  0.6777 -0.0684  0.0269
   45MOL0     C 5965   6.975  11.028   2.297 -0.2819 -1.0165 -0.7598
   45MOL0     C 5966   7.088  10.945   2.312  0.8961 -0.4992  0.6349
   45MOL0     C 5967   7.212  11.001   2.301  0.8952  0.1876 -0.1099
   45MOL0     C 5968   7.236  11.135   2.276  0.0700  0.2035  0.1946
   45MOL0     C 5969   7.378  11.193   2.284 -0.0180  0.5208 -0.4367
   45MOL0     O 5970   7.470  11.104   2.324 -0.4445  0.8451  0.3145
   45MOL0     C 5971   7.601  11.142   2.332 -0.6294 -0.3125 -0.1979
   45MOL0     C 5972   7.643  11.243   2.431  0.7292  0.2069  0.4579
   45MOL0     C 5973   7.776  11.279   2.449 -0.3960  0.3767  0.0352
   45MOL0     C 5974   7.876  11.210   2.378  0.0453  0.0279  0.6154
   45MOL0     O 5975   8.003  11.247   2.402 -0.3958  0.2915  0.0590
   45MOL0     C 5976   8.114  11.171   2.354  0.3872 -0.1877  0.3681
   45MOL0     C 5977   8.236  11.242   2.399  0.3925  0.3638 -0.6856
   45MOL0     C 5978   8.362  11.179   2.341 -0.5488 -0.4095 -1.1043
   45MOL0     C 5979   8.488  11.263   2.361  0.0787  0.0416 -0.0516
   45MOL0     C 5980   8.606  11.190   2.309 -0.3673  0.1995  0.0036
   45MOL0     C 5981   8.662  11.095   2.420 -0.5357 -0.3990 -0.7711
   45MOL0     C 5982   8.792  11.026   2.382  0.3870  0.0743  0.7191
   45MOL0     C 5983   8.840  10.941   2.492  0.3227 -0.1817  0.2931
   45MOL0    Cl 5984   9.010  10.902   2.459  0.8449  0.4108  0.1059
   45MOL0     C 5985   7.835  11.117   2.281  0.2758  0.3918  0.8375
   45MOL0     C 5986   7.703  11.079   2.258 -0.3766  0.3385 -0.1472
   45MOL0     O 5987   7.397  11.309   2.254  0.3935  0.5108  0.7315
   45MOL0     C 5988   7.124  11.222   2.260  0.6311 -0.1375 -0.4012
   45MOL0     C 5989   7.000  11.165   2.263 -0.0797  0.0010 -0.3440
   45MOL0     N 5990   6.360  10.801   2.032 -0.1998  0.1861  0.1929
   45MOL0     N 5991   6.265  10.754   1.962 -0.5430  0.0901 -0.9541
   45MOL0     C 5992   5.320  10.250   1.472 -0.1952  0.0007 -0.6478
   45MOL0     C 5993   5.185  10.228   1.514 -0.7121  0.2545  0.1112
   45MOL0     C 5994   4.826  10.111   1.734 -0.1217  0.7378 -0.4482
   45MOL0     C 5995   4.763   9.994   1.687 -0.3158  0.6652 -0.5685
   45MOL0     C 5996   4.633   9.976   1.718  0.5101  0.5984 -0.6196
   45MOL0     C 5997   4.566  10.062   1.803 -0.4249  0.4980 -0.9024
   45MOL0     O 5998   4.447  10.017   1.843 -0.3391  0.5064  0.0583
   45MOL0     C 5999   4.364  10.105   1.928  0.2661 -0.1064  0.5223
   45MOL0     C 6000   4.237  10.030   1.947  0.3216  0.5439  0.0969
   45MOL0     C 6001   4.134  10.104   2.037  0.7310  0.7446 -0.0073
   45MOL0     C 6002   4.037  10.009   2.107  0.5502 -0.1546 -0.0505
   45MOL0     C 6003   3.970   9.908   2.030  0.8096 -1.0058 -0.4109
   45MOL0     C 6004   3.926   9.827   1.956 -0.2863 -0.2980  0.3727
   45MOL0     C 6005   4.632  10.174   1.854 -0.8145  0.0076  0.5308
   45MOL0     C 6006   4.762  10.201   1.817  0.1716 -0.0405 -0.0087
   45MOL0     C 6007   4.818  10.323   1.881 -0.4732  0.4029 -0.2576
   45MOL0     H 6008   5.192  10.384   1.821 -2.7848 -0.2211 -1.3418
   45MOL0     H 6009   5.427  10.448   1.725  1.7761 -1.4753  0.2845
   45MOL0     H 6010   5.585  10.179   1.476 -0.2496  0.3560 -0.6397
   45MOL0     H 6011   5.708  10.293   1.444  0.5849 -1.4741  0.0472
   45MOL0     H 6012   5.738  10.174   1.654 -0.6791 -0.2214  3.6316
   45MOL0     H 6013   5.575  10.235   1.713 -1.3589  1.2406 -0.9828
   45MOL0     H 6014   5.677  10.475   1.683 -1.1504  0.2813  3.6198
   45MOL0     H 6015   5.833  10.394   1.664  1.0124 -1.2885 -0.1419
   45MOL0     H 6016   5.651  10.389   1.905 -0.4947  0.0844  1.5955
   45MOL0     H 6017   5.791  10.277   1.881 -2.1789 -0.8713 -1.0377
   45MOL0     H 6018   5.948  10.447   1.882 -0.3265 -1.7195  1.0612
   45MOL0     H 6019   5.822  10.573   1.858 -2.4324  1.0275  2.9440
   45MOL0     H 6020   5.762  10.571   2.082 -0.5420 -0.6096  1.0613
   45MOL0     H 6021   5.833  10.411   2.107 -0.4750 -1.1927 -0.7017
   45MOL0     H 6022   6.060  10.488   2.121 -0.8199 -0.7190 -0.6375
   45MOL0     H 6023   5.972  10.618   2.197  2.6774 -2.9358  1.6450
   45MOL0     H 6024   6.045  10.641   1.906 -1.3177 -0.4737 -0.8440
   45MOL0     H 6025   5.941  10.742   1.989 -0.5233 -2.0733  0.4353
   45MOL0     H 6026   6.131  10.776   2.267  1.8550 -2.4279  1.4675
   45MOL0     H 6027   6.342  10.969   2.311  2.0167  1.7931 -1.8970
   45MOL0     H 6028   6.410  10.816   2.366  0.5563 -0.7677  0.2191
   45MOL0     H 6029   6.601  10.846   2.214 -1.8735  0.4711 -3.5763
   45MOL0     H 6030   6.545  10.996   2.163  0.8162 -0.8325 -0.4485
   45MOL0     H 6031   6.626  10.927   2.448  2.5544  0.4036  0.8880
   45MOL0     H 6032   6.540  11.066   2.406 -1.5955  0.5120 -1.5224
   45MOL0     H 6033   6.758  11.147   2.394 -1.1193  0.6609  0.8874
   45MOL0     H 6034   6.724  11.104   2.220 -0.3263 -2.5366 -0.7471
   45MOL0     H 6035   7.092  10.837   2.319  0.8159 -0.6688 -1.4074
   45MOL0     H 6036   7.298  10.934   2.296  1.8972  1.4087  0.1461
   45MOL0     H 6037   7.569  11.294   2.492 -1.6921  0.0472 -2.1450
   45MOL0     H 6038   7.808  11.341   2.532  0.7562 -2.5761  1.9856
   45MOL0     H 6039   8.108  11.071   2.399  1.2963  0.1394  1.2430
   45MOL0     H 6040   8.111  11.166   2.245 -2.5648 -0.1446  0.3726
   45MOL0     H 6041   8.237  11.350   2.382 -0.2669 -0.0125 -3.6409
   45MOL0     H 6042   8.251  11.219   2.505 -2.1581 -0.1955 -0.3975
   45MOL0     H 6043   8.394  11.084   2.385  2.0775  0.7447 -0.3822
   45MOL0     H 6044   8.344  11.166   2.234  1.5211  1.0788 -1.6938
   45MOL0     H 6045   8.502  11.295   2.465  1.2926 -2.4418  0.6244
   45MOL0     H 6046   8.470  11.349   2.296 -0.6419  0.4050  0.6045
   45MOL0     H 6047   8.678  11.270   2.289 -0.1390  0.0718  0.3033
   45MOL0     H 6048   8.606  11.139   2.212  0.1597  1.7052 -0.8219
   45MOL0     H 6049   8.674  11.152   2.513  0.1729  0.9203 -1.6452
   45MOL0     H 6050   8.587  11.017   2.436 -0.9973 -0.2275 -2.0056
   45MOL0     H 6051   8.862  11.105   2.354  0.8109 -0.5652 -0.0624
   45MOL0     H 6052   8.783  10.964   2.293 -0.1565 -2.9379  2.7362
   45MOL0     H 6053   8.826  10.989   2.589 -0.1193  1.7939 -0.7055
   45MOL0     H 6054   8.776  10.853   2.484 -0.1130 -0.0635  2.0265
   45MOL0     H 6055   7.915  11.066   2.228  4.0122  4.1692  2.3233
   45MOL0     H 6056   7.700  10.999   2.184  0.4272  2.6214 -2.8105
   45MOL0     H 6057   7.141  11.327   2.236  1.1667 -0.0529  0.2870
   45MOL0     H 6058   6.923  11.235   2.232 -2.6592 -2.2206  0.6913
   45MOL0     H 6059   5.348  10.194   1.383 -1.8141 -1.5995 -0.2208
   45MOL0     H 6060   5.121  10.159   1.459  2.2120 -1.9469 -0.7999
   45MOL0     H 6061   4.822   9.928   1.624  0.0542  0.9777 -0.5568
   45MOL0     H 6062   4.589   9.884   1.678  1.7524 -0.1554 -0.3096
   45MOL0     H 6063   4.333  10.198   1.880 -3.0762 -0.2902  1.9776
   45MOL0     H 6064   4.407  10.124   2.027  4.3463 -0.6254 -0.9924
   45MOL0     H 6065   4.266   9.935   1.991  0.3888 -0.3619 -1.7816
   45MOL0     H 6066   4.194  10.003   1.850 -1.7796 -1.0702  1.4186
   45MOL0     H 6067   4.069  10.167   1.977 -0.7152  1.5557  2.2834
   45MOL0     H 6068   4.172  10.172   2.114 -2.4650  2.6717  0.0597
   45MOL0     H 6069   4.089   9.950   2.183 -0.8990 -2.3345 -0.6561
   45MOL0     H 6070   3.962  10.075   2.153  1.6627  0.2323  1.2854
   45MOL0     H 6071   3.885   9.745   1.901 -0.0830  0.4100 -0.8793
   45MOL0     H 6072   4.585  10.247   1.920  1.4842  1.8224  0.2716
   45MOL0     H 6073   4.832  10.400   1.805  0.2161  0.8708  0.3337
   45MOL0     H 6074   4.747  10.363   1.954 -1.1055 -0.9584 -0.0937
   45MOL0     H 6075   4.914  10.306   1.930 -0.6196  0.7940  0.1742
   46MOL0     O 6076  11.088   5.198   7.119  0.2592 -0.0705 -0.0600
   46MOL0     C 6077  10.984   5.229   7.180  0.4263  0.1752  1.0140
   46MOL0     O 6078  10.981   5.336   7.256  0.1972 -1.0735  0.0993
   46MOL0     C 6079  11.088   5.392   7.336 -0.3250 -0.0709  0.1186
   46MOL0     C 6080  11.194   5.327   7.381 -1.0018  0.4428 -0.7716
   46MOL0     C 6081  11.303   5.395   7.443 -0.1467  0.0730  0.5485
   46MOL0     C 6082  11.301   5.535   7.463  0.0520 -0.8886  0.3675
   46MOL0     O 6083  11.412   5.600   7.505 -1.1777  0.9152  0.1283
   46MOL0     C 6084  11.394   5.688   7.613 -0.0810 -0.8266  0.0792
   46MOL0     C 6085  11.542   5.719   7.658  0.5118  0.2514 -0.1611
   46MOL0     C 6086  11.534   5.834   7.753  0.1937 -0.3357 -0.1511
   46MOL0     C 6087  11.659   5.911   7.796  0.4021 -0.1024 -0.2257
   46MOL0     C 6088  11.773   5.827   7.857 -0.2358  0.2738  0.1583
   46MOL0     C 6089  11.731   5.727   7.972 -0.7816 -0.4116 -0.5906
   46MOL0     C 6090  11.740   5.803   8.105  0.6547 -0.2230 -0.0608
   46MOL0     C 6091  11.679   5.720   8.221  0.2314 -1.0872 -0.3197
   46MOL0     N 6092  11.769   5.630   8.287  0.9877  0.4958 -0.1002
   46MOL0     C 6093  11.770   5.490   8.309  1.0151 -0.0483  0.7886
   46MOL0     C 6094  11.892   5.458   8.365 -0.2535 -0.1616  0.0688
   46MOL0     C 6095  11.917   5.319   8.411  0.3562 -0.4409 -0.3314
   46MOL0     C 6096  11.922   5.313   8.561 -0.3010 -0.4819 -0.4728
   46MOL0     C 6097  11.945   5.175   8.613  0.0805  0.6371 -0.4376
   46MOL0     C 6098  12.085   5.121   8.583  0.3043  0.6322  0.5573
   46MOL0     O 6099  12.188   5.203   8.643  0.8403 -0.0308  0.1105
   46MOL0     C 6100  12.311   5.146   8.661  0.3157 -0.6063 -0.0184
   46MOL0     C 6101  12.322   5.033   8.743  0.2138 -0.4690  0.1100
   46MOL0     C 6102  12.452   4.979   8.769  0.5938 -0.1095 -0.1916
   46MOL0     C 6103  12.569   5.038   8.714  0.2751  0.1952  0.2319
   46MOL0     C 6104  12.699   4.999   8.755 -0.1565 -0.0773 -0.7989
   46MOL0     O 6105  12.798   5.082   8.707  0.1166  0.0661 -0.2620
   46MOL0     C 6106  12.925   5.039   8.741  1.6036  0.8619 -0.0738
   46MOL0     C 6107  12.985   4.931   8.687 -0.6406  0.3502  0.4334
   46MOL0     C 6108  13.127   4.914   8.716  0.2298 -0.1931  0.1284
   46MOL0     C 6109  13.205   5.012   8.792  0.6161 -0.0270 -0.4214
   46MOL0     O 6110  13.343   5.010   8.795 -0.1984 -0.4709 -0.3596
   46MOL0     C 6111  13.393   4.881   8.849  0.7184  0.1039  0.6090
   46MOL0     C 6112  13.533   4.907   8.909 -0.5093 -0.4379 -0.0204
   46MOL0     C 6113  13.536   5.009   9.016 -0.1096  0.3627 -0.9874
   46MOL0     C 6114  13.466   4.983   9.158 -0.3622  0.2416  0.7796
   46MOL0     C 6115  13.495   5.096   9.254 -0.4064 -0.8159 -0.3774
   46MOL0     C 6116  13.411   5.078   9.380 -0.2118  0.6394 -0.1001
   46MOL0     C 6117  13.431   5.188   9.480  0.0299  0.1982 -1.1275
   46MOL0     C 6118  13.326   5.187   9.591 -0.1963  0.5623 -0.5232
   46MOL0    Cl 6119  13.350   5.327   9.697 -0.1989 -0.5415  0.3355
   46MOL0     C 6120  13.139   5.125   8.839 -0.1534 -0.3397  1.3593
   46MOL0     C 6121  12.998   5.137   8.811 -0.0253 -0.8289 -0.2720
   46MOL0     O 6122  12.710   4.900   8.823  0.5005  0.7927  0.5951
   46MOL0     C 6123  12.550   5.138   8.619  0.0917 -0.0850  0.1764
   46MOL0     C 6124  12.422   5.196   8.598 -0.1753  0.0710  0.3105
   46MOL0     N 6125  11.954   5.575   8.396 -0.5918  0.4502  0.0646
   46MOL0     N 6126  11.877   5.667   8.364  0.6670 -0.0801 -0.4790
   46MOL0     C 6127  11.184   5.597   7.436  0.5473 -1.2000 -0.2530
   46MOL0     C 6128  11.079   5.528   7.378 -0.3368 -0.0735  0.1126
   46MOL0     C 6129  10.860   5.166   7.121  0.1044  0.6147  0.7373
   46MOL0     C 6130  10.860   5.102   6.994  0.2443  0.0434 -0.2274
   46MOL0     C 6131  10.743   5.046   6.938  0.6439 -0.1012  0.4035
   46MOL0     C 6132  10.624   5.046   7.011  0.0952 -0.0635 -0.1847
   46MOL0     O 6133  10.521   4.996   6.946 -0.1125 -0.1060  0.3063
   46MOL0     C 6134  10.437   4.914   7.029 -0.2366  0.0746 -0.5789
   46MOL0     C 6135  10.355   4.823   6.939  0.4331 -0.0468  0.4153
   46MOL0     C 6136  10.211   4.785   6.991  0.1847 -0.0715  0.4856
   46MOL0     C 6137  10.117   4.700   6.906  0.1719 -0.3427 -0.5475
   46MOL0     C 6138  10.015   4.643   6.999  0.4472  0.0393  0.5208
   46MOL0     C 6139   9.944   4.586   7.078  0.4309  0.5508 -0.0592
   46MOL0     C 6140  10.624   5.101   7.144 -0.3342  0.1777  1.2699
   46MOL0     C 6141  10.738   5.159   7.200  0.1624  0.2886 -0.2518
   46MOL0     C 6142  10.731   5.183   7.351 -0.6672 -0.3389 -0.5009
   46MOL0     H 6143  11.214   5.222   7.363  0.2032  0.3324  1.0192
   46MOL0     H 6144  11.381   5.331   7.485  0.0113  0.9905  1.7209
   46MOL0     H 6145  11.347   5.782   7.585 -1.8390 -1.8514 -0.5270
   46MOL0     H 6146  11.327   5.646   7.689 -0.1045 -0.1606  0.4334
   46MOL0     H 6147  11.589   5.754   7.566  1.9999 -0.1382  0.4286
   46MOL0     H 6148  11.601   5.635   7.696  1.1011  1.6590  2.2153
   46MOL0     H 6149  11.484   5.786   7.837 -1.1529 -0.4851 -1.0085
   46MOL0     H 6150  11.465   5.913   7.720 -1.9895 -1.0755  2.2789
   46MOL0     H 6151  11.708   5.976   7.723  0.6349  0.9250  0.8201
   46MOL0     H 6152  11.626   5.972   7.880 -0.7101 -0.6010 -0.2772
   46MOL0     H 6153  11.814   5.768   7.775  1.5518  1.6317  0.0083
   46MOL0     H 6154  11.857   5.887   7.893  0.1294 -0.7602  1.0786
   46MOL0     H 6155  11.631   5.688   7.951 -0.1022 -2.1618 -0.7715
   46MOL0     H 6156  11.787   5.633   7.979 -1.0120 -0.4314  1.6751
   46MOL0     H 6157  11.681   5.895   8.099  1.1413  0.2844  2.0693
   46MOL0     H 6158  11.840   5.831   8.140  0.1088 -1.0798  2.4426
   46MOL0     H 6159  11.630   5.784   8.295 -2.3608 -2.4551 -0.7127
   46MOL0     H 6160  11.592   5.665   8.181 -0.5479 -0.3069  0.2717
   46MOL0     H 6161  11.701   5.412   8.278  1.5630  0.3519 -1.6730
   46MOL0     H 6162  11.840   5.254   8.368  2.4878 -0.8959 -3.8617
   46MOL0     H 6163  12.018   5.303   8.374  0.7432 -0.8734  0.9006
   46MOL0     H 6164  11.998   5.380   8.602 -0.2709 -1.0868  0.5181
   46MOL0     H 6165  11.829   5.346   8.608  0.5696  1.3800  0.0272
   46MOL0     H 6166  11.875   5.107   8.564  1.2240 -1.0397  0.1197
   46MOL0     H 6167  11.915   5.160   8.717 -1.4027  0.4065 -0.8733
   46MOL0     H 6168  12.103   5.128   8.475 -0.9980  2.6097  0.4192
   46MOL0     H 6169  12.089   5.013   8.601 -0.4846 -0.0279 -2.5716
   46MOL0     H 6170  12.230   4.988   8.779 -1.7443  1.6179 -1.9746
   46MOL0     H 6171  12.462   4.894   8.836  3.0613 -0.3759 -0.7866
   46MOL0     H 6172  12.938   4.875   8.607  1.1992 -0.8678  0.1413
   46MOL0     H 6173  13.187   4.836   8.670 -0.9626 -0.2305 -1.4422
   46MOL0     H 6174  13.324   4.834   8.919  0.3323 -0.4255 -0.1280
   46MOL0     H 6175  13.410   4.819   8.761  2.7291  0.0480  0.9785
   46MOL0     H 6176  13.587   4.819   8.944 -1.0342  0.0325  2.0590
   46MOL0     H 6177  13.606   4.939   8.834 -2.0689 -0.3653 -1.5996
   46MOL0     H 6178  13.640   5.028   9.042 -0.6128  0.3967  1.1899
   46MOL0     H 6179  13.495   5.103   8.980 -0.1360  0.7648  0.0569
   46MOL0     H 6180  13.503   4.886   9.194 -2.8458 -1.1422 -0.1082
   46MOL0     H 6181  13.358   4.975   9.144 -0.1864 -0.1458 -0.4667
   46MOL0     H 6182  13.475   5.197   9.217 -0.5343 -0.8595 -0.4264
   46MOL0     H 6183  13.601   5.093   9.278 -0.3248  0.9998 -0.3710
   46MOL0     H 6184  13.307   5.082   9.345  0.4966 -0.7835 -2.6302
   46MOL0     H 6185  13.427   4.982   9.429  1.8274  1.6395  1.3405
   46MOL0     H 6186  13.423   5.286   9.433 -1.6076  0.1135 -1.1116
   46MOL0     H 6187  13.532   5.183   9.522 -0.1891 -0.0780 -0.6157
   46MOL0     H 6188  13.227   5.200   9.547  0.0353  3.4801 -0.3868
   46MOL0     H 6189  13.333   5.092   9.646 -2.0476  1.6622  1.7478
   46MOL0     H 6190  13.185   5.207   8.893 -0.2732  0.3779  0.3843
   46MOL0     H 6191  12.946   5.227   8.843 -1.4918 -1.2706 -1.3349
   46MOL0     H 6192  12.636   5.184   8.573  0.8769 -0.9920  0.7031
   46MOL0     H 6193  12.398   5.277   8.529 -1.6769  0.8782  1.7083
   46MOL0     H 6194  11.178   5.701   7.464 -1.1644 -1.0435 -1.1005
   46MOL0     H 6195  10.989   5.583   7.353 -1.5053 -1.4543  1.1452
   46MOL0     H 6196  10.948   5.096   6.930  1.5589  0.0697  1.5015
   46MOL0     H 6197  10.739   5.008   6.837 -2.0355  0.4872  0.2270
   46MOL0     H 6198  10.375   4.971   7.099 -1.7136 -0.6214 -1.2781
   46MOL0     H 6199  10.499   4.841   7.082 -1.7359 -1.0899 -0.3884
   46MOL0     H 6200  10.414   4.734   6.913  1.0607  0.7574 -1.0253
   46MOL0     H 6201  10.352   4.883   6.847  2.2982  1.4693  1.2743
   46MOL0     H 6202  10.154   4.875   7.017 -2.6855 -2.3721  2.9245
   46MOL0     H 6203  10.230   4.740   7.089  0.8408 -1.0008 -0.0621
   46MOL0     H 6204  10.070   4.756   6.824 -1.4927 -0.5719  0.2169
   46MOL0     H 6205  10.169   4.620   6.851 -0.1957  0.8441 -2.7365
   46MOL0     H 6206   9.890   4.537   7.156 -0.3391 -0.6068 -1.2851
   46MOL0     H 6207  10.527   5.100   7.194 -0.4679 -1.1620  1.0376
   46MOL0     H 6208  10.786   5.111   7.412  1.2404  1.1441 -0.3573
   46MOL0     H 6209  10.777   5.279   7.376 -0.7364 -0.5970  0.6735
   46MOL0     H 6210  10.627   5.189   7.385  0.0739  1.4363  1.6867
   47MOL0     O 6211   3.339   6.077   5.986  0.3124 -0.0385  1.0841
   47MOL0     C 6212   3.232   6.132   6.002 -0.6936 -0.3041  0.1169
   47MOL0     O 6213   3.158   6.207   5.910  0.1818 -0.0035 -0.5294
   47MOL0     C 6214   3.230   6.233   5.794  0.4412 -0.4961  0.3901
   47MOL0     C 6215   3.312   6.345   5.776  0.1576 -0.3453 -0.5584
   47MOL0     C 6216   3.411   6.346   5.679 -0.0783 -0.5656 -0.6537
   47MOL0     C 6217   3.423   6.236   5.584  0.0214  0.7066 -0.6802
   47MOL0     O 6218   3.512   6.258   5.479 -0.8003  0.0892  0.3093
   47MOL0     C 6219   3.503   6.176   5.360  0.4634  0.1032 -0.6346
   47MOL0     C 6220   3.606   6.203   5.248  1.1523 -0.5333  0.0125
   47MOL0     C 6221   3.749   6.207   5.300  0.8282 -0.3627  0.1527
   47MOL0     C 6222   3.835   6.258   5.183 -0.4310  0.1600  0.3523
   47MOL0     C 6223   3.983   6.269   5.218 -0.4139 -0.2512  0.3705
   47MOL0     C 6224   4.059   6.332   5.097  0.4515 -0.0366 -0.0091
   47MOL0     C 6225   4.198   6.363   5.150  0.0377  0.5558  0.6547
   47MOL0     C 6226   4.271   6.224   5.141  0.0525 -0.5634  0.2929
   47MOL0     N 6227   4.422   6.248   5.142 -0.3931  1.0660  0.2187
   47MOL0     C 6228   4.519   6.193   5.055  0.3264  0.0769  0.3118
   47MOL0     C 6229   4.646   6.226   5.098  0.8476 -0.9539 -0.8030
   47MOL0     C 6230   4.769   6.185   5.033  0.2153 -0.2762 -0.5158
   47MOL0     C 6231   4.791   6.242   4.887 -0.1826 -0.4761 -0.0789
   47MOL0     C 6232   4.924   6.204   4.830 -0.5613  0.3635 -0.3021
   47MOL0     C 6233   4.935   6.246   4.683  0.1944 -0.0108  0.7146
   47MOL0     O 6234   5.056   6.191   4.620  0.4803 -0.0843 -0.5155
   47MOL0     C 6235   5.176   6.253   4.633  0.1148  0.0199  0.3573
   47MOL0     C 6236   5.198   6.367   4.712 -0.8819 -0.5863 -0.1674
   47MOL0     C 6237   5.330   6.409   4.736 -0.5281 -0.7532 -0.0237
   47MOL0     C 6238   5.436   6.344   4.662  0.3788  0.0750  0.2862
   47MOL0     C 6239   5.570   6.409   4.672 -0.4299 -0.4032  0.2816
   47MOL0     O 6240   5.666   6.347   4.597 -0.6032 -0.1925  0.2981
   47MOL0     C 6241   5.777   6.419   4.569 -0.4548  0.5945 -0.3724
   47MOL0     C 6242   5.889   6.428   4.652 -0.8910 -0.2115  0.1223
   47MOL0     C 6243   6.012   6.486   4.610 -0.1616 -0.0353  1.2469
   47MOL0     C 6244   6.020   6.551   4.485  0.6607  0.1998 -0.2435
   47MOL0     O 6245   6.128   6.621   4.431  0.4276  0.2575 -0.1467
   47MOL0     C 6246   6.226   6.659   4.525  0.0940  0.1393  0.0267
   47MOL0     C 6247   6.340   6.753   4.473 -0.4367 -0.6122 -0.3642
   47MOL0     C 6248   6.433   6.790   4.597 -0.2178  0.6061  0.0927
   47MOL0     C 6249   6.534   6.903   4.560  0.2358  0.4102  0.2366
   47MOL0     C 6250   6.600   6.970   4.679 -0.0180  0.2672 -0.5651
   47MOL0     C 6251   6.666   7.100   4.631 -0.3121  0.2612 -0.1950
   47MOL0     C 6252   6.742   7.164   4.749  0.3680  0.3481  0.2980
   47MOL0     C 6253   6.879   7.096   4.771 -0.3243  0.2904 -0.3466
   47MOL0    Cl 6254   6.961   7.181   4.897 -0.0735  0.2477  0.2441
   47MOL0     C 6255   5.901   6.543   4.407 -0.5944  0.0610 -0.1806
   47MOL0     C 6256   5.790   6.475   4.447 -0.2083  0.5009  0.1383
   47MOL0     O 6257   5.588   6.511   4.732 -1.0335  0.1992 -0.1183
   47MOL0     C 6258   5.411   6.230   4.589 -0.4201 -0.3704  0.4310
   47MOL0     C 6259   5.281   6.189   4.566  1.0261 -0.2730 -0.4376
   47MOL0     N 6260   4.624   6.294   5.225 -0.1383 -0.0950  0.4791
   47MOL0     N 6261   4.492   6.296   5.252 -0.1364 -1.0132  0.4397
   47MOL0     C 6262   3.330   6.135   5.582 -0.1074 -0.2038 -0.3603
   47MOL0     C 6263   3.237   6.128   5.696  0.3025  0.3071 -0.1788
   47MOL0     C 6264   3.167   6.108   6.125  0.2296  0.2425 -0.0206
   47MOL0     C 6265   3.197   5.991   6.191  0.3414  0.2953  0.3299
   47MOL0     C 6266   3.128   5.957   6.308 -0.2163 -0.1683 -0.5767
   47MOL0     C 6267   3.032   6.038   6.370  0.2325  0.7286 -0.1500
   47MOL0     O 6268   2.964   6.013   6.485  0.5546 -0.6817  0.4316
   47MOL0     C 6269   2.994   5.906   6.576 -0.3936  0.1707  0.2020
   47MOL0     C 6270   2.865   5.837   6.594 -0.2974 -0.5414 -0.6235
   47MOL0     C 6271   2.864   5.774   6.736  0.4731  0.2866 -0.4028
   47MOL0     C 6272   2.762   5.650   6.745 -1.0400 -0.0999 -0.1001
   47MOL0     C 6273   2.631   5.686   6.698  1.4132  0.4757 -0.3007
   47MOL0     C 6274   2.519   5.691   6.653  0.6537 -0.4443  0.0658
   47MOL0     C 6275   3.005   6.155   6.304  0.4079  0.1338 -0.0757
   47MOL0     C 6276   3.067   6.192   6.187 -0.2472  0.2129  0.3006
   47MOL0     C 6277   3.038   6.327   6.123  0.3621  0.4541 -0.7668
   47MOL0     H 6278   3.318   6.430   5.843  3.4562 -0.7591 -0.1711
   47MOL0     H 6279   3.471   6.436   5.677  1.7177 -1.7126 -0.5177
   47MOL0     H 6280   3.514   6.071   5.389  2.7480  0.3705 -0.3228
   47MOL0     H 6281   3.406   6.185   5.312 -0.2428 -2.5491  0.1214
   47MOL0     H 6282   3.583   6.299   5.201  2.1376  1.0761  2.6264
   47MOL0     H 6283   3.590   6.129   5.169 -0.4326  0.1839 -0.3797
   47MOL0     H 6284   3.778   6.106   5.332  2.2460  0.5912  2.0747
   47MOL0     H 6285   3.759   6.266   5.391  1.7106 -0.1309 -0.0840
   47MOL0     H 6286   3.826   6.185   5.103 -2.4297 -2.7024  2.9684
   47MOL0     H 6287   3.790   6.349   5.141  1.3635  1.4359  1.0360
   47MOL0     H 6288   4.002   6.333   5.304 -0.9309  1.6626 -0.8653
   47MOL0     H 6289   4.031   6.178   5.255  1.4636  1.9485  3.8481
   47MOL0     H 6290   4.055   6.266   5.010  3.9647 -0.2914 -0.1247
   47MOL0     H 6291   4.012   6.422   5.056 -0.2940 -0.9525 -1.2629
   47MOL0     H 6292   4.200   6.405   5.251 -0.8287  0.7528  0.5998
   47MOL0     H 6293   4.249   6.435   5.085 -0.2014  1.4686  1.4641
   47MOL0     H 6294   4.241   6.160   5.224 -1.2197  0.2758  0.5029
   47MOL0     H 6295   4.239   6.168   5.053 -0.0335  0.1345 -0.1352
   47MOL0     H 6296   4.497   6.141   4.962  1.0166  2.8932 -1.5666
   47MOL0     H 6297   4.850   6.232   5.090 -0.3181 -0.4939  0.4536
   47MOL0     H 6298   4.767   6.076   5.043 -1.4213 -0.4501 -2.1865
   47MOL0     H 6299   4.717   6.203   4.817  0.8648  1.4643 -2.4078
   47MOL0     H 6300   4.774   6.349   4.875  2.3282 -0.0783 -0.6893
   47MOL0     H 6301   4.934   6.098   4.854 -4.3233 -0.3969 -1.4839
   47MOL0     H 6302   4.991   6.264   4.893 -1.2665  1.5082 -0.6065
   47MOL0     H 6303   4.924   6.354   4.669 -1.0380 -0.3729 -1.6005
   47MOL0     H 6304   4.850   6.201   4.630  0.1622  1.5507 -0.6600
   47MOL0     H 6305   5.118   6.425   4.755  1.3100  2.0655  0.5821
   47MOL0     H 6306   5.348   6.492   4.804 -2.2697  0.1292 -0.5909
   47MOL0     H 6307   5.892   6.389   4.754  0.1192  0.7584  0.4790
   47MOL0     H 6308   6.092   6.472   4.682  0.5829 -1.1414  0.2610
   47MOL0     H 6309   6.181   6.737   4.586 -2.1292 -0.6412 -0.5233
   47MOL0     H 6310   6.253   6.581   4.597 -0.6592  0.3449  0.5433
   47MOL0     H 6311   6.397   6.701   4.395  1.1569  1.6619 -0.8167
   47MOL0     H 6312   6.297   6.841   4.424  0.5009 -0.2580 -0.5755
   47MOL0     H 6313   6.370   6.834   4.675 -0.1275  2.2216 -0.6876
   47MOL0     H 6314   6.486   6.700   4.629  0.5990  0.5645 -1.2806
   47MOL0     H 6315   6.474   6.981   4.511  1.0068  1.8151  1.4526
   47MOL0     H 6316   6.606   6.866   4.487  0.9326 -0.1604  1.1891
   47MOL0     H 6317   6.672   6.902   4.727  0.3249  1.4045  0.5910
   47MOL0     H 6318   6.531   7.000   4.758  0.1685  1.1684 -0.7358
   47MOL0     H 6319   6.731   7.089   4.543 -2.2969  1.5595 -1.9090
   47MOL0     H 6320   6.583   7.167   4.610 -1.2115 -0.4350  1.0244
   47MOL0     H 6321   6.697   7.155   4.848 -1.6622  1.6164 -0.4523
   47MOL0     H 6322   6.746   7.270   4.722 -0.5304  0.7111  1.5109
   47MOL0     H 6323   6.865   6.994   4.810  0.1469  0.6281  0.7607
   47MOL0     H 6324   6.936   7.093   4.678  0.1465  1.6193 -0.1111
   47MOL0     H 6325   5.911   6.597   4.313 -0.6253  0.7291  0.1898
   47MOL0     H 6326   5.699   6.469   4.388 -1.0177 -2.4112  1.4649
   47MOL0     H 6327   5.490   6.187   4.529 -0.0699  0.5618  0.2076
   47MOL0     H 6328   5.262   6.101   4.504  2.5078 -0.3812 -0.7614
   47MOL0     H 6329   3.331   6.044   5.522 -0.7686 -0.7003  0.3562
   47MOL0     H 6330   3.184   6.034   5.707  0.9094 -0.1233 -0.8138
   47MOL0     H 6331   3.280   5.925   6.167  0.1008 -0.5814  1.7729
   47MOL0     H 6332   3.151   5.863   6.356 -2.3103 -1.6769 -2.3377
   47MOL0     H 6333   3.041   5.942   6.668  0.9112  0.0656 -0.3914
   47MOL0     H 6334   3.058   5.830   6.529  0.7795  1.3288 -0.1134
   47MOL0     H 6335   2.855   5.757   6.520 -0.8757  1.0425 -2.3150
   47MOL0     H 6336   2.789   5.915   6.588  1.0847  1.2956  2.9070
   47MOL0     H 6337   2.831   5.846   6.811  0.4033 -2.0774  1.9986
   47MOL0     H 6338   2.966   5.745   6.766  0.9472  1.6079 -0.7043
   47MOL0     H 6339   2.806   5.574   6.679 -0.2617 -1.4022  1.8324
   47MOL0     H 6340   2.761   5.605   6.844  3.3224 -0.2691  0.0730
   47MOL0     H 6341   2.417   5.705   6.624  0.4774 -1.8609 -0.0756
   47MOL0     H 6342   2.926   6.217   6.344  0.2829 -0.2308  0.2408
   47MOL0     H 6343   2.989   6.384   6.203 -1.6837 -3.2610  0.8593
   47MOL0     H 6344   3.138   6.367   6.104  0.1430  1.4658  0.0845
   47MOL0     H 6345   2.968   6.319   6.039 -0.8946  0.8024  0.2068
   48MOL0     O 6346   7.324   1.557   8.607 -0.2156 -0.0337  0.0752
   48MOL0     C 6347   7.283   1.662   8.661  0.5671 -0.1872 -0.1024
   48MOL0     O 6348   7.350   1.778   8.674 -0.1266  0.1017  0.6167
   48MOL0     C 6349   7.490   1.767   8.698  0.6938 -0.4779 -0.3885
   48MOL0     C 6350   7.552   1.660   8.761  0.9907 -0.7439  0.5064
   48MOL0     C 6351   7.688   1.651   8.784  0.0672 -0.0656  0.1425
   48MOL0     C 6352   7.763   1.757   8.750  0.2306 -0.6733  0.3453
   48MOL0     O 6353   7.899   1.740   8.770 -0.3820  0.3269 -0.1439
   48MOL0     C 6354   7.990   1.809   8.678  0.1797  0.8267 -0.3020
   48MOL0     C 6355   8.059   1.928   8.758 -0.6365 -0.0285  0.4134
   48MOL0     C 6356   8.184   1.981   8.691 -0.9528  0.0798  0.1504
   48MOL0     C 6357   8.240   2.089   8.780 -0.3449 -0.8695 -0.4814
   48MOL0     C 6358   8.388   2.128   8.742 -0.4437 -0.9267 -0.1887
   48MOL0     C 6359   8.402   2.173   8.605  0.3410  0.1700 -0.0824
   48MOL0     C 6360   8.545   2.189   8.561 -0.3117 -0.3862 -0.0202
   48MOL0     C 6361   8.568   2.306   8.463 -0.5786 -0.4206  0.5233
   48MOL0     N 6362   8.710   2.302   8.421 -0.0509  0.2952  0.5050
   48MOL0     C 6363   8.812   2.330   8.505 -0.4157  0.6755 -0.5110
   48MOL0     C 6364   8.924   2.330   8.423 -0.2953 -0.1789  0.3838
   48MOL0     C 6365   9.063   2.367   8.464  0.1914 -0.3068  0.5901
   48MOL0     C 6366   9.092   2.308   8.606  0.5031 -0.3281 -0.0699
   48MOL0     C 6367   9.244   2.290   8.633 -0.3158 -0.5175  0.7014
   48MOL0     C 6368   9.271   2.317   8.783  0.2583 -0.6293 -0.2814
   48MOL0     O 6369   9.397   2.261   8.817  0.4510 -0.5529 -0.5317
   48MOL0     C 6370   9.518   2.304   8.767  0.3405 -0.0284 -0.2201
   48MOL0     C 6371   9.540   2.433   8.704  0.6677 -0.4091 -0.4359
   48MOL0     C 6372   9.668   2.472   8.671  0.3912 -0.6494  0.8425
   48MOL0     C 6373   9.783   2.394   8.704 -0.6441  0.3095  0.6645
   48MOL0     C 6374   9.912   2.445   8.662 -0.0487 -0.4442  0.4083
   48MOL0     O 6375  10.020   2.364   8.685  0.2020 -0.0211 -0.6109
   48MOL0     C 6376  10.147   2.419   8.688  0.1247  0.7396 -0.2014
   48MOL0     C 6377  10.248   2.343   8.641 -0.5533 -0.2095  0.5003
   48MOL0     C 6378  10.375   2.408   8.644  0.6108  0.9258 -0.1044
   48MOL0     C 6379  10.394   2.533   8.698  0.3405  0.0071  0.0792
   48MOL0     O 6380  10.511   2.594   8.725  0.3375  0.2545  0.0811
   48MOL0     C 6381  10.637   2.558   8.657 -0.0845 -0.1187  0.3679
   48MOL0     C 6382  10.615   2.564   8.507  0.5244  0.4883  0.5408
   48MOL0     C 6383  10.578   2.701   8.457 -0.0420 -0.4055 -0.1971
   48MOL0     C 6384  10.551   2.695   8.304  0.0113 -0.4465  0.8967
   48MOL0     C 6385  10.489   2.821   8.235 -0.5886 -0.6859  0.6301
   48MOL0     C 6386  10.513   2.818   8.082 -0.0806  0.4773 -0.0409
   48MOL0     C 6387  10.442   2.947   8.024  0.5951  0.6003 -0.0502
   48MOL0     C 6388  10.418   2.949   7.874 -0.0431 -0.0045 -0.6597
   48MOL0    Cl 6389  10.386   3.114   7.797 -0.4002  0.3294  0.2425
   48MOL0     C 6390  10.287   2.603   8.751  0.5357  0.0562 -0.5564
   48MOL0     C 6391  10.172   2.548   8.745 -0.1652 -0.1204  0.1918
   48MOL0     O 6392   9.918   2.549   8.591  0.1990 -0.4523 -0.6339
   48MOL0     C 6393   9.761   2.278   8.772  0.0384  0.4566  0.2535
   48MOL0     C 6394   9.629   2.228   8.797  0.1694 -0.0210  0.7093
   48MOL0     N 6395   8.886   2.306   8.297 -0.1491 -0.9603  0.2292
   48MOL0     N 6396   8.759   2.295   8.296  0.1900 -0.8387  0.6137
   48MOL0     C 6397   7.702   1.876   8.684 -0.8449  0.6804  0.6603
   48MOL0     C 6398   7.564   1.873   8.657  0.2504 -0.6233 -0.0897
   48MOL0     C 6399   7.141   1.663   8.698  0.5174 -0.0475  0.4911
   48MOL0     C 6400   7.087   1.789   8.714  0.7829 -0.3916  0.1908
   48MOL0     C 6401   6.955   1.799   8.751  0.0008 -0.4573 -0.5178
   48MOL0     C 6402   6.864   1.682   8.758 -0.7742 -0.5115  0.5251
   48MOL0     O 6403   6.733   1.707   8.791  0.0327  0.4092  0.2629
   48MOL0     C 6404   6.652   1.586   8.805 -0.2418 -0.0403 -0.4024
   48MOL0     C 6405   6.517   1.618   8.879 -0.4993  0.1574 -0.2493
   48MOL0     C 6406   6.520   1.618   9.037  0.4466 -0.9249  0.1774
   48MOL0     C 6407   6.376   1.621   9.078  0.5793  0.0879  0.3008
   48MOL0     C 6408   6.304   1.490   9.054  0.4254 -0.7647  0.1808
   48MOL0     C 6409   6.241   1.384   9.038 -0.6879  0.3703 -0.3468
   48MOL0     C 6410   6.931   1.554   8.741  0.8163 -0.6477  0.9915
   48MOL0     C 6411   7.066   1.545   8.707  0.4119 -0.0330 -0.3025
   48MOL0     C 6412   7.128   1.406   8.722  0.4516  0.0879  0.1613
   48MOL0     H 6413   7.495   1.580   8.807  1.4008 -0.9916  0.5895
   48MOL0     H 6414   7.730   1.568   8.840 -1.6851 -2.2500 -1.5795
   48MOL0     H 6415   8.067   1.739   8.647 -0.0364  0.8271 -0.8559
   48MOL0     H 6416   7.940   1.837   8.585 -2.7687  0.8172  1.1698
   48MOL0     H 6417   8.081   1.891   8.859  0.1433  1.2628  0.7449
   48MOL0     H 6418   7.988   2.010   8.770 -0.2050  0.5731 -0.9650
   48MOL0     H 6419   8.161   2.020   8.592  2.6849 -0.7278 -1.1436
   48MOL0     H 6420   8.255   1.902   8.665 -0.9467  0.2175 -0.2549
   48MOL0     H 6421   8.170   2.173   8.774 -0.3986 -1.0404 -3.6849
   48MOL0     H 6422   8.242   2.048   8.882  1.2417 -0.7027 -0.4179
   48MOL0     H 6423   8.418   2.210   8.807  2.4083 -0.3797 -2.0175
   48MOL0     H 6424   8.457   2.043   8.750  1.7258  0.8851  1.6351
   48MOL0     H 6425   8.347   2.103   8.541  0.8785 -2.1274  1.8536
   48MOL0     H 6426   8.346   2.267   8.593  0.4772  0.2874  0.1939
   48MOL0     H 6427   8.585   2.099   8.512 -1.3296 -0.3504 -0.9665
   48MOL0     H 6428   8.613   2.198   8.646  1.2586  0.6663 -1.3310
   48MOL0     H 6429   8.499   2.299   8.378  1.3103 -4.5978 -0.9522
   48MOL0     H 6430   8.550   2.397   8.522 -1.3067  0.8247 -1.5102
   48MOL0     H 6431   8.811   2.342   8.613  1.4264 -0.6940 -0.2972
   48MOL0     H 6432   9.132   2.322   8.392 -0.4073  0.3084 -0.3934
   48MOL0     H 6433   9.070   2.475   8.450  1.2198 -0.5783 -1.3463
   48MOL0     H 6434   9.056   2.377   8.683  0.2687 -1.2219  0.6488
   48MOL0     H 6435   9.041   2.211   8.617  0.1021  0.0216  1.5471
   48MOL0     H 6436   9.302   2.369   8.585 -0.6048  0.1133  1.3756
   48MOL0     H 6437   9.277   2.189   8.606 -0.5231 -0.5127  0.4242
   48MOL0     H 6438   9.198   2.278   8.855  2.0638 -3.0287  0.3866
   48MOL0     H 6439   9.268   2.425   8.798 -1.2523 -1.0126  3.3040
   48MOL0     H 6440   9.461   2.504   8.679  0.8475 -0.1898 -0.3920
   48MOL0     H 6441   9.673   2.565   8.615  2.6079 -1.9659 -1.3675
   48MOL0     H 6442  10.235   2.239   8.613 -1.1131 -0.2769  0.9736
   48MOL0     H 6443  10.459   2.350   8.609  0.1509  0.0375  0.2353
   48MOL0     H 6444  10.720   2.619   8.693 -0.3769  1.2854 -1.2321
   48MOL0     H 6445  10.656   2.454   8.688 -0.5632 -0.0045  1.0737
   48MOL0     H 6446  10.710   2.538   8.459 -0.3077 -0.4526 -0.6530
   48MOL0     H 6447  10.546   2.483   8.482  0.3536  0.1274  2.0507
   48MOL0     H 6448  10.481   2.727   8.499 -0.3287  0.1661 -1.1789
   48MOL0     H 6449  10.655   2.772   8.491  1.2002 -1.2576 -1.1479
   48MOL0     H 6450  10.489   2.608   8.283 -0.5084  0.5044 -1.8862
   48MOL0     H 6451  10.645   2.669   8.254 -0.4115  0.1427 -0.2461
   48MOL0     H 6452  10.547   2.907   8.269  0.4145 -0.5505 -1.2545
   48MOL0     H 6453  10.381   2.824   8.250 -0.6424  0.7944  0.1646
   48MOL0     H 6454  10.618   2.814   8.052 -0.7023  1.4206 -2.5828
   48MOL0     H 6455  10.469   2.726   8.043  1.5886 -0.2577 -0.2431
   48MOL0     H 6456  10.502   3.036   8.040 -0.4012  1.5590 -1.4009
   48MOL0     H 6457  10.346   2.962   8.075  0.7991 -1.1022  0.9399
   48MOL0     H 6458  10.505   2.907   7.823  2.4515  4.3809 -0.4823
   48MOL0     H 6459  10.330   2.888   7.852  0.9387 -1.6549 -0.2168
   48MOL0     H 6460  10.302   2.697   8.805  0.4168  0.1424 -0.6732
   48MOL0     H 6461  10.084   2.596   8.787 -0.6551 -0.9078  0.0824
   48MOL0     H 6462   9.852   2.225   8.798 -0.2625  0.1304  0.6579
   48MOL0     H 6463   9.620   2.135   8.853  1.0180 -0.5189  0.0420
   48MOL0     H 6464   7.772   1.954   8.656  1.6048 -1.0635  1.4689
   48MOL0     H 6465   7.507   1.949   8.606  1.5754 -1.0620 -2.3550
   48MOL0     H 6466   7.128   1.888   8.696 -2.6975  1.6511  2.4977
   48MOL0     H 6467   6.922   1.903   8.751 -1.3678 -0.8845 -0.4861
   48MOL0     H 6468   6.706   1.524   8.878 -1.7121 -1.0859 -0.1651
   48MOL0     H 6469   6.631   1.536   8.711  2.6638 -5.4449  1.3564
   48MOL0     H 6470   6.444   1.545   8.844  2.2223 -2.1807 -1.4884
   48MOL0     H 6471   6.469   1.711   8.847 -1.1335  2.4139  5.9086
   48MOL0     H 6472   6.576   1.708   9.067  0.0786 -0.9484  0.9502
   48MOL0     H 6473   6.566   1.528   9.079 -2.9533 -3.0383 -0.2700
   48MOL0     H 6474   6.372   1.625   9.187  2.8648 -0.1517  0.4302
   48MOL0     H 6475   6.318   1.700   9.029 -1.6632 -1.3895  0.4190
   48MOL0     H 6476   6.181   1.295   9.026  0.2000 -0.2840 -0.0597
   48MOL0     H 6477   6.866   1.468   8.750 -0.5733  0.2377 -0.1567
   48MOL0     H 6478   7.123   1.367   8.620 -2.6242 -3.5814  1.4821
   48MOL0     H 6479   7.233   1.398   8.751  1.0596  0.5470 -1.7399
   48MOL0     H 6480   7.072   1.354   8.799  0.5281  1.3439  1.1102
   49MOL0     O 6481   9.409  10.231   6.719 -0.5863 -0.4113 -0.7615
   49MOL0     C 6482   9.354  10.152   6.642 -1.2546 -0.2928  0.8346
   49MOL0     O 6483   9.413  10.114   6.518 -0.6504  0.2706  0.0795
   49MOL0     C 6484   9.546  10.146   6.500 -0.2558  0.4663  0.3158
   49MOL0     C 6485   9.642  10.050   6.525  0.2341  0.2473 -0.6856
   49MOL0     C 6486   9.775  10.081   6.523 -0.9577  0.8762  0.4384
   49MOL0     C 6487   9.820  10.201   6.476 -0.6684 -0.4172  0.6469
   49MOL0     O 6488   9.953  10.225   6.470 -0.5033 -0.6901  0.0351
   49MOL0     C 6489  10.006  10.363   6.470  0.0438  0.2004  0.2427
   49MOL0     C 6490  10.161  10.355   6.487  0.4455  0.6402 -0.3934
   49MOL0     C 6491  10.199  10.298   6.627  0.0663  0.0859  0.8151
   49MOL0     C 6492  10.349  10.264   6.634 -0.5298 -0.5051  0.3881
   49MOL0     C 6493  10.387  10.199   6.764 -0.9722 -1.1531 -0.1961
   49MOL0     C 6494  10.369  10.289   6.896 -0.7239 -0.2897  0.0023
   49MOL0     C 6495  10.481  10.400   6.897 -0.1574  0.5186  0.0207
   49MOL0     C 6496  10.510  10.470   7.027  1.0236  0.2291 -0.4171
   49MOL0     N 6497  10.576  10.601   7.004  0.6344  0.7803  0.2822
   49MOL0     C 6498  10.707  10.598   6.971 -0.2126 -0.4596 -0.1251
   49MOL0     C 6499  10.731  10.721   6.928  0.0587 -0.4993 -0.0444
   49MOL0     C 6500  10.868  10.752   6.879  0.1023  0.3236 -0.6514
   49MOL0     C 6501  10.924  10.896   6.915  0.3605 -0.3848 -0.4654
   49MOL0     C 6502  10.929  10.919   7.066 -0.0291  0.5628  0.2871
   49MOL0     C 6503  11.040  10.829   7.132  0.4629  0.1522  0.3129
   49MOL0     O 6504  11.161  10.867   7.066  0.2842 -0.1452  0.4916
   49MOL0     C 6505  11.281  10.818   7.108  0.3759 -0.4490 -0.5080
   49MOL0     C 6506  11.285  10.725   7.218  0.4269 -0.6451 -0.4273
   49MOL0     C 6507  11.407  10.675   7.264 -0.1270 -0.2206 -0.1158
   49MOL0     C 6508  11.534  10.710   7.210  0.3602  0.9311 -0.0233
   49MOL0     C 6509  11.654  10.661   7.275 -0.3664 -0.4611 -0.6017
   49MOL0     O 6510  11.773  10.709   7.226 -0.0104  0.3094  0.1497
   49MOL0     C 6511  11.894  10.676   7.280  0.6810  0.2952  0.4185
   49MOL0     C 6512  11.921  10.558   7.357 -0.1339 -0.1187  0.1544
   49MOL0     C 6513  12.047  10.543   7.416  0.1547 -0.6100 -0.4721
   49MOL0     C 6514  12.150  10.638   7.390 -0.4475  0.4289  0.3554
   49MOL0     O 6515  12.268  10.606   7.449  0.2890 -1.1054  0.1251
   49MOL0     C 6516  12.379  10.649   7.380  0.8752 -0.1229  0.5241
   49MOL0     C 6517  12.495  10.617   7.458  0.0996  0.2205 -0.5542
   49MOL0     C 6518  12.621  10.628   7.371 -0.2545 -0.2168  1.3424
   49MOL0     C 6519  12.743  10.594   7.450  0.0277  0.3118  0.5166
   49MOL0     C 6520  12.752  10.467   7.530 -0.0198  1.0678  0.0195
   49MOL0     C 6521  12.895  10.423   7.554  0.2470  0.0609 -0.6144
   49MOL0     C 6522  12.993  10.533   7.605  0.2535 -0.3147  0.4411
   49MOL0     C 6523  13.128  10.484   7.668  0.3792 -0.6822  0.2239
   49MOL0    Cl 6524  13.223  10.418   7.537 -0.0351  0.1351 -0.1246
   49MOL0     C 6525  12.125  10.747   7.307 -0.0019  0.7827  0.8608
   49MOL0     C 6526  12.000  10.764   7.250  0.3756 -0.1399  0.2692
   49MOL0     O 6527  11.639  10.592   7.372 -0.2028 -0.2675  0.0414
   49MOL0     C 6528  11.533  10.804   7.101 -0.2332 -0.0403 -0.0054
   49MOL0     C 6529  11.404  10.854   7.059 -1.0088  0.1004 -0.3339
   49MOL0     N 6530  10.609  10.786   6.915  0.4000  0.7569 -0.8971
   49MOL0     N 6531  10.516  10.709   6.951 -0.0588 -0.3932 -0.2774
   49MOL0     C 6532   9.724  10.300   6.444 -0.1854  0.4927  0.1605
   49MOL0     C 6533   9.596  10.272   6.469  0.3343  0.1562  0.1872
   49MOL0     C 6534   9.218  10.094   6.679 -0.4108  0.5271 -0.3003
   49MOL0     C 6535   9.135  10.174   6.767 -0.0395  0.5479 -0.2529
   49MOL0     C 6536   9.004  10.130   6.804 -0.4725 -0.8659  0.2425
   49MOL0     C 6537   8.955  10.014   6.738 -0.4843  0.7569  0.7769
   49MOL0     O 6538   8.822   9.970   6.760 -0.6612 -1.2253  0.0295
   49MOL0     C 6539   8.726  10.046   6.846  0.2046 -0.1666  0.5273
   49MOL0     C 6540   8.587   9.979   6.846 -0.5699  0.2992  0.1667
   49MOL0     C 6541   8.553   9.922   6.708  0.2429 -0.1227 -0.6734
   49MOL0     C 6542   8.540  10.002   6.585  0.1398 -0.0579 -0.0795
   49MOL0     C 6543   8.421  10.093   6.611  0.7285 -0.6697  0.7128
   49MOL0     C 6544   8.324  10.167   6.593 -0.3947 -0.5390 -0.4545
   49MOL0     C 6545   9.034   9.937   6.658 -0.5500 -0.5654  0.3603
   49MOL0     C 6546   9.172   9.967   6.636  0.6889 -0.0670 -0.6785
   49MOL0     C 6547   9.243   9.862   6.558 -0.1817 -0.0422 -0.5495
   49MOL0     H 6548   9.613   9.947   6.542 -2.7562  0.9635 -1.0003
   49MOL0     H 6549   9.852  10.008   6.546 -2.6067 -0.8569  0.7005
   49MOL0     H 6550   9.988  10.400   6.369 -1.2558 -1.1425 -0.0615
   49MOL0     H 6551   9.959  10.420   6.551  1.2947 -1.1677  2.0116
   49MOL0     H 6552  10.202  10.455   6.477 -0.9643  1.0183 -3.7274
   49MOL0     H 6553  10.201  10.292   6.407 -0.9207 -0.0034 -0.6111
   49MOL0     H 6554  10.146  10.206   6.652  0.9642 -1.0189 -1.1747
   49MOL0     H 6555  10.176  10.381   6.695 -3.3293  1.0453 -1.2572
   49MOL0     H 6556  10.371  10.198   6.550 -1.5417 -0.7386  0.2912
   49MOL0     H 6557  10.417  10.349   6.620 -0.5791 -0.4132  0.6954
   49MOL0     H 6558  10.308  10.125   6.778 -1.9483 -0.3303 -1.1407
   49MOL0     H 6559  10.483  10.147   6.768  0.5524  1.4496 -0.3600
   49MOL0     H 6560  10.266  10.326   6.888 -0.6142 -0.3428 -3.1669
   49MOL0     H 6561  10.374  10.229   6.987 -0.5441  0.1337  0.2768
   49MOL0     H 6562  10.449  10.481   6.831 -0.9537 -0.9118 -1.4181
   49MOL0     H 6563  10.572  10.361   6.850  0.5045 -0.5758  2.0423
   49MOL0     H 6564  10.417  10.490   7.082  1.1823 -1.5465  0.5592
   49MOL0     H 6565  10.573  10.400   7.082 -0.2486  0.1322  0.9753
   49MOL0     H 6566  10.777  10.516   6.983 -1.6210 -1.5621  0.9117
   49MOL0     H 6567  10.937  10.674   6.913  2.3271  2.1353 -0.8406
   49MOL0     H 6568  10.851  10.743   6.771 -1.1532 -1.8354 -0.3449
   49MOL0     H 6569  11.022  10.915   6.871  0.2020  0.0161 -0.6577
   49MOL0     H 6570  10.854  10.964   6.864 -2.9551 -1.2086  2.5334
   49MOL0     H 6571  10.833  10.887   7.107  1.0988 -2.9910  0.4505
   49MOL0     H 6572  10.944  11.026   7.086 -0.5825  0.6480  0.2680
   49MOL0     H 6573  11.031  10.721   7.120  3.1698 -0.0140 -1.0743
   49MOL0     H 6574  11.058  10.859   7.235  3.6033 -0.4691  0.0514
   49MOL0     H 6575  11.201  10.701   7.281 -1.2856 -0.4820 -2.5260
   49MOL0     H 6576  11.401  10.610   7.350 -3.9995 -2.7764 -2.0148
   49MOL0     H 6577  11.844  10.485   7.377 -2.5982  1.9233 -1.2094
   49MOL0     H 6578  12.059  10.455   7.478 -1.9105  0.3209  1.3525
   49MOL0     H 6579  12.385  10.601   7.282 -0.9811  1.3582 -0.3905
   49MOL0     H 6580  12.379  10.757   7.360 -1.5346 -0.1435  0.1448
   49MOL0     H 6581  12.504  10.679   7.547 -0.0489 -0.5679  0.0130
   49MOL0     H 6582  12.484  10.515   7.494 -3.9017  0.8371  0.4784
   49MOL0     H 6583  12.616  10.558   7.287 -4.0372 -0.7422  1.8104
   49MOL0     H 6584  12.628  10.730   7.331 -1.1260  0.1873  2.1565
   49MOL0     H 6585  12.774  10.679   7.511 -3.8238  2.4682 -0.2042
   49MOL0     H 6586  12.823  10.596   7.375 -2.5240 -0.9684 -2.4811
   49MOL0     H 6587  12.709  10.391   7.463  1.7703  0.6414 -0.6963
   49MOL0     H 6588  12.696  10.485   7.622 -1.3756 -0.1525 -0.5225
   49MOL0     H 6589  12.888  10.355   7.638 -4.8732  2.4993  1.3727
   49MOL0     H 6590  12.936  10.373   7.465  0.7001 -0.8316  0.0869
   49MOL0     H 6591  12.953  10.597   7.685  0.3219  2.8238 -1.8305
   49MOL0     H 6592  13.014  10.600   7.521 -0.5290  0.5657  0.9254
   49MOL0     H 6593  13.172  10.571   7.718  0.0153  0.8376 -1.9762
   49MOL0     H 6594  13.095  10.419   7.751 -1.5922  1.4077  1.1925
   49MOL0     H 6595  12.197  10.827   7.291  0.9671 -0.3784 -0.9176
   49MOL0     H 6596  11.992  10.854   7.190 -3.3355 -0.0331  0.7182
   49MOL0     H 6597  11.628  10.840   7.061 -1.9100  3.6368 -1.1330
   49MOL0     H 6598  11.405  10.924   6.976 -1.3925  0.8875  0.3163
   49MOL0     H 6599   9.745  10.397   6.398  2.0691  0.2133  0.4735
   49MOL0     H 6600   9.514  10.343   6.478 -1.8134 -1.9452 -1.5849
   49MOL0     H 6601   9.172  10.273   6.793 -0.8407  0.9838 -0.7392
   49MOL0     H 6602   8.929  10.188   6.857 -0.7305 -2.3280  1.5492
   49MOL0     H 6603   8.709  10.151   6.822 -0.0605  0.3104  2.5992
   49MOL0     H 6604   8.756  10.030   6.950 -2.3520 -1.8870  1.0990
   49MOL0     H 6605   8.508  10.049   6.874 -0.7759  1.7366 -3.4419
   49MOL0     H 6606   8.596   9.903   6.924 -0.1797  2.5873  2.4659
   49MOL0     H 6607   8.457   9.870   6.719  1.1690 -2.2057 -1.9057
   49MOL0     H 6608   8.622   9.843   6.679 -0.6390 -1.3801  0.5360
   49MOL0     H 6609   8.621  10.074   6.570 -1.4591  2.0236  0.7283
   49MOL0     H 6610   8.512   9.945   6.496 -1.5574 -0.4718  0.6747
   49MOL0     H 6611   8.241  10.231   6.573 -0.9116 -0.7751  0.8431
   49MOL0     H 6612   8.984   9.850   6.616 -0.2951  0.4816 -2.2711
   49MOL0     H 6613   9.215   9.881   6.454  1.2602  1.3149 -0.7252
   49MOL0     H 6614   9.352   9.871   6.560 -0.2926  1.5785  0.6385
   49MOL0     H 6615   9.222   9.760   6.592  2.5363  0.0599  1.8037
   50MOL0     O 6616   2.375   4.966  10.490 -0.3358 -0.5841 -0.6879
   50MOL0     C 6617   2.276   4.972  10.566 -0.3701  0.1018  0.2693
   50MOL0     O 6618   2.282   5.017  10.692 -0.0314 -0.4121  0.0205
   50MOL0     C 6619   2.393   5.085  10.741  1.3899 -0.0890  0.4599
   50MOL0     C 6620   2.368   5.200  10.823  0.3208 -0.4036 -0.3247
   50MOL0     C 6621   2.474   5.282  10.869 -0.9760 -0.8090 -0.4748
   50MOL0     C 6622   2.599   5.235  10.857 -0.5591  0.0639  0.0646
   50MOL0     O 6623   2.688   5.312  10.926  0.4025 -0.4202 -0.0463
   50MOL0     C 6624   2.821   5.253  10.938  0.1483  0.6733  0.0218
   50MOL0     C 6625   2.906   5.285  10.817  0.3767 -0.0442  0.9884
   50MOL0     C 6626   3.052   5.279  10.852 -0.2588 -0.2152  0.5934
   50MOL0     C 6627   3.149   5.294  10.735  0.9145  0.1569  0.2138
   50MOL0     C 6628   3.294   5.264  10.781  0.6045 -0.7909 -0.0781
   50MOL0     C 6629   3.395   5.267  10.664 -0.5287 -0.0470  0.8665
   50MOL0     C 6630   3.526   5.340  10.712  0.9111  0.5756 -0.2849
   50MOL0     C 6631   3.625   5.238  10.768  0.0949 -0.2324 -0.6547
   50MOL0     N 6632   3.737   5.305  10.838  0.2899  0.3648 -0.8008
   50MOL0     C 6633   3.833   5.383  10.788 -0.1273 -0.2846 -0.7719
   50MOL0     C 6634   3.909   5.410  10.894 -0.9615  0.2009 -0.1363
   50MOL0     C 6635   4.033   5.496  10.874  0.7585  0.3239  0.5291
   50MOL0     C 6636   4.080   5.573  10.998 -0.0535 -0.1258  0.2356
   50MOL0     C 6637   4.169   5.694  10.958 -0.1088  0.6676 -0.7114
   50MOL0     C 6638   4.228   5.758  11.081 -0.5287  0.7132  0.0227
   50MOL0     O 6639   4.290   5.661  11.171  0.4730  0.3350  0.7639
   50MOL0     C 6640   4.427   5.640  11.165  0.1664 -0.0051  0.3660
   50MOL0     C 6641   4.503   5.687  11.058 -0.1367  0.5449 -0.6484
   50MOL0     C 6642   4.644   5.684  11.069 -0.0629 -0.1460 -0.5781
   50MOL0     C 6643   4.714   5.641  11.184  0.8996  0.8951  0.4054
   50MOL0     C 6644   4.861   5.643  11.199  0.4378  0.2726  0.7993
   50MOL0     O 6645   4.921   5.648  11.316 -0.1003 -0.1664 -0.5712
   50MOL0     C 6646   5.057   5.669  11.332 -0.0218 -0.2890  0.2842
   50MOL0     C 6647   5.121   5.797  11.340 -0.0536  0.0949  0.4350
   50MOL0     C 6648   5.255   5.809  11.384  0.2759 -0.3009  0.2262
   50MOL0     C 6649   5.330   5.688  11.404 -0.1711 -0.6599 -0.0384
   50MOL0     O 6650   5.466   5.684  11.438  0.4564  0.1064  0.2415
   50MOL0     C 6651   5.525   5.807  11.478  0.6393 -0.0919 -0.4399
   50MOL0     C 6652   5.659   5.792  11.543  0.2621  0.4858 -0.2204
   50MOL0     C 6653   5.770   5.736  11.447  0.1387  0.3406 -0.3654
   50MOL0     C 6654   5.908   5.795  11.483 -0.0439 -0.1543  0.9500
   50MOL0     C 6655   6.014   5.708  11.409  0.2707  0.0281  1.1430
   50MOL0     C 6656   6.150   5.776  11.413  0.0662  0.7582 -0.2512
   50MOL0     C 6657   6.256   5.686  11.352 -0.3838 -0.1803 -0.3936
   50MOL0     C 6658   6.290   5.555  11.435  0.0954  0.2348  0.3761
   50MOL0    Cl 6659   6.412   5.472  11.345  0.1846  0.3943 -0.1780
   50MOL0     C 6660   5.270   5.560  11.402  0.1419 -1.1202  1.1178
   50MOL0     C 6661   5.139   5.555  11.357 -0.6279 -0.0360 -0.3016
   50MOL0     O 6662   4.922   5.650  11.094 -0.1848  0.5142 -0.4223
   50MOL0     C 6663   4.624   5.593  11.285 -0.9857  0.0814  0.3261
   50MOL0     C 6664   4.488   5.597  11.278  0.2145  0.3979  0.1983
   50MOL0     N 6665   3.857   5.349  11.009  0.6312 -0.0959 -0.5292
   50MOL0     N 6666   3.740   5.305  10.979  0.6488  0.0612  0.4040
   50MOL0     C 6667   2.624   5.114  10.785  0.2256 -0.6197 -0.9325
   50MOL0     C 6668   2.522   5.040  10.731 -0.0167 -0.4696 -0.2181
   50MOL0     C 6669   2.150   4.910  10.533 -0.0194  0.5127  0.4983
   50MOL0     C 6670   2.053   4.908  10.623  1.0915 -0.2802  0.3905
   50MOL0     C 6671   1.927   4.861  10.587 -0.2877 -0.2925  0.3586
   50MOL0     C 6672   1.892   4.818  10.460  0.3202 -0.5114 -0.0686
   50MOL0     O 6673   1.770   4.762  10.458  0.6935 -0.3511 -0.7405
   50MOL0     C 6674   1.734   4.677  10.351  0.0999  0.2940 -0.5836
   50MOL0     C 6675   1.602   4.720  10.276  0.2216 -0.4295  0.2066
   50MOL0     C 6676   1.531   4.597  10.215 -0.1655 -0.4477  0.5214
   50MOL0     C 6677   1.592   4.540  10.089  0.5673 -0.3703 -0.0820
   50MOL0     C 6678   1.499   4.441  10.030  0.0992 -1.0657 -0.0318
   50MOL0     C 6679   1.423   4.371   9.982 -0.3765  0.9207 -0.2245
   50MOL0     C 6680   2.001   4.816  10.366  0.6052  0.6870 -0.2356
   50MOL0     C 6681   2.127   4.861  10.403 -0.4279  0.2820  0.4694
   50MOL0     C 6682   2.229   4.829  10.290 -0.5615 -0.0327  0.0871
   50MOL0     H 6683   2.263   5.224  10.830  0.9602  2.3175  2.7362
   50MOL0     H 6684   2.456   5.371  10.928  3.8716  1.2480 -1.6505
   50MOL0     H 6685   2.869   5.303  11.022 -1.9197  2.4564  0.2148
   50MOL0     H 6686   2.825   5.145  10.954 -1.6753  0.3852 -1.1721
   50MOL0     H 6687   2.880   5.383  10.774  1.7922 -1.1502 -2.7671
   50MOL0     H 6688   2.875   5.217  10.738 -1.5363  1.6300  0.1861
   50MOL0     H 6689   3.081   5.183  10.896  2.0797 -0.4528 -1.2887
   50MOL0     H 6690   3.078   5.353  10.928  2.0277 -0.1347 -0.1909
   50MOL0     H 6691   3.121   5.224  10.656  1.9726 -0.9056  0.7448
   50MOL0     H 6692   3.141   5.396  10.697  2.6709 -0.2162 -1.2725
   50MOL0     H 6693   3.315   5.351  10.844 -0.6321  0.1822 -0.9583
   50MOL0     H 6694   3.308   5.176  10.844 -1.2437  0.4912  2.2647
   50MOL0     H 6695   3.416   5.164  10.633 -1.7762 -0.9900  2.9629
   50MOL0     H 6696   3.356   5.316  10.574  1.7195  1.8622  0.8157
   50MOL0     H 6697   3.495   5.416  10.784 -0.1984 -1.0225  1.0135
   50MOL0     H 6698   3.577   5.382  10.625 -0.0217 -1.6393 -2.0051
   50MOL0     H 6699   3.578   5.169  10.839  0.4730 -0.4000 -0.5645
   50MOL0     H 6700   3.669   5.179  10.687  0.2687 -0.9594 -0.0335
   50MOL0     H 6701   3.860   5.416  10.688 -2.5568  1.3606 -0.9650
   50MOL0     H 6702   4.111   5.427  10.841 -1.2527 -1.0123 -1.7527
   50MOL0     H 6703   4.002   5.568  10.797  1.1135  0.9836  0.9942
   50MOL0     H 6704   3.994   5.610  11.057 -1.7038 -0.5728 -1.7815
   50MOL0     H 6705   4.134   5.510  11.069 -1.8703  0.3019  2.1263
   50MOL0     H 6706   4.095   5.765  10.918 -2.9735 -1.2462  0.8085
   50MOL0     H 6707   4.242   5.666  10.882 -0.1081  0.6990 -0.7231
   50MOL0     H 6708   4.141   5.796  11.135 -2.4296  0.5744 -2.7230
   50MOL0     H 6709   4.297   5.838  11.052  1.5834 -0.0579  2.5732
   50MOL0     H 6710   4.456   5.711  10.963  0.9215  0.2777 -1.2567
   50MOL0     H 6711   4.692   5.721  10.979  1.8292 -0.0639  0.4031
   50MOL0     H 6712   5.068   5.878  11.290  0.2261 -1.5314 -2.7378
   50MOL0     H 6713   5.286   5.913  11.388 -1.8961  0.4516 -0.8921
   50MOL0     H 6714   5.535   5.875  11.394  0.2672  1.4792  0.7431
   50MOL0     H 6715   5.459   5.853  11.553  1.2566  0.2284 -0.0859
   50MOL0     H 6716   5.696   5.892  11.566  1.0267  0.5233 -1.4805
   50MOL0     H 6717   5.646   5.731  11.632  2.6467 -0.5311 -0.4724
   50MOL0     H 6718   5.773   5.627  11.446  3.1926  0.2808  1.7841
   50MOL0     H 6719   5.739   5.775  11.350  0.9108  2.1977  0.0989
   50MOL0     H 6720   5.926   5.791  11.591  2.7266 -1.4139  0.5377
   50MOL0     H 6721   5.924   5.899  11.453  1.8178 -0.3830  1.0090
   50MOL0     H 6722   5.974   5.696  11.308 -1.3897 -0.6229  1.8451
   50MOL0     H 6723   6.020   5.615  11.465 -0.6149 -0.5565  0.3042
   50MOL0     H 6724   6.139   5.869  11.356 -0.3824  1.2113  0.5631
   50MOL0     H 6725   6.172   5.805  11.516 -1.7339  4.1396 -0.6513
   50MOL0     H 6726   6.348   5.745  11.345  0.1529 -0.3684  3.2299
   50MOL0     H 6727   6.210   5.659  11.256 -1.7931 -2.5654  0.8435
   50MOL0     H 6728   6.325   5.580  11.536  2.7539 -1.9673  0.0885
   50MOL0     H 6729   6.198   5.496  11.442 -0.6333  0.6174 -3.5837
   50MOL0     H 6730   5.323   5.466  11.418  1.3586 -0.8672 -0.9956
   50MOL0     H 6731   5.100   5.454  11.350  1.8472 -1.0942  0.0816
   50MOL0     H 6732   4.654   5.560  11.384 -2.0273  0.6008  0.8271
   50MOL0     H 6733   4.412   5.579  11.354  0.0584  2.5392  0.6301
   50MOL0     H 6734   2.723   5.071  10.780  0.9068  0.8281 -0.2153
   50MOL0     H 6735   2.538   4.940  10.693  0.3941 -1.4532  2.3251
   50MOL0     H 6736   2.063   4.956  10.720 -0.0126  0.4259  0.1688
   50MOL0     H 6737   1.840   4.854  10.651 -1.1637  0.9916 -0.6319
   50MOL0     H 6738   1.731   4.579  10.401 -0.1063 -0.2263 -1.5966
   50MOL0     H 6739   1.816   4.661  10.280 -2.6788 -2.0655 -3.5619
   50MOL0     H 6740   1.621   4.781  10.187 -3.9035 -0.2498 -0.7837
   50MOL0     H 6741   1.525   4.770  10.336 -2.2265 -0.6858 -2.4809
   50MOL0     H 6742   1.427   4.628  10.199  0.3566  1.5760  0.7614
   50MOL0     H 6743   1.532   4.526  10.297  0.0546 -0.0950  0.8288
   50MOL0     H 6744   1.603   4.625  10.021  1.9711 -2.5728 -2.8541
   50MOL0     H 6745   1.695   4.504  10.101 -0.0780 -2.6557 -0.9138
   50MOL0     H 6746   1.361   4.301   9.930 -2.1773  0.8645  1.8388
   50MOL0     H 6747   1.977   4.779  10.267 -0.5559 -2.6376  1.1570
   50MOL0     H 6748   2.283   4.737  10.312  2.6856  1.0786 -2.4007
   50MOL0     H 6749   2.185   4.809  10.191 -0.9514 -0.6012  0.3683
   50MOL0     H 6750   2.305   4.904  10.265 -1.3949  0.9915  0.5175
   51MOL0     O 6751   0.829   6.583   1.197  0.2925 -0.6209  0.0518
   51MOL0     C 6752   0.775   6.645   1.284  0.5424  0.0261  0.4425
   51MOL0     O 6753   0.841   6.724   1.379 -0.5294 -0.1748 -0.6481
   51MOL0     C 6754   0.967   6.772   1.352 -0.3443 -0.6673 -0.3306
   51MOL0     C 6755   1.019   6.820   1.234  1.2298  0.3884  1.0975
   51MOL0     C 6756   1.138   6.885   1.225 -0.1590 -0.3565 -0.1871
   51MOL0     C 6757   1.217   6.892   1.342 -0.6000 -0.1941 -0.4997
   51MOL0     O 6758   1.339   6.956   1.336  0.3095  0.6550  0.0469
   51MOL0     C 6759   1.399   6.997   1.217  0.5797 -0.3367 -0.3719
   51MOL0     C 6760   1.555   7.020   1.237  0.1505  0.3831  0.2481
   51MOL0     C 6761   1.614   6.884   1.283 -0.1163  0.3242  0.1798
   51MOL0     C 6762   1.762   6.902   1.320  0.6977  0.2391 -0.2278
   51MOL0     C 6763   1.823   6.766   1.344  0.4708 -0.3096 -0.6613
   51MOL0     C 6764   1.974   6.763   1.336  0.1353  0.1104 -0.2054
   51MOL0     C 6765   2.041   6.822   1.457 -0.1606  0.1718  0.3170
   51MOL0     C 6766   2.033   6.731   1.585  0.1591 -1.0129 -0.7617
   51MOL0     N 6767   2.129   6.788   1.683 -0.1560 -0.4317 -0.2106
   51MOL0     C 6768   2.263   6.763   1.688 -0.0217 -0.0464 -0.2170
   51MOL0     C 6769   2.298   6.823   1.799 -0.1779 -0.5852  0.5654
   51MOL0     C 6770   2.441   6.828   1.852  0.2481 -0.0516 -0.0276
   51MOL0     C 6771   2.519   6.953   1.800 -0.0067 -0.8929  0.2878
   51MOL0     C 6772   2.497   6.975   1.649  0.3478  0.3053 -0.4633
   51MOL0     C 6773   2.555   7.105   1.611  0.0722  0.6397 -0.4028
   51MOL0     O 6774   2.697   7.092   1.603  0.1037 -0.5941 -0.5999
   51MOL0     C 6775   2.785   7.199   1.584 -0.1040 -0.6559 -0.4454
   51MOL0     C 6776   2.745   7.328   1.532  0.4522  1.0450 -0.7258
   51MOL0     C 6777   2.844   7.430   1.530  0.2077 -0.7198  0.0544
   51MOL0     C 6778   2.980   7.411   1.566 -0.5359 -0.0686 -0.0669
   51MOL0     C 6779   3.081   7.514   1.544  0.9467 -0.8219  0.2613
   51MOL0     O 6780   3.211   7.486   1.542  0.0204 -0.0120  0.0769
   51MOL0     C 6781   3.298   7.588   1.491 -0.5560  0.2510 -0.1793
   51MOL0     C 6782   3.265   7.645   1.373 -0.1377 -0.2563  0.7112
   51MOL0     C 6783   3.348   7.732   1.309  0.0438  0.2693  0.0080
   51MOL0     C 6784   3.483   7.753   1.354 -0.3156 -0.4857  1.1689
   51MOL0     O 6785   3.561   7.844   1.281 -0.3489  0.6736  0.1556
   51MOL0     C 6786   3.701   7.819   1.267  0.1325  0.5370 -0.0791
   51MOL0     C 6787   3.735   7.680   1.204 -1.0899  0.9805 -0.1103
   51MOL0     C 6788   3.885   7.652   1.182 -0.3176  0.6458  0.1852
   51MOL0     C 6789   3.986   7.673   1.297  0.8469 -0.7595  0.0965
   51MOL0     C 6790   4.123   7.732   1.253 -0.3226  0.0257 -0.1665
   51MOL0     C 6791   4.212   7.619   1.192 -0.0749 -0.4566  1.0104
   51MOL0     C 6792   4.350   7.670   1.143 -0.6385  1.0204 -0.0034
   51MOL0     C 6793   4.426   7.736   1.252 -0.0987  0.1578 -0.5521
   51MOL0    Cl 6794   4.447   7.644   1.407 -0.1106  0.1409 -0.2094
   51MOL0     C 6795   3.522   7.672   1.467 -0.2574  0.2776  0.5603
   51MOL0     C 6796   3.426   7.597   1.533 -0.7465  0.0980 -1.0360
   51MOL0     O 6797   3.031   7.622   1.506  0.1767  0.3779 -0.1046
   51MOL0     C 6798   3.014   7.282   1.616  0.2561 -0.5151  0.0724
   51MOL0     C 6799   2.919   7.182   1.619 -0.0827  0.6397 -0.4973
   51MOL0     N 6800   2.198   6.883   1.865 -0.0123  0.6661 -0.2213
   51MOL0     N 6801   2.097   6.863   1.794 -0.2824 -0.3230  0.1808
   51MOL0     C 6802   1.172   6.856   1.464 -0.0294  0.2137  1.6382
   51MOL0     C 6803   1.044   6.791   1.469 -0.9968  0.0543  0.2440
   51MOL0     C 6804   0.636   6.641   1.303  0.0579 -0.4458  0.4857
   51MOL0     C 6805   0.569   6.765   1.314  0.0873  0.3188  0.7322
   51MOL0     C 6806   0.430   6.769   1.335 -0.5666  0.2536 -0.6114
   51MOL0     C 6807   0.359   6.653   1.334 -0.5976 -0.3364  0.3377
   51MOL0     O 6808   0.229   6.671   1.358  0.7157  0.2901 -0.4122
   51MOL0     C 6809   0.131   6.562   1.360 -0.9159  0.3715 -0.3664
   51MOL0     C 6810  -0.009   6.616   1.345  0.7336 -0.8446  1.0383
   51MOL0     C 6811  -0.056   6.686   1.474 -0.0938 -0.0993 -0.2059
   51MOL0     C 6812  -0.208   6.735   1.471  0.0769 -0.5411 -0.7297
   51MOL0     C 6813  -0.262   6.747   1.609  0.0761  0.1871 -0.2190
   51MOL0     C 6814  -0.292   6.762   1.731 -0.1631  1.1722 -0.0909
   51MOL0     C 6815   0.423   6.528   1.323 -0.8039  0.1485  0.5526
   51MOL0     C 6816   0.561   6.520   1.318  0.1334  0.1423  0.2123
   51MOL0     C 6817   0.618   6.380   1.301 -0.2094 -0.0783 -0.0079
   51MOL0     H 6818   0.962   6.803   1.144 -1.6149 -1.8795  3.1536
   51MOL0     H 6819   1.160   6.936   1.132 -3.0246  2.8100  0.6671
   51MOL0     H 6820   1.390   6.914   1.145  0.3463 -1.9228  1.4104
   51MOL0     H 6821   1.346   7.087   1.185  0.7367  0.2100  0.8519
   51MOL0     H 6822   1.573   7.094   1.315 -0.6257  0.1541  0.6570
   51MOL0     H 6823   1.597   7.056   1.143 -1.0773 -0.4159 -0.6448
   51MOL0     H 6824   1.603   6.816   1.198  2.0188  1.3407 -0.9826
   51MOL0     H 6825   1.552   6.851   1.367  0.5013 -0.8980  0.1822
   51MOL0     H 6826   1.809   6.953   1.236 -2.1663 -0.7421 -2.6293
   51MOL0     H 6827   1.775   6.971   1.403 -0.0157 -0.8060  0.7812
   51MOL0     H 6828   1.785   6.718   1.435 -1.6405  0.3554 -1.1186
   51MOL0     H 6829   1.780   6.687   1.282  2.2536 -2.8692  1.1485
   51MOL0     H 6830   2.008   6.659   1.332  0.0167  0.1124 -2.3161
   51MOL0     H 6831   2.004   6.819   1.247  0.9510  0.9293  0.5615
   51MOL0     H 6832   2.002   6.923   1.468 -1.3402  0.1925 -2.8587
   51MOL0     H 6833   2.146   6.850   1.446 -0.2567  2.8898  4.2645
   51MOL0     H 6834   1.930   6.720   1.618  0.1052  2.9806  0.9710
   51MOL0     H 6835   2.068   6.632   1.553  0.5613 -1.3335  0.6069
   51MOL0     H 6836   2.310   6.707   1.608  0.6990  1.8413 -1.1641
   51MOL0     H 6837   2.446   6.820   1.961 -0.9005  1.0425  0.1363
   51MOL0     H 6838   2.492   6.738   1.819 -0.4479 -0.4918  0.0630
   51MOL0     H 6839   2.489   7.044   1.852  1.1719 -1.5512  2.2231
   51MOL0     H 6840   2.626   6.953   1.822  0.0231  0.8073  0.2920
   51MOL0     H 6841   2.390   6.978   1.626  0.0609  0.2558  0.7791
   51MOL0     H 6842   2.538   6.885   1.603 -1.8274 -1.1481  0.2609
   51MOL0     H 6843   2.515   7.190   1.667  0.9773 -0.1766  1.6078
   51MOL0     H 6844   2.534   7.129   1.506  0.7833  0.8155 -0.5088
   51MOL0     H 6845   2.641   7.348   1.507 -0.4044  0.2262  1.9201
   51MOL0     H 6846   2.814   7.527   1.491 -1.0591 -1.1232 -0.0357
   51MOL0     H 6847   3.167   7.627   1.331 -1.1493  1.3134  2.2814
   51MOL0     H 6848   3.309   7.793   1.229 -0.1134  2.7687  1.8768
   51MOL0     H 6849   3.743   7.904   1.213 -1.0604  1.7661  0.8491
   51MOL0     H 6850   3.748   7.821   1.366  0.0171  1.7916 -0.0372
   51MOL0     H 6851   3.690   7.599   1.262  1.3514 -1.3538 -1.2339
   51MOL0     H 6852   3.683   7.662   1.109  1.3739 -1.4917 -1.1401
   51MOL0     H 6853   3.907   7.549   1.153  1.2271  0.7165  1.0295
   51MOL0     H 6854   3.908   7.722   1.101  1.2430  0.2563  0.2696
   51MOL0     H 6855   3.996   7.575   1.343  2.3713  0.0959  1.7245
   51MOL0     H 6856   3.943   7.743   1.370 -0.4111 -2.2803  0.8720
   51MOL0     H 6857   4.164   7.765   1.349 -2.2269 -4.7063  2.6912
   51MOL0     H 6858   4.115   7.816   1.184 -0.1984  1.0014  0.9607
   51MOL0     H 6859   4.235   7.536   1.260  1.5002  1.0804  2.4540
   51MOL0     H 6860   4.165   7.573   1.105  2.3237 -1.3768  0.0985
   51MOL0     H 6861   4.335   7.738   1.059 -1.1316 -1.2422 -1.8513
   51MOL0     H 6862   4.408   7.587   1.102 -1.4671  1.4363 -2.1236
   51MOL0     H 6863   4.525   7.756   1.209  0.2737 -3.5469 -1.7336
   51MOL0     H 6864   4.377   7.831   1.277 -0.1314  0.2626 -0.9982
   51MOL0     H 6865   3.626   7.678   1.497  0.9656  0.0326 -3.0660
   51MOL0     H 6866   3.460   7.546   1.623 -1.1314 -0.1892 -1.0511
   51MOL0     H 6867   3.119   7.253   1.620  0.5288  0.5372  0.9562
   51MOL0     H 6868   2.949   7.084   1.654 -1.1672 -0.0547 -1.4252
   51MOL0     H 6869   1.242   6.869   1.546  0.5067 -2.7298  1.7826
   51MOL0     H 6870   1.011   6.740   1.558 -1.5482 -2.6487 -1.4018
   51MOL0     H 6871   0.619   6.861   1.317 -1.1149  1.0552 -1.0826
   51MOL0     H 6872   0.381   6.863   1.361 -2.2163 -0.4676 -0.9644
   51MOL0     H 6873   0.126   6.508   1.455 -1.0188 -0.6031 -0.9174
   51MOL0     H 6874   0.152   6.497   1.275  1.4857 -3.7491  3.0103
   51MOL0     H 6875  -0.080   6.534   1.328 -0.9359  0.1707  2.6267
   51MOL0     H 6876  -0.020   6.685   1.261  2.4616 -2.3026 -0.4679
   51MOL0     H 6877   0.002   6.775   1.500 -0.5960 -0.5229  2.6983
   51MOL0     H 6878  -0.038   6.615   1.555 -0.0021 -2.2119 -1.9871
   51MOL0     H 6879  -0.216   6.834   1.425  2.2522 -0.4131 -0.9324
   51MOL0     H 6880  -0.270   6.671   1.407  0.4194 -1.1325 -0.4788
   51MOL0     H 6881  -0.327   6.786   1.830  3.6488  2.6935  1.0734
   51MOL0     H 6882   0.360   6.440   1.318  1.9999 -1.9338 -0.2746
   51MOL0     H 6883   0.682   6.366   1.389  1.4935 -1.3343 -1.3754
   51MOL0     H 6884   0.532   6.313   1.299 -1.5108  1.4107  2.0345
   51MOL0     H 6885   0.678   6.366   1.210 -0.2545  0.7892 -0.1840
   52MOL0     O 6886   7.750   7.576   1.896  0.4795 -0.4614  0.4595
   52MOL0     C 6887   7.678   7.523   1.812  0.6354 -0.8530 -0.2025
   52MOL0     O 6888   7.708   7.503   1.677 -0.2922  0.0241 -0.1658
   52MOL0     C 6889   7.821   7.538   1.620 -0.5602 -0.1041  0.1344
   52MOL0     C 6890   7.925   7.450   1.587 -0.5421  0.5318  1.0682
   52MOL0     C 6891   8.047   7.498   1.535 -0.1671  0.7855  0.2389
   52MOL0     C 6892   8.067   7.640   1.508  0.4723 -0.5654  0.4636
   52MOL0     O 6893   8.189   7.676   1.463 -0.1292  0.0466 -0.5021
   52MOL0     C 6894   8.200   7.816   1.415  0.7916  0.0307  0.2329
   52MOL0     C 6895   8.331   7.851   1.332  0.6841 -0.1293  0.1842
   52MOL0     C 6896   8.352   7.738   1.230  0.1252 -0.0006 -1.0369
   52MOL0     C 6897   8.471   7.771   1.136  0.3430 -0.2996  0.4006
   52MOL0     C 6898   8.438   7.858   1.018  0.5703  0.0364  0.0041
   52MOL0     C 6899   8.521   7.836   0.896 -0.2888  0.0385  0.0679
   52MOL0     C 6900   8.663   7.890   0.898 -0.0848 -0.8113  0.0773
   52MOL0     C 6901   8.726   7.896   0.761 -0.2866  0.2192 -0.3388
   52MOL0     N 6902   8.859   7.960   0.775  0.3407  0.0967  0.4715
   52MOL0     C 6903   8.888   8.089   0.792  0.0003 -0.6798 -0.5311
   52MOL0     C 6904   9.016   8.109   0.763  0.3847  0.5673  0.6125
   52MOL0     C 6905   9.084   8.243   0.779  0.1502 -0.2922 -0.7902
   52MOL0     C 6906   9.235   8.248   0.749 -0.1131  1.0521 -0.7697
   52MOL0     C 6907   9.279   8.373   0.682 -0.7812 -0.9215  0.1736
   52MOL0     C 6908   9.432   8.372   0.650  0.7155  0.6845  0.9069
   52MOL0     O 6909   9.485   8.505   0.659 -0.1466 -0.1655  0.9741
   52MOL0     C 6910   9.624   8.522   0.650  0.6163 -0.3094  0.0462
   52MOL0     C 6911   9.708   8.418   0.596  0.5488 -0.0749 -0.1847
   52MOL0     C 6912   9.848   8.445   0.602 -0.4132  0.3362 -0.4495
   52MOL0     C 6913   9.908   8.557   0.658 -0.8923  0.9723  0.2717
   52MOL0     C 6914  10.056   8.582   0.670  0.6836 -0.0723  0.2423
   52MOL0     O 6915  10.132   8.498   0.595  0.8824  0.2558 -0.1337
   52MOL0     C 6916  10.257   8.545   0.565 -0.5239  0.2567 -0.2257
   52MOL0     C 6917  10.295   8.676   0.541  0.1126 -0.6639  0.4940
   52MOL0     C 6918  10.418   8.714   0.505  0.4114  0.7147 -0.3326
   52MOL0     C 6919  10.520   8.613   0.497  0.3115 -0.4905  0.5776
   52MOL0     O 6920  10.650   8.630   0.447  1.1210  0.2259  0.1036
   52MOL0     C 6921  10.715   8.758   0.441 -0.4090 -0.5851  0.8237
   52MOL0     C 6922  10.862   8.729   0.421  0.3931  0.3954  0.1504
   52MOL0     C 6923  10.909   8.633   0.310 -0.0610 -0.7827  0.1440
   52MOL0     C 6924  11.059   8.606   0.312  0.4369 -0.8144  0.5132
   52MOL0     C 6925  11.106   8.496   0.404  0.2196 -0.0674 -0.1593
   52MOL0     C 6926  11.252   8.469   0.417 -0.3788 -0.4115  0.1815
   52MOL0     C 6927  11.321   8.462   0.281  1.0920  0.1514 -0.2824
   52MOL0     C 6928  11.472   8.501   0.304  0.5146  0.1549 -0.3125
   52MOL0    Cl 6929  11.545   8.409   0.436  0.3671 -0.1033  0.5176
   52MOL0     C 6930  10.487   8.479   0.514 -0.2280  0.1835  0.4643
   52MOL0     C 6931  10.358   8.447   0.552 -0.1354  0.4361 -0.2228
   52MOL0     O 6932  10.106   8.657   0.758  0.6496  0.1338  0.7745
   52MOL0     C 6933   9.814   8.644   0.710  0.2894 -0.5740  0.2731
   52MOL0     C 6934   9.675   8.624   0.711  0.5074 -0.3197 -0.5775
   52MOL0     N 6935   9.076   7.997   0.730  0.2069  0.4239 -0.2901
   52MOL0     N 6936   8.981   7.901   0.752 -0.0460 -0.5263  0.5737
   52MOL0     C 6937   7.956   7.725   1.547 -1.0634  0.3662 -0.2865
   52MOL0     C 6938   7.841   7.670   1.596  0.5024  0.6551  0.1603
   52MOL0     C 6939   7.546   7.466   1.856  0.1174 -0.1967  0.0277
   52MOL0     C 6940   7.490   7.358   1.783 -0.0823 -0.3375  0.1746
   52MOL0     C 6941   7.366   7.294   1.824  0.1843  0.2094  0.0952
   52MOL0     C 6942   7.291   7.350   1.934 -0.1316 -0.2067  0.9999
   52MOL0     O 6943   7.172   7.307   1.982  0.0056 -0.1313  0.0839
   52MOL0     C 6944   7.103   7.206   1.905 -0.3388 -0.5430 -0.3110
   52MOL0     C 6945   6.968   7.175   1.953  0.3892 -0.5570  0.8569
   52MOL0     C 6946   6.881   7.300   1.909 -0.1308 -0.2540 -0.8372
   52MOL0     C 6947   6.737   7.281   1.962  0.0719 -0.4229  0.1942
   52MOL0     C 6948   6.668   7.411   1.936  0.1450  0.8376 -0.2072
   52MOL0     C 6949   6.623   7.509   1.889  0.4723  0.3362  0.3412
   52MOL0     C 6950   7.343   7.468   2.000  0.1810 -0.2335 -0.0815
   52MOL0     C 6951   7.462   7.522   1.959 -0.8314 -0.6357  0.1546
   52MOL0     C 6952   7.504   7.646   2.035  0.3320  0.9483 -0.2809
   52MOL0     H 6953   7.917   7.343   1.605 -2.3080  0.7461  1.7409
   52MOL0     H 6954   8.131   7.429   1.525 -1.1682 -0.6017  1.1082
   52MOL0     H 6955   8.113   7.845   1.356 -1.3844  0.5042  3.4707
   52MOL0     H 6956   8.196   7.880   1.503 -3.0948 -1.3501  1.2272
   52MOL0     H 6957   8.419   7.846   1.397 -0.0378  1.8873  1.3999
   52MOL0     H 6958   8.331   7.953   1.292  2.1268  0.6422  1.9895
   52MOL0     H 6959   8.258   7.726   1.174 -0.4324  2.4876 -0.7635
   52MOL0     H 6960   8.380   7.653   1.293  1.3845  0.2304 -1.2700
   52MOL0     H 6961   8.537   7.821   1.207 -0.7262 -0.3967  1.4958
   52MOL0     H 6962   8.512   7.673   1.108 -1.1391 -1.2896  1.5013
   52MOL0     H 6963   8.343   7.830   0.972  0.5542  0.7622 -0.4272
   52MOL0     H 6964   8.431   7.963   1.046  1.0637  0.1430 -0.2645
   52MOL0     H 6965   8.519   7.727   0.884  4.6218 -0.9798  4.6729
   52MOL0     H 6966   8.473   7.879   0.807  1.4293  0.1358 -0.8515
   52MOL0     H 6967   8.719   7.819   0.961 -0.2855 -1.1325 -0.1036
   52MOL0     H 6968   8.658   7.989   0.944 -0.5445  0.5755 -2.7260
   52MOL0     H 6969   8.723   7.797   0.713 -2.9155  1.6831 -3.5987
   52MOL0     H 6970   8.655   7.954   0.702  0.9031  2.5815  0.4407
   52MOL0     H 6971   8.823   8.173   0.818  0.4057 -0.5675  0.1509
   52MOL0     H 6972   9.029   8.320   0.723  1.1148 -0.1755 -1.6103
   52MOL0     H 6973   9.064   8.281   0.879  3.0363 -0.1569 -0.1916
   52MOL0     H 6974   9.294   8.233   0.840 -0.4517  2.6731 -0.2460
   52MOL0     H 6975   9.265   8.165   0.685 -1.8414 -0.3504  0.1552
   52MOL0     H 6976   9.249   8.458   0.745  1.6645 -1.2889  1.9589
   52MOL0     H 6977   9.233   8.379   0.583  0.3345  2.5723 -0.2741
   52MOL0     H 6978   9.443   8.331   0.549  2.7254  0.1229  1.3238
   52MOL0     H 6979   9.475   8.301   0.721 -0.3107 -1.0512 -0.1299
   52MOL0     H 6980   9.674   8.321   0.561 -0.7895 -0.1773  1.2945
   52MOL0     H 6981   9.916   8.365   0.575  1.7433  1.8382  0.2609
   52MOL0     H 6982  10.215   8.747   0.523  1.1905  0.0309 -1.8964
   52MOL0     H 6983  10.445   8.816   0.484 -0.9346  1.1210 -0.2016
   52MOL0     H 6984  10.678   8.819   0.358 -1.3344 -1.5583  0.4984
   52MOL0     H 6985  10.703   8.824   0.527  1.4093  2.3066 -0.9918
   52MOL0     H 6986  10.920   8.821   0.414  2.1091 -0.3007  3.3764
   52MOL0     H 6987  10.894   8.685   0.515 -1.9219  0.4905  1.0516
   52MOL0     H 6988  10.859   8.538   0.331  0.5022 -0.7976  1.5104
   52MOL0     H 6989  10.885   8.673   0.211  1.0935  0.6711  0.4230
   52MOL0     H 6990  11.108   8.694   0.355 -0.1040 -1.6714  3.0679
   52MOL0     H 6991  11.089   8.586   0.209  1.4507  0.4344  0.5466
   52MOL0     H 6992  11.047   8.407   0.381  1.0489 -1.4832  2.6470
   52MOL0     H 6993  11.063   8.523   0.501 -1.3940 -0.3374 -0.7713
   52MOL0     H 6994  11.292   8.534   0.495 -0.7702 -0.4250  0.3980
   52MOL0     H 6995  11.265   8.369   0.459  1.9571  0.2649  1.1864
   52MOL0     H 6996  11.280   8.528   0.205 -1.6516 -0.6729  0.3652
   52MOL0     H 6997  11.308   8.359   0.247 -0.4333  0.1520  0.1969
   52MOL0     H 6998  11.526   8.483   0.211  1.0753 -2.0914  0.3872
   52MOL0     H 6999  11.487   8.603   0.341 -2.1385 -0.6548  3.7045
   52MOL0     H 7000  10.565   8.403   0.514 -1.0623 -0.8120 -2.3359
   52MOL0     H 7001  10.329   8.343   0.567 -2.5850  1.2568  1.2408
   52MOL0     H 7002   9.838   8.739   0.758 -0.6405  0.6591 -1.5506
   52MOL0     H 7003   9.618   8.707   0.751  0.9890  1.7345 -3.8055
   52MOL0     H 7004   7.960   7.833   1.539  0.7261  0.2371 -2.0184
   52MOL0     H 7005   7.758   7.737   1.618  0.0671  0.1316  0.1176
   52MOL0     H 7006   7.544   7.308   1.703 -0.0193  1.6652 -1.0929
   52MOL0     H 7007   7.327   7.201   1.784 -1.5974  0.8122  0.3176
   52MOL0     H 7008   7.157   7.112   1.921  1.5077  0.6415  0.7632
   52MOL0     H 7009   7.098   7.230   1.798  0.0690  0.6751 -0.0673
   52MOL0     H 7010   6.969   7.155   2.061 -1.2882  0.6670  1.1353
   52MOL0     H 7011   6.939   7.081   1.905  3.1616 -1.8316  1.4828
   52MOL0     H 7012   6.876   7.308   1.800  0.1172 -1.1325 -0.9209
   52MOL0     H 7013   6.922   7.398   1.933 -0.7751  0.2403 -1.6929
   52MOL0     H 7014   6.682   7.200   1.913 -1.2312  1.3980 -1.4920
   52MOL0     H 7015   6.757   7.265   2.069  0.9411  0.3682  0.1606
   52MOL0     H 7016   6.574   7.600   1.860  0.2516  0.2118  0.3208
   52MOL0     H 7017   7.277   7.514   2.073 -0.9544 -0.0777 -1.1720
   52MOL0     H 7018   7.417   7.698   2.076  1.2180  3.6314 -1.5770
   52MOL0     H 7019   7.574   7.613   2.112 -1.3347  1.3235  1.4630
   52MOL0     H 7020   7.550   7.718   1.966  0.8873  0.4222 -0.4701
   53MOL0     O 7021   0.560   2.189   0.917  0.2646  0.3657  0.6632
   53MOL0     C 7022   0.457   2.160   0.977  1.1927  0.8868 -0.2760
   53MOL0     O 7023   0.452   2.102   1.101  0.0425 -0.1001  0.0846
   53MOL0     C 7024   0.565   2.076   1.174  0.5695  0.3988  0.2354
   53MOL0     C 7025   0.654   1.979   1.113  0.5127  0.2648 -0.5957
   53MOL0     C 7026   0.768   1.943   1.183 -0.7692 -0.7557 -0.7647
   53MOL0     C 7027   0.794   2.006   1.307 -0.6879 -0.0590 -1.3469
   53MOL0     O 7028   0.915   1.980   1.378 -0.6937  0.4334 -1.1170
   53MOL0     C 7029   1.032   1.932   1.304  0.2599 -0.7832 -0.6319
   53MOL0     C 7030   1.152   1.973   1.395  0.5008 -0.2587  0.5907
   53MOL0     C 7031   1.272   1.911   1.340  0.5784 -0.4940 -0.2733
   53MOL0     C 7032   1.382   1.938   1.444 -1.4767  0.2376  0.9817
   53MOL0     C 7033   1.529   1.908   1.383 -0.5850 -0.5221  0.7797
   53MOL0     C 7034   1.649   1.921   1.478 -0.1080  0.3918  0.5797
   53MOL0     C 7035   1.653   2.056   1.553 -0.4277 -0.0559 -0.3958
   53MOL0     C 7036   1.786   2.071   1.636 -0.0410  0.2192  0.0742
   53MOL0     N 7037   1.895   2.104   1.539  0.5129  0.7014 -0.0485
   53MOL0     C 7038   1.975   2.011   1.470 -0.1839  1.0379  0.0906
   53MOL0     C 7039   2.063   2.080   1.392  0.4377 -0.2815 -0.2702
   53MOL0     C 7040   2.163   2.027   1.296  0.3186  0.0197 -0.1795
   53MOL0     C 7041   2.298   2.017   1.368  1.1735  0.5180  0.7323
   53MOL0     C 7042   2.400   1.957   1.280  0.2535 -0.3000 -0.0371
   53MOL0     C 7043   2.543   1.962   1.333  0.5963  0.2179  0.2767
   53MOL0     O 7044   2.629   1.920   1.224  0.0462  0.0944 -0.6517
   53MOL0     C 7045   2.758   1.911   1.269  0.1699 -0.8069  0.5239
   53MOL0     C 7046   2.805   1.814   1.362  0.4026 -0.0107 -0.5679
   53MOL0     C 7047   2.935   1.813   1.409 -0.0671  1.2152  0.1995
   53MOL0     C 7048   3.029   1.898   1.353 -0.2409  0.1644 -0.8564
   53MOL0     C 7049   3.171   1.898   1.406  0.0397 -0.2379 -0.4077
   53MOL0     O 7050   3.264   1.955   1.318  0.0416 -0.2943 -0.1774
   53MOL0     C 7051   3.383   1.995   1.366 -0.4031  0.1915 -0.3520
   53MOL0     C 7052   3.388   2.103   1.454 -0.0616  0.6482  0.5107
   53MOL0     C 7053   3.513   2.145   1.496  0.3047 -0.3320  0.0516
   53MOL0     C 7054   3.631   2.094   1.445 -0.1735  0.2961  0.8139
   53MOL0     O 7055   3.753   2.123   1.488 -0.4994  1.0466  0.0691
   53MOL0     C 7056   3.791   2.263   1.470 -0.0535  0.5704 -0.4223
   53MOL0     C 7057   3.928   2.285   1.549  0.8625 -0.3878  0.6432
   53MOL0     C 7058   3.926   2.245   1.697 -0.1298  0.1460 -0.8486
   53MOL0     C 7059   4.068   2.267   1.756 -0.2235 -0.1060  0.0577
   53MOL0     C 7060   4.138   2.402   1.740 -0.1100  0.1632  0.3147
   53MOL0     C 7061   4.044   2.509   1.797  0.4518 -0.8860 -0.0878
   53MOL0     C 7062   4.134   2.625   1.835 -0.0955  0.5653  0.5897
   53MOL0     C 7063   4.235   2.676   1.724 -0.2225  0.1313 -0.7545
   53MOL0    Cl 7064   4.270   2.857   1.744  0.2731  0.5048  0.1281
   53MOL0     C 7065   3.622   2.000   1.352 -0.3155  0.2347 -0.1082
   53MOL0     C 7066   3.496   1.948   1.309 -0.5434 -0.8771 -0.7970
   53MOL0     O 7067   3.187   1.855   1.525 -0.1882 -0.3470  0.5754
   53MOL0     C 7068   2.984   1.989   1.261 -0.4838 -0.2997  0.3557
   53MOL0     C 7069   2.854   1.994   1.216  0.3441  1.4024 -0.7886
   53MOL0     N 7070   2.049   2.207   1.430 -0.6036  0.6131 -0.2613
   53MOL0     N 7071   1.951   2.221   1.511  0.5893  0.4075  0.1087
   53MOL0     C 7072   0.720   2.104   1.360 -0.2624  1.1771  0.1475
   53MOL0     C 7073   0.606   2.143   1.290  0.0457  0.6594 -0.2809
   53MOL0     C 7074   0.333   2.183   0.905  0.7723  0.2147  0.2055
   53MOL0     C 7075   0.230   2.274   0.952 -0.4558 -0.2345  0.6065
   53MOL0     C 7076   0.110   2.291   0.885  0.0274  0.2332  0.3095
   53MOL0     C 7077   0.077   2.202   0.780 -0.1002 -0.0964 -0.5639
   53MOL0     O 7078  -0.045   2.192   0.716  0.4900 -0.2735  0.4214
   53MOL0     C 7079  -0.161   2.269   0.762 -0.5046 -0.6060 -0.0468
   53MOL0     C 7080  -0.152   2.420   0.717 -0.9056 -0.1753  0.4071
   53MOL0     C 7081  -0.203   2.521   0.819 -0.4384  0.2375 -0.2586
   53MOL0     C 7082  -0.226   2.645   0.738  1.0033 -0.4910  0.6076
   53MOL0     C 7083  -0.270   2.751   0.833 -0.0702  0.2818  0.1181
   53MOL0     C 7084  -0.294   2.829   0.923 -0.3312  0.4591  0.0384
   53MOL0     C 7085   0.182   2.122   0.732 -0.8886 -0.1616  1.1261
   53MOL0     C 7086   0.304   2.107   0.792 -0.1508  0.6850 -0.0527
   53MOL0     C 7087   0.401   1.995   0.727  0.5600  0.0208 -0.5224
   53MOL0     H 7088   0.624   1.929   1.022  3.0032  1.7829 -2.3895
   53MOL0     H 7089   0.831   1.861   1.150  0.0893 -1.5747  2.5237
   53MOL0     H 7090   1.020   1.825   1.284 -0.4783 -0.4244 -2.2834
   53MOL0     H 7091   1.049   1.985   1.210  4.0948  0.3251  0.5292
   53MOL0     H 7092   1.128   1.949   1.499  1.4095 -2.5036  0.3432
   53MOL0     H 7093   1.164   2.082   1.399 -2.3967  0.1807 -0.0465
   53MOL0     H 7094   1.296   1.960   1.245  1.6916  1.1532  0.7903
   53MOL0     H 7095   1.260   1.807   1.311  1.8952 -0.9385  0.6749
   53MOL0     H 7096   1.376   2.042   1.479 -1.1202  2.2778 -4.1343
   53MOL0     H 7097   1.365   1.865   1.523  2.1159 -3.0897 -0.9636
   53MOL0     H 7098   1.522   1.808   1.338 -3.8853  0.2454 -0.7199
   53MOL0     H 7099   1.554   1.982   1.306 -1.6164 -0.3705  0.5773
   53MOL0     H 7100   1.617   1.840   1.544 -1.2152 -0.0400 -0.4511
   53MOL0     H 7101   1.750   1.903   1.439  0.4514  1.8669  1.2510
   53MOL0     H 7102   1.565   2.073   1.616 -0.3481  1.1558 -0.5915
   53MOL0     H 7103   1.642   2.131   1.475 -1.0715  0.4547  0.1723
   53MOL0     H 7104   1.763   2.155   1.701  0.5854  1.5829 -1.4057
   53MOL0     H 7105   1.806   1.979   1.692 -2.2126 -0.2438  0.1708
   53MOL0     H 7106   1.969   1.903   1.476 -0.8610  1.0662 -0.0130
   53MOL0     H 7107   2.129   1.933   1.250 -0.9340 -0.1992  1.1195
   53MOL0     H 7108   2.168   2.100   1.215 -2.3559 -0.4119 -0.8242
   53MOL0     H 7109   2.328   2.114   1.408 -0.4122  1.6644 -0.7167
   53MOL0     H 7110   2.287   1.950   1.454  0.8792  0.9491  1.0357
   53MOL0     H 7111   2.395   2.007   1.183  0.0949  1.4294  0.8254
   53MOL0     H 7112   2.371   1.853   1.263  0.8143 -0.2589 -1.3311
   53MOL0     H 7113   2.549   1.890   1.415 -0.1955 -0.0904  0.0664
   53MOL0     H 7114   2.568   2.062   1.370 -2.4570  1.1148  0.1906
   53MOL0     H 7115   2.731   1.746   1.403  1.1796 -1.1271 -0.9717
   53MOL0     H 7116   2.972   1.736   1.475 -0.4184 -1.7344 -2.8038
   53MOL0     H 7117   3.298   2.146   1.498 -0.0167  4.3227 -2.4977
   53MOL0     H 7118   3.527   2.213   1.580 -3.2598 -3.0696  3.2409
   53MOL0     H 7119   3.804   2.294   1.366 -1.8442 -1.2150 -1.2521
   53MOL0     H 7120   3.719   2.332   1.514 -0.7089 -0.4159  0.0798
   53MOL0     H 7121   4.003   2.226   1.496  0.7253 -0.0908  0.1074
   53MOL0     H 7122   3.958   2.385   1.517 -0.8568 -0.1923 -0.5132
   53MOL0     H 7123   3.853   2.299   1.759  0.5076 -0.8066  0.7850
   53MOL0     H 7124   3.896   2.140   1.700  0.4375 -0.0184 -0.9453
   53MOL0     H 7125   4.117   2.184   1.704 -0.7110 -0.5668  0.3249
   53MOL0     H 7126   4.068   2.251   1.864 -2.6260 -0.4240  0.0664
   53MOL0     H 7127   4.170   2.414   1.636  2.4968 -0.5538  0.9578
   53MOL0     H 7128   4.232   2.402   1.796  0.2582  2.2285 -0.2069
   53MOL0     H 7129   3.968   2.548   1.728  2.8989  2.2358 -1.2507
   53MOL0     H 7130   3.994   2.477   1.889  0.0495  0.2078  0.0977
   53MOL0     H 7131   4.191   2.593   1.923  1.5377 -0.1418 -0.6722
   53MOL0     H 7132   4.073   2.709   1.868 -0.0014  0.6867  0.4588
   53MOL0     H 7133   4.332   2.634   1.749 -0.4728 -0.7439 -1.2373
   53MOL0     H 7134   4.201   2.653   1.623  1.5485  3.1871 -2.1837
   53MOL0     H 7135   3.712   1.959   1.307 -0.9254 -1.6197  0.2491
   53MOL0     H 7136   3.501   1.875   1.229  1.4152  1.3821 -2.9181
   53MOL0     H 7137   3.058   2.060   1.226 -2.0316  1.2093 -0.0180
   53MOL0     H 7138   2.824   2.059   1.133  0.4112  1.5677 -0.6831
   53MOL0     H 7139   0.763   2.156   1.445  0.4843  0.3651  0.2735
   53MOL0     H 7140   0.555   2.223   1.343  0.1282  2.1055 -2.2639
   53MOL0     H 7141   0.245   2.341   1.036 -1.9759 -1.5118  1.9552
   53MOL0     H 7142   0.034   2.363   0.914 -0.5718  0.0297 -0.6936
   53MOL0     H 7143  -0.173   2.267   0.870  1.1747 -2.0897  0.1585
   53MOL0     H 7144  -0.245   2.219   0.713 -0.6784 -0.6572  0.3021
   53MOL0     H 7145  -0.195   2.433   0.617  1.4229  0.4909 -0.5709
   53MOL0     H 7146  -0.049   2.449   0.695 -1.7887  2.4875 -0.6705
   53MOL0     H 7147  -0.137   2.523   0.906  0.0788  1.3593 -0.6603
   53MOL0     H 7148  -0.297   2.497   0.869 -0.5012 -0.3146 -0.6307
   53MOL0     H 7149  -0.139   2.668   0.676 -1.5406  0.4162 -2.9842
   53MOL0     H 7150  -0.306   2.625   0.666  1.9645  2.7288 -1.5621
   53MOL0     H 7151  -0.324   2.893   1.004  2.8545  0.2659  1.5133
   53MOL0     H 7152   0.151   2.045   0.662 -0.7746  0.6823  0.1100
   53MOL0     H 7153   0.398   1.911   0.797  4.2075 -0.2866 -0.5300
   53MOL0     H 7154   0.375   1.959   0.628  0.5719 -0.8054 -0.2322
   53MOL0     H 7155   0.505   2.028   0.723  1.0562 -1.2762  0.8309
   54MOL0     O 7156   0.720   1.206   9.866 -0.4719 -0.2717  0.4217
   54MOL0     C 7157   0.623   1.272   9.901 -0.1724  1.0246  0.3263
   54MOL0     O 7158   0.601   1.310  10.027 -0.0163  0.4014  0.8710
   54MOL0     C 7159   0.691   1.266  10.124  0.7450  0.5159 -0.4739
   54MOL0     C 7160   0.646   1.173  10.222 -0.6857  0.1933 -0.4427
   54MOL0     C 7161   0.735   1.140  10.322 -0.1244  0.1827 -0.8496
   54MOL0     C 7162   0.862   1.194  10.332 -0.1702 -0.3984  0.6672
   54MOL0     O 7163   0.931   1.164  10.446  0.4934  0.8616 -0.6062
   54MOL0     C 7164   1.078   1.164  10.440 -0.1449  0.2268  0.3160
   54MOL0     C 7165   1.145   1.133  10.566  0.8373  0.1906 -0.0935
   54MOL0     C 7166   1.297   1.100  10.542 -0.2916  0.2900 -0.5650
   54MOL0     C 7167   1.368   1.045  10.660 -0.5581  0.1207 -0.4062
   54MOL0     C 7168   1.387   1.157  10.761 -0.0261  0.5239  0.8120
   54MOL0     C 7169   1.442   1.097  10.888  0.0940  0.3465 -0.5131
   54MOL0     C 7170   1.593   1.110  10.894  0.4403 -0.6923 -0.3350
   54MOL0     C 7171   1.640   1.017  11.004 -0.2626 -0.3306  0.1044
   54MOL0     N 7172   1.779   1.038  11.048  0.9472 -0.2583  0.5096
   54MOL0     C 7173   1.883   0.945  11.067  0.0784  0.0653  0.0427
   54MOL0     C 7174   1.997   1.027  11.092  0.4258 -0.7560 -0.0169
   54MOL0     C 7175   2.133   0.976  11.116  0.0593 -0.0825  0.4874
   54MOL0     C 7176   2.210   1.009  10.988  0.4996  0.0800 -0.0395
   54MOL0     C 7177   2.334   0.918  10.962  0.8027 -0.3163  1.1156
   54MOL0     C 7178   2.434   0.919  11.079  0.0285 -0.3388  0.0334
   54MOL0     O 7179   2.556   0.855  11.046 -0.6053  0.4556 -0.6723
   54MOL0     C 7180   2.654   0.848  11.146  0.2706 -0.5306  0.1922
   54MOL0     C 7181   2.618   0.864  11.284  0.4111  1.2755 -0.0326
   54MOL0     C 7182   2.712   0.818  11.383 -0.4164 -0.4861  0.7309
   54MOL0     C 7183   2.838   0.762  11.356  0.0251 -0.0112 -0.1689
   54MOL0     C 7184   2.915   0.703  11.462 -0.5422  0.5485  0.2338
   54MOL0     O 7185   2.868   0.708  11.593  0.0776  0.2157  0.2205
   54MOL0     C 7186   2.939   0.644  11.694  0.1223  0.0497 -0.3233
   54MOL0     C 7187   2.969   0.715  11.811 -0.1627 -0.3237  0.7740
   54MOL0     C 7188   3.046   0.659  11.907 -0.1586  0.6467 -0.0307
   54MOL0     C 7189   3.094   0.532  11.898  0.0832  0.0235  0.4879
   54MOL0     O 7190   3.160   0.488  12.010  0.3100  0.6596 -0.5927
   54MOL0     C 7191   3.259   0.391  11.979  0.1771  0.0591 -0.2464
   54MOL0     C 7192   3.365   0.381  12.094  0.5838  0.2637  0.0433
   54MOL0     C 7193   3.463   0.260  12.080 -0.2876 -0.4507  0.3704
   54MOL0     C 7194   3.565   0.264  12.193  0.1661 -1.3705  0.2207
   54MOL0     C 7195   3.666   0.160  12.203  0.0968 -0.1594  0.2966
   54MOL0     C 7196   3.752   0.166  12.332 -0.4174  0.0975  0.2009
   54MOL0     C 7197   3.872   0.071  12.323 -0.0359  0.0495 -0.5135
   54MOL0     C 7198   3.836  -0.084  12.360  0.2071 -0.7080  0.4314
   54MOL0    Cl 7199   3.993  -0.177  12.342 -0.0345  0.1479  0.1686
   54MOL0     C 7200   3.064   0.462  11.780  0.0957  0.5629 -0.5598
   54MOL0     C 7201   2.984   0.516  11.679  0.2497  1.6850 -0.4444
   54MOL0     O 7202   3.013   0.639  11.425 -0.2218  0.5922 -0.1688
   54MOL0     C 7203   2.876   0.779  11.223  0.4866 -0.6153  0.3119
   54MOL0     C 7204   2.785   0.807  11.115  0.3836  0.6168 -0.5977
   54MOL0     N 7205   1.951   1.157  11.110 -0.6220  0.0044  0.3221
   54MOL0     N 7206   1.828   1.157  11.088  0.1255 -0.2478  0.2907
   54MOL0     C 7207   0.902   1.279  10.227  0.6602 -0.5728 -0.3797
   54MOL0     C 7208   0.816   1.318  10.126  0.1788  0.4893 -0.0499
   54MOL0     C 7209   0.505   1.281   9.808 -0.7963 -0.2972  0.2519
   54MOL0     C 7210   0.376   1.273   9.866  0.1082 -0.3128  0.5170
   54MOL0     C 7211   0.267   1.263   9.778  0.1736 -0.4198  0.8203
   54MOL0     C 7212   0.291   1.255   9.640  0.0501 -0.3902  0.0761
   54MOL0     O 7213   0.185   1.262   9.553 -0.5147  1.2221  0.3155
   54MOL0     C 7214   0.088   1.362   9.583  0.3939 -0.1128 -0.6601
   54MOL0     C 7215  -0.004   1.392   9.459 -0.2500  0.0580  0.2692
   54MOL0     C 7216  -0.110   1.278   9.427  0.0936 -0.6570 -0.2794
   54MOL0     C 7217  -0.164   1.307   9.287 -0.5211  0.1377 -0.7749
   54MOL0     C 7218  -0.257   1.204   9.245 -0.5562  0.8231 -0.4684
   54MOL0     C 7219  -0.342   1.126   9.202  0.7949  0.3513 -0.0697
   54MOL0     C 7220   0.417   1.265   9.588 -0.4444  0.4581 -0.5699
   54MOL0     C 7221   0.533   1.281   9.670  0.6036  0.4329 -0.2088
   54MOL0     C 7222   0.664   1.299   9.614  0.6734  0.8594  0.2127
   54MOL0     H 7223   0.546   1.136  10.238 -1.6667  3.5558  2.5405
   54MOL0     H 7224   0.700   1.075  10.401  0.4575  0.7193 -0.1339
   54MOL0     H 7225   1.092   1.087  10.364  0.4648 -1.3214  1.8991
   54MOL0     H 7226   1.123   1.256  10.402 -0.2042 -0.4398 -1.4135
   54MOL0     H 7227   1.096   1.046  10.611 -0.8749  1.7195  1.1346
   54MOL0     H 7228   1.135   1.223  10.628 -0.1792  0.3051 -0.4038
   54MOL0     H 7229   1.349   1.190  10.505  0.2316 -0.1757 -0.9827
   54MOL0     H 7230   1.292   1.020  10.468 -1.8707 -0.4017  0.2545
   54MOL0     H 7231   1.315   0.961  10.705  0.3917 -0.5523 -0.4993
   54MOL0     H 7232   1.465   1.008  10.627 -1.0355  0.2321 -2.0054
   54MOL0     H 7233   1.457   1.232  10.724  1.0429 -1.8187 -2.3383
   54MOL0     H 7234   1.290   1.204  10.783 -0.6494 -0.5217  0.4026
   54MOL0     H 7235   1.401   1.141  10.979  0.7672 -0.4083  0.1657
   54MOL0     H 7236   1.417   0.990  10.892 -0.5824  0.2593 -3.7132
   54MOL0     H 7237   1.639   1.208  10.906 -0.5993 -0.1085 -0.9898
   54MOL0     H 7238   1.637   1.076  10.800  0.8392  2.0565 -1.2229
   54MOL0     H 7239   1.572   1.038  11.087 -0.9330 -0.3906 -0.4226
   54MOL0     H 7240   1.635   0.913  10.973  0.6115 -0.6590  0.9934
   54MOL0     H 7241   1.884   0.838  11.046  0.7951  0.2584 -0.9941
   54MOL0     H 7242   2.175   1.016  11.208  2.8027 -1.0692 -0.2157
   54MOL0     H 7243   2.123   0.869  11.135  0.8640  0.0062  1.4809
   54MOL0     H 7244   2.145   0.985  10.904 -0.1128 -1.1366  0.7462
   54MOL0     H 7245   2.238   1.114  10.987 -0.0075  0.2504  1.3852
   54MOL0     H 7246   2.380   0.965  10.874 -2.5330 -0.2259 -0.7874
   54MOL0     H 7247   2.303   0.813  10.954  0.2479 -0.2802  2.5325
   54MOL0     H 7248   2.387   0.878  11.168  1.0041 -1.7552 -0.0808
   54MOL0     H 7249   2.456   1.023  11.104 -1.5899  0.4067 -1.3617
   54MOL0     H 7250   2.529   0.917  11.315  0.4395  1.7598 -0.7447
   54MOL0     H 7251   2.676   0.840  11.483 -0.9486  2.2246  0.0160
   54MOL0     H 7252   2.949   0.822  11.815 -0.9867 -0.4890  1.3103
   54MOL0     H 7253   3.089   0.717  11.989  2.5864 -2.2879  0.8168
   54MOL0     H 7254   3.209   0.297  11.956 -1.6757  1.2263 -1.2515
   54MOL0     H 7255   3.311   0.424  11.889  0.1334  1.2187  0.1387
   54MOL0     H 7256   3.424   0.473  12.100 -1.2057  1.6322 -1.9544
   54MOL0     H 7257   3.303   0.365  12.183 -1.1731 -0.8767 -1.3168
   54MOL0     H 7258   3.411   0.164  12.088 -0.5189 -0.2037  2.1429
   54MOL0     H 7259   3.502   0.268  11.978 -0.9976 -0.8054  0.0633
   54MOL0     H 7260   3.506   0.258  12.285  1.3746  1.8285  1.3484
   54MOL0     H 7261   3.615   0.361  12.186 -2.1454  0.1939  3.1125
   54MOL0     H 7262   3.731   0.163  12.115 -0.6828  1.0245 -0.2681
   54MOL0     H 7263   3.613   0.065  12.193  0.1989 -0.1656 -0.2195
   54MOL0     H 7264   3.775   0.272  12.350 -1.0996  0.3339 -0.2727
   54MOL0     H 7265   3.698   0.127  12.419 -0.6969  0.9979  0.4476
   54MOL0     H 7266   3.951   0.112  12.387  0.7266 -2.1753  0.0637
   54MOL0     H 7267   3.916   0.078  12.223  0.6217 -1.0706 -0.3223
   54MOL0     H 7268   3.802  -0.094  12.464 -4.7509  1.8295 -0.6515
   54MOL0     H 7269   3.755  -0.126  12.300 -0.3561 -0.2847  0.8884
   54MOL0     H 7270   3.101   0.361  11.761  0.9111  1.2734 -3.2798
   54MOL0     H 7271   2.984   0.454  11.590  1.6846  0.4845  0.3284
   54MOL0     H 7272   2.977   0.743  11.207  2.1898  2.6800  2.4798
   54MOL0     H 7273   2.822   0.806  11.013  1.6578  0.7048 -0.1661
   54MOL0     H 7274   0.996   1.327  10.249  0.9350 -1.3153  0.1325
   54MOL0     H 7275   0.853   1.393  10.057 -0.5976  0.7712 -0.1716
   54MOL0     H 7276   0.358   1.278   9.973 -1.9290  0.1347  0.1921
   54MOL0     H 7277   0.168   1.265   9.823  1.1708 -1.7122  3.2986
   54MOL0     H 7278   0.129   1.459   9.612 -0.8548 -0.4304  2.6874
   54MOL0     H 7279   0.024   1.326   9.665 -0.6834 -2.6757 -2.4807
   54MOL0     H 7280   0.060   1.405   9.371 -0.7404 -0.0977 -0.1141
   54MOL0     H 7281  -0.059   1.483   9.483  0.0839 -0.2647  2.4728
   54MOL0     H 7282  -0.189   1.285   9.502  1.3669 -2.5817  1.3208
   54MOL0     H 7283  -0.061   1.180   9.422  0.5634 -0.4006 -0.9255
   54MOL0     H 7284  -0.202   1.409   9.292  0.7750  0.5859  0.6111
   54MOL0     H 7285  -0.094   1.318   9.203 -0.6795  2.1872 -0.6896
   54MOL0     H 7286  -0.421   1.062   9.171  0.6818 -1.5658  3.6678
   54MOL0     H 7287   0.428   1.265   9.480 -1.5177  1.3583 -0.7055
   54MOL0     H 7288   0.655   1.346   9.516  1.0683 -1.7087 -1.1395
   54MOL0     H 7289   0.727   1.359   9.681  0.9006  1.5060 -0.5549
   54MOL0     H 7290   0.724   1.209   9.600  3.7937  3.1658 -3.5390
   55MOL0     O 7291   1.363   1.717   4.305  0.0010 -0.6699 -0.1043
   55MOL0     C 7292   1.368   1.621   4.375 -0.3691 -0.4196  0.3713
   55MOL0     O 7293   1.259   1.546   4.417 -0.4155  0.1415  0.3233
   55MOL0     C 7294   1.135   1.586   4.407 -0.4285 -0.1685  0.1566
   55MOL0     C 7295   1.042   1.487   4.411  0.7035 -0.4104 -0.1817
   55MOL0     C 7296   0.899   1.514   4.408 -0.0852 -0.0594 -0.4904
   55MOL0     C 7297   0.860   1.649   4.396  0.6800 -0.9111 -0.1984
   55MOL0     O 7298   0.732   1.667   4.376 -0.2377  0.5088 -0.3465
   55MOL0     C 7299   0.682   1.784   4.309 -0.1231 -0.4067 -0.2276
   55MOL0     C 7300   0.537   1.762   4.259 -0.3557  0.4081  0.7044
   55MOL0     C 7301   0.490   1.888   4.192  0.1337 -1.0137  0.1302
   55MOL0     C 7302   0.352   1.915   4.238 -0.0502  1.1254 -0.0674
   55MOL0     C 7303   0.336   1.965   4.379  0.0072 -0.0449  0.6176
   55MOL0     C 7304   0.209   2.048   4.388 -0.4034 -0.8162 -0.1433
   55MOL0     C 7305   0.148   2.035   4.522 -0.4115 -0.2464 -0.3615
   55MOL0     C 7306   0.222   2.097   4.639  0.4868  0.3472 -0.8715
   55MOL0     N 7307   0.222   2.242   4.648  0.3544 -0.0789 -0.6214
   55MOL0     C 7308   0.295   2.327   4.573 -0.0180 -0.3314 -0.8071
   55MOL0     C 7309   0.258   2.453   4.612 -0.1504  0.5661  0.1379
   55MOL0     C 7310   0.314   2.589   4.561  0.2422  1.0449 -0.5743
   55MOL0     C 7311   0.469   2.585   4.577  0.4089 -0.4267 -0.6983
   55MOL0     C 7312   0.539   2.717   4.537  0.3171 -0.0210  1.3112
   55MOL0     C 7313   0.678   2.729   4.592  0.0761 -0.0833 -1.0545
   55MOL0     O 7314   0.754   2.633   4.519 -0.4681 -0.9143 -0.3837
   55MOL0     C 7315   0.887   2.621   4.542  0.1121  0.4972 -0.3097
   55MOL0     C 7316   0.959   2.534   4.464  0.1096  0.4533  0.3221
   55MOL0     C 7317   1.093   2.503   4.489 -0.5521  0.0719 -0.3516
   55MOL0     C 7318   1.164   2.572   4.585  0.5787  0.1680 -0.3810
   55MOL0     C 7319   1.301   2.535   4.615  0.3472 -0.1252 -0.6593
   55MOL0     O 7320   1.382   2.502   4.517 -0.1376 -0.1169  0.5373
   55MOL0     C 7321   1.507   2.454   4.561 -0.4227 -0.6255 -0.6026
   55MOL0     C 7322   1.535   2.312   4.592 -0.3349  0.0715 -0.2846
   55MOL0     C 7323   1.663   2.272   4.631  0.1703  0.4886  0.5989
   55MOL0     C 7324   1.770   2.369   4.643  0.5231  0.3031 -0.1487
   55MOL0     O 7325   1.897   2.344   4.677  0.0448  0.1224 -0.5224
   55MOL0     C 7326   1.927   2.208   4.696 -0.3268  0.9493  0.3212
   55MOL0     C 7327   2.074   2.187   4.736 -0.2261  0.0676 -0.4062
   55MOL0     C 7328   2.180   2.261   4.655  0.2554 -0.0110  0.6400
   55MOL0     C 7329   2.316   2.266   4.731 -0.9636  0.6177  0.0437
   55MOL0     C 7330   2.419   2.340   4.647  0.4571  0.5688  0.3793
   55MOL0     C 7331   2.556   2.311   4.704 -0.7038  0.1063 -0.2903
   55MOL0     C 7332   2.675   2.350   4.612  0.3727 -0.4066  0.8473
   55MOL0     C 7333   2.815   2.298   4.657 -0.4544 -0.1490 -0.0112
   55MOL0    Cl 7334   2.946   2.387   4.557 -0.0361  0.2897  0.0539
   55MOL0     C 7335   1.736   2.498   4.630 -0.5627 -0.6215 -0.1769
   55MOL0     C 7336   1.614   2.546   4.588 -0.1586 -0.0085 -0.5109
   55MOL0     O 7337   1.332   2.534   4.737 -0.7866 -0.7061 -0.1496
   55MOL0     C 7338   1.094   2.670   4.656 -1.0820 -1.0104  0.4222
   55MOL0     C 7339   0.962   2.686   4.639  0.3373 -0.7160  0.9584
   55MOL0     N 7340   0.157   2.440   4.704  1.2370 -0.1702 -0.2959
   55MOL0     N 7341   0.132   2.315   4.726  0.3625 -0.0311 -0.5101
   55MOL0     C 7342   0.954   1.753   4.403  0.3129  0.1584  0.0938
   55MOL0     C 7343   1.087   1.716   4.403 -0.0761  0.0582  1.0984
   55MOL0     C 7344   1.502   1.565   4.417  0.4911 -0.4055  0.4379
   55MOL0     C 7345   1.511   1.456   4.504  0.2443 -0.0518  0.2407
   55MOL0     C 7346   1.635   1.403   4.533 -0.0006 -0.2038 -0.4978
   55MOL0     C 7347   1.755   1.457   4.485 -0.0805  0.6694  0.8142
   55MOL0     O 7348   1.872   1.403   4.530  0.2148 -0.1969 -0.1349
   55MOL0     C 7349   2.005   1.457   4.512  0.5447 -0.3293  0.0362
   55MOL0     C 7350   2.100   1.387   4.614  0.3920 -0.1098 -0.5013
   55MOL0     C 7351   2.231   1.367   4.551  0.1411  0.4640 -0.9731
   55MOL0     C 7352   2.315   1.281   4.643 -0.1287 -0.0752  0.0858
   55MOL0     C 7353   2.349   1.332   4.781  0.5363 -0.4239  0.4100
   55MOL0     C 7354   2.364   1.400   4.878 -0.5561 -0.7771  0.3934
   55MOL0     C 7355   1.751   1.561   4.408  0.0567  0.0422  0.1997
   55MOL0     C 7356   1.629   1.617   4.371  0.4579 -0.5685  0.5313
   55MOL0     C 7357   1.653   1.724   4.267 -0.1812  0.5740  0.4295
   55MOL0     H 7358   1.077   1.384   4.420  2.5308  0.2466  0.9092
   55MOL0     H 7359   0.825   1.435   4.421 -0.2628  0.2556  0.5457
   55MOL0     H 7360   0.687   1.865   4.381 -2.4804 -2.1329  2.0786
   55MOL0     H 7361   0.749   1.808   4.226  0.4754  2.4216  0.9723
   55MOL0     H 7362   0.468   1.721   4.334 -2.1324  1.6725 -0.1678
   55MOL0     H 7363   0.541   1.679   4.188  0.3952 -0.1493  1.3818
   55MOL0     H 7364   0.492   1.882   4.083  2.3749  0.6920  0.0077
   55MOL0     H 7365   0.557   1.971   4.216 -0.5997 -0.1727 -0.6610
   55MOL0     H 7366   0.313   1.989   4.168 -2.1188  2.2275  2.1192
   55MOL0     H 7367   0.285   1.831   4.219  0.9623  0.2471  0.1314
   55MOL0     H 7368   0.339   1.878   4.445  1.7026 -1.3609 -1.0871
   55MOL0     H 7369   0.421   2.030   4.402  0.6491  1.4189 -4.4850
   55MOL0     H 7370   0.232   2.154   4.373  2.5891 -0.3478  5.0814
   55MOL0     H 7371   0.138   2.009   4.316  0.7908 -0.3362 -1.6363
   55MOL0     H 7372   0.139   1.927   4.540 -1.3330  0.2309  2.6410
   55MOL0     H 7373   0.043   2.063   4.519 -0.0520  1.2492  0.2944
   55MOL0     H 7374   0.163   2.064   4.725  0.9205 -0.9150 -1.0438
   55MOL0     H 7375   0.324   2.060   4.653  0.1061  0.4951  4.5297
   55MOL0     H 7376   0.369   2.301   4.498  2.2183  0.4030  1.0038
   55MOL0     H 7377   0.286   2.590   4.455 -1.1884 -1.7418 -0.3052
   55MOL0     H 7378   0.269   2.670   4.618 -0.2502  0.8431 -0.6718
   55MOL0     H 7379   0.500   2.554   4.677  1.3377  0.1649 -0.7968
   55MOL0     H 7380   0.516   2.510   4.512 -1.6014 -1.2395 -1.2974
   55MOL0     H 7381   0.475   2.801   4.564 -1.8895 -1.2616  0.2401
   55MOL0     H 7382   0.546   2.713   4.428  0.2323  0.6122  1.2805
   55MOL0     H 7383   0.690   2.718   4.700  2.5183  2.9804 -0.8401
   55MOL0     H 7384   0.717   2.829   4.570  2.2775 -0.3708  1.0509
   55MOL0     H 7385   0.908   2.473   4.391 -0.2825  0.5396  0.5238
   55MOL0     H 7386   1.136   2.426   4.425 -2.1166  0.2152 -1.6470
   55MOL0     H 7387   1.456   2.238   4.588 -0.9050  0.6144  0.4611
   55MOL0     H 7388   1.657   2.166   4.652 -5.0668  0.5286  0.5930
   55MOL0     H 7389   1.872   2.164   4.779  2.4242  0.7422  2.1761
   55MOL0     H 7390   1.905   2.157   4.602  0.3205 -2.1109  1.7118
   55MOL0     H 7391   2.079   2.205   4.844 -1.6702  0.1924 -0.3435
   55MOL0     H 7392   2.086   2.079   4.725  2.4216  0.2806 -0.2120
   55MOL0     H 7393   2.202   2.215   4.559  1.5687  0.3898  0.7317
   55MOL0     H 7394   2.155   2.363   4.623  2.2042 -0.3353 -2.2370
   55MOL0     H 7395   2.348   2.162   4.743 -2.8846  0.1777  1.8339
   55MOL0     H 7396   2.318   2.315   4.828  1.8909 -0.6894  0.7462
   55MOL0     H 7397   2.409   2.449   4.642 -0.6942  0.4340 -2.7839
   55MOL0     H 7398   2.416   2.310   4.542  4.1540 -1.3396  0.6821
   55MOL0     H 7399   2.576   2.365   4.797  3.2061  0.1305 -0.9865
   55MOL0     H 7400   2.575   2.205   4.723  2.8770  0.6811 -0.0541
   55MOL0     H 7401   2.678   2.458   4.599  2.8790 -0.5213 -0.1737
   55MOL0     H 7402   2.656   2.315   4.510 -2.3347  0.1318  1.1027
   55MOL0     H 7403   2.834   2.323   4.762 -0.7686  1.1124 -0.2392
   55MOL0     H 7404   2.828   2.189   4.659 -1.1035 -0.2170  1.7470
   55MOL0     H 7405   1.812   2.572   4.651 -1.2597 -0.0647  0.4636
   55MOL0     H 7406   1.596   2.652   4.568  0.2019  0.1688  0.1071
   55MOL0     H 7407   1.136   2.725   4.739  0.7524 -0.4885 -0.7992
   55MOL0     H 7408   0.915   2.767   4.692  0.4303  1.6274 -2.2504
   55MOL0     H 7409   0.942   1.860   4.388  1.0440  0.0955 -1.0727
   55MOL0     H 7410   1.153   1.802   4.398  0.9879 -0.7237  1.1536
   55MOL0     H 7411   1.417   1.415   4.538 -0.6898  1.9321  0.1843
   55MOL0     H 7412   1.647   1.313   4.591 -0.4169 -0.0890 -0.2332
   55MOL0     H 7413   1.988   1.564   4.530 -1.9802 -0.5337 -0.7827
   55MOL0     H 7414   2.034   1.442   4.408 -1.1667  3.2821 -1.1187
   55MOL0     H 7415   2.056   1.289   4.635 -1.1775 -0.0906 -3.2501
   55MOL0     H 7416   2.108   1.449   4.704 -0.4578  0.9586 -1.1435
   55MOL0     H 7417   2.264   1.470   4.533 -1.3501  2.1840  4.1895
   55MOL0     H 7418   2.215   1.305   4.462 -0.9597 -0.8739  0.1065
   55MOL0     H 7419   2.273   1.180   4.655  2.6776 -1.8489 -3.3552
   55MOL0     H 7420   2.405   1.256   4.587 -1.0500 -0.0155 -1.4750
   55MOL0     H 7421   2.380   1.461   4.965  0.6210 -0.6433  0.0977
   55MOL0     H 7422   1.843   1.602   4.367 -1.6871  3.2384 -0.8629
   55MOL0     H 7423   1.644   1.826   4.305 -1.5078  2.7460 -4.7582
   55MOL0     H 7424   1.754   1.709   4.226 -0.8293 -0.9131 -0.7155
   55MOL0     H 7425   1.579   1.721   4.187  0.9918  0.5144 -0.6889
   56MOL0     O 7426   0.005   0.668   8.929 -0.1196  0.0933 -0.5583
   56MOL0     C 7427  -0.011   0.590   8.836 -0.8668  0.6379 -0.4887
   56MOL0     O 7428   0.062   0.470   8.822 -0.1112 -0.6768  0.0658
   56MOL0     C 7429   0.174   0.426   8.892 -0.1236  0.2255  0.4547
   56MOL0     C 7430   0.224   0.297   8.859  0.5566  0.4007 -0.5828
   56MOL0     C 7431   0.345   0.247   8.923 -0.2754 -0.5714  0.5547
   56MOL0     C 7432   0.414   0.327   9.018  0.1198  0.5102 -0.1528
   56MOL0     O 7433   0.531   0.303   9.084 -0.9508 -0.1218  0.6958
   56MOL0     C 7434   0.619   0.196   9.021  0.5031  0.0848 -0.1753
   56MOL0     C 7435   0.763   0.205   9.064 -0.3940  0.2916  0.3687
   56MOL0     C 7436   0.848   0.291   8.977 -0.1247 -0.0657 -0.3322
   56MOL0     C 7437   0.976   0.346   9.033 -0.2828 -0.4225 -1.0122
   56MOL0     C 7438   1.094   0.250   9.060  0.0185 -0.4359 -0.1312
   56MOL0     C 7439   1.140   0.170   8.938  0.0594  0.2330 -0.3069
   56MOL0     C 7440   1.296   0.150   8.948 -0.7287  0.0152  0.0629
   56MOL0     C 7441   1.353   0.070   9.062 -0.2109 -0.6911  0.1090
   56MOL0     N 7442   1.496   0.086   9.083 -0.8036  0.4076 -0.5221
   56MOL0     C 7443   1.590   0.055   8.990  0.1775  0.3745  0.1466
   56MOL0     C 7444   1.707   0.088   9.051  0.3430  0.4857  0.2606
   56MOL0     C 7445   1.843   0.070   8.988 -0.1552 -0.2087 -0.3517
   56MOL0     C 7446   1.956   0.151   9.062  0.3079 -0.2118 -1.1629
   56MOL0     C 7447   2.097   0.122   9.019  0.2586  1.0275  0.2355
   56MOL0     C 7448   2.196   0.240   9.042 -0.1526  0.6390  0.0787
   56MOL0     O 7449   2.322   0.200   8.986 -0.2076  0.3553  0.0362
   56MOL0     C 7450   2.435   0.279   9.021  0.5992 -0.1352  0.1186
   56MOL0     C 7451   2.551   0.273   8.948 -0.4990 -0.0807 -0.3242
   56MOL0     C 7452   2.659   0.354   8.971  0.9887  0.0565  0.1008
   56MOL0     C 7453   2.649   0.457   9.065  0.0644 -0.2731  0.5814
   56MOL0     C 7454   2.758   0.552   9.079 -0.0500 -0.0232  0.0544
   56MOL0     O 7455   2.757   0.633   9.197  0.3575  1.5888  0.2569
   56MOL0     C 7456   2.870   0.712   9.219  0.1897  0.8621  0.2635
   56MOL0     C 7457   2.874   0.841   9.174 -0.1805  0.5046 -0.4872
   56MOL0     C 7458   2.981   0.922   9.205 -0.4249  0.2844 -0.6247
   56MOL0     C 7459   3.083   0.879   9.291  0.3688 -0.1867 -0.4278
   56MOL0     O 7460   3.186   0.963   9.327  0.0111 -0.2855  0.3305
   56MOL0     C 7461   3.243   0.953   9.454  0.2104 -0.6299  0.5754
   56MOL0     C 7462   3.322   1.076   9.498  0.0302  0.5071 -0.0247
   56MOL0     C 7463   3.354   1.070   9.648 -0.3576  0.3493  0.2485
   56MOL0     C 7464   3.418   1.199   9.697  0.7222 -0.8393 -0.0658
   56MOL0     C 7465   3.484   1.164   9.837  0.1279  0.4354 -0.1137
   56MOL0     C 7466   3.549   1.275   9.910  0.6115 -0.4710 -0.2638
   56MOL0     C 7467   3.662   1.225  10.003  0.8054 -0.0220 -0.3057
   56MOL0     C 7468   3.740   1.351  10.055  0.1246 -0.0321  0.1101
   56MOL0    Cl 7469   3.824   1.293  10.201 -0.2219 -0.2144  0.1164
   56MOL0     C 7470   3.082   0.742   9.339  0.0894  0.1880  0.3065
   56MOL0     C 7471   2.977   0.660   9.295 -0.2164 -0.2673 -0.6484
   56MOL0     O 7472   2.849   0.563   8.993  0.1866 -0.3069  0.1501
   56MOL0     C 7473   2.537   0.467   9.144 -0.2001  0.0992  0.1281
   56MOL0     C 7474   2.434   0.380   9.114  1.2322 -0.2266 -0.5348
   56MOL0     N 7475   1.675   0.149   9.173 -0.5141 -0.3670  0.3443
   56MOL0     N 7476   1.552   0.139   9.195 -0.3196 -0.5405 -0.2757
   56MOL0     C 7477   0.360   0.449   9.049 -0.1961 -0.5266 -1.1633
   56MOL0     C 7478   0.242   0.490   8.989 -0.4669 -0.7676  0.3173
   56MOL0     C 7479  -0.110   0.620   8.728 -0.0565 -1.0115 -0.3564
   56MOL0     C 7480  -0.114   0.750   8.680  0.4671 -0.1575  0.4705
   56MOL0     C 7481  -0.195   0.770   8.568 -0.3553 -0.8219 -0.3091
   56MOL0     C 7482  -0.273   0.670   8.513 -0.2424 -0.3489 -0.0586
   56MOL0     O 7483  -0.357   0.683   8.403 -0.4926 -0.3484 -0.0523
   56MOL0     C 7484  -0.438   0.808   8.395 -0.6527  0.0005  0.5559
   56MOL0     C 7485  -0.548   0.795   8.501  0.7420 -0.4275 -0.1673
   56MOL0     C 7486  -0.630   0.669   8.516  1.5840 -0.3271  0.4316
   56MOL0     C 7487  -0.708   0.639   8.389  0.0156 -0.3161  0.3138
   56MOL0     C 7488  -0.769   0.506   8.392 -0.6385  0.0488  0.6371
   56MOL0     C 7489  -0.810   0.392   8.373  0.1599 -0.1087 -0.3096
   56MOL0     C 7490  -0.278   0.547   8.572 -0.8929  0.4876  0.4470
   56MOL0     C 7491  -0.196   0.518   8.682 -0.6269 -0.5430 -0.2370
   56MOL0     C 7492  -0.225   0.387   8.746  0.4657 -0.2985 -0.0863
   56MOL0     H 7493   0.176   0.230   8.788  0.5554 -2.3930  1.8164
   56MOL0     H 7494   0.395   0.156   8.891  2.0866  0.9100 -0.2538
   56MOL0     H 7495   0.571   0.103   9.052  0.2592  0.5949  1.0037
   56MOL0     H 7496   0.618   0.210   8.912  0.3003  1.7694  0.0111
   56MOL0     H 7497   0.800   0.103   9.049 -1.4307  0.2222 -2.1571
   56MOL0     H 7498   0.781   0.233   9.168 -0.3163  0.1275  0.4000
   56MOL0     H 7499   0.799   0.384   8.945  0.3097  0.1997 -0.2316
   56MOL0     H 7500   0.876   0.241   8.884 -0.7149 -1.0146 -0.0142
   56MOL0     H 7501   1.021   0.412   8.959 -1.6171  1.5172 -0.1433
   56MOL0     H 7502   0.960   0.411   9.119 -0.9780 -0.7032 -0.9262
   56MOL0     H 7503   1.173   0.317   9.095 -1.0349  0.4051  0.7144
   56MOL0     H 7504   1.079   0.181   9.145 -0.3907  1.9753  1.8798
   56MOL0     H 7505   1.093   0.072   8.927  0.2765  0.0981 -0.0665
   56MOL0     H 7506   1.122   0.234   8.851  1.9007 -0.7083 -1.4415
   56MOL0     H 7507   1.344   0.247   8.968 -0.3596 -0.0460 -0.5007
   56MOL0     H 7508   1.326   0.110   8.851  2.0425  1.5342  0.1860
   56MOL0     H 7509   1.314   0.096   9.161  1.8083  0.4630  0.6477
   56MOL0     H 7510   1.320  -0.033   9.042 -1.1374  0.0432 -2.5191
   56MOL0     H 7511   1.570   0.012   8.892  1.7303 -1.1005  0.4286
   56MOL0     H 7512   1.858  -0.039   8.991 -2.8859 -0.6718  3.2176
   56MOL0     H 7513   1.828   0.108   8.886 -1.1778  3.1988  0.9513
   56MOL0     H 7514   1.942   0.260   9.058  1.2035 -0.1192 -2.4575
   56MOL0     H 7515   1.939   0.128   9.168 -0.2720 -0.7716 -1.3715
   56MOL0     H 7516   2.088   0.103   8.911  0.4861 -0.0945  0.3947
   56MOL0     H 7517   2.140   0.031   9.064  1.0586 -0.2586 -2.8132
   56MOL0     H 7518   2.201   0.262   9.150 -1.3648  0.2282  0.2313
   56MOL0     H 7519   2.164   0.335   8.998  1.3252  1.4920  0.7510
   56MOL0     H 7520   2.545   0.200   8.869 -1.5606 -0.9245  0.5038
   56MOL0     H 7521   2.751   0.348   8.913  0.8561 -0.1702 -0.0906
   56MOL0     H 7522   2.788   0.868   9.114  0.3049  0.3042 -1.2853
   56MOL0     H 7523   2.987   1.027   9.176  1.2140  1.1511  2.3857
   56MOL0     H 7524   3.165   0.927   9.527 -1.4632  0.0547 -0.8817
   56MOL0     H 7525   3.308   0.866   9.459  1.1455  0.0202  0.0838
   56MOL0     H 7526   3.413   1.091   9.438  0.0656  0.0825 -0.0797
   56MOL0     H 7527   3.261   1.161   9.466  0.4426  0.7316 -0.2193
   56MOL0     H 7528   3.259   1.050   9.699  0.0092  1.1446  1.2867
   56MOL0     H 7529   3.417   0.985   9.678 -1.9729 -0.3965  1.6678
   56MOL0     H 7530   3.346   1.279   9.717  0.4428 -0.9368 -0.6450
   56MOL0     H 7531   3.485   1.237   9.619 -1.5876 -2.2563 -2.9213
   56MOL0     H 7532   3.563   1.094   9.806 -0.8553 -0.3327 -0.9405
   56MOL0     H 7533   3.407   1.113   9.896 -2.7199  0.2394 -3.6513
   56MOL0     H 7534   3.593   1.340   9.834  0.4697 -1.3750 -1.1354
   56MOL0     H 7535   3.482   1.338   9.969  0.5760 -0.0404 -0.7557
   56MOL0     H 7536   3.734   1.165   9.947 -0.4212  0.0975 -2.0991
   56MOL0     H 7537   3.622   1.175  10.091 -1.2759 -0.4831 -1.4409
   56MOL0     H 7538   3.808   1.378   9.974 -0.8658 -0.3872 -0.8822
   56MOL0     H 7539   3.675   1.438  10.067  0.1239  0.1111 -0.7941
   56MOL0     H 7540   3.155   0.697   9.406 -0.0986 -0.6515 -0.0344
   56MOL0     H 7541   2.984   0.553   9.314 -0.4159 -0.3645 -1.1317
   56MOL0     H 7542   2.530   0.543   9.222 -2.6769 -0.5076  0.6053
   56MOL0     H 7543   2.345   0.396   9.175  1.3114  0.0465 -0.4886
   56MOL0     H 7544   0.415   0.502   9.126  2.4730  0.3176 -3.4685
   56MOL0     H 7545   0.211   0.592   9.009  0.4421 -0.6662  1.2652
   56MOL0     H 7546  -0.051   0.826   8.724 -1.3814  1.7647 -0.0267
   56MOL0     H 7547  -0.192   0.869   8.523  1.6537 -1.1387 -0.9757
   56MOL0     H 7548  -0.493   0.807   8.300 -1.9278  0.9371  1.2480
   56MOL0     H 7549  -0.390   0.905   8.410 -2.4424  0.8686  1.0570
   56MOL0     H 7550  -0.612   0.877   8.468  1.5191 -0.0714 -0.8180
   56MOL0     H 7551  -0.505   0.814   8.600 -0.1164 -0.2301  0.1837
   56MOL0     H 7552  -0.704   0.686   8.594 -0.0573 -0.0055 -1.1304
   56MOL0     H 7553  -0.574   0.580   8.544 -0.2759 -1.9401 -0.7571
   56MOL0     H 7554  -0.789   0.710   8.366  0.5415 -0.1167 -1.0093
   56MOL0     H 7555  -0.649   0.641   8.298  1.3138 -3.4405  0.9661
   56MOL0     H 7556  -0.854   0.295   8.362  0.4111 -0.4041  1.0321
   56MOL0     H 7557  -0.345   0.469   8.539 -0.4671  0.3742 -0.1756
   56MOL0     H 7558  -0.180   0.310   8.681  0.1358 -0.1585 -0.4821
   56MOL0     H 7559  -0.185   0.384   8.848 -0.1829  0.7582  0.2081
   56MOL0     H 7560  -0.331   0.367   8.763  0.5026 -0.0091  0.4843
   57MOL0     O 7561   5.567   4.113  10.266  0.0744 -0.2768 -0.4002
   57MOL0     C 7562   5.488   4.204  10.240 -0.2923 -0.2170 -0.2574
   57MOL0     O 7563   5.508   4.321  10.173 -0.0568  0.1194  0.2642
   57MOL0     C 7564   5.642   4.361  10.167 -0.0777 -0.3808  0.8096
   57MOL0     C 7565   5.689   4.458  10.253  0.8089 -0.8133 -0.2275
   57MOL0     C 7566   5.825   4.493  10.251 -0.5758 -0.1893  0.7910
   57MOL0     C 7567   5.905   4.462  10.138  0.1704  0.3628 -0.0726
   57MOL0     O 7568   6.031   4.514  10.135 -0.7188 -0.7090  0.5187
   57MOL0     C 7569   6.134   4.451  10.056  0.9177 -0.8420  0.3399
   57MOL0     C 7570   6.261   4.486  10.130 -0.0557  0.0961  0.2248
   57MOL0     C 7571   6.384   4.427  10.059 -1.1920 -0.3528 -0.6750
   57MOL0     C 7572   6.519   4.459  10.131 -1.0305  0.5907  0.6412
   57MOL0     C 7573   6.638   4.402  10.054  0.7923  0.3913 -0.0807
   57MOL0     C 7574   6.769   4.454  10.116 -0.4277 -0.2406  0.7584
   57MOL0     C 7575   6.894   4.397  10.035  0.2373  0.1833 -0.6292
   57MOL0     C 7576   7.023   4.397  10.119 -0.1040 -0.4750 -0.3157
   57MOL0     N 7577   7.137   4.352  10.048 -0.4253  0.3921  0.3385
   57MOL0     C 7578   7.256   4.419  10.043  0.1568  0.3153  0.2298
   57MOL0     C 7579   7.340   4.332   9.986 -0.7810 -0.3378  0.2772
   57MOL0     C 7580   7.486   4.374   9.946  0.3383 -0.4296  1.0130
   57MOL0     C 7581   7.593   4.406  10.056  0.3125 -0.8806  1.1648
   57MOL0     C 7582   7.586   4.296  10.160  0.2515 -0.3342  0.1274
   57MOL0     C 7583   7.703   4.328  10.259  0.1589 -0.3174 -0.0642
   57MOL0     O 7584   7.826   4.321  10.188  0.0185  0.7175  0.1804
   57MOL0     C 7585   7.935   4.380  10.243 -0.0002 -0.2740  0.8241
   57MOL0     C 7586   7.947   4.456  10.361 -0.4346  0.4725 -0.3343
   57MOL0     C 7587   8.071   4.507  10.400  0.1942 -0.0241 -0.5147
   57MOL0     C 7588   8.182   4.503  10.311 -0.6997 -0.7151  0.9728
   57MOL0     C 7589   8.318   4.557  10.347  0.6063  0.6851 -0.2608
   57MOL0     O 7590   8.401   4.561  10.243 -0.0632 -0.1379  0.0089
   57MOL0     C 7591   8.534   4.605  10.249 -0.1770  0.7816  0.2827
   57MOL0     C 7592   8.605   4.610  10.363 -0.9196 -0.4655  0.0077
   57MOL0     C 7593   8.742   4.645  10.364 -0.6961  1.0064 -0.1308
   57MOL0     C 7594   8.800   4.669  10.237  0.1788  0.4631  0.5957
   57MOL0     O 7595   8.937   4.699  10.223  0.5843  0.3320  0.6439
   57MOL0     C 7596   8.975   4.829  10.268  0.2100  0.0575 -0.6881
   57MOL0     C 7597   9.080   4.843  10.366 -0.7477  1.4345  0.7599
   57MOL0     C 7598   9.207   4.775  10.309 -0.2405  1.0794  0.2088
   57MOL0     C 7599   9.315   4.790  10.420 -0.9316  0.0812  0.0539
   57MOL0     C 7600   9.456   4.771  10.346 -0.3948  0.3308 -0.7002
   57MOL0     C 7601   9.586   4.782  10.443  0.9546  0.0022  0.0294
   57MOL0     C 7602   9.658   4.653  10.472 -0.0989  0.5138  0.1604
   57MOL0     C 7603   9.806   4.685  10.525 -0.0474 -0.1123  0.8579
   57MOL0    Cl 7604   9.905   4.786  10.420  0.2083 -0.0063  0.0563
   57MOL0     C 7605   8.726   4.661  10.115  0.1346  0.0599 -0.4481
   57MOL0     C 7606   8.594   4.622  10.125  0.4541  0.4838  0.6644
   57MOL0     O 7607   8.338   4.592  10.460 -0.3544  1.0358 -0.1855
   57MOL0     C 7608   8.163   4.440  10.185  0.3629  0.0224 -0.5939
   57MOL0     C 7609   8.044   4.380  10.157  0.4806  0.1976  0.6559
   57MOL0     N 7610   7.277   4.211   9.960 -0.5726 -0.2984 -0.0499
   57MOL0     N 7611   7.152   4.228   9.994 -0.4107  0.2854  0.6225
   57MOL0     C 7612   5.849   4.374  10.041 -1.1087 -0.1589 -0.4284
   57MOL0     C 7613   5.718   4.329  10.054  0.5606 -0.7172 -0.3385
   57MOL0     C 7614   5.348   4.180  10.279 -0.8368 -0.6134  0.6616
   57MOL0     C 7615   5.299   4.045  10.267  0.5773  0.3688  0.0670
   57MOL0     C 7616   5.169   4.015  10.314  0.3486  0.5487 -0.7072
   57MOL0     C 7617   5.083   4.108  10.363 -0.9105  0.0665  0.5096
   57MOL0     O 7618   4.969   4.053  10.408 -0.4691 -0.1610  0.6069
   57MOL0     C 7619   4.868   4.139  10.451  0.3024  0.0183 -0.5482
   57MOL0     C 7620   4.763   4.056  10.526 -0.2532  0.7051 -0.2147
   57MOL0     C 7621   4.797   4.025  10.668 -0.1661 -0.3488 -0.2543
   57MOL0     C 7622   4.691   3.941  10.744 -1.1038  0.3015 -0.0801
   57MOL0     C 7623   4.759   3.891  10.855 -0.1332  0.6011 -0.4249
   57MOL0     C 7624   4.825   3.842  10.945  0.0900  0.5613  0.4369
   57MOL0     C 7625   5.127   4.241  10.365 -0.7020 -0.7049 -0.3136
   57MOL0     C 7626   5.256   4.281  10.320 -0.0005  1.1815  0.4238
   57MOL0     C 7627   5.291   4.427  10.321 -0.1363 -0.8132  0.5143
   57MOL0     H 7628   5.616   4.488  10.328 -0.3704 -0.3203 -1.5293
   57MOL0     H 7629   5.863   4.552  10.334 -0.4666 -0.2737  0.8012
   57MOL0     H 7630   6.121   4.343  10.046  2.5928 -1.1573  1.1158
   57MOL0     H 7631   6.136   4.492   9.955 -0.4253 -5.0351 -1.6400
   57MOL0     H 7632   6.253   4.464  10.236 -1.5322 -3.0154 -0.4131
   57MOL0     H 7633   6.271   4.595  10.129 -1.2853  0.2128 -0.0887
   57MOL0     H 7634   6.383   4.470   9.958 -1.2938  0.5017 -0.3163
   57MOL0     H 7635   6.378   4.318  10.055 -0.3320 -0.4370  0.0292
   57MOL0     H 7636   6.526   4.568  10.139 -0.2685  0.5889  0.1651
   57MOL0     H 7637   6.527   4.420  10.233  3.4175  1.5041  0.8197
   57MOL0     H 7638   6.632   4.294  10.039 -1.3217  0.5608 -0.8295
   57MOL0     H 7639   6.628   4.459   9.961 -0.6483  3.1540  1.6502
   57MOL0     H 7640   6.758   4.561  10.135  2.3602  0.2213  0.2993
   57MOL0     H 7641   6.773   4.412  10.217 -0.1548 -0.2128  0.7597
   57MOL0     H 7642   6.910   4.452   9.941 -0.7859  2.2650  0.3555
   57MOL0     H 7643   6.877   4.291  10.017  1.7089 -0.5887  1.9612
   57MOL0     H 7644   7.041   4.493  10.167 -2.4925  0.1233 -0.4586
   57MOL0     H 7645   7.017   4.332  10.208  2.0622  0.0427  0.2501
   57MOL0     H 7646   7.279   4.521  10.071  3.7815 -0.4060  0.3625
   57MOL0     H 7647   7.517   4.290   9.884 -0.2064 -0.2525  0.4785
   57MOL0     H 7648   7.477   4.469   9.892  0.8650  0.2798  2.1308
   57MOL0     H 7649   7.692   4.402  10.010  0.3067  3.7095  0.2903
   57MOL0     H 7650   7.573   4.503  10.101 -0.5703  0.2706 -1.4714
   57MOL0     H 7651   7.611   4.203  10.108 -0.1277 -0.7063  0.6037
   57MOL0     H 7652   7.492   4.284  10.214  1.3720 -2.3904  1.8103
   57MOL0     H 7653   7.707   4.252  10.338  0.2753  0.0982  0.3362
   57MOL0     H 7654   7.698   4.432  10.295  0.1590  0.0895 -1.2202
   57MOL0     H 7655   7.863   4.437  10.427 -0.4203  2.0009  0.1769
   57MOL0     H 7656   8.086   4.537  10.503  2.5681 -0.5368 -0.6497
   57MOL0     H 7657   8.564   4.612  10.463 -1.6697 -0.3162 -0.3021
   57MOL0     H 7658   8.807   4.640  10.450 -0.7823 -1.0793 -0.1426
   57MOL0     H 7659   9.005   4.885  10.179  1.0180  1.4465  0.4284
   57MOL0     H 7660   8.886   4.882  10.305 -0.2073  0.2018 -1.8435
   57MOL0     H 7661   9.098   4.948  10.391  0.4966  1.2824  0.5673
   57MOL0     H 7662   9.055   4.788  10.457  0.3433 -2.5542 -1.0910
   57MOL0     H 7663   9.202   4.670  10.282  1.2465  0.7407  1.1267
   57MOL0     H 7664   9.239   4.816  10.213 -0.7626  0.2217 -0.3341
   57MOL0     H 7665   9.307   4.711  10.496 -1.3127  0.7713  0.7429
   57MOL0     H 7666   9.315   4.888  10.468  0.5232  0.7650 -1.2878
   57MOL0     H 7667   9.470   4.856  10.278  0.0673 -0.2137 -1.2926
   57MOL0     H 7668   9.453   4.679  10.287 -0.0383 -1.0355  1.3069
   57MOL0     H 7669   9.652   4.853  10.393 -0.8825  1.4130 -0.5277
   57MOL0     H 7670   9.552   4.836  10.533 -0.0205  0.5018 -0.6121
   57MOL0     H 7671   9.669   4.592  10.382  0.8806  0.9902 -0.0578
   57MOL0     H 7672   9.593   4.598  10.541 -0.4004  0.4585 -0.1680
   57MOL0     H 7673   9.798   4.732  10.623  0.3326  2.1396 -0.1345
   57MOL0     H 7674   9.856   4.588  10.535  2.6307  1.1615  0.6402
   57MOL0     H 7675   8.779   4.655  10.020  2.7430 -2.0139  0.9975
   57MOL0     H 7676   8.549   4.610  10.027 -2.2203  2.7921  1.4861
   57MOL0     H 7677   8.245   4.427  10.116 -0.1623  1.0697 -1.4487
   57MOL0     H 7678   8.039   4.330  10.061  0.0338  0.8154  0.3466
   57MOL0     H 7679   5.907   4.360   9.951  0.5019 -0.9123  0.6713
   57MOL0     H 7680   5.682   4.259   9.980  1.6273 -1.6961  0.0411
   57MOL0     H 7681   5.371   3.973  10.231  1.6698  1.3916  0.1660
   57MOL0     H 7682   5.133   3.913  10.318  2.8559 -0.5060 -2.4320
   57MOL0     H 7683   4.816   4.192  10.371  0.8054 -0.5408 -1.2572
   57MOL0     H 7684   4.906   4.219  10.515 -2.4753  1.5844 -0.7346
   57MOL0     H 7685   4.738   3.958  10.484  0.2648  0.5609 -0.1858
   57MOL0     H 7686   4.677   4.122  10.539  0.0243  1.1140 -0.4707
   57MOL0     H 7687   4.815   4.116  10.726 -1.8911  2.2895 -3.5116
   57MOL0     H 7688   4.897   3.980  10.666 -0.0983 -0.6394  3.3426
   57MOL0     H 7689   4.603   3.998  10.776  0.1744  1.0262  2.4298
   57MOL0     H 7690   4.664   3.849  10.691  0.3639  0.2373 -0.7894
   57MOL0     H 7691   4.888   3.789  11.014  1.1759 -0.5945 -1.3497
   57MOL0     H 7692   5.056   4.312  10.408 -1.3367 -3.4114  3.6672
   57MOL0     H 7693   5.229   4.502  10.371  1.2891  1.2914 -0.6984
   57MOL0     H 7694   5.384   4.442  10.377 -0.1693 -0.5015  0.4881
   57MOL0     H 7695   5.292   4.462  10.217 -2.5987 -0.9257  0.4128
   58MOL0     O 7696   0.783   6.627   9.678 -0.1067 -0.7977  0.5291
   58MOL0     C 7697   0.847   6.567   9.589 -0.0171  0.3308  0.4445
   58MOL0     O 7698   0.788   6.491   9.501  0.3638  0.1677  0.3743
   58MOL0     C 7699   0.655   6.453   9.510 -0.3574 -0.1665 -0.2228
   58MOL0     C 7700   0.594   6.400   9.628 -0.8043 -0.0687  0.2270
   58MOL0     C 7701   0.454   6.361   9.623  0.2377  0.0564  0.5107
   58MOL0     C 7702   0.375   6.381   9.514 -0.0421 -1.0897  0.2097
   58MOL0     O 7703   0.238   6.350   9.534  0.3594 -0.5613  0.1124
   58MOL0     C 7704   0.171   6.313   9.411  0.3755  0.0759  0.1555
   58MOL0     C 7705   0.023   6.270   9.435 -0.8728 -0.4612  0.0166
   58MOL0     C 7706  -0.069   6.293   9.319 -0.7249 -0.7272  0.0271
   58MOL0     C 7707  -0.198   6.363   9.355 -0.6870  0.0502 -0.5852
   58MOL0     C 7708  -0.267   6.434   9.242 -0.2881 -0.1353 -0.0335
   58MOL0     C 7709  -0.322   6.344   9.130  0.2972  1.4552  0.4381
   58MOL0     C 7710  -0.417   6.414   9.037 -0.4977  0.1102  0.1771
   58MOL0     C 7711  -0.463   6.337   8.907 -0.3574 -0.1995 -0.4579
   58MOL0     N 7712  -0.352   6.337   8.815  0.3274 -0.5321  1.5091
   58MOL0     C 7713  -0.238   6.265   8.819 -0.0200 -0.1768 -0.0864
   58MOL0     C 7714  -0.164   6.319   8.725  0.1721 -0.8164  0.9434
   58MOL0     C 7715  -0.052   6.243   8.666  0.2603 -0.0250 -0.3918
   58MOL0     C 7716   0.084   6.325   8.661  0.4305 -0.0488  0.1557
   58MOL0     C 7717   0.087   6.428   8.550  0.1203  0.2461  0.0242
   58MOL0     C 7718   0.222   6.492   8.525 -0.5249 -0.2118 -1.2487
   58MOL0     O 7719   0.211   6.558   8.400 -0.3225 -0.1912  0.2577
   58MOL0     C 7720   0.312   6.645   8.354  0.4243  0.0397 -1.2530
   58MOL0     C 7721   0.441   6.645   8.414  0.2116 -0.3098 -0.7128
   58MOL0     C 7722   0.537   6.736   8.381  0.5021 -0.2860  0.1304
   58MOL0     C 7723   0.522   6.814   8.261 -0.7352 -0.0864 -1.2593
   58MOL0     C 7724   0.624   6.911   8.221  0.5181 -0.1507  0.2615
   58MOL0     O 7725   0.745   6.899   8.283  0.1077  0.8487 -0.3534
   58MOL0     C 7726   0.859   6.971   8.251 -0.4438  0.2724  0.3531
   58MOL0     C 7727   0.884   7.024   8.116  0.6693  0.4237  0.1654
   58MOL0     C 7728   0.991   7.120   8.107  0.1089 -0.0973  0.2138
   58MOL0     C 7729   1.072   7.153   8.208 -0.5570 -0.9922  0.1525
   58MOL0     O 7730   1.180   7.237   8.178  0.2708  0.1509 -0.9872
   58MOL0     C 7731   1.306   7.196   8.239 -0.6956 -0.5542  1.1293
   58MOL0     C 7732   1.413   7.291   8.174  0.0506  0.3277  0.3586
   58MOL0     C 7733   1.550   7.278   8.222  0.6588  0.5976 -0.3196
   58MOL0     C 7734   1.562   7.306   8.374 -0.5050 -0.1226 -0.1581
   58MOL0     C 7735   1.703   7.354   8.424 -0.6920  0.4263  0.3311
   58MOL0     C 7736   1.709   7.372   8.578  0.4312 -0.7404 -0.1686
   58MOL0     C 7737   1.849   7.407   8.609  0.5061  0.3231 -0.3471
   58MOL0     C 7738   1.858   7.405   8.757  0.1210 -0.6147  0.0813
   58MOL0    Cl 7739   2.025   7.398   8.812 -0.3608 -0.0596  0.3130
   58MOL0     C 7740   1.062   7.085   8.337 -0.3648 -0.1319  0.6601
   58MOL0     C 7741   0.949   7.005   8.357 -0.4126 -0.2537 -0.4137
   58MOL0     O 7742   0.593   7.001   8.139 -0.3034  0.2383 -0.0783
   58MOL0     C 7743   0.405   6.812   8.192 -0.3105 -0.5936  0.2937
   58MOL0     C 7744   0.299   6.734   8.239  0.3755 -0.2016 -0.5277
   58MOL0     N 7745  -0.221   6.433   8.668  0.2115 -0.0198 -0.9352
   58MOL0     N 7746  -0.348   6.431   8.713 -0.0586 -0.1049  0.3332
   58MOL0     C 7747   0.438   6.450   9.403 -0.2288  0.0858 -0.4451
   58MOL0     C 7748   0.573   6.482   9.401  0.3053 -0.2319 -0.6425
   58MOL0     C 7749   1.000   6.590   9.599 -0.1452 -0.4250  0.0408
   58MOL0     C 7750   1.055   6.643   9.716  0.8111 -0.1833 -0.5544
   58MOL0     C 7751   1.180   6.694   9.711  0.1937 -0.6553  0.6649
   58MOL0     C 7752   1.258   6.694   9.593 -0.2778  0.2640 -0.4966
   58MOL0     O 7753   1.378   6.757   9.608 -0.5851  0.9290 -0.3005
   58MOL0     C 7754   1.459   6.789   9.496 -0.4773  0.0459  0.5106
   58MOL0     C 7755   1.576   6.703   9.508 -0.8843  0.2830  0.2929
   58MOL0     C 7756   1.662   6.710   9.380 -0.1819  0.1310 -0.3732
   58MOL0     C 7757   1.782   6.622   9.379 -0.7368 -0.2147 -0.4536
   58MOL0     C 7758   1.898   6.681   9.454  0.6919 -0.2744 -0.2807
   58MOL0     C 7759   1.985   6.729   9.519 -0.2994  0.1491 -0.1711
   58MOL0     C 7760   1.213   6.621   9.482 -0.9486  0.5418  0.0775
   58MOL0     C 7761   1.076   6.574   9.485  0.3269 -0.1046  0.4791
   58MOL0     C 7762   1.028   6.498   9.365  0.1916 -0.4955 -0.1786
   58MOL0     H 7763   0.658   6.371   9.712 -1.2166 -1.0781  0.1971
   58MOL0     H 7764   0.416   6.310   9.711 -0.3932 -2.2349 -1.0084
   58MOL0     H 7765   0.179   6.407   9.356  0.4863  1.7099  2.7710
   58MOL0     H 7766   0.225   6.236   9.355 -1.4011  0.4070 -2.1613
   58MOL0     H 7767  -0.023   6.323   9.519  0.3925  0.6034  0.0676
   58MOL0     H 7768   0.024   6.162   9.449 -4.6958 -0.5239  0.8448
   58MOL0     H 7769  -0.088   6.195   9.273  0.6393 -2.7176  3.3549
   58MOL0     H 7770  -0.012   6.357   9.251  1.2016 -1.1656  1.1762
   58MOL0     H 7771  -0.256   6.284   9.404  0.7169  0.4682  1.9259
   58MOL0     H 7772  -0.185   6.438   9.434 -2.4649 -0.7235  0.5210
   58MOL0     H 7773  -0.353   6.488   9.284  0.0279  2.4462 -2.4106
   58MOL0     H 7774  -0.204   6.510   9.196 -0.1531 -0.6606 -0.7304
   58MOL0     H 7775  -0.237   6.308   9.073 -0.5625  1.3181 -0.7914
   58MOL0     H 7776  -0.375   6.256   9.170  1.0367 -0.9249 -3.2959
   58MOL0     H 7777  -0.380   6.512   9.006 -0.6536 -0.6037 -2.5101
   58MOL0     H 7778  -0.510   6.423   9.093 -0.0177  0.9265  0.8739
   58MOL0     H 7779  -0.492   6.232   8.916 -3.1705  0.4028 -1.3869
   58MOL0     H 7780  -0.548   6.395   8.870 -0.5974 -0.3008 -0.0716
   58MOL0     H 7781  -0.208   6.177   8.875  0.0983  0.3525  0.7064
   58MOL0     H 7782  -0.035   6.155   8.728 -0.6985 -0.3500 -0.5755
   58MOL0     H 7783  -0.074   6.220   8.561 -2.5704  1.9582 -0.3459
   58MOL0     H 7784   0.100   6.375   8.756  2.0283  0.5533 -0.3959
   58MOL0     H 7785   0.158   6.250   8.631  0.2489 -0.1673 -0.0083
   58MOL0     H 7786   0.006   6.501   8.562  0.7461  1.0976 -0.8691
   58MOL0     H 7787   0.067   6.378   8.454 -1.9132  0.6818  0.1647
   58MOL0     H 7788   0.292   6.409   8.530 -3.8747 -3.2120  1.6960
   58MOL0     H 7789   0.238   6.559   8.610 -0.6846 -1.3395 -0.3120
   58MOL0     H 7790   0.460   6.571   8.491 -0.7222 -0.0340 -0.1942
   58MOL0     H 7791   0.632   6.728   8.434 -0.0243 -0.6559  1.0426
   58MOL0     H 7792   0.812   7.023   8.035 -1.6227  0.6029  2.1087
   58MOL0     H 7793   1.000   7.173   8.013 -3.2724  0.9533  0.3382
   58MOL0     H 7794   1.304   7.217   8.346  0.5966  2.9763  0.5879
   58MOL0     H 7795   1.330   7.092   8.213  4.3292  0.4338  0.7038
   58MOL0     H 7796   1.412   7.277   8.065 -1.0119  0.7259  0.3062
   58MOL0     H 7797   1.379   7.393   8.193 -0.9275  0.0134  0.3715
   58MOL0     H 7798   1.589   7.178   8.202 -0.6316 -1.1933  4.5515
   58MOL0     H 7799   1.607   7.357   8.172 -0.1514  1.6499  0.3725
   58MOL0     H 7800   1.532   7.215   8.426 -1.2538 -2.0950 -3.7274
   58MOL0     H 7801   1.502   7.393   8.402  0.9908  1.4624 -1.6010
   58MOL0     H 7802   1.725   7.442   8.362  0.8645  2.0872  3.0691
   58MOL0     H 7803   1.775   7.275   8.401  0.2167  1.4346 -0.3514
   58MOL0     H 7804   1.636   7.447   8.607 -1.7684 -2.2798 -1.4504
   58MOL0     H 7805   1.682   7.270   8.608 -2.2028 -1.2429 -3.6134
   58MOL0     H 7806   1.884   7.503   8.571 -1.0682  0.4886 -1.5106
   58MOL0     H 7807   1.912   7.324   8.576 -0.3139  0.1612 -1.5940
   58MOL0     H 7808   1.819   7.501   8.793 -0.8044  0.3130 -3.0355
   58MOL0     H 7809   1.798   7.324   8.799 -1.3471 -0.3397 -1.3797
   58MOL0     H 7810   1.132   7.092   8.420  0.8440 -1.8389 -0.1673
   58MOL0     H 7811   0.929   6.976   8.460  1.6829 -1.8058 -0.3627
   58MOL0     H 7812   0.393   6.858   8.094 -1.2922  0.8942  1.0706
   58MOL0     H 7813   0.205   6.719   8.188 -1.3811  0.9631  2.1558
   58MOL0     H 7814   0.371   6.479   9.323 -1.5956 -2.4251 -0.3128
   58MOL0     H 7815   0.629   6.533   9.324 -0.8018 -1.1253 -2.1023
   58MOL0     H 7816   0.994   6.644   9.806  1.6253 -0.0080  0.0043
   58MOL0     H 7817   1.224   6.747   9.795 -0.7304  1.0068  0.1622
   58MOL0     H 7818   1.487   6.895   9.496 -0.9863  0.1934 -0.4679
   58MOL0     H 7819   1.410   6.781   9.398 -1.6838 -0.7423  1.1541
   58MOL0     H 7820   1.542   6.601   9.531 -1.4237  0.8419  2.1261
   58MOL0     H 7821   1.635   6.733   9.595  1.5775  0.9459 -1.4865
   58MOL0     H 7822   1.692   6.814   9.359  0.1947  0.4577  1.6149
   58MOL0     H 7823   1.602   6.675   9.296  0.1791  0.3259 -0.7192
   58MOL0     H 7824   1.752   6.524   9.417  0.1940  0.8025  3.2363
   58MOL0     H 7825   1.816   6.607   9.276 -1.3236 -0.8572 -0.5647
   58MOL0     H 7826   2.066   6.782   9.564  0.3049 -1.7134  1.0696
   58MOL0     H 7827   1.270   6.617   9.390 -2.8485  1.5592 -1.2107
   58MOL0     H 7828   0.979   6.401   9.378  3.4768 -1.9751  2.7947
   58MOL0     H 7829   0.950   6.565   9.328 -0.5367  0.4911  2.9091
   58MOL0     H 7830   1.113   6.485   9.297 -0.4629  1.0256 -1.3537
   59MOL0     O 7831   8.340   7.782   2.899  0.5885  0.1524 -0.0651
   59MOL0     C 7832   8.299   7.831   3.007 -0.5827  0.1573  0.7741
   59MOL0     O 7833   8.354   7.942   3.065  0.9054 -0.7641  0.0043
   59MOL0     C 7834   8.448   8.015   3.006  0.7567 -0.0045  0.0400
   59MOL0     C 7835   8.412   8.149   2.973  1.4221 -0.0865  0.4044
   59MOL0     C 7836   8.504   8.236   2.931 -0.4650 -0.6260 -0.0019
   59MOL0     C 7837   8.641   8.208   2.918 -0.7957 -0.6489 -0.1187
   59MOL0     O 7838   8.751   8.295   2.892  0.3795 -0.4769  0.0571
   59MOL0     C 7839   8.712   8.422   2.827  0.2006  0.0165  0.5942
   59MOL0     C 7840   8.840   8.501   2.781 -0.2966  0.2611  0.1707
   59MOL0     C 7841   8.915   8.556   2.900 -0.0406 -0.1054  0.2601
   59MOL0     C 7842   9.068   8.584   2.871  0.5554 -0.1878  0.6734
   59MOL0     C 7843   9.145   8.627   2.993  0.1258 -1.0937 -0.1285
   59MOL0     C 7844   9.295   8.622   2.963 -0.1039  0.7614  0.1549
   59MOL0     C 7845   9.387   8.664   3.087  0.0913  0.4874 -0.5123
   59MOL0     C 7846   9.527   8.674   3.030 -0.3452 -0.7233 -0.0602
   59MOL0     N 7847   9.620   8.704   3.140 -0.3042  0.4409 -0.4330
   59MOL0     C 7848   9.642   8.626   3.252 -0.4676 -0.0562  0.4906
   59MOL0     C 7849   9.743   8.681   3.316 -0.1687 -0.3092  0.0588
   59MOL0     C 7850   9.823   8.620   3.425  0.2539  0.4021 -0.4235
   59MOL0     C 7851   9.847   8.731   3.536  0.0892 -0.7868 -0.8766
   59MOL0     C 7852   9.923   8.672   3.651 -0.8129  1.1724 -0.6929
   59MOL0     C 7853  10.067   8.636   3.608  0.5668  0.1530  0.0602
   59MOL0     O 7854  10.136   8.588   3.728 -0.3870  0.1194  0.4171
   59MOL0     C 7855  10.273   8.570   3.727  0.0333  0.2236  0.2964
   59MOL0     C 7856  10.329   8.530   3.847 -0.4957 -0.2482  0.5917
   59MOL0     C 7857  10.469   8.511   3.854  0.0592 -0.8929 -0.4342
   59MOL0     C 7858  10.557   8.546   3.757 -0.0609 -0.3291  0.8952
   59MOL0     C 7859  10.706   8.553   3.769 -0.1224  0.1420 -0.4232
   59MOL0     O 7860  10.748   8.496   3.889  0.0059  0.1076  0.6523
   59MOL0     C 7861  10.888   8.485   3.907  0.8643 -0.3476  0.0964
   59MOL0     C 7862  10.969   8.404   3.830  0.7504  0.5296  0.0926
   59MOL0     C 7863  11.104   8.421   3.845 -0.0124  0.4462 -0.0982
   59MOL0     C 7864  11.156   8.527   3.929  0.4736 -0.1795  0.4056
   59MOL0     O 7865  11.288   8.555   3.921  0.0521 -0.4608  0.1063
   59MOL0     C 7866  11.328   8.691   3.906  0.4105 -0.1470 -0.1316
   59MOL0     C 7867  11.480   8.702   3.915 -0.3512  0.1475 -0.9527
   59MOL0     C 7868  11.529   8.642   4.046 -0.2945  0.2842 -0.0001
   59MOL0     C 7869  11.681   8.632   4.037 -0.5493  0.5942 -0.1777
   59MOL0     C 7870  11.734   8.584   4.177  0.5792  0.4841  0.2767
   59MOL0     C 7871  11.879   8.544   4.162  0.2035  0.4406  0.3500
   59MOL0     C 7872  11.932   8.469   4.276 -0.0844  0.3611 -0.9117
   59MOL0     C 7873  12.080   8.475   4.282  0.7007 -0.1111  0.0435
   59MOL0    Cl 7874  12.163   8.393   4.145 -0.1633 -0.1656  0.2023
   59MOL0     C 7875  11.075   8.591   4.023  0.9011 -0.8164  1.7193
   59MOL0     C 7876  10.938   8.571   4.011 -0.4628 -0.0570  0.3056
   59MOL0     O 7877  10.771   8.609   3.683 -0.5888  0.8109  0.4784
   59MOL0     C 7878  10.503   8.594   3.631  0.6944  0.3847  0.9838
   59MOL0     C 7879  10.360   8.601   3.618 -0.2660  0.2862 -0.1521
   59MOL0     N 7880   9.774   8.794   3.249 -0.4875 -0.2702 -0.1903
   59MOL0     N 7881   9.695   8.814   3.150 -0.1531  0.2353  0.3437
   59MOL0     C 7882   8.674   8.070   2.938  0.2011 -0.7260 -0.1131
   59MOL0     C 7883   8.576   7.965   2.975  0.1440 -0.8128  0.4013
   59MOL0     C 7884   8.194   7.761   3.082  0.2471 -0.4017 -1.1550
   59MOL0     C 7885   8.209   7.763   3.219 -0.2384  0.3839  0.3035
   59MOL0     C 7886   8.108   7.714   3.309  0.5958  0.4981  0.1639
   59MOL0     C 7887   7.983   7.679   3.259  0.4486 -0.0471 -0.5565
   59MOL0     O 7888   7.871   7.639   3.336  0.3394 -0.0040  0.8600
   59MOL0     C 7889   7.886   7.608   3.476  0.4462 -0.3377  0.3858
   59MOL0     C 7890   7.823   7.464   3.484 -0.0476  0.5723  0.3465
   59MOL0     C 7891   7.879   7.351   3.385 -0.3842 -0.0472 -0.5732
   59MOL0     C 7892   8.023   7.323   3.413 -0.4561  0.5121 -0.4749
   59MOL0     C 7893   8.062   7.197   3.348 -0.5081  0.9600  0.1229
   59MOL0     C 7894   8.076   7.089   3.297  0.2932  0.4742  0.7720
   59MOL0     C 7895   7.974   7.665   3.125 -0.0553  0.4390 -0.0309
   59MOL0     C 7896   8.078   7.695   3.035 -0.4000 -0.3736 -0.5309
   59MOL0     C 7897   8.054   7.676   2.884 -0.2168  0.7069  0.7498
   59MOL0     H 7898   8.313   8.184   3.002  2.2118  2.4550  0.2287
   59MOL0     H 7899   8.468   8.337   2.916 -3.2152 -1.8873 -3.1251
   59MOL0     H 7900   8.653   8.386   2.742  0.1930  1.2280  0.0591
   59MOL0     H 7901   8.644   8.489   2.881 -2.1283 -2.5359  1.0228
   59MOL0     H 7902   8.811   8.595   2.731 -1.5965  1.7730  3.4900
   59MOL0     H 7903   8.904   8.430   2.727 -1.4344 -0.0139 -0.8477
   59MOL0     H 7904   8.910   8.489   2.986  2.2607  2.5894  2.6870
   59MOL0     H 7905   8.877   8.655   2.926  0.8359 -0.2974  2.4747
   59MOL0     H 7906   9.115   8.491   2.838  1.8703  0.6469  0.1378
   59MOL0     H 7907   9.091   8.653   2.790 -0.6723  0.3651  0.7798
   59MOL0     H 7908   9.111   8.726   3.023  1.2675 -1.5829  3.2194
   59MOL0     H 7909   9.123   8.553   3.071 -1.4708 -0.8565 -0.3144
   59MOL0     H 7910   9.330   8.524   2.928  4.6573  2.2470 -0.0169
   59MOL0     H 7911   9.307   8.693   2.882  0.8267 -1.4746 -1.7965
   59MOL0     H 7912   9.387   8.592   3.169 -0.6128 -0.0877 -1.0063
   59MOL0     H 7913   9.346   8.762   3.116 -0.8733 -0.0528  0.0110
   59MOL0     H 7914   9.558   8.582   2.981 -0.1867 -1.6180  1.6327
   59MOL0     H 7915   9.531   8.760   2.963 -1.1371 -0.3934  0.2949
   59MOL0     H 7916   9.588   8.533   3.266 -0.6652  0.4024  3.3294
   59MOL0     H 7917   9.776   8.529   3.462 -0.7944  1.3463  0.6460
   59MOL0     H 7918   9.918   8.585   3.384  0.5258 -1.0057  1.3057
   59MOL0     H 7919   9.893   8.823   3.500  0.2947 -0.8476 -0.7713
   59MOL0     H 7920   9.752   8.765   3.579  1.4753  1.7870  0.3615
   59MOL0     H 7921   9.873   8.580   3.682  1.0006  0.1795 -0.5459
   59MOL0     H 7922   9.915   8.742   3.735 -2.6500  1.2111 -0.8683
   59MOL0     H 7923  10.115   8.729   3.576 -1.7466  0.8877 -1.4992
   59MOL0     H 7924  10.068   8.558   3.532  4.1892 -0.4969  0.5753
   59MOL0     H 7925  10.258   8.522   3.928  0.7110  2.3096  2.0575
   59MOL0     H 7926  10.506   8.473   3.948  0.1082  1.2220  0.4611
   59MOL0     H 7927  10.933   8.332   3.756  2.4287  1.3805 -1.6299
   59MOL0     H 7928  11.163   8.363   3.776  0.7021  0.6358  0.3385
   59MOL0     H 7929  11.289   8.716   3.807 -0.2720 -2.6122 -0.5472
   59MOL0     H 7930  11.276   8.761   3.972 -0.1416  1.7981 -2.4837
   59MOL0     H 7931  11.523   8.647   3.832  0.4618 -2.4880  1.0636
   59MOL0     H 7932  11.512   8.807   3.914 -1.3340  0.4787 -0.0351
   59MOL0     H 7933  11.507   8.711   4.128 -1.2802 -0.2089  0.1590
   59MOL0     H 7934  11.488   8.544   4.072  1.9130 -0.3763  1.3430
   59MOL0     H 7935  11.726   8.729   4.010  1.6984  0.4102  2.3516
   59MOL0     H 7936  11.702   8.555   3.963  3.1986  1.9781 -0.8070
   59MOL0     H 7937  11.683   8.500   4.225 -1.7059  1.1869 -0.7849
   59MOL0     H 7938  11.721   8.663   4.250 -0.0906  1.7226 -1.1312
   59MOL0     H 7939  11.901   8.477   4.078  1.0065 -1.6309  2.1244
   59MOL0     H 7940  11.943   8.628   4.134 -0.7948  0.9408 -0.5262
   59MOL0     H 7941  11.904   8.363   4.274 -1.2219  0.5304  1.7377
   59MOL0     H 7942  11.894   8.507   4.372  0.7520 -2.0773  0.4850
   59MOL0     H 7943  12.117   8.578   4.292 -1.1741  0.5093  0.9921
   59MOL0     H 7944  12.108   8.421   4.373 -0.7178  2.5541  2.2003
   59MOL0     H 7945  11.108   8.661   4.098 -0.2416 -0.4446  1.8998
   59MOL0     H 7946  10.859   8.618   4.068  0.6537 -0.6882  2.4990
   59MOL0     H 7947  10.567   8.625   3.549  3.2064 -3.1920  1.3730
   59MOL0     H 7948  10.315   8.640   3.527  0.1896  0.5156 -0.2857
   59MOL0     H 7949   8.777   8.038   2.923 -0.0866 -1.8299  0.1587
   59MOL0     H 7950   8.603   7.861   2.987  2.5088 -0.4214 -0.8258
   59MOL0     H 7951   8.300   7.803   3.263  1.3249 -2.7978  0.2080
   59MOL0     H 7952   8.127   7.707   3.416 -2.2745  2.0274  0.8559
   59MOL0     H 7953   7.831   7.680   3.537  2.6951  1.0918  0.8759
   59MOL0     H 7954   7.990   7.610   3.511  0.1665  0.8411  1.1896
   59MOL0     H 7955   7.714   7.464   3.478 -0.1374 -1.2568  1.3474
   59MOL0     H 7956   7.839   7.433   3.588  1.2160  0.0976  0.0249
   59MOL0     H 7957   7.865   7.380   3.280 -1.9213 -2.7006 -1.1710
   59MOL0     H 7958   7.819   7.261   3.398  0.1097 -0.8041 -3.0383
   59MOL0     H 7959   8.084   7.401   3.367  0.6870 -0.8198 -1.3223
   59MOL0     H 7960   8.049   7.322   3.519  2.5681  0.2482 -1.1302
   59MOL0     H 7961   8.075   6.994   3.248  0.3363 -0.8637  3.2308
   59MOL0     H 7962   7.884   7.630   3.076  0.6031 -2.9664  0.9306
   59MOL0     H 7963   7.984   7.593   2.869  2.1768 -1.0301 -1.8425
   59MOL0     H 7964   8.000   7.761   2.842  1.4551  1.6349  0.3816
   59MOL0     H 7965   8.149   7.660   2.831 -0.0086  0.7217  1.1137
   60MOL0     O 7966   0.149   4.696   8.258  0.6063  0.0783  0.5920
   60MOL0     C 7967   0.099   4.597   8.196 -0.0145 -0.1851 -0.3391
   60MOL0     O 7968   0.163   4.522   8.104 -0.2958  0.0189 -0.2744
   60MOL0     C 7969   0.300   4.537   8.101  0.1110  1.2112 -0.2626
   60MOL0     C 7970   0.373   4.488   8.207  0.4403  0.2969  0.8750
   60MOL0     C 7971   0.511   4.494   8.199  0.7047 -0.1589 -0.1743
   60MOL0     C 7972   0.583   4.555   8.089  0.8622 -1.3477 -0.1850
   60MOL0     O 7973   0.721   4.538   8.084  0.1962 -0.2127  0.2783
   60MOL0     C 7974   0.794   4.587   7.968  0.3144 -0.1672 -0.1891
   60MOL0     C 7975   0.928   4.523   7.973 -0.0965 -0.6318 -0.4171
   60MOL0     C 7976   1.028   4.594   7.882 -0.2613  1.6194  0.6874
   60MOL0     C 7977   1.069   4.735   7.921  0.4001  0.2396 -0.0213
   60MOL0     C 7978   1.180   4.789   7.825  0.2764  0.3064 -0.4136
   60MOL0     C 7979   1.327   4.752   7.857  0.4973 -0.0466 -0.7517
   60MOL0     C 7980   1.431   4.856   7.811  0.9831  0.0596  0.8832
   60MOL0     C 7981   1.577   4.796   7.819 -0.3300  0.6770  0.5981
   60MOL0     N 7982   1.615   4.753   7.685  0.6942  0.3488  0.2944
   60MOL0     C 7983   1.712   4.813   7.603 -1.2706  0.2251  0.1443
   60MOL0     C 7984   1.713   4.731   7.489  0.3722 -0.1723 -0.5251
   60MOL0     C 7985   1.794   4.744   7.367 -0.9583  0.0185 -0.3428
   60MOL0     C 7986   1.948   4.801   7.391  0.2096  0.3646 -0.3052
   60MOL0     C 7987   1.951   4.950   7.349  0.6051  0.0118 -0.2379
   60MOL0     C 7988   2.081   5.010   7.395 -0.3542 -0.7998 -0.4247
   60MOL0     O 7989   2.075   5.151   7.381 -0.2153 -0.3613  0.1460
   60MOL0     C 7990   2.181   5.219   7.436 -0.0475  0.1614  0.1787
   60MOL0     C 7991   2.170   5.260   7.566 -0.1612  0.8248  0.4208
   60MOL0     C 7992   2.268   5.338   7.627 -0.1938 -0.1437  1.3437
   60MOL0     C 7993   2.376   5.386   7.547 -0.4773 -0.5556 -0.0586
   60MOL0     C 7994   2.487   5.467   7.605  0.4878  0.3288 -0.2098
   60MOL0     O 7995   2.470   5.510   7.738 -0.6539 -0.4094  1.1837
   60MOL0     C 7996   2.584   5.523   7.811 -0.0895 -0.1191  0.0216
   60MOL0     C 7997   2.690   5.613   7.784 -0.1384 -0.2706  0.2850
   60MOL0     C 7998   2.804   5.608   7.865 -0.5980 -0.1765 -0.4818
   60MOL0     C 7999   2.822   5.507   7.963  0.7382 -0.8387  1.1922
   60MOL0     O 8000   2.947   5.505   8.022  0.3405  0.5296 -0.0114
   60MOL0     C 8001   2.966   5.411   8.132 -0.1624  0.2813  0.6270
   60MOL0     C 8002   3.100   5.454   8.197 -0.1796  1.0338  0.7122
   60MOL0     C 8003   3.139   5.350   8.294  0.6851 -0.5514  0.6210
   60MOL0     C 8004   3.287   5.359   8.329 -0.7012 -0.1976  0.3169
   60MOL0     C 8005   3.332   5.268   8.438  0.2398 -0.4592  0.3154
   60MOL0     C 8006   3.475   5.301   8.485 -0.8255  0.4878  0.4164
   60MOL0     C 8007   3.594   5.251   8.406 -0.1704 -0.0940  0.2612
   60MOL0     C 8008   3.612   5.099   8.414  0.0094 -0.0242 -0.7469
   60MOL0    Cl 8009   3.740   5.058   8.309 -0.0190  0.1405 -0.0678
   60MOL0     C 8010   2.715   5.425   7.989  0.3693 -0.4423  0.3199
   60MOL0     C 8011   2.600   5.437   7.909 -0.4610  0.7033 -0.1501
   60MOL0     O 8012   2.587   5.487   7.535 -0.1348 -0.4468 -0.4417
   60MOL0     C 8013   2.379   5.356   7.403  1.2043  0.3852 -0.8923
   60MOL0     C 8014   2.282   5.274   7.355  0.3903  0.1667  0.0079
   60MOL0     N 8015   1.640   4.617   7.513  0.1447 -0.1180 -0.0394
   60MOL0     N 8016   1.591   4.625   7.632 -0.2615 -0.6817 -0.3936
   60MOL0     C 8017   0.502   4.614   7.994  0.1379 -0.6915  0.1844
   60MOL0     C 8018   0.363   4.607   7.993 -0.4835 -0.1707 -0.3904
   60MOL0     C 8019  -0.050   4.570   8.196  0.3387 -0.6319 -0.1751
   60MOL0     C 8020  -0.106   4.454   8.141 -0.0010  0.1046 -0.2248
   60MOL0     C 8021  -0.242   4.429   8.143  0.5837  0.3744  0.7936
   60MOL0     C 8022  -0.333   4.522   8.188  0.4501  0.6824 -0.0079
   60MOL0     O 8023  -0.463   4.493   8.169  0.6727 -0.0246  0.1907
   60MOL0     C 8024  -0.505   4.387   8.247  0.2178 -0.0991  0.2845
   60MOL0     C 8025  -0.651   4.373   8.197  0.1247 -0.8609  0.0754
   60MOL0     C 8026  -0.672   4.340   8.055 -0.2499  0.0276 -0.8514
   60MOL0     C 8027  -0.800   4.386   7.994 -0.1778  0.4489 -0.2665
   60MOL0     C 8028  -0.920   4.306   8.043 -1.2345 -0.1649  0.2939
   60MOL0     C 8029  -0.995   4.227   8.095  0.0474  0.1139  0.6914
   60MOL0     C 8030  -0.286   4.635   8.243 -0.3940 -1.0093  1.1426
   60MOL0     C 8031  -0.146   4.668   8.247  0.2339 -0.3244  0.3446
   60MOL0     C 8032  -0.115   4.793   8.330  0.4096 -0.4742  0.0221
   60MOL0     H 8033   0.325   4.445   8.294 -0.2255 -1.1500 -0.1571
   60MOL0     H 8034   0.574   4.442   8.271 -1.8097 -2.9837  0.1426
   60MOL0     H 8035   0.762   4.578   7.863  2.4075  0.0926 -0.9014
   60MOL0     H 8036   0.818   4.694   7.973  3.0913 -0.7637  0.5260
   60MOL0     H 8037   0.923   4.416   7.952  2.5659 -1.1902  1.3014
   60MOL0     H 8038   0.966   4.533   8.075 -3.5541  3.6282  0.7635
   60MOL0     H 8039   0.990   4.589   7.780 -1.8233 -1.2817  1.2912
   60MOL0     H 8040   1.117   4.532   7.876 -0.8437  0.7339  0.9999
   60MOL0     H 8041   0.984   4.803   7.910 -1.1280 -1.3588  1.3496
   60MOL0     H 8042   1.104   4.733   8.025  2.2240  1.8587 -0.5559
   60MOL0     H 8043   1.162   4.763   7.720  1.0582 -0.6660 -0.3192
   60MOL0     H 8044   1.173   4.897   7.845 -2.3606 -0.1255  1.5073
   60MOL0     H 8045   1.345   4.758   7.964 -0.1347  1.6657 -0.6981
   60MOL0     H 8046   1.346   4.648   7.830 -0.8424 -0.5080  0.0061
   60MOL0     H 8047   1.420   4.939   7.881 -1.6415  1.8595 -1.4443
   60MOL0     H 8048   1.419   4.902   7.712 -3.1923  0.3450  1.3648
   60MOL0     H 8049   1.645   4.869   7.863  1.0246  0.0649 -0.4366
   60MOL0     H 8050   1.563   4.712   7.888 -0.8847 -1.6586 -2.1686
   60MOL0     H 8051   1.768   4.905   7.620 -2.1779  0.9123 -0.5099
   60MOL0     H 8052   1.808   4.644   7.326 -0.5248 -0.1758  0.2561
   60MOL0     H 8053   1.736   4.811   7.303 -1.2674 -0.7206 -0.8407
   60MOL0     H 8054   1.997   4.784   7.487  2.0763  0.9080 -1.0914
   60MOL0     H 8055   2.013   4.739   7.328 -1.4317 -0.7804 -0.9125
   60MOL0     H 8056   1.868   5.002   7.397  0.3744  0.8568 -1.5118
   60MOL0     H 8057   1.937   4.952   7.240  1.5243 -0.4441 -0.3809
   60MOL0     H 8058   2.157   4.971   7.327 -0.4924 -1.7926 -0.0280
   60MOL0     H 8059   2.118   4.981   7.494 -2.1406 -0.0307  0.5073
   60MOL0     H 8060   2.084   5.219   7.618 -1.5679  1.3744 -1.3558
   60MOL0     H 8061   2.268   5.346   7.736 -1.3187  0.8606  1.3011
   60MOL0     H 8062   2.683   5.682   7.700 -0.7864 -0.1238  0.4493
   60MOL0     H 8063   2.889   5.669   7.838  3.0445 -3.5397  2.1897
   60MOL0     H 8064   2.893   5.414   8.214  0.4109  0.1827  1.1464
   60MOL0     H 8065   2.977   5.313   8.084  0.8191  1.2830 -1.2922
   60MOL0     H 8066   3.177   5.467   8.120  0.7021  0.3806  1.4447
   60MOL0     H 8067   3.090   5.552   8.245 -0.3435  0.3725  2.0882
   60MOL0     H 8068   3.077   5.357   8.384  0.9731 -1.4327  0.9052
   60MOL0     H 8069   3.122   5.251   8.250  0.7941 -1.1343  1.8599
   60MOL0     H 8070   3.321   5.459   8.357 -2.3550  0.3449  0.4703
   60MOL0     H 8071   3.340   5.326   8.239 -0.9326  3.3316 -1.2616
   60MOL0     H 8072   3.316   5.162   8.415 -0.1930 -0.2254 -0.4942
   60MOL0     H 8073   3.268   5.283   8.525  1.7655  1.3202  1.2074
   60MOL0     H 8074   3.488   5.409   8.475 -1.4605  0.8001  2.5603
   60MOL0     H 8075   3.498   5.273   8.588  2.0412 -1.8485 -0.7006
   60MOL0     H 8076   3.683   5.304   8.441  0.6952 -0.5382 -1.1797
   60MOL0     H 8077   3.587   5.280   8.301 -0.2512  1.2416  0.6174
   60MOL0     H 8078   3.638   5.070   8.516  1.0776  0.5903 -0.8183
   60MOL0     H 8079   3.526   5.042   8.380  0.4896 -1.4273  0.2875
   60MOL0     H 8080   2.726   5.341   8.057  0.5383 -1.8284 -1.3544
   60MOL0     H 8081   2.513   5.375   7.927 -0.7210  0.6699 -1.4465
   60MOL0     H 8082   2.463   5.385   7.340  1.0808 -0.2501 -1.3602
   60MOL0     H 8083   2.279   5.235   7.254  2.1433 -1.6577  0.6080
   60MOL0     H 8084   0.542   4.677   7.915  0.5633  0.4311  1.2555
   60MOL0     H 8085   0.300   4.664   7.925  0.2115  0.5547 -0.4430
   60MOL0     H 8086  -0.035   4.388   8.092  1.2603  2.1838 -1.3488
   60MOL0     H 8087  -0.289   4.345   8.094 -0.4404  1.8547 -0.8975
   60MOL0     H 8088  -0.510   4.420   8.351 -0.0964  2.0725 -0.3683
   60MOL0     H 8089  -0.456   4.289   8.239 -1.9771 -1.2398  0.1518
   60MOL0     H 8090  -0.690   4.473   8.215  0.8186 -0.9966  2.8437
   60MOL0     H 8091  -0.709   4.299   8.254 -0.7763 -1.1848 -1.2104
   60MOL0     H 8092  -0.659   4.232   8.046  3.7581 -0.1177  3.1144
   60MOL0     H 8093  -0.591   4.387   7.999 -0.5812 -0.0195 -1.3731
   60MOL0     H 8094  -0.815   4.493   8.011 -0.8277  0.1680  1.0957
   60MOL0     H 8095  -0.787   4.364   7.888  1.5959  0.5705 -0.1066
   60MOL0     H 8096  -1.065   4.154   8.128 -1.1727  1.0818  0.3212
   60MOL0     H 8097  -0.361   4.701   8.284 -0.2396 -1.1478  1.6691
   60MOL0     H 8098  -0.203   4.810   8.393  1.2807 -0.2973  1.2192
   60MOL0     H 8099  -0.019   4.780   8.381  1.2108 -2.8354 -1.8827
   60MOL0     H 8100  -0.104   4.876   8.259  0.7015 -0.0706  0.5313
   61MOL0     O 8101   1.863   7.388   2.148 -0.1433 -0.3592  0.3289
   61MOL0     C 8102   1.802   7.300   2.205  1.1305 -0.4156  0.3733
   61MOL0     O 8103   1.863   7.188   2.261 -0.1195 -0.6422 -0.1817
   61MOL0     C 8104   2.000   7.183   2.260 -0.5152 -0.6791  0.7032
   61MOL0     C 8105   2.078   7.109   2.167 -0.0003  0.3934 -0.1784
   61MOL0     C 8106   2.220   7.108   2.171  0.3275 -0.2142  0.7146
   61MOL0     C 8107   2.284   7.189   2.259 -0.0493 -0.1219  0.1721
   61MOL0     O 8108   2.423   7.188   2.244  0.1695 -0.6156 -0.4824
   61MOL0     C 8109   2.503   7.271   2.341  0.0238  0.3593 -0.2928
   61MOL0     C 8110   2.644   7.263   2.292  0.4063 -0.3272  0.9230
   61MOL0     C 8111   2.732   7.372   2.348 -0.0527 -0.5771 -0.4783
   61MOL0     C 8112   2.877   7.328   2.352 -0.5538  0.4701  0.8560
   61MOL0     C 8113   2.957   7.426   2.438 -0.6508 -0.4713 -0.8852
   61MOL0     C 8114   3.101   7.428   2.385  0.2095 -0.0594  0.2390
   61MOL0     C 8115   3.196   7.529   2.450 -0.0912 -0.6320 -0.0176
   61MOL0     C 8116   3.333   7.502   2.393  0.3115 -0.6167 -0.3401
   61MOL0     N 8117   3.426   7.613   2.426 -0.0797 -0.5448  0.1512
   61MOL0     C 8118   3.478   7.639   2.556 -0.0787 -0.1241 -0.4211
   61MOL0     C 8119   3.588   7.711   2.528 -0.1428  0.0996 -0.3427
   61MOL0     C 8120   3.679   7.765   2.627  0.7406 -0.0247 -0.1687
   61MOL0     C 8121   3.811   7.711   2.621 -1.5221 -0.8392 -0.1904
   61MOL0     C 8122   3.909   7.810   2.700 -0.6550 -0.4298  0.1607
   61MOL0     C 8123   4.052   7.752   2.723  0.1570 -0.2203  0.3361
   61MOL0     O 8124   4.109   7.844   2.818  0.0693  0.1714 -0.1489
   61MOL0     C 8125   4.232   7.809   2.873 -0.1713  0.2584  0.3429
   61MOL0     C 8126   4.264   7.886   2.985 -0.4371  0.3480  0.1251
   61MOL0     C 8127   4.384   7.857   3.062 -0.0918  0.1984  0.2671
   61MOL0     C 8128   4.472   7.754   3.016 -0.3929  0.3972  0.6489
   61MOL0     C 8129   4.607   7.737   3.067  0.2316 -0.3233 -0.7136
   61MOL0     O 8130   4.637   7.795   3.183  0.5049  0.5685 -0.4799
   61MOL0     C 8131   4.766   7.768   3.235  0.7060 -0.0814 -0.1945
   61MOL0     C 8132   4.860   7.862   3.213 -0.2398 -0.4203 -0.6724
   61MOL0     C 8133   4.990   7.840   3.271 -0.0376 -0.5750 -0.5468
   61MOL0     C 8134   5.022   7.724   3.340 -0.5376  0.1566 -0.6609
   61MOL0     O 8135   5.148   7.722   3.405  0.0070 -0.0183 -0.0901
   61MOL0     C 8136   5.180   7.603   3.479  0.2037  0.0734  0.1692
   61MOL0     C 8137   5.308   7.627   3.556  0.0425  0.1146  0.1267
   61MOL0     C 8138   5.327   7.548   3.682  0.8063  0.2835  1.1112
   61MOL0     C 8139   5.469   7.545   3.731  0.0290  0.5172  1.0757
   61MOL0     C 8140   5.552   7.434   3.663 -1.0187 -0.8676  0.3320
   61MOL0     C 8141   5.698   7.431   3.714  0.3424  0.4508 -0.0119
   61MOL0     C 8142   5.810   7.351   3.634  0.0089  0.0745  0.5519
   61MOL0     C 8143   5.952   7.387   3.686  0.2979 -1.0555 -0.0759
   61MOL0    Cl 8144   6.083   7.304   3.580 -0.2277  0.3242 -0.2654
   61MOL0     C 8145   4.919   7.630   3.355  0.1426  0.2586 -1.4365
   61MOL0     C 8146   4.791   7.652   3.305 -0.0761  0.1214  0.6247
   61MOL0     O 8147   4.684   7.684   2.992  0.2938  0.1117  0.1918
   61MOL0     C 8148   4.422   7.672   2.911 -0.5448 -0.4212  0.4646
   61MOL0     C 8149   4.309   7.696   2.843  0.6114 -0.4323  0.5102
   61MOL0     N 8150   3.595   7.739   2.396  0.3337  0.0683  0.1240
   61MOL0     N 8151   3.498   7.687   2.334  0.0417 -0.4464  0.4451
   61MOL0     C 8152   2.215   7.254   2.358  0.2546 -0.5750 -0.5443
   61MOL0     C 8153   2.077   7.264   2.354  0.1447  1.3139  0.9165
   61MOL0     C 8154   1.650   7.315   2.246  0.5709 -0.1117 -0.0177
   61MOL0     C 8155   1.613   7.236   2.352  0.2546 -0.2757 -0.3467
   61MOL0     C 8156   1.473   7.219   2.387  0.5105  0.4503 -0.8244
   61MOL0     C 8157   1.377   7.279   2.317 -0.6054  0.0991  0.7437
   61MOL0     O 8158   1.240   7.275   2.339 -0.1620 -0.3224  0.1212
   61MOL0     C 8159   1.191   7.160   2.409 -0.3590  0.6685  0.3638
   61MOL0     C 8160   1.042   7.120   2.364 -0.9193 -0.4273 -0.4111
   61MOL0     C 8161   0.978   7.014   2.452  0.3377  0.2807 -0.3983
   61MOL0     C 8162   0.953   7.079   2.593 -0.0583 -0.8969  0.6985
   61MOL0     C 8163   0.843   7.000   2.640 -0.2102  0.3220 -0.5753
   61MOL0     C 8164   0.747   6.940   2.679 -0.2796  0.0756  0.1115
   61MOL0     C 8165   1.417   7.364   2.208  0.9594 -0.2476 -0.9856
   61MOL0     C 8166   1.549   7.382   2.177  0.0358  0.0296  0.0862
   61MOL0     C 8167   1.587   7.475   2.065  0.1679 -0.0827 -0.0005
   61MOL0     H 8168   2.038   7.040   2.093  2.3089  0.9447 -2.0297
   61MOL0     H 8169   2.266   7.053   2.089 -1.5746 -0.0563 -0.5266
   61MOL0     H 8170   2.477   7.377   2.342  2.7984  1.2614  3.7704
   61MOL0     H 8171   2.505   7.234   2.444  2.1520 -0.7065 -0.6564
   61MOL0     H 8172   2.631   7.261   2.183  0.9770 -0.6965  0.8596
   61MOL0     H 8173   2.682   7.165   2.323  1.9582 -0.7918 -2.0759
   61MOL0     H 8174   2.698   7.395   2.449 -1.1728 -1.1950 -0.6954
   61MOL0     H 8175   2.731   7.464   2.289 -0.9098 -1.2611 -1.5660
   61MOL0     H 8176   2.888   7.225   2.388 -1.6583 -1.6453 -3.9655
   61MOL0     H 8177   2.917   7.317   2.250 -1.5870  0.6325  0.4197
   61MOL0     H 8178   2.914   7.526   2.427  2.3347  1.4776  2.7522
   61MOL0     H 8179   2.959   7.409   2.546  1.5327  4.7525  0.2153
   61MOL0     H 8180   3.131   7.323   2.396  0.1282 -0.2198 -0.9847
   61MOL0     H 8181   3.085   7.455   2.281 -0.4352 -0.1163  0.3168
   61MOL0     H 8182   3.203   7.522   2.558 -1.7699  0.4085  0.1977
   61MOL0     H 8183   3.166   7.630   2.420  2.1625  0.3502  0.8585
   61MOL0     H 8184   3.387   7.415   2.433  1.6636  0.0834 -0.5674
   61MOL0     H 8185   3.334   7.493   2.284  0.7954  3.8256 -0.9082
   61MOL0     H 8186   3.440   7.596   2.648  0.6795 -0.2463 -0.1574
   61MOL0     H 8187   3.692   7.872   2.614 -3.1977  0.6924  0.7006
   61MOL0     H 8188   3.641   7.756   2.729  2.6081 -0.6768  0.5252
   61MOL0     H 8189   3.808   7.612   2.669 -2.5911  0.3368  2.3521
   61MOL0     H 8190   3.843   7.710   2.516 -2.1762  1.3091 -0.4603
   61MOL0     H 8191   3.860   7.836   2.795  1.2302 -0.6538  1.2373
   61MOL0     H 8192   3.916   7.903   2.643 -1.2736  0.0867  0.9087
   61MOL0     H 8193   4.112   7.748   2.632  1.2462  3.8216  0.6740
   61MOL0     H 8194   4.051   7.653   2.770  2.7740  0.3578  1.8130
   61MOL0     H 8195   4.184   7.953   3.014 -1.2015 -1.4209  2.4255
   61MOL0     H 8196   4.413   7.914   3.149 -0.9372  1.3733 -0.2012
   61MOL0     H 8197   4.832   7.958   3.171 -0.6737 -0.2020  0.0861
   61MOL0     H 8198   5.065   7.918   3.273  0.5381 -1.0446  3.4005
   61MOL0     H 8199   5.105   7.589   3.558 -0.1321 -0.9295 -0.3102
   61MOL0     H 8200   5.191   7.513   3.418 -1.4536 -1.5154  2.0472
   61MOL0     H 8201   5.386   7.604   3.483  0.1859 -0.4026  0.4402
   61MOL0     H 8202   5.321   7.734   3.577  0.1703  0.2687 -0.6879
   61MOL0     H 8203   5.273   7.596   3.764  1.8542  0.1004  1.9211
   61MOL0     H 8204   5.293   7.445   3.665 -2.7732  1.8386 -3.5446
   61MOL0     H 8205   5.461   7.519   3.837 -0.0165 -2.2630  0.4733
   61MOL0     H 8206   5.506   7.646   3.713 -2.3612  0.8331 -3.4367
   61MOL0     H 8207   5.541   7.440   3.554 -0.1186  0.7722  0.3109
   61MOL0     H 8208   5.504   7.336   3.665 -1.1917 -0.8194 -0.7640
   61MOL0     H 8209   5.725   7.537   3.724 -0.8583  0.7151  0.5931
   61MOL0     H 8210   5.692   7.403   3.820 -0.6024 -2.3148 -0.7395
   61MOL0     H 8211   5.812   7.373   3.527 -2.7176  1.1441  0.6373
   61MOL0     H 8212   5.796   7.243   3.638 -2.8103  0.3753  0.8580
   61MOL0     H 8213   5.972   7.494   3.693  0.9135 -1.2433  1.3252
   61MOL0     H 8214   5.971   7.361   3.790  0.0021 -0.5504  0.1085
   61MOL0     H 8215   4.935   7.541   3.416  0.5464  2.0790  1.2990
   61MOL0     H 8216   4.714   7.575   3.304  1.2694 -1.2691 -0.4368
   61MOL0     H 8217   4.473   7.580   2.883 -0.1997  0.6133 -2.6987
   61MOL0     H 8218   4.278   7.629   2.763  0.1241  1.5259 -1.0139
   61MOL0     H 8219   2.258   7.308   2.442  1.3550 -3.9253  1.2301
   61MOL0     H 8220   2.015   7.322   2.421  0.1312  2.2311  0.1137
   61MOL0     H 8221   1.687   7.182   2.411 -0.3224 -0.4089  0.2702
   61MOL0     H 8222   1.454   7.152   2.470  0.8562  0.9046 -0.3745
   61MOL0     H 8223   1.180   7.187   2.515 -0.0128  0.5293  0.4351
   61MOL0     H 8224   1.246   7.066   2.411 -2.7833 -0.9203 -1.2482
   61MOL0     H 8225   1.054   7.070   2.267 -1.4048  0.0193 -0.7040
   61MOL0     H 8226   0.982   7.211   2.359  0.5887  0.5620 -1.5345
   61MOL0     H 8227   1.036   6.921   2.457 -1.0067 -0.6035 -0.7834
   61MOL0     H 8228   0.885   6.989   2.402 -0.7200  2.6241  0.2707
   61MOL0     H 8229   1.044   7.077   2.655  2.8393 -0.3615 -3.1295
   61MOL0     H 8230   0.915   7.180   2.581  0.5316 -0.9021 -1.5646
   61MOL0     H 8231   0.664   6.880   2.710  1.3371 -1.0721  2.5571
   61MOL0     H 8232   1.335   7.403   2.149 -0.2120 -1.2493 -0.0637
   61MOL0     H 8233   1.498   7.533   2.039 -0.7741 -1.4481  0.0616
   61MOL0     H 8234   1.668   7.541   2.096 -0.8328  1.9805 -1.5119
   61MOL0     H 8235   1.614   7.428   1.970 -2.0198  1.3395 -1.4203
   62MOL0     O 8236   6.388   8.846   5.863 -0.4143 -0.2878  0.1558
   62MOL0     C 8237   6.409   8.968   5.861  0.8933 -0.9188  0.1583
   62MOL0     O 8238   6.338   9.058   5.941 -0.2739 -0.3972 -0.6419
   62MOL0     C 8239   6.222   9.015   5.989 -0.0926  0.4225 -0.5087
   62MOL0     C 8240   6.106   9.050   5.924 -0.7857 -0.4501 -0.5289
   62MOL0     C 8241   5.982   8.993   5.962 -0.1085 -0.5937  0.2678
   62MOL0     C 8242   5.974   8.902   6.065  0.3070 -0.6195  0.2251
   62MOL0     O 8243   5.849   8.880   6.105  0.0584  0.2232 -0.4843
   62MOL0     C 8244   5.763   8.824   6.000 -0.5663 -0.0176 -0.5552
   62MOL0     C 8245   5.627   8.772   6.061 -0.1864  0.1061 -0.8319
   62MOL0     C 8246   5.524   8.888   6.088 -0.1544 -0.0332 -0.1040
   62MOL0     C 8247   5.403   8.831   6.157  1.0108 -0.6170  0.1351
   62MOL0     C 8248   5.280   8.924   6.152 -0.6306  1.1916 -0.5195
   62MOL0     C 8249   5.146   8.856   6.181 -0.6079 -0.1337  0.6737
   62MOL0     C 8250   5.027   8.951   6.140 -0.2517 -0.3961 -0.3271
   62MOL0     C 8251   4.911   8.856   6.119  0.9741  0.7488 -0.6406
   62MOL0     N 8252   4.774   8.916   6.108 -0.3480 -0.0680 -0.1055
   62MOL0     C 8253   4.698   8.963   6.209 -0.1844 -0.5418 -0.6024
   62MOL0     C 8254   4.576   9.003   6.141 -0.6547 -0.4377  0.5793
   62MOL0     C 8255   4.455   9.068   6.196  0.5727  0.4513 -0.5104
   62MOL0     C 8256   4.436   9.002   6.332 -0.2966  0.3239  0.1799
   62MOL0     C 8257   4.410   8.849   6.329 -1.0786 -1.2219  0.6667
   62MOL0     C 8258   4.422   8.788   6.466 -0.9038  0.4502  0.3677
   62MOL0     O 8259   4.549   8.800   6.526 -0.2137 -0.9104 -0.2665
   62MOL0     C 8260   4.652   8.720   6.480 -0.4989 -0.4138 -0.0473
   62MOL0     C 8261   4.644   8.631   6.378  0.4588 -0.6397  0.1862
   62MOL0     C 8262   4.771   8.566   6.340  0.1516 -0.1168  0.2175
   62MOL0     C 8263   4.891   8.595   6.398  0.1440 -1.0129  0.5390
   62MOL0     C 8264   5.019   8.541   6.356  0.2910  0.3890 -0.2259
   62MOL0     O 8265   5.135   8.593   6.408 -0.4683 -0.3086 -0.4832
   62MOL0     C 8266   5.258   8.547   6.363 -0.5818 -0.0773 -0.5042
   62MOL0     C 8267   5.356   8.599   6.444  0.0585 -0.4135 -0.2422
   62MOL0     C 8268   5.491   8.571   6.421  0.4153 -0.3562  0.8557
   62MOL0     C 8269   5.523   8.494   6.303 -1.2731 -0.1053  0.8952
   62MOL0     O 8270   5.663   8.484   6.283  0.6292 -0.1878 -0.7351
   62MOL0     C 8271   5.699   8.405   6.174  0.0665  0.5992  0.0147
   62MOL0     C 8272   5.846   8.377   6.175 -0.7148 -0.8916  0.3220
   62MOL0     C 8273   5.890   8.313   6.309  0.6331 -0.6868 -0.1865
   62MOL0     C 8274   6.041   8.290   6.299  1.0005  0.2735 -0.7185
   62MOL0     C 8275   6.092   8.267   6.440 -0.6208  0.2890 -0.7766
   62MOL0     C 8276   6.222   8.177   6.437 -0.7501 -0.1459 -0.1507
   62MOL0     C 8277   6.352   8.268   6.435 -0.2019  0.7846  1.0150
   62MOL0     C 8278   6.374   8.318   6.297  1.0206 -0.4530 -0.1806
   62MOL0    Cl 8279   6.547   8.336   6.275  0.2667  0.3748 -0.8218
   62MOL0     C 8280   5.427   8.435   6.226  0.9822  0.1808  0.7623
   62MOL0     C 8281   5.297   8.452   6.260 -0.4512 -0.0314 -1.1634
   62MOL0     O 8282   5.010   8.459   6.259 -0.0605 -1.0269 -0.7773
   62MOL0     C 8283   4.896   8.687   6.504  1.2831 -0.5748 -0.5555
   62MOL0     C 8284   4.778   8.740   6.546 -0.8053 -0.7989 -0.7754
   62MOL0     N 8285   4.598   8.978   6.006 -0.0300  0.0636 -0.3463
   62MOL0     N 8286   4.716   8.929   5.991 -0.6118  0.4143 -0.2635
   62MOL0     C 8287   6.087   8.859   6.133  0.6161 -0.8278 -0.1448
   62MOL0     C 8288   6.208   8.917   6.091  0.0780  0.6372  0.1329
   62MOL0     C 8289   6.544   9.019   5.807  0.1546  0.1375 -0.3689
   62MOL0     C 8290   6.615   9.112   5.889  0.1582 -0.1730 -0.2527
   62MOL0     C 8291   6.738   9.163   5.844  0.2044 -0.3336 -0.0022
   62MOL0     C 8292   6.797   9.121   5.725  0.0989  0.5426 -0.0844
   62MOL0     O 8293   6.921   9.162   5.698 -0.4153  0.5515 -0.0062
   62MOL0     C 8294   6.914   9.294   5.630 -0.7715 -0.1450  0.5042
   62MOL0     C 8295   7.064   9.353   5.618  0.2505 -0.8851  0.1396
   62MOL0     C 8296   7.162   9.250   5.569  0.0425  0.0826 -0.3090
   62MOL0     C 8297   7.305   9.307   5.578 -0.4459 -0.2742 -0.3704
   62MOL0     C 8298   7.397   9.199   5.537  0.3433 -0.2901  0.8175
   62MOL0     C 8299   7.472   9.107   5.505  0.9162 -0.4274 -0.0014
   62MOL0     C 8300   6.723   9.026   5.647 -0.1384  0.6139  0.5098
   62MOL0     C 8301   6.603   8.970   5.686  0.7755 -0.1432 -0.4656
   62MOL0     C 8302   6.544   8.868   5.589 -0.1501 -0.4441 -0.0603
   62MOL0     H 8303   6.122   9.109   5.834  1.5208 -0.2720 -0.0633
   62MOL0     H 8304   5.890   9.029   5.916 -1.7151 -3.1562  1.2824
   62MOL0     H 8305   5.737   8.891   5.917  1.8155  1.2314 -0.3728
   62MOL0     H 8306   5.816   8.736   5.961  0.9718  0.7658 -0.3110
   62MOL0     H 8307   5.654   8.726   6.157 -1.4679  1.0665  0.0251
   62MOL0     H 8308   5.583   8.694   5.999 -0.8681 -2.1320  2.1983
   62MOL0     H 8309   5.496   8.942   5.998 -2.4951  1.7333  1.5587
   62MOL0     H 8310   5.572   8.964   6.149 -0.9046  0.2637  0.1305
   62MOL0     H 8311   5.380   8.732   6.115  0.6643 -2.1520  3.6454
   62MOL0     H 8312   5.423   8.815   6.263  0.1395  0.5887  0.5059
   62MOL0     H 8313   5.296   9.006   6.223 -1.4067  1.2993 -0.4517
   62MOL0     H 8314   5.271   8.975   6.056  0.1240  0.8037 -0.7997
   62MOL0     H 8315   5.133   8.768   6.117 -4.4882  0.4364  0.4508
   62MOL0     H 8316   5.138   8.826   6.286  0.2883 -2.6995  0.0835
   62MOL0     H 8317   5.039   8.999   6.043  0.7248 -1.5764 -0.8120
   62MOL0     H 8318   4.994   9.016   6.221  2.9936 -1.9354  2.5066
   62MOL0     H 8319   4.941   8.811   6.023  2.6042  2.3301 -0.9277
   62MOL0     H 8320   4.906   8.777   6.195  1.8557  2.1723  0.9573
   62MOL0     H 8321   4.712   8.963   6.317 -0.2686 -0.7029 -0.5904
   62MOL0     H 8322   4.469   9.176   6.210 -1.9490  0.6529  1.2048
   62MOL0     H 8323   4.362   9.068   6.138  0.5526  1.4153 -0.5029
   62MOL0     H 8324   4.516   9.036   6.398 -0.7131  2.4773 -0.3683
   62MOL0     H 8325   4.350   9.052   6.376  0.2489  0.5264  1.0526
   62MOL0     H 8326   4.478   8.795   6.262 -1.2423  0.0082 -0.5328
   62MOL0     H 8327   4.307   8.831   6.296 -0.7005 -0.1657 -1.1844
   62MOL0     H 8328   4.400   8.681   6.462 -2.1991  0.7075 -2.5275
   62MOL0     H 8329   4.340   8.818   6.532 -0.9607  1.2132 -0.0393
   62MOL0     H 8330   4.553   8.615   6.321 -1.5798 -0.3022  3.1189
   62MOL0     H 8331   4.769   8.495   6.258 -0.5553  0.0305  0.1054
   62MOL0     H 8332   5.336   8.666   6.528  2.2285 -0.6929  0.5581
   62MOL0     H 8333   5.569   8.598   6.493 -1.6451  0.0345  3.0838
   62MOL0     H 8334   5.663   8.302   6.184 -0.1573  0.7286  0.5880
   62MOL0     H 8335   5.652   8.462   6.093 -4.5764 -2.1032  0.4359
   62MOL0     H 8336   5.877   8.304   6.100  0.4340  1.7957 -2.0124
   62MOL0     H 8337   5.898   8.470   6.150 -0.4890  0.1934  4.1677
   62MOL0     H 8338   5.855   8.376   6.390  0.1287  1.0638 -1.7075
   62MOL0     H 8339   5.842   8.215   6.318  1.7841 -1.0454  4.9241
   62MOL0     H 8340   6.099   8.373   6.258 -0.7016  0.5541 -2.7261
   62MOL0     H 8341   6.057   8.204   6.234 -0.7920  0.9477 -2.1199
   62MOL0     H 8342   6.020   8.212   6.500  3.2051 -2.0089  2.2034
   62MOL0     H 8343   6.110   8.364   6.487 -1.3333  1.0294 -1.9886
   62MOL0     H 8344   6.229   8.122   6.532  0.7902 -3.9194 -2.2277
   62MOL0     H 8345   6.224   8.100   6.360  1.5346 -1.4536  1.1010
   62MOL0     H 8346   6.435   8.197   6.449 -0.7836 -0.1887 -0.2305
   62MOL0     H 8347   6.363   8.341   6.515 -1.0515  1.4345  0.5480
   62MOL0     H 8348   6.331   8.263   6.213 -2.2975  3.1227 -1.1328
   62MOL0     H 8349   6.331   8.419   6.303 -0.5374 -1.1549  1.7476
   62MOL0     H 8350   5.442   8.369   6.141  0.1585  0.4514  0.3961
   62MOL0     H 8351   5.226   8.400   6.197 -1.9151  0.7156 -0.1861
   62MOL0     H 8352   4.984   8.711   6.563 -0.7879 -2.2704  3.7350
   62MOL0     H 8353   4.781   8.805   6.634 -0.3242 -0.5960 -0.9378
   62MOL0     H 8354   6.072   8.772   6.197  0.6305 -0.3751  0.4863
   62MOL0     H 8355   6.295   8.873   6.138  1.1308 -0.8404 -2.9286
   62MOL0     H 8356   6.569   9.135   5.984 -2.8429 -2.9752 -0.8490
   62MOL0     H 8357   6.784   9.238   5.907 -1.4736 -0.8203  1.9001
   62MOL0     H 8358   6.844   9.363   5.678  0.2593 -0.0058  1.8738
   62MOL0     H 8359   6.877   9.279   5.528 -1.1969  0.3392  0.5788
   62MOL0     H 8360   7.093   9.396   5.714 -1.2506  0.9603 -0.1881
   62MOL0     H 8361   7.064   9.441   5.554  0.3884 -1.1155 -0.1821
   62MOL0     H 8362   7.129   9.221   5.469  2.4893 -1.6258 -0.7071
   62MOL0     H 8363   7.167   9.158   5.627 -1.5797 -0.1219 -0.4682
   62MOL0     H 8364   7.325   9.398   5.521 -1.0204  0.1656  0.1141
   62MOL0     H 8365   7.329   9.326   5.683  2.3942  2.3143 -1.3219
   62MOL0     H 8366   7.542   9.030   5.479  0.9656 -0.9695  1.6244
   62MOL0     H 8367   6.772   9.005   5.552 -2.5864  0.9942 -0.9544
   62MOL0     H 8368   6.436   8.857   5.609  0.0721 -2.2214  0.3149
   62MOL0     H 8369   6.555   8.904   5.487  0.0723  1.8647  0.7222
   62MOL0     H 8370   6.584   8.767   5.604  0.6235  0.0480  1.3435
   63MOL0     O 8371   5.515   6.098   0.146  0.3230 -0.5771 -0.5776
   63MOL0     C 8372   5.463   6.183   0.074  0.4326  1.1472  0.1108
   63MOL0     O 8373   5.524   6.261  -0.026 -0.1815  0.4389 -0.4484
   63MOL0     C 8374   5.656   6.259  -0.031  0.2852  0.3110 -0.5653
   63MOL0     C 8375   5.727   6.145  -0.074  0.9658 -0.0007 -0.6174
   63MOL0     C 8376   5.865   6.136  -0.063  0.4398  1.0401 -0.0955
   63MOL0     C 8377   5.938   6.246  -0.036  0.1984 -0.5104 -0.3686
   63MOL0     O 8378   6.073   6.229  -0.027  0.3619  0.8533 -0.3407
   63MOL0     C 8379   6.131   6.265   0.101  0.7472  0.3959  0.6920
   63MOL0     C 8380   6.269   6.203   0.092 -0.3803  0.5985 -0.2976
   63MOL0     C 8381   6.351   6.241   0.216  1.2968 -0.3210  0.7736
   63MOL0     C 8382   6.493   6.198   0.212 -0.3826  1.0297  0.7145
   63MOL0     C 8383   6.579   6.193   0.339 -0.4364 -1.2574 -0.4193
   63MOL0     C 8384   6.575   6.323   0.420  0.3381  0.2265  0.1085
   63MOL0     C 8385   6.712   6.350   0.491 -0.0690  0.6893 -0.3692
   63MOL0     C 8386   6.725   6.489   0.548  0.1393 -0.2045 -0.3929
   63MOL0     N 8387   6.621   6.509   0.651 -0.0900  0.7462 -0.7756
   63MOL0     C 8388   6.514   6.583   0.621  1.0758  0.8619 -0.9067
   63MOL0     C 8389   6.445   6.588   0.738  0.3563 -0.7366  0.4749
   63MOL0     C 8390   6.314   6.650   0.778 -0.1335  0.2392 -0.0669
   63MOL0     C 8391   6.216   6.625   0.662 -0.2917 -0.3300  0.3417
   63MOL0     C 8392   6.074   6.682   0.691 -0.0183  0.2713 -0.5751
   63MOL0     C 8393   5.983   6.654   0.577  0.5545  0.4042  0.7722
   63MOL0     O 8394   5.857   6.702   0.609  0.4625 -0.1281 -0.0127
   63MOL0     C 8395   5.742   6.677   0.536 -0.3342  0.0735 -0.5225
   63MOL0     C 8396   5.742   6.608   0.419 -0.6140 -0.1772 -0.1201
   63MOL0     C 8397   5.636   6.586   0.337 -0.6535  0.1690 -0.7343
   63MOL0     C 8398   5.515   6.646   0.376 -0.2017  0.4947  0.2430
   63MOL0     C 8399   5.397   6.617   0.297  0.3875  0.7238 -0.3102
   63MOL0     O 8400   5.276   6.665   0.337 -0.0398  0.9990 -0.1412
   63MOL0     C 8401   5.166   6.641   0.260  0.3976 -0.0756  0.3453
   63MOL0     C 8402   5.143   6.659   0.121 -0.0381 -0.3137  0.4800
   63MOL0     C 8403   5.029   6.629   0.057  0.9584  0.1496  0.1131
   63MOL0     C 8404   4.918   6.571   0.119  0.4636  0.1126  0.0666
   63MOL0     O 8405   4.806   6.563   0.044  0.6212 -0.0025 -0.7021
   63MOL0     C 8406   4.681   6.521   0.113 -0.0410  0.1722 -0.1854
   63MOL0     C 8407   4.574   6.534   0.010  0.5314 -0.5634 -1.3115
   63MOL0     C 8408   4.539   6.680  -0.038 -1.0471  0.0459 -0.8206
   63MOL0     C 8409   4.448   6.673  -0.163 -0.5414  0.7853 -0.2044
   63MOL0     C 8410   4.460   6.797  -0.254  0.3508 -0.0526  0.3376
   63MOL0     C 8411   4.370   6.803  -0.382  1.0044 -0.1773 -1.0242
   63MOL0     C 8412   4.216   6.776  -0.356 -0.0392 -0.0069 -0.1225
   63MOL0     C 8413   4.125   6.813  -0.479 -0.2909 -0.0384  0.7967
   63MOL0    Cl 8414   4.093   6.985  -0.454 -0.3283  0.8695  0.2848
   63MOL0     C 8415   4.926   6.550   0.261  0.1718 -1.0089 -0.4644
   63MOL0     C 8416   5.051   6.592   0.323  0.3734 -0.0948 -0.6752
   63MOL0     O 8417   5.413   6.552   0.193 -0.6618  0.1032  0.4685
   63MOL0     C 8418   5.509   6.710   0.502 -0.3539 -0.4045 -0.3529
   63MOL0     C 8419   5.619   6.720   0.582 -0.4776 -0.8569 -0.0732
   63MOL0     N 8420   6.517   6.518   0.833 -0.7553 -0.0130 -0.9319
   63MOL0     N 8421   6.629   6.478   0.781 -0.2100 -0.1145 -0.7677
   63MOL0     C 8422   5.865   6.363  -0.007 -0.5372 -0.2959  0.0284
   63MOL0     C 8423   5.731   6.368   0.005  0.6694 -0.0351  0.3197
   63MOL0     C 8424   5.323   6.201   0.074 -0.2035  0.6058 -0.3513
   63MOL0     C 8425   5.255   6.182  -0.053 -0.0016 -0.3459  0.3693
   63MOL0     C 8426   5.115   6.156  -0.053 -0.1497  0.6060 -0.0113
   63MOL0     C 8427   5.044   6.184   0.062  0.4854 -0.3602  0.1725
   63MOL0     O 8428   4.909   6.158   0.073  0.0677  0.3469 -0.1776
   63MOL0     C 8429   4.834   6.128  -0.044 -0.6964  0.4003 -0.5145
   63MOL0     C 8430   4.679   6.104  -0.003  0.7661 -0.1312 -0.3842
   63MOL0     C 8431   4.600   6.045  -0.122 -0.3137 -0.0894 -0.6708
   63MOL0     C 8432   4.589   6.142  -0.243  0.9982  0.5413  0.4217
   63MOL0     C 8433   4.533   6.068  -0.361 -0.7177 -0.1244  0.9283
   63MOL0     C 8434   4.470   6.001  -0.453  0.5843 -0.5702 -0.4786
   63MOL0     C 8435   5.113   6.224   0.178 -0.8937 -0.4187 -0.2522
   63MOL0     C 8436   5.251   6.231   0.191  0.0548  0.6574 -0.2158
   63MOL0     C 8437   5.308   6.252   0.327  0.9010  0.0676 -0.2458
   63MOL0     H 8438   5.668   6.060  -0.105  0.5279  0.5769 -1.4147
   63MOL0     H 8439   5.907   6.036  -0.074 -1.9032 -0.0495  0.1278
   63MOL0     H 8440   6.147   6.374   0.098  0.7095  0.3784 -0.4344
   63MOL0     H 8441   6.076   6.224   0.186 -0.5577 -2.3086 -1.3287
   63MOL0     H 8442   6.319   6.237   0.001 -0.9233 -1.3400 -1.3849
   63MOL0     H 8443   6.255   6.094   0.093 -1.3458  0.6818  2.0218
   63MOL0     H 8444   6.308   6.196   0.306  2.1370 -1.0101  0.8319
   63MOL0     H 8445   6.344   6.350   0.227  2.4125 -0.1898  0.2873
   63MOL0     H 8446   6.489   6.096   0.171  0.7178  1.4792 -0.5851
   63MOL0     H 8447   6.550   6.262   0.143  2.6510 -1.2559  0.9053
   63MOL0     H 8448   6.551   6.109   0.403 -1.4272  1.1519  2.5575
   63MOL0     H 8449   6.680   6.183   0.297  0.2486  2.1541  0.0687
   63MOL0     H 8450   6.547   6.407   0.355 -0.3146  0.9613  1.3169
   63MOL0     H 8451   6.494   6.306   0.491  0.2864 -0.4456 -0.1042
   63MOL0     H 8452   6.789   6.323   0.418 -1.1872 -0.1304 -1.3020
   63MOL0     H 8453   6.718   6.280   0.574 -2.3984  1.3631  0.4442
   63MOL0     H 8454   6.823   6.484   0.597 -1.2034  1.2654  2.7600
   63MOL0     H 8455   6.724   6.568   0.472  1.3528  1.5552  1.3074
   63MOL0     H 8456   6.486   6.612   0.520 -1.3823 -0.8146 -0.8087
   63MOL0     H 8457   6.277   6.596   0.866  1.9652  0.5438  1.0657
   63MOL0     H 8458   6.333   6.755   0.801  1.2513  0.2295 -1.0554
   63MOL0     H 8459   6.246   6.680   0.572 -0.8283  0.7881  0.8294
   63MOL0     H 8460   6.201   6.519   0.642 -0.1440 -0.0431 -1.4612
   63MOL0     H 8461   6.074   6.789   0.714 -1.1665  0.2984 -0.6763
   63MOL0     H 8462   6.045   6.625   0.780  3.0011 -2.1147 -0.9591
   63MOL0     H 8463   5.989   6.547   0.556  1.0518  0.5146  0.3143
   63MOL0     H 8464   6.025   6.710   0.492 -0.2470  1.5202  1.0872
   63MOL0     H 8465   5.834   6.552   0.405 -0.4211  0.1717 -0.2460
   63MOL0     H 8466   5.646   6.519   0.252  2.3133  0.6653 -0.8930
   63MOL0     H 8467   5.223   6.700   0.059 -1.1819 -0.0821 -0.8845
   63MOL0     H 8468   5.024   6.623  -0.051  1.7078 -2.2545  0.1465
   63MOL0     H 8469   4.691   6.414   0.133  1.5290 -0.0185 -1.7452
   63MOL0     H 8470   4.662   6.579   0.204  2.0417  1.8567 -0.7573
   63MOL0     H 8471   4.606   6.469  -0.072  2.4139  0.3581 -1.3732
   63MOL0     H 8472   4.488   6.499   0.068  2.4187 -2.4073  0.5609
   63MOL0     H 8473   4.495   6.738   0.044  1.3519  0.7341  0.0764
   63MOL0     H 8474   4.634   6.718  -0.075 -1.5348  1.4354 -0.7197
   63MOL0     H 8475   4.352   6.651  -0.115 -1.1073 -0.2034 -1.6945
   63MOL0     H 8476   4.464   6.583  -0.224  1.1680  0.5528  0.5341
   63MOL0     H 8477   4.561   6.802  -0.296 -0.1609 -0.9038 -1.0461
   63MOL0     H 8478   4.434   6.892  -0.207  1.2039  0.6154 -0.5081
   63MOL0     H 8479   4.386   6.899  -0.432  0.3190  1.8304  2.3607
   63MOL0     H 8480   4.398   6.729  -0.458 -1.2127 -2.0856 -0.0746
   63MOL0     H 8481   4.183   6.828  -0.265 -1.8354 -2.0280  0.4514
   63MOL0     H 8482   4.206   6.671  -0.330  2.3759  0.1969  2.0803
   63MOL0     H 8483   4.170   6.796  -0.577 -0.6563  0.7192  0.4943
   63MOL0     H 8484   4.030   6.760  -0.479 -0.9659  1.1466  0.3830
   63MOL0     H 8485   4.847   6.507   0.322  0.1240 -3.7286 -2.2915
   63MOL0     H 8486   5.061   6.584   0.431 -2.5039  0.6043 -0.2782
   63MOL0     H 8487   5.423   6.759   0.547  1.7736  1.9632  1.4053
   63MOL0     H 8488   5.625   6.783   0.670  1.2532 -0.8963 -0.1439
   63MOL0     H 8489   5.915   6.450   0.034  0.4660 -1.3331  1.1139
   63MOL0     H 8490   5.676   6.456   0.037 -2.9027 -1.8467 -0.3032
   63MOL0     H 8491   5.318   6.160  -0.139  1.1421 -0.0141  1.1046
   63MOL0     H 8492   5.070   6.127  -0.148 -1.0382 -2.4932  1.2498
   63MOL0     H 8493   4.875   6.036  -0.086 -0.0057  0.5547 -0.1847
   63MOL0     H 8494   4.840   6.210  -0.116  3.1467  0.9873  0.2691
   63MOL0     H 8495   4.637   6.202   0.022 -0.3696 -0.8914  0.8043
   63MOL0     H 8496   4.673   6.048   0.091 -0.4479  2.0072  0.8986
   63MOL0     H 8497   4.500   6.014  -0.088  0.7209 -1.1677  1.5999
   63MOL0     H 8498   4.650   5.956  -0.159  0.8972  1.6721 -3.6897
   63MOL0     H 8499   4.524   6.224  -0.212  1.7057  0.4211  2.3430
   63MOL0     H 8500   4.692   6.162  -0.273  0.7736  0.6175 -0.3383
   63MOL0     H 8501   4.411   5.965  -0.534  0.5745 -0.0545 -0.7031
   63MOL0     H 8502   5.060   6.242   0.270 -1.2582 -2.7500  0.0462
   63MOL0     H 8503   5.393   6.320   0.319  0.2716  0.9977  0.7538
   63MOL0     H 8504   5.230   6.298   0.388  1.1338  0.6014 -0.3473
   63MOL0     H 8505   5.338   6.156   0.371 -0.4614 -0.0540  0.4684
   64MOL0     O 8506   6.988   1.304   9.061  0.0535 -0.5478  0.6534
   64MOL0     C 8507   6.980   1.315   9.185 -0.0746  1.3275 -0.1608
   64MOL0     O 8508   7.085   1.357   9.265  0.8996 -0.4976  0.5008
   64MOL0     C 8509   7.210   1.368   9.202 -0.5725  0.1802 -0.2174
   64MOL0     C 8510   7.254   1.486   9.151 -0.1895  0.0762 -0.8366
   64MOL0     C 8511   7.361   1.486   9.061 -0.0829 -0.1869  0.4645
   64MOL0     C 8512   7.425   1.366   9.033  0.6129 -0.1290  0.0870
   64MOL0     O 8513   7.537   1.364   8.946 -0.1927 -1.1423 -0.4479
   64MOL0     C 8514   7.608   1.240   8.909 -0.1416  0.5268 -0.2760
   64MOL0     C 8515   7.707   1.266   8.795 -0.1008 -0.0516 -1.4104
   64MOL0     C 8516   7.785   1.134   8.753  0.2197 -0.9043 -0.1597
   64MOL0     C 8517   7.902   1.174   8.670 -0.2847 -0.2232 -0.2475
   64MOL0     C 8518   7.979   1.045   8.619  0.8204 -0.2296  0.2951
   64MOL0     C 8519   8.105   1.097   8.549  0.2000  0.8810  0.5292
   64MOL0     C 8520   8.202   0.991   8.498 -0.0416 -0.2192 -0.6720
   64MOL0     C 8521   8.215   1.005   8.350  0.0940 -1.2036  0.6788
   64MOL0     N 8522   8.260   1.134   8.297  0.4787 -0.3181 -0.4239
   64MOL0     C 8523   8.378   1.198   8.319 -0.4318  0.2905  1.0659
   64MOL0     C 8524   8.375   1.306   8.238 -0.2791  0.0868  0.8597
   64MOL0     C 8525   8.500   1.394   8.219 -1.1619 -1.0800  0.7243
   64MOL0     C 8526   8.514   1.434   8.078 -0.6920  0.0005  0.4344
   64MOL0     C 8527   8.622   1.530   8.074 -0.3244 -0.2291  0.3510
   64MOL0     C 8528   8.663   1.571   7.934 -0.2565  1.0556  0.0176
   64MOL0     O 8529   8.751   1.683   7.954  0.4279 -0.7525  0.4794
   64MOL0     C 8530   8.809   1.739   7.836  0.2392  0.6661  0.1811
   64MOL0     C 8531   8.929   1.801   7.853 -1.9352 -1.1428  0.7295
   64MOL0     C 8532   8.998   1.864   7.744  0.4340 -0.3635  0.3414
   64MOL0     C 8533   8.943   1.853   7.622 -0.0688  0.1524 -0.1150
   64MOL0     C 8534   9.022   1.905   7.499 -0.4374  0.0251 -0.4946
   64MOL0     O 8535   9.154   1.928   7.521  0.0254  0.0187 -0.4849
   64MOL0     C 8536   9.248   1.961   7.428  0.0737  0.3441 -0.7513
   64MOL0     C 8537   9.229   1.947   7.298  0.8335  0.0715  0.5497
   64MOL0     C 8538   9.325   1.998   7.214 -0.0904 -0.1220  0.0603
   64MOL0     C 8539   9.455   2.046   7.258 -0.6649  0.9343  0.0628
   64MOL0     O 8540   9.562   2.089   7.183 -0.0749 -0.3859 -0.5803
   64MOL0     C 8541   9.541   2.163   7.065  0.4272  0.7259 -0.0748
   64MOL0     C 8542   9.543   2.068   6.950 -0.3494 -0.5321  0.6223
   64MOL0     C 8543   9.668   1.980   6.949  0.1057 -0.8453 -0.1327
   64MOL0     C 8544   9.697   1.938   6.808  0.4661  0.6325  0.2116
   64MOL0     C 8545   9.830   1.862   6.800  1.2568 -1.7560 -0.7895
   64MOL0     C 8546   9.826   1.727   6.870 -0.2264 -0.3956 -0.8904
   64MOL0     C 8547   9.955   1.653   6.850  0.6416 -0.0346  0.7553
   64MOL0     C 8548   9.975   1.512   6.918 -0.1633 -0.3044 -0.2785
   64MOL0    Cl 8549  10.018   1.540   7.079  0.5450  0.3558  0.3879
   64MOL0     C 8550   9.477   2.043   7.389  0.6391 -0.1323  0.5180
   64MOL0     C 8551   9.371   2.000   7.470 -0.3719 -0.5084 -0.4843
   64MOL0     O 8552   8.961   1.906   7.389  0.0627 -0.4644 -1.0921
   64MOL0     C 8553   8.819   1.785   7.603  0.1603  0.4010 -0.4052
   64MOL0     C 8554   8.752   1.731   7.712 -0.1283  0.6487 -0.7019
   64MOL0     N 8555   8.251   1.318   8.172  0.6558  0.2034 -0.1851
   64MOL0     N 8556   8.179   1.214   8.212  0.4741  0.3437 -0.3315
   64MOL0     C 8557   7.388   1.241   9.095  0.4215  0.2998 -0.0145
   64MOL0     C 8558   7.269   1.247   9.175  0.2127  0.3975  0.4848
   64MOL0     C 8559   6.864   1.246   9.247 -0.6454 -0.7572 -0.1415
   64MOL0     C 8560   6.873   1.212   9.388 -0.0680 -0.1117 -0.0738
   64MOL0     C 8561   6.765   1.160   9.460  0.3581  0.6397  0.0132
   64MOL0     C 8562   6.638   1.144   9.394 -0.0657  0.6773  0.2519
   64MOL0     O 8563   6.520   1.111   9.457  0.7067  0.1103 -0.1968
   64MOL0     C 8564   6.516   1.106   9.603 -0.1972 -0.2291 -0.1905
   64MOL0     C 8565   6.591   0.983   9.662  0.2500 -0.0149  0.5611
   64MOL0     C 8566   6.587   0.860   9.577 -0.2376  0.5245 -0.2448
   64MOL0     C 8567   6.645   0.741   9.655  1.3212  0.2077 -0.3372
   64MOL0     C 8568   6.667   0.626   9.564 -0.0305 -0.3434 -0.4575
   64MOL0     C 8569   6.679   0.537   9.481  0.6659 -0.3110  0.6201
   64MOL0     C 8570   6.632   1.179   9.262 -0.9018 -0.4337 -0.5924
   64MOL0     C 8571   6.736   1.229   9.185  0.6149  0.2407 -0.0083
   64MOL0     C 8572   6.698   1.276   9.044  0.6506  0.2810 -0.0747
   64MOL0     H 8573   7.206   1.581   9.171  0.5728  0.1146  0.9542
   64MOL0     H 8574   7.395   1.571   9.003 -2.0573  0.1725 -0.2667
   64MOL0     H 8575   7.656   1.199   8.998  1.3426  3.1127  0.2256
   64MOL0     H 8576   7.532   1.169   8.874  1.1937 -1.8483  1.3708
   64MOL0     H 8577   7.789   1.329   8.829 -1.3413 -0.5915  3.1418
   64MOL0     H 8578   7.655   1.318   8.713  0.2284  0.7523 -1.1094
   64MOL0     H 8579   7.710   1.073   8.702  0.0151 -0.4334 -0.4327
   64MOL0     H 8580   7.822   1.088   8.845  0.9715 -0.5463 -0.2750
   64MOL0     H 8581   7.869   1.228   8.580 -0.6042 -0.2276 -0.1359
   64MOL0     H 8582   7.972   1.242   8.720  1.1706 -1.1192 -0.9935
   64MOL0     H 8583   8.011   0.980   8.701 -0.1448  0.1037  0.9515
   64MOL0     H 8584   7.911   0.989   8.554  0.3939  1.5004 -0.8516
   64MOL0     H 8585   8.069   1.161   8.467  1.3680  0.9199  0.0315
   64MOL0     H 8586   8.160   1.167   8.612 -2.4323  1.7622  2.0184
   64MOL0     H 8587   8.170   0.889   8.522  0.5429 -0.0916  0.7649
   64MOL0     H 8588   8.299   0.998   8.548 -1.2558  0.3326  1.7346
   64MOL0     H 8589   8.283   0.934   8.301 -1.3034 -0.7415 -2.1347
   64MOL0     H 8590   8.120   0.980   8.302  0.8287 -1.1796 -0.8159
   64MOL0     H 8591   8.460   1.160   8.379  1.5935  1.8984 -0.5190
   64MOL0     H 8592   8.498   1.482   8.283 -1.8301 -0.6018  0.0554
   64MOL0     H 8593   8.580   1.323   8.243 -1.0038  0.1914  4.8947
   64MOL0     H 8594   8.530   1.351   8.009 -1.4384 -0.7030  1.0782
   64MOL0     H 8595   8.431   1.492   8.036 -2.2932 -3.6810 -1.9910
   64MOL0     H 8596   8.713   1.485   8.116 -0.4657 -0.9776 -0.1321
   64MOL0     H 8597   8.582   1.621   8.120 -0.1678 -0.0294  0.0937
   64MOL0     H 8598   8.573   1.609   7.884 -1.1642  0.6837  1.3159
   64MOL0     H 8599   8.704   1.481   7.888  0.0402 -0.0627  2.3608
   64MOL0     H 8600   8.968   1.807   7.955  1.4168 -0.6891 -0.4622
   64MOL0     H 8601   9.092   1.916   7.759  0.9245  0.0180 -3.2373
   64MOL0     H 8602   9.136   1.905   7.260  0.9821 -0.4782  0.7874
   64MOL0     H 8603   9.305   2.000   7.107  0.0684  0.2734  0.0339
   64MOL0     H 8604   9.446   2.216   7.082 -0.1873 -0.5950  0.7870
   64MOL0     H 8605   9.618   2.238   7.045  0.3708  0.5236 -1.1016
   64MOL0     H 8606   9.455   2.002   6.960 -0.6514 -0.1623  0.4279
   64MOL0     H 8607   9.527   2.125   6.858 -3.2135 -1.2408  0.5617
   64MOL0     H 8608   9.750   2.047   6.978 -0.7495  1.0592 -1.8920
   64MOL0     H 8609   9.653   1.900   7.022 -0.5313  0.7066  1.5258
   64MOL0     H 8610   9.702   2.024   6.741  0.0146  2.8946  2.8844
   64MOL0     H 8611   9.621   1.866   6.776 -0.1397  0.3665  2.1428
   64MOL0     H 8612   9.907   1.929   6.840 -1.1856  1.0232 -0.3977
   64MOL0     H 8613   9.846   1.842   6.694 -0.9736  3.1963 -2.3389
   64MOL0     H 8614   9.811   1.738   6.978 -0.9633  3.9504 -1.2610
   64MOL0     H 8615   9.738   1.671   6.837 -0.5323 -0.0212 -0.7209
   64MOL0     H 8616  10.043   1.710   6.882  0.0654  0.1158  2.1027
   64MOL0     H 8617   9.954   1.629   6.743  0.3747 -2.2984  1.2131
   64MOL0     H 8618   9.885   1.453   6.899 -1.6178  1.0713  1.8871
   64MOL0     H 8619  10.062   1.468   6.868 -2.8194 -1.6339 -4.1439
   64MOL0     H 8620   9.574   2.071   7.428 -0.3967 -0.2033  3.3283
   64MOL0     H 8621   9.395   2.009   7.576  1.2133 -1.7466 -0.6870
   64MOL0     H 8622   8.777   1.781   7.503 -0.9461  0.4590  0.0456
   64MOL0     H 8623   8.654   1.686   7.697 -0.7874  2.4092 -2.1262
   64MOL0     H 8624   7.434   1.143   9.088 -1.5512 -0.5686 -1.4794
   64MOL0     H 8625   7.242   1.150   9.214  0.3928 -1.3276 -3.2631
   64MOL0     H 8626   6.970   1.220   9.436  1.1557  1.3727 -2.5694
   64MOL0     H 8627   6.773   1.145   9.567 -1.2600  1.5373  0.2859
   64MOL0     H 8628   6.409   1.113   9.628 -0.0309 -0.0327  0.4711
   64MOL0     H 8629   6.556   1.199   9.646  0.5777  0.5351 -2.4432
   64MOL0     H 8630   6.523   0.961   9.745  0.6329 -3.0529  0.1930
   64MOL0     H 8631   6.687   1.010   9.707 -0.3559 -0.2654  2.0597
   64MOL0     H 8632   6.648   0.862   9.486 -1.6321 -2.9483 -1.4287
   64MOL0     H 8633   6.490   0.826   9.541  0.2386 -1.6429  0.3783
   64MOL0     H 8634   6.738   0.771   9.707  0.3676  1.0593  0.9538
   64MOL0     H 8635   6.572   0.707   9.729  2.0211  2.3863  1.4916
   64MOL0     H 8636   6.686   0.458   9.408 -0.7911  3.4834 -4.2115
   64MOL0     H 8637   6.539   1.166   9.208 -1.2050  0.8411 -0.4080
   64MOL0     H 8638   6.590   1.285   9.031  0.5155 -3.4062 -3.5377
   64MOL0     H 8639   6.752   1.371   9.031 -3.1892  2.5614 -0.8239
   64MOL0     H 8640   6.730   1.200   8.972  3.0188 -2.1899  3.2921
   65MOL0     O 8641   0.149   3.762   6.023  0.2321  0.7542 -0.1660
   65MOL0     C 8642   0.069   3.835   6.083  0.7047 -0.3031  0.3675
   65MOL0     O 8643   0.107   3.947   6.150  1.2284 -0.3671  0.4582
   65MOL0     C 8644   0.228   4.008   6.153 -1.0274  0.7687  0.3130
   65MOL0     C 8645   0.242   4.106   6.253  0.0477  0.1868  0.2548
   65MOL0     C 8646   0.360   4.177   6.270  0.1347  0.0024  0.0202
   65MOL0     C 8647   0.465   4.160   6.185 -0.4144  0.2421 -0.9064
   65MOL0     O 8648   0.577   4.226   6.223  0.0077 -0.5970  0.1148
   65MOL0     C 8649   0.698   4.202   6.147  1.0788  0.8527  0.9393
   65MOL0     C 8650   0.819   4.268   6.198  0.7401 -0.5557  0.4567
   65MOL0     C 8651   0.805   4.429   6.192  0.6217  0.1288  0.1662
   65MOL0     C 8652   0.924   4.513   6.230 -0.3776  0.2213  0.2892
   65MOL0     C 8653   0.897   4.662   6.195 -0.2826 -0.2503  0.4151
   65MOL0     C 8654   0.936   4.696   6.048  0.1303 -0.7313  1.1515
   65MOL0     C 8655   0.914   4.839   6.002 -0.1081 -0.0779  0.1832
   65MOL0     C 8656   1.002   4.945   6.068 -0.2861 -0.5934 -0.1299
   65MOL0     N 8657   1.116   4.990   5.987 -0.0515  0.4288 -0.5783
   65MOL0     C 8658   1.219   4.923   5.940  0.3583 -0.0207 -0.5315
   65MOL0     C 8659   1.289   5.016   5.878  0.3740  0.2319 -0.0333
   65MOL0     C 8660   1.415   4.998   5.796 -0.0504  0.5677 -0.5368
   65MOL0     C 8661   1.533   5.076   5.850  0.2960 -0.1866  0.5027
   65MOL0     C 8662   1.645   5.083   5.745  0.0296 -0.3321  0.1140
   65MOL0     C 8663   1.781   5.109   5.819  0.2274  0.8279 -0.0169
   65MOL0     O 8664   1.824   5.008   5.915 -0.6931  0.2136  0.4658
   65MOL0     C 8665   1.957   5.004   5.944  1.0192 -0.6231 -0.4369
   65MOL0     C 8666   2.040   5.112   5.949 -0.4054 -0.2262  0.4830
   65MOL0     C 8667   2.178   5.103   5.964 -0.8284 -0.3254  0.5218
   65MOL0     C 8668   2.236   4.982   5.992 -0.6185  0.3854  0.4019
   65MOL0     C 8669   2.385   4.969   6.010 -0.4884 -0.4216  0.2978
   65MOL0     O 8670   2.435   4.849   6.001  0.1817  0.1497  0.0773
   65MOL0     C 8671   2.571   4.824   5.992  0.4484 -0.1660  0.2218
   65MOL0     C 8672   2.614   4.744   6.093 -0.9954 -1.0500  0.1130
   65MOL0     C 8673   2.751   4.704   6.084  0.2870 -0.2406 -0.1573
   65MOL0     C 8674   2.839   4.753   5.990 -0.4823 -0.1946 -0.2686
   65MOL0     O 8675   2.973   4.712   5.970 -0.3230 -0.2986 -0.3307
   65MOL0     C 8676   3.016   4.581   6.009  0.3720  0.6142  0.3304
   65MOL0     C 8677   3.137   4.538   5.926 -0.1216  0.5300 -0.1608
   65MOL0     C 8678   3.249   4.639   5.914 -0.2301  0.8308  0.0273
   65MOL0     C 8679   3.300   4.677   6.055  0.3420 -0.2249  0.3849
   65MOL0     C 8680   3.418   4.771   6.046  0.7725 -0.2517 -0.4553
   65MOL0     C 8681   3.392   4.893   5.959 -0.8769 -0.1067  0.4677
   65MOL0     C 8682   3.277   5.000   5.976  0.4561  0.2368  0.3745
   65MOL0     C 8683   3.243   5.052   6.116  0.1272 -0.4141 -0.4248
   65MOL0    Cl 8684   3.400   5.128   6.176  0.0171  0.0596 -0.1791
   65MOL0     C 8685   2.796   4.847   5.908  0.2171 -0.0245  0.7022
   65MOL0     C 8686   2.657   4.877   5.897  0.4930 -0.8572  0.4741
   65MOL0     O 8687   2.452   5.070   6.039  0.0892  0.5398  0.3192
   65MOL0     C 8688   2.148   4.875   5.993 -0.8615 -0.1597 -0.3233
   65MOL0     C 8689   2.014   4.888   5.990  0.0857  0.0933  0.9642
   65MOL0     N 8690   1.234   5.139   5.885 -0.1272 -0.8715 -0.8144
   65MOL0     N 8691   1.128   5.120   5.956  0.0969 -0.1057  0.1351
   65MOL0     C 8692   0.462   4.051   6.094  0.6881  0.4627 -0.7550
   65MOL0     C 8693   0.342   3.975   6.075  1.5412  0.1104  0.0517
   65MOL0     C 8694  -0.075   3.797   6.074  0.6312  0.4386  0.0021
   65MOL0     C 8695  -0.114   3.707   5.975  0.4786  0.4046 -0.2937
   65MOL0     C 8696  -0.246   3.671   5.960 -0.1280 -0.6675  0.6821
   65MOL0     C 8697  -0.348   3.726   6.044  0.1487  0.6696  0.4255
   65MOL0     O 8698  -0.483   3.714   6.011 -1.0462  0.1815 -0.6738
   65MOL0     C 8699  -0.539   3.608   6.093  0.3952  0.2242 -0.5096
   65MOL0     C 8700  -0.681   3.595   6.050 -0.0237  0.8688 -0.0150
   65MOL0     C 8701  -0.703   3.490   5.938  0.1912  0.9358  0.3176
   65MOL0     C 8702  -0.845   3.512   5.882  0.4679 -0.2005 -0.1973
   65MOL0     C 8703  -0.926   3.387   5.906 -0.2139 -0.1887  0.0440
   65MOL0     C 8704  -0.991   3.282   5.923  0.2955 -0.5577 -0.3798
   65MOL0     C 8705  -0.301   3.808   6.145  0.2796 -0.3289  0.0522
   65MOL0     C 8706  -0.170   3.843   6.163 -0.4389 -0.5292 -0.2137
   65MOL0     C 8707  -0.140   3.935   6.274 -0.1726  1.0191 -0.1670
   65MOL0     H 8708   0.163   4.125   6.325  0.5561  2.3648  0.3197
   65MOL0     H 8709   0.376   4.243   6.356  0.5485 -1.4217  1.0669
   65MOL0     H 8710   0.720   4.097   6.169  0.7098  0.4196 -0.6801
   65MOL0     H 8711   0.683   4.215   6.040  3.9084  1.9049  0.5728
   65MOL0     H 8712   0.900   4.238   6.131 -0.2336  0.0216 -1.0259
   65MOL0     H 8713   0.838   4.244   6.303 -0.3085 -0.3845  0.6889
   65MOL0     H 8714   0.730   4.452   6.270  0.0165 -1.6795  0.1570
   65MOL0     H 8715   0.761   4.468   6.100 -2.8507 -0.9326  1.1983
   65MOL0     H 8716   0.949   4.503   6.336  3.1883 -1.5736 -0.5851
   65MOL0     H 8717   1.013   4.472   6.182 -1.3304 -0.0056 -1.3431
   65MOL0     H 8718   0.793   4.694   6.204 -0.4631 -0.0840 -1.8108
   65MOL0     H 8719   0.957   4.722   6.265  0.0496 -1.5982  1.3231
   65MOL0     H 8720   1.035   4.657   6.024  0.1709  1.1319 -2.1836
   65MOL0     H 8721   0.869   4.635   5.986 -3.4695  3.3343  0.5963
   65MOL0     H 8722   0.811   4.862   6.032  0.1780 -0.5389  1.6219
   65MOL0     H 8723   0.919   4.846   5.893  0.3445  1.2590  0.2683
   65MOL0     H 8724   0.941   5.034   6.090  1.7013  0.5875  0.8739
   65MOL0     H 8725   1.038   4.901   6.161  0.2825 -2.5318 -1.2029
   65MOL0     H 8726   1.241   4.818   5.955  1.2553  0.1391 -0.6937
   65MOL0     H 8727   1.438   4.891   5.801  0.4850  0.7455  2.2179
   65MOL0     H 8728   1.388   5.017   5.691 -0.2042 -0.3997 -0.6849
   65MOL0     H 8729   1.503   5.179   5.873 -0.8265 -0.0628 -1.3654
   65MOL0     H 8730   1.568   5.029   5.943 -0.8905 -1.7862  0.1780
   65MOL0     H 8731   1.630   5.164   5.673 -0.8267  0.1491  0.8218
   65MOL0     H 8732   1.644   4.992   5.684 -0.2233 -1.6034  1.9517
   65MOL0     H 8733   1.773   5.210   5.859  0.3584  0.3203  1.3462
   65MOL0     H 8734   1.860   5.100   5.744  0.5440 -1.1988  0.5015
   65MOL0     H 8735   2.005   5.207   5.912  0.7540  0.5520  1.3000
   65MOL0     H 8736   2.235   5.195   5.963 -2.4079  0.6822  0.6427
   65MOL0     H 8737   2.556   4.703   6.174  1.1225 -0.6912  1.9061
   65MOL0     H 8738   2.793   4.638   6.158  1.8457  1.1240  0.2444
   65MOL0     H 8739   3.052   4.575   6.112  2.1538  3.0341 -0.0726
   65MOL0     H 8740   2.935   4.509   5.993  1.2188 -0.3139  0.1072
   65MOL0     H 8741   3.183   4.447   5.965  0.6711  1.5314  1.3536
   65MOL0     H 8742   3.100   4.533   5.823  2.2973  2.0689 -1.1971
   65MOL0     H 8743   3.337   4.605   5.858  0.5748  1.0051  1.1507
   65MOL0     H 8744   3.201   4.723   5.865 -1.9850  1.2798  2.3694
   65MOL0     H 8745   3.337   4.587   6.103 -1.2388 -1.5139 -0.6857
   65MOL0     H 8746   3.224   4.716   6.124  0.9149 -0.0047  0.9013
   65MOL0     H 8747   3.496   4.711   5.997 -0.6114 -0.4551 -2.5675
   65MOL0     H 8748   3.455   4.794   6.146  1.4415 -2.0558 -0.2440
   65MOL0     H 8749   3.490   4.942   5.951  1.0109 -3.3609  1.7577
   65MOL0     H 8750   3.383   4.852   5.858 -0.5758 -1.4458  0.9666
   65MOL0     H 8751   3.182   4.976   5.927  0.9571 -1.0099 -0.0360
   65MOL0     H 8752   3.307   5.088   5.919 -3.2313  1.4488  0.0451
   65MOL0     H 8753   3.172   5.135   6.126  2.5197  1.7705 -0.5773
   65MOL0     H 8754   3.209   4.971   6.182 -1.6824  0.2190 -0.5326
   65MOL0     H 8755   2.868   4.894   5.842 -0.7516  0.6156  0.0738
   65MOL0     H 8756   2.630   4.959   5.832 -0.3383  0.4400  2.3751
   65MOL0     H 8757   2.188   4.778   6.020  3.0469  1.8686  2.0709
   65MOL0     H 8758   1.945   4.807   6.012  1.6198 -0.7894  2.7875
   65MOL0     H 8759   0.548   4.023   6.035  1.3525  1.9880 -0.5506
   65MOL0     H 8760   0.342   3.894   6.003  1.9501 -0.8150  1.0551
   65MOL0     H 8761  -0.040   3.672   5.903 -2.4615  1.4674 -4.1669
   65MOL0     H 8762  -0.283   3.617   5.873 -1.0828  0.2112  0.5205
   65MOL0     H 8763  -0.529   3.649   6.194  0.8608  1.3984 -1.0116
   65MOL0     H 8764  -0.483   3.515   6.091  2.7099  1.5476 -0.8053
   65MOL0     H 8765  -0.708   3.696   6.019 -0.8473  0.6291 -0.1330
   65MOL0     H 8766  -0.750   3.573   6.132  0.6155 -2.0271 -0.1372
   65MOL0     H 8767  -0.693   3.388   5.977 -0.0398 -0.3917 -2.8175
   65MOL0     H 8768  -0.622   3.504   5.867 -0.7425  0.4664 -0.8836
   65MOL0     H 8769  -0.892   3.593   5.940  3.9932  2.0648 -0.1869
   65MOL0     H 8770  -0.827   3.544   5.779  0.2489 -2.5793 -1.0392
   65MOL0     H 8771  -1.038   3.186   5.932 -0.8210 -0.1876 -1.9792
   65MOL0     H 8772  -0.380   3.859   6.199  1.3119  0.5422  0.7790
   65MOL0     H 8773  -0.135   4.039   6.243 -2.8837  2.1804  2.7711
   65MOL0     H 8774  -0.210   3.931   6.357  0.1292  1.0965  0.0943
   65MOL0     H 8775  -0.041   3.910   6.315  0.7609  3.0959 -0.9882
   66MOL0     O 8776   4.903   1.550   0.677  0.5663  0.3014 -0.4458
   66MOL0     C 8777   4.869   1.651   0.608 -0.3663 -0.3750 -0.0682
   66MOL0     O 8778   4.948   1.749   0.575  0.1930 -0.0710  0.7075
   66MOL0     C 8779   5.082   1.723   0.570 -0.2938 -0.0978 -0.3694
   66MOL0     C 8780   5.141   1.604   0.519 -0.2434  0.3575  0.1522
   66MOL0     C 8781   5.283   1.590   0.502  0.6716  0.0362 -0.3654
   66MOL0     C 8782   5.361   1.689   0.551 -0.8493 -0.9972  0.8280
   66MOL0     O 8783   5.501   1.683   0.549  0.1531 -0.5139  0.3952
   66MOL0     C 8784   5.578   1.596   0.466 -0.2182  0.5665  0.3158
   66MOL0     C 8785   5.714   1.661   0.450 -0.0316 -0.2220  0.4847
   66MOL0     C 8786   5.813   1.591   0.549 -0.6652  0.4618 -0.4546
   66MOL0     C 8787   5.929   1.692   0.577 -0.6644  1.7894  0.6600
   66MOL0     C 8788   6.032   1.701   0.461  0.3829 -0.4111 -1.2548
   66MOL0     C 8789   6.156   1.784   0.499 -0.0088  0.1395 -0.3604
   66MOL0     C 8790   6.270   1.772   0.394  0.0449 -0.0453  0.1315
   66MOL0     C 8791   6.295   1.910   0.334 -1.2829  0.0056 -0.7696
   66MOL0     N 8792   6.204   1.950   0.228 -0.4197 -0.1325 -0.8698
   66MOL0     C 8793   6.112   2.050   0.230 -0.2787 -0.3005 -0.8983
   66MOL0     C 8794   6.048   2.029   0.116 -0.7895  0.6620  0.4725
   66MOL0     C 8795   5.934   2.115   0.070  0.5080  0.5967  0.2876
   66MOL0     C 8796   5.796   2.074   0.119  0.3557  0.1186 -0.4259
   66MOL0     C 8797   5.792   2.051   0.271  0.5285  0.1902  0.3897
   66MOL0     C 8798   5.648   2.031   0.321 -0.2950  0.1155  0.2607
   66MOL0     O 8799   5.563   2.128   0.266  0.3364 -1.0669  0.4622
   66MOL0     C 8800   5.427   2.137   0.299 -0.6549 -0.3054  0.3353
   66MOL0     C 8801   5.351   2.035   0.344  0.9746 -0.0040 -0.6679
   66MOL0     C 8802   5.210   2.048   0.353  0.0781 -0.1834 -0.1547
   66MOL0     C 8803   5.144   2.172   0.314  0.1053  0.0399 -0.4542
   66MOL0     C 8804   4.999   2.193   0.301  0.0612  1.0819  0.5244
   66MOL0     O 8805   4.922   2.078   0.291 -0.4047 -0.3435  0.4115
   66MOL0     C 8806   4.786   2.101   0.270 -0.4064  1.4242  0.1078
   66MOL0     C 8807   4.736   2.141   0.144  0.1164 -0.7402  0.6135
   66MOL0     C 8808   4.596   2.136   0.116  0.5093  1.2852 -0.1041
   66MOL0     C 8809   4.496   2.118   0.213 -0.5381 -0.5097 -0.3345
   66MOL0     O 8810   4.362   2.123   0.195 -0.0087 -0.6952 -0.5140
   66MOL0     C 8811   4.305   2.178   0.072 -0.4177 -1.5406 -0.0159
   66MOL0     C 8812   4.165   2.213   0.111 -0.0034 -0.0584  0.2235
   66MOL0     C 8813   4.078   2.086   0.129  0.3327 -0.1573  0.7390
   66MOL0     C 8814   3.935   2.122   0.181 -0.0020  0.1808  0.3556
   66MOL0     C 8815   3.840   2.014   0.165 -0.1020  0.3705  0.9396
   66MOL0     C 8816   3.841   1.911   0.279 -1.3242  0.5221 -0.7482
   66MOL0     C 8817   3.751   1.779   0.243  0.4232 -0.8855  0.5680
   66MOL0     C 8818   3.700   1.713   0.372 -0.3279  0.2675 -0.8209
   66MOL0    Cl 8819   3.586   1.829   0.452 -0.0709 -0.2105  0.2670
   66MOL0     C 8820   4.544   2.073   0.338  0.6056  0.2525  0.1966
   66MOL0     C 8821   4.682   2.071   0.367 -0.8861  0.5073 -0.2886
   66MOL0     O 8822   4.955   2.306   0.283  0.0847 -0.0820  0.1842
   66MOL0     C 8823   5.235   2.276   0.272  0.2630 -0.2207 -0.0330
   66MOL0     C 8824   5.373   2.260   0.257 -0.6415  0.1320 -0.4026
   66MOL0     N 8825   6.103   1.924   0.042 -0.2008  0.1729 -0.2525
   66MOL0     N 8826   6.188   1.875   0.118  0.4338 -0.1217  0.1491
   66MOL0     C 8827   5.306   1.801   0.607  0.4298 -0.0435  0.1065
   66MOL0     C 8828   5.168   1.823   0.612 -0.1391  0.8801  0.1777
   66MOL0     C 8829   4.727   1.663   0.558 -0.4214  0.0714 -1.2340
   66MOL0     C 8830   4.704   1.735   0.441 -0.6834  0.0780  0.2168
   66MOL0     C 8831   4.580   1.763   0.389 -0.6948  0.5187 -0.2637
   66MOL0     C 8832   4.469   1.715   0.452 -0.5515 -0.1001  0.4868
   66MOL0     O 8833   4.337   1.742   0.425  0.5067  0.8887  0.1379
   66MOL0     C 8834   4.304   1.772   0.292  0.0411 -0.1232 -0.1397
   66MOL0     C 8835   4.276   1.645   0.209  0.0530  0.0077 -0.2989
   66MOL0     C 8836   4.143   1.585   0.253 -0.0217  0.0490  0.2244
   66MOL0     C 8837   4.081   1.488   0.166  0.3142  0.9005 -0.5758
   66MOL0     C 8838   3.948   1.441   0.213 -0.1417 -0.1051 -1.1057
   66MOL0     C 8839   3.833   1.405   0.244 -0.4025 -0.1116  0.3256
   66MOL0     C 8840   4.485   1.631   0.560 -0.1340  0.3075  0.5807
   66MOL0     C 8841   4.613   1.610   0.617  0.1829  0.0379  0.0963
   66MOL0     C 8842   4.616   1.541   0.749  0.0172 -0.0819  0.2070
   66MOL0     H 8843   5.077   1.526   0.478 -0.6874  0.5882  0.3923
   66MOL0     H 8844   5.320   1.497   0.458  0.3548 -0.0335 -0.4926
   66MOL0     H 8845   5.573   1.493   0.503 -2.1670  0.6021  0.2893
   66MOL0     H 8846   5.535   1.598   0.366  1.4887 -4.6877 -0.8740
   66MOL0     H 8847   5.701   1.767   0.474 -1.1213  0.1721 -1.5952
   66MOL0     H 8848   5.751   1.640   0.350  1.9739 -2.3792  1.5920
   66MOL0     H 8849   5.839   1.492   0.511 -2.4252 -0.5447  0.8090
   66MOL0     H 8850   5.771   1.571   0.648 -2.3541 -0.1781 -1.2662
   66MOL0     H 8851   5.888   1.793   0.582 -2.7408  1.0732 -0.8188
   66MOL0     H 8852   5.983   1.671   0.670 -0.0331  3.2490  0.6521
   66MOL0     H 8853   6.066   1.600   0.438  0.8192 -0.1038 -1.9972
   66MOL0     H 8854   5.986   1.736   0.367  0.8228 -1.7450 -1.9870
   66MOL0     H 8855   6.127   1.890   0.500 -0.9265 -0.0413 -2.5856
   66MOL0     H 8856   6.190   1.752   0.598  1.4213  1.7960 -0.2547
   66MOL0     H 8857   6.256   1.692   0.321  0.9946  1.6042 -1.9752
   66MOL0     H 8858   6.361   1.748   0.450  0.9380 -0.1139 -1.3175
   66MOL0     H 8859   6.289   1.980   0.418 -0.5455  0.7174 -1.2903
   66MOL0     H 8860   6.401   1.912   0.306 -2.1804 -0.5869 -4.9187
   66MOL0     H 8861   6.106   2.112   0.319 -0.8297 -1.6017  0.0115
   66MOL0     H 8862   5.942   2.222   0.089 -2.2318  0.8750  0.2065
   66MOL0     H 8863   5.942   2.098  -0.038  1.8695 -1.4775  0.6385
   66MOL0     H 8864   5.725   2.153   0.090  1.1900  1.5511  1.2224
   66MOL0     H 8865   5.773   1.982   0.065  0.8093  0.0895 -0.5673
   66MOL0     H 8866   5.826   2.146   0.313 -1.0127  0.9686 -0.0958
   66MOL0     H 8867   5.859   1.967   0.294  1.2779 -0.2987 -3.0524
   66MOL0     H 8868   5.652   2.025   0.430 -0.0551  0.2084  0.2576
   66MOL0     H 8869   5.618   1.933   0.283  0.0572  0.4736 -0.9782
   66MOL0     H 8870   5.390   1.937   0.371 -0.2403  0.4021  3.1202
   66MOL0     H 8871   5.148   1.962   0.380 -0.0410 -1.1648 -3.1879
   66MOL0     H 8872   4.801   2.168   0.062  0.6597 -2.1565  0.5419
   66MOL0     H 8873   4.564   2.176   0.020 -0.4169  1.1907  0.1539
   66MOL0     H 8874   4.363   2.265   0.038  1.0380 -2.0675  1.0408
   66MOL0     H 8875   4.317   2.104  -0.008  4.3096 -0.4395 -0.6250
   66MOL0     H 8876   4.167   2.271   0.204 -1.5487  0.3461  0.0289
   66MOL0     H 8877   4.119   2.278   0.036  0.4775  1.9050  1.5547
   66MOL0     H 8878   4.079   2.028   0.036  1.2041  2.4659 -1.0047
   66MOL0     H 8879   4.140   2.032   0.201  1.5790  2.3540  1.6819
   66MOL0     H 8880   3.885   2.201   0.123 -0.7628 -2.3003 -2.6340
   66MOL0     H 8881   3.944   2.159   0.283 -2.4618  0.2021  0.6160
   66MOL0     H 8882   3.855   1.974   0.064 -1.6087 -1.3081  1.3418
   66MOL0     H 8883   3.741   2.058   0.163  0.8812  2.6813 -0.7560
   66MOL0     H 8884   3.945   1.890   0.304 -2.3158 -2.3454  1.6476
   66MOL0     H 8885   3.800   1.959   0.368 -1.6529  0.4505 -0.8563
   66MOL0     H 8886   3.812   1.711   0.183  0.2378  0.7502 -1.6179
   66MOL0     H 8887   3.667   1.808   0.179  0.6475 -0.1659  0.5921
   66MOL0     H 8888   3.650   1.620   0.342 -1.0497  1.0603 -2.1748
   66MOL0     H 8889   3.782   1.698   0.442 -2.7049 -1.5666  1.7893
   66MOL0     H 8890   4.467   2.053   0.412  0.4178 -3.4426 -0.8106
   66MOL0     H 8891   4.714   2.041   0.466 -0.5502 -2.6504 -1.2200
   66MOL0     H 8892   5.191   2.356   0.214 -2.0698 -1.4161 -0.0365
   66MOL0     H 8893   5.429   2.327   0.192 -0.6438 -0.5320 -1.1026
   66MOL0     H 8894   5.374   1.869   0.656  1.6823 -1.7157  0.8041
   66MOL0     H 8895   5.119   1.903   0.666 -1.1181  0.5730 -0.2214
   66MOL0     H 8896   4.782   1.779   0.380 -2.1556  3.1715  0.3588
   66MOL0     H 8897   4.559   1.821   0.299 -0.1053  0.2230 -0.5958
   66MOL0     H 8898   4.382   1.836   0.249  1.8750  1.3381  4.7584
   66MOL0     H 8899   4.221   1.841   0.276  0.7669  0.7814 -0.0640
   66MOL0     H 8900   4.362   1.577   0.217  1.9362  2.1125 -1.6443
   66MOL0     H 8901   4.271   1.669   0.103 -2.6274 -1.2461 -0.5544
   66MOL0     H 8902   4.085   1.677   0.239 -0.2322  0.1443  1.5596
   66MOL0     H 8903   4.143   1.549   0.356  1.1055  1.5318  0.7825
   66MOL0     H 8904   4.073   1.535   0.067  2.5896 -2.8014 -2.7144
   66MOL0     H 8905   4.145   1.401   0.158  0.3530  0.8344  0.3411
   66MOL0     H 8906   3.730   1.383   0.265 -0.5430  1.9508  2.1974
   66MOL0     H 8907   4.395   1.597   0.610  0.1264  1.5214  1.9439
   66MOL0     H 8908   4.676   1.593   0.824 -1.7923 -0.8054  2.2449
   66MOL0     H 8909   4.517   1.541   0.795  0.2760  0.6825  0.7942
   66MOL0     H 8910   4.648   1.437   0.737  0.1244  0.0689 -0.9481
   67MOL0     O 8911  11.103   8.027   1.606  0.0559 -0.5018 -0.1598
   67MOL0     C 8912  10.997   8.057   1.664 -0.0448 -0.2452 -0.0042
   67MOL0     O 8913  10.973   8.178   1.729 -0.0839 -1.0480  0.1870
   67MOL0     C 8914  11.045   8.290   1.717  0.0064  0.1624  0.1711
   67MOL0     C 8915  11.171   8.297   1.771  0.2061 -0.6113  0.0670
   67MOL0     C 8916  11.246   8.409   1.747  0.7573  0.5325  0.2284
   67MOL0     C 8917  11.192   8.511   1.664 -0.1377 -0.5582 -0.1125
   67MOL0     O 8918  11.272   8.630   1.644 -0.2828  0.6194 -1.0296
   67MOL0     C 8919  11.412   8.629   1.661 -0.0994  0.9520 -0.9243
   67MOL0     C 8920  11.471   8.762   1.624 -0.2366  0.2395  0.4790
   67MOL0     C 8921  11.626   8.761   1.658 -0.2413 -0.0386  0.1887
   67MOL0     C 8922  11.712   8.843   1.569 -0.3082  0.3992 -0.5435
   67MOL0     C 8923  11.863   8.832   1.615  0.6795 -0.4602 -0.0540
   67MOL0     C 8924  11.928   8.692   1.600  0.2224 -0.2038  0.2101
   67MOL0     C 8925  12.068   8.695   1.672  0.0345 -0.2107 -0.2031
   67MOL0     C 8926  12.163   8.808   1.625  0.5158  0.6600  0.0646
   67MOL0     N 8927  12.305   8.774   1.651 -0.6341 -0.5987 -0.1659
   67MOL0     C 8928  12.396   8.768   1.550  0.4585  0.0465 -0.1629
   67MOL0     C 8929  12.516   8.742   1.614 -0.0044  0.0283  0.5853
   67MOL0     C 8930  12.638   8.706   1.538  0.3048  0.4445  0.6595
   67MOL0     C 8931  12.731   8.833   1.530 -0.1077  0.6258 -0.8879
   67MOL0     C 8932  12.812   8.836   1.659 -0.5249 -0.5212  0.0233
   67MOL0     C 8933  12.930   8.931   1.670 -0.1144  1.0624 -0.2274
   67MOL0     O 8934  12.905   9.064   1.623  0.0997 -0.3108 -0.4757
   67MOL0     C 8935  13.021   9.144   1.626  0.4207 -0.2546  0.0282
   67MOL0     C 8936  13.006   9.274   1.571  0.2427 -0.2915  0.1884
   67MOL0     C 8937  13.109   9.362   1.560  0.3312 -0.0344  0.5074
   67MOL0     C 8938  13.240   9.333   1.605  0.9196  0.7862 -0.1509
   67MOL0     C 8939  13.357   9.421   1.591 -0.3360 -0.7963  0.2897
   67MOL0     O 8940  13.480   9.359   1.595  0.0104 -0.4608  0.4769
   67MOL0     C 8941  13.585   9.423   1.542  0.3374  0.0348  0.2319
   67MOL0     C 8942  13.641   9.516   1.624  0.8195  0.3143  0.0009
   67MOL0     C 8943  13.738   9.595   1.574 -0.3571 -0.2317  0.5843
   67MOL0     C 8944  13.807   9.564   1.449 -0.3847 -0.0825 -0.2536
   67MOL0     O 8945  13.913   9.642   1.410 -0.1171 -1.1676 -0.0963
   67MOL0     C 8946  14.006   9.684   1.510  0.5086 -0.5063 -0.3620
   67MOL0     C 8947  14.130   9.742   1.438 -0.4765  0.0983 -0.3381
   67MOL0     C 8948  14.240   9.785   1.548  0.0932 -0.1254  0.8931
   67MOL0     C 8949  14.377   9.783   1.472 -0.2134  0.0515 -1.1285
   67MOL0     C 8950  14.495   9.770   1.566 -0.0530 -0.2469  0.3571
   67MOL0     C 8951  14.555   9.631   1.565 -0.0221 -0.9862  0.3270
   67MOL0     C 8952  14.656   9.616   1.685  0.1364  0.0738  0.1195
   67MOL0     C 8953  14.768   9.517   1.660  0.3454 -0.2780  0.0537
   67MOL0    Cl 8954  14.859   9.480   1.809 -0.2347  0.3351 -0.0312
   67MOL0     C 8955  13.754   9.461   1.369 -0.1079  0.8079 -0.7039
   67MOL0     C 8956  13.636   9.398   1.413  0.2572 -0.3792  0.7958
   67MOL0     O 8957  13.340   9.538   1.564 -0.0433  0.0792 -0.0426
   67MOL0     C 8958  13.253   9.211   1.667 -0.3049  1.1807 -0.1168
   67MOL0     C 8959  13.149   9.113   1.675  0.3920 -0.4619 -0.1485
   67MOL0     N 8960  12.491   8.716   1.750 -0.0464  0.0706 -0.2249
   67MOL0     N 8961  12.366   8.741   1.769  0.4311  0.7133  0.0780
   67MOL0     C 8962  11.064   8.507   1.613 -0.2415  0.0427  0.5834
   67MOL0     C 8963  10.991   8.386   1.628 -0.4160  0.1875  0.8258
   67MOL0     C 8964  10.897   7.953   1.684 -0.1891 -0.1261  0.1970
   67MOL0     C 8965  10.934   7.822   1.646  0.4715  0.4870  0.6353
   67MOL0     C 8966  10.839   7.719   1.635  0.2609 -0.5944  0.0256
   67MOL0     C 8967  10.710   7.740   1.693 -0.1923  0.5778  0.1645
   67MOL0     O 8968  10.624   7.634   1.681 -0.2339  0.2004 -0.0913
   67MOL0     C 8969  10.512   7.678   1.603  0.3094 -0.1679  0.0916
   67MOL0     C 8970  10.438   7.552   1.556  0.7762 -0.0240 -0.4281
   67MOL0     C 8971  10.298   7.572   1.490 -0.8182 -0.5202  0.2175
   67MOL0     C 8972  10.175   7.603   1.585  0.8147  0.0628  0.1727
   67MOL0     C 8973  10.163   7.490   1.681 -0.8361  0.2080  0.5007
   67MOL0     C 8974  10.158   7.395   1.760 -0.3811 -0.3313 -0.4596
   67MOL0     C 8975  10.679   7.869   1.737 -0.4428  0.0136  0.3336
   67MOL0     C 8976  10.765   7.972   1.737  0.5575 -0.2292  0.9278
   67MOL0     C 8977  10.710   8.105   1.779 -0.2126 -1.0026  0.1001
   67MOL0     H 8978  11.208   8.225   1.844  0.4938 -0.5102  0.0241
   67MOL0     H 8979  11.342   8.408   1.797  0.4098  0.8341  0.9071
   67MOL0     H 8980  11.435   8.616   1.767 -0.3386  2.0488 -0.7251
   67MOL0     H 8981  11.451   8.548   1.598 -1.3096 -0.7490  0.4083
   67MOL0     H 8982  11.409   8.836   1.676 -2.2466  0.0910 -1.5459
   67MOL0     H 8983  11.456   8.773   1.516  0.1207  0.9157  0.4933
   67MOL0     H 8984  11.658   8.656   1.663  2.1651  0.6661  1.4211
   67MOL0     H 8985  11.645   8.792   1.761  0.4703  2.0071 -0.5136
   67MOL0     H 8986  11.699   8.803   1.468  1.7097 -0.6168 -0.4613
   67MOL0     H 8987  11.673   8.945   1.568  0.8986  1.0001  2.2502
   67MOL0     H 8988  11.914   8.895   1.542 -0.0375 -0.1268 -0.2655
   67MOL0     H 8989  11.875   8.873   1.716  0.4344  1.3444 -0.7226
   67MOL0     H 8990  11.864   8.617   1.646 -1.2652  0.5934 -0.4925
   67MOL0     H 8991  11.945   8.659   1.497  0.4751  1.7022 -0.3973
   67MOL0     H 8992  12.115   8.599   1.650  0.7002 -0.1963  1.0599
   67MOL0     H 8993  12.057   8.707   1.780 -1.2524 -1.9471 -0.0951
   67MOL0     H 8994  12.132   8.823   1.521 -0.4622  0.2915  0.2922
   67MOL0     H 8995  12.128   8.886   1.694 -2.4585  1.1058 -1.7621
   67MOL0     H 8996  12.377   8.794   1.447 -0.7602  0.4718  0.1529
   67MOL0     H 8997  12.685   8.619   1.585 -3.1268 -2.3005 -0.6428
   67MOL0     H 8998  12.621   8.667   1.438  2.3291 -1.0261  0.8296
   67MOL0     H 8999  12.799   8.826   1.444  2.3508  3.4318  0.6498
   67MOL0     H 9000  12.679   8.929   1.535  0.0286  0.6316  1.0503
   67MOL0     H 9001  12.855   8.737   1.678 -1.9398 -0.9173  1.3051
   67MOL0     H 9002  12.742   8.861   1.739  0.6744  1.8385  0.4537
   67MOL0     H 9003  13.009   8.886   1.609 -1.2426 -1.0044 -0.2355
   67MOL0     H 9004  12.962   8.937   1.774 -1.9491 -1.4272  0.5703
   67MOL0     H 9005  12.903   9.296   1.546  0.9958  2.4675 -0.7801
   67MOL0     H 9006  13.087   9.452   1.503 -1.1189  0.4441  1.7549
   67MOL0     H 9007  13.581   9.526   1.714 -0.2988 -1.1104 -0.5499
   67MOL0     H 9008  13.780   9.670   1.641  1.1212  0.2855 -0.8455
   67MOL0     H 9009  13.966   9.762   1.576 -0.8926 -3.0365  1.9700
   67MOL0     H 9010  14.031   9.604   1.580  1.9365 -0.1705 -0.4640
   67MOL0     H 9011  14.160   9.671   1.361  0.1215 -0.2185  0.1748
   67MOL0     H 9012  14.088   9.827   1.384 -3.2246 -1.3560 -0.6335
   67MOL0     H 9013  14.237   9.892   1.573  1.9366  0.1717  0.0210
   67MOL0     H 9014  14.241   9.721   1.636 -0.5891  1.4356  2.0854
   67MOL0     H 9015  14.397   9.871   1.410  3.3630 -1.3873 -2.2498
   67MOL0     H 9016  14.379   9.700   1.402 -0.7880 -1.1637  0.2500
   67MOL0     H 9017  14.464   9.801   1.666  0.1078  3.1067 -0.5031
   67MOL0     H 9018  14.576   9.840   1.543  0.0290 -0.8348 -1.2716
   67MOL0     H 9019  14.467   9.566   1.572 -1.8153  1.2579 -0.1837
   67MOL0     H 9020  14.613   9.608   1.475  2.9334  0.5641  1.7074
   67MOL0     H 9021  14.598   9.589   1.773 -0.3800  0.1642 -0.1913
   67MOL0     H 9022  14.697   9.718   1.693  1.2373 -0.2948 -0.5041
   67MOL0     H 9023  14.719   9.427   1.623 -0.6601  1.9026 -4.5366
   67MOL0     H 9024  14.834   9.550   1.580  0.8387  1.9576  1.3072
   67MOL0     H 9025  13.809   9.431   1.281  1.9787  1.3002  0.3764
   67MOL0     H 9026  13.581   9.339   1.340 -0.0283  0.8420  0.0011
   67MOL0     H 9027  13.350   9.179   1.704  0.5211  1.0007 -2.3095
   67MOL0     H 9028  13.173   9.023   1.730 -1.7894 -1.6580 -1.0394
   67MOL0     H 9029  11.029   8.576   1.537  0.7664 -0.4623 -0.3745
   67MOL0     H 9030  10.896   8.368   1.579  0.8253 -1.7320 -1.0958
   67MOL0     H 9031  11.033   7.795   1.612  0.7286  0.0094  1.7331
   67MOL0     H 9032  10.868   7.620   1.600  0.1958  0.1850 -2.3883
   67MOL0     H 9033  10.546   7.741   1.520  0.1105 -1.8975 -1.3446
   67MOL0     H 9034  10.449   7.737   1.670  1.3333 -0.3721  1.2677
   67MOL0     H 9035  10.420   7.480   1.636 -0.3017 -0.2897 -0.8932
   67MOL0     H 9036  10.501   7.500   1.484 -0.3812 -3.0852  0.6238
   67MOL0     H 9037  10.266   7.483   1.435  0.0142 -1.9501  1.9662
   67MOL0     H 9038  10.317   7.659   1.425  0.8550 -1.2820 -0.3838
   67MOL0     H 9039  10.189   7.698   1.636 -1.4208  0.9250 -0.6750
   67MOL0     H 9040  10.086   7.604   1.522  1.2784  0.4946 -0.4892
   67MOL0     H 9041  10.144   7.327   1.842  0.5189  2.3224  2.0752
   67MOL0     H 9042  10.582   7.886   1.784 -1.3885  0.9010 -1.8142
   67MOL0     H 9043  10.769   8.161   1.852  2.6260 -1.0083 -2.0196
   67MOL0     H 9044  10.691   8.167   1.691  0.2381 -1.2072 -0.1479
   67MOL0     H 9045  10.614   8.098   1.831  0.0367 -0.7137  0.6045
   68MOL0     O 9046   7.801   2.701   4.893  0.0549 -0.7300  0.1180
   68MOL0     C 9047   7.782   2.801   4.965  0.0061  0.3401 -0.0699
   68MOL0     O 9048   7.873   2.852   5.064 -0.0971  0.1232  0.3755
   68MOL0     C 9049   7.994   2.797   5.101  0.2316 -0.0440 -0.8187
   68MOL0     C 9050   8.063   2.877   5.195  0.4278 -0.0709 -0.3630
   68MOL0     C 9051   8.191   2.841   5.236 -0.9101 -0.3664 -0.1231
   68MOL0     C 9052   8.250   2.724   5.187  0.1685  0.9393 -0.7289
   68MOL0     O 9053   8.372   2.687   5.242  0.9392 -0.9673  0.2591
   68MOL0     C 9054   8.410   2.554   5.238  0.3430 -0.7060  0.2456
   68MOL0     C 9055   8.538   2.538   5.309 -0.5710  0.5290 -0.2476
   68MOL0     C 9056   8.612   2.402   5.279  0.4085  0.5670  0.2231
   68MOL0     C 9057   8.520   2.274   5.312  0.6836 -0.3445  0.0305
   68MOL0     C 9058   8.579   2.133   5.273  0.4465 -0.0600  0.1424
   68MOL0     C 9059   8.729   2.117   5.310 -0.4392  0.2852 -0.7167
   68MOL0     C 9060   8.794   1.974   5.317  0.5712 -0.8259  0.2015
   68MOL0     C 9061   8.789   1.909   5.180  0.2138  0.7309  0.1727
   68MOL0     N 9062   8.903   1.932   5.095 -0.3781  0.2338  0.9062
   68MOL0     C 9063   8.894   2.035   5.001 -0.4127  0.4456  0.5316
   68MOL0     C 9064   9.000   2.007   4.918 -0.3046  0.1840  0.0771
   68MOL0     C 9065   9.030   2.098   4.797  0.7270  0.6284  0.2786
   68MOL0     C 9066   9.172   2.166   4.811  0.6132  0.0696  0.3066
   68MOL0     C 9067   9.184   2.233   4.942 -0.1115 -0.1592 -0.3961
   68MOL0     C 9068   9.296   2.339   4.947  0.5020  0.3361  0.0687
   68MOL0     O 9069   9.402   2.274   4.881 -0.9734  0.5604  0.0241
   68MOL0     C 9070   9.530   2.327   4.873  0.3046  0.3259 -0.4291
   68MOL0     C 9071   9.620   2.229   4.818  0.6881 -0.5467 -0.3225
   68MOL0     C 9072   9.752   2.254   4.810  0.0017  0.5726  0.0128
   68MOL0     C 9073   9.801   2.379   4.860  0.2448  0.4471  0.4623
   68MOL0     C 9074   9.943   2.421   4.832 -0.2538  0.7682  0.5618
   68MOL0     O 9075   9.989   2.545   4.876 -0.1750 -0.0356 -0.4676
   68MOL0     C 9076  10.124   2.575   4.862 -1.0031  0.3047 -0.3319
   68MOL0     C 9077  10.222   2.540   4.964 -0.2720  0.5792 -0.3848
   68MOL0     C 9078  10.355   2.577   4.944 -0.5322  0.3418 -0.5540
   68MOL0     C 9079  10.402   2.641   4.828  0.1209  0.6898  0.1835
   68MOL0     O 9080  10.534   2.683   4.827 -0.5223  1.0696  0.0581
   68MOL0     C 9081  10.570   2.763   4.714  0.5597  0.1835  0.7578
   68MOL0     C 9082  10.719   2.796   4.735 -0.0201  0.2214  0.2572
   68MOL0     C 9083  10.788   2.843   4.599  0.6549  0.1115  0.7649
   68MOL0     C 9084  10.706   2.933   4.517 -0.4040 -0.4231  0.1780
   68MOL0     C 9085  10.792   3.021   4.413  0.3345  0.2497  0.8235
   68MOL0     C 9086  10.856   2.943   4.302  0.0063 -0.4594 -0.7502
   68MOL0     C 9087  10.906   3.031   4.191 -0.4796  0.3683 -0.6002
   68MOL0     C 9088  10.981   2.965   4.082  0.7638 -0.5657  0.8855
   68MOL0    Cl 9089  11.134   2.895   4.142 -0.4128 -0.2924  0.2432
   68MOL0     C 9090  10.303   2.663   4.730  0.8264  0.2511 -0.1902
   68MOL0     C 9091  10.167   2.633   4.743 -0.2301  0.4771  0.2105
   68MOL0     O 9092  10.013   2.333   4.773  0.0894 -0.6696  0.1415
   68MOL0     C 9093   9.713   2.471   4.908  0.3853  0.3251 -0.1026
   68MOL0     C 9094   9.575   2.455   4.909  0.0405 -0.0531  0.2641
   68MOL0     N 9095   9.043   1.880   4.948  0.0436  0.0684  0.0090
   68MOL0     N 9096   8.989   1.831   5.056  0.6843 -0.2496 -0.2885
   68MOL0     C 9097   8.186   2.644   5.089  0.0534 -0.9258  0.8595
   68MOL0     C 9098   8.060   2.678   5.049 -0.1288  0.6442 -0.0389
   68MOL0     C 9099   7.642   2.867   4.951 -0.5914 -1.1118 -0.7604
   68MOL0     C 9100   7.539   2.806   4.879 -0.8044  0.2423  0.2984
   68MOL0     C 9101   7.413   2.860   4.861  0.5686 -0.1000 -0.6149
   68MOL0     C 9102   7.378   2.981   4.926 -0.4200  0.6236  0.4296
   68MOL0     O 9103   7.267   3.050   4.900  0.5833  0.3127 -0.3798
   68MOL0     C 9104   7.138   2.991   4.894 -0.3994 -0.0958 -0.3789
   68MOL0     C 9105   7.024   3.102   4.883 -0.2542  0.4669 -0.1699
   68MOL0     C 9106   6.890   3.036   4.846 -0.6464 -0.2589 -0.3680
   68MOL0     C 9107   6.788   3.154   4.829 -0.0600  0.7473 -0.5906
   68MOL0     C 9108   6.764   3.232   4.947 -0.4295 -0.9340 -0.4412
   68MOL0     C 9109   6.746   3.285   5.058  0.2644  0.6685 -0.2876
   68MOL0     C 9110   7.468   3.041   5.011  0.5550  0.2020 -0.2036
   68MOL0     C 9111   7.603   2.985   5.021  0.1609  0.4807 -0.5324
   68MOL0     C 9112   7.693   3.072   5.114  0.7473 -0.2061  0.1612
   68MOL0     H 9113   8.020   2.966   5.240 -0.2217 -0.8788  0.6600
   68MOL0     H 9114   8.251   2.895   5.308 -1.8672  1.5506 -0.6943
   68MOL0     H 9115   8.326   2.499   5.282 -3.2184  3.3428 -0.7651
   68MOL0     H 9116   8.432   2.525   5.135 -3.2678  0.8848 -1.1539
   68MOL0     H 9117   8.520   2.542   5.417 -0.1555 -2.0055 -0.0279
   68MOL0     H 9118   8.598   2.620   5.270 -1.3180  0.9035 -0.6223
   68MOL0     H 9119   8.709   2.402   5.329 -0.5052  2.3135  2.1260
   68MOL0     H 9120   8.628   2.405   5.171 -2.1730 -1.9256 -0.3673
   68MOL0     H 9121   8.499   2.287   5.418 -0.7465  1.4573 -0.4279
   68MOL0     H 9122   8.421   2.275   5.266  0.8919  2.2343 -0.5038
   68MOL0     H 9123   8.521   2.063   5.334 -1.0656  0.6616 -0.4151
   68MOL0     H 9124   8.566   2.122   5.165  1.1423  0.4040  0.0020
   68MOL0     H 9125   8.788   2.182   5.245  1.8467 -2.0986 -1.1846
   68MOL0     H 9126   8.745   2.159   5.410  1.3410 -2.2704  0.1651
   68MOL0     H 9127   8.739   1.927   5.399 -1.1035  0.8382  0.1295
   68MOL0     H 9128   8.898   1.976   5.350  0.2301  0.3809  1.3033
   68MOL0     H 9129   8.791   1.802   5.207  2.2436  0.6080 -0.2589
   68MOL0     H 9130   8.702   1.932   5.119  2.0236 -0.2214 -3.0073
   68MOL0     H 9131   8.832   2.124   4.990 -1.0722 -0.2850 -3.0128
   68MOL0     H 9132   9.032   2.050   4.698 -0.1518 -1.8077  1.3754
   68MOL0     H 9133   8.948   2.169   4.788 -2.3054 -2.7129 -0.6160
   68MOL0     H 9134   9.251   2.090   4.803 -1.2108 -1.9429  0.6977
   68MOL0     H 9135   9.182   2.239   4.729  0.7015  0.5894  0.7745
   68MOL0     H 9136   9.203   2.159   5.020 -0.5957 -0.0350 -0.1610
   68MOL0     H 9137   9.089   2.286   4.950 -0.0096 -0.0945  0.4501
   68MOL0     H 9138   9.325   2.362   5.050 -2.3546  2.8872  0.4444
   68MOL0     H 9139   9.266   2.425   4.887 -0.6519  1.0749  1.6402
   68MOL0     H 9140   9.575   2.136   4.786 -5.5712  1.5410  0.9476
   68MOL0     H 9141   9.821   2.177   4.778 -0.6859 -1.4726  3.0610
   68MOL0     H 9142  10.189   2.480   5.048 -0.2261 -0.3009 -0.9776
   68MOL0     H 9143  10.423   2.566   5.027 -0.9361  0.8985 -0.1451
   68MOL0     H 9144  10.567   2.714   4.616 -2.4301  2.3850 -0.3895
   68MOL0     H 9145  10.508   2.853   4.716  2.3711  1.5997 -1.2035
   68MOL0     H 9146  10.726   2.873   4.813 -0.0682  0.6802 -0.1855
   68MOL0     H 9147  10.775   2.712   4.775 -0.4915  0.3763  1.2641
   68MOL0     H 9148  10.879   2.891   4.637 -0.6008  3.1652  0.2475
   68MOL0     H 9149  10.804   2.753   4.539 -1.3448  0.2485 -0.0358
   68MOL0     H 9150  10.655   3.008   4.578 -0.1913  0.0811 -0.2577
   68MOL0     H 9151  10.621   2.874   4.482 -1.1806  0.8641 -0.1521
   68MOL0     H 9152  10.871   3.079   4.462 -1.5005  3.0841  0.6935
   68MOL0     H 9153  10.726   3.100   4.375  0.0867 -0.4889 -0.3339
   68MOL0     H 9154  10.938   2.890   4.352  0.6818 -0.3468 -1.7111
   68MOL0     H 9155  10.786   2.873   4.257 -0.2924 -1.0322  0.5686
   68MOL0     H 9156  10.973   3.107   4.233 -2.1126  0.6546  1.6271
   68MOL0     H 9157  10.817   3.076   4.145 -0.2356  0.7893 -0.6710
   68MOL0     H 9158  10.920   2.886   4.039  1.5050 -1.1041  0.8018
   68MOL0     H 9159  11.009   3.043   4.012  3.2615  0.5527  2.9589
   68MOL0     H 9160  10.330   2.721   4.642  0.1771  1.7550  0.5547
   68MOL0     H 9161  10.107   2.648   4.655  2.1893 -0.5497 -1.7438
   68MOL0     H 9162   9.735   2.570   4.947 -2.7573 -0.0086  3.0641
   68MOL0     H 9163   9.515   2.537   4.947 -0.3891  0.2377 -0.9998
   68MOL0     H 9164   8.220   2.555   5.036 -1.6909  0.5496 -3.1608
   68MOL0     H 9165   8.015   2.615   4.972 -0.3292 -0.0416  0.6240
   68MOL0     H 9166   7.578   2.720   4.826  0.8686  0.6699  0.7522
   68MOL0     H 9167   7.348   2.828   4.780  0.3509 -1.0358 -0.0823
   68MOL0     H 9168   7.121   2.933   4.985  3.1437  0.2538  0.6590
   68MOL0     H 9169   7.123   2.921   4.811  1.5317  0.2076 -1.0500
   68MOL0     H 9170   7.052   3.171   4.803 -0.2514  0.5061 -0.1354
   68MOL0     H 9171   7.017   3.157   4.978  0.6772  1.5008 -0.6759
   68MOL0     H 9172   6.865   2.970   4.930  3.1446  0.8414  1.8294
   68MOL0     H 9173   6.902   2.977   4.755  0.3372 -1.0768  0.2747
   68MOL0     H 9174   6.807   3.220   4.745  1.4808  0.6500 -0.3396
   68MOL0     H 9175   6.697   3.094   4.816 -0.8107  1.0139  2.4698
   68MOL0     H 9176   6.738   3.333   5.153  0.1041  2.1209 -1.0115
   68MOL0     H 9177   7.441   3.135   5.058  1.3867 -0.1706  1.0892
   68MOL0     H 9178   7.712   3.011   5.203  0.1997  0.0073  0.4298
   68MOL0     H 9179   7.794   3.093   5.079  2.1432 -1.6970  2.9539
   68MOL0     H 9180   7.636   3.160   5.146 -0.7338 -0.6847 -1.0542
   69MOL0     O 9181  11.251   9.022   3.959 -0.1615  0.3098 -0.5202
   69MOL0     C 9182  11.161   9.088   4.013  0.0695  0.0647 -0.4627
   69MOL0     O 9183  11.176   9.209   4.073  0.1146  0.0660 -0.1933
   69MOL0     C 9184  11.293   9.282   4.057 -0.2869  0.3079  0.3619
   69MOL0     C 9185  11.416   9.242   4.105  0.6652  0.2296  0.0435
   69MOL0     C 9186  11.533   9.308   4.084 -0.1226 -0.0635 -0.0417
   69MOL0     C 9187  11.525   9.437   4.030 -0.4193 -0.7413 -0.2243
   69MOL0     O 9188  11.635   9.512   4.007 -0.4916  0.1262 -0.2676
   69MOL0     C 9189  11.747   9.496   4.091  0.0553  0.0715  0.0787
   69MOL0     C 9190  11.854   9.601   4.068  0.0014  0.0700 -0.1544
   69MOL0     C 9191  11.986   9.572   4.147  0.7538 -0.1861  0.0767
   69MOL0     C 9192  12.099   9.668   4.107 -0.4038  0.1044 -0.6315
   69MOL0     C 9193  12.223   9.637   4.185 -0.5788 -0.6792  0.9235
   69MOL0     C 9194  12.330   9.743   4.141  0.6929  0.7530 -0.4465
   69MOL0     C 9195  12.459   9.725   4.214  0.0326  0.3923 -0.2374
   69MOL0     C 9196  12.547   9.845   4.205  1.7567 -0.6435 -0.6831
   69MOL0     N 9197  12.667   9.839   4.281 -0.7536  0.1114 -0.2401
   69MOL0     C 9198  12.778   9.772   4.231 -0.2760  0.1583 -0.5564
   69MOL0     C 9199  12.875   9.787   4.327  0.1571 -0.5821 -0.4821
   69MOL0     C 9200  13.012   9.718   4.317 -0.6652 -0.6829 -0.1064
   69MOL0     C 9201  13.116   9.808   4.381 -0.1660  0.0023  0.1286
   69MOL0     C 9202  13.257   9.738   4.379  0.1992  0.1576 -0.7122
   69MOL0     C 9203  13.366   9.841   4.438  0.3107  0.5777 -0.2172
   69MOL0     O 9204  13.494   9.804   4.378 -0.2195  0.3413 -0.2908
   69MOL0     C 9205  13.613   9.862   4.416  0.9342  0.1207 -0.5265
   69MOL0     C 9206  13.732   9.809   4.368  0.3564 -0.5648  0.3502
   69MOL0     C 9207  13.856   9.873   4.391  1.2700  1.2040  0.0929
   69MOL0     C 9208  13.865   9.981   4.482  0.2746 -0.9445  0.4321
   69MOL0     C 9209  14.000  10.037   4.520 -0.0856  0.4235  0.4940
   69MOL0     O 9210  14.097   9.962   4.466 -0.2384  0.4353 -0.1684
   69MOL0     C 9211  14.225   9.975   4.512 -0.2050 -0.4926 -0.0680
   69MOL0     C 9212  14.291  10.103   4.540 -0.0231  0.5794 -0.9340
   69MOL0     C 9213  14.422  10.106   4.569 -0.4428  0.2199 -0.0609
   69MOL0     C 9214  14.497   9.992   4.573  0.1172 -0.0905 -0.0010
   69MOL0     O 9215  14.633   9.994   4.585 -0.0377 -0.1239  0.1874
   69MOL0     C 9216  14.682  10.103   4.663  0.4610 -0.0039  0.3076
   69MOL0     C 9217  14.820  10.065   4.720  0.0385 -0.9816  0.1942
   69MOL0     C 9218  14.813   9.942   4.807 -0.0388  0.0487 -0.3753
   69MOL0     C 9219  14.937   9.856   4.813 -0.3601 -0.0174  0.9631
   69MOL0     C 9220  15.069   9.934   4.843  0.4062  0.1671  0.3015
   69MOL0     C 9221  15.064   9.990   4.979 -0.0357  0.4585  0.4014
   69MOL0     C 9222  15.198  10.049   5.014  0.8557  0.5287  0.4481
   69MOL0     C 9223  15.181  10.153   5.126  0.1090  0.1683  0.2691
   69MOL0    Cl 9224  15.147  10.075   5.278 -0.5008  0.4702 -0.0386
   69MOL0     C 9225  14.438   9.869   4.555  0.6622 -0.7414  0.6256
   69MOL0     C 9226  14.302   9.858   4.523 -0.6246  0.7750  0.7615
   69MOL0     O 9227  14.008  10.129   4.595  0.1522 -0.4289 -0.2706
   69MOL0     C 9228  13.742  10.035   4.530 -0.5820  0.5851 -0.8190
   69MOL0     C 9229  13.617   9.977   4.502 -0.4264 -0.4335 -0.5364
   69MOL0     N 9230  12.815   9.859   4.428  0.1517 -0.6946  0.1049
   69MOL0     N 9231  12.691   9.894   4.398 -0.3747 -0.7277 -0.0897
   69MOL0     C 9232  11.404   9.492   3.993 -0.6108  0.3985 -0.2292
   69MOL0     C 9233  11.283   9.411   4.004  0.1521 -0.3036 -0.1158
   69MOL0     C 9234  11.021   9.040   4.027 -0.6024  0.0068 -0.1367
   69MOL0     C 9235  10.934   9.105   4.125  0.2978 -0.3386  0.3020
   69MOL0     C 9236  10.798   9.063   4.146  0.6683 -0.1143 -0.0336
   69MOL0     C 9237  10.743   8.961   4.064 -1.0153 -0.2534 -0.3350
   69MOL0     O 9238  10.617   8.920   4.083  0.0007  0.1608 -0.3064
   69MOL0     C 9239  10.603   8.793   4.143  0.2579  0.0760  0.7423
   69MOL0     C 9240  10.449   8.752   4.139  0.0321 -0.1981 -0.4768
   69MOL0     C 9241  10.375   8.860   4.218 -0.4123  0.0566  0.5535
   69MOL0     C 9242  10.267   8.808   4.316  0.1812  0.3272 -0.8505
   69MOL0     C 9243  10.187   8.919   4.383  0.3068  0.6524  0.1821
   69MOL0     C 9244  10.143   9.014   4.429 -0.3430  0.4445 -0.7348
   69MOL0     C 9245  10.820   8.914   3.961 -0.9143 -0.4908 -0.6343
   69MOL0     C 9246  10.953   8.950   3.938  0.1644  0.3865 -0.7430
   69MOL0     C 9247  11.015   8.892   3.818 -0.2109  0.0102  0.2100
   69MOL0     H 9248  11.418   9.143   4.150 -1.9861  0.3953  0.6831
   69MOL0     H 9249  11.622   9.259   4.122  1.6862  1.8294 -1.5964
   69MOL0     H 9250  11.730   9.484   4.198  0.5321 -1.2001  0.0266
   69MOL0     H 9251  11.796   9.402   4.065 -4.5912 -2.4541 -0.5247
   69MOL0     H 9252  11.808   9.694   4.102 -1.5547 -0.6465 -0.2303
   69MOL0     H 9253  11.879   9.613   3.962 -1.4741 -0.2734 -0.5632
   69MOL0     H 9254  12.031   9.473   4.135  4.1558  1.0883  1.0633
   69MOL0     H 9255  11.967   9.580   4.254  0.1180  1.0559 -0.1140
   69MOL0     H 9256  12.121   9.649   4.002 -1.5866 -1.9479 -0.5564
   69MOL0     H 9257  12.063   9.770   4.121 -1.1200  0.3218 -3.5453
   69MOL0     H 9258  12.207   9.641   4.294  0.4207  0.6775  1.0411
   69MOL0     H 9259  12.252   9.534   4.162 -1.9866 -1.1106  0.9996
   69MOL0     H 9260  12.337   9.736   4.032 -0.6854 -1.8899 -0.4428
   69MOL0     H 9261  12.288   9.843   4.159  1.8148  1.3581 -1.0780
   69MOL0     H 9262  12.506   9.641   4.163 -1.5727  1.9015 -4.6285
   69MOL0     H 9263  12.445   9.689   4.317  0.4601 -0.3235 -0.4220
   69MOL0     H 9264  12.565   9.870   4.100 -0.2467  0.7621 -0.7429
   69MOL0     H 9265  12.484   9.928   4.238  2.9148  0.5935 -1.4902
   69MOL0     H 9266  12.777   9.717   4.137 -0.4769  1.9930 -1.6637
   69MOL0     H 9267  13.000   9.619   4.362 -4.9931  0.4473  1.8091
   69MOL0     H 9268  13.041   9.711   4.212 -0.8609  2.0890 -0.4297
   69MOL0     H 9269  13.130   9.901   4.325  0.5972 -1.4461 -2.2599
   69MOL0     H 9270  13.081   9.834   4.481 -0.8541  2.8145 -0.7516
   69MOL0     H 9271  13.291   9.701   4.282  0.8468 -2.8148  0.5507
   69MOL0     H 9272  13.257   9.652   4.446  1.3247  1.3643  0.9253
   69MOL0     H 9273  13.360   9.833   4.547  1.5218 -1.4014 -0.2447
   69MOL0     H 9274  13.340   9.942   4.406  1.8299  0.7475 -0.9978
   69MOL0     H 9275  13.737   9.719   4.307  0.4193 -0.1757 -0.2305
   69MOL0     H 9276  13.941   9.822   4.348  0.2894 -0.5891  0.1499
   69MOL0     H 9277  14.233  10.195   4.542  1.5936  1.6729 -1.9685
   69MOL0     H 9278  14.464  10.203   4.594 -1.7629  0.2510  2.3365
   69MOL0     H 9279  14.721  10.181   4.598 -0.6533 -0.7883 -1.3843
   69MOL0     H 9280  14.626  10.134   4.751 -0.2481 -0.4709  0.0365
   69MOL0     H 9281  14.887  10.044   4.636  0.8696 -2.3349  1.1566
   69MOL0     H 9282  14.858  10.145   4.784 -0.3673 -0.9262  0.3692
   69MOL0     H 9283  14.789   9.987   4.904 -0.3919  1.5940 -1.1370
   69MOL0     H 9284  14.720   9.897   4.772 -0.5059  1.6968 -1.3674
   69MOL0     H 9285  14.938   9.806   4.716 -1.9669 -0.9765  1.4109
   69MOL0     H 9286  14.928   9.778   4.889 -2.7211  1.7085  2.5821
   69MOL0     H 9287  15.092  10.004   4.762  2.0347 -0.1761  0.4413
   69MOL0     H 9288  15.152   9.863   4.840 -0.8058 -1.3431  1.0121
   69MOL0     H 9289  14.984  10.065   4.985  0.1144  0.5679  1.1359
   69MOL0     H 9290  15.034   9.907   5.044  0.2825 -2.4631 -2.8594
   69MOL0     H 9291  15.250  10.095   4.930  1.1913  2.9447  1.8904
   69MOL0     H 9292  15.262   9.966   5.045 -0.1178 -0.7942 -0.9520
   69MOL0     H 9293  15.271  10.214   5.136  0.8440 -1.1845  2.7746
   69MOL0     H 9294  15.099  10.219   5.096  0.0851 -1.4554 -4.0112
   69MOL0     H 9295  14.503   9.782   4.555  1.9282  0.1276 -1.1462
   69MOL0     H 9296  14.268   9.756   4.504  3.4463 -0.9853  1.9356
   69MOL0     H 9297  13.762  10.131   4.577  1.6290  1.7624 -3.7888
   69MOL0     H 9298  13.526  10.028   4.531 -0.1220  0.5377 -1.2453
   69MOL0     H 9299  11.396   9.593   3.952 -0.6411  0.2247 -0.6621
   69MOL0     H 9300  11.186   9.456   3.982  1.1775  1.9391 -0.3110
   69MOL0     H 9301  10.970   9.182   4.192 -0.4411 -0.1413  0.4802
   69MOL0     H 9302  10.746   9.120   4.223  0.3268  2.0248 -1.7411
   69MOL0     H 9303  10.645   8.777   4.242  1.9865 -1.8368 -0.2344
   69MOL0     H 9304  10.657   8.725   4.076 -0.2511  1.1494 -0.8341
   69MOL0     H 9305  10.434   8.655   4.188 -0.5992  0.8310  1.4585
   69MOL0     H 9306  10.406   8.749   4.039  0.2994  2.9745 -0.7821
   69MOL0     H 9307  10.315   8.913   4.144 -1.8428 -1.6423  0.4256
   69MOL0     H 9308  10.443   8.931   4.266 -0.1815  0.3851 -0.2369
   69MOL0     H 9309  10.187   8.747   4.272 -2.3019  1.3796  1.8421
   69MOL0     H 9310  10.310   8.736   4.386  1.4876  0.9590 -0.9736
   69MOL0     H 9311  10.104   9.104   4.472 -0.9339  0.4139 -1.1912
   69MOL0     H 9312  10.766   8.849   3.892 -1.5199 -0.8683  0.1754
   69MOL0     H 9313  10.938   8.843   3.758 -1.2887  1.5898  0.2464
   69MOL0     H 9314  11.062   8.957   3.744 -3.3661 -2.0520 -4.0347
   69MOL0     H 9315  11.077   8.807   3.845 -0.5240  0.5373  2.8654
   70MOL0     O 9316   0.189   0.502   4.671 -0.1405  0.0580 -0.5332
   70MOL0     C 9317   0.146   0.617   4.707  0.3771  0.8384 -0.9562
   70MOL0     O 9318   0.208   0.702   4.792 -0.1227  0.1926 -0.2225
   70MOL0     C 9319   0.342   0.691   4.809 -0.7557  0.0218  0.1938
   70MOL0     C 9320   0.422   0.569   4.826  0.9448 -0.9034  0.1501
   70MOL0     C 9321   0.562   0.574   4.838 -0.1194  0.5719 -0.6895
   70MOL0     C 9322   0.629   0.691   4.833  0.2480 -0.2001  0.7414
   70MOL0     O 9323   0.770   0.696   4.839  0.0788 -0.1176  0.9026
   70MOL0     C 9324   0.850   0.583   4.869 -0.4084  0.2556 -0.0531
   70MOL0     C 9325   0.999   0.628   4.892 -0.1276  0.3971  0.0862
   70MOL0     C 9326   1.059   0.652   4.756 -0.3354  0.5137  0.6577
   70MOL0     C 9327   1.201   0.681   4.781 -0.8646 -0.7811 -0.8169
   70MOL0     C 9328   1.270   0.695   4.638 -0.1048 -0.0685  1.3744
   70MOL0     C 9329   1.425   0.719   4.638  0.7285 -0.5880 -1.1473
   70MOL0     C 9330   1.474   0.752   4.501  0.2334  1.0987 -0.1107
   70MOL0     C 9331   1.617   0.719   4.459 -1.0228 -0.7689  0.0589
   70MOL0     N 9332   1.729   0.772   4.552  0.3046  0.4707  0.3653
   70MOL0     C 9333   1.740   0.902   4.590 -0.8583 -0.6464 -0.3534
   70MOL0     C 9334   1.865   0.910   4.642 -0.2845  0.2023  0.4548
   70MOL0     C 9335   1.938   1.041   4.691 -0.2234  0.8772  1.0518
   70MOL0     C 9336   1.934   1.035   4.841  0.1780 -0.6303 -0.8794
   70MOL0     C 9337   2.014   1.150   4.899  0.2575  0.1603 -0.2246
   70MOL0     C 9338   1.978   1.172   5.047 -0.0193  0.1363  0.6620
   70MOL0     O 9339   2.019   1.055   5.120  0.1299 -0.6262 -0.1982
   70MOL0     C 9340   2.148   1.011   5.115  0.0668  0.2359 -0.3131
   70MOL0     C 9341   2.263   1.087   5.089  1.0800 -0.4338  0.2130
   70MOL0     C 9342   2.391   1.029   5.108  0.0339  0.2412 -0.4002
   70MOL0     C 9343   2.405   0.896   5.156 -0.6054 -0.3664 -0.0739
   70MOL0     C 9344   2.536   0.844   5.199  0.7751 -0.6620  0.0349
   70MOL0     O 9345   2.549   0.713   5.237 -0.1980  0.0187  0.3113
   70MOL0     C 9346   2.680   0.676   5.256 -0.0171  0.4155  0.0485
   70MOL0     C 9347   2.723   0.659   5.387  0.3003 -0.3534  0.1255
   70MOL0     C 9348   2.861   0.628   5.422  0.2464  0.1933 -0.0395
   70MOL0     C 9349   2.949   0.606   5.319  0.6853  0.1915  0.1045
   70MOL0     O 9350   3.081   0.569   5.358  0.5237  0.0529 -0.9156
   70MOL0     C 9351   3.189   0.633   5.291  0.3197 -0.4817 -0.0439
   70MOL0     C 9352   3.327   0.576   5.337  0.2510 -0.3389  0.0382
   70MOL0     C 9353   3.436   0.629   5.239 -0.1008  1.3328 -0.1103
   70MOL0     C 9354   3.577   0.580   5.270  0.0594 -0.0671  0.3532
   70MOL0     C 9355   3.673   0.655   5.172  0.0021 -0.1216  0.8203
   70MOL0     C 9356   3.817   0.678   5.220  0.5410 -0.1588 -0.0582
   70MOL0     C 9357   3.879   0.567   5.302  0.2121  0.0664 -0.1300
   70MOL0     C 9358   4.036   0.585   5.322 -0.1296 -0.1302 -0.2126
   70MOL0    Cl 9359   4.082   0.734   5.416 -0.2060  0.3669 -0.1041
   70MOL0     C 9360   2.908   0.615   5.184 -0.2326  0.6241 -0.0461
   70MOL0     C 9361   2.775   0.649   5.155  1.1211  0.3232 -0.2590
   70MOL0     O 9362   2.628   0.927   5.185  0.2397  0.2244  0.4779
   70MOL0     C 9363   2.291   0.816   5.167  0.6511 -0.3179  1.1234
   70MOL0     C 9364   2.165   0.876   5.144  0.2580  0.3145  0.0632
   70MOL0     N 9365   1.931   0.791   4.645 -0.0792  0.6892  0.5850
   70MOL0     N 9366   1.844   0.710   4.598 -0.2629  0.2143 -0.6272
   70MOL0     C 9367   0.550   0.808   4.804  0.1717 -0.2387 -0.9369
   70MOL0     C 9368   0.415   0.810   4.791 -0.3656  0.0296  0.3525
   70MOL0     C 9369   0.016   0.664   4.656  0.8249  0.2997 -0.0352
   70MOL0     C 9370  -0.014   0.796   4.684  0.7361 -0.8323  1.4674
   70MOL0     C 9371  -0.129   0.852   4.639 -0.6446  0.5072 -0.0821
   70MOL0     C 9372  -0.229   0.780   4.574 -0.3354  0.4517 -1.2157
   70MOL0     O 9373  -0.330   0.862   4.541  0.6785  0.3431  0.3864
   70MOL0     C 9374  -0.424   0.805   4.446  0.2141  0.5730 -0.0552
   70MOL0     C 9375  -0.500   0.919   4.373 -0.6880  0.3120  0.6744
   70MOL0     C 9376  -0.627   0.877   4.303 -0.3243  1.1696  0.6906
   70MOL0     C 9377  -0.695   0.986   4.219  0.1449  1.2533 -1.2149
   70MOL0     C 9378  -0.802   1.062   4.284  0.0202  0.5969 -0.8528
   70MOL0     C 9379  -0.893   1.114   4.347  0.3657 -0.2362  0.6507
   70MOL0     C 9380  -0.200   0.643   4.543  0.6915 -0.0516 -0.0914
   70MOL0     C 9381  -0.073   0.586   4.583  0.0181 -0.6363  0.0937
   70MOL0     C 9382  -0.038   0.443   4.538 -0.5520  0.3392 -0.0719
   70MOL0     H 9383   0.365   0.477   4.826 -1.9972  0.7081 -2.2580
   70MOL0     H 9384   0.615   0.484   4.870 -2.3544 -0.4029  0.5281
   70MOL0     H 9385   0.807   0.541   4.960 -2.1227  1.5907 -0.2012
   70MOL0     H 9386   0.846   0.502   4.795  0.3976 -0.5483  0.7496
   70MOL0     H 9387   1.055   0.544   4.934  0.5313  0.5770 -0.4164
   70MOL0     H 9388   0.997   0.713   4.961  0.7080 -0.7092  1.5477
   70MOL0     H 9389   1.021   0.743   4.708  2.1718  1.1403 -0.3076
   70MOL0     H 9390   1.044   0.562   4.695  1.5934  0.0414  0.8288
   70MOL0     H 9391   1.215   0.769   4.844 -0.2690 -1.0991 -0.4888
   70MOL0     H 9392   1.257   0.606   4.839  2.7053  1.1263 -1.5185
   70MOL0     H 9393   1.256   0.610   4.571  0.1573  2.2234 -1.8537
   70MOL0     H 9394   1.224   0.780   4.587 -1.1584 -0.2990  1.9297
   70MOL0     H 9395   1.453   0.802   4.703 -2.1869  0.8520 -1.5706
   70MOL0     H 9396   1.479   0.636   4.683  1.8737  0.3503 -0.7452
   70MOL0     H 9397   1.443   0.856   4.484 -1.5288  0.1645 -3.7026
   70MOL0     H 9398   1.419   0.691   4.429  3.3424 -1.2946 -0.6742
   70MOL0     H 9399   1.625   0.610   4.460  0.6348 -0.7907 -2.9336
   70MOL0     H 9400   1.632   0.753   4.356 -1.7551 -2.9089 -0.8137
   70MOL0     H 9401   1.667   0.981   4.574 -0.8523 -0.8429 -1.4068
   70MOL0     H 9402   2.041   1.044   4.656 -0.4709 -3.2519 -0.5463
   70MOL0     H 9403   1.883   1.125   4.648  1.1363  1.9674  1.3917
   70MOL0     H 9404   1.830   1.039   4.873  1.1181 -1.1857  2.7174
   70MOL0     H 9405   1.959   0.940   4.891 -0.7724 -1.5310 -2.0443
   70MOL0     H 9406   1.996   1.246   4.851 -1.2297 -0.4101 -0.8605
   70MOL0     H 9407   2.120   1.130   4.883  0.4358 -0.9262  1.9038
   70MOL0     H 9408   1.870   1.187   5.054 -0.2257 -1.2415  0.6745
   70MOL0     H 9409   2.017   1.266   5.090  1.1679 -0.1417  0.2418
   70MOL0     H 9410   2.263   1.192   5.064 -0.2626 -0.3981  0.3287
   70MOL0     H 9411   2.478   1.093   5.099 -0.2743  0.7413  0.0687
   70MOL0     H 9412   2.645   0.683   5.459  0.2071 -1.0441  0.2594
   70MOL0     H 9413   2.904   0.631   5.521 -1.5827 -1.3475  0.8721
   70MOL0     H 9414   3.171   0.620   5.184  1.5844 -0.9987 -0.2112
   70MOL0     H 9415   3.183   0.739   5.318 -1.0743  0.5483 -3.7554
   70MOL0     H 9416   3.335   0.592   5.445  1.8234  2.0852 -0.3580
   70MOL0     H 9417   3.321   0.468   5.320 -1.6580 -0.7186  2.5259
   70MOL0     H 9418   3.406   0.585   5.143  0.5758 -2.8849  1.3895
   70MOL0     H 9419   3.438   0.738   5.227  1.6526  1.3521  0.0864
   70MOL0     H 9420   3.594   0.473   5.287 -0.9892 -0.0835  1.4593
   70MOL0     H 9421   3.592   0.618   5.371 -1.9194  1.0993  0.2575
   70MOL0     H 9422   3.643   0.753   5.135  0.9163  0.0424  0.4971
   70MOL0     H 9423   3.681   0.596   5.081  0.3826  1.0541  0.0757
   70MOL0     H 9424   3.883   0.700   5.135 -0.5023 -0.4450 -0.9674
   70MOL0     H 9425   3.804   0.771   5.277  0.6383  1.6698 -2.8111
   70MOL0     H 9426   3.861   0.478   5.241 -2.9345  0.9682 -0.6910
   70MOL0     H 9427   3.837   0.563   5.402  0.9350  2.0240  0.3033
   70MOL0     H 9428   4.077   0.498   5.373 -0.2005 -0.5759 -0.9022
   70MOL0     H 9429   4.080   0.599   5.222 -0.9107  3.1444 -0.2123
   70MOL0     H 9430   2.977   0.609   5.101  0.7919 -0.7494  0.8486
   70MOL0     H 9431   2.735   0.648   5.054  0.6826 -0.5179 -0.0915
   70MOL0     H 9432   2.291   0.713   5.201 -0.4679 -1.1594 -1.1567
   70MOL0     H 9433   2.076   0.815   5.155 -1.1264  2.2215 -0.0774
   70MOL0     H 9434   0.594   0.907   4.808  2.5496 -0.9655 -4.3073
   70MOL0     H 9435   0.351   0.896   4.772 -0.7477  0.0475  1.6162
   70MOL0     H 9436   0.058   0.863   4.731 -0.9416  0.6006  2.1078
   70MOL0     H 9437  -0.140   0.959   4.650 -0.0668  1.0041 -3.1950
   70MOL0     H 9438  -0.492   0.737   4.498  1.5966 -0.5207  0.3688
   70MOL0     H 9439  -0.365   0.745   4.376  0.7487 -0.6440  1.3980
   70MOL0     H 9440  -0.436   0.954   4.291 -1.8095 -2.2698 -1.4349
   70MOL0     H 9441  -0.520   1.004   4.440 -1.7713  3.0559 -2.8389
   70MOL0     H 9442  -0.696   0.847   4.382  0.2284 -1.5498  0.2353
   70MOL0     H 9443  -0.616   0.793   4.234 -1.1085  0.1288  1.7887
   70MOL0     H 9444  -0.613   1.057   4.204  0.2294  2.0781  2.3022
   70MOL0     H 9445  -0.737   0.953   4.123 -0.5398  3.7357 -1.8447
   70MOL0     H 9446  -0.972   1.160   4.403 -0.9088 -0.9651 -0.5053
   70MOL0     H 9447  -0.277   0.582   4.497 -1.7788  0.9759  2.3234
   70MOL0     H 9448   0.060   0.436   4.491 -0.8879 -2.7782 -0.5589
   70MOL0     H 9449  -0.037   0.377   4.625 -0.4306 -0.7507 -0.8682
   70MOL0     H 9450  -0.113   0.405   4.468 -0.5833  2.4899 -1.2922
   71MOL0     O 9451   6.558  10.214   3.772 -0.3953  0.1581  0.0065
   71MOL0     C 9452   6.468  10.129   3.765  0.5675 -1.1081  0.2753
   71MOL0     O 9453   6.475  10.009   3.705  0.2331  0.3926 -0.2667
   71MOL0     C 9454   6.590   9.981   3.650 -0.6358  0.6556 -0.0727
   71MOL0     C 9455   6.700   9.936   3.717 -0.7695 -0.5268  0.5541
   71MOL0     C 9456   6.814   9.867   3.655  0.0318  0.4440 -0.1681
   71MOL0     C 9457   6.810   9.852   3.514  0.5115  0.2998  0.6103
   71MOL0     O 9458   6.917   9.792   3.447  0.7468  0.3771 -0.5272
   71MOL0     C 9459   6.986   9.689   3.520 -0.5194  0.2627  0.7807
   71MOL0     C 9460   7.061   9.590   3.425 -0.1771  0.4052 -0.1397
   71MOL0     C 9461   7.125   9.473   3.496  0.6056 -0.6756 -0.1872
   71MOL0     C 9462   7.175   9.365   3.389 -0.3190  0.9858  0.1971
   71MOL0     C 9463   7.213   9.224   3.458  0.0412  0.1337 -0.0830
   71MOL0     C 9464   7.354   9.217   3.521  0.8613  0.3335 -0.6289
   71MOL0     C 9465   7.409   9.075   3.516  0.9532  0.4160 -0.5487
   71MOL0     C 9466   7.553   9.085   3.580  0.2665 -0.2836  0.5134
   71MOL0     N 9467   7.631   8.955   3.570 -0.1178 -0.2725  0.1865
   71MOL0     C 9468   7.737   8.926   3.489  0.1269 -0.6282  0.0951
   71MOL0     C 9469   7.773   8.805   3.529 -0.5806  0.1680  0.5347
   71MOL0     C 9470   7.890   8.726   3.485 -0.0757  0.4569  0.1965
   71MOL0     C 9471   8.031   8.789   3.518 -0.0984  0.1185  0.7196
   71MOL0     C 9472   8.137   8.682   3.490  1.0534 -0.3213  0.6885
   71MOL0     C 9473   8.276   8.755   3.496  0.4125 -0.1661 -0.5953
   71MOL0     O 9474   8.374   8.648   3.502  0.2975 -0.0784  0.0331
   71MOL0     C 9475   8.496   8.687   3.554  0.2036 -0.0846 -0.3735
   71MOL0     C 9476   8.562   8.587   3.635  0.0091 -0.5446 -0.4342
   71MOL0     C 9477   8.683   8.611   3.691 -0.0506  0.2216  0.3755
   71MOL0     C 9478   8.744   8.743   3.680 -0.0733 -0.1504  0.3672
   71MOL0     C 9479   8.861   8.776   3.752 -0.3917 -0.8655 -0.1648
   71MOL0     O 9480   8.922   8.682   3.827  0.0555 -0.0212 -0.3869
   71MOL0     C 9481   9.046   8.703   3.888 -0.6335 -0.5435 -0.6927
   71MOL0     C 9482   9.095   8.601   3.977  0.4163 -0.7312  0.5588
   71MOL0     C 9483   9.222   8.607   4.036  0.1426 -0.4870 -0.4531
   71MOL0     C 9484   9.308   8.711   4.000  0.4999  0.1200  0.6184
   71MOL0     O 9485   9.424   8.708   4.059 -0.3630 -0.0964 -0.2008
   71MOL0     C 9486   9.525   8.807   4.030 -0.6065 -0.3457  0.9809
   71MOL0     C 9487   9.662   8.786   4.100  0.3419  0.4014 -0.1698
   71MOL0     C 9488   9.737   8.661   4.049  0.2848 -0.0992 -0.6612
   71MOL0     C 9489   9.877   8.638   4.114 -0.0991 -0.4522  0.2910
   71MOL0     C 9490   9.935   8.510   4.068 -0.4429  0.6721 -0.5087
   71MOL0     C 9491  10.064   8.492   4.148  0.4535  0.1439  0.2730
   71MOL0     C 9492  10.037   8.463   4.300  0.6167 -0.2322  0.1461
   71MOL0     C 9493  10.151   8.383   4.375 -0.2913 -0.5128 -0.1107
   71MOL0    Cl 9494  10.313   8.445   4.330 -0.0407  0.0644  0.6543
   71MOL0     C 9495   9.263   8.811   3.912 -0.1631  0.2249  0.3201
   71MOL0     C 9496   9.137   8.800   3.857 -0.0551 -0.5554  0.1070
   71MOL0     O 9497   8.900   8.894   3.739  0.0814 -0.9823 -0.4515
   71MOL0     C 9498   8.677   8.837   3.594 -0.3657 -0.3064 -0.3638
   71MOL0     C 9499   8.563   8.802   3.530  0.1299  0.2700  0.3626
   71MOL0     N 9500   7.696   8.759   3.624  0.1886  1.0013 -0.5971
   71MOL0     N 9501   7.610   8.851   3.653  0.2398 -0.0845  0.1053
   71MOL0     C 9502   6.702   9.907   3.441  0.2769  0.2772  0.6014
   71MOL0     C 9503   6.595   9.968   3.510 -0.1157  0.9290  0.2886
   71MOL0     C 9504   6.340  10.193   3.809  0.1034 -0.8313  0.7521
   71MOL0     C 9505   6.329  10.337   3.832 -0.2136  0.2213 -0.8521
   71MOL0     C 9506   6.204  10.399   3.866 -0.1447  0.1984 -0.5092
   71MOL0     C 9507   6.084  10.323   3.884  0.2641  0.1806  0.9869
   71MOL0     O 9508   5.954  10.358   3.930  0.0506 -0.1303  0.4615
   71MOL0     C 9509   5.928  10.493   3.960 -0.0898 -0.4977 -0.0334
   71MOL0     C 9510   5.802  10.538   3.894  0.3126  0.3329 -0.9212
   71MOL0     C 9511   5.778  10.695   3.900  0.0765 -0.7374  0.2028
   71MOL0     C 9512   5.764  10.752   4.046  0.5907 -0.5051 -0.7062
   71MOL0     C 9513   5.707  10.891   4.056  0.5771  0.6190  0.4144
   71MOL0     C 9514   5.653  11.001   4.042 -0.1400 -1.0092 -0.2243
   71MOL0     C 9515   6.098  10.177   3.866  0.5271 -0.9242 -0.2664
   71MOL0     C 9516   6.214  10.118   3.824  0.6961  0.7857 -0.0170
   71MOL0     C 9517   6.198   9.969   3.801  0.0005  0.1904  0.1486
   71MOL0     H 9518   6.706   9.950   3.825  0.5010 -0.2239  0.4710
   71MOL0     H 9519   6.899   9.846   3.718  1.7272  2.6641 -1.5623
   71MOL0     H 9520   7.059   9.723   3.594  0.3060 -2.9732  1.6022
   71MOL0     H 9521   6.914   9.631   3.577  1.3550 -1.6917  1.2877
   71MOL0     H 9522   7.143   9.652   3.387 -0.4853 -0.1675 -1.7971
   71MOL0     H 9523   6.995   9.558   3.344  1.1570 -0.6392 -0.8484
   71MOL0     H 9524   7.050   9.422   3.557 -1.0966  1.4617 -0.3433
   71MOL0     H 9525   7.205   9.512   3.560  0.4008  3.3412 -2.0606
   71MOL0     H 9526   7.091   9.348   3.322 -1.1105 -2.1489  1.7664
   71MOL0     H 9527   7.259   9.411   3.336  0.8396  3.5493  3.8454
   71MOL0     H 9528   7.146   9.190   3.537  0.3277 -4.8853 -1.6836
   71MOL0     H 9529   7.208   9.143   3.384  0.2996  0.3787 -0.3763
   71MOL0     H 9530   7.421   9.285   3.469  2.8153  1.9621  3.5403
   71MOL0     H 9531   7.362   9.253   3.624  0.6053 -0.9257 -0.1460
   71MOL0     H 9532   7.418   9.046   3.411 -0.2688 -1.2333 -0.2258
   71MOL0     H 9533   7.343   9.004   3.567  1.6293  1.6506  2.2537
   71MOL0     H 9534   7.615   9.158   3.527  0.2088 -1.8759 -1.8837
   71MOL0     H 9535   7.555   9.112   3.686 -0.6978 -1.3370  0.8182
   71MOL0     H 9536   7.792   8.988   3.419 -0.4372 -0.0991  0.1103
   71MOL0     H 9537   7.879   8.625   3.526 -0.8193  1.2029  1.9195
   71MOL0     H 9538   7.880   8.717   3.376 -0.8741  3.3397 -0.0600
   71MOL0     H 9539   8.040   8.869   3.444 -2.9080 -0.8870 -0.8161
   71MOL0     H 9540   8.023   8.821   3.623 -0.4213 -1.8771  1.3411
   71MOL0     H 9541   8.129   8.637   3.391  3.4304  1.4706 -0.4149
   71MOL0     H 9542   8.131   8.601   3.563  2.3311  0.0008  1.1852
   71MOL0     H 9543   8.283   8.822   3.582  0.1318  0.1020 -0.7833
   71MOL0     H 9544   8.292   8.819   3.409 -0.1601  0.8464  0.0313
   71MOL0     H 9545   8.509   8.494   3.646  0.7323 -0.8986  0.1339
   71MOL0     H 9546   8.737   8.529   3.736 -1.4983 -0.7504  0.4090
   71MOL0     H 9547   9.013   8.536   4.006 -0.0713  1.0896  3.8066
   71MOL0     H 9548   9.265   8.539   4.109  1.2214  2.2287  1.6805
   71MOL0     H 9549   9.544   8.817   3.923 -2.3182  1.1068  0.7790
   71MOL0     H 9550   9.484   8.902   4.064 -0.9396  0.3278 -1.1440
   71MOL0     H 9551   9.729   8.872   4.096  0.4178  0.3845  0.5466
   71MOL0     H 9552   9.629   8.771   4.203 -0.5194  1.1247 -0.3306
   71MOL0     H 9553   9.682   8.569   4.071 -1.3176  0.9308 -0.1978
   71MOL0     H 9554   9.753   8.670   3.942 -1.3279  0.1614 -0.9047
   71MOL0     H 9555   9.850   8.642   4.220 -2.1587  1.7043 -0.2151
   71MOL0     H 9556   9.945   8.721   4.091  1.4578 -0.8746  2.9749
   71MOL0     H 9557   9.963   8.520   3.963 -1.5960  3.5982 -0.6287
   71MOL0     H 9558   9.871   8.423   4.084  1.3565 -0.5035  0.7557
   71MOL0     H 9559  10.114   8.405   4.104  0.6027  0.2647  0.2043
   71MOL0     H 9560  10.126   8.582   4.147  0.1900  0.5490  4.2594
   71MOL0     H 9561   9.941   8.418   4.326  1.1059 -1.4364 -0.0458
   71MOL0     H 9562  10.041   8.560   4.349  1.3713 -0.5210  0.6757
   71MOL0     H 9563  10.150   8.390   4.484  0.5993  1.6732 -0.2096
   71MOL0     H 9564  10.147   8.274   4.359  0.7677 -0.2201 -2.8015
   71MOL0     H 9565   9.316   8.905   3.898  0.8338 -0.5446 -1.3143
   71MOL0     H 9566   9.119   8.886   3.792 -1.2273  0.2736  1.4723
   71MOL0     H 9567   8.717   8.935   3.574  0.0483 -0.3298  0.3044
   71MOL0     H 9568   8.519   8.870   3.457 -1.3703 -0.4106  0.5820
   71MOL0     H 9569   6.715   9.900   3.334 -1.1778  0.6520  0.3754
   71MOL0     H 9570   6.503  10.001   3.461 -0.5647  0.8901  1.0903
   71MOL0     H 9571   6.420  10.396   3.825 -1.0796  2.3803  3.0374
   71MOL0     H 9572   6.210  10.506   3.885  0.9536  0.2150 -0.8752
   71MOL0     H 9573   6.008  10.557   3.923  0.2647 -1.9372 -1.8750
   71MOL0     H 9574   5.915  10.497   4.069  1.9851 -0.8175  0.2760
   71MOL0     H 9575   5.729  10.474   3.943  2.2158 -3.7506 -2.9975
   71MOL0     H 9576   5.809  10.515   3.787  0.6452  1.2477 -1.1157
   71MOL0     H 9577   5.690  10.721   3.841 -0.8119 -1.9173  0.9558
   71MOL0     H 9578   5.857  10.751   3.849 -0.9073  0.3631 -0.1498
   71MOL0     H 9579   5.703  10.687   4.109  0.4699 -2.2662 -2.5093
   71MOL0     H 9580   5.859  10.753   4.100  0.0136 -2.3869  0.4543
   71MOL0     H 9581   5.621  11.101   4.021  0.7327 -1.2139 -2.9735
   71MOL0     H 9582   6.004  10.124   3.876  0.2569 -0.4264 -0.1356
   71MOL0     H 9583   6.259   9.943   3.714  3.0012 -0.6832  2.3545
   71MOL0     H 9584   6.235   9.916   3.889  3.0278 -1.8591 -2.1461
   71MOL0     H 9585   6.100   9.923   3.786  0.9325 -3.9134  4.2036
   72MOL0     O 9586   7.457   4.095  10.425  0.1209 -0.6664 -0.3873
   72MOL0     C 9587   7.459   3.995  10.488 -1.1776  0.3710 -0.7056
   72MOL0     O 9588   7.550   3.973  10.587  0.8109 -0.0249  0.3257
   72MOL0     C 9589   7.675   4.033  10.589  0.5322 -0.3419 -0.5622
   72MOL0     C 9590   7.685   4.146  10.675 -0.0074  0.0123 -0.3589
   72MOL0     C 9591   7.807   4.210  10.673 -0.4595 -1.3254  0.8247
   72MOL0     C 9592   7.917   4.175  10.607 -0.5887 -0.0901 -0.2449
   72MOL0     O 9593   8.032   4.252  10.612 -0.2160  0.0607 -0.2050
   72MOL0     C 9594   8.157   4.182  10.640 -0.2748  0.2667 -0.0287
   72MOL0     C 9595   8.255   4.263  10.720  0.2139 -0.2388 -0.3027
   72MOL0     C 9596   8.217   4.270  10.878 -0.0854 -1.2810 -0.4136
   72MOL0     C 9597   8.261   4.162  10.973  1.0707  0.4183 -0.1793
   72MOL0     C 9598   8.408   4.184  11.010  0.3909 -0.9213  0.5062
   72MOL0     C 9599   8.445   4.075  11.115  0.2545 -0.6193  0.8126
   72MOL0     C 9600   8.583   4.083  11.185  0.1619 -0.0678  0.1041
   72MOL0     C 9601   8.689   4.031  11.089 -0.4727  0.0594 -0.3174
   72MOL0     N 9602   8.829   4.017  11.149 -0.2853  0.6288  0.4824
   72MOL0     C 9603   8.863   3.905  11.234  0.0144  0.1955  0.4186
   72MOL0     C 9604   8.986   3.930  11.286  0.5395 -0.1242 -0.6769
   72MOL0     C 9605   9.057   3.837  11.372  0.4973 -0.8473 -0.4796
   72MOL0     C 9606   9.148   3.912  11.475  0.0034 -0.1982 -0.1192
   72MOL0     C 9607   9.269   3.824  11.524 -0.2725  0.3662  0.3753
   72MOL0     C 9608   9.349   3.907  11.619  0.8561 -0.3048 -0.6733
   72MOL0     O 9609   9.459   3.984  11.564  0.3958 -0.0595  0.1511
   72MOL0     C 9610   9.593   3.945  11.576  0.2429 -0.4994 -0.3178
   72MOL0     C 9611   9.631   3.806  11.593  0.2160 -0.6386  0.2164
   72MOL0     C 9612   9.763   3.774  11.594  0.9226  0.1909  0.6396
   72MOL0     C 9613   9.856   3.880  11.584  0.4340 -0.8723 -0.4515
   72MOL0     C 9614   9.995   3.838  11.589  0.0196 -0.2593 -0.4720
   72MOL0     O 9615  10.011   3.713  11.541 -0.2132  0.0261  0.5904
   72MOL0     C 9616  10.116   3.650  11.595  0.4424  0.3751 -0.2383
   72MOL0     C 9617  10.092   3.541  11.677 -0.4827 -0.0686 -1.0033
   72MOL0     C 9618  10.193   3.471  11.730 -0.2962 -0.7113 -0.0044
   72MOL0     C 9619  10.328   3.506  11.710  0.4327  0.3952  0.9956
   72MOL0     O 9620  10.428   3.438  11.767  0.2601  0.2553 -0.4055
   72MOL0     C 9621  10.504   3.506  11.865 -0.2026 -0.2795 -0.1729
   72MOL0     C 9622  10.632   3.430  11.913 -0.0951  0.6343 -0.2733
   72MOL0     C 9623  10.749   3.417  11.816  0.0074  0.2674  0.2719
   72MOL0     C 9624  10.767   3.269  11.776  0.0253  0.6514  0.6166
   72MOL0     C 9625  10.895   3.229  11.704 -0.8688  0.7384 -0.2876
   72MOL0     C 9626  10.892   3.083  11.666  0.1390  0.6595 -0.4124
   72MOL0     C 9627  11.027   3.030  11.618 -0.1740  0.3096  0.3420
   72MOL0     C 9628  11.040   2.881  11.601  0.2776  0.3476 -0.1326
   72MOL0    Cl 9629  11.094   2.807  11.757  0.2717  0.0068  0.2444
   72MOL0     C 9630  10.352   3.606  11.613  0.6440 -1.0384  0.3020
   72MOL0     C 9631  10.245   3.680  11.562  0.5753  0.4830 -0.1482
   72MOL0     O 9632  10.083   3.917  11.639  0.1628  0.2466  0.4382
   72MOL0     C 9633   9.820   4.009  11.566  0.1649  0.1986 -0.3408
   72MOL0     C 9634   9.687   4.036  11.563  0.0148 -0.0850  0.6155
   72MOL0     N 9635   9.021   4.057  11.239 -0.1329 -0.2511  0.0226
   72MOL0     N 9636   8.933   4.104  11.146  0.0770  0.4490  0.2909
   72MOL0     C 9637   7.898   4.059  10.521  0.5049 -1.4090 -0.5249
   72MOL0     C 9638   7.786   3.988  10.519  0.5753 -0.0350  0.2351
   72MOL0     C 9639   7.335   3.920  10.490  0.3970 -0.1838 -0.9349
   72MOL0     C 9640   7.312   3.853  10.604  0.1962  0.0112 -0.1223
   72MOL0     C 9641   7.188   3.779  10.614  0.5272  0.1112 -0.5045
   72MOL0     C 9642   7.090   3.780  10.522  0.0577  0.6352 -0.0416
   72MOL0     O 9643   6.977   3.711  10.554  0.3945  0.1658 -0.0524
   72MOL0     C 9644   6.877   3.706  10.447  0.4738 -0.0196 -0.0493
   72MOL0     C 9645   6.757   3.612  10.483  0.1314 -0.9605  0.0576
   72MOL0     C 9646   6.686   3.666  10.603  0.0229  0.2167  0.5927
   72MOL0     C 9647   6.581   3.767  10.567  0.5505 -0.1526  0.4046
   72MOL0     C 9648   6.467   3.709  10.489 -0.9310  0.2769 -0.2688
   72MOL0     C 9649   6.378   3.664  10.431  0.9767  0.0831  0.7198
   72MOL0     C 9650   7.115   3.857  10.403  1.2529 -0.0741  0.5393
   72MOL0     C 9651   7.231   3.923  10.384 -0.8843 -0.3145 -0.3201
   72MOL0     C 9652   7.261   3.993  10.256  0.3056 -0.5690 -0.1276
   72MOL0     H 9653   7.598   4.178  10.731  0.3719  3.8716 -1.6653
   72MOL0     H 9654   7.807   4.299  10.734 -2.2853 -0.7218  0.0029
   72MOL0     H 9655   8.128   4.095  10.699  1.4029  0.3148  0.9151
   72MOL0     H 9656   8.188   4.136  10.545  0.6515  0.8871 -0.0394
   72MOL0     H 9657   8.262   4.366  10.684 -1.6541  0.4596  1.1579
   72MOL0     H 9658   8.347   4.207  10.703 -0.5298 -0.8120 -2.7874
   72MOL0     H 9659   8.108   4.274  10.868 -0.2758 -2.1005  1.1253
   72MOL0     H 9660   8.249   4.367  10.917  0.2789 -0.2712 -2.9746
   72MOL0     H 9661   8.197   4.166  11.061  0.8256  1.8963 -0.3940
   72MOL0     H 9662   8.253   4.066  10.923 -0.1761  1.1060 -1.3785
   72MOL0     H 9663   8.469   4.163  10.921  0.1919  1.4061 -0.2246
   72MOL0     H 9664   8.428   4.287  11.039  1.0569 -1.1426  0.8485
   72MOL0     H 9665   8.372   4.082  11.196  0.5392  0.7494  0.9874
   72MOL0     H 9666   8.426   3.976  11.073  0.0773 -0.5500  0.7311
   72MOL0     H 9667   8.575   4.028  11.279 -1.0982  1.3403  0.8495
   72MOL0     H 9668   8.593   4.189  11.211 -1.2454 -0.5875  3.2083
   72MOL0     H 9669   8.658   3.934  11.047  2.5299 -2.1018  1.9727
   72MOL0     H 9670   8.692   4.102  11.006 -1.3458  1.0958  0.5097
   72MOL0     H 9671   8.820   3.806  11.245 -1.9395  1.1059  1.5601
   72MOL0     H 9672   8.984   3.772  11.421 -0.5880 -0.0302 -0.9842
   72MOL0     H 9673   9.116   3.769  11.310 -0.6240 -1.4186 -0.9442
   72MOL0     H 9674   9.188   4.001  11.427  0.4226 -0.1331  0.3427
   72MOL0     H 9675   9.089   3.950  11.559  0.6629 -3.5821  2.0668
   72MOL0     H 9676   9.333   3.799  11.439 -0.9576 -1.1948  0.2744
   72MOL0     H 9677   9.233   3.730  11.567 -0.0877 -0.5344 -1.3499
   72MOL0     H 9678   9.377   3.846  11.706 -0.7204 -0.5655 -0.3127
   72MOL0     H 9679   9.281   3.975  11.671  0.3129 -0.5062 -1.1030
   72MOL0     H 9680   9.554   3.729  11.601 -0.3248 -0.1869 -0.5007
   72MOL0     H 9681   9.798   3.673  11.612  1.7555  0.3032 -0.2489
   72MOL0     H 9682   9.986   3.525  11.695 -1.1109  1.9488 -2.4810
   72MOL0     H 9683  10.161   3.389  11.795 -1.2150 -0.8354 -0.5926
   72MOL0     H 9684  10.534   3.604  11.827 -0.5536  0.9485  2.4967
   72MOL0     H 9685  10.437   3.519  11.950  1.6245  0.8106  1.1569
   72MOL0     H 9686  10.659   3.480  12.006  0.6972  1.1376 -0.7590
   72MOL0     H 9687  10.603   3.331  11.948  0.7937  0.4157 -0.1113
   72MOL0     H 9688  10.719   3.473  11.727  0.2879 -1.7837 -1.1828
   72MOL0     H 9689  10.847   3.453  11.846  0.1768 -0.3054  0.4105
   72MOL0     H 9690  10.691   3.237  11.704  1.8928  2.1214 -2.1615
   72MOL0     H 9691  10.757   3.203  11.862  0.6727 -0.7488 -0.3420
   72MOL0     H 9692  10.979   3.258  11.767  0.4159  0.4610 -1.7988
   72MOL0     H 9693  10.909   3.271  11.604  1.8293 -2.1208 -1.2392
   72MOL0     H 9694  10.880   3.030  11.761 -0.8089 -1.4381 -1.6270
   72MOL0     H 9695  10.813   3.047  11.599  0.2504  0.2252 -0.3114
   72MOL0     H 9696  11.101   3.056  11.695  1.0606 -0.7297 -0.4654
   72MOL0     H 9697  11.049   3.075  11.521  0.6239  0.7161  0.6986
   72MOL0     H 9698  10.950   2.834  11.562  0.0658 -1.2735  2.1454
   72MOL0     H 9699  11.120   2.858  11.529 -1.0232  0.1023 -1.5502
   72MOL0     H 9700  10.454   3.635  11.589  0.4816 -0.8128 -0.1253
   72MOL0     H 9701  10.265   3.765  11.498  2.2246  1.7593  1.9096
   72MOL0     H 9702   9.884   4.097  11.564 -0.3304  0.5861  0.6936
   72MOL0     H 9703   9.657   4.140  11.553 -2.4805 -0.9226 -2.6630
   72MOL0     H 9704   7.981   4.041  10.453  1.0809  1.1057 -0.5947
   72MOL0     H 9705   7.778   3.892  10.469 -1.1644 -0.0323  0.4469
   72MOL0     H 9706   7.381   3.844  10.687  0.9268 -0.1586 -0.7351
   72MOL0     H 9707   7.157   3.727  10.704 -0.1215  1.1007 -0.1433
   72MOL0     H 9708   6.918   3.667  10.354 -0.8037  0.3347 -0.7785
   72MOL0     H 9709   6.840   3.807  10.432 -3.2423 -1.0250  1.2875
   72MOL0     H 9710   6.793   3.509  10.496  0.2940 -1.2352 -2.1924
   72MOL0     H 9711   6.694   3.615  10.394 -0.4369 -2.6825  0.3464
   72MOL0     H 9712   6.763   3.697  10.675  0.3110  2.2550 -0.5287
   72MOL0     H 9713   6.625   3.586  10.647 -2.6778  0.6006 -2.1387
   72MOL0     H 9714   6.532   3.801  10.659  1.8131  1.2523  0.5829
   72MOL0     H 9715   6.620   3.851  10.509 -0.8744  3.2282  3.9362
   72MOL0     H 9716   6.302   3.612  10.375  1.0948  0.8709 -0.2051
   72MOL0     H 9717   7.039   3.854  10.325 -0.1152 -2.2731  1.8886
   72MOL0     H 9718   7.356   3.967  10.208  0.6979 -0.5150  0.6096
   72MOL0     H 9719   7.178   3.977  10.186  1.5400  3.8710 -2.9896
   72MOL0     H 9720   7.267   4.100  10.278 -1.7316 -0.5805  0.6986
   73MOL0     O 9721   0.525   7.464   2.623  0.1851  0.9031 -0.0568
   73MOL0     C 9722   0.482   7.483   2.511  0.4065 -0.1675 -0.1064
   73MOL0     O 9723   0.555   7.520   2.403 -0.2193  0.6205 -0.3399
   73MOL0     C 9724   0.690   7.537   2.417 -0.1252 -0.4884 -0.3860
   73MOL0     C 9725   0.788   7.470   2.360 -1.1883  0.2992  0.0555
   73MOL0     C 9726   0.924   7.502   2.357  0.3542 -0.4182  0.7306
   73MOL0     C 9727   0.966   7.609   2.435 -0.0847  0.0443 -0.1193
   73MOL0     O 9728   1.104   7.643   2.445  0.1763 -0.5716 -0.1775
   73MOL0     C 9729   1.146   7.771   2.404  0.2196 -0.5330 -0.0307
   73MOL0     C 9730   1.291   7.794   2.441  0.0185  0.5291  0.1718
   73MOL0     C 9731   1.323   7.841   2.584  0.5393  0.4750 -0.5222
   73MOL0     C 9732   1.476   7.870   2.599  0.4963 -0.4103 -0.3878
   73MOL0     C 9733   1.496   7.947   2.728 -0.1834  0.2292 -0.4082
   73MOL0     C 9734   1.637   8.013   2.736  0.2433  0.1150  0.1544
   73MOL0     C 9735   1.754   7.928   2.717 -0.6607  0.5936  0.0664
   73MOL0     C 9736   1.892   7.985   2.711 -0.5483  0.7280 -0.5564
   73MOL0     N 9737   1.937   8.068   2.599  0.3796  0.5122 -0.4723
   73MOL0     C 9738   1.987   8.022   2.487 -0.1501  0.0559  0.4072
   73MOL0     C 9739   2.017   8.130   2.407  0.1602  0.5018 -0.0127
   73MOL0     C 9740   2.084   8.143   2.279 -0.9865  0.9838  0.7102
   73MOL0     C 9741   2.209   8.237   2.284 -0.1623  0.4201 -0.1776
   73MOL0     C 9742   2.252   8.277   2.137 -0.9829  0.9160 -0.0638
   73MOL0     C 9743   2.350   8.181   2.074 -0.3690 -0.1893  0.0495
   73MOL0     O 9744   2.466   8.160   2.157 -0.5666 -0.7842 -0.0200
   73MOL0     C 9745   2.566   8.252   2.164  0.0860 -0.1296 -0.1744
   73MOL0     C 9746   2.581   8.359   2.077  0.4903  0.9388  0.5365
   73MOL0     C 9747   2.696   8.438   2.075  0.7032  0.0971 -0.0107
   73MOL0     C 9748   2.803   8.415   2.147 -0.0267 -0.1605  0.2162
   73MOL0     C 9749   2.927   8.500   2.142 -0.1606  0.2447 -0.0059
   73MOL0     O 9750   3.028   8.461   2.225 -0.3960 -0.0721 -0.7466
   73MOL0     C 9751   3.146   8.522   2.214 -0.5376  0.1587 -0.3076
   73MOL0     C 9752   3.161   8.662   2.196 -0.3621  0.9004 -0.7627
   73MOL0     C 9753   3.285   8.719   2.179 -0.8191 -0.3928  0.1878
   73MOL0     C 9754   3.405   8.642   2.187 -0.0562 -0.0040 -0.0587
   73MOL0     O 9755   3.533   8.702   2.171  0.2070  0.1738 -0.0962
   73MOL0     C 9756   3.637   8.663   2.262 -0.4126  0.1955 -0.2182
   73MOL0     C 9757   3.743   8.771   2.265  0.5013  1.4982 -1.0244
   73MOL0     C 9758   3.853   8.711   2.353 -0.3233 -1.1338  0.7824
   73MOL0     C 9759   3.983   8.788   2.345 -0.2259  0.0964 -0.5651
   73MOL0     C 9760   4.084   8.724   2.446 -0.4789 -0.0215 -0.5329
   73MOL0     C 9761   4.227   8.761   2.412  0.4980  0.8216 -0.4888
   73MOL0     C 9762   4.314   8.736   2.533 -0.6968 -0.3736  0.7587
   73MOL0     C 9763   4.464   8.736   2.499  0.8638 -0.7767 -0.1361
   73MOL0    Cl 9764   4.524   8.603   2.388 -0.2524 -0.3355 -0.6251
   73MOL0     C 9765   3.391   8.511   2.202 -0.4862  1.0348 -0.3178
   73MOL0     C 9766   3.265   8.448   2.210 -0.3915  1.2297  0.4748
   73MOL0     O 9767   2.934   8.586   2.046 -0.4165  0.0554  0.5462
   73MOL0     C 9768   2.797   8.304   2.239  0.2664 -0.4896  0.8369
   73MOL0     C 9769   2.683   8.229   2.244  0.3048 -0.8265 -0.2489
   73MOL0     N 9770   1.991   8.236   2.481  0.6516  0.2445 -0.0001
   73MOL0     N 9771   1.945   8.206   2.597  0.6906 -0.1232 -0.7870
   73MOL0     C 9772   0.871   7.693   2.491  0.0764 -0.1606  0.2902
   73MOL0     C 9773   0.735   7.648   2.492  0.0342  0.0622 -0.2519
   73MOL0     C 9774   0.339   7.476   2.490 -0.3869  0.4466  0.4799
   73MOL0     C 9775   0.268   7.381   2.568 -0.4028 -0.0101 -0.2660
   73MOL0     C 9776   0.130   7.371   2.571 -0.7124  0.9391  0.4756
   73MOL0     C 9777   0.050   7.437   2.482 -0.0341 -0.0141 -0.1111
   73MOL0     O 9778  -0.091   7.426   2.494 -0.0017  0.5138  1.1750
   73MOL0     C 9779  -0.159   7.545   2.453  0.5411 -0.2810  0.8289
   73MOL0     C 9780  -0.125   7.680   2.516 -1.1335  0.6108  0.2639
   73MOL0     C 9781  -0.241   7.781   2.517 -0.1025 -0.1062 -0.1790
   73MOL0     C 9782  -0.201   7.903   2.598  0.3588  0.1449 -0.4772
   73MOL0     C 9783  -0.081   7.976   2.551 -0.1678  0.2383 -0.7531
   73MOL0     C 9784   0.008   8.054   2.519 -0.1000  0.3970  0.9986
   73MOL0     C 9785   0.118   7.521   2.389 -0.0282 -0.0366  0.2629
   73MOL0     C 9786   0.261   7.556   2.403  0.7439  0.6425 -0.0199
   73MOL0     C 9787   0.316   7.666   2.320  0.1620  0.0092  0.1391
   73MOL0     H 9788   0.759   7.385   2.299 -3.3333  0.7979  0.3081
   73MOL0     H 9789   0.992   7.441   2.298  1.0965 -0.7860  1.9214
   73MOL0     H 9790   1.141   7.785   2.295 -0.9713  4.4595  0.4136
   73MOL0     H 9791   1.081   7.855   2.433  2.2352  0.5633  1.5765
   73MOL0     H 9792   1.309   7.884   2.382 -0.7247  0.8650  0.4344
   73MOL0     H 9793   1.349   7.708   2.405 -1.6053 -0.1561 -0.9440
   73MOL0     H 9794   1.293   7.776   2.666  0.4690  0.5045 -0.5245
   73MOL0     H 9795   1.290   7.944   2.597  0.4870  0.5792 -1.3891
   73MOL0     H 9796   1.544   7.785   2.586  3.2874  1.4533  1.0019
   73MOL0     H 9797   1.508   7.937   2.519 -2.7547  0.6264 -0.9827
   73MOL0     H 9798   1.421   8.026   2.724  0.8784  1.2107 -2.6537
   73MOL0     H 9799   1.477   7.886   2.817 -0.1481  0.3990 -0.2834
   73MOL0     H 9800   1.642   8.075   2.646 -1.2286 -3.5432 -2.6836
   73MOL0     H 9801   1.641   8.080   2.822 -0.6868  0.1719  0.1723
   73MOL0     H 9802   1.747   7.873   2.623  4.5760  1.3645 -1.0425
   73MOL0     H 9803   1.750   7.852   2.796  0.5067 -3.5682 -3.5011
   73MOL0     H 9804   1.892   8.044   2.803 -2.2134  0.3932 -0.3104
   73MOL0     H 9805   1.947   7.891   2.718  0.1091  0.9868 -1.9415
   73MOL0     H 9806   1.984   7.917   2.457  2.1177  0.3284 -1.0191
   73MOL0     H 9807   2.110   8.040   2.251 -1.1722  1.3646 -0.9349
   73MOL0     H 9808   2.012   8.185   2.209 -0.6249 -0.1880 -0.3950
   73MOL0     H 9809   2.177   8.332   2.328 -0.3933 -1.2956  3.7789
   73MOL0     H 9810   2.287   8.194   2.347  0.7201  1.7252 -0.3362
   73MOL0     H 9811   2.306   8.372   2.141  0.3852  0.2011 -0.8635
   73MOL0     H 9812   2.158   8.285   2.081 -0.7693  0.1841 -0.5369
   73MOL0     H 9813   2.381   8.221   1.977  0.2711 -5.0731 -2.0205
   73MOL0     H 9814   2.308   8.082   2.056 -1.5489  0.4490 -0.8929
   73MOL0     H 9815   2.509   8.397   2.005  0.3621 -0.6642 -0.2232
   73MOL0     H 9816   2.685   8.520   2.005 -0.1250  0.1707  0.1936
   73MOL0     H 9817   3.077   8.731   2.195 -1.9908 -0.9913 -1.9247
   73MOL0     H 9818   3.289   8.826   2.161  1.3049 -0.5638 -0.7223
   73MOL0     H 9819   3.593   8.652   2.361 -2.3308 -0.2208 -1.0733
   73MOL0     H 9820   3.688   8.571   2.231  0.1299  1.2887 -2.8991
   73MOL0     H 9821   3.785   8.786   2.165  2.3485  2.6195 -0.1397
   73MOL0     H 9822   3.697   8.861   2.307 -0.6336  1.0825 -1.3479
   73MOL0     H 9823   3.808   8.716   2.453 -2.1114  0.9886 -0.0436
   73MOL0     H 9824   3.880   8.607   2.337  2.1032 -0.4316 -0.2121
   73MOL0     H 9825   3.960   8.894   2.358  0.9404  0.3904 -0.7524
   73MOL0     H 9826   4.018   8.766   2.244 -0.9012 -1.1026 -0.5480
   73MOL0     H 9827   4.065   8.616   2.449  1.7136 -0.5884 -2.9090
   73MOL0     H 9828   4.051   8.772   2.538 -2.6066  0.1240 -1.3214
   73MOL0     H 9829   4.270   8.701   2.331 -1.8851 -3.1423  0.8765
   73MOL0     H 9830   4.220   8.863   2.374 -0.3487  0.1224 -2.3078
   73MOL0     H 9831   4.280   8.640   2.575 -2.8053 -1.2993 -2.6879
   73MOL0     H 9832   4.290   8.815   2.605 -2.5047 -2.1680  2.2537
   73MOL0     H 9833   4.492   8.838   2.470 -1.0737 -0.1313  0.1629
   73MOL0     H 9834   4.520   8.718   2.591 -0.7986  0.5955  1.2278
   73MOL0     H 9835   3.479   8.448   2.207 -0.1595  1.4099 -1.1980
   73MOL0     H 9836   3.276   8.342   2.234 -0.5143  1.5097  1.8444
   73MOL0     H 9837   2.881   8.268   2.298  0.9978  0.4896  0.4306
   73MOL0     H 9838   2.683   8.140   2.307  2.8601 -0.6195  0.1650
   73MOL0     H 9839   0.912   7.781   2.540 -2.1396  0.3947  1.2678
   73MOL0     H 9840   0.662   7.694   2.558  0.9852  0.2396  0.7089
   73MOL0     H 9841   0.315   7.314   2.639  0.2146 -1.5849 -2.0740
   73MOL0     H 9842   0.076   7.320   2.651 -0.2238  0.3599  0.4385
   73MOL0     H 9843  -0.265   7.526   2.473 -0.5806  4.1497  0.1555
   73MOL0     H 9844  -0.139   7.555   2.346  2.2026 -0.5575  1.0856
   73MOL0     H 9845  -0.042   7.722   2.459 -0.7260  1.0154  1.1255
   73MOL0     H 9846  -0.085   7.647   2.613  1.9340 -3.4854 -2.0788
   73MOL0     H 9847  -0.323   7.729   2.568 -0.0274 -0.8655 -0.7982
   73MOL0     H 9848  -0.259   7.802   2.411 -1.0198  1.4628  0.2521
   73MOL0     H 9849  -0.288   7.971   2.596  0.4504  0.2520 -0.8550
   73MOL0     H 9850  -0.190   7.874   2.703 -2.8277 -1.1786 -0.3750
   73MOL0     H 9851   0.083   8.124   2.491  0.1035 -0.6500 -1.2507
   73MOL0     H 9852   0.065   7.566   2.307  0.0410 -1.1301 -0.4037
   73MOL0     H 9853   0.240   7.709   2.255  2.5407 -0.3514 -3.1201
   73MOL0     H 9854   0.356   7.746   2.383 -0.5743  1.5055 -1.2164
   73MOL0     H 9855   0.390   7.628   2.249 -1.2848 -3.0276  0.0801
   74MOL0     O 9856   8.105   0.706   3.731 -0.2729  0.1490  0.4080
   74MOL0     C 9857   8.071   0.695   3.613 -0.1594  0.5234 -1.0312
   74MOL0     O 9858   8.113   0.595   3.533 -0.2808  0.5492 -0.0288
   74MOL0     C 9859   8.215   0.526   3.584 -0.0141 -0.4697 -0.1316
   74MOL0     C 9860   8.349   0.552   3.544 -0.1945  0.0207  0.7346
   74MOL0     C 9861   8.450   0.459   3.580 -1.3317  0.3311 -0.0803
   74MOL0     C 9862   8.416   0.343   3.652 -0.1234  0.4829 -0.1722
   74MOL0     O 9863   8.509   0.256   3.700 -0.4818 -0.8729  0.1921
   74MOL0     C 9864   8.464   0.138   3.774  0.0525 -0.0314 -0.0985
   74MOL0     C 9865   8.583   0.063   3.824  0.5470  0.1397 -0.9060
   74MOL0     C 9866   8.679   0.004   3.718 -0.4964 -0.7330 -0.7697
   74MOL0     C 9867   8.780  -0.091   3.793  0.5176  1.3234  0.2802
   74MOL0     C 9868   8.882  -0.134   3.689 -0.5651  0.6191  0.0750
   74MOL0     C 9869   8.967  -0.249   3.748 -0.1256  0.2465  0.5068
   74MOL0     C 9870   9.038  -0.328   3.633  0.4776 -0.2462 -0.0937
   74MOL0     C 9871   9.167  -0.258   3.579 -0.5178  0.6177  0.3849
   74MOL0     N 9872   9.242  -0.312   3.458  0.3662 -0.7613  0.4816
   74MOL0     C 9873   9.308  -0.427   3.466 -0.7020  0.1486  0.4304
   74MOL0     C 9874   9.345  -0.451   3.338 -0.9110 -0.3885  0.0117
   74MOL0     C 9875   9.418  -0.567   3.278  0.5494  0.2472 -0.5051
   74MOL0     C 9876   9.512  -0.641   3.375 -0.7369 -0.4006  0.8451
   74MOL0     C 9877   9.631  -0.704   3.303 -0.5473  0.2432  0.3158
   74MOL0     C 9878   9.746  -0.604   3.279 -0.1723  0.8936 -0.6316
   74MOL0     O 9879   9.864  -0.680   3.241  0.1644  0.7463  0.6597
   74MOL0     C 9880   9.987  -0.626   3.242  0.2596  0.5432  0.2104
   74MOL0     C 9881  10.013  -0.487   3.261  0.1821  1.4761  0.4523
   74MOL0     C 9882  10.152  -0.445   3.252  1.2824  0.3579 -0.1329
   74MOL0     C 9883  10.257  -0.541   3.238  0.0307  0.1760 -1.3944
   74MOL0     C 9884  10.398  -0.481   3.248  0.5122 -0.5816  1.1643
   74MOL0     O 9885  10.493  -0.568   3.204  0.7964 -0.0383  0.1346
   74MOL0     C 9886  10.620  -0.526   3.220 -0.2881  0.7095 -0.0263
   74MOL0     C 9887  10.704  -0.521   3.109  0.7969  0.5373  1.0204
   74MOL0     C 9888  10.840  -0.502   3.129  0.7043 -0.6495  0.1508
   74MOL0     C 9889  10.896  -0.463   3.249  0.9305  1.5878 -1.1458
   74MOL0     O 9890  11.028  -0.425   3.245 -0.0480  0.3623 -0.5073
   74MOL0     C 9891  11.084  -0.386   3.367  0.0494  0.6056 -0.0693
   74MOL0     C 9892  11.221  -0.328   3.339 -0.0474  0.5728  0.1864
   74MOL0     C 9893  11.319  -0.430   3.286  0.6412 -0.3599 -0.2985
   74MOL0     C 9894  11.460  -0.376   3.301  0.9586  0.2877 -0.1164
   74MOL0     C 9895  11.561  -0.478   3.264  0.0379  0.3593 -0.3554
   74MOL0     C 9896  11.692  -0.403   3.230  0.2870  0.1581 -0.2931
   74MOL0     C 9897  11.802  -0.509   3.230  0.3205 -0.1994 -0.7662
   74MOL0     C 9898  11.942  -0.437   3.203 -0.1593  0.2574  0.4706
   74MOL0    Cl 9899  12.078  -0.543   3.257  0.0657  0.0591 -0.1088
   74MOL0     C 9900  10.811  -0.464   3.361 -0.6526 -0.1834  0.6409
   74MOL0     C 9901  10.669  -0.484   3.344 -0.3967 -0.1270 -0.5579
   74MOL0     O 9902  10.417  -0.376   3.298  0.0083 -0.0880  0.3217
   74MOL0     C 9903  10.227  -0.681   3.236 -0.0369  0.3644  0.1986
   74MOL0     C 9904  10.092  -0.720   3.240 -0.0696  0.6288  0.1498
   74MOL0     N 9905   9.308  -0.344   3.254  0.5478  0.0285 -0.3276
   74MOL0     N 9906   9.237  -0.267   3.324  0.3718  0.3914 -0.6774
   74MOL0     C 9907   8.286   0.331   3.695  0.1033 -0.0535  0.4987
   74MOL0     C 9908   8.186   0.411   3.661 -0.0883 -0.2620  0.5885
   74MOL0     C 9909   7.960   0.788   3.573 -0.4918 -0.2465  0.3707
   74MOL0     C 9910   7.864   0.744   3.468 -0.6151 -0.3463 -0.6196
   74MOL0     C 9911   7.770   0.829   3.421 -0.6770 -0.1261  0.1997
   74MOL0     C 9912   7.737   0.953   3.480  0.5429  0.3077  1.5722
   74MOL0     O 9913   7.643   1.042   3.434  0.4814  0.3881 -0.3324
   74MOL0     C 9914   7.562   1.000   3.326 -0.2709  0.9125 -0.2599
   74MOL0     C 9915   7.431   1.078   3.330  0.4024  0.5442  0.1828
   74MOL0     C 9916   7.339   1.034   3.445  0.2971 -0.2734 -0.1655
   74MOL0     C 9917   7.264   0.909   3.420  0.3154  0.7685 -0.2869
   74MOL0     C 9918   7.141   0.895   3.505 -0.3728  0.1430 -0.6421
   74MOL0     C 9919   7.050   0.874   3.588 -0.0853 -0.3983 -0.2059
   74MOL0     C 9920   7.817   0.990   3.575 -0.6294 -0.6029 -0.4120
   74MOL0     C 9921   7.934   0.916   3.616  0.3190 -0.7348 -0.5431
   74MOL0     C 9922   8.004   0.980   3.734  0.3683  0.9192 -0.8209
   74MOL0     H 9923   8.370   0.641   3.485  1.5954  0.7204  2.3402
   74MOL0     H 9924   8.552   0.480   3.548  0.2974 -2.0421  2.9755
   74MOL0     H 9925   8.404   0.160   3.863 -1.3138 -2.1615 -0.4121
   74MOL0     H 9926   8.405   0.069   3.713 -1.4591  0.0896  1.1595
   74MOL0     H 9927   8.544  -0.013   3.892  0.8606 -0.0984 -0.9931
   74MOL0     H 9928   8.644   0.131   3.885  0.4412  0.4075 -1.0980
   74MOL0     H 9929   8.731   0.087   3.671 -2.9345  1.0444 -0.5404
   74MOL0     H 9930   8.618  -0.050   3.645 -0.2530 -2.3320  0.1422
   74MOL0     H 9931   8.832  -0.042   3.876  0.2797 -1.7851  2.4570
   74MOL0     H 9932   8.727  -0.175   3.839  1.6054  0.6821  0.3909
   74MOL0     H 9933   8.833  -0.180   3.603 -1.5467 -0.2927  1.0986
   74MOL0     H 9934   8.944  -0.048   3.663  5.6329 -1.8526  4.3249
   74MOL0     H 9935   9.048  -0.230   3.819 -0.5335  1.8973  0.5554
   74MOL0     H 9936   8.897  -0.322   3.792 -1.1317  0.8043 -0.1411
   74MOL0     H 9937   8.961  -0.345   3.557 -2.7416  0.8124  2.6849
   74MOL0     H 9938   9.076  -0.418   3.683  1.6514  0.4833  0.3743
   74MOL0     H 9939   9.128  -0.161   3.545 -0.8814  0.4172  0.2218
   74MOL0     H 9940   9.233  -0.248   3.666 -0.3814 -1.0883  0.4975
   74MOL0     H 9941   9.341  -0.490   3.548 -0.3480 -0.9957 -0.5651
   74MOL0     H 9942   9.344  -0.645   3.260  1.8212 -1.0164 -0.5043
   74MOL0     H 9943   9.463  -0.551   3.180 -1.0364 -1.0776 -1.4864
   74MOL0     H 9944   9.547  -0.583   3.461 -1.9629  1.3226  0.2574
   74MOL0     H 9945   9.455  -0.726   3.414 -0.5254 -2.1432 -2.3352
   74MOL0     H 9946   9.605  -0.749   3.207  0.9116 -2.0364  0.8936
   74MOL0     H 9947   9.681  -0.781   3.363  1.5795 -1.6453 -3.5082
   74MOL0     H 9948   9.752  -0.535   3.364 -2.6622  1.5055 -0.8579
   74MOL0     H 9949   9.717  -0.539   3.196  0.4087 -0.9086 -2.3114
   74MOL0     H 9950   9.943  -0.405   3.271  0.1433  1.4348  0.5164
   74MOL0     H 9951  10.177  -0.340   3.253  3.5252 -0.0763 -2.0162
   74MOL0     H 9952  10.668  -0.559   3.014  0.6792  0.8686  0.9315
   74MOL0     H 9953  10.901  -0.518   3.041  1.5775 -1.2936  0.8631
   74MOL0     H 9954  11.031  -0.299   3.407  0.9118  0.8639  0.5372
   74MOL0     H 9955  11.090  -0.467   3.440  1.0277  0.5069 -0.2436
   74MOL0     H 9956  11.217  -0.237   3.278  2.9905  0.6248 -0.1115
   74MOL0     H 9957  11.268  -0.292   3.432  1.6431 -0.7219 -0.1236
   74MOL0     H 9958  11.303  -0.515   3.353 -0.8674  1.3970  1.7187
   74MOL0     H 9959  11.302  -0.450   3.180 -0.9809 -2.6234  0.3246
   74MOL0     H 9960  11.475  -0.336   3.401  0.4164  1.0767 -0.3384
   74MOL0     H 9961  11.457  -0.297   3.225 -0.4907 -0.9159 -1.3933
   74MOL0     H 9962  11.531  -0.534   3.174 -1.7729 -1.0639  1.0316
   74MOL0     H 9963  11.574  -0.549   3.347  3.2212  1.1189 -0.0941
   74MOL0     H 9964  11.673  -0.354   3.134 -2.4460  0.4468  0.3101
   74MOL0     H 9965  11.712  -0.325   3.304  2.1277 -0.4224 -0.1197
   74MOL0     H 9966  11.773  -0.580   3.151 -2.2452  0.3455 -0.4083
   74MOL0     H 9967  11.812  -0.567   3.322  1.9592  0.3012 -0.5982
   74MOL0     H 9968  11.951  -0.418   3.096  3.3323 -0.3734  0.5228
   74MOL0     H 9969  11.947  -0.343   3.260 -1.0410 -1.2506  3.2274
   74MOL0     H 9970  10.850  -0.437   3.459 -1.1345  0.9148  0.5512
   74MOL0     H 9971  10.603  -0.485   3.430  4.5158  3.4788  3.9500
   74MOL0     H 9972  10.295  -0.765   3.230 -0.6917 -0.0788 -1.8538
   74MOL0     H 9973  10.061  -0.824   3.229 -0.7427  0.9545 -1.2239
   74MOL0     H 9974   8.246   0.261   3.767  0.2995  2.5163  3.3072
   74MOL0     H 9975   8.082   0.408   3.689 -0.5943 -0.1511 -1.1651
   74MOL0     H 9976   7.871   0.649   3.416 -3.0773 -0.3686 -1.0486
   74MOL0     H 9977   7.718   0.787   3.335  4.1731 -2.4580 -1.9801
   74MOL0     H 9978   7.545   0.892   3.330  0.9923  0.7167  0.0700
   74MOL0     H 9979   7.608   1.024   3.230 -2.2330 -3.0546 -2.4485
   74MOL0     H 9980   7.375   1.060   3.238  1.9805  1.1035 -0.9295
   74MOL0     H 9981   7.447   1.185   3.321 -1.1547  0.6580 -1.8797
   74MOL0     H 9982   7.263   1.112   3.461 -0.9238 -1.9777  3.4508
   74MOL0     H 9983   7.398   1.036   3.537 -0.1172 -0.0846  0.0989
   74MOL0     H 9984   7.231   0.900   3.317  1.4517 -0.4354 -0.5795
   74MOL0     H 9985   7.324   0.819   3.437  0.3451  0.4815 -1.8037
   74MOL0     H 9986   6.985   0.850   3.669 -0.2533  1.2339  0.1775
   74MOL0     H 9987   7.800   1.084   3.627 -0.1249  0.1409 -1.5570
   74MOL0     H 9988   7.967   0.932   3.825  1.3696 -0.1186 -0.9343
   74MOL0     H 9989   8.111   0.961   3.719  0.1125 -1.4097 -0.1358
   74MOL0     H 9990   7.981   1.085   3.750  1.3491  1.0750 -0.3101
   75MOL0     O 9991  10.773   7.215  10.627  0.1131  1.6415 -0.3014
   75MOL0     C 9992  10.775   7.317  10.567 -0.7976 -0.4869  0.8182
   75MOL0     O 9993  10.883   7.391  10.532 -1.0216 -0.9026 -0.3571
   75MOL0     C 9994  10.996   7.371  10.607 -0.1173 -0.0917 -0.4692
   75MOL0     C 9995  11.116   7.355  10.543  0.2253 -0.1996 -0.0793
   75MOL0     C 9996  11.232   7.312  10.610  0.6650 -0.2396  0.3739
   75MOL0     C 9997  11.229   7.284  10.743 -0.2009  1.1911 -0.7206
   75MOL0     O 9998  11.343   7.233  10.805 -0.1266  0.7369  0.5244
   75MOL0     C 9999  11.326   7.147  10.913 -0.3752  0.9169 -0.1167
   75MOL0     C10000  11.442   7.047  10.931 -0.1310 -0.3961 -0.2121
   75MOL0     C10001  11.566   7.120  10.985  0.4311  0.4643 -0.5563
   75MOL0     C10002  11.690   7.038  10.968  0.1007 -0.3981  0.2502
   75MOL0     C10003  11.819   7.104  11.019  0.1970  0.4711 -0.3755
   75MOL0     C10004  11.875   7.207  10.920  0.1126 -0.7288  0.4589
   75MOL0     C10005  11.987   7.280  10.981 -0.2008 -0.7733 -0.0386
   75MOL0     C10006  12.071   7.343  10.873  0.2438 -0.4076  0.3531
   75MOL0     N10007  12.179   7.250  10.833  0.5801 -0.9862  0.2635
   75MOL0     C10008  12.157   7.137  10.761  0.1000  0.3381  0.3717
   75MOL0     C10009  12.277   7.081  10.750  0.2081  0.4693 -0.1157
   75MOL0     C10010  12.314   6.956  10.672  0.2250 -1.0910 -0.2153
   75MOL0     C10011  12.243   6.958  10.529  0.1383  0.8281 -0.4840
   75MOL0     C10012  12.283   6.835  10.447  0.4228 -0.7513  0.6037
   75MOL0     C10013  12.431   6.829  10.422  0.2455 -0.8656 -0.2162
   75MOL0     O10014  12.486   6.958  10.369 -0.2239  0.5233 -0.9502
   75MOL0     C10015  12.621   6.982  10.408 -0.5854  0.5172 -0.1877
   75MOL0     C10016  12.648   7.106  10.465 -0.6884 -0.5451 -0.3912
   75MOL0     C10017  12.782   7.136  10.492  0.4818  0.4384  0.6009
   75MOL0     C10018  12.882   7.039  10.477  1.0812 -0.1401  0.4995
   75MOL0     C10019  13.028   7.076  10.500  0.0994  0.0021 -0.9895
   75MOL0     O10020  13.058   7.209  10.527 -0.0720 -1.5477 -0.2611
   75MOL0     C10021  13.191   7.232  10.538  1.0229  0.4774 -0.2800
   75MOL0     C10022  13.250   7.257  10.668  0.7600 -0.0359 -0.0400
   75MOL0     C10023  13.384   7.295  10.682 -0.4201 -0.4174  0.6980
   75MOL0     C10024  13.468   7.299  10.566 -0.2558  0.4673 -1.0361
   75MOL0     O10025  13.600   7.323  10.568 -0.3216  0.0067  0.2485
   75MOL0     C10026  13.668   7.377  10.683  0.2866  0.5553  0.2889
   75MOL0     C10027  13.820   7.381  10.675  0.6904 -0.3305 -0.3091
   75MOL0     C10028  13.868   7.502  10.595 -0.1831  0.6515  0.1913
   75MOL0     C10029  14.020   7.491  10.574  0.4971 -0.4045  0.2991
   75MOL0     C10030  14.075   7.617  10.504  0.4374  0.6167 -0.0139
   75MOL0     C10031  14.003   7.650  10.373  0.7454  0.3050 -0.3286
   75MOL0     C10032  13.986   7.544  10.271 -0.6177 -0.3448  0.4971
   75MOL0     C10033  13.867   7.577  10.174 -1.2562  0.5973 -0.0054
   75MOL0    Cl10034  13.710   7.540  10.243 -0.1313 -0.0017 -0.0276
   75MOL0     C10035  13.403   7.279  10.439 -0.4919 -0.1382  0.3724
   75MOL0     C10036  13.264   7.246  10.421  0.6944  0.4906 -0.3217
   75MOL0     O10037  13.102   6.979  10.491 -0.6299  0.6036  0.4655
   75MOL0     C10038  12.851   6.915  10.421 -0.3547 -0.2526 -0.1176
   75MOL0     C10039  12.716   6.890  10.382  0.1535 -0.1176 -0.7438
   75MOL0     N10040  12.366   7.152  10.819 -0.1477 -0.8276 -0.5063
   75MOL0     N10041  12.312   7.255  10.876  0.1981 -0.9279 -0.5721
   75MOL0     C10042  11.113   7.299  10.812  0.0296  0.4183 -0.0617
   75MOL0     C10043  10.997   7.343  10.746 -0.7551  0.0801 -0.5360
   75MOL0     C10044  10.651   7.385  10.513 -0.4315  0.2317 -0.2020
   75MOL0     C10045  10.556   7.297  10.458  0.2415 -1.0577 -0.0151
   75MOL0     C10046  10.447   7.352  10.389 -0.5665  0.1592 -0.3291
   75MOL0     C10047  10.435   7.492  10.382  0.2469  0.6992  0.2213
   75MOL0     O10048  10.341   7.538  10.291  0.3724  0.5684  0.1222
   75MOL0     C10049  10.247   7.636  10.354  0.1182 -0.0540  0.4455
   75MOL0     C10050  10.109   7.640  10.286 -0.2021  0.6411 -0.1138
   75MOL0     C10051  10.113   7.702  10.145 -0.4062 -0.1393 -0.2986
   75MOL0     C10052   9.987   7.693  10.070  0.1308  0.0080 -0.3319
   75MOL0     C10053   9.995   7.738   9.929 -0.0554  0.9185  0.0524
   75MOL0     C10054  10.006   7.781   9.816 -0.3134 -0.3194 -0.4740
   75MOL0     C10055  10.520   7.576  10.453 -0.1415  0.8577  0.2169
   75MOL0     C10056  10.634   7.522  10.516  1.4032  0.4025 -0.8103
   75MOL0     C10057  10.725   7.615  10.589 -0.9354  0.4115 -0.4063
   75MOL0     H10058  11.113   7.366  10.435  0.6166 -1.2485 -0.2136
   75MOL0     H10059  11.326   7.301  10.556  0.3045  1.0180 -0.5394
   75MOL0     H10060  11.328   7.213  11.001 -0.3112  1.3601 -0.4474
   75MOL0     H10061  11.236   7.088  10.929 -0.8460  1.7242  0.2594
   75MOL0     H10062  11.454   6.997  10.834  0.4194 -3.2990  1.2399
   75MOL0     H10063  11.418   6.973  11.008 -0.1750 -0.2435 -0.0791
   75MOL0     H10064  11.559   7.146  11.091  0.5299 -0.2257 -0.3737
   75MOL0     H10065  11.579   7.214  10.932 -0.8379  0.5058 -0.8373
   75MOL0     H10066  11.677   6.941  11.016  2.0136 -0.7690  0.1127
   75MOL0     H10067  11.701   7.005  10.864  3.2555 -0.6570  0.5591
   75MOL0     H10068  11.791   7.159  11.109 -0.2034 -2.4356  1.4283
   75MOL0     H10069  11.895   7.030  11.046  0.6448 -0.1744 -3.1389
   75MOL0     H10070  11.912   7.159  10.829 -2.3361  0.8225 -1.5013
   75MOL0     H10071  11.794   7.279  10.904 -0.5008 -0.9832  2.2246
   75MOL0     H10072  12.049   7.223  11.051 -0.3402  1.2724  1.8360
   75MOL0     H10073  11.946   7.359  11.044  3.4817  1.9908 -0.7428
   75MOL0     H10074  12.016   7.379  10.786  0.5223 -0.9753 -0.0548
   75MOL0     H10075  12.119   7.426  10.926 -2.2341  1.5386 -0.2545
   75MOL0     H10076  12.071   7.110  10.700  0.2090  0.5767  0.1081
   75MOL0     H10077  12.422   6.960  10.653  0.0320 -0.0069 -1.1642
   75MOL0     H10078  12.276   6.868  10.725 -3.8468 -1.8233 -3.7415
   75MOL0     H10079  12.134   6.960  10.521  0.1073 -1.3690 -1.2104
   75MOL0     H10080  12.275   7.048  10.476  3.1903  1.3062  1.8710
   75MOL0     H10081  12.223   6.836  10.356 -1.2273 -2.4555  1.5853
   75MOL0     H10082  12.246   6.750  10.505 -1.6577  0.2866  0.8944
   75MOL0     H10083  12.447   6.752  10.346  1.3129  0.8124 -1.7508
   75MOL0     H10084  12.484   6.792  10.511 -0.1720 -0.0681  0.3816
   75MOL0     H10085  12.577   7.184  10.491  0.2852  0.0072  0.7321
   75MOL0     H10086  12.811   7.231  10.536  0.0857  0.4461  0.8546
   75MOL0     H10087  13.180   7.257  10.752 -0.3378  1.6424 -0.8963
   75MOL0     H10088  13.419   7.313  10.783 -1.6148 -3.2052  1.7042
   75MOL0     H10089  13.633   7.480  10.694 -0.3912  0.2096  1.5503
   75MOL0     H10090  13.630   7.317  10.766 -2.3847 -2.5834 -2.8856
   75MOL0     H10091  13.862   7.383  10.776 -0.8724 -0.9074  0.3778
   75MOL0     H10092  13.843   7.282  10.634  1.6760  0.3605 -1.5286
   75MOL0     H10093  13.826   7.492  10.495  2.6118 -1.8448 -0.8725
   75MOL0     H10094  13.832   7.595  10.640 -0.5044  0.2575  0.7609
   75MOL0     H10095  14.044   7.398  10.522  1.4072  1.3242 -2.5797
   75MOL0     H10096  14.069   7.484  10.672  0.8703  1.6345  0.2998
   75MOL0     H10097  14.183   7.612  10.486  0.5983  0.5454  0.9155
   75MOL0     H10098  14.064   7.709  10.561 -0.0908  0.5532 -0.0073
   75MOL0     H10099  13.904   7.685  10.405  1.0779  1.3673 -0.4046
   75MOL0     H10100  14.044   7.741  10.328  0.3471  0.7444  0.1748
   75MOL0     H10101  13.978   7.444  10.315 -0.0586  0.1064  1.6890
   75MOL0     H10102  14.074   7.534  10.207 -1.3983 -0.7742 -0.5356
   75MOL0     H10103  13.872   7.683  10.146  0.0726  0.3266 -0.8970
   75MOL0     H10104  13.884   7.530  10.077  0.1117  0.7121  0.1555
   75MOL0     H10105  13.462   7.282  10.348  0.1265  1.6236  0.7964
   75MOL0     H10106  13.234   7.227  10.318  0.7892 -2.1032  0.0582
   75MOL0     H10107  12.928   6.848  10.385 -1.1623 -0.6507 -1.1552
   75MOL0     H10108  12.695   6.798  10.329  1.1866 -0.3847 -0.7071
   75MOL0     H10109  11.113   7.274  10.917 -2.7486  0.4924  0.0211
   75MOL0     H10110  10.901   7.350  10.796 -0.4356 -1.0888  0.2848
   75MOL0     H10111  10.569   7.189  10.467  0.4688 -1.0606 -0.3921
   75MOL0     H10112  10.381   7.285  10.335  0.2728 -0.1605 -0.9829
   75MOL0     H10113  10.287   7.737  10.347  2.5368 -0.9562  0.2604
   75MOL0     H10114  10.236   7.611  10.460 -0.0010  1.6233  0.8538
   75MOL0     H10115  10.048   7.701  10.354 -1.0577 -1.7081  1.3751
   75MOL0     H10116  10.061   7.541  10.280  3.9018 -1.4852 -1.5579
   75MOL0     H10117  10.189   7.642  10.094 -0.6409 -0.2582 -0.5100
   75MOL0     H10118  10.145   7.807  10.148 -0.1217 -0.1680 -1.5496
   75MOL0     H10119   9.964   7.587  10.061 -0.6137  0.2063 -0.8493
   75MOL0     H10120   9.913   7.753  10.125 -0.5086 -0.8490 -0.2487
   75MOL0     H10121  10.012   7.812   9.713 -1.5730 -1.1264 -0.8229
   75MOL0     H10122  10.509   7.682  10.435  0.0326  0.6531 -1.2321
   75MOL0     H10123  10.795   7.564  10.658  0.6459  0.7880 -1.6651
   75MOL0     H10124  10.786   7.658  10.510 -0.4222 -3.2430 -2.2294
   75MOL0     H10125  10.668   7.691  10.643 -0.2735  2.1937 -2.1016
   76MOL0     O10126   8.838   9.483   3.525 -0.5425 -0.0379 -0.0263
   76MOL0     C10127   8.949   9.481   3.471 -0.1575  0.0214 -0.4630
   76MOL0     O10128   8.992   9.546   3.358 -0.0196 -0.6256  0.0757
   76MOL0     C10129   8.902   9.631   3.292 -0.0603  0.0489 -0.1925
   76MOL0     C10130   8.780   9.690   3.335 -0.7634  0.2544  0.1290
   76MOL0     C10131   8.705   9.761   3.251  0.2365 -0.3138  0.2350
   76MOL0     C10132   8.741   9.805   3.118 -0.7437 -0.2838 -0.4297
   76MOL0     O10133   8.648   9.878   3.057 -0.5260  0.0480  0.2002
   76MOL0     C10134   8.625   9.872   2.914  0.9802  0.1602 -0.3614
   76MOL0     C10135   8.496   9.796   2.891  0.3844  0.0474 -0.0918
   76MOL0     C10136   8.507   9.649   2.938 -0.0924 -0.7658  0.5991
   76MOL0     C10137   8.409   9.548   2.871  0.3425  0.0380 -0.5324
   76MOL0     C10138   8.276   9.519   2.954 -0.6943 -0.3637 -0.2892
   76MOL0     C10139   8.165   9.628   2.946 -1.3249 -0.0577 -0.4665
   76MOL0     C10140   8.027   9.584   2.995  0.7339  0.4842 -0.6794
   76MOL0     C10141   7.952   9.465   2.922  0.2850 -0.0693 -0.0571
   76MOL0     N10142   7.930   9.498   2.780 -0.3843  0.3328  0.2760
   76MOL0     C10143   8.005   9.450   2.672 -0.2533 -0.7972 -1.3795
   76MOL0     C10144   7.929   9.485   2.568  0.5844 -0.5512 -0.2386
   76MOL0     C10145   7.964   9.449   2.427 -0.2084 -0.6744  0.1321
   76MOL0     C10146   8.097   9.507   2.380  0.8975 -0.1082  0.7785
   76MOL0     C10147   8.111   9.484   2.228  0.2439 -0.1739 -0.3490
   76MOL0     C10148   8.241   9.543   2.174  0.5739  0.1061  0.0218
   76MOL0     O10149   8.363   9.471   2.206 -0.7615  0.5783 -0.7378
   76MOL0     C10150   8.481   9.521   2.157 -0.1224 -0.0006  0.1782
   76MOL0     C10151   8.493   9.642   2.094 -0.8656 -0.0219 -0.5694
   76MOL0     C10152   8.617   9.677   2.049  0.1147  0.0668  0.1071
   76MOL0     C10153   8.733   9.605   2.075 -0.0948  0.3236 -0.5658
   76MOL0     C10154   8.863   9.658   2.067  0.7287 -0.2656 -0.3153
   76MOL0     O10155   8.877   9.785   2.037  0.0839 -0.4301 -0.2820
   76MOL0     C10156   8.998   9.841   2.016 -0.4684  0.1123  0.0096
   76MOL0     C10157   8.990   9.977   1.981  0.1662 -0.8377 -0.0015
   76MOL0     C10158   9.099  10.059   1.962 -0.3253  0.2914 -0.7665
   76MOL0     C10159   9.231  10.004   1.962 -0.1467  0.4991  0.2782
   76MOL0     O10160   9.339  10.081   1.930 -0.3975  0.3846 -0.2345
   76MOL0     C10161   9.477  10.023   1.925  0.3500  0.7583  0.1946
   76MOL0     C10162   9.578  10.117   1.867  0.0717 -1.2274 -0.9318
   76MOL0     C10163   9.573  10.120   1.713 -0.0685  0.5684  0.0709
   76MOL0     C10164   9.650  10.232   1.658 -0.6733 -0.5594 -0.9633
   76MOL0     C10165   9.638  10.246   1.509 -0.0874 -0.1141 -0.2211
   76MOL0     C10166   9.737  10.345   1.452  0.5853 -0.3971  0.0119
   76MOL0     C10167   9.720  10.357   1.308  0.4597  0.2369  0.8387
   76MOL0     C10168   9.606  10.453   1.267 -0.2504  0.2273  0.3340
   76MOL0    Cl10169   9.678  10.609   1.265 -0.3203 -0.1236 -0.2865
   76MOL0     C10170   9.244   9.866   1.998  0.6222 -0.5261  0.7450
   76MOL0     C10171   9.130   9.789   2.025  0.4886  0.0021 -0.0593
   76MOL0     O10172   8.951   9.580   2.103 -0.3091 -0.3720  0.3537
   76MOL0     C10173   8.714   9.471   2.122  0.1822 -0.3492 -0.6674
   76MOL0     C10174   8.586   9.433   2.166  0.1873  0.1771 -1.2833
   76MOL0     N10175   7.824   9.562   2.608 -0.4418  0.2081  0.4030
   76MOL0     N10176   7.837   9.580   2.734  0.6728  0.2731  0.6158
   76MOL0     C10177   8.862   9.753   3.075  0.5408 -0.1897  0.0306
   76MOL0     C10178   8.944   9.676   3.165  0.3227  1.5213  0.8092
   76MOL0     C10179   9.049   9.392   3.537 -0.9418 -0.2905 -0.3465
   76MOL0     C10180   8.993   9.295   3.624  0.6076 -0.1943 -0.6435
   76MOL0     C10181   9.079   9.187   3.663 -0.1362 -0.1495  0.0460
   76MOL0     C10182   9.216   9.169   3.624 -0.0762 -0.1292 -0.0229
   76MOL0     O10183   9.268   9.051   3.668  0.2364 -0.5488 -0.6791
   76MOL0     C10184   9.405   9.016   3.643  0.0181 -0.6084  0.7597
   76MOL0     C10185   9.513   9.084   3.740 -0.3461 -0.0980 -0.3858
   76MOL0     C10186   9.654   9.041   3.687  0.1884 -0.1091 -0.7916
   76MOL0     C10187   9.766   9.097   3.778 -0.8835 -0.9344  0.7199
   76MOL0     C10188   9.900   9.074   3.713 -0.7598 -0.1221 -0.5668
   76MOL0     C10189  10.005   9.041   3.660 -0.1720 -0.4425 -0.8327
   76MOL0     C10190   9.271   9.278   3.558  0.2224 -0.1174  0.8425
   76MOL0     C10191   9.190   9.395   3.518 -0.3317  0.0349 -0.5350
   76MOL0     C10192   9.263   9.505   3.446  0.9680  1.5368 -0.0892
   76MOL0     H10193   8.744   9.674   3.436  0.6047 -0.2268  0.5584
   76MOL0     H10194   8.612   9.799   3.292 -1.2508 -2.5537 -0.8331
   76MOL0     H10195   8.624   9.973   2.871  1.4799  0.4553  0.3076
   76MOL0     H10196   8.698   9.832   2.843 -0.5543 -2.5325 -0.5201
   76MOL0     H10197   8.495   9.788   2.782  1.7793  0.4506 -0.1484
   76MOL0     H10198   8.415   9.857   2.932  0.9620  2.5605 -2.3823
   76MOL0     H10199   8.498   9.652   3.047 -2.5236  0.1900  0.4333
   76MOL0     H10200   8.607   9.615   2.909 -0.2782 -0.8560  0.0507
   76MOL0     H10201   8.380   9.592   2.776  0.4886  2.6028  0.5199
   76MOL0     H10202   8.449   9.446   2.869 -1.0268 -0.5975 -4.9209
   76MOL0     H10203   8.229   9.429   2.914  0.0378 -1.1126  0.4888
   76MOL0     H10204   8.294   9.508   3.061 -2.0820  3.3333  0.4844
   76MOL0     H10205   8.198   9.719   2.998  1.2397  1.2753 -4.0328
   76MOL0     H10206   8.165   9.651   2.839  1.3195  0.6030 -0.3846
   76MOL0     H10207   7.969   9.667   2.956 -0.1383  0.2407  0.0598
   76MOL0     H10208   8.010   9.577   3.103  0.2105 -2.1809 -0.8598
   76MOL0     H10209   8.018   9.378   2.934  1.2152  0.7279  0.7627
   76MOL0     H10210   7.857   9.457   2.975  1.6342 -1.9030  2.3275
   76MOL0     H10211   8.091   9.384   2.668  2.0833  1.8065  0.9831
   76MOL0     H10212   7.970   9.340   2.436 -1.5245 -0.6403  1.9751
   76MOL0     H10213   7.888   9.483   2.355  1.4476  1.5065 -0.6768
   76MOL0     H10214   8.100   9.613   2.405  1.9559 -0.1475  0.8657
   76MOL0     H10215   8.178   9.453   2.429  0.0127  0.0045  2.4302
   76MOL0     H10216   8.024   9.518   2.172 -0.2675 -0.6831  0.1267
   76MOL0     H10217   8.109   9.375   2.215 -0.8905 -0.1951 -0.0286
   76MOL0     H10218   8.249   9.644   2.214  0.9366  0.5381 -1.0931
   76MOL0     H10219   8.242   9.551   2.065 -1.2620  1.5167  0.0628
   76MOL0     H10220   8.413   9.715   2.083 -2.7188 -1.6705  1.0417
   76MOL0     H10221   8.627   9.773   1.998 -1.3999 -0.5027 -1.3220
   76MOL0     H10222   8.888  10.012   1.975  0.7471  1.0441  0.3082
   76MOL0     H10223   9.073  10.163   1.947 -0.7374  0.3956  0.5339
   76MOL0     H10224   9.503   9.995   2.027  3.9460 -3.1696 -1.4976
   76MOL0     H10225   9.466   9.936   1.860  0.2078  0.9972 -0.1082
   76MOL0     H10226   9.558  10.218   1.904  2.4934 -2.0879  3.4567
   76MOL0     H10227   9.673  10.095   1.916 -0.7256 -1.7216  0.4352
   76MOL0     H10228   9.625  10.031   1.675 -3.5514 -1.3292 -0.6379
   76MOL0     H10229   9.466  10.118   1.692 -0.7105 -1.9049  2.9589
   76MOL0     H10230   9.756  10.218   1.683  0.1288 -0.2995 -3.7817
   76MOL0     H10231   9.618  10.321   1.713 -2.2428 -1.7088  0.0472
   76MOL0     H10232   9.535  10.273   1.484  0.6361  1.8749 -1.3162
   76MOL0     H10233   9.652  10.145   1.472  0.2163  0.0856 -0.6538
   76MOL0     H10234   9.717  10.436   1.508  0.7120 -1.6315  2.1725
   76MOL0     H10235   9.841  10.320   1.477 -0.0163 -1.9880  1.0738
   76MOL0     H10236   9.700  10.257   1.268 -3.3157  1.2327 -0.1331
   76MOL0     H10237   9.812  10.390   1.258  0.8155  0.3456  1.5486
   76MOL0     H10238   9.555  10.435   1.172 -2.1398  2.2945  0.8832
   76MOL0     H10239   9.526  10.440   1.339  2.3785 -0.9735  3.2550
   76MOL0     H10240   9.337   9.812   1.987 -0.0958 -1.6553 -0.0073
   76MOL0     H10241   9.140   9.683   2.042  2.2610  0.7048  5.5007
   76MOL0     H10242   8.800   9.410   2.147  0.5652  0.4875  0.1212
   76MOL0     H10243   8.575   9.332   2.206 -0.0295  0.0902 -1.5538
   76MOL0     H10244   8.886   9.784   2.974 -1.5974 -0.1049 -0.4923
   76MOL0     H10245   9.032   9.627   3.124  0.8608  4.7585 -2.3521
   76MOL0     H10246   8.891   9.298   3.661  0.4853 -0.9538 -0.9024
   76MOL0     H10247   9.021   9.108   3.710 -3.1878  1.5271 -0.5980
   76MOL0     H10248   9.426   9.047   3.540  2.8494 -1.9956  0.8307
   76MOL0     H10249   9.422   8.908   3.648 -2.7284 -1.0726  2.8997
   76MOL0     H10250   9.498   9.038   3.838 -0.0781  2.1031  0.7628
   76MOL0     H10251   9.514   9.193   3.754  1.6374 -0.1861  0.6430
   76MOL0     H10252   9.670   9.073   3.583  1.2738 -0.2592 -0.6729
   76MOL0     H10253   9.662   8.932   3.691 -2.2153 -0.3949 -1.8878
   76MOL0     H10254   9.753   9.202   3.805 -0.7179 -1.5130  3.2616
   76MOL0     H10255   9.762   9.049   3.876  0.1590 -0.3934  1.0476
   76MOL0     H10256  10.104   9.026   3.621  0.3787 -0.2372  0.4393
   76MOL0     H10257   9.377   9.270   3.535 -0.1807  0.8354 -1.7307
   76MOL0     H10258   9.219   9.604   3.462 -2.8298  0.1573 -0.9090
   76MOL0     H10259   9.371   9.502   3.463  0.8060 -2.4031  1.3832
   76MOL0     H10260   9.246   9.488   3.339  1.0372 -0.3835  0.1601
   77MOL0     O10261   1.827   8.646   1.545  0.1589  0.0329  0.0479
   77MOL0     C10262   1.812   8.630   1.419 -0.2649 -0.3798  0.1775
   77MOL0     O10263   1.901   8.680   1.327  0.9315  0.2233 -0.1268
   77MOL0     C10264   2.021   8.716   1.365 -0.0201 -0.2060  1.7267
   77MOL0     C10265   2.045   8.851   1.389  0.8189  0.0812  0.3027
   77MOL0     C10266   2.177   8.902   1.414  0.4172  0.4893 -0.5858
   77MOL0     C10267   2.286   8.814   1.417 -0.1394 -0.4331 -0.7493
   77MOL0     O10268   2.416   8.853   1.453 -0.3583  0.1147  0.1449
   77MOL0     C10269   2.430   8.956   1.555 -0.3502  0.3699 -0.8341
   77MOL0     C10270   2.475   9.081   1.473 -0.7051  0.4767  0.4625
   77MOL0     C10271   2.626   9.075   1.455 -0.0091  0.1537 -0.2258
   77MOL0     C10272   2.678   9.212   1.444  0.3765 -0.1056 -1.6209
   77MOL0     C10273   2.825   9.210   1.453  0.0117  0.1981 -0.8325
   77MOL0     C10274   2.881   9.348   1.453 -0.3778 -0.2820  0.0485
   77MOL0     C10275   3.037   9.344   1.408  0.6660  0.9281  0.2301
   77MOL0     C10276   3.117   9.247   1.499  0.3493  0.0695 -0.8500
   77MOL0     N10277   3.088   9.239   1.648  0.0233 -0.4644  0.8797
   77MOL0     C10278   3.107   9.133   1.732  0.3209 -0.5311 -0.0336
   77MOL0     C10279   3.109   9.183   1.858  0.2876  0.6372 -0.0910
   77MOL0     C10280   3.114   9.099   1.983 -0.3578 -0.0366 -0.0372
   77MOL0     C10281   3.245   9.047   2.026 -0.1211 -0.5199 -0.3317
   77MOL0     C10282   3.369   9.137   1.997  0.4338 -0.5653 -0.2228
   77MOL0     C10283   3.487   9.113   2.092  1.7129  0.6667  0.0215
   77MOL0     O10284   3.593   9.162   2.022 -0.6974 -0.0353 -0.1211
   77MOL0     C10285   3.714   9.174   2.091 -0.5768 -0.1428 -0.5938
   77MOL0     C10286   3.814   9.218   2.009  0.4934 -0.3895 -0.4632
   77MOL0     C10287   3.944   9.243   2.058 -0.4664  1.3452  0.0296
   77MOL0     C10288   3.980   9.228   2.194  0.4474 -0.4515 -0.1803
   77MOL0     C10289   4.120   9.239   2.245 -0.2992  0.8181 -0.7011
   77MOL0     O10290   4.133   9.212   2.375  0.6447  0.1749 -0.4163
   77MOL0     C10291   4.254   9.239   2.434  0.7686  0.5460  0.1036
   77MOL0     C10292   4.253   9.352   2.516  0.7152  1.1255  1.1931
   77MOL0     C10293   4.368   9.389   2.579  0.3955 -0.1285  0.2983
   77MOL0     C10294   4.490   9.319   2.548 -0.1855  0.1070 -0.3942
   77MOL0     O10295   4.613   9.334   2.612  0.0910 -0.4579  0.9865
   77MOL0     C10296   4.629   9.438   2.696  0.4973 -0.6133 -0.3851
   77MOL0     C10297   4.779   9.486   2.705 -0.7282  0.4397  0.4604
   77MOL0     C10298   4.877   9.369   2.717 -0.0069  0.0280 -0.6388
   77MOL0     C10299   5.015   9.413   2.748  0.0919  0.2495 -0.6714
   77MOL0     C10300   5.113   9.294   2.765 -0.5964  0.8064  0.5099
   77MOL0     C10301   5.150   9.224   2.626 -0.1516  0.3359  0.7034
   77MOL0     C10302   5.222   9.090   2.644 -0.3512 -0.9425 -0.1098
   77MOL0     C10303   5.267   9.040   2.509 -0.3044  0.6253 -0.8024
   77MOL0    Cl10304   5.128   9.039   2.384 -0.0977 -0.0162  0.4714
   77MOL0     C10305   4.490   9.217   2.453  0.6630  0.1584  0.1836
   77MOL0     C10306   4.369   9.168   2.407 -0.5593  0.4115 -0.4005
   77MOL0     O10307   4.211   9.263   2.168  0.8092 -0.5096 -0.0039
   77MOL0     C10308   3.867   9.185   2.283  0.0948  0.5314 -0.9386
   77MOL0     C10309   3.742   9.157   2.232  0.7291  0.7429  0.0365
   77MOL0     N10310   3.087   9.317   1.847  0.2922 -0.4881 -0.2717
   77MOL0     N10311   3.083   9.349   1.729 -0.3932 -0.0525  0.0099
   77MOL0     C10312   2.258   8.683   1.393 -0.0501  0.3102 -0.5299
   77MOL0     C10313   2.125   8.628   1.364 -0.4682  0.0490  0.0464
   77MOL0     C10314   1.681   8.589   1.370  0.4675 -0.1767 -0.5220
   77MOL0     C10315   1.622   8.652   1.262  0.0913  1.1040 -0.5736
   77MOL0     C10316   1.499   8.601   1.212  0.0630 -0.1263 -0.3359
   77MOL0     C10317   1.432   8.499   1.271  0.3289  0.1076  0.0002
   77MOL0     O10318   1.309   8.453   1.228 -0.1062  0.3818 -0.1641
   77MOL0     C10319   1.210   8.515   1.133 -0.0450  0.2357  0.0146
   77MOL0     C10320   1.089   8.587   1.204  0.0235  0.0129 -0.1664
   77MOL0     C10321   1.009   8.485   1.282  0.7308  0.5603 -0.2914
   77MOL0     C10322   0.873   8.543   1.343 -0.2348 -0.2860  0.0759
   77MOL0     C10323   0.773   8.495   1.248  0.4599 -1.0649 -0.1413
   77MOL0     C10324   0.670   8.457   1.185 -0.5810 -0.4989  0.4810
   77MOL0     C10325   1.489   8.438   1.380  0.2030 -0.1037  0.0400
   77MOL0     C10326   1.611   8.475   1.434 -0.3438  0.2446  0.2883
   77MOL0     C10327   1.674   8.381   1.538  0.2360  0.0591  0.9544
   77MOL0     H10328   1.970   8.929   1.395  1.6619  0.8802  0.5929
   77MOL0     H10329   2.194   9.004   1.447  0.3616  0.2767  0.1136
   77MOL0     H10330   2.339   8.992   1.605 -1.1159 -0.0517 -1.8784
   77MOL0     H10331   2.508   8.935   1.628  0.4424  3.5519 -0.6146
   77MOL0     H10332   2.444   9.166   1.534 -1.5811 -0.2870  1.0996
   77MOL0     H10333   2.424   9.091   1.376  0.6898  2.7119 -0.1111
   77MOL0     H10334   2.654   9.016   1.368 -1.5690 -2.2670  0.8131
   77MOL0     H10335   2.671   9.027   1.543  1.7894  0.4768 -0.9270
   77MOL0     H10336   2.642   9.254   1.350 -0.8933  1.6989 -0.3950
   77MOL0     H10337   2.639   9.272   1.527  1.0247 -1.1088 -0.5605
   77MOL0     H10338   2.857   9.159   1.545 -0.8555  1.1342  0.0093
   77MOL0     H10339   2.864   9.154   1.368 -0.2865 -1.2154 -0.0857
   77MOL0     H10340   2.818   9.413   1.391 -1.2792 -2.1011 -1.0286
   77MOL0     H10341   2.872   9.399   1.549 -4.1348 -2.3577  1.0172
   77MOL0     H10342   3.074   9.447   1.411 -1.0455  1.5939  3.3807
   77MOL0     H10343   3.056   9.313   1.305 -2.2737 -0.4520  0.0039
   77MOL0     H10344   3.101   9.144   1.465 -1.6284  0.1188 -0.1871
   77MOL0     H10345   3.222   9.277   1.491 -0.5403  3.6119 -0.6448
   77MOL0     H10346   3.127   9.028   1.713  1.7504  0.1911 -3.2416
   77MOL0     H10347   3.062   9.149   2.065 -0.4476 -2.9940  1.8577
   77MOL0     H10348   3.059   9.009   1.955 -0.9281  0.1226  0.5645
   77MOL0     H10349   3.241   9.031   2.134  0.0487  1.1323 -0.0625
   77MOL0     H10350   3.250   8.955   1.967 -2.0907 -0.4209 -0.6930
   77MOL0     H10351   3.343   9.243   1.987  3.0415  0.3414  1.5894
   77MOL0     H10352   3.404   9.117   1.895  1.3976  3.4178 -0.8112
   77MOL0     H10353   3.486   9.007   2.117 -0.6997  0.8025  0.7202
   77MOL0     H10354   3.478   9.162   2.190  1.1760  0.8102 -0.0958
   77MOL0     H10355   3.804   9.241   1.904  2.7527  1.7783 -0.2860
   77MOL0     H10356   4.014   9.263   1.978 -0.8970 -1.0398 -1.0191
   77MOL0     H10357   4.163   9.411   2.529 -0.3832  0.2294 -1.6071
   77MOL0     H10358   4.368   9.482   2.634  0.6256 -0.0654  0.1948
   77MOL0     H10359   4.570   9.526   2.665  1.0003 -0.0821  0.1461
   77MOL0     H10360   4.595   9.414   2.797  3.5006  1.5669  1.2928
   77MOL0     H10361   4.809   9.526   2.608 -2.6216 -1.0063 -0.8067
   77MOL0     H10362   4.791   9.556   2.788 -0.8790  1.5177 -0.4024
   77MOL0     H10363   4.852   9.312   2.807 -0.1838  0.2939 -0.5163
   77MOL0     H10364   4.877   9.303   2.630 -2.1479  1.2493 -1.6662
   77MOL0     H10365   5.006   9.472   2.840 -1.5012 -2.7054  1.2415
   77MOL0     H10366   5.051   9.490   2.678 -0.7389  2.5092  1.2266
   77MOL0     H10367   5.067   9.215   2.825 -0.1592  0.9984  1.0998
   77MOL0     H10368   5.200   9.331   2.820  0.2083  2.4932 -1.7695
   77MOL0     H10369   5.055   9.199   2.578 -0.4216  0.8404  0.9685
   77MOL0     H10370   5.210   9.295   2.569 -1.6900  1.9541  0.9894
   77MOL0     H10371   5.153   9.019   2.691 -0.0267 -3.0284 -2.5525
   77MOL0     H10372   5.312   9.111   2.703 -1.7397  0.2778  1.6919
   77MOL0     H10373   5.340   9.112   2.471 -0.2836  0.9053 -0.2362
   77MOL0     H10374   5.315   8.942   2.510 -0.2340  0.6488  1.2718
   77MOL0     H10375   4.576   9.157   2.424 -0.1383 -1.2584  0.6069
   77MOL0     H10376   4.367   9.081   2.342 -2.2571 -1.4638  1.9983
   77MOL0     H10377   3.885   9.160   2.387  0.1325 -2.3334 -1.5542
   77MOL0     H10378   3.658   9.126   2.294  0.4746  0.5464 -0.3991
   77MOL0     H10379   2.351   8.626   1.395 -0.0336  0.2674 -1.7168
   77MOL0     H10380   2.119   8.526   1.329 -0.3966 -0.2895  1.0185
   77MOL0     H10381   1.670   8.732   1.207  0.5955  0.4241 -1.1551
   77MOL0     H10382   1.447   8.643   1.127 -0.3502 -0.1737 -0.1062
   77MOL0     H10383   1.163   8.442   1.065 -2.5962  0.0962  1.7843
   77MOL0     H10384   1.265   8.593   1.080  1.0393 -0.6559 -0.2153
   77MOL0     H10385   1.022   8.636   1.133 -0.5146 -0.1566  0.2142
   77MOL0     H10386   1.125   8.663   1.274 -1.7688  1.8291 -1.1111
   77MOL0     H10387   1.067   8.437   1.361  1.0123  0.2122 -0.7089
   77MOL0     H10388   0.983   8.403   1.215 -0.3083 -0.8912  1.7707
   77MOL0     H10389   0.838   8.497   1.435 -0.9492  1.5562  0.7654
   77MOL0     H10390   0.888   8.649   1.367 -0.3190 -0.0962 -0.6750
   77MOL0     H10391   0.596   8.428   1.113  1.0182  0.4011 -1.6414
   77MOL0     H10392   1.432   8.355   1.419 -0.4180 -0.1309 -0.8809
   77MOL0     H10393   1.697   8.428   1.634  0.9221 -0.4859  1.0688
   77MOL0     H10394   1.613   8.292   1.556  1.6760 -0.8290  1.6241
   77MOL0     H10395   1.767   8.342   1.494 -1.7477 -0.7374 -3.0023
   78MOL0     O10396  10.745   7.875   9.543 -0.1627 -0.4238  0.5580
   78MOL0     C10397  10.688   7.773   9.579  0.7059  0.0339  0.0272
   78MOL0     O10398  10.747   7.663   9.632 -0.0986  1.0056  0.3026
   78MOL0     C10399  10.884   7.671   9.667  0.5437 -0.1507 -0.3379
   78MOL0     C10400  10.979   7.655   9.561  0.1677  0.1488 -0.2893
   78MOL0     C10401  11.114   7.694   9.588  0.2562  1.2332 -1.4143
   78MOL0     C10402  11.150   7.749   9.714 -0.1591  0.8657  0.6073
   78MOL0     O10403  11.289   7.760   9.737  0.4040 -0.2784 -0.3050
   78MOL0     C10404  11.329   7.741   9.875 -0.1840  0.2701  0.2522
   78MOL0     C10405  11.473   7.713   9.888 -0.5056 -0.6155  0.0411
   78MOL0     C10406  11.530   7.612   9.789  0.2382 -1.3080 -1.0356
   78MOL0     C10407  11.672   7.651   9.763 -0.0870  0.0759  0.0674
   78MOL0     C10408  11.739   7.560   9.664  0.1308 -0.5168  0.5658
   78MOL0     C10409  11.893   7.572   9.681  0.4098 -0.3374  0.0531
   78MOL0     C10410  11.969   7.678   9.603  0.4176 -0.4346 -0.6653
   78MOL0     C10411  12.008   7.789   9.701 -0.6487  0.1776  0.3428
   78MOL0     N10412  12.137   7.752   9.762  0.2515 -0.2219  0.5156
   78MOL0     C10413  12.262   7.753   9.691 -0.6275 -0.5098  0.5051
   78MOL0     C10414  12.355   7.715   9.785 -0.2235 -0.2114 -0.1992
   78MOL0     C10415  12.501   7.720   9.768 -0.2863  0.4714  0.5589
   78MOL0     C10416  12.550   7.866   9.775 -0.4016  1.0975  0.7241
   78MOL0     C10417  12.691   7.882   9.816 -0.3757  0.5151 -1.0145
   78MOL0     C10418  12.796   7.855   9.704 -0.6553 -0.8451 -0.0482
   78MOL0     O10419  12.925   7.881   9.760  0.7849  0.0089 -0.2441
   78MOL0     C10420  13.042   7.856   9.692 -0.0485  0.5941  0.3121
   78MOL0     C10421  13.163   7.847   9.764 -0.2699  0.1832 -0.0279
   78MOL0     C10422  13.281   7.828   9.696 -0.6770  0.2426 -0.3241
   78MOL0     C10423  13.293   7.823   9.559 -0.5254  0.2425  0.2734
   78MOL0     C10424  13.429   7.826   9.485  1.0068 -0.2524  0.0752
   78MOL0     O10425  13.549   7.814   9.559 -0.6148  0.5451  0.2446
   78MOL0     C10426  13.663   7.817   9.481 -0.4895 -0.0219  0.0503
   78MOL0     C10427  13.762   7.719   9.507  0.4252  0.4388 -0.2272
   78MOL0     C10428  13.877   7.724   9.432 -0.4428 -0.6078 -0.1454
   78MOL0     C10429  13.906   7.826   9.335  0.1824 -0.2503  0.3271
   78MOL0     O10430  14.024   7.831   9.254 -0.1295  0.2051  0.5546
   78MOL0     C10431  14.095   7.707   9.224 -0.1735 -0.3862 -0.3862
   78MOL0     C10432  14.178   7.735   9.104 -0.3967 -1.0591  0.7121
   78MOL0     C10433  14.245   7.607   9.036  0.6319 -0.9139  0.4109
   78MOL0     C10434  14.392   7.587   9.072 -0.3105  0.4862 -0.0695
   78MOL0     C10435  14.423   7.581   9.224  0.1586 -0.0366  0.8069
   78MOL0     C10436  14.564   7.524   9.245  0.2119 -0.7370  0.7176
   78MOL0     C10437  14.678   7.613   9.210 -0.2875  0.8329  0.2155
   78MOL0     C10438  14.807   7.531   9.208  0.2145  0.4455  0.2202
   78MOL0    Cl10439  14.846   7.454   9.366  0.1906 -0.0688  0.1605
   78MOL0     C10440  13.806   7.919   9.311 -0.5044  0.0168  0.4065
   78MOL0     C10441  13.691   7.916   9.384  0.2437  0.3136 -0.0681
   78MOL0     O10442  13.417   7.819   9.365 -0.7739  0.1006  0.6467
   78MOL0     C10443  13.174   7.847   9.488 -0.3303 -0.0503 -0.2607
   78MOL0     C10444  13.052   7.868   9.553 -0.1259  0.1452 -0.7142
   78MOL0     N10445  12.288   7.677   9.897  0.0182 -0.7752 -0.4696
   78MOL0     N10446  12.168   7.708   9.887  0.6901  0.8757 -0.1991
   78MOL0     C10447  11.048   7.750   9.818 -0.5861 -0.6397 -0.6470
   78MOL0     C10448  10.916   7.722   9.796 -0.3290 -0.6612  0.2267
   78MOL0     C10449  10.544   7.769   9.554 -0.3178 -0.2123  0.2963
   78MOL0     C10450  10.483   7.643   9.573 -0.0135 -0.9815  0.0900
   78MOL0     C10451  10.349   7.621   9.552 -0.8212 -0.5593 -0.5249
   78MOL0     C10452  10.261   7.728   9.514  0.7467  1.1676  0.4170
   78MOL0     O10453  10.124   7.711   9.486  0.0842  0.5464  0.3123
   78MOL0     C10454  10.069   7.583   9.506  0.5338  0.5845 -0.2317
   78MOL0     C10455   9.915   7.605   9.506  0.2156  0.2592 -0.1009
   78MOL0     C10456   9.848   7.485   9.571 -0.1337  0.5293 -0.5560
   78MOL0     C10457   9.711   7.520   9.637  0.0633  0.6633 -0.3761
   78MOL0     C10458   9.641   7.403   9.705  0.8730 -0.5650 -0.1878
   78MOL0     C10459   9.606   7.300   9.759  0.0066 -0.2719 -0.6293
   78MOL0     C10460  10.318   7.854   9.511 -0.0382  0.3601 -0.1895
   78MOL0     C10461  10.455   7.879   9.519 -0.1271 -0.3964 -0.6062
   78MOL0     C10462  10.507   8.020   9.481 -0.2017  0.1338 -0.1376
   78MOL0     H10463  10.955   7.626   9.459  0.8001  2.8479 -1.2837
   78MOL0     H10464  11.198   7.688   9.519  0.9750  2.2210 -0.6463
   78MOL0     H10465  11.302   7.826   9.938  0.5251 -0.0693  1.0348
   78MOL0     H10466  11.268   7.658   9.912 -3.5120  1.5835 -1.8161
   78MOL0     H10467  11.484   7.676   9.990  1.7374  1.7016  0.7336
   78MOL0     H10468  11.524   7.809   9.893 -1.4916 -0.1154  0.9875
   78MOL0     H10469  11.479   7.625   9.693 -0.0805  1.9923 -0.5473
   78MOL0     H10470  11.522   7.508   9.823 -0.0395 -0.5142  1.5572
   78MOL0     H10471  11.665   7.752   9.723 -2.4805  0.7334  1.8965
   78MOL0     H10472  11.732   7.652   9.854 -0.6797 -0.7739  0.4805
   78MOL0     H10473  11.706   7.457   9.674 -3.0276 -0.0610 -2.8513
   78MOL0     H10474  11.705   7.593   9.565 -3.5737  0.6387  2.0601
   78MOL0     H10475  11.919   7.570   9.787 -3.1147 -2.1634  1.0621
   78MOL0     H10476  11.916   7.478   9.628 -0.9138 -1.0896  0.7580
   78MOL0     H10477  11.904   7.728   9.531 -0.5423  1.9063  1.6941
   78MOL0     H10478  12.056   7.634   9.552  1.1701 -0.5637  0.6749
   78MOL0     H10479  12.014   7.882   9.644 -0.1940 -0.4985 -0.7455
   78MOL0     H10480  11.944   7.800   9.789  0.8878  0.8997  1.4072
   78MOL0     H10481  12.287   7.796   9.595  2.2997  0.9114  1.7951
   78MOL0     H10482  12.543   7.662   9.850  0.8168 -1.2680 -1.1534
   78MOL0     H10483  12.531   7.686   9.669  1.5463  1.3861  0.7500
   78MOL0     H10484  12.537   7.905   9.674 -2.5727 -1.1652  0.0168
   78MOL0     H10485  12.490   7.913   9.853  1.7018  1.3146  2.2827
   78MOL0     H10486  12.708   7.823   9.906 -1.6716  0.3543 -0.8599
   78MOL0     H10487  12.700   7.986   9.847  4.0339 -0.0121  0.0699
   78MOL0     H10488  12.772   7.928   9.626 -0.4379  0.4049  1.0384
   78MOL0     H10489  12.796   7.750   9.673 -0.7672 -0.8968  0.1244
   78MOL0     H10490  13.156   7.852   9.872 -0.5851  0.3452 -0.0572
   78MOL0     H10491  13.373   7.813   9.753 -1.5555 -1.0745  0.8029
   78MOL0     H10492  13.741   7.650   9.588 -6.8189  0.2646 -1.6202
   78MOL0     H10493  13.960   7.664   9.468 -0.3798 -0.0516  0.6541
   78MOL0     H10494  14.151   7.668   9.310 -1.7940 -0.7653  0.5549
   78MOL0     H10495  14.018   7.633   9.199 -0.9592  1.5453 -4.4297
   78MOL0     H10496  14.109   7.780   9.033 -0.4447 -3.0856 -0.6083
   78MOL0     H10497  14.266   7.800   9.115  0.1659 -1.1348 -2.3893
   78MOL0     H10498  14.181   7.520   9.053 -0.7138 -0.2820 -1.1310
   78MOL0     H10499  14.239   7.622   8.928 -0.8114 -1.6174  0.3707
   78MOL0     H10500  14.451   7.671   9.034  1.0417 -0.2333  0.3705
   78MOL0     H10501  14.429   7.498   9.020  0.3428  1.2672 -0.9829
   78MOL0     H10502  14.356   7.501   9.258  0.2095 -0.9486 -1.0825
   78MOL0     H10503  14.407   7.682   9.263 -0.5182  0.5853 -0.9740
   78MOL0     H10504  14.565   7.497   9.351 -2.7150 -0.5933  0.8513
   78MOL0     H10505  14.571   7.432   9.186 -1.3522  0.3059 -1.2017
   78MOL0     H10506  14.685   7.692   9.285 -0.1794 -0.7856  1.9776
   78MOL0     H10507  14.665   7.650   9.107  1.7206 -1.8670 -1.1350
   78MOL0     H10508  14.790   7.442   9.147  0.2604  1.0891 -0.7437
   78MOL0     H10509  14.892   7.587   9.168  1.1261  0.6288  2.2811
   78MOL0     H10510  13.817   8.005   9.245  2.7181 -0.9392 -0.4689
   78MOL0     H10511  13.622   7.997   9.361  1.1425  0.1645 -3.8260
   78MOL0     H10512  13.170   7.860   9.380 -1.9296 -0.9645 -0.3462
   78MOL0     H10513  12.967   7.877   9.485 -0.9296 -3.3515 -0.3959
   78MOL0     H10514  11.069   7.807   9.908  0.2675  1.4336 -2.1015
   78MOL0     H10515  10.839   7.737   9.870  1.2309  2.3054  1.3820
   78MOL0     H10516  10.546   7.557   9.594  1.6778 -0.3944 -2.1726
   78MOL0     H10517  10.310   7.519   9.552 -2.2966 -0.0173  0.0065
   78MOL0     H10518  10.111   7.540   9.597  1.1380  1.6742  0.0237
   78MOL0     H10519  10.092   7.509   9.429 -0.2610  0.9770 -0.8625
   78MOL0     H10520   9.874   7.603   9.405  2.4285 -1.5468 -1.0420
   78MOL0     H10521   9.889   7.699   9.556  1.1538 -0.0153  0.9363
   78MOL0     H10522   9.905   7.443   9.654 -1.3193 -1.8796 -0.8625
   78MOL0     H10523   9.825   7.408   9.496  1.1411 -2.5389  1.9682
   78MOL0     H10524   9.712   7.607   9.703 -0.6006 -1.3480  2.4767
   78MOL0     H10525   9.654   7.548   9.548  0.6588  1.0932 -0.6276
   78MOL0     H10526   9.560   7.215   9.806  1.6283  0.1486  1.8651
   78MOL0     H10527  10.249   7.936   9.496 -0.4236  0.0166 -0.3013
   78MOL0     H10528  10.548   8.070   9.569  0.5433  0.5997 -0.7271
   78MOL0     H10529  10.591   8.024   9.411  1.4913  0.8149  1.8229
   78MOL0     H10530  10.420   8.079   9.450 -0.8574 -1.1123 -0.7076
   79MOL0     O10531   4.386   8.179   9.059  0.7076  0.1215  0.3450
   79MOL0     C10532   4.342   8.293   9.085  0.5143  0.2515  0.2346
   79MOL0     O10533   4.416   8.387   9.144 -0.5792 -0.0374 -0.6051
   79MOL0     C10534   4.552   8.370   9.161 -0.2529 -0.3166  0.6183
   79MOL0     C10535   4.619   8.411   9.281 -0.2170  0.2832  0.4884
   79MOL0     C10536   4.761   8.411   9.300 -0.0034 -0.2747  0.0203
   79MOL0     C10537   4.841   8.365   9.194 -0.2360  0.2966 -0.2752
   79MOL0     O10538   4.977   8.331   9.205 -0.2067  0.0180  0.7148
   79MOL0     C10539   5.034   8.327   9.339 -0.0049  0.0712  0.4282
   79MOL0     C10540   5.168   8.256   9.329 -0.1355  0.4202 -0.2241
   79MOL0     C10541   5.289   8.331   9.270  0.1189 -0.0720  0.6531
   79MOL0     C10542   5.320   8.440   9.374 -0.5468  0.3336  0.2400
   79MOL0     C10543   5.423   8.539   9.325 -0.5884  0.0205  0.5704
   79MOL0     C10544   5.552   8.480   9.282  0.9859 -0.1653  0.1053
   79MOL0     C10545   5.646   8.582   9.216  0.5079  0.2115 -0.5054
   79MOL0     C10546   5.701   8.668   9.331 -0.4158 -0.4386  0.1287
   79MOL0     N10547   5.838   8.713   9.317 -0.0764 -0.1752  0.2354
   79MOL0     C10548   5.941   8.621   9.295 -0.5649  0.4200  0.3999
   79MOL0     C10549   6.055   8.691   9.272 -0.0039  0.5409 -0.1747
   79MOL0     C10550   6.193   8.637   9.229 -0.1450 -1.0183 -0.1621
   79MOL0     C10551   6.198   8.586   9.087 -0.1319 -0.0329  0.0556
   79MOL0     C10552   6.238   8.435   9.082 -0.0568  0.1924  0.6804
   79MOL0     C10553   6.266   8.399   8.936 -0.4985  0.0637  0.5079
   79MOL0     O10554   6.367   8.301   8.916  0.0688 -0.6637 -0.1588
   79MOL0     C10555   6.496   8.339   8.941  0.6004  0.2366  0.0640
   79MOL0     C10556   6.595   8.243   8.921 -0.0368 -0.1182  0.0165
   79MOL0     C10557   6.728   8.260   8.960  0.1884 -0.2915 -0.1391
   79MOL0     C10558   6.771   8.377   9.025  0.0114 -0.0561 -0.1878
   79MOL0     C10559   6.916   8.393   9.059  0.1125  0.5574 -0.0680
   79MOL0     O10560   6.963   8.499   9.133  0.2503  0.4007  0.3383
   79MOL0     C10561   7.091   8.530   9.151 -0.8331  1.0671  0.2871
   79MOL0     C10562   7.168   8.566   9.034 -0.2325  0.9568 -0.1750
   79MOL0     C10563   7.303   8.603   9.039  0.0691  0.2862 -0.3211
   79MOL0     C10564   7.364   8.615   9.164  0.3146 -0.4318  0.1007
   79MOL0     O10565   7.493   8.661   9.185 -0.8737 -0.2712  0.0319
   79MOL0     C10566   7.590   8.607   9.093 -0.4144 -0.5836  0.1163
   79MOL0     C10567   7.612   8.453   9.100  0.1099  0.4453 -1.3568
   79MOL0     C10568   7.630   8.407   9.250 -0.4761 -0.4493 -0.4902
   79MOL0     C10569   7.661   8.253   9.248  0.3920 -0.6309  0.2424
   79MOL0     C10570   7.814   8.225   9.236 -0.1211 -0.5578 -0.3565
   79MOL0     C10571   7.835   8.074   9.235 -0.4510  0.3398  0.4464
   79MOL0     C10572   7.949   8.026   9.331  0.3976  0.0145 -0.7540
   79MOL0     C10573   7.947   7.873   9.350  0.9884  0.0691 -0.0025
   79MOL0    Cl10574   7.815   7.810   9.439 -0.3996  0.6208  0.0223
   79MOL0     C10575   7.288   8.591   9.284 -0.4658  0.4126  0.5720
   79MOL0     C10576   7.155   8.548   9.274 -0.0581 -0.1087  0.2190
   79MOL0     O10577   6.988   8.296   9.038  0.5006 -0.8997  0.6624
   79MOL0     C10578   6.679   8.483   9.050 -0.2146  0.5861  0.3374
   79MOL0     C10579   6.545   8.454   9.006 -0.8313 -0.3571  0.5782
   79MOL0     N10580   6.011   8.822   9.266 -0.6088 -0.4228  0.3052
   79MOL0     N10581   5.885   8.840   9.301  0.7138  0.1354  0.7559
   79MOL0     C10582   4.782   8.331   9.065 -0.1741 -0.0722 -0.8775
   79MOL0     C10583   4.640   8.346   9.056 -0.7390  0.1449 -0.1773
   79MOL0     C10584   4.201   8.326   9.053  0.0173  0.4030 -0.9488
   79MOL0     C10585   4.141   8.427   9.138  0.6120  0.6402  0.8564
   79MOL0     C10586   4.003   8.459   9.112  0.1591 -0.5519  0.0303
   79MOL0     C10587   3.943   8.415   9.002 -0.1373  0.1761  0.1397
   79MOL0     O10588   3.822   8.471   8.989 -0.2625 -0.0461  0.4010
   79MOL0     C10589   3.721   8.387   8.946 -0.2462 -0.2671 -0.0303
   79MOL0     C10590   3.589   8.432   9.008 -0.2977  0.7932  0.2018
   79MOL0     C10591   3.465   8.336   8.972 -0.4768  0.1691 -0.3766
   79MOL0     C10592   3.336   8.385   9.032 -0.2871 -0.1770 -0.1796
   79MOL0     C10593   3.225   8.360   8.936  0.1799  0.7250  0.0499
   79MOL0     C10594   3.134   8.328   8.859 -0.0456 -1.2172 -0.2691
   79MOL0     C10595   4.006   8.332   8.915 -0.5479  0.4977  0.0959
   79MOL0     C10596   4.139   8.288   8.933  0.9648  0.1325  0.3262
   79MOL0     C10597   4.212   8.215   8.825 -0.2003  0.1116  0.5566
   79MOL0     H10598   4.556   8.447   9.362  0.8374 -2.3549  2.6324
   79MOL0     H10599   4.823   8.436   9.386  3.1000 -4.4709 -0.7038
   79MOL0     H10600   5.032   8.424   9.388  0.3826  1.1469 -1.5874
   79MOL0     H10601   4.963   8.276   9.405 -2.6716  3.0362  0.0893
   79MOL0     H10602   5.146   8.168   9.268 -1.1722  0.4130  0.1440
   79MOL0     H10603   5.190   8.222   9.431 -4.4109 -2.7502 -0.0783
   79MOL0     H10604   5.267   8.381   9.175 -1.4418 -3.2446 -0.8066
   79MOL0     H10605   5.373   8.261   9.266 -0.5309 -0.9048  1.3276
   79MOL0     H10606   5.232   8.501   9.396 -0.2998  0.4906  0.8028
   79MOL0     H10607   5.360   8.396   9.466 -0.0646 -0.5588 -0.3801
   79MOL0     H10608   5.382   8.602   9.246 -2.4087 -0.8155  0.8135
   79MOL0     H10609   5.435   8.605   9.411  1.9778 -0.4945  0.6840
   79MOL0     H10610   5.603   8.414   9.353 -0.1789 -1.5926 -0.3241
   79MOL0     H10611   5.535   8.414   9.196  3.6674 -0.2518 -0.4319
   79MOL0     H10612   5.600   8.637   9.134 -0.5256 -0.2118 -0.2285
   79MOL0     H10613   5.727   8.529   9.166  1.3543  0.4813  0.5408
   79MOL0     H10614   5.644   8.759   9.351 -0.4938 -0.6674  0.9677
   79MOL0     H10615   5.695   8.613   9.425 -0.8417  0.1610  0.4561
   79MOL0     H10616   5.937   8.512   9.289  1.5196  0.1104  2.7097
   79MOL0     H10617   6.282   8.700   9.238  2.0426 -3.7890 -0.9478
   79MOL0     H10618   6.200   8.546   9.289 -0.4747 -0.5007  0.6795
   79MOL0     H10619   6.095   8.593   9.049 -0.3734 -1.8433  0.2854
   79MOL0     H10620   6.263   8.647   9.024 -1.6097  1.1703 -0.3769
   79MOL0     H10621   6.160   8.373   9.128  0.2584 -0.5806  0.2038
   79MOL0     H10622   6.323   8.425   9.151  0.0275 -0.2107  0.5227
   79MOL0     H10623   6.283   8.476   8.860 -0.2638 -1.1292 -0.6625
   79MOL0     H10624   6.173   8.359   8.894 -0.1739  1.6305 -1.8869
   79MOL0     H10625   6.559   8.148   8.883 -0.5236  0.3634 -0.7607
   79MOL0     H10626   6.803   8.185   8.939  3.2656  1.8640  2.2495
   79MOL0     H10627   7.110   8.566   8.942 -2.6469  0.4979  1.2592
   79MOL0     H10628   7.361   8.623   8.949 -0.2173  1.9572 -0.1699
   79MOL0     H10629   7.567   8.631   8.988 -2.2000  0.5892  0.7343
   79MOL0     H10630   7.684   8.656   9.119  0.5002 -2.5436  0.7225
   79MOL0     H10631   7.526   8.393   9.071  1.0955 -2.3420  0.9791
   79MOL0     H10632   7.697   8.422   9.038  1.7216 -0.2965  1.0366
   79MOL0     H10633   7.709   8.463   9.301 -1.1716 -0.6586  0.8726
   79MOL0     H10634   7.538   8.422   9.308 -0.0565 -0.2155  0.1338
   79MOL0     H10635   7.596   8.206   9.174 -0.7793  0.0923  0.7720
   79MOL0     H10636   7.625   8.207   9.341 -1.5298 -0.3465 -0.3254
   79MOL0     H10637   7.858   8.269   9.327 -0.1686  1.8063 -1.4056
   79MOL0     H10638   7.868   8.263   9.148  0.2429  0.3639  0.2393
   79MOL0     H10639   7.746   8.016   9.261  0.9599 -2.2928 -0.2185
   79MOL0     H10640   7.852   8.030   9.136 -0.9141 -2.7305  1.6371
   79MOL0     H10641   7.935   8.065   9.432 -2.0573 -3.2844  0.3720
   79MOL0     H10642   8.046   8.063   9.298  0.1546 -0.0341 -1.5477
   79MOL0     H10643   7.939   7.832   9.249  2.4754 -0.1085 -0.0654
   79MOL0     H10644   8.043   7.840   9.391  0.9232 -0.4355 -0.2529
   79MOL0     H10645   7.338   8.601   9.380 -0.6405  1.0751  0.5952
   79MOL0     H10646   7.112   8.523   9.370  1.0639  1.7098  1.2422
   79MOL0     H10647   6.705   8.578   9.095 -1.1868  1.4561 -0.8852
   79MOL0     H10648   6.480   8.536   9.033  1.5532  2.2051 -0.8720
   79MOL0     H10649   4.851   8.294   8.990  0.9934  0.4639 -0.0971
   79MOL0     H10650   4.603   8.321   8.956  3.6053 -2.1371 -1.4598
   79MOL0     H10651   4.175   8.484   9.224  2.0175  0.3585  0.5087
   79MOL0     H10652   3.956   8.526   9.184  4.4910  2.2076  0.6528
   79MOL0     H10653   3.743   8.287   8.982 -1.7651 -1.2126 -1.5959
   79MOL0     H10654   3.717   8.381   8.837 -1.5217  1.3050 -0.1153
   79MOL0     H10655   3.561   8.521   8.951  2.0683  1.1172 -0.5796
   79MOL0     H10656   3.588   8.457   9.114  0.4567 -0.1748  0.4539
   79MOL0     H10657   3.477   8.235   9.012  2.1119  0.8276  0.7093
   79MOL0     H10658   3.459   8.322   8.863  0.9699 -1.3498 -0.3005
   79MOL0     H10659   3.314   8.328   9.123  1.7765  0.0109  0.4824
   79MOL0     H10660   3.335   8.491   9.057 -0.2140 -0.3828  0.7089
   79MOL0     H10661   3.057   8.299   8.790  0.1698 -0.5119 -0.8166
   79MOL0     H10662   3.953   8.311   8.823 -1.8283  2.4020  0.3472
   79MOL0     H10663   4.210   8.106   8.833 -2.6562 -0.0900 -1.5690
   79MOL0     H10664   4.164   8.231   8.728  2.0976 -0.7540 -0.8065
   79MOL0     H10665   4.316   8.247   8.826 -0.9044  2.5587  0.8482
   80MOL0     O10666   0.670   2.002   6.364  0.4410  0.5306 -0.0052
   80MOL0     C10667   0.627   1.887   6.377 -0.3159 -0.1721 -0.7160
   80MOL0     O10668   0.692   1.786   6.441 -0.1440 -0.3843  0.0283
   80MOL0     C10669   0.806   1.812   6.518 -0.1473 -0.6231 -0.1548
   80MOL0     C10670   0.920   1.903   6.491 -0.1350 -0.0842  0.3435
   80MOL0     C10671   1.020   1.919   6.586  0.1532 -0.1257  1.0022
   80MOL0     C10672   1.019   1.838   6.696 -0.0278 -0.0932 -1.0677
   80MOL0     O10673   1.121   1.841   6.792 -0.7053 -0.1097 -0.1947
   80MOL0     C10674   1.254   1.876   6.760  0.3987 -0.3981  0.4617
   80MOL0     C10675   1.342   1.855   6.878  0.5013  0.4760  0.1176
   80MOL0     C10676   1.378   1.717   6.903 -0.5096  0.5031 -0.3143
   80MOL0     C10677   1.483   1.697   7.018 -0.1560 -0.1006 -0.7989
   80MOL0     C10678   1.496   1.546   7.036 -0.2597  0.1342 -0.7272
   80MOL0     C10679   1.570   1.503   7.172  0.5635  0.5535 -0.2583
   80MOL0     C10680   1.684   1.595   7.222 -0.7095  0.9681 -1.0324
   80MOL0     C10681   1.750   1.540   7.353  0.5507  0.2526  0.6892
   80MOL0     N10682   1.840   1.648   7.412  0.1561  0.1393  0.0795
   80MOL0     C10683   1.808   1.752   7.487 -0.3908 -0.6277 -2.0458
   80MOL0     C10684   1.920   1.825   7.518 -0.1911 -0.5547  0.3897
   80MOL0     C10685   1.933   1.957   7.588 -0.0439 -0.6206 -0.7284
   80MOL0     C10686   1.835   2.074   7.557 -0.8528  0.1615 -0.3484
   80MOL0     C10687   1.804   2.165   7.672  0.1863 -0.0459 -0.2350
   80MOL0     C10688   1.701   2.274   7.651 -0.1065  0.1867  0.0991
   80MOL0     O10689   1.599   2.241   7.555  0.2021 -0.2494  0.0711
   80MOL0     C10690   1.470   2.297   7.579 -0.1558  0.0773 -0.0234
   80MOL0     C10691   1.433   2.381   7.680  0.8288 -0.0063 -0.5579
   80MOL0     C10692   1.304   2.439   7.664 -0.3039  0.0701 -0.2506
   80MOL0     C10693   1.214   2.407   7.559  0.4719 -0.2620 -0.1129
   80MOL0     C10694   1.075   2.475   7.554 -0.1969 -0.0729  0.5218
   80MOL0     O10695   1.019   2.554   7.657  0.4768  1.0637 -0.2971
   80MOL0     C10696   0.890   2.599   7.651  1.3559  0.0061 -0.7751
   80MOL0     C10697   0.806   2.568   7.764  0.1067 -0.2805  1.1789
   80MOL0     C10698   0.674   2.620   7.764  0.2605 -0.4945 -0.2755
   80MOL0     C10699   0.629   2.706   7.667  0.3440  0.4548 -0.4826
   80MOL0     O10700   0.499   2.751   7.641 -0.1520  0.7361 -1.0738
   80MOL0     C10701   0.398   2.708   7.732  0.2170  0.9863  0.5198
   80MOL0     C10702   0.268   2.723   7.654  0.8697 -0.3990  0.1100
   80MOL0     C10703   0.138   2.666   7.717 -0.6702  0.2750 -0.1306
   80MOL0     C10704   0.106   2.724   7.853  0.4508 -0.3940  0.3056
   80MOL0     C10705  -0.017   2.657   7.910  0.5011 -0.5711 -0.3777
   80MOL0     C10706  -0.076   2.710   8.042 -0.1895  0.0065 -0.7233
   80MOL0     C10707  -0.164   2.605   8.104  0.0428  0.8263  0.3203
   80MOL0     C10708  -0.238   2.627   8.236 -0.2314  0.4456 -0.1124
   80MOL0    Cl10709  -0.414   2.639   8.235 -0.2310 -0.0123 -0.2006
   80MOL0     C10710   0.720   2.747   7.564  0.6265  1.1742 -0.5514
   80MOL0     C10711   0.844   2.692   7.550 -1.5615 -0.1473 -0.0319
   80MOL0     O10712   1.011   2.433   7.450 -0.6724  0.4623 -0.1757
   80MOL0     C10713   1.251   2.315   7.470  1.0786  1.4010  0.1807
   80MOL0     C10714   1.382   2.266   7.469 -0.3979 -0.1107 -0.4633
   80MOL0     N10715   2.021   1.765   7.440  0.1286 -0.3406 -0.3476
   80MOL0     N10716   1.971   1.658   7.386  0.0633 -0.1226  0.0707
   80MOL0     C10717   0.908   1.761   6.732  0.2541 -0.6886  0.1254
   80MOL0     C10718   0.809   1.748   6.644  0.7171 -0.6995  0.5234
   80MOL0     C10719   0.490   1.864   6.332 -0.0396 -0.1439 -0.1626
   80MOL0     C10720   0.459   1.832   6.199 -0.7165  0.5883 -1.1793
   80MOL0     C10721   0.324   1.836   6.161  0.7431  0.1454 -0.3367
   80MOL0     C10722   0.223   1.857   6.254 -0.2699 -0.9276 -0.0286
   80MOL0     O10723   0.095   1.849   6.204  0.3008 -0.4939  0.3539
   80MOL0     C10724  -0.017   1.884   6.287 -0.6019 -0.5092  0.2450
   80MOL0     C10725  -0.148   1.861   6.218 -0.1005  0.2739  0.6571
   80MOL0     C10726  -0.191   1.710   6.201 -0.4369  0.0357  0.3906
   80MOL0     C10727  -0.344   1.697   6.187  0.1482  0.0636  0.4865
   80MOL0     C10728  -0.377   1.555   6.172 -0.5536  0.0698 -0.0230
   80MOL0     C10729  -0.406   1.442   6.134  0.0387 -0.0396 -0.5516
   80MOL0     C10730   0.251   1.892   6.386 -0.3219 -0.2946 -0.3836
   80MOL0     C10731   0.382   1.888   6.422  0.5734  1.0436 -0.8005
   80MOL0     C10732   0.389   1.940   6.565  0.0328 -0.3963 -0.3003
   80MOL0     H10733   0.923   1.964   6.402  0.4709 -2.3323 -1.2570
   80MOL0     H10734   1.090   2.000   6.569 -0.7975  0.5323  0.1629
   80MOL0     H10735   1.297   1.827   6.672  0.0253 -0.5747  0.3737
   80MOL0     H10736   1.258   1.981   6.730  1.6760 -0.5544  0.0270
   80MOL0     H10737   1.301   1.905   6.966 -1.6676  1.3469 -1.2933
   80MOL0     H10738   1.440   1.901   6.858  0.7344 -0.9783 -2.5660
   80MOL0     H10739   1.427   1.673   6.815 -1.4850 -0.8532 -0.2081
   80MOL0     H10740   1.287   1.657   6.908  0.3901 -0.7726  2.6889
   80MOL0     H10741   1.581   1.736   6.993  0.2498 -1.6928 -1.8277
   80MOL0     H10742   1.438   1.745   7.106  0.5525  1.7439 -1.3844
   80MOL0     H10743   1.394   1.508   7.019 -0.7889  1.1912 -0.0332
   80MOL0     H10744   1.558   1.502   6.957  0.4451 -0.8937  0.3734
   80MOL0     H10745   1.492   1.495   7.249 -0.6946  0.8053 -1.4550
   80MOL0     H10746   1.608   1.402   7.159  1.3034  0.8120 -0.1227
   80MOL0     H10747   1.631   1.690   7.238  1.1242  2.0162 -0.8409
   80MOL0     H10748   1.763   1.621   7.151 -1.3459  0.7258 -1.8413
   80MOL0     H10749   1.664   1.526   7.419 -2.0954  2.2293 -2.0538
   80MOL0     H10750   1.813   1.452   7.341  2.0156  0.1591  6.2908
   80MOL0     H10751   1.716   1.789   7.531  0.6858  0.7509 -0.8923
   80MOL0     H10752   1.908   1.926   7.690 -2.2713 -1.9634 -1.6288
   80MOL0     H10753   2.032   2.003   7.581  0.3097 -0.7030  2.3016
   80MOL0     H10754   1.869   2.115   7.462 -2.6284 -2.8549 -2.4353
   80MOL0     H10755   1.737   2.039   7.524 -0.2048  0.7875 -3.1366
   80MOL0     H10756   1.888   2.232   7.694 -1.9450  2.7608  0.0018
   80MOL0     H10757   1.778   2.102   7.757 -0.6058  0.8477  0.2018
   80MOL0     H10758   1.755   2.358   7.604 -0.1446  0.8125  1.1361
   80MOL0     H10759   1.654   2.298   7.747 -1.7105 -1.2617 -0.2782
   80MOL0     H10760   1.493   2.426   7.758  0.3790 -0.2126 -0.0869
   80MOL0     H10761   1.277   2.511   7.740  0.4582 -2.9802  3.2174
   80MOL0     H10762   0.844   2.500   7.839  0.5772 -1.9919 -0.5201
   80MOL0     H10763   0.607   2.585   7.842 -0.6576  0.1454 -0.7493
   80MOL0     H10764   0.403   2.604   7.764 -1.4407  0.7345  0.0398
   80MOL0     H10765   0.398   2.776   7.818 -1.6380 -1.0409  2.2708
   80MOL0     H10766   0.243   2.829   7.643 -1.3911 -0.8219  0.7940
   80MOL0     H10767   0.268   2.660   7.565 -0.5091  1.0318 -0.9536
   80MOL0     H10768   0.052   2.693   7.655 -2.0560 -1.6528  0.8459
   80MOL0     H10769   0.142   2.558   7.729  1.8703  0.2718 -0.4347
   80MOL0     H10770   0.095   2.833   7.846  2.8781 -0.2001 -2.2182
   80MOL0     H10771   0.193   2.709   7.918  0.8347  0.5264  0.0192
   80MOL0     H10772   0.011   2.552   7.916  1.8021 -0.4125 -2.5490
   80MOL0     H10773  -0.101   2.665   7.841  1.3578  0.3029 -1.3646
   80MOL0     H10774   0.000   2.744   8.113 -1.3239  1.8251 -0.3145
   80MOL0     H10775  -0.133   2.801   8.023 -0.8390  0.2210  1.9043
   80MOL0     H10776  -0.113   2.508   8.110 -0.6377  0.5307  1.7584
   80MOL0     H10777  -0.246   2.586   8.034  0.4057 -0.3083  0.1898
   80MOL0     H10778  -0.212   2.540   8.296 -0.3938 -1.3482 -2.4762
   80MOL0     H10779  -0.207   2.721   8.282 -0.3562 -0.3525  1.6979
   80MOL0     H10780   0.694   2.817   7.485 -0.4470 -1.3719 -2.6288
   80MOL0     H10781   0.914   2.732   7.479 -0.8370 -1.6334 -0.1963
   80MOL0     H10782   1.187   2.265   7.398 -0.5833  1.6964  1.4101
   80MOL0     H10783   1.417   2.188   7.402  1.7857  0.6983 -0.3227
   80MOL0     H10784   0.902   1.711   6.829  1.2562 -4.1562 -1.4608
   80MOL0     H10785   0.737   1.672   6.668 -0.9092  0.5342 -0.2536
   80MOL0     H10786   0.536   1.795   6.132 -1.8092 -2.6521 -0.8435
   80MOL0     H10787   0.296   1.820   6.057 -2.0925  1.5411  0.1269
   80MOL0     H10788  -0.011   1.990   6.311 -0.2822 -0.8806  1.8748
   80MOL0     H10789  -0.018   1.822   6.377  2.6773 -0.1972  0.6438
   80MOL0     H10790  -0.142   1.907   6.119  2.6086 -0.6424  0.3139
   80MOL0     H10791  -0.223   1.918   6.273 -0.3997  1.1395 -0.5998
   80MOL0     H10792  -0.152   1.647   6.281  0.2931  1.2507  1.0143
   80MOL0     H10793  -0.155   1.669   6.105  0.0997 -1.5177  1.2088
   80MOL0     H10794  -0.390   1.737   6.277 -2.2790 -0.8807 -0.2712
   80MOL0     H10795  -0.382   1.766   6.111  0.9996  3.6629  3.0562
   80MOL0     H10796  -0.417   1.338   6.113  4.8591 -0.7452 -0.7262
   80MOL0     H10797   0.173   1.926   6.455  0.1870  2.6430 -1.1068
   80MOL0     H10798   0.337   2.036   6.572 -0.4114 -0.5994 -0.7141
   80MOL0     H10799   0.344   1.876   6.642 -0.7448  1.5910  0.9916
   80MOL0     H10800   0.494   1.958   6.588 -0.2022  1.0033 -0.1789
   81MOL0     O10801   1.712  10.873   9.977  0.5059  0.2732  0.2945
   81MOL0     C10802   1.619  10.838  10.049 -0.9933 -0.2125 -0.9379
   81MOL0     O10803   1.629  10.840  10.185 -0.0645  0.1088  0.2301
   81MOL0     C10804   1.744  10.894  10.234  0.6387 -0.4323  0.1038
   81MOL0     C10805   1.726  11.025  10.292  0.3440 -0.0410 -0.3970
   81MOL0     C10806   1.836  11.090  10.350 -0.4713  0.0142  0.8491
   81MOL0     C10807   1.961  11.031  10.356 -0.6746  0.8367 -0.1078
   81MOL0     O10808   2.081  11.091  10.394  0.8860 -0.1427 -0.6492
   81MOL0     C10809   2.082  11.211  10.477  0.3757  0.2546 -0.9822
   81MOL0     C10810   2.088  11.341  10.395  0.1548 -0.0376 -0.6631
   81MOL0     C10811   2.215  11.355  10.304 -0.8210 -0.6939 -1.0366
   81MOL0     C10812   2.336  11.390  10.395 -0.3121 -0.3703 -0.2779
   81MOL0     C10813   2.457  11.339  10.322  0.2305  1.1829  0.9035
   81MOL0     C10814   2.584  11.352  10.410 -0.0204 -0.1116 -0.3113
   81MOL0     C10815   2.707  11.301  10.334  0.6003  0.3676 -0.1523
   81MOL0     C10816   2.838  11.332  10.407  0.1784 -0.1709 -0.7643
   81MOL0     N10817   2.956  11.269  10.345 -0.0752  0.3839  0.0779
   81MOL0     C10818   3.063  11.342  10.308  0.4821 -0.3496  0.5227
   81MOL0     C10819   3.142  11.247  10.247 -0.3958  0.6575 -0.3470
   81MOL0     C10820   3.286  11.271  10.205 -0.2441  0.3742  0.4298
   81MOL0     C10821   3.383  11.296  10.318 -0.1666 -0.9606 -0.0572
   81MOL0     C10822   3.529  11.294  10.281  0.3835  0.8391 -0.2293
   81MOL0     C10823   3.577  11.148  10.276 -0.2265 -0.3933 -0.3071
   81MOL0     O10824   3.690  11.136  10.181 -0.0136  0.3053 -0.2373
   81MOL0     C10825   3.816  11.168  10.213  0.2084  0.0242  0.8910
   81MOL0     C10826   3.919  11.159  10.119 -0.0889  0.0243 -0.2376
   81MOL0     C10827   4.052  11.209  10.145 -0.7676 -0.2445 -0.0446
   81MOL0     C10828   4.095  11.258  10.270 -0.4314  0.8448 -0.1828
   81MOL0     C10829   4.234  11.306  10.311 -0.1567  0.0313 -0.0324
   81MOL0     O10830   4.247  11.363  10.440 -0.9262  0.1980  0.0569
   81MOL0     C10831   4.379  11.398  10.472 -0.6255 -0.2475  0.4051
   81MOL0     C10832   4.411  11.533  10.496  0.1957  0.5605 -0.1721
   81MOL0     C10833   4.536  11.572  10.547 -0.4944  0.0156 -0.5288
   81MOL0     C10834   4.633  11.476  10.560  0.3168 -0.1701  0.2193
   81MOL0     O10835   4.752  11.524  10.607 -0.3643 -0.1782 -0.3193
   81MOL0     C10836   4.859  11.439  10.650  0.0686  0.4921  1.1063
   81MOL0     C10837   4.962  11.515  10.721  0.0753 -0.7330 -0.0452
   81MOL0     C10838   5.074  11.432  10.794 -0.7546 -0.7064 -0.0147
   81MOL0     C10839   5.014  11.322  10.877  0.4617 -0.1053 -0.7829
   81MOL0     C10840   5.125  11.229  10.946  0.6989 -0.6057 -0.0256
   81MOL0     C10841   5.199  11.295  11.062 -0.4278  0.4214 -0.4661
   81MOL0     C10842   5.102  11.331  11.175  0.2400 -0.3209 -0.9755
   81MOL0     C10843   5.188  11.384  11.298 -0.2330  0.3185  0.1557
   81MOL0    Cl10844   5.238  11.559  11.277 -0.4427 -0.2602 -0.7719
   81MOL0     C10845   4.620  11.345  10.530  0.3909  0.3371 -0.8523
   81MOL0     C10846   4.486  11.308  10.480  0.1315 -0.0121 -0.0810
   81MOL0     O10847   4.320  11.298  10.226  0.1012 -1.0951 -0.0366
   81MOL0     C10848   3.997  11.248  10.369  0.6325 -0.5309 -0.1110
   81MOL0     C10849   3.858  11.216  10.338  0.8187 -0.7448 -0.4591
   81MOL0     N10850   3.080  11.128  10.245 -0.4724 -0.0373 -0.7619
   81MOL0     N10851   2.968  11.140  10.305 -0.6511  0.4245 -0.3351
   81MOL0     C10852   1.978  10.896  10.317 -0.6149 -1.0581  0.4586
   81MOL0     C10853   1.872  10.835  10.246 -0.0461 -0.8783 -0.0620
   81MOL0     C10854   1.490  10.784  10.005  0.6987 -0.3918 -0.0570
   81MOL0     C10855   1.412  10.712  10.097  0.0345 -0.1413  0.6548
   81MOL0     C10856   1.293  10.654  10.061  0.0277  0.2467  0.7289
   81MOL0     C10857   1.247  10.684   9.938  0.5984  0.0503  1.0971
   81MOL0     O10858   1.140  10.623   9.878  0.3793 -0.3565 -0.8920
   81MOL0     C10859   1.059  10.538   9.959 -0.3399  0.5036 -0.0639
   81MOL0     C10860   0.935  10.529   9.876  0.0912  0.1703  0.1470
   81MOL0     C10861   0.932  10.460   9.741  0.7182 -0.1226 -0.1603
   81MOL0     C10862   0.932  10.305   9.752 -0.0103 -0.4095 -0.9002
   81MOL0     C10863   0.987  10.242   9.629 -0.2843 -0.7982 -0.0675
   81MOL0     C10864   1.048  10.203   9.538 -0.4692 -0.0395 -0.4457
   81MOL0     C10865   1.317  10.764   9.845 -0.0613 -0.5783 -0.3188
   81MOL0     C10866   1.433  10.824   9.885  0.5414 -0.0991  0.7052
   81MOL0     C10867   1.494  10.922   9.789 -0.1564  1.1594 -0.0743
   81MOL0     H10868   1.626  11.067  10.300  2.0122  4.7111 -1.5233
   81MOL0     H10869   1.818  11.194  10.376  2.9056  1.9954 -3.4419
   81MOL0     H10870   1.992  11.209  10.538  1.0117 -0.1399 -0.0337
   81MOL0     H10871   2.162  11.216  10.551 -0.5929 -1.7585  0.2882
   81MOL0     H10872   2.073  11.427  10.461  1.0842  1.3546 -2.1889
   81MOL0     H10873   2.008  11.330  10.321 -0.1533 -2.0702 -0.0880
   81MOL0     H10874   2.201  11.430  10.226  0.4102  0.8736  0.1809
   81MOL0     H10875   2.232  11.261  10.252  1.2808 -0.7072 -0.3978
   81MOL0     H10876   2.344  11.499  10.404  1.9400 -0.0406 -3.8983
   81MOL0     H10877   2.339  11.334  10.489 -2.4850 -0.7132 -0.3658
   81MOL0     H10878   2.440  11.232  10.309 -0.2997  1.1531  1.7407
   81MOL0     H10879   2.466  11.388  10.225  2.0683  0.9317  0.9101
   81MOL0     H10880   2.591  11.460  10.429 -3.2070  0.1640 -0.0881
   81MOL0     H10881   2.561  11.307  10.506 -3.7995  1.3845 -0.3206
   81MOL0     H10882   2.713  11.346  10.235  0.6392  1.1582  0.1987
   81MOL0     H10883   2.703  11.192  10.320  0.7192  0.4306 -0.6789
   81MOL0     H10884   2.847  11.440  10.419  0.6310 -0.3584  0.7638
   81MOL0     H10885   2.828  11.288  10.506  2.0075 -0.0860 -0.5129
   81MOL0     H10886   3.078  11.447  10.330  0.9944 -1.0129  4.0882
   81MOL0     H10887   3.312  11.194  10.131  0.0966  1.8385 -1.0369
   81MOL0     H10888   3.290  11.367  10.153  3.8637 -0.1017 -0.5187
   81MOL0     H10889   3.363  11.391  10.368 -0.5223 -0.7001 -0.6840
   81MOL0     H10890   3.369  11.206  10.379 -1.6031 -1.5327 -1.1851
   81MOL0     H10891   3.595  11.348  10.350  1.4860 -0.9372  0.1607
   81MOL0     H10892   3.546  11.341  10.184 -1.4409 -1.5548 -1.8200
   81MOL0     H10893   3.497  11.080  10.244  0.4045 -0.0513 -2.7979
   81MOL0     H10894   3.607  11.103  10.371  0.8108 -2.1685 -1.4015
   81MOL0     H10895   3.894  11.112  10.025  0.7093 -0.6990 -0.1065
   81MOL0     H10896   4.122  11.199  10.063 -1.3084 -1.0295 -0.4208
   81MOL0     H10897   4.329  11.604  10.489 -0.2074  0.5100  2.8157
   81MOL0     H10898   4.547  11.677  10.573 -2.7040 -0.3280  2.3153
   81MOL0     H10899   4.813  11.368  10.720 -0.8475 -1.2988 -1.1973
   81MOL0     H10900   4.896  11.380  10.566 -3.1697  2.0539 -1.6554
   81MOL0     H10901   5.004  11.595  10.659  2.1587  0.0308  2.1866
   81MOL0     H10902   4.900  11.561  10.799  0.5344  0.4972 -0.3726
   81MOL0     H10903   5.146  11.383  10.728  1.4219  3.9763 -1.5262
   81MOL0     H10904   5.142  11.492  10.855  0.8197 -2.6953  0.3051
   81MOL0     H10905   4.956  11.253  10.814 -1.8931  1.1194 -0.0866
   81MOL0     H10906   4.935  11.358  10.943  0.6047 -1.0429 -0.0912
   81MOL0     H10907   5.192  11.183  10.873  1.2400 -1.4891  0.9936
   81MOL0     H10908   5.063  11.148  10.985 -1.4619  1.4659  1.1351
   81MOL0     H10909   5.266  11.228  11.116 -0.1504  1.3077  0.3237
   81MOL0     H10910   5.254  11.385  11.029 -1.6955  1.3787 -0.0417
   81MOL0     H10911   5.033  11.252  11.205 -0.2225  0.2339 -0.5337
   81MOL0     H10912   5.042  11.419  11.150 -0.9910 -1.6763 -3.0322
   81MOL0     H10913   5.140  11.362  11.394  0.7397  1.8646  1.0508
   81MOL0     H10914   5.284  11.333  11.314 -0.4942  0.4093  2.2510
   81MOL0     H10915   4.703  11.279  10.554 -0.9127 -0.6461  1.2767
   81MOL0     H10916   4.465  11.203  10.460  0.6021  0.0633 -0.9926
   81MOL0     H10917   4.015  11.263  10.475  0.3721 -1.3785  0.0675
   81MOL0     H10918   3.792  11.216  10.424  1.6603 -0.7853  0.2063
   81MOL0     H10919   2.074  10.847  10.322 -0.6521 -1.3622 -1.3564
   81MOL0     H10920   1.881  10.745  10.188  0.5157  0.7249 -2.6094
   81MOL0     H10921   1.447  10.688  10.197  0.6138  1.9026  0.9927
   81MOL0     H10922   1.232  10.591  10.125 -0.9604 -1.5205 -1.7468
   81MOL0     H10923   1.028  10.587  10.052 -1.5040  1.0766 -0.7230
   81MOL0     H10924   1.099  10.440   9.986 -0.5247  0.9571  1.9949
   81MOL0     H10925   0.906  10.632   9.853  1.3221 -0.0204 -2.6668
   81MOL0     H10926   0.851  10.481   9.927 -1.8869  1.1203 -2.0150
   81MOL0     H10927   1.020  10.495   9.687 -0.0613 -0.8470 -1.9576
   81MOL0     H10928   0.836  10.492   9.700 -0.0397 -0.7609  1.0326
   81MOL0     H10929   1.000  10.278   9.834 -1.0764  1.4395  0.6880
   81MOL0     H10930   0.831  10.265   9.765 -0.3738  0.4520 -0.9609
   81MOL0     H10931   1.107  10.189   9.449 -0.4188 -0.2762 -0.3755
   81MOL0     H10932   1.287  10.781   9.742 -1.3419 -2.8214 -0.3644
   81MOL0     H10933   1.520  11.014   9.842 -1.0114 -0.0967  2.7260
   81MOL0     H10934   1.581  10.872   9.745  0.4069 -0.0626  2.2654
   81MOL0     H10935   1.423  10.957   9.714  0.4360  1.2478 -0.6054
   82MOL0     O10936   5.291   3.677   9.968  0.3503 -0.5875 -0.0099
   82MOL0     C10937   5.266   3.792   9.990  1.1309 -0.2722 -0.3204
   82MOL0     O10938   5.358   3.893   9.973  0.0705 -0.2981 -0.0198
   82MOL0     C10939   5.480   3.870   9.914 -0.3141 -0.3411 -0.7769
   82MOL0     C10940   5.493   3.808   9.791  0.2433  1.0630  0.0749
   82MOL0     C10941   5.615   3.772   9.737  0.6056  0.2231  0.9050
   82MOL0     C10942   5.728   3.818   9.801 -0.0877  0.1845  0.1712
   82MOL0     O10943   5.853   3.802   9.750  0.0782  0.0742 -0.4968
   82MOL0     C10944   5.874   3.716   9.631 -0.7158  0.1336  0.4768
   82MOL0     C10945   6.026   3.732   9.600  0.3149 -0.0962  0.3989
   82MOL0     C10946   6.122   3.676   9.704  0.1943  0.1238 -0.7441
   82MOL0     C10947   6.259   3.691   9.639  0.1334 -0.7273 -0.4826
   82MOL0     C10948   6.379   3.634   9.726  0.3325 -0.2329  0.3410
   82MOL0     C10949   6.401   3.694   9.860 -0.2268 -0.3331 -0.3416
   82MOL0     C10950   6.500   3.612   9.947 -0.2885  0.3376 -0.3270
   82MOL0     C10951   6.530   3.671  10.083  0.4477 -0.0956  0.3373
   82MOL0     N10952   6.664   3.636  10.124 -0.5661 -0.6985 -0.0838
   82MOL0     C10953   6.716   3.504  10.127 -0.0395  0.0920  1.0302
   82MOL0     C10954   6.848   3.527  10.123  0.2345 -0.5474 -0.4844
   82MOL0     C10955   6.943   3.417  10.144 -0.3404 -0.1315  0.5758
   82MOL0     C10956   7.049   3.437  10.254 -0.1558  0.1645  0.4016
   82MOL0     C10957   7.163   3.540  10.221  0.3482 -0.4295  0.4574
   82MOL0     C10958   7.254   3.546  10.335 -0.6248  0.3230 -0.1811
   82MOL0     O10959   7.359   3.439  10.310  0.5025 -0.3202  0.0904
   82MOL0     C10960   7.488   3.463  10.351 -0.0687  0.4502  0.2092
   82MOL0     C10961   7.588   3.367  10.308 -0.0041 -0.6865 -0.0010
   82MOL0     C10962   7.720   3.394  10.347 -0.0759  0.2049  0.0267
   82MOL0     C10963   7.750   3.517  10.415 -0.7090  0.2524  0.4474
   82MOL0     C10964   7.900   3.550  10.433  0.8034 -0.2836  0.4478
   82MOL0     O10965   7.926   3.683  10.458 -0.7315 -0.2250 -0.1250
   82MOL0     C10966   8.051   3.734  10.444 -0.6521  0.5963 -0.0845
   82MOL0     C10967   8.128   3.693  10.334 -0.1250  0.2749  0.0119
   82MOL0     C10968   8.263   3.724  10.335  0.6077 -0.7221  0.5106
   82MOL0     C10969   8.325   3.784  10.439  0.2167  0.0067 -0.3583
   82MOL0     O10970   8.449   3.838  10.452 -0.1729  0.4343 -0.4033
   82MOL0     C10971   8.540   3.816  10.343  0.3962 -0.9540  0.2143
   82MOL0     C10972   8.591   3.678  10.329 -0.0836 -0.9534 -0.3317
   82MOL0     C10973   8.678   3.644  10.464 -0.0203  0.7829  0.1900
   82MOL0     C10974   8.740   3.504  10.461 -0.6377  0.0339 -0.5213
   82MOL0     C10975   8.845   3.495  10.581  0.3168  0.0487 -0.4810
   82MOL0     C10976   8.911   3.349  10.579  0.5699  0.0611  0.7736
   82MOL0     C10977   8.999   3.329  10.710 -0.6461 -0.4960  0.5585
   82MOL0     C10978   9.116   3.436  10.724  0.5092 -0.1970 -0.6808
   82MOL0    Cl10979   9.226   3.400  10.585 -0.0996 -0.0563  0.0660
   82MOL0     C10980   8.245   3.839  10.545  0.1642  0.3122  0.7648
   82MOL0     C10981   8.108   3.800  10.551  0.3935 -0.6160 -0.0074
   82MOL0     O10982   7.984   3.459  10.439  0.3054 -0.5044 -0.0347
   82MOL0     C10983   7.647   3.606  10.455  0.4875  1.0348  0.1646
   82MOL0     C10984   7.519   3.576  10.425  0.3093 -0.3560 -0.7574
   82MOL0     N10985   6.881   3.661  10.106 -0.4156  0.2919 -0.2950
   82MOL0     N10986   6.770   3.732  10.123  0.4067  0.5956  0.8989
   82MOL0     C10987   5.714   3.883   9.920 -0.6259 -0.3833 -0.5284
   82MOL0     C10988   5.595   3.904   9.980 -0.4686 -0.2945 -0.8122
   82MOL0     C10989   5.130   3.824  10.043  0.1697 -0.5106  0.7210
   82MOL0     C10990   5.063   3.734  10.123  0.1968  0.6250 -0.4439
   82MOL0     C10991   4.936   3.746  10.174  0.7571 -0.5459  0.5919
   82MOL0     C10992   4.862   3.863  10.144 -0.7142 -0.0725  0.4771
   82MOL0     O10993   4.744   3.886  10.211  1.0132 -0.1354  0.0686
   82MOL0     C10994   4.650   3.971  10.151  0.4923 -0.1815  0.6775
   82MOL0     C10995   4.519   3.949  10.222  0.4033  0.3223 -0.4165
   82MOL0     C10996   4.449   3.822  10.192 -0.6123 -0.2340 -0.4654
   82MOL0     C10997   4.303   3.810  10.208  0.2732 -0.1387  0.3425
   82MOL0     C10998   4.256   3.694  10.281  0.0431 -0.2223 -0.0280
   82MOL0     C10999   4.231   3.609  10.360 -0.0114 -0.4894 -0.6849
   82MOL0     C11000   4.922   3.957  10.060  0.2081 -0.4789  0.0898
   82MOL0     C11001   5.052   3.934  10.009 -0.0943 -0.2333 -0.2010
   82MOL0     C11002   5.114   4.037   9.920 -0.8740  0.0377 -0.0308
   82MOL0     H11003   5.402   3.774   9.742  1.4613 -2.8621  0.1787
   82MOL0     H11004   5.616   3.718   9.643 -1.3476  0.5465  0.6655
   82MOL0     H11005   5.853   3.611   9.652  0.2299  0.4377  3.5117
   82MOL0     H11006   5.824   3.762   9.545 -1.0224 -2.6262 -0.9108
   82MOL0     H11007   6.048   3.839   9.604 -1.1844  0.2187  3.0618
   82MOL0     H11008   6.036   3.698   9.497 -0.1837 -0.2186  0.3852
   82MOL0     H11009   6.091   3.573   9.725 -1.6877  0.6499 -0.7997
   82MOL0     H11010   6.113   3.730   9.799 -0.5181 -0.7760 -0.2791
   82MOL0     H11011   6.256   3.651   9.537 -0.2548  0.7720 -1.0879
   82MOL0     H11012   6.271   3.799   9.633 -1.3079 -0.6020 -1.5419
   82MOL0     H11013   6.364   3.526   9.733  1.2476 -0.2755  3.2165
   82MOL0     H11014   6.469   3.642   9.665  1.5265 -0.5772  1.9690
   82MOL0     H11015   6.439   3.797   9.857  1.0885 -0.6284  2.4826
   82MOL0     H11016   6.306   3.699   9.913 -1.2924 -2.1790 -1.9627
   82MOL0     H11017   6.589   3.603   9.884  1.4440  1.7088  1.7882
   82MOL0     H11018   6.445   3.519   9.965 -0.1085  0.4318  0.7431
   82MOL0     H11019   6.542   3.779  10.075 -0.5303  0.1331  1.5741
   82MOL0     H11020   6.452   3.643  10.154  0.1277 -1.7729 -0.6294
   82MOL0     H11021   6.662   3.410  10.125  3.5337 -2.1226  0.3974
   82MOL0     H11022   6.879   3.333  10.172  1.0427 -1.4853 -0.2110
   82MOL0     H11023   6.990   3.384  10.051 -1.5686  0.8530 -0.4306
   82MOL0     H11024   6.996   3.455  10.347  0.8810 -1.0168  1.2604
   82MOL0     H11025   7.111   3.348  10.270  0.3239  0.4424  0.1193
   82MOL0     H11026   7.107   3.633  10.202 -1.6856 -1.8646 -0.9565
   82MOL0     H11027   7.220   3.514  10.131 -0.3624 -0.5368  0.0313
   82MOL0     H11028   7.206   3.523  10.431 -1.4927 -1.1938 -0.9469
   82MOL0     H11029   7.294   3.648  10.337 -0.7027  0.3786  2.5037
   82MOL0     H11030   7.565   3.272  10.262  1.8205 -1.3267  0.3200
   82MOL0     H11031   7.804   3.332  10.318 -1.2989 -2.3865  1.6698
   82MOL0     H11032   8.086   3.636  10.252 -2.0238 -1.9062  2.3510
   82MOL0     H11033   8.312   3.675  10.251 -2.4952 -0.5987 -1.5866
   82MOL0     H11034   8.487   3.842  10.251  1.9109 -2.1346 -1.0683
   82MOL0     H11035   8.620   3.891  10.349  0.5218 -1.1332  0.8625
   82MOL0     H11036   8.515   3.601  10.315  0.6091 -1.4863 -1.2797
   82MOL0     H11037   8.658   3.678  10.243  1.6988 -0.4900  0.9966
   82MOL0     H11038   8.756   3.720  10.480 -0.4866  0.8314  2.4816
   82MOL0     H11039   8.612   3.643  10.551  0.0188 -1.2240  0.2259
   82MOL0     H11040   8.792   3.477  10.368 -0.5225 -0.8067 -0.2218
   82MOL0     H11041   8.662   3.429  10.474  0.0958 -0.6184  0.2272
   82MOL0     H11042   8.778   3.507  10.666  1.0359  2.0712 -0.1525
   82MOL0     H11043   8.915   3.578  10.569  1.2048 -1.0777 -5.0645
   82MOL0     H11044   8.837   3.269  10.564  1.3387 -0.4846 -0.1895
   82MOL0     H11045   8.973   3.335  10.490  0.7540 -3.2144  1.2707
   82MOL0     H11046   9.035   3.226  10.712 -0.3298 -0.3771  0.9660
   82MOL0     H11047   8.935   3.345  10.797  0.9041 -3.0997  2.3424
   82MOL0     H11048   9.085   3.541  10.720 -0.1417 -0.3380  0.3643
   82MOL0     H11049   9.178   3.413  10.811  2.1394  0.1468 -1.6905
   82MOL0     H11050   8.291   3.903  10.620 -1.1690 -0.1900  2.0530
   82MOL0     H11051   8.051   3.845  10.631 -1.6282  0.2819 -1.8521
   82MOL0     H11052   7.659   3.696  10.515 -3.2758  2.3790 -0.8546
   82MOL0     H11053   7.451   3.644  10.475  1.8935  0.1445  0.7931
   82MOL0     H11054   5.802   3.920   9.972 -0.6883 -3.6717  2.3066
   82MOL0     H11055   5.591   3.961  10.072  2.3066 -0.0153 -0.7921
   82MOL0     H11056   5.117   3.643  10.146  2.5219  1.3713 -2.4613
   82MOL0     H11057   4.902   3.674  10.249  0.8524  1.1937  2.3952
   82MOL0     H11058   4.632   3.963  10.044 -1.0361 -1.9034  1.0081
   82MOL0     H11059   4.687   4.071  10.177  0.9416 -0.1359 -0.1236
   82MOL0     H11060   4.454   4.033  10.196  2.5664  1.9919 -0.7200
   82MOL0     H11061   4.530   3.947  10.331 -0.2485 -3.2976 -0.2759
   82MOL0     H11062   4.492   3.738  10.247 -2.0797 -1.0756 -0.5458
   82MOL0     H11063   4.461   3.813  10.083 -1.1533  3.5003 -0.9617
   82MOL0     H11064   4.257   3.894  10.261  0.3262 -0.0031  0.1728
   82MOL0     H11065   4.245   3.809  10.116  0.9292 -0.6979 -0.0804
   82MOL0     H11066   4.205   3.552  10.448 -0.9373  1.7109  0.5506
   82MOL0     H11067   4.884   4.055  10.033  0.0692 -0.6322 -0.2731
   82MOL0     H11068   5.169   3.996   9.835  1.5513  0.3557  1.2793
   82MOL0     H11069   5.035   4.105   9.887  0.5816  2.1228  0.5905
   82MOL0     H11070   5.180   4.105   9.974 -0.2963  1.4334 -2.3949
   83MOL0     O11071   3.748   7.369   3.631 -0.1199 -0.2031  0.0456
   83MOL0     C11072   3.699   7.302   3.716 -0.7713 -0.2432  0.3453
   83MOL0     O11073   3.750   7.278   3.841 -0.3388 -0.2343 -0.0218
   83MOL0     C11074   3.841   7.373   3.886  0.4023 -0.1605  0.9950
   83MOL0     C11075   3.815   7.506   3.911  0.1664 -0.1304  0.5301
   83MOL0     C11076   3.917   7.587   3.967  0.5440  0.4198 -0.6667
   83MOL0     C11077   4.042   7.538   4.001 -0.2209 -0.5074 -0.1759
   83MOL0     O11078   4.146   7.616   4.037  0.0921 -0.2955  0.1459
   83MOL0     C11079   4.138   7.636   4.178 -0.8692 -0.4264  0.5683
   83MOL0     C11080   4.239   7.744   4.229  0.3782  0.9782  0.4829
   83MOL0     C11081   4.389   7.689   4.234 -0.6684 -0.0288 -0.1498
   83MOL0     C11082   4.459   7.673   4.368  0.5895 -0.8801 -0.1262
   83MOL0     C11083   4.614   7.642   4.354 -0.1446  0.5795 -0.0251
   83MOL0     C11084   4.662   7.579   4.475  0.3397  0.6308 -0.0722
   83MOL0     C11085   4.813   7.562   4.482  0.3213  0.3401 -0.2074
   83MOL0     C11086   4.864   7.651   4.589 -0.5186  0.1539 -0.9198
   83MOL0     N11087   5.016   7.664   4.587 -0.0204  0.8585  0.1355
   83MOL0     C11088   5.106   7.568   4.631 -0.0977  0.0607 -0.4722
   83MOL0     C11089   5.219   7.635   4.643 -0.5017 -0.3973 -0.4343
   83MOL0     C11090   5.349   7.576   4.706 -0.2755 -0.0176 -0.3927
   83MOL0     C11091   5.351   7.598   4.861  0.1587 -0.0952 -0.8877
   83MOL0     C11092   5.396   7.734   4.889 -0.3585 -0.3095  0.5062
   83MOL0     C11093   5.397   7.761   5.035  0.4617 -1.1174  0.7628
   83MOL0     O11094   5.469   7.662   5.109  0.2709 -0.4249  0.7769
   83MOL0     C11095   5.608   7.676   5.113  2.0078 -0.7893  0.3282
   83MOL0     C11096   5.682   7.771   5.048 -0.4564  0.1392 -0.4659
   83MOL0     C11097   5.823   7.770   5.061 -0.3464  0.4060  0.3640
   83MOL0     C11098   5.882   7.664   5.136 -0.1140  0.8485  0.0365
   83MOL0     C11099   6.027   7.657   5.152  0.0648  0.2177 -0.6264
   83MOL0     O11100   6.075   7.641   5.281  0.4046 -0.2343 -0.6132
   83MOL0     C11101   6.199   7.607   5.307  0.5283 -0.6405 -0.5715
   83MOL0     C11102   6.315   7.681   5.263  0.4189  0.1464  0.4170
   83MOL0     C11103   6.437   7.649   5.324  0.2880 -0.0971  0.1798
   83MOL0     C11104   6.446   7.543   5.424 -0.0671  0.6755  0.2106
   83MOL0     O11105   6.559   7.538   5.504 -0.7295  0.5377 -0.3664
   83MOL0     C11106   6.560   7.453   5.625 -0.5567  0.1726 -0.1569
   83MOL0     C11107   6.671   7.498   5.714 -0.1375  1.0545  0.3300
   83MOL0     C11108   6.802   7.436   5.678 -0.8760  0.5777  0.4971
   83MOL0     C11109   6.852   7.452   5.528  0.3813  0.2037 -0.2638
   83MOL0     C11110   6.991   7.388   5.509  0.5664  0.1240  0.5836
   83MOL0     C11111   7.111   7.460   5.569  0.3842 -0.3132  0.0430
   83MOL0     C11112   7.118   7.610   5.514  0.0796 -0.3955 -0.2349
   83MOL0     C11113   7.232   7.674   5.584  0.0149  0.1937  0.5118
   83MOL0    Cl11114   7.172   7.705   5.750  0.0721 -0.2686  0.4026
   83MOL0     C11115   6.335   7.463   5.442 -1.3577  0.6368 -0.7173
   83MOL0     C11116   6.212   7.497   5.384 -0.4816 -0.2825  0.5335
   83MOL0     O11117   6.089   7.619   5.049  0.0359 -0.3938  0.0952
   83MOL0     C11118   5.801   7.573   5.213  0.0972  0.0383  0.2187
   83MOL0     C11119   5.662   7.571   5.189 -0.2775 -0.4673 -0.5070
   83MOL0     N11120   5.210   7.763   4.594  0.8335 -0.6152  0.2200
   83MOL0     N11121   5.083   7.781   4.567 -0.1224  0.1838  0.9244
   83MOL0     C11122   4.065   7.408   3.972 -0.0481 -0.6855  0.2282
   83MOL0     C11123   3.963   7.322   3.917 -0.3568  0.5348  0.0563
   83MOL0     C11124   3.578   7.220   3.675 -0.7028 -0.2722  0.7983
   83MOL0     C11125   3.553   7.107   3.749 -0.1037 -0.1215  1.1225
   83MOL0     C11126   3.443   7.025   3.711 -0.0899  0.4742 -0.2925
   83MOL0     C11127   3.345   7.063   3.618 -0.1781 -0.3618 -0.4020
   83MOL0     O11128   3.230   6.995   3.596 -0.8558  0.1389 -0.6785
   83MOL0     C11129   3.250   6.855   3.563  0.2722  0.2808 -0.1763
   83MOL0     C11130   3.128   6.810   3.489  0.4887 -0.0823  0.3343
   83MOL0     C11131   3.149   6.682   3.419  0.3847  1.0020  0.6194
   83MOL0     C11132   3.026   6.618   3.351 -0.7599  0.6145 -0.8239
   83MOL0     C11133   2.927   6.583   3.459  0.5820  0.8380 -0.0789
   83MOL0     C11134   2.849   6.587   3.556  0.3503 -1.3556 -0.2362
   83MOL0     C11135   3.372   7.180   3.550  0.7567  0.8265  0.3168
   83MOL0     C11136   3.490   7.254   3.576  0.3208  0.3518 -0.5827
   83MOL0     C11137   3.503   7.372   3.480  0.1605  0.9350  0.7742
   83MOL0     H11138   3.721   7.551   3.880 -0.3020  0.3172  2.4499
   83MOL0     H11139   3.894   7.692   3.987  0.5012  0.9511 -3.2141
   83MOL0     H11140   4.035   7.655   4.209 -0.9925 -0.4728  0.1990
   83MOL0     H11141   4.161   7.545   4.235 -0.5490 -0.3820  0.5132
   83MOL0     H11142   4.211   7.778   4.329 -2.7320  0.9746 -0.3093
   83MOL0     H11143   4.234   7.830   4.161 -0.2224  2.2250  2.0286
   83MOL0     H11144   4.449   7.760   4.176 -2.7205  3.3626  1.5149
   83MOL0     H11145   4.387   7.591   4.187 -0.2098 -0.4445  0.6746
   83MOL0     H11146   4.451   7.766   4.425 -0.3967 -0.1408 -1.4135
   83MOL0     H11147   4.412   7.593   4.426  0.4422 -0.4458  0.3583
   83MOL0     H11148   4.628   7.581   4.265 -0.2041  3.0064 -1.7805
   83MOL0     H11149   4.666   7.738   4.350  0.1229  0.4787  0.7742
   83MOL0     H11150   4.612   7.631   4.558 -3.2815  3.1175 -3.3870
   83MOL0     H11151   4.623   7.477   4.471  1.9660 -0.0054 -0.4775
   83MOL0     H11152   4.861   7.573   4.385  1.9126 -0.5846  0.4305
   83MOL0     H11153   4.828   7.458   4.514 -3.1450 -0.2439 -0.0029
   83MOL0     H11154   4.831   7.755   4.576 -0.3413  0.6156  1.7850
   83MOL0     H11155   4.827   7.622   4.688  3.1372 -0.0272  0.5559
   83MOL0     H11156   5.100   7.462   4.650  3.9516  0.1147  2.5244
   83MOL0     H11157   5.363   7.471   4.677  1.3546  0.4680 -1.4899
   83MOL0     H11158   5.432   7.621   4.651  0.5237 -1.6033 -0.5534
   83MOL0     H11159   5.251   7.573   4.900  0.3056 -0.6138 -0.8351
   83MOL0     H11160   5.420   7.521   4.897  0.7814  1.2029  0.7988
   83MOL0     H11161   5.335   7.808   4.835 -1.5881 -1.1096  0.7682
   83MOL0     H11162   5.498   7.735   4.849 -0.3932 -0.8607  0.4021
   83MOL0     H11163   5.289   7.764   5.051 -0.0025 -1.0079 -1.8878
   83MOL0     H11164   5.435   7.862   5.052  0.6813 -0.4789 -2.6702
   83MOL0     H11165   5.634   7.841   4.980  1.0849  1.3867 -0.3119
   83MOL0     H11166   5.882   7.831   4.994  1.1993 -1.7085 -0.3275
   83MOL0     H11167   6.315   7.773   5.206 -1.2440  0.3360  0.6647
   83MOL0     H11168   6.517   7.721   5.314  0.6309 -0.3982  0.7017
   83MOL0     H11169   6.470   7.465   5.686 -0.5380  0.9437 -0.2710
   83MOL0     H11170   6.567   7.344   5.614 -1.0265 -0.0152  1.1810
   83MOL0     H11171   6.681   7.606   5.717  0.9822  0.9813 -0.2472
   83MOL0     H11172   6.640   7.455   5.810  0.6810 -0.4017 -0.0289
   83MOL0     H11173   6.878   7.482   5.743 -1.5402 -0.3930  1.9959
   83MOL0     H11174   6.803   7.330   5.702 -1.0212  0.4431 -0.0631
   83MOL0     H11175   6.854   7.557   5.501  0.1370 -0.2794 -2.2591
   83MOL0     H11176   6.775   7.397   5.474 -0.4676  0.9332  0.1667
   83MOL0     H11177   7.007   7.385   5.401  0.8676  1.8948  0.5345
   83MOL0     H11178   6.996   7.283   5.538 -0.5809  0.0072  0.3833
   83MOL0     H11179   7.097   7.450   5.677 -1.0534 -0.0418 -0.0971
   83MOL0     H11180   7.201   7.407   5.535  0.5600  0.8155 -1.3381
   83MOL0     H11181   7.023   7.666   5.517 -0.1538 -0.7658 -0.5825
   83MOL0     H11182   7.142   7.599   5.408  2.3508 -0.7784  0.2783
   83MOL0     H11183   7.321   7.612   5.584  0.2491  0.4847 -1.1036
   83MOL0     H11184   7.260   7.769   5.538  1.1725  0.3414  1.4621
   83MOL0     H11185   6.335   7.377   5.508 -2.3119  0.2836 -1.1716
   83MOL0     H11186   6.120   7.441   5.401 -1.0246  0.2454 -0.5902
   83MOL0     H11187   5.847   7.498   5.277  1.5236 -0.2018 -1.0285
   83MOL0     H11188   5.602   7.490   5.230 -1.8262 -0.7497 -3.1023
   83MOL0     H11189   4.159   7.360   3.995  0.6224  0.4176 -0.1360
   83MOL0     H11190   3.979   7.215   3.917 -2.0057  0.2558 -0.3381
   83MOL0     H11191   3.625   7.090   3.828  1.9795  1.3521 -0.3387
   83MOL0     H11192   3.429   6.929   3.759  1.9860  0.5129  0.4571
   83MOL0     H11193   3.254   6.788   3.649 -1.8867 -0.2121 -0.4009
   83MOL0     H11194   3.331   6.836   3.492 -0.6660 -1.1688 -0.8944
   83MOL0     H11195   3.098   6.892   3.424  0.3384  1.4722  2.2670
   83MOL0     H11196   3.049   6.791   3.563  0.7450 -0.3248  0.5499
   83MOL0     H11197   3.201   6.604   3.475 -1.3286 -0.7731 -0.1469
   83MOL0     H11198   3.215   6.715   3.338 -0.0806  1.5687  0.4678
   83MOL0     H11199   2.983   6.693   3.284 -1.2127 -0.0805 -1.3277
   83MOL0     H11200   3.054   6.534   3.286 -0.4735 -0.0335  0.1161
   83MOL0     H11201   2.785   6.602   3.640  0.7467 -1.5754  0.1111
   83MOL0     H11202   3.302   7.215   3.475  1.0792  1.4272  0.2941
   83MOL0     H11203   3.575   7.352   3.401 -0.4440  0.1461  0.4045
   83MOL0     H11204   3.418   7.393   3.415  1.0632  0.2129 -0.6934
   83MOL0     H11205   3.535   7.464   3.529  1.5175  1.5421 -1.1536
   84MOL0     O11206   4.265   7.972   1.882  0.1517  0.4666 -0.5301
   84MOL0     C11207   4.295   7.995   1.761  1.1529  0.1270  0.8437
   84MOL0     O11208   4.416   7.972   1.701  0.3987  0.6199 -0.6836
   84MOL0     C11209   4.516   7.924   1.783  0.2773 -0.0258  0.8402
   84MOL0     C11210   4.569   7.796   1.767 -0.2097  0.1788  0.1232
   84MOL0     C11211   4.682   7.757   1.848  0.2060 -0.0154 -0.1124
   84MOL0     C11212   4.731   7.833   1.955 -0.5379  0.3526  0.1975
   84MOL0     O11213   4.833   7.768   2.024 -0.4253 -0.2274 -0.0981
   84MOL0     C11214   4.930   7.851   2.082  0.1187  0.0985 -0.0318
   84MOL0     C11215   5.015   7.919   1.980 -0.9261 -0.7666 -0.5523
   84MOL0     C11216   5.087   7.820   1.889  0.4219 -0.1588 -0.1197
   84MOL0     C11217   5.226   7.868   1.863 -0.5004  0.3685  0.0170
   84MOL0     C11218   5.319   7.823   1.983  0.1805 -0.1493 -0.0719
   84MOL0     C11219   5.472   7.827   1.946 -0.5776 -0.1680 -0.5704
   84MOL0     C11220   5.574   7.815   2.070 -0.0710 -0.3808 -0.0274
   84MOL0     C11221   5.712   7.886   2.046  0.7130  0.4714 -0.3006
   84MOL0     N11222   5.757   7.857   1.907  0.7858 -0.5523 -0.3609
   84MOL0     C11223   5.775   7.962   1.813  0.0822  0.3382  0.5285
   84MOL0     C11224   5.847   7.896   1.722 -0.1299 -0.5303  0.4600
   84MOL0     C11225   5.883   7.964   1.603  0.2985 -0.5425  0.8366
   84MOL0     C11226   5.955   8.097   1.629  0.2766 -0.4136 -1.0512
   84MOL0     C11227   6.086   8.080   1.708  0.0930 -0.5998  0.9461
   84MOL0     C11228   6.167   7.958   1.657  0.3638  0.3332 -0.5925
   84MOL0     O11229   6.299   7.976   1.702 -0.4433  0.0011 -0.7420
   84MOL0     C11230   6.389   7.877   1.648  0.6966 -0.4474 -0.4030
   84MOL0     C11231   6.516   7.896   1.684  0.1919  0.1755  0.9347
   84MOL0     C11232   6.621   7.822   1.639 -1.2347  0.1686 -0.1197
   84MOL0     C11233   6.589   7.710   1.557  1.2309 -0.6623  0.3817
   84MOL0     C11234   6.690   7.620   1.501 -0.6542 -0.0659  0.8180
   84MOL0     O11235   6.815   7.671   1.510 -0.5607  0.1074  0.0685
   84MOL0     C11236   6.922   7.608   1.459  0.1999  0.1967  0.3675
   84MOL0     C11237   6.949   7.612   1.320  0.4859  0.2195  0.5055
   84MOL0     C11238   7.069   7.563   1.276 -0.0359  0.9024 -0.3446
   84MOL0     C11239   7.160   7.493   1.362  0.7489  0.4171  0.2017
   84MOL0     O11240   7.279   7.438   1.320 -0.1005  0.0826  0.4445
   84MOL0     C11241   7.358   7.523   1.235 -0.6899  0.1644 -0.6811
   84MOL0     C11242   7.508   7.509   1.258  0.1257 -0.7139  0.0315
   84MOL0     C11243   7.595   7.615   1.198  0.3930  0.7172  0.9882
   84MOL0     C11244   7.740   7.567   1.171  0.4233 -0.1450 -0.2959
   84MOL0     C11245   7.817   7.676   1.097  0.3984 -0.0548  0.7165
   84MOL0     C11246   7.959   7.638   1.074 -0.0213  0.4047  0.4325
   84MOL0     C11247   7.962   7.517   0.978  0.2236 -0.5165  0.2989
   84MOL0     C11248   8.095   7.487   0.931 -0.1306 -0.7181  0.0622
   84MOL0    Cl11249   8.194   7.627   0.856 -0.3651 -0.3018  0.6191
   84MOL0     C11250   7.129   7.490   1.500  0.0452  0.1152 -0.3111
   84MOL0     C11251   7.010   7.555   1.544 -0.4714 -0.2016  0.2002
   84MOL0     O11252   6.659   7.515   1.450 -0.4191 -0.5649 -0.0672
   84MOL0     C11253   6.456   7.680   1.513  0.1711 -1.0831  0.1140
   84MOL0     C11254   6.355   7.761   1.567 -0.7138 -0.6523 -0.3309
   84MOL0     N11255   5.867   7.766   1.752  0.1363 -0.2088  0.2012
   84MOL0     N11256   5.822   7.745   1.868 -0.2634 -0.3155 -0.0850
   84MOL0     C11257   4.671   7.958   1.974  0.0778 -0.2614 -0.3377
   84MOL0     C11258   4.572   8.006   1.881 -0.6495 -0.3158 -0.3976
   84MOL0     C11259   4.181   8.036   1.668 -0.7728 -0.3385  0.4926
   84MOL0     C11260   4.192   8.002   1.529  0.5031 -0.5893 -0.0457
   84MOL0     C11261   4.107   8.048   1.432  0.1188 -0.2577  0.2813
   84MOL0     C11262   4.009   8.143   1.466  0.7317 -0.3395 -0.0990
   84MOL0     O11263   3.930   8.193   1.368  0.4012  0.1610  0.0417
   84MOL0     C11264   3.804   8.257   1.400 -0.2773 -0.0308 -0.2408
   84MOL0     C11265   3.727   8.261   1.278 -0.9623 -0.1728  0.3145
   84MOL0     C11266   3.600   8.334   1.285  0.3222  0.0282  0.1158
   84MOL0     C11267   3.521   8.311   1.148 -0.2043  0.7686 -1.1808
   84MOL0     C11268   3.400   8.393   1.132 -0.7253 -0.1980 -1.2421
   84MOL0     C11269   3.299   8.454   1.122 -0.0608 -0.1070  0.0451
   84MOL0     C11270   4.003   8.196   1.594  0.4791 -0.4564  0.3684
   84MOL0     C11271   4.082   8.131   1.696  0.2344  0.2149  1.1918
   84MOL0     C11272   4.073   8.202   1.823  0.0206  0.7191  0.0124
   84MOL0     H11273   4.520   7.742   1.686 -1.5304 -0.2980  1.2050
   84MOL0     H11274   4.727   7.662   1.819  3.1958  1.9285 -2.4779
   84MOL0     H11275   4.873   7.927   2.137 -0.3901 -0.8832  0.8348
   84MOL0     H11276   4.985   7.786   2.151 -1.7947 -0.5798  0.9447
   84MOL0     H11277   5.088   7.975   2.038 -2.0517  0.8296 -0.6084
   84MOL0     H11278   4.962   8.000   1.929  1.6176  0.5537 -1.2684
   84MOL0     H11279   5.030   7.804   1.797 -0.7150 -1.3239  0.7311
   84MOL0     H11280   5.096   7.727   1.947  1.5198  0.8633  1.4249
   84MOL0     H11281   5.269   7.817   1.776 -1.8071  0.6605 -0.8289
   84MOL0     H11282   5.232   7.975   1.843 -1.8317  0.1216 -2.0324
   84MOL0     H11283   5.305   7.894   2.065  1.4791  0.7408 -0.5846
   84MOL0     H11284   5.302   7.718   2.009 -0.1889 -0.4543 -1.4567
   84MOL0     H11285   5.491   7.749   1.872 -3.7671 -0.6967 -0.9775
   84MOL0     H11286   5.482   7.928   1.905 -2.9489  0.5663  0.4489
   84MOL0     H11287   5.581   7.713   2.109 -3.2684 -0.8579 -0.4013
   84MOL0     H11288   5.528   7.862   2.158 -1.3276 -3.1727  0.9282
   84MOL0     H11289   5.699   7.993   2.063  0.6764  0.0637  3.0827
   84MOL0     H11290   5.783   7.845   2.119 -2.1396 -0.8589  1.9778
   84MOL0     H11291   5.734   8.060   1.790 -2.2404 -1.1009 -2.0089
   84MOL0     H11292   5.945   7.896   1.545  1.7947 -2.3216  4.2213
   84MOL0     H11293   5.797   7.979   1.537  0.4345 -1.9315  0.3110
   84MOL0     H11294   5.994   8.147   1.540  1.9795  0.2123  0.0042
   84MOL0     H11295   5.897   8.170   1.687  2.8131 -0.7064  2.1151
   84MOL0     H11296   6.067   8.062   1.815  0.1983 -0.8999  0.9162
   84MOL0     H11297   6.138   8.176   1.698 -2.4289  0.8992  1.2792
   84MOL0     H11298   6.173   7.962   1.548  2.3586 -0.2614 -0.5568
   84MOL0     H11299   6.124   7.863   1.690 -0.2071  0.3163 -1.3626
   84MOL0     H11300   6.533   7.982   1.748  1.1941  0.9601 -0.3495
   84MOL0     H11301   6.723   7.827   1.674 -0.6394 -1.4182 -1.5671
   84MOL0     H11302   6.888   7.666   1.249  2.4640  0.4672 -1.1238
   84MOL0     H11303   7.094   7.583   1.172  0.4991 -1.3170 -0.6940
   84MOL0     H11304   7.344   7.492   1.131 -2.5413  0.6285 -0.6030
   84MOL0     H11305   7.335   7.629   1.240  2.6751  0.9907  0.1260
   84MOL0     H11306   7.523   7.513   1.366 -1.5135 -1.3130  0.3132
   84MOL0     H11307   7.538   7.406   1.234  0.1317 -0.9987  1.2002
   84MOL0     H11308   7.549   7.658   1.109  1.2283 -0.3772  0.0002
   84MOL0     H11309   7.591   7.703   1.263 -1.1356  1.7598 -0.4400
   84MOL0     H11310   7.724   7.479   1.107  2.4279 -0.8846  0.1426
   84MOL0     H11311   7.797   7.528   1.256 -0.6721 -1.6568 -0.2164
   84MOL0     H11312   7.816   7.766   1.159 -2.2103  0.8386 -0.4751
   84MOL0     H11313   7.778   7.683   0.995  2.4902 -3.6591 -0.5409
   84MOL0     H11314   8.008   7.725   1.029 -3.0259  2.2138  0.3897
   84MOL0     H11315   8.004   7.601   1.167 -1.1104  1.2627  1.3225
   84MOL0     H11316   7.911   7.539   0.883  2.8396  2.4749 -0.6131
   84MOL0     H11317   7.912   7.430   1.021  0.3398 -0.0081  1.4873
   84MOL0     H11318   8.149   7.470   1.025 -0.5747  1.0233  0.6711
   84MOL0     H11319   8.098   7.401   0.863  0.7067 -0.6756  0.0309
   84MOL0     H11320   7.205   7.450   1.566 -0.3476  2.0855  1.4427
   84MOL0     H11321   6.977   7.563   1.647 -1.7132  1.8833 -0.2853
   84MOL0     H11322   6.425   7.598   1.449  1.7524 -0.9652 -0.8617
   84MOL0     H11323   6.252   7.739   1.542 -0.4762 -0.1436 -1.8864
   84MOL0     H11324   4.712   8.021   2.052 -1.6588  0.2685  0.1923
   84MOL0     H11325   4.544   8.110   1.888 -0.4534 -0.2952  0.1219
   84MOL0     H11326   4.251   7.921   1.487  3.9080  0.0166  3.0836
   84MOL0     H11327   4.111   8.004   1.333  1.9110 -1.8439  0.9881
   84MOL0     H11328   3.815   8.362   1.427  2.9432 -0.3530  0.1070
   84MOL0     H11329   3.744   8.201   1.472  0.7195 -3.9978 -2.1903
   84MOL0     H11330   3.710   8.156   1.254  0.7707 -0.2196 -0.8602
   84MOL0     H11331   3.780   8.310   1.195 -0.8007  1.3995  1.3002
   84MOL0     H11332   3.622   8.441   1.285  2.3890 -0.3576  0.4538
   84MOL0     H11333   3.538   8.292   1.365  0.4417  0.7451  0.5863
   84MOL0     H11334   3.580   8.320   1.057 -2.0971 -0.4108 -2.6279
   84MOL0     H11335   3.468   8.215   1.151 -2.2492  1.8252 -1.2346
   84MOL0     H11336   3.214   8.519   1.118  1.6210  2.1598 -3.0151
   84MOL0     H11337   3.933   8.273   1.624  0.2620 -1.7891  3.6451
   84MOL0     H11338   4.114   8.153   1.912 -1.4950  0.4608  0.5967
   84MOL0     H11339   4.125   8.298   1.813  1.2417  0.0863  0.0873
   84MOL0     H11340   3.967   8.214   1.847  0.0207  0.8957 -0.0738
   85MOL0     O11341   4.769   2.163   8.524  0.5715  0.4569 -0.3166
   85MOL0     C11342   4.751   2.073   8.442  0.2083 -0.1856  1.0147
   85MOL0     O11343   4.861   2.026   8.367 -0.1470  0.5201  0.2358
   85MOL0     C11344   4.988   2.070   8.406  1.1008 -0.0776 -0.2468
   85MOL0     C11345   5.063   2.009   8.501  0.3321 -0.3116  0.2570
   85MOL0     C11346   5.190   2.048   8.531  0.1194  0.1957 -0.3989
   85MOL0     C11347   5.258   2.150   8.458 -0.5237 -0.9725 -0.0644
   85MOL0     O11348   5.388   2.194   8.486  1.1859  0.1467  0.0885
   85MOL0     C11349   5.480   2.100   8.563  0.2303 -0.1036  0.1723
   85MOL0     C11350   5.625   2.105   8.505  0.8198  0.4964  0.3183
   85MOL0     C11351   5.707   1.984   8.548  1.6945 -1.0969 -0.0415
   85MOL0     C11352   5.840   1.994   8.475 -0.0713  0.4734 -0.2666
   85MOL0     C11353   5.934   1.884   8.518 -0.2933 -0.4427 -0.1036
   85MOL0     C11354   6.067   1.898   8.444  0.6283 -0.0365  0.0268
   85MOL0     C11355   6.159   1.784   8.461  0.3885  0.2965 -0.9013
   85MOL0     C11356   6.287   1.802   8.372 -0.1466 -0.7056  0.4964
   85MOL0     N11357   6.378   1.682   8.393  0.3368  0.2230  0.1612
   85MOL0     C11358   6.375   1.557   8.333  0.6243  0.1627 -0.7984
   85MOL0     C11359   6.478   1.476   8.374 -0.3735  0.3740 -0.6160
   85MOL0     C11360   6.520   1.343   8.325  0.2806  0.3356  0.6074
   85MOL0     C11361   6.543   1.331   8.178  0.3624  0.1680  0.0274
   85MOL0     C11362   6.642   1.430   8.123  0.1806 -0.2139 -1.2074
   85MOL0     C11363   6.772   1.427   8.205 -0.8995  0.3865 -0.3303
   85MOL0     O11364   6.819   1.290   8.215  0.1875 -0.3307 -0.1597
   85MOL0     C11365   6.963   1.283   8.227  0.8426 -0.0603  0.0426
   85MOL0     C11366   7.029   1.349   8.330 -0.7584  0.2471  0.0391
   85MOL0     C11367   7.171   1.364   8.327 -0.7943 -0.5032  0.4716
   85MOL0     C11368   7.252   1.302   8.224 -0.1555 -0.2145 -0.8771
   85MOL0     C11369   7.394   1.326   8.222  0.7177 -0.7431  0.2124
   85MOL0     O11370   7.432   1.415   8.313 -0.3789 -0.2636 -0.2186
   85MOL0     C11371   7.559   1.457   8.322  0.0028  0.2891  0.8624
   85MOL0     C11372   7.634   1.491   8.205  0.1006 -0.0727 -0.6536
   85MOL0     C11373   7.764   1.547   8.211 -0.3650 -0.2431  0.6689
   85MOL0     C11374   7.825   1.566   8.337  0.4782  0.8483  0.1555
   85MOL0     O11375   7.943   1.637   8.341 -0.2517 -0.3876  0.4569
   85MOL0     C11376   8.051   1.558   8.355  0.5236  0.5853 -0.3492
   85MOL0     C11377   8.178   1.632   8.303  0.7807 -1.6386  0.7026
   85MOL0     C11378   8.170   1.645   8.149  0.7978  0.2132  0.2799
   85MOL0     C11379   8.271   1.750   8.094 -0.2667 -0.7130 -0.2035
   85MOL0     C11380   8.235   1.749   7.938 -0.6689 -0.2089 -0.3386
   85MOL0     C11381   8.347   1.813   7.848 -1.3181 -0.2861 -0.9248
   85MOL0     C11382   8.331   1.784   7.701 -0.0155 -0.1677 -0.4946
   85MOL0     C11383   8.384   1.904   7.627  0.0162  0.9386 -0.5667
   85MOL0    Cl11384   8.265   2.027   7.592  0.6100  0.1243  0.4592
   85MOL0     C11385   7.760   1.530   8.452  0.0095  1.0198  0.3674
   85MOL0     C11386   7.625   1.482   8.444 -0.1027 -0.6830 -0.0613
   85MOL0     O11387   7.464   1.272   8.134  0.4509 -0.3144 -0.4465
   85MOL0     C11388   7.179   1.227   8.133  0.0389  0.0339  0.1448
   85MOL0     C11389   7.039   1.224   8.124 -0.3326 -0.3672 -0.3497
   85MOL0     N11390   6.550   1.560   8.460 -0.3828 -0.4547 -1.1061
   85MOL0     N11391   6.499   1.679   8.472  0.0847  1.0048  0.5826
   85MOL0     C11392   5.186   2.212   8.357 -0.2038  0.0795  0.2191
   85MOL0     C11393   5.055   2.171   8.329  0.0895  0.3432  0.3592
   85MOL0     C11394   4.613   2.026   8.396 -0.1825  0.1793  0.7053
   85MOL0     C11395   4.612   1.914   8.310  0.3300  0.4806  0.1680
   85MOL0     C11396   4.486   1.871   8.249 -1.1218 -1.0714  0.4861
   85MOL0     C11397   4.371   1.939   8.288 -0.7409  0.1078  0.7331
   85MOL0     O11398   4.248   1.918   8.226 -0.1099 -0.0103 -1.4170
   85MOL0     C11399   4.207   1.791   8.182  0.0336  0.9422 -0.3030
   85MOL0     C11400   4.060   1.786   8.145 -0.0237  0.6028  0.4407
   85MOL0     C11401   3.961   1.786   8.253 -0.5120 -0.3223 -0.7600
   85MOL0     C11402   3.942   1.929   8.316  0.1147 -0.3868 -0.0530
   85MOL0     C11403   4.022   1.946   8.444  1.3452  0.1079 -0.3282
   85MOL0     C11404   4.075   1.919   8.546  0.3946 -0.4445 -0.8221
   85MOL0     C11405   4.380   2.031   8.390  0.6392  0.3699 -0.0318
   85MOL0     C11406   4.498   2.078   8.446  0.1474  0.4569  0.0427
   85MOL0     C11407   4.494   2.195   8.545  0.8387 -0.2544  0.9454
   85MOL0     H11408   5.012   1.932   8.558 -2.8536  1.4974  0.0743
   85MOL0     H11409   5.243   1.996   8.610  1.1720  1.8283  0.0245
   85MOL0     H11410   5.479   2.127   8.669 -0.3699 -0.2284  0.2040
   85MOL0     H11411   5.447   1.995   8.559  1.6986 -0.5894  0.2365
   85MOL0     H11412   5.677   2.198   8.528 -0.7241  2.1833 -2.4551
   85MOL0     H11413   5.624   2.106   8.395  0.5078 -2.4421  0.2299
   85MOL0     H11414   5.655   1.888   8.534 -0.0398 -0.1373 -0.5587
   85MOL0     H11415   5.736   1.992   8.653  2.6053 -1.9578 -0.2136
   85MOL0     H11416   5.821   1.972   8.369  1.9343 -3.0289 -0.0440
   85MOL0     H11417   5.888   2.092   8.485  3.0632 -0.6910 -2.2404
   85MOL0     H11418   5.940   1.881   8.627  0.6779 -1.4145 -0.1600
   85MOL0     H11419   5.897   1.786   8.487 -1.6162  0.8346 -2.8581
   85MOL0     H11420   6.041   1.898   8.338 -2.4378 -0.2249  0.6793
   85MOL0     H11421   6.122   1.986   8.478  0.6226 -1.3787  4.0793
   85MOL0     H11422   6.106   1.693   8.431 -0.4303  0.3328  0.3551
   85MOL0     H11423   6.193   1.771   8.564 -0.5949 -2.0278 -0.8054
   85MOL0     H11424   6.270   1.822   8.266 -3.8483  2.7025  1.4992
   85MOL0     H11425   6.334   1.892   8.411 -3.3208  1.2194  0.2880
   85MOL0     H11426   6.299   1.522   8.264  0.5854 -1.4643  0.0466
   85MOL0     H11427   6.610   1.323   8.383 -0.0008  0.0734  0.9553
   85MOL0     H11428   6.434   1.287   8.363 -0.2299  1.9120  1.8628
   85MOL0     H11429   6.572   1.229   8.150 -2.6363 -0.9814  0.7317
   85MOL0     H11430   6.446   1.344   8.131  1.1519  0.8056 -1.5098
   85MOL0     H11431   6.606   1.533   8.125  2.4335  0.6834  2.8097
   85MOL0     H11432   6.679   1.395   8.026 -2.2478 -1.2981 -1.8311
   85MOL0     H11433   6.763   1.467   8.307  1.9148 -0.8138  0.4910
   85MOL0     H11434   6.849   1.486   8.153  1.1799 -0.4509  1.6309
   85MOL0     H11435   6.972   1.388   8.414  1.1793 -0.3733  1.7374
   85MOL0     H11436   7.221   1.408   8.412  0.4780 -2.1046  0.5853
   85MOL0     H11437   7.578   1.495   8.112 -0.5721  2.9359 -0.2227
   85MOL0     H11438   7.820   1.592   8.129  1.3416  1.2959  2.5847
   85MOL0     H11439   8.055   1.541   8.463  1.3721 -0.3380 -0.5145
   85MOL0     H11440   8.042   1.464   8.299  0.7438  0.6588 -0.5090
   85MOL0     H11441   8.178   1.731   8.350 -0.1791 -1.2763 -0.0149
   85MOL0     H11442   8.272   1.590   8.338 -1.0932 -4.4121  2.7152
   85MOL0     H11443   8.187   1.548   8.101 -1.3398  0.1444 -0.4077
   85MOL0     H11444   8.068   1.656   8.112  0.9114  1.3363  0.2649
   85MOL0     H11445   8.373   1.721   8.121  0.5093  1.1631 -0.9582
   85MOL0     H11446   8.259   1.852   8.131  0.7263 -0.3797 -0.7597
   85MOL0     H11447   8.136   1.795   7.932  1.1389  4.3271  0.2454
   85MOL0     H11448   8.234   1.647   7.899 -0.3334  1.2846 -4.7968
   85MOL0     H11449   8.343   1.920   7.867  0.4188 -0.6585  2.1293
   85MOL0     H11450   8.446   1.783   7.882 -0.5611  1.5118 -1.4406
   85MOL0     H11451   8.227   1.760   7.679  0.4539 -1.5063 -1.3591
   85MOL0     H11452   8.404   1.703   7.687  0.7318 -0.2315  2.9101
   85MOL0     H11453   8.465   1.949   7.686 -0.9295  2.8758 -0.6552
   85MOL0     H11454   8.421   1.870   7.530  0.3644  2.1516 -0.8743
   85MOL0     H11455   7.798   1.550   8.552  0.9938  4.1773 -0.5190
   85MOL0     H11456   7.565   1.470   8.533 -0.6401  3.9565  0.4404
   85MOL0     H11457   7.235   1.189   8.049  1.4601 -0.3533  1.2294
   85MOL0     H11458   6.986   1.163   8.052  0.7927 -0.7777 -0.8562
   85MOL0     H11459   5.241   2.297   8.315  1.6699 -0.6093  1.1536
   85MOL0     H11460   4.999   2.218   8.250  0.9738  1.0034  0.1165
   85MOL0     H11461   4.709   1.867   8.302  0.4075  0.2990  1.8402
   85MOL0     H11462   4.472   1.791   8.178 -3.3963 -0.2949 -0.0335
   85MOL0     H11463   4.224   1.725   8.268 -1.6646  1.0455  0.1567
   85MOL0     H11464   4.269   1.750   8.102 -1.3235 -0.3367 -0.7577
   85MOL0     H11465   4.037   1.690   8.097  0.5081 -0.6655  2.5816
   85MOL0     H11466   4.041   1.863   8.070 -0.7314 -1.2220 -1.3705
   85MOL0     H11467   3.990   1.718   8.334  0.4988  1.6442  0.6137
   85MOL0     H11468   3.867   1.753   8.208 -1.3101 -0.7649  1.1312
   85MOL0     H11469   3.977   2.002   8.242 -0.1909 -1.3009 -1.1248
   85MOL0     H11470   3.836   1.951   8.326 -0.1710 -1.6270 -0.1067
   85MOL0     H11471   4.129   1.892   8.635 -1.6263  0.4875  0.7488
   85MOL0     H11472   4.286   2.083   8.408 -0.1638  0.0213 -2.7987
   85MOL0     H11473   4.518   2.164   8.647  1.2450 -0.3053  0.8344
   85MOL0     H11474   4.559   2.274   8.508  1.8877 -1.4564  0.1630
   85MOL0     H11475   4.390   2.230   8.544  0.5667 -0.9949 -0.9799
   86MOL0     O11476   2.741   2.799   9.004 -0.1686  0.6512  0.0322
   86MOL0     C11477   2.783   2.756   8.896 -0.8670  0.6821  0.0217
   86MOL0     O11478   2.909   2.757   8.846  0.1440 -0.3415 -0.4383
   86MOL0     C11479   3.028   2.795   8.903 -0.5817  0.0964  0.9838
   86MOL0     C11480   3.055   2.802   9.039 -1.1226 -0.0885  0.1414
   86MOL0     C11481   3.182   2.814   9.096 -0.5413 -0.2028  0.2266
   86MOL0     C11482   3.287   2.828   9.003 -0.0517 -0.5322  0.0217
   86MOL0     O11483   3.421   2.828   9.031 -0.9339 -0.0517  0.5793
   86MOL0     C11484   3.455   2.844   9.167 -0.2876 -0.7202  0.6320
   86MOL0     C11485   3.592   2.894   9.187 -0.5400  0.2217 -0.8643
   86MOL0     C11486   3.686   2.773   9.160  0.0486  0.1743  0.0352
   86MOL0     C11487   3.821   2.814   9.224  0.6578  1.1926  0.8162
   86MOL0     C11488   3.946   2.738   9.182  0.0931 -0.3946  0.1977
   86MOL0     C11489   3.961   2.610   9.260 -0.8899 -0.2019 -0.4071
   86MOL0     C11490   4.084   2.528   9.222  0.1003 -0.3740 -0.1575
   86MOL0     C11491   4.212   2.603   9.264  0.0469  0.0030 -0.5865
   86MOL0     N11492   4.320   2.509   9.239 -0.8804 -0.1125  1.1189
   86MOL0     C11493   4.381   2.506   9.119 -0.1367  0.6307 -0.0325
   86MOL0     C11494   4.503   2.435   9.155  0.2698  1.1865  0.5366
   86MOL0     C11495   4.624   2.407   9.067  0.5942 -0.3768  0.3977
   86MOL0     C11496   4.574   2.340   8.933  0.3970 -1.4592 -0.4544
   86MOL0     C11497   4.684   2.344   8.826  0.7165 -0.5098  0.0603
   86MOL0     C11498   4.808   2.255   8.850 -0.0968 -0.0838  0.1717
   86MOL0     O11499   4.883   2.282   8.977  0.8396  0.2124  0.3093
   86MOL0     C11500   5.010   2.234   8.973  0.3188 -0.6661  0.8895
   86MOL0     C11501   5.055   2.139   8.880  0.4515  0.1545  0.1483
   86MOL0     C11502   5.180   2.077   8.897  0.1832 -0.5786  0.4443
   86MOL0     C11503   5.271   2.101   9.001 -0.1133  0.6860  0.4753
   86MOL0     C11504   5.390   2.020   9.019 -0.8196  0.2233  0.1640
   86MOL0     O11505   5.440   2.017   9.150  1.0668  0.1340  0.5512
   86MOL0     C11506   5.532   1.922   9.197 -0.3381  0.0433 -0.5134
   86MOL0     C11507   5.604   1.958   9.306  0.2277 -0.0862 -0.2052
   86MOL0     C11508   5.711   1.871   9.347 -0.0059  0.0427  0.3122
   86MOL0     C11509   5.750   1.755   9.274  0.6549  0.4430  0.2177
   86MOL0     O11510   5.852   1.666   9.303 -0.0723 -0.5254  0.5711
   86MOL0     C11511   5.980   1.730   9.332  0.0980  0.7803 -0.0363
   86MOL0     C11512   6.065   1.784   9.220  0.6039  0.1238 -0.2956
   86MOL0     C11513   6.190   1.865   9.269 -0.6630  1.0455 -0.3032
   86MOL0     C11514   6.236   1.962   9.156 -1.4391  0.1219 -0.0729
   86MOL0     C11515   6.381   2.018   9.188  0.2891  0.3084  0.4221
   86MOL0     C11516   6.455   2.051   9.057 -0.3283  0.5406 -0.9658
   86MOL0     C11517   6.606   2.069   9.088 -0.5055 -0.4560 -0.0365
   86MOL0     C11518   6.674   2.126   8.959  0.1079 -0.8426  0.0260
   86MOL0    Cl11519   6.861   2.103   8.981  0.3649 -0.0493 -0.3465
   86MOL0     C11520   5.672   1.713   9.165  0.7374  0.1358  0.6716
   86MOL0     C11521   5.565   1.798   9.129 -0.6192 -0.3388 -0.3533
   86MOL0     O11522   5.458   1.986   8.919  0.0742  0.5885  0.8279
   86MOL0     C11523   5.226   2.197   9.095  0.0323  0.1927 -0.5922
   86MOL0     C11524   5.099   2.261   9.081  0.4995  0.9285  0.1730
   86MOL0     N11525   4.494   2.383   9.284  0.0381  0.8190  0.5251
   86MOL0     N11526   4.384   2.426   9.330  0.3963 -0.1033 -1.0588
   86MOL0     C11527   3.260   2.816   8.864 -1.0759  0.6652  0.1535
   86MOL0     C11528   3.134   2.809   8.813  0.5401  0.3676  0.9805
   86MOL0     C11529   2.678   2.691   8.821 -0.0998  0.1814  0.3692
   86MOL0     C11530   2.559   2.629   8.882  0.8466  0.1830 -0.1123
   86MOL0     C11531   2.454   2.577   8.804  0.8779  0.3361  0.2255
   86MOL0     C11532   2.461   2.576   8.664  0.4124 -0.2371  0.0734
   86MOL0     O11533   2.356   2.532   8.593  0.0489  0.3210 -0.1344
   86MOL0     C11534   2.335   2.579   8.459  0.3793 -0.4413  0.5464
   86MOL0     C11535   2.389   2.482   8.353 -0.1337  0.4257  0.1855
   86MOL0     C11536   2.312   2.344   8.363 -0.2057  1.0861 -0.3835
   86MOL0     C11537   2.163   2.349   8.329  0.4579 -0.4678 -0.7339
   86MOL0     C11538   2.084   2.269   8.427 -0.6656 -0.3750  0.7500
   86MOL0     C11539   2.029   2.199   8.512  0.3001 -0.4235 -0.1337
   86MOL0     C11540   2.575   2.633   8.611 -0.2640 -0.0098 -0.1467
   86MOL0     C11541   2.681   2.682   8.680  0.4352 -0.8075  0.1038
   86MOL0     C11542   2.789   2.738   8.588  0.5551 -0.0970  0.3679
   86MOL0     H11543   2.973   2.789   9.109 -0.6235  2.3709  1.3296
   86MOL0     H11544   3.186   2.801   9.204 -2.4284 -3.3028  0.0517
   86MOL0     H11545   3.390   2.917   9.217 -1.3276  0.4390 -2.1695
   86MOL0     H11546   3.432   2.749   9.216 -2.0393 -1.3144 -1.1838
   86MOL0     H11547   3.603   2.934   9.288  0.7958 -0.2163 -0.8127
   86MOL0     H11548   3.618   2.982   9.127 -2.7845  1.3874 -0.2475
   86MOL0     H11549   3.697   2.741   9.056 -4.7457 -0.7836 -0.3846
   86MOL0     H11550   3.640   2.685   9.205 -0.9369  0.0046 -1.2352
   86MOL0     H11551   3.843   2.918   9.198 -1.5335  1.1632 -1.5760
   86MOL0     H11552   3.811   2.812   9.333  0.5764 -1.4318  0.8278
   86MOL0     H11553   3.944   2.714   9.075  0.6142  2.2598 -0.4728
   86MOL0     H11554   4.026   2.811   9.199  0.1484 -0.6844  1.2285
   86MOL0     H11555   3.969   2.640   9.365 -0.7908  1.1254 -0.7788
   86MOL0     H11556   3.869   2.552   9.248 -1.5906  0.7956 -0.0150
   86MOL0     H11557   4.081   2.520   9.113  3.2089  0.0121 -0.3445
   86MOL0     H11558   4.079   2.427   9.264 -2.7645 -0.4961 -0.5638
   86MOL0     H11559   4.223   2.691   9.200 -1.0999  2.7166  2.6315
   86MOL0     H11560   4.222   2.630   9.370  0.3591  1.1052 -0.8787
   86MOL0     H11561   4.355   2.559   9.028 -1.8302 -1.7281 -1.0490
   86MOL0     H11562   4.680   2.497   9.039 -0.2730 -0.7194 -2.8760
   86MOL0     H11563   4.697   2.347   9.122 -2.1604 -2.7486  1.7086
   86MOL0     H11564   4.536   2.243   8.965 -0.0510 -1.5259 -1.1620
   86MOL0     H11565   4.485   2.387   8.889  1.0969 -1.3488 -1.8338
   86MOL0     H11566   4.711   2.449   8.814 -0.5652 -0.2335 -0.5506
   86MOL0     H11567   4.648   2.309   8.729  0.5087 -0.1932  0.0244
   86MOL0     H11568   4.867   2.271   8.759 -0.9210  0.9760 -0.1956
   86MOL0     H11569   4.768   2.153   8.852  3.4380 -1.6393  1.1613
   86MOL0     H11570   5.001   2.110   8.790  3.3459 -1.0161 -1.3327
   86MOL0     H11571   5.201   2.003   8.821  0.6986  1.4716 -1.5435
   86MOL0     H11572   5.586   2.052   9.358  3.3306 -0.4066  1.7056
   86MOL0     H11573   5.758   1.910   9.437 -0.6072  2.4650 -0.3337
   86MOL0     H11574   5.962   1.809   9.405 -0.1096 -0.3328  1.1534
   86MOL0     H11575   6.040   1.647   9.370  0.9251 -0.9276 -4.4088
   86MOL0     H11576   6.095   1.707   9.148 -1.9270 -1.3815  0.1504
   86MOL0     H11577   5.998   1.848   9.163  2.4450  0.1801 -2.5582
   86MOL0     H11578   6.165   1.913   9.365 -0.3525 -0.8337  0.7780
   86MOL0     H11579   6.273   1.799   9.294  0.2596  2.1822 -0.2802
   86MOL0     H11580   6.160   2.039   9.138 -1.2969  0.7990  1.9593
   86MOL0     H11581   6.243   1.899   9.067 -1.2051  0.1121 -0.0492
   86MOL0     H11582   6.433   1.943   9.249  0.8192 -0.3478 -0.8059
   86MOL0     H11583   6.371   2.109   9.248  1.0464  2.0954 -2.0161
   86MOL0     H11584   6.436   1.974   8.981 -2.8998 -0.2476  0.3584
   86MOL0     H11585   6.414   2.145   9.020 -0.5472  0.7300 -0.2572
   86MOL0     H11586   6.655   1.973   9.111 -0.2193 -0.3155 -0.0517
   86MOL0     H11587   6.617   2.140   9.170  1.3469 -2.2898  1.4202
   86MOL0     H11588   6.641   2.070   8.871 -2.1843  2.2444 -1.2553
   86MOL0     H11589   6.641   2.230   8.952  0.2125 -0.4369  3.7273
   86MOL0     H11590   5.687   1.627   9.100 -1.4944  1.7817 -2.2674
   86MOL0     H11591   5.499   1.757   9.054 -3.4698  0.9932  1.2658
   86MOL0     H11592   5.274   2.235   9.185 -1.4090  2.4736 -0.6814
   86MOL0     H11593   5.078   2.313   9.174  3.5708  3.4694 -0.3838
   86MOL0     H11594   3.335   2.796   8.787 -0.4875 -2.2294  1.3538
   86MOL0     H11595   3.119   2.809   8.706 -2.8448 -2.3941  1.2832
   86MOL0     H11596   2.560   2.616   8.989  0.0415  0.5943 -0.0424
   86MOL0     H11597   2.364   2.535   8.848 -2.1112  0.9023 -4.5295
   86MOL0     H11598   2.391   2.670   8.438  1.3129 -1.2520 -0.6595
   86MOL0     H11599   2.230   2.602   8.441  0.9149  2.3712  0.6084
   86MOL0     H11600   2.491   2.454   8.382  0.1042  1.8231  0.7901
   86MOL0     H11601   2.372   2.516   8.250  3.1102  0.0622 -0.5968
   86MOL0     H11602   2.329   2.301   8.462  1.6207 -0.1781 -1.1997
   86MOL0     H11603   2.357   2.279   8.287 -1.0586 -0.1991  0.1819
   86MOL0     H11604   2.119   2.449   8.321  0.6065 -0.1583  1.4458
   86MOL0     H11605   2.160   2.303   8.230  0.5051 -1.5576 -0.2512
   86MOL0     H11606   1.991   2.123   8.578 -0.3751  1.6094  1.9630
   86MOL0     H11607   2.574   2.636   8.503 -2.4552  1.9351 -0.1421
   86MOL0     H11608   2.796   2.844   8.613  0.2964  0.1704 -0.6387
   86MOL0     H11609   2.888   2.691   8.598  0.3183 -1.0776 -1.3660
   86MOL0     H11610   2.771   2.730   8.480  0.5619  0.3005  0.3360
   87MOL0     O11611   3.950   9.454   9.126 -0.1342 -0.1990 -0.4373
   87MOL0     C11612   3.853   9.504   9.071 -0.2516  0.0725  0.4817
   87MOL0     O11613   3.861   9.606   8.976 -0.2132  0.0626  0.1257
   87MOL0     C11614   3.988   9.644   8.949  1.4218 -0.9869 -0.0701
   87MOL0     C11615   4.058   9.746   9.017  0.6369  0.1617 -0.1865
   87MOL0     C11616   4.184   9.789   8.982 -0.4095  0.5322  0.4815
   87MOL0     C11617   4.258   9.713   8.884  1.5833  0.3560 -0.8670
   87MOL0     O11618   4.377   9.752   8.834  0.3311 -0.4251 -0.2029
   87MOL0     C11619   4.477   9.800   8.929  0.3829  0.1504  0.3263
   87MOL0     C11620   4.491   9.697   9.045 -0.2333 -0.7902 -0.4443
   87MOL0     C11621   4.534   9.555   8.987 -1.1997  0.5063 -0.4156
   87MOL0     C11622   4.581   9.481   9.110 -0.5055 -0.3453 -0.3198
   87MOL0     C11623   4.653   9.346   9.090 -0.3290 -0.2198  0.2367
   87MOL0     C11624   4.570   9.239   9.015  0.8717 -0.7343 -0.2339
   87MOL0     C11625   4.655   9.105   9.006 -0.5047 -0.3264 -0.0900
   87MOL0     C11626   4.586   9.013   8.916 -0.2782  0.4095  0.1048
   87MOL0     N11627   4.661   8.881   8.922  0.6115 -0.3701 -0.5727
   87MOL0     C11628   4.775   8.853   8.851 -0.2956  0.4089  0.5676
   87MOL0     C11629   4.809   8.728   8.895 -0.9219 -0.2598  0.6769
   87MOL0     C11630   4.925   8.653   8.834 -0.2121 -0.4045 -0.5283
   87MOL0     C11631   5.022   8.608   8.944 -0.3441 -0.0879 -0.4802
   87MOL0     C11632   5.061   8.728   9.036 -0.2898 -0.1532 -0.6613
   87MOL0     C11633   4.992   8.721   9.178  1.2453  0.3978  0.1962
   87MOL0     O11634   5.073   8.790   9.280 -0.2513 -0.2396  0.0477
   87MOL0     C11635   5.070   8.925   9.260  0.5843 -0.5516  0.3071
   87MOL0     C11636   4.981   9.008   9.181 -0.0269  0.0142  0.2829
   87MOL0     C11637   4.980   9.148   9.176  0.2367 -0.4479 -0.0870
   87MOL0     C11638   5.062   9.221   9.260 -0.2224  0.5518 -0.3292
   87MOL0     C11639   5.067   9.372   9.254  0.4445  0.5126 -0.6820
   87MOL0     O11640   5.161   9.427   9.328 -0.7346 -0.0419  0.4468
   87MOL0     C11641   5.189   9.558   9.319 -0.2595 -0.6527  0.0120
   87MOL0     C11642   5.319   9.605   9.348  0.2329  0.0765  1.2260
   87MOL0     C11643   5.347   9.746   9.341 -0.5895  0.2847  0.1688
   87MOL0     C11644   5.258   9.847   9.301 -0.3343  0.0175 -0.1870
   87MOL0     O11645   5.296   9.982   9.302  0.3781 -0.4347 -0.4453
   87MOL0     C11646   5.240  10.070   9.208 -0.3667  0.5656  0.0304
   87MOL0     C11647   5.346  10.164   9.150 -0.2012 -0.0336  0.0939
   87MOL0     C11648   5.452  10.087   9.067  0.5573 -0.0558 -0.2650
   87MOL0     C11649   5.573  10.177   9.033  0.2506  0.3603  0.6921
   87MOL0     C11650   5.699  10.086   9.013  0.3448  0.2109 -0.0868
   87MOL0     C11651   5.807  10.160   8.928 -0.8467 -0.4485  0.1214
   87MOL0     C11652   5.919  10.066   8.871  0.2339 -0.2706  0.2767
   87MOL0     C11653   5.992   9.986   8.988  1.1319 -0.4851  0.5130
   87MOL0    Cl11654   5.921   9.820   9.025 -0.1942  0.0013 -0.2804
   87MOL0     C11655   5.132   9.798   9.264  0.7153  0.0035 -0.1142
   87MOL0     C11656   5.094   9.664   9.280 -1.6919  0.1467 -0.1729
   87MOL0     O11657   4.997   9.424   9.169 -0.7325  0.0401 -1.0539
   87MOL0     C11658   5.143   9.146   9.352 -1.5657 -0.7068  0.1530
   87MOL0     C11659   5.153   9.002   9.345 -0.4032  0.5309  0.1769
   87MOL0     N11660   4.706   8.677   8.975 -0.2541 -0.3521  0.0286
   87MOL0     N11661   4.614   8.765   8.984 -0.0134 -0.5451 -0.2265
   87MOL0     C11662   4.180   9.623   8.805  0.2385  0.9102 -0.4279
   87MOL0     C11663   4.054   9.580   8.847  0.4545  0.0927 -1.0956
   87MOL0     C11664   3.714   9.459   9.085  0.2487 -0.5936 -0.8616
   87MOL0     C11665   3.602   9.549   9.076  0.4341  0.4610 -0.2326
   87MOL0     C11666   3.471   9.509   9.098  0.9463  0.3824  0.4006
   87MOL0     C11667   3.436   9.386   9.140 -0.2949  0.1145  0.3912
   87MOL0     O11668   3.310   9.338   9.179 -0.1731 -0.3617  0.1734
   87MOL0     C11669   3.213   9.437   9.176  0.6207 -1.2483  0.6880
   87MOL0     C11670   3.085   9.387   9.220  0.5498 -0.6871  0.8537
   87MOL0     C11671   3.022   9.279   9.134  0.0764 -0.7514 -0.2004
   87MOL0     C11672   2.886   9.232   9.204 -0.6318  0.6940 -0.0018
   87MOL0     C11673   2.781   9.316   9.169 -0.0090  0.1841  0.2709
   87MOL0     C11674   2.694   9.401   9.155  0.6528 -0.4487 -0.3649
   87MOL0     C11675   3.542   9.294   9.146 -0.3903 -0.0890 -0.7162
   87MOL0     C11676   3.677   9.326   9.120  0.3242  0.1694 -0.2212
   87MOL0     C11677   3.770   9.213   9.121 -0.9169  0.0479  0.2122
   87MOL0     H11678   4.001   9.788   9.099  1.6377  0.8470  0.1747
   87MOL0     H11679   4.232   9.867   9.040 -0.2745 -0.8237  2.2853
   87MOL0     H11680   4.578   9.817   8.888  0.0365  1.0697 -0.2002
   87MOL0     H11681   4.453   9.904   8.954 -0.2191  0.7030 -2.2084
   87MOL0     H11682   4.396   9.687   9.099  0.6060 -1.6760  0.9462
   87MOL0     H11683   4.561   9.741   9.117 -1.9891  0.5648  0.5034
   87MOL0     H11684   4.610   9.559   8.908 -0.2470 -2.4861  0.2052
   87MOL0     H11685   4.448   9.505   8.942 -0.8424 -0.0262 -0.5144
   87MOL0     H11686   4.654   9.542   9.164 -1.7761  0.0100  1.0725
   87MOL0     H11687   4.497   9.468   9.178 -1.3050  1.1962 -0.9607
   87MOL0     H11688   4.748   9.350   9.036  0.4099 -4.1640  0.9133
   87MOL0     H11689   4.684   9.317   9.191 -0.1208 -1.7497 -0.2372
   87MOL0     H11690   4.478   9.222   9.071 -0.7593  1.2037 -2.1492
   87MOL0     H11691   4.562   9.272   8.911  3.7897  0.7740 -0.0689
   87MOL0     H11692   4.675   9.060   9.104  0.9582  0.7390  0.1396
   87MOL0     H11693   4.751   9.142   8.969 -1.0144 -1.7960 -3.1802
   87MOL0     H11694   4.480   9.016   8.945  0.3178  0.8361  2.4138
   87MOL0     H11695   4.596   9.063   8.819  2.2573  1.1079  0.6597
   87MOL0     H11696   4.837   8.909   8.782  1.5545  0.9685  2.5595
   87MOL0     H11697   4.885   8.564   8.783 -1.1465 -1.0375  1.1883
   87MOL0     H11698   4.973   8.708   8.753  2.4634 -0.6950  0.7487
   87MOL0     H11699   4.977   8.521   8.993  1.9211  1.2855  4.7048
   87MOL0     H11700   5.105   8.564   8.887 -0.4120  1.1621 -1.6004
   87MOL0     H11701   5.036   8.820   8.981 -0.0025 -0.6112 -1.5783
   87MOL0     H11702   5.170   8.736   9.044 -0.4963  1.9719  0.9741
   87MOL0     H11703   4.985   8.622   9.222 -2.5209 -0.2343 -1.4121
   87MOL0     H11704   4.888   8.754   9.175  0.7437 -0.9895  1.3915
   87MOL0     H11705   4.906   8.964   9.116  0.2870  1.4007 -1.1067
   87MOL0     H11706   4.907   9.201   9.116 -1.9653 -0.0999  2.6676
   87MOL0     H11707   5.397   9.536   9.377  0.9944  0.9895  1.4394
   87MOL0     H11708   5.439   9.789   9.379  0.2051 -1.3673  0.1804
   87MOL0     H11709   5.197  10.017   9.122  1.6160  1.8894 -1.8787
   87MOL0     H11710   5.170  10.136   9.261  1.2663  1.8023  0.7178
   87MOL0     H11711   5.297  10.232   9.081 -1.1304 -1.2082 -0.4473
   87MOL0     H11712   5.382  10.219   9.237 -3.4305 -0.5477  1.8920
   87MOL0     H11713   5.474   9.994   9.121 -0.3286  0.7374  1.5617
   87MOL0     H11714   5.422  10.055   8.967 -0.0808  0.5977 -0.2941
   87MOL0     H11715   5.599  10.253   9.108  2.1949  2.7797 -2.1871
   87MOL0     H11716   5.557  10.242   8.947  1.6974  1.6337  1.3116
   87MOL0     H11717   5.678   9.994   8.960 -0.2237  0.9459 -1.1685
   87MOL0     H11718   5.739  10.068   9.113  1.6562 -1.0809 -0.8191
   87MOL0     H11719   5.754  10.209   8.846 -1.3803  0.0851  0.7744
   87MOL0     H11720   5.848  10.241   8.990  2.5834 -1.6046 -0.3922
   87MOL0     H11721   5.991  10.133   8.823  0.0581 -1.9484 -2.4928
   87MOL0     H11722   5.887   9.995   8.795  1.3976  0.2526 -0.7357
   87MOL0     H11723   6.100   9.984   8.971  1.1041  3.2891 -0.9994
   87MOL0     H11724   5.991  10.045   9.080 -2.3727  0.0998  0.2280
   87MOL0     H11725   5.056   9.868   9.231 -0.0904 -0.6917  0.2410
   87MOL0     H11726   4.988   9.639   9.271 -1.4043 -0.5396 -2.2991
   87MOL0     H11727   5.206   9.186   9.431 -1.0437 -0.4186 -0.3972
   87MOL0     H11728   5.212   8.942   9.413  1.4292  2.0280  0.0106
   87MOL0     H11729   4.227   9.579   8.717 -0.9125 -1.6320  0.1266
   87MOL0     H11730   4.008   9.486   8.818  2.4546 -0.6249 -2.1268
   87MOL0     H11731   3.622   9.654   9.057  0.3652  0.0761 -2.8693
   87MOL0     H11732   3.403   9.593   9.112  0.0735  0.0290 -1.3960
   87MOL0     H11733   3.195   9.470   9.074  1.3009  1.5572  1.3900
   87MOL0     H11734   3.247   9.521   9.238  0.9640  0.0816 -1.2135
   87MOL0     H11735   3.012   9.467   9.232  0.1930 -1.1464  1.8430
   87MOL0     H11736   3.107   9.334   9.313  4.1924 -2.3290 -0.7458
   87MOL0     H11737   3.090   9.194   9.139 -0.6931 -1.5033 -1.9438
   87MOL0     H11738   3.004   9.307   9.030 -3.7336 -1.7756  0.0144
   87MOL0     H11739   2.858   9.129   9.181  5.2273 -0.8979 -1.9645
   87MOL0     H11740   2.902   9.239   9.312 -2.0214 -0.1799  0.2836
   87MOL0     H11741   2.602   9.455   9.170  0.3911 -0.7986 -0.6848
   87MOL0     H11742   3.507   9.192   9.159 -0.7064  0.2292  1.1884
   87MOL0     H11743   3.729   9.119   9.085  0.9632 -0.6448 -0.2197
   87MOL0     H11744   3.859   9.233   9.061  1.2576 -1.7755  2.5924
   87MOL0     H11745   3.811   9.196   9.221 -4.2228 -1.0110  1.5302
   88MOL0     O11746   5.563   0.590   9.393 -0.0702 -0.2097  0.9105
   88MOL0     C11747   5.525   0.587   9.271  0.5631 -0.5956 -0.2980
   88MOL0     O11748   5.612   0.600   9.166  0.3343  0.0487  0.5559
   88MOL0     C11749   5.738   0.650   9.189  0.0055  0.1086 -0.1121
   88MOL0     C11750   5.839   0.565   9.230 -1.0588 -0.0084 -0.2595
   88MOL0     C11751   5.967   0.621   9.240  0.0884  0.1800 -0.3529
   88MOL0     C11752   5.985   0.756   9.221 -0.7954 -0.7554 -0.5019
   88MOL0     O11753   6.116   0.806   9.248  0.2717  0.5203 -0.0273
   88MOL0     C11754   6.168   0.881   9.137  1.1075 -0.0714  0.0458
   88MOL0     C11755   6.314   0.921   9.168 -0.1612  0.0316 -0.0284
   88MOL0     C11756   6.415   0.808   9.139  0.4502  0.1296 -0.2454
   88MOL0     C11757   6.563   0.861   9.128  1.1093  0.6261 -0.1159
   88MOL0     C11758   6.672   0.751   9.100  1.2615 -0.0077  0.3364
   88MOL0     C11759   6.805   0.816   9.067 -0.4585  0.2249  0.4760
   88MOL0     C11760   6.883   0.887   9.181  0.2406  0.0872  0.0186
   88MOL0     C11761   6.935   0.784   9.281  0.2518  0.6217 -0.1211
   88MOL0     N11762   7.001   0.853   9.391 -0.8339 -0.6176 -0.0553
   88MOL0     C11763   7.135   0.888   9.380  0.2388 -0.5698 -0.3886
   88MOL0     C11764   7.159   0.942   9.503 -0.0534 -0.5765 -0.6418
   88MOL0     C11765   7.290   0.993   9.556  0.6031 -0.8423 -0.0685
   88MOL0     C11766   7.269   1.127   9.643 -0.2233 -0.2897 -0.0557
   88MOL0     C11767   7.360   1.135   9.765 -0.3865 -0.0451 -0.1156
   88MOL0     C11768   7.504   1.167   9.726 -0.2162  0.0925 -1.0537
   88MOL0     O11769   7.505   1.270   9.623 -0.0793  0.6790 -0.6186
   88MOL0     C11770   7.613   1.265   9.539  0.1748  0.1573 -0.4619
   88MOL0     C11771   7.595   1.296   9.404 -0.3761  0.9230 -0.2908
   88MOL0     C11772   7.710   1.310   9.322 -0.9470  0.3915  0.3236
   88MOL0     C11773   7.844   1.266   9.360 -0.6132  0.1072  0.2106
   88MOL0     C11774   7.960   1.299   9.276 -0.1485  0.3532 -0.8987
   88MOL0     O11775   7.944   1.365   9.164  0.3694 -0.0249  0.0199
   88MOL0     C11776   8.041   1.394   9.071 -0.0565 -0.0062  0.3841
   88MOL0     C11777   8.153   1.313   9.062  0.3781  0.1358  0.7369
   88MOL0     C11778   8.241   1.325   8.956 -0.3131  0.0899 -0.5955
   88MOL0     C11779   8.221   1.419   8.856  0.3058  0.7071 -0.1266
   88MOL0     O11780   8.317   1.419   8.758  0.6338 -0.8538  0.2775
   88MOL0     C11781   8.346   1.547   8.704 -0.1992 -0.9888 -0.7135
   88MOL0     C11782   8.466   1.536   8.611 -0.1536 -0.7803  0.1235
   88MOL0     C11783   8.517   1.687   8.582  0.3425 -0.2906  0.3458
   88MOL0     C11784   8.650   1.667   8.518 -1.0550  0.4850  0.6105
   88MOL0     C11785   8.708   1.799   8.457  0.3277 -0.2091 -0.2196
   88MOL0     C11786   8.633   1.852   8.330 -0.0345  0.1720  0.6215
   88MOL0     C11787   8.716   1.963   8.264 -0.3842 -0.0484 -0.9117
   88MOL0     C11788   8.664   2.005   8.126  0.4175  0.2204 -0.0069
   88MOL0    Cl11789   8.500   2.074   8.134  0.1653  0.1684 -0.2068
   88MOL0     C11790   8.107   1.500   8.862 -0.3778 -0.1554  0.1924
   88MOL0     C11791   8.022   1.494   8.982 -0.3521  0.5201 -0.6667
   88MOL0     O11792   8.068   1.268   9.323 -0.7612 -0.2963 -0.6771
   88MOL0     C11793   7.850   1.221   9.495 -0.2415 -0.1698  0.0228
   88MOL0     C11794   7.743   1.235   9.585  0.8735  0.4578  0.8157
   88MOL0     N11795   7.043   0.940   9.585  0.4348  0.7496  0.7473
   88MOL0     N11796   6.946   0.884   9.513 -0.2425  0.4930 -0.2496
   88MOL0     C11797   5.883   0.843   9.186  0.1669 -0.4650  0.1971
   88MOL0     C11798   5.760   0.783   9.163 -0.6865 -0.4244 -0.1367
   88MOL0     C11799   5.370   0.598   9.245 -0.0732  0.5830  0.9186
   88MOL0     C11800   5.296   0.631   9.356  0.2462 -0.6549  0.3563
   88MOL0     C11801   5.156   0.663   9.348 -0.3054  0.3274  0.0370
   88MOL0     C11802   5.095   0.653   9.225  0.1161 -0.7477  0.2069
   88MOL0     O11803   4.961   0.692   9.227  0.9183 -0.2045  0.3990
   88MOL0     C11804   4.870   0.608   9.161 -0.3684 -0.0176 -0.0118
   88MOL0     C11805   4.729   0.635   9.214  0.0000 -0.2932 -0.0219
   88MOL0     C11806   4.683   0.773   9.147  0.4390 -1.4407  0.1675
   88MOL0     C11807   4.539   0.807   9.170 -0.0500  1.1440  0.2704
   88MOL0     C11808   4.502   0.797   9.316  0.1818 -0.1594 -0.2174
   88MOL0     C11809   4.470   0.790   9.430  0.4382 -0.5168 -0.3667
   88MOL0     C11810   5.169   0.634   9.107 -0.5698 -0.5359  0.0797
   88MOL0     C11811   5.308   0.609   9.112 -0.7768  0.0345  0.5276
   88MOL0     C11812   5.387   0.605   8.982 -0.0885 -0.2378  0.2171
   88MOL0     H11813   5.824   0.461   9.255  2.5871 -1.2327 -2.3810
   88MOL0     H11814   6.053   0.560   9.265  1.4545  1.4258 -1.7725
   88MOL0     H11815   6.160   0.822   9.045 -3.4713 -0.7643  0.6517
   88MOL0     H11816   6.104   0.968   9.118 -0.0566 -1.7175 -5.6290
   88MOL0     H11817   6.324   0.949   9.273  2.8819  0.4993 -0.3484
   88MOL0     H11818   6.346   1.006   9.106  1.0462 -1.1053 -1.0109
   88MOL0     H11819   6.387   0.745   9.054 -3.7083  0.5886  0.6061
   88MOL0     H11820   6.426   0.733   9.219  1.6522  0.8801  0.3203
   88MOL0     H11821   6.571   0.946   9.059  1.4306  0.6042 -0.1071
   88MOL0     H11822   6.584   0.914   9.221  2.2609 -3.0361  1.9016
   88MOL0     H11823   6.683   0.671   9.174  0.1790 -1.9407 -1.4759
   88MOL0     H11824   6.639   0.697   9.011  0.4718  0.5338  0.2880
   88MOL0     H11825   6.873   0.741   9.026  0.4477  1.5732 -0.5736
   88MOL0     H11826   6.792   0.893   8.990 -1.0079 -1.1247 -0.8320
   88MOL0     H11827   6.819   0.964   9.224  2.6454  1.9411  0.5092
   88MOL0     H11828   6.980   0.919   9.141  0.1484 -0.0376 -0.3039
   88MOL0     H11829   6.852   0.724   9.320  0.3780  1.2002  1.0751
   88MOL0     H11830   7.001   0.716   9.227 -1.1271  0.5790 -1.8670
   88MOL0     H11831   7.207   0.879   9.299 -0.6907 -0.4595 -1.2458
   88MOL0     H11832   7.333   0.915   9.620  2.5914 -2.1269 -2.7574
   88MOL0     H11833   7.363   1.009   9.476 -0.5216 -1.7805 -1.3422
   88MOL0     H11834   7.275   1.219   9.584 -0.0508  0.4863  1.1469
   88MOL0     H11835   7.169   1.121   9.687 -1.1253  0.5457 -1.9001
   88MOL0     H11836   7.354   1.046   9.827 -1.9957 -0.8283 -1.3133
   88MOL0     H11837   7.314   1.214   9.825 -1.9703 -0.3849 -0.8367
   88MOL0     H11838   7.540   1.073   9.682 -1.6538 -0.4439 -1.1403
   88MOL0     H11839   7.569   1.196   9.809 -1.0301  0.3272 -0.4813
   88MOL0     H11840   7.498   1.324   9.363  0.3301  1.4345 -1.6909
   88MOL0     H11841   7.701   1.351   9.222  2.2989 -0.8173 -0.6256
   88MOL0     H11842   8.173   1.234   9.134  0.6439 -1.1832 -0.7411
   88MOL0     H11843   8.329   1.262   8.959  0.8548  1.6037  3.0256
   88MOL0     H11844   8.263   1.573   8.638 -1.1141 -1.5109  0.1930
   88MOL0     H11845   8.368   1.624   8.778  2.5679 -2.5271  0.2061
   88MOL0     H11846   8.553   1.477   8.642 -0.3787 -1.6966 -0.9087
   88MOL0     H11847   8.422   1.496   8.519 -1.6619  2.5673 -0.7512
   88MOL0     H11848   8.451   1.740   8.513 -1.8179 -2.9354  0.2091
   88MOL0     H11849   8.524   1.733   8.681  3.0829 -0.1533  0.1509
   88MOL0     H11850   8.642   1.599   8.433 -1.3047  1.8688 -0.5235
   88MOL0     H11851   8.716   1.622   8.593  1.6168  0.4245 -1.6210
   88MOL0     H11852   8.812   1.788   8.426  1.2686 -0.1307  2.5863
   88MOL0     H11853   8.714   1.871   8.540  2.6419 -0.2064 -0.3170
   88MOL0     H11854   8.614   1.764   8.267  0.6998  1.8677 -2.1508
   88MOL0     H11855   8.534   1.888   8.358  2.1480  3.9281  4.8024
   88MOL0     H11856   8.811   1.919   8.231  0.6364 -0.6331  2.4704
   88MOL0     H11857   8.729   2.045   8.334  2.5455  0.1920 -1.6101
   88MOL0     H11858   8.733   2.079   8.085  1.1473 -1.4501 -2.0391
   88MOL0     H11859   8.653   1.918   8.060 -4.8839  1.0109 -0.6223
   88MOL0     H11860   8.093   1.568   8.778  0.4870 -0.8612 -0.5438
   88MOL0     H11861   7.932   1.555   8.983  0.9503  2.5367 -1.0103
   88MOL0     H11862   7.950   1.193   9.525  0.9191  0.8785 -2.5120
   88MOL0     H11863   7.769   1.215   9.688 -1.7836  2.2654  1.9382
   88MOL0     H11864   5.890   0.951   9.190  2.8629 -0.2777 -3.7553
   88MOL0     H11865   5.681   0.853   9.136  0.9402  1.4510 -0.3018
   88MOL0     H11866   5.329   0.624   9.459  0.3568 -1.5298  0.2721
   88MOL0     H11867   5.107   0.664   9.445  0.8696 -3.1199  0.8204
   88MOL0     H11868   4.897   0.507   9.192 -0.0345  0.0505 -0.0823
   88MOL0     H11869   4.873   0.619   9.052 -3.1816  0.3747 -0.1388
   88MOL0     H11870   4.728   0.644   9.323  0.8329 -0.2915 -0.0124
   88MOL0     H11871   4.652   0.560   9.193  1.4259 -2.5596  2.3315
   88MOL0     H11872   4.702   0.776   9.040 -0.9276  3.1813 -0.1790
   88MOL0     H11873   4.739   0.854   9.195 -1.9594  0.4127  0.0144
   88MOL0     H11874   4.514   0.905   9.127  0.0536  1.7189  1.4702
   88MOL0     H11875   4.485   0.727   9.119  1.5018 -0.3083  0.7996
   88MOL0     H11876   4.437   0.784   9.532  0.3428  1.5636 -0.2196
   88MOL0     H11877   5.134   0.630   9.004 -0.2677  1.0124 -0.1162
   88MOL0     H11878   5.465   0.529   8.982  0.1644 -0.0256  2.1325
   88MOL0     H11879   5.316   0.595   8.899  3.2699 -0.3199 -2.8638
   88MOL0     H11880   5.438   0.701   8.976  1.0116 -0.7484  1.0461
   89MOL0     O11881   1.890   3.601   1.657 -0.5062 -0.1947  0.5844
   89MOL0     C11882   1.911   3.542   1.548  0.0082  0.9743  0.4130
   89MOL0     O11883   2.029   3.529   1.479 -0.2795 -0.5527 -0.1363
   89MOL0     C11884   2.146   3.582   1.533  0.6693 -0.1938 -0.5187
   89MOL0     C11885   2.265   3.504   1.516  0.3272  0.6677 -0.4132
   89MOL0     C11886   2.391   3.549   1.549  0.1959  0.2399  0.9721
   89MOL0     C11887   2.406   3.667   1.624 -0.1084 -0.1045 -0.2649
   89MOL0     O11888   2.535   3.698   1.670 -0.2180 -0.1621 -0.3055
   89MOL0     C11889   2.543   3.815   1.746  0.4337 -0.0938  0.7922
   89MOL0     C11890   2.682   3.845   1.776 -0.2761 -0.2449 -0.4068
   89MOL0     C11891   2.766   3.867   1.656 -0.3006 -0.2998  0.2449
   89MOL0     C11892   2.908   3.926   1.679 -0.1552  0.0786  0.4903
   89MOL0     C11893   2.982   3.935   1.545  0.6648  0.9213  0.4520
   89MOL0     C11894   3.126   3.992   1.562  0.1069 -0.3963  0.4882
   89MOL0     C11895   3.189   4.026   1.427  0.7703  0.1936 -0.9418
   89MOL0     C11896   3.303   4.127   1.445  0.7788 -0.3607  0.2082
   89MOL0     N11897   3.394   4.125   1.335 -0.4948  0.4315  0.6020
   89MOL0     C11898   3.531   4.085   1.343  0.2616 -0.2338  0.5421
   89MOL0     C11899   3.581   4.110   1.224 -0.1136 -0.2465  0.2982
   89MOL0     C11900   3.721   4.087   1.187 -0.1825  0.9608 -0.2657
   89MOL0     C11901   3.811   4.209   1.208 -0.4957 -0.0141  0.3136
   89MOL0     C11902   3.870   4.204   1.348 -0.5190  0.0325  0.4723
   89MOL0     C11903   3.990   4.285   1.374 -0.8495 -0.0179  0.4134
   89MOL0     O11904   3.944   4.419   1.358  0.2753  0.4592 -0.1702
   89MOL0     C11905   4.035   4.512   1.301 -0.4677 -0.2171 -0.4886
   89MOL0     C11906   4.066   4.628   1.377  1.3432 -0.4619  0.1110
   89MOL0     C11907   4.141   4.724   1.318  0.5786 -0.4306 -0.3014
   89MOL0     C11908   4.217   4.694   1.205  0.9747  0.4720  0.0823
   89MOL0     C11909   4.318   4.789   1.151  0.0757 -1.1167  0.0004
   89MOL0     O11910   4.413   4.743   1.054 -0.0861 -0.5313 -0.5031
   89MOL0     C11911   4.508   4.839   1.012 -0.6034  0.3543 -0.5360
   89MOL0     C11912   4.491   4.935   0.917 -0.2115 -0.4816  0.7662
   89MOL0     C11913   4.591   5.029   0.887  0.3792 -0.1090 -0.0260
   89MOL0     C11914   4.710   5.019   0.950 -0.1988 -0.0571  0.7747
   89MOL0     O11915   4.812   5.113   0.932  0.3632  0.6550  0.2843
   89MOL0     C11916   4.870   5.103   0.805 -0.2948 -0.2743  0.5067
   89MOL0     C11917   5.000   5.192   0.814  0.7152 -0.2493 -0.2781
   89MOL0     C11918   5.127   5.125   0.884 -0.4460 -0.4451  0.1095
   89MOL0     C11919   5.109   5.130   1.037  0.5164  0.0189  0.4956
   89MOL0     C11920   5.208   5.056   1.134 -0.1287 -0.2412  0.8350
   89MOL0     C11921   5.350   5.113   1.128 -0.6999 -0.6415 -0.0391
   89MOL0     C11922   5.439   5.022   1.215 -0.6166 -0.0209 -0.8929
   89MOL0     C11923   5.590   5.049   1.192  0.2668  0.2144  0.3216
   89MOL0    Cl11924   5.630   4.997   1.031  0.0989 -0.0904  0.2335
   89MOL0     C11925   4.728   4.923   1.045 -0.1751 -0.9460 -0.1114
   89MOL0     C11926   4.625   4.835   1.079  0.7580 -0.0015 -0.3725
   89MOL0     O11927   4.309   4.904   1.195  0.4251 -0.7505  0.2767
   89MOL0     C11928   4.189   4.583   1.129 -0.0628  0.5753  0.9171
   89MOL0     C11929   4.094   4.496   1.177 -0.1137  0.4316 -0.0504
   89MOL0     N11930   3.477   4.162   1.141  0.0012 -0.3043  0.9152
   89MOL0     N11931   3.372   4.172   1.211 -0.7224 -0.2702 -0.0368
   89MOL0     C11932   2.286   3.741   1.656  0.1695 -0.3514 -0.5426
   89MOL0     C11933   2.159   3.703   1.605 -0.3345 -0.1308  0.3139
   89MOL0     C11934   1.780   3.483   1.483  0.0104 -0.5691  0.4092
   89MOL0     C11935   1.659   3.530   1.535  0.5427  0.2509 -0.9584
   89MOL0     C11936   1.530   3.487   1.491 -0.8806  0.2132 -0.3697
   89MOL0     C11937   1.521   3.389   1.387  0.5422 -0.2620  0.0814
   89MOL0     O11938   1.406   3.342   1.332 -0.1548  0.1047 -0.5783
   89MOL0     C11939   1.300   3.334   1.432  0.0130 -0.1311 -0.2967
   89MOL0     C11940   1.200   3.220   1.410 -0.0048 -0.1831  0.4179
   89MOL0     C11941   1.109   3.197   1.542 -0.4595 -1.5486  0.2442
   89MOL0     C11942   1.003   3.313   1.557 -0.8806  0.2667 -0.2114
   89MOL0     C11943   0.910   3.320   1.438 -0.2680 -0.5540 -0.7353
   89MOL0     C11944   0.844   3.342   1.338  0.4589  0.2069  0.9595
   89MOL0     C11945   1.637   3.338   1.331  0.0251 -0.4639  0.0718
   89MOL0     C11946   1.764   3.386   1.378 -0.3406 -0.4037 -0.2230
   89MOL0     C11947   1.881   3.326   1.321  0.0580  0.2871  1.0384
   89MOL0     H11948   2.256   3.407   1.468  4.3696 -0.2275  0.2789
   89MOL0     H11949   2.475   3.486   1.521  0.5363 -0.2000  2.8331
   89MOL0     H11950   2.496   3.903   1.700 -1.2427 -1.3716 -0.0596
   89MOL0     H11951   2.492   3.804   1.843  2.5056  1.4159  2.1544
   89MOL0     H11952   2.737   3.770   1.834  2.6653  1.7841 -0.4026
   89MOL0     H11953   2.685   3.936   1.837 -0.1727  0.8672 -2.0286
   89MOL0     H11954   2.711   3.934   1.588 -0.7526 -1.9373 -1.0753
   89MOL0     H11955   2.781   3.771   1.607 -1.4542  0.0242 -0.8016
   89MOL0     H11956   2.913   4.026   1.722  0.1192  0.0138  0.6067
   89MOL0     H11957   2.962   3.857   1.744  3.5107 -0.1666 -2.4703
   89MOL0     H11958   3.003   3.833   1.512 -1.5655 -0.0097  1.6685
   89MOL0     H11959   2.933   4.005   1.477 -3.1112 -1.2050  0.6811
   89MOL0     H11960   3.128   4.088   1.614 -0.7809  1.4919 -2.7239
   89MOL0     H11961   3.192   3.931   1.626  5.0606  0.5564 -3.1389
   89MOL0     H11962   3.116   4.084   1.369  1.5992 -0.9155 -3.2395
   89MOL0     H11963   3.230   3.935   1.383  1.2324  0.4057 -0.9490
   89MOL0     H11964   3.262   4.227   1.463  0.0228 -0.8176  1.1322
   89MOL0     H11965   3.362   4.099   1.533  0.2051 -3.9329 -0.3774
   89MOL0     H11966   3.586   4.041   1.425  1.0471 -1.1820 -0.4489
   89MOL0     H11967   3.755   3.997   1.240 -1.9472 -0.7558 -1.9409
   89MOL0     H11968   3.723   4.051   1.084 -1.0647 -1.9710  0.6340
   89MOL0     H11969   3.891   4.204   1.134 -0.3512  2.2687  0.2522
   89MOL0     H11970   3.749   4.298   1.191 -0.8262 -0.3166 -0.1140
   89MOL0     H11971   3.893   4.099   1.369 -0.7153 -0.8920 -3.2862
   89MOL0     H11972   3.795   4.235   1.421 -0.7917 -1.5078  0.8901
   89MOL0     H11973   4.076   4.269   1.309 -1.6144  1.8316 -1.1626
   89MOL0     H11974   4.018   4.266   1.478 -3.2410 -0.0152  1.1145
   89MOL0     H11975   4.019   4.641   1.474  0.6231  2.6884 -0.5432
   89MOL0     H11976   4.146   4.810   1.384  0.4940 -1.1963  0.7303
   89MOL0     H11977   4.397   4.943   0.863 -0.3070  2.7012  1.2328
   89MOL0     H11978   4.570   5.101   0.809 -1.1238  1.2226  1.5159
   89MOL0     H11979   4.882   5.003   0.765 -1.8532  0.4428 -1.9764
   89MOL0     H11980   4.796   5.157   0.745 -0.2124  1.9374  2.2568
   89MOL0     H11981   5.026   5.214   0.710 -0.3820  3.2228  0.0453
   89MOL0     H11982   4.973   5.291   0.852  0.1961 -0.1500 -0.8986
   89MOL0     H11983   5.145   5.025   0.845  0.8618  0.0529 -0.6375
   89MOL0     H11984   5.221   5.179   0.867 -0.6192  1.0832  3.3672
   89MOL0     H11985   5.018   5.074   1.062 -0.4986  1.0651 -0.7392
   89MOL0     H11986   5.097   5.233   1.073 -0.2532 -0.0530  0.4664
   89MOL0     H11987   5.214   4.949   1.112  0.5424 -0.3385  1.4626
   89MOL0     H11988   5.171   5.061   1.237  0.3824 -0.1838  1.0180
   89MOL0     H11989   5.390   5.127   1.027  0.1342  5.1067  0.7739
   89MOL0     H11990   5.349   5.210   1.177  0.4174 -0.5801 -0.1236
   89MOL0     H11991   5.422   4.917   1.189 -1.4252 -0.5592  1.5872
   89MOL0     H11992   5.421   5.046   1.320  0.3005 -4.1686  0.3772
   89MOL0     H11993   5.612   5.155   1.200  0.9494  0.0463  0.7898
   89MOL0     H11994   5.646   4.986   1.262  0.5846 -0.1681 -0.2660
   89MOL0     H11995   4.820   4.927   1.103  0.8623  1.9347 -1.7303
   89MOL0     H11996   4.654   4.762   1.154 -1.8724 -1.4759 -0.6847
   89MOL0     H11997   4.238   4.550   1.038 -3.5638 -0.8654 -0.6371
   89MOL0     H11998   4.061   4.411   1.116 -1.4580  1.9482 -1.5416
   89MOL0     H11999   2.288   3.831   1.715 -1.8342 -1.3089  1.1323
   89MOL0     H12000   2.080   3.777   1.616  1.7787  3.0298 -3.2057
   89MOL0     H12001   1.654   3.604   1.614 -6.2644  1.5507 -1.9358
   89MOL0     H12002   1.447   3.527   1.547  0.3296  0.9098  1.0064
   89MOL0     H12003   1.252   3.430   1.450  1.0265  0.3738 -0.2117
   89MOL0     H12004   1.342   3.314   1.531  0.6646  0.2121 -0.4955
   89MOL0     H12005   1.254   3.132   1.375  2.0280  1.4650 -0.8448
   89MOL0     H12006   1.136   3.240   1.323 -1.0864 -0.5173  1.1168
   89MOL0     H12007   1.171   3.196   1.632  0.3608  0.5076 -0.2343
   89MOL0     H12008   1.071   3.097   1.518  2.2072 -2.3087 -1.2490
   89MOL0     H12009   0.946   3.280   1.644 -1.4369  0.7941 -0.3586
   89MOL0     H12010   1.044   3.409   1.588 -3.2096  1.2231  0.1618
   89MOL0     H12011   0.783   3.353   1.250  2.1909  1.9518 -0.1225
   89MOL0     H12012   1.625   3.260   1.257  1.1044 -0.1139 -0.4994
   89MOL0     H12013   1.937   3.276   1.401  1.1879  0.1228  0.1730
   89MOL0     H12014   1.864   3.254   1.241  3.3461  0.4055  0.0983
   89MOL0     H12015   1.955   3.398   1.285  1.7956 -0.2012  3.3038
   90MOL0     O12016   4.345   6.597   7.246  0.3639  0.2601 -0.0133
   90MOL0     C12017   4.272   6.502   7.234 -0.2265  0.1781 -0.2761
   90MOL0     O12018   4.139   6.500   7.265  0.1448  0.6805  0.1105
   90MOL0     C12019   4.053   6.603   7.275 -0.4435 -0.0985  0.7616
   90MOL0     C12020   4.085   6.732   7.243 -0.2440 -1.1476  0.6268
   90MOL0     C12021   4.001   6.838   7.286  0.5094 -0.5894  0.1596
   90MOL0     C12022   3.870   6.816   7.318  0.0921  0.2490 -0.3304
   90MOL0     O12023   3.765   6.900   7.329 -0.3245  0.5296  0.4303
   90MOL0     C12024   3.790   7.042   7.325  0.4721  0.0816 -0.1244
   90MOL0     C12025   3.842   7.093   7.456  1.1273 -0.0583 -0.3632
   90MOL0     C12026   3.945   7.200   7.436  0.2938 -0.2840  0.6525
   90MOL0     C12027   3.962   7.288   7.561  0.2766 -0.1025 -0.0942
   90MOL0     C12028   4.042   7.414   7.525  0.1390  0.8468 -0.5998
   90MOL0     C12029   4.193   7.381   7.518  0.4731 -0.6835 -0.5073
   90MOL0     C12030   4.274   7.513   7.533  0.4458  0.4580  0.5541
   90MOL0     C12031   4.416   7.510   7.487 -0.2903  0.3685 -1.0706
   90MOL0     N12032   4.468   7.644   7.437 -0.1140 -0.0305 -0.0768
   90MOL0     C12033   4.513   7.691   7.316 -0.0887 -1.1989 -0.3863
   90MOL0     C12034   4.553   7.818   7.348 -0.3576 -0.2217 -0.8513
   90MOL0     C12035   4.618   7.919   7.251  0.6574  0.2250 -0.6441
   90MOL0     C12036   4.771   7.903   7.239  0.2380  0.0871  0.1240
   90MOL0     C12037   4.846   7.912   7.373  0.1397 -0.1894  0.2292
   90MOL0     C12038   4.996   7.911   7.365 -0.3231  0.1506  0.2742
   90MOL0     O12039   5.036   7.780   7.403 -0.1210  0.1596  0.1646
   90MOL0     C12040   5.170   7.756   7.419  0.5120  0.2721 -0.3420
   90MOL0     C12041   5.277   7.846   7.378  0.2649  0.3961 -0.7303
   90MOL0     C12042   5.406   7.797   7.391  0.0253 -0.3558 -0.4006
   90MOL0     C12043   5.438   7.672   7.450  0.2587  0.7078  0.3916
   90MOL0     C12044   5.572   7.631   7.479 -0.3622 -0.1790  0.7679
   90MOL0     O12045   5.672   7.723   7.451 -0.2802  1.0654 -0.0637
   90MOL0     C12046   5.802   7.695   7.453  0.3543  0.0088  1.5025
   90MOL0     C12047   5.871   7.573   7.435 -0.0923  0.3137 -0.5406
   90MOL0     C12048   6.006   7.554   7.465  0.3548  0.6680  0.6700
   90MOL0     C12049   6.088   7.667   7.488  0.6998  0.8350 -0.4794
   90MOL0     O12050   6.222   7.660   7.519  0.1191  0.5123 -0.0374
   90MOL0     C12051   6.249   7.583   7.638  0.2585 -0.3034  0.3318
   90MOL0     C12052   6.403   7.559   7.653 -0.9708  0.8917  0.5416
   90MOL0     C12053   6.482   7.691   7.661  0.6796 -0.8135  1.0862
   90MOL0     C12054   6.628   7.671   7.695 -1.1315 -0.0095 -0.4409
   90MOL0     C12055   6.691   7.804   7.692 -0.0527 -0.7810 -0.1234
   90MOL0     C12056   6.843   7.783   7.727  0.1347 -0.1220  0.0189
   90MOL0     C12057   6.908   7.921   7.754 -0.5195  0.0055 -0.1488
   90MOL0     C12058   7.057   7.925   7.709 -0.6093 -0.2022  0.6382
   90MOL0    Cl12059   7.166   7.805   7.795 -0.1426 -0.1745  0.0803
   90MOL0     C12060   6.026   7.789   7.482  0.1822  0.6576 -0.3410
   90MOL0     C12061   5.888   7.804   7.459 -0.0005  0.1142  0.2475
   90MOL0     O12062   5.587   7.527   7.533 -0.5839  0.2791 -0.0087
   90MOL0     C12063   5.325   7.594   7.490 -0.9928 -0.5911 -0.0533
   90MOL0     C12064   5.198   7.640   7.483 -0.5398  0.3821 -0.2200
   90MOL0     N12065   4.541   7.835   7.483 -0.0827 -0.3460 -0.1530
   90MOL0     N12066   4.490   7.730   7.538  0.2840  0.0511  0.2040
   90MOL0     C12067   3.831   6.690   7.344  0.5567 -0.0615  0.1160
   90MOL0     C12068   3.926   6.582   7.326  0.7077 -0.6923  0.1003
   90MOL0     C12069   4.333   6.376   7.186  0.3982 -0.0577 -0.6726
   90MOL0     C12070   4.460   6.384   7.127  0.6131 -0.0753  0.3145
   90MOL0     C12071   4.536   6.270   7.076 -0.2262 -1.1429  0.2444
   90MOL0     C12072   4.476   6.149   7.093 -0.2869 -1.0204  0.3205
   90MOL0     O12073   4.519   6.026   7.042 -0.6382 -0.2192  0.1372
   90MOL0     C12074   4.643   6.010   6.971  0.1614  0.3294 -0.2464
   90MOL0     C12075   4.707   5.871   6.998  0.1094  0.4412 -0.0034
   90MOL0     C12076   4.838   5.854   6.925 -0.8037  0.8792 -0.1454
   90MOL0     C12077   4.903   5.715   6.958  0.6336 -0.2242 -0.0660
   90MOL0     C12078   5.022   5.684   6.871  0.5727  0.2560  0.5078
   90MOL0     C12079   5.116   5.667   6.796  0.1449  0.5808 -0.8291
   90MOL0     C12080   4.361   6.136   7.164  0.0225 -0.0412  0.0721
   90MOL0     C12081   4.289   6.243   7.212  0.0687 -0.7300 -1.4770
   90MOL0     C12082   4.173   6.209   7.301 -1.0927 -0.0993  0.0646
   90MOL0     H12083   4.179   6.764   7.197 -1.7742 -0.7258 -2.4473
   90MOL0     H12084   4.032   6.941   7.270 -2.2218  0.2022 -0.6201
   90MOL0     H12085   3.856   7.061   7.240  1.0007 -2.7489 -0.4651
   90MOL0     H12086   3.696   7.091   7.300 -0.2133 -1.0188  0.1987
   90MOL0     H12087   3.889   7.013   7.514  1.7663 -1.3901 -2.5989
   90MOL0     H12088   3.757   7.130   7.514  2.0508  1.7175 -0.0799
   90MOL0     H12089   3.916   7.264   7.352 -3.0662  2.0607  3.2901
   90MOL0     H12090   4.033   7.145   7.402 -0.4425  0.3434 -2.6420
   90MOL0     H12091   3.863   7.316   7.599 -0.5906 -2.4281 -0.5056
   90MOL0     H12092   4.010   7.240   7.647 -0.3301 -0.9821 -0.2314
   90MOL0     H12093   4.005   7.468   7.437 -3.7286  3.2613  2.1620
   90MOL0     H12094   4.026   7.482   7.610  0.4549  0.4755 -0.2439
   90MOL0     H12095   4.233   7.307   7.589  0.0747 -2.4685 -2.0543
   90MOL0     H12096   4.202   7.332   7.420 -2.8540 -0.1823 -1.1773
   90MOL0     H12097   4.273   7.533   7.640  0.2209 -1.4914  0.9590
   90MOL0     H12098   4.218   7.591   7.480  0.5228  0.2121  0.1025
   90MOL0     H12099   4.484   7.470   7.563 -0.0329  1.6037 -0.6268
   90MOL0     H12100   4.424   7.441   7.402  1.0512 -0.4864 -0.2721
   90MOL0     H12101   4.540   7.634   7.227  3.1701 -0.5459  0.0596
   90MOL0     H12102   4.562   7.916   7.157 -0.8386 -1.0976  0.2420
   90MOL0     H12103   4.596   8.020   7.287  3.9472  1.7113 -2.3584
   90MOL0     H12104   4.791   7.803   7.201 -0.7012  0.1775 -0.6519
   90MOL0     H12105   4.806   7.976   7.165  0.6242  0.2284  0.4446
   90MOL0     H12106   4.818   7.834   7.445 -1.0576  0.2819  0.3112
   90MOL0     H12107   4.811   8.002   7.425 -0.4750 -0.9027  1.0824
   90MOL0     H12108   5.046   7.982   7.431 -0.4283  0.4325  0.0526
   90MOL0     H12109   5.020   7.926   7.259  0.1575  0.1429  0.3780
   90MOL0     H12110   5.259   7.941   7.331 -0.6869  1.6172  1.9078
   90MOL0     H12111   5.485   7.868   7.368 -1.5661  1.0723 -1.7607
   90MOL0     H12112   5.803   7.489   7.423  1.7081 -1.1747 -0.7583
   90MOL0     H12113   6.054   7.457   7.461  0.4222  0.6296  2.0748
   90MOL0     H12114   6.227   7.648   7.724  2.5228  2.0614 -0.7377
   90MOL0     H12115   6.185   7.495   7.649 -1.5886  1.0891  1.3290
   90MOL0     H12116   6.428   7.506   7.746  1.1057  0.7710 -0.0197
   90MOL0     H12117   6.441   7.492   7.575  1.1468  1.6390  0.8671
   90MOL0     H12118   6.470   7.750   7.569 -3.2524 -1.3688  1.0566
   90MOL0     H12119   6.433   7.759   7.731 -0.3549  1.1623 -1.3854
   90MOL0     H12120   6.678   7.601   7.627  0.2719  0.1217  0.4165
   90MOL0     H12121   6.645   7.617   7.789  1.0074 -4.2507 -2.9407
   90MOL0     H12122   6.648   7.865   7.772 -1.8591  0.8461 -2.2063
   90MOL0     H12123   6.687   7.860   7.598  2.4912  1.7467  1.1083
   90MOL0     H12124   6.851   7.717   7.814 -0.1459 -2.1431 -1.4335
   90MOL0     H12125   6.893   7.742   7.640 -0.8970 -0.0434 -0.6289
   90MOL0     H12126   6.910   7.939   7.862  1.2005  2.8904 -0.5751
   90MOL0     H12127   6.841   7.997   7.713  0.7560 -0.0103 -2.4089
   90MOL0     H12128   7.062   7.916   7.600  1.4376  0.2502  0.6418
   90MOL0     H12129   7.090   8.029   7.722  1.3907 -0.4575 -1.5783
   90MOL0     H12130   6.094   7.873   7.490 -2.4743  2.9170  0.1165
   90MOL0     H12131   5.849   7.903   7.438  0.0564  0.1957  0.5251
   90MOL0     H12132   5.355   7.516   7.560  1.3215  0.7222  0.5446
   90MOL0     H12133   5.115   7.579   7.517 -0.8943  1.8148  1.6768
   90MOL0     H12134   3.728   6.664   7.366  0.7449 -2.6121 -1.6280
   90MOL0     H12135   3.914   6.476   7.348  1.2750 -0.1776  3.4791
   90MOL0     H12136   4.507   6.482   7.122  1.4806 -0.4455  0.9863
   90MOL0     H12137   4.624   6.297   7.019  0.0996 -1.1804  0.7229
   90MOL0     H12138   4.721   6.082   6.997  2.5919 -1.9555 -0.8197
   90MOL0     H12139   4.619   6.027   6.865  1.4629  0.2202 -0.5727
   90MOL0     H12140   4.639   5.794   6.959  1.6363 -1.6586  1.3141
   90MOL0     H12141   4.717   5.854   7.105 -2.1289 -0.2575  0.1601
   90MOL0     H12142   4.910   5.932   6.952  1.1347 -0.5377 -0.9807
   90MOL0     H12143   4.817   5.843   6.818 -2.8422 -1.2437  0.3896
   90MOL0     H12144   4.932   5.712   7.063 -1.6367 -0.4166  0.5877
   90MOL0     H12145   4.826   5.638   6.952  0.7643 -0.3164 -0.7151
   90MOL0     H12146   5.201   5.644   6.734  1.3692  0.6755  0.7451
   90MOL0     H12147   4.309   6.041   7.164 -0.4580  0.2109 -0.5003
   90MOL0     H12148   4.082   6.256   7.264  0.2792  2.5135 -0.2070
   90MOL0     H12149   4.153   6.101   7.302 -2.9006  0.1964  1.9508
   90MOL0     H12150   4.195   6.248   7.400 -0.5159 -0.2016 -0.0191
   91MOL0     O12151   9.018   1.526   0.319  0.3425  0.0283  0.1729
   91MOL0     C12152   8.923   1.453   0.360 -0.0495  0.5724 -0.0161
   91MOL0     O12153   8.938   1.332   0.420 -0.2292  0.4107  0.3386
   91MOL0     C12154   9.068   1.284   0.439 -0.0104 -0.3204  0.2501
   91MOL0     C12155   9.098   1.249   0.575 -0.5447 -0.5518  0.5850
   91MOL0     C12156   9.222   1.193   0.612 -0.2524  0.1706 -0.7505
   91MOL0     C12157   9.319   1.186   0.508 -0.2044 -0.2021  1.3686
   91MOL0     O12158   9.444   1.135   0.542 -0.1582  0.0917 -0.4369
   91MOL0     C12159   9.541   1.137   0.434 -0.8911 -0.2699 -0.1826
   91MOL0     C12160   9.644   1.039   0.485  1.4513  0.1691 -0.1534
   91MOL0     C12161   9.754   1.028   0.375  0.6153  0.3419  0.5797
   91MOL0     C12162   9.852   0.925   0.407 -0.8322  0.2350  0.5834
   91MOL0     C12163   9.963   0.903   0.299 -1.1204 -0.1449  0.2373
   91MOL0     C12164  10.090   0.843   0.343  0.4201  0.3901 -0.1619
   91MOL0     C12165  10.203   0.870   0.241  0.1173  0.2256  0.3664
   91MOL0     C12166  10.185   0.768   0.118 -0.1942 -0.2614  0.1861
   91MOL0     N12167  10.253   0.818  -0.004 -0.0869 -0.3886  0.0793
   91MOL0     C12168  10.391   0.850  -0.014 -0.0524 -0.8070 -0.0156
   91MOL0     C12169  10.412   0.843  -0.148 -0.8973  0.4624 -0.1351
   91MOL0     C12170  10.557   0.852  -0.198 -0.2867 -0.2909  0.0858
   91MOL0     C12171  10.628   0.724  -0.216  1.1801 -0.0445  0.2700
   91MOL0     C12172  10.772   0.720  -0.269 -0.0229 -0.7348 -0.3451
   91MOL0     C12173  10.795   0.575  -0.321 -0.4633  0.6528 -0.2844
   91MOL0     O12174  10.889   0.565  -0.421 -0.2294  0.6745 -0.3062
   91MOL0     C12175  11.013   0.564  -0.376 -1.2794 -0.2947  0.4405
   91MOL0     C12176  11.058   0.566  -0.246 -0.3435  0.1363 -1.1788
   91MOL0     C12177  11.201   0.572  -0.218 -0.3336  0.7488 -0.7345
   91MOL0     C12178  11.293   0.577  -0.326 -0.4739  0.2139  0.2882
   91MOL0     C12179  11.443   0.570  -0.306  1.0131  0.1753 -0.1464
   91MOL0     O12180  11.531   0.608  -0.408  0.1547  0.5976 -0.0096
   91MOL0     C12181  11.664   0.574  -0.395 -0.0970 -0.0203  0.1900
   91MOL0     C12182  11.749   0.648  -0.484  0.6636 -0.7130 -0.4456
   91MOL0     C12183  11.885   0.634  -0.486 -0.3833  0.9096  0.2809
   91MOL0     C12184  11.944   0.556  -0.383  0.3482 -0.1340  0.4533
   91MOL0     O12185  12.082   0.556  -0.383 -0.1540  0.1759 -0.5245
   91MOL0     C12186  12.141   0.523  -0.257  0.1854  0.1256 -0.0600
   91MOL0     C12187  12.290   0.572  -0.272  0.7573  0.3345 -0.2965
   91MOL0     C12188  12.384   0.516  -0.158 -0.1122 -0.6021  0.4219
   91MOL0     C12189  12.449   0.390  -0.200  0.2814  0.1084  0.1827
   91MOL0     C12190  12.521   0.320  -0.091  0.2890  0.4192  0.1164
   91MOL0     C12191  12.649   0.399  -0.060  0.1781 -0.2785 -0.4103
   91MOL0     C12192  12.735   0.331   0.045  0.9500  0.1691 -0.4367
   91MOL0     C12193  12.836   0.241  -0.024  0.3472  0.3723  0.6282
   91MOL0    Cl12194  12.919   0.148   0.102  0.2568  0.4667 -0.0787
   91MOL0     C12195  11.860   0.491  -0.289  0.6680  0.5175 -0.0203
   91MOL0     C12196  11.725   0.499  -0.303 -0.9316 -0.2709  0.2239
   91MOL0     O12197  11.474   0.532  -0.191 -0.5665 -0.1433 -0.3548
   91MOL0     C12198  11.245   0.569  -0.461 -0.3980  0.0984 -0.6139
   91MOL0     C12199  11.104   0.561  -0.483 -0.0925 -0.3412 -0.1660
   91MOL0     N12200  10.294   0.829  -0.211  0.6266 -0.3581  0.7326
   91MOL0     N12201  10.195   0.818  -0.126  0.9760  0.1723 -0.0268
   91MOL0     C12202   9.290   1.230   0.374 -0.7602 -0.0923 -0.6057
   91MOL0     C12203   9.166   1.276   0.338  0.3155  0.5669  0.1520
   91MOL0     C12204   8.788   1.490   0.317  0.7828 -0.7250  0.1549
   91MOL0     C12205   8.693   1.387   0.295  0.3993 -0.7817 -0.9150
   91MOL0     C12206   8.563   1.408   0.260 -0.1277  0.1120  0.4196
   91MOL0     C12207   8.516   1.530   0.223 -0.9822 -1.1375  0.3366
   91MOL0     O12208   8.394   1.539   0.165 -0.3142 -0.2075  0.0018
   91MOL0     C12209   8.359   1.669   0.103  0.1827 -0.1233  0.4641
   91MOL0     C12210   8.223   1.653   0.035 -0.1428  0.6492 -0.8140
   91MOL0     C12211   8.117   1.626   0.149  0.4180 -0.0648 -0.4702
   91MOL0     C12212   7.970   1.613   0.095 -0.1398 -0.6283  0.4139
   91MOL0     C12213   7.918   1.752   0.063  0.0260  0.8143 -0.5866
   91MOL0     C12214   7.885   1.867   0.044 -0.2793 -0.1125 -0.0264
   91MOL0     C12215   8.610   1.645   0.238 -0.6744  0.1522  1.2087
   91MOL0     C12216   8.744   1.620   0.281 -0.4874 -0.7317  0.4924
   91MOL0     C12217   8.827   1.743   0.290 -0.0172  0.6281 -0.7793
   91MOL0     H12218   9.033   1.259   0.661 -1.0169 -2.2988  0.4824
   91MOL0     H12219   9.245   1.167   0.715 -0.9850  1.8910 -0.1159
   91MOL0     H12220   9.511   1.099   0.336  2.7986  0.3899 -1.7249
   91MOL0     H12221   9.581   1.236   0.412 -0.1835 -0.6745 -0.7416
   91MOL0     H12222   9.589   0.943   0.484  1.5317  0.1015 -1.7680
   91MOL0     H12223   9.682   1.061   0.585  0.2523  0.2475  0.3068
   91MOL0     H12224   9.801   1.124   0.353 -0.0716  0.2780 -1.3112
   91MOL0     H12225   9.712   0.992   0.281  2.2841 -0.0401 -0.0613
   91MOL0     H12226   9.890   0.951   0.507  1.9825 -2.0536  0.2283
   91MOL0     H12227   9.798   0.830   0.419  1.7927 -2.0312 -3.4475
   91MOL0     H12228   9.919   0.845   0.217 -0.8705 -1.0728  0.7490
   91MOL0     H12229   9.982   1.003   0.257 -0.7430  0.2443  1.3063
   91MOL0     H12230  10.113   0.885   0.441  1.2550  2.3581 -1.1594
   91MOL0     H12231  10.075   0.736   0.362 -2.4339  0.9060  1.0936
   91MOL0     H12232  10.298   0.856   0.292  1.7388  0.5885 -2.3527
   91MOL0     H12233  10.190   0.975   0.214 -2.2722  0.7095  2.9543
   91MOL0     H12234  10.235   0.675   0.146  1.6102 -0.2040 -2.4775
   91MOL0     H12235  10.084   0.748   0.083  0.1130 -0.7466 -0.4491
   91MOL0     H12236  10.475   0.849   0.055  1.7842 -2.7487 -2.1305
   91MOL0     H12237  10.565   0.899  -0.296  2.9991 -4.5036 -2.0013
   91MOL0     H12238  10.612   0.913  -0.127 -0.2375 -0.1547 -0.0699
   91MOL0     H12239  10.614   0.672  -0.120 -3.1310 -0.9564 -0.6436
   91MOL0     H12240  10.570   0.665  -0.288  4.6644 -1.4007 -1.6689
   91MOL0     H12241  10.842   0.743  -0.188 -2.2587  2.8980  0.8245
   91MOL0     H12242  10.795   0.786  -0.353  0.4188 -1.7037 -1.0064
   91MOL0     H12243  10.702   0.541  -0.369 -0.3482 -2.2414  1.2882
   91MOL0     H12244  10.824   0.510  -0.238  0.8828  0.5161 -0.8341
   91MOL0     H12245  11.000   0.560  -0.155  3.9444 -2.2787  1.7215
   91MOL0     H12246  11.230   0.563  -0.114 -3.3608  0.8713  0.2115
   91MOL0     H12247  11.701   0.718  -0.552 -1.2150  0.5907  2.0517
   91MOL0     H12248  11.945   0.683  -0.562 -0.8405  0.4519 -0.3838
   91MOL0     H12249  12.089   0.583  -0.181  0.3649 -0.1402  0.2783
   91MOL0     H12250  12.132   0.417  -0.232 -3.3255  0.6029  1.2392
   91MOL0     H12251  12.323   0.551  -0.374 -1.0079 -0.1133 -0.8102
   91MOL0     H12252  12.290   0.681  -0.264 -0.2837  0.3217 -0.0709
   91MOL0     H12253  12.457   0.593  -0.131  0.3398 -0.5157 -0.9872
   91MOL0     H12254  12.333   0.498  -0.063  0.3823  3.3154  1.5953
   91MOL0     H12255  12.519   0.412  -0.281  0.9838 -1.0860  0.4434
   91MOL0     H12256  12.368   0.323  -0.231 -1.8428  1.8836  1.5277
   91MOL0     H12257  12.552   0.219  -0.118  1.9540  1.0729 -0.5792
   91MOL0     H12258  12.461   0.323  -0.000 -0.1663 -0.2008 -0.1596
   91MOL0     H12259  12.706   0.405  -0.153  0.4725  3.4456 -0.1049
   91MOL0     H12260  12.622   0.501  -0.033  1.3847  0.6876 -2.6424
   91MOL0     H12261  12.673   0.268   0.109 -1.0668  0.8866 -1.6005
   91MOL0     H12262  12.784   0.407   0.106  2.0237 -0.3911 -0.5715
   91MOL0     H12263  12.790   0.175  -0.098 -0.3791  0.6639  0.8109
   91MOL0     H12264  12.914   0.301  -0.073  2.9513 -0.7738  3.0954
   91MOL0     H12265  11.898   0.418  -0.219  0.8285  1.4195  0.8610
   91MOL0     H12266  11.681   0.430  -0.232  0.8486 -1.3056  0.3780
   91MOL0     H12267  11.318   0.578  -0.542  3.0123 -1.1405  2.0734
   91MOL0     H12268  11.063   0.561  -0.583  0.2350  1.1634 -0.3240
   91MOL0     H12269   9.361   1.230   0.293 -1.9749 -2.1464 -1.7415
   91MOL0     H12270   9.149   1.316   0.238  1.2088  0.3969 -0.0745
   91MOL0     H12271   8.724   1.285   0.317  2.8081 -0.5109 -2.6512
   91MOL0     H12272   8.499   1.322   0.244  1.8077 -1.7002  1.7126
   91MOL0     H12273   8.434   1.695   0.028  1.2342 -1.8730  0.8255
   91MOL0     H12274   8.348   1.744   0.182  1.1178 -1.8473  2.3365
   91MOL0     H12275   8.241   1.566  -0.029 -2.2873  0.0030 -0.6286
   91MOL0     H12276   8.199   1.744  -0.021 -0.6635  0.2685 -1.2218
   91MOL0     H12277   8.125   1.713   0.214 -0.0718  0.3054 -0.8923
   91MOL0     H12278   8.137   1.529   0.196  1.1569  0.8818  1.2290
   91MOL0     H12279   7.965   1.542   0.011 -1.0290  0.5155 -0.5352
   91MOL0     H12280   7.908   1.562   0.169 -0.7442 -0.2911  0.1486
   91MOL0     H12281   7.862   1.970   0.025  0.3189 -0.0554 -0.4674
   91MOL0     H12282   8.591   1.744   0.199 -0.4167 -0.8280 -1.6081
   91MOL0     H12283   8.768   1.835   0.292  1.0505  1.3449 -0.8781
   91MOL0     H12284   8.890   1.752   0.380  3.1420  0.8861 -2.8505
   91MOL0     H12285   8.901   1.743   0.210 -1.2040  1.9307 -1.9253
   92MOL0     O12286   7.390   3.428   5.027  0.3232 -0.0336  0.2514
   92MOL0     C12287   7.381   3.542   4.977  0.7764  0.1698 -0.5684
   92MOL0     O12288   7.489   3.625   4.955 -0.5153  0.4289  0.2814
   92MOL0     C12289   7.608   3.577   4.993 -0.0400  0.6544 -0.4355
   92MOL0     C12290   7.679   3.635   5.103 -0.0641 -0.6262  0.9846
   92MOL0     C12291   7.810   3.596   5.140  0.9578  0.0644 -0.6016
   92MOL0     C12292   7.869   3.486   5.073  0.6743 -0.3525  0.0781
   92MOL0     O12293   7.987   3.453   5.125  0.4006  0.2316 -0.5698
   92MOL0     C12294   8.048   3.336   5.074 -0.8601 -0.6520 -0.3284
   92MOL0     C12295   8.168   3.299   5.163 -0.4594 -0.6914 -0.0095
   92MOL0     C12296   8.265   3.192   5.104 -0.0378  0.8938  0.0696
   92MOL0     C12297   8.376   3.175   5.204 -1.0714 -0.1828  0.3854
   92MOL0     C12298   8.505   3.127   5.140 -0.0567  0.0598 -0.3891
   92MOL0     C12299   8.494   2.985   5.093  0.2323 -0.3157 -0.1714
   92MOL0     C12300   8.638   2.928   5.081 -0.3771  0.4118  0.2426
   92MOL0     C12301   8.632   2.795   5.010 -0.5642  0.5811  0.3556
   92MOL0     N12302   8.760   2.715   5.020  0.4910 -0.0409  0.5369
   92MOL0     C12303   8.874   2.755   4.969 -0.5531  0.5039  0.2584
   92MOL0     C12304   8.952   2.645   4.989  0.0282 -0.2517 -0.1687
   92MOL0     C12305   9.095   2.631   4.960 -0.5222  0.2192  0.7770
   92MOL0     C12306   9.167   2.749   4.997 -0.6766  0.5808 -0.0488
   92MOL0     C12307   9.162   2.793   5.142 -0.0158 -0.5981 -0.3980
   92MOL0     C12308   9.290   2.878   5.167  0.3908 -0.5831 -0.2609
   92MOL0     O12309   9.397   2.779   5.156  0.1056 -0.2222  0.1631
   92MOL0     C12310   9.530   2.813   5.169  0.3413  0.7681  0.4780
   92MOL0     C12311   9.622   2.714   5.154 -0.1514  0.1601 -0.1560
   92MOL0     C12312   9.757   2.740   5.189  0.8313 -0.0817  0.2317
   92MOL0     C12313   9.796   2.855   5.255  0.4400 -0.7088 -0.7617
   92MOL0     C12314   9.936   2.874   5.311  0.4890  0.5199  0.1635
   92MOL0     O12315  10.024   2.761   5.299 -0.1208 -0.0291  0.1537
   92MOL0     C12316  10.154   2.783   5.325 -1.2874  0.3057  0.3808
   92MOL0     C12317  10.213   2.776   5.450  0.4528  0.7100  0.2766
   92MOL0     C12318  10.352   2.795   5.468 -0.3478  0.1657  0.1127
   92MOL0     C12319  10.433   2.817   5.350 -0.1531  0.3919 -0.7633
   92MOL0     O12320  10.566   2.825   5.379 -0.2335 -0.1375 -0.0511
   92MOL0     C12321  10.657   2.794   5.277 -0.0411  0.1538  0.2552
   92MOL0     C12322  10.789   2.804   5.339  0.1353  0.3462 -0.3442
   92MOL0     C12323  10.845   2.951   5.340  0.4797  0.1933  0.3342
   92MOL0     C12324  10.981   2.958   5.410 -0.3459  0.4464 -0.6523
   92MOL0     C12325  11.064   3.080   5.370  0.0411 -0.6602 -0.0314
   92MOL0     C12326  11.197   3.093   5.452 -0.5132  0.6134  0.0566
   92MOL0     C12327  11.268   3.227   5.438 -0.6971 -0.1377  0.6814
   92MOL0     C12328  11.413   3.228   5.416 -0.1166  0.6223 -0.4943
   92MOL0    Cl12329  11.494   3.142   5.561 -0.1975  0.1036  0.2027
   92MOL0     C12330  10.374   2.815   5.226 -1.0030 -0.2492 -0.0198
   92MOL0     C12331  10.234   2.808   5.210 -0.0693 -0.7911 -0.8568
   92MOL0     O12332   9.967   2.982   5.358 -0.6799 -0.2061 -0.1619
   92MOL0     C12333   9.707   2.962   5.264  0.5121 -0.0859  0.5168
   92MOL0     C12334   9.573   2.935   5.227 -0.7722 -0.8418  1.4136
   92MOL0     N12335   8.884   2.538   5.050  0.0987 -0.1973  0.1280
   92MOL0     N12336   8.763   2.588   5.071 -0.2485 -0.0107 -0.5613
   92MOL0     C12337   7.803   3.427   4.963  0.3912 -0.0014 -0.6738
   92MOL0     C12338   7.681   3.476   4.920  0.1891  0.8417 -0.0939
   92MOL0     C12339   7.238   3.586   4.949  0.0172 -0.1797 -0.2791
   92MOL0     C12340   7.139   3.495   4.965 -0.2302  0.0066  0.5513
   92MOL0     C12341   7.004   3.532   4.944  0.4532  0.2413  0.2640
   92MOL0     C12342   6.961   3.662   4.911 -0.5746  0.3499  0.3655
   92MOL0     O12343   6.838   3.699   4.882 -0.5860 -0.4063  0.1616
   92MOL0     C12344   6.731   3.601   4.894  0.4395  0.0200 -0.1973
   92MOL0     C12345   6.600   3.675   4.849 -0.2840 -0.6017 -0.4539
   92MOL0     C12346   6.623   3.726   4.709  0.2200 -0.1879  0.7311
   92MOL0     C12347   6.505   3.751   4.626  0.0726  0.3080  0.7003
   92MOL0     C12348   6.397   3.802   4.714  0.5443  0.2566  0.2003
   92MOL0     C12349   6.302   3.850   4.765 -0.4492 -0.5786 -0.8748
   92MOL0     C12350   7.063   3.749   4.900 -0.0015 -0.1245 -0.4105
   92MOL0     C12351   7.202   3.717   4.914 -0.6836  0.0114 -0.2474
   92MOL0     C12352   7.304   3.822   4.893  0.1187 -0.0798  0.4396
   92MOL0     H12353   7.627   3.709   5.164 -0.2044 -2.2170  2.8962
   92MOL0     H12354   7.864   3.643   5.221 -0.2877 -1.5000  1.2406
   92MOL0     H12355   7.984   3.248   5.072  0.8592 -2.0178  1.0841
   92MOL0     H12356   8.070   3.359   4.970 -0.4536 -0.3908 -0.1867
   92MOL0     H12357   8.134   3.266   5.262 -0.3311 -3.2379 -0.7324
   92MOL0     H12358   8.235   3.385   5.172  0.4725 -1.3249 -0.7026
   92MOL0     H12359   8.309   3.236   5.014 -0.2655  7.0402  2.4391
   92MOL0     H12360   8.212   3.097   5.095 -0.3383  1.0668 -0.0340
   92MOL0     H12361   8.406   3.268   5.253  0.3344 -1.5877  2.3547
   92MOL0     H12362   8.339   3.106   5.280  1.5631 -3.3891 -0.9718
   92MOL0     H12363   8.543   3.186   5.056 -3.1778 -1.7115 -3.3213
   92MOL0     H12364   8.576   3.133   5.223 -1.0221 -0.0719  0.4630
   92MOL0     H12365   8.457   2.930   5.181  0.3138 -0.0251  0.0463
   92MOL0     H12366   8.433   2.968   5.004  0.8734  0.1594 -0.7094
   92MOL0     H12367   8.669   2.923   5.186 -0.6385  3.0028  0.5137
   92MOL0     H12368   8.697   2.998   5.021  1.1149 -1.6345 -0.8100
   92MOL0     H12369   8.557   2.724   5.045 -0.0755  0.5271  1.3436
   92MOL0     H12370   8.623   2.822   4.904  2.2542 -0.2283 -0.1666
   92MOL0     H12371   8.903   2.835   4.901  2.2208 -0.3816  0.2940
   92MOL0     H12372   9.126   2.552   5.029  0.6621  2.1303  2.5653
   92MOL0     H12373   9.105   2.596   4.856  0.4076 -1.7621  1.4785
   92MOL0     H12374   9.267   2.723   4.959 -1.9129 -2.2672 -1.6541
   92MOL0     H12375   9.128   2.834   4.939 -2.2694 -0.6889 -0.8993
   92MOL0     H12376   9.174   2.709   5.211 -0.8829 -2.1802 -2.0852
   92MOL0     H12377   9.074   2.855   5.164  1.5170  1.6689 -0.3879
   92MOL0     H12378   9.290   2.916   5.270  0.5880  1.6565 -1.0563
   92MOL0     H12379   9.293   2.970   5.108  0.8289 -0.1919  0.3525
   92MOL0     H12380   9.591   2.613   5.128  3.2215 -1.3193  0.9542
   92MOL0     H12381   9.830   2.665   5.161  2.6431  2.2195 -1.7546
   92MOL0     H12382  10.144   2.759   5.533  1.8288  0.8766  1.4900
   92MOL0     H12383  10.372   2.782   5.574 -0.7678 -2.2765 -0.0625
   92MOL0     H12384  10.648   2.695   5.231 -0.0120  0.4548 -0.3928
   92MOL0     H12385  10.654   2.865   5.194 -1.0267 -0.3066 -0.1231
   92MOL0     H12386  10.793   2.762   5.440  0.7120  0.8678 -0.1448
   92MOL0     H12387  10.861   2.750   5.277  0.8405  0.8437  0.0162
   92MOL0     H12388  10.860   2.976   5.235  0.7603 -0.5732  0.1847
   92MOL0     H12389  10.772   3.017   5.388 -0.4928 -1.6372  1.4988
   92MOL0     H12390  11.036   2.868   5.382  0.5778  0.9467 -0.4973
   92MOL0     H12391  10.955   2.961   5.516  0.0898  1.0640 -0.5604
   92MOL0     H12392  11.003   3.170   5.387  1.0438  0.2193 -0.9437
   92MOL0     H12393  11.093   3.063   5.266  2.5325 -0.5968  0.5890
   92MOL0     H12394  11.188   3.058   5.555  0.0558 -2.2082 -0.7612
   92MOL0     H12395  11.272   3.026   5.409  0.7133  1.8501  0.1911
   92MOL0     H12396  11.234   3.286   5.523 -1.3486 -0.8233  0.9061
   92MOL0     H12397  11.231   3.274   5.347 -2.5317 -2.5203  0.1100
   92MOL0     H12398  11.437   3.168   5.328  1.3638  0.7807 -0.2223
   92MOL0     H12399  11.450   3.329   5.396 -1.8625  1.8246  1.7528
   92MOL0     H12400  10.438   2.821   5.139 -3.3633  0.1650 -1.8417
   92MOL0     H12401  10.186   2.812   5.113 -2.7134  0.9265  0.3899
   92MOL0     H12402   9.739   3.061   5.294 -0.2491 -0.4275  2.5906
   92MOL0     H12403   9.509   3.022   5.218  2.6716  1.6966 -1.3024
   92MOL0     H12404   7.860   3.354   4.907 -0.1257  0.6236 -2.0750
   92MOL0     H12405   7.633   3.436   4.831 -0.7481  0.8028  0.4098
   92MOL0     H12406   7.167   3.398   5.007  0.8356  0.8134  1.7808
   92MOL0     H12407   6.936   3.451   4.969  1.4936 -0.4053  1.1064
   92MOL0     H12408   6.723   3.568   4.998 -1.0937 -0.0898 -0.3264
   92MOL0     H12409   6.750   3.512   4.834  0.6834 -0.5193  0.6645
   92MOL0     H12410   6.565   3.754   4.915 -0.5664 -0.7492 -0.4211
   92MOL0     H12411   6.520   3.599   4.856 -0.9983  0.2824  2.8096
   92MOL0     H12412   6.680   3.652   4.652 -0.4277 -0.1095 -0.0197
   92MOL0     H12413   6.678   3.821   4.707 -0.3952  0.1990  1.6240
   92MOL0     H12414   6.526   3.804   4.532 -3.0073 -1.5671 -1.2235
   92MOL0     H12415   6.473   3.652   4.592 -1.6667  0.3206  2.1614
   92MOL0     H12416   6.222   3.890   4.825 -0.3031 -0.7509 -0.5579
   92MOL0     H12417   7.041   3.854   4.888  2.1503  0.4340  0.0503
   92MOL0     H12418   7.259   3.913   4.852 -2.4628 -1.0388  0.9305
   92MOL0     H12419   7.347   3.851   4.989  0.8750  1.6433 -0.3732
   92MOL0     H12420   7.378   3.801   4.815 -1.2287  2.0792 -1.5835
   93MOL0     O12421   1.889   5.589   5.213 -0.1033 -0.1354  0.2708
   93MOL0     C12422   1.950   5.683   5.269  0.2908 -1.7052 -0.6150
   93MOL0     O12423   2.076   5.735   5.243 -0.6444 -0.3280 -0.0207
   93MOL0     C12424   2.182   5.662   5.183  0.4498 -0.5806 -0.0591
   93MOL0     C12425   2.173   5.553   5.100  0.4205 -0.5038 -0.6660
   93MOL0     C12426   2.295   5.494   5.053 -0.4696 -0.1185 -0.2674
   93MOL0     C12427   2.422   5.536   5.095  0.4894 -0.5560  0.0097
   93MOL0     O12428   2.536   5.490   5.038 -0.0455  0.2516 -0.4395
   93MOL0     C12429   2.542   5.370   4.957  0.8818 -0.5798  0.7967
   93MOL0     C12430   2.681   5.325   4.968  0.6310  0.5995  0.1369
   93MOL0     C12431   2.751   5.306   5.115 -0.1784  0.5934  0.1792
   93MOL0     C12432   2.903   5.268   5.099 -0.0631  0.1794  0.4098
   93MOL0     C12433   2.977   5.274   5.234  0.4241 -0.1874  0.2225
   93MOL0     C12434   3.131   5.272   5.233  0.5822  0.0210 -0.0730
   93MOL0     C12435   3.190   5.130   5.197 -0.2742 -0.3215 -0.0748
   93MOL0     C12436   3.342   5.154   5.205  0.6787  0.2738  0.4201
   93MOL0     N12437   3.413   5.052   5.123  0.5162  0.0235 -0.1641
   93MOL0     C12438   3.463   4.937   5.180 -0.3139  0.1371  0.2058
   93MOL0     C12439   3.532   4.875   5.080 -0.2248 -0.4686  0.4242
   93MOL0     C12440   3.616   4.757   5.097  0.7104  0.2796 -0.1368
   93MOL0     C12441   3.766   4.780   5.048 -0.5850  0.6236 -0.0293
   93MOL0     C12442   3.850   4.658   5.079  0.1594 -0.5622  0.5168
   93MOL0     C12443   3.897   4.639   5.225  0.4435  0.2060 -0.3101
   93MOL0     O12444   3.945   4.756   5.297 -0.1992 -0.3082  1.5052
   93MOL0     C12445   4.067   4.749   5.366 -0.4075  0.1945 -0.7735
   93MOL0     C12446   4.169   4.645   5.367  0.1249 -0.4676 -0.4644
   93MOL0     C12447   4.288   4.655   5.438 -0.1761 -0.0123  1.2255
   93MOL0     C12448   4.320   4.769   5.517 -0.1001  0.3895 -0.0671
   93MOL0     C12449   4.449   4.774   5.599  0.1575  0.1784  0.5795
   93MOL0     O12450   4.540   4.681   5.571  0.2177  0.3897 -0.2468
   93MOL0     C12451   4.668   4.690   5.626  0.4676  0.6778  1.0871
   93MOL0     C12452   4.748   4.584   5.593 -0.2493  0.0163 -1.0445
   93MOL0     C12453   4.881   4.573   5.627 -0.8603  0.1161  0.1968
   93MOL0     C12454   4.942   4.666   5.711 -0.2829  0.0934  0.7907
   93MOL0     O12455   5.080   4.668   5.723  0.2834 -0.3812  0.4959
   93MOL0     C12456   5.146   4.741   5.826 -0.9439 -0.1421  0.9979
   93MOL0     C12457   5.288   4.684   5.832 -0.2109  0.3839 -0.0175
   93MOL0     C12458   5.359   4.706   5.702 -0.2303 -0.5205 -0.0007
   93MOL0     C12459   5.504   4.669   5.711 -1.5624 -0.7901  0.0086
   93MOL0     C12460   5.543   4.595   5.578  0.9125  0.2983  0.3320
   93MOL0     C12461   5.695   4.591   5.546  0.5436  0.4137  0.5264
   93MOL0     C12462   5.726   4.510   5.417  0.1003 -0.3941 -0.4252
   93MOL0     C12463   5.875   4.527   5.387  0.6208  0.0603 -0.6281
   93MOL0    Cl12464   5.975   4.498   5.524 -0.4145  0.0601  0.5682
   93MOL0     C12465   4.866   4.779   5.750 -0.2327  0.3986  0.1852
   93MOL0     C12466   4.729   4.779   5.711  0.2293 -0.6346  0.2018
   93MOL0     O12467   4.452   4.855   5.688 -0.3362  0.0545 -0.0605
   93MOL0     C12468   4.225   4.872   5.508 -0.6560  0.0125  0.0691
   93MOL0     C12469   4.095   4.861   5.448 -0.3377 -0.5908  0.1599
   93MOL0     N12470   3.542   4.968   4.982 -0.7352  0.0775  0.5640
   93MOL0     N12471   3.473   5.068   5.007 -0.0213 -0.1153  0.0036
   93MOL0     C12472   2.419   5.641   5.186 -0.1773 -0.5228 -0.3183
   93MOL0     C12473   2.305   5.708   5.223  0.7385 -0.2765  0.0620
   93MOL0     C12474   1.876   5.745   5.385 -0.2653  0.6517  0.3540
   93MOL0     C12475   1.734   5.761   5.365 -0.5431  1.3351 -0.2134
   93MOL0     C12476   1.656   5.822   5.468  0.8490 -0.1272 -0.7925
   93MOL0     C12477   1.713   5.866   5.591  0.6221 -0.7293 -0.3064
   93MOL0     O12478   1.642   5.927   5.689 -0.0140  0.1457 -0.0034
   93MOL0     C12479   1.511   5.896   5.696  0.9313 -0.4164 -0.2763
   93MOL0     C12480   1.457   5.911   5.835  0.1786  0.2264  0.4519
   93MOL0     C12481   1.306   5.895   5.847  0.5505 -0.4061  0.5814
   93MOL0     C12482   1.233   5.776   5.796 -0.2231 -0.1724 -0.6622
   93MOL0     C12483   1.092   5.793   5.771  0.7114 -1.3907  0.1708
   93MOL0     C12484   0.970   5.797   5.750 -0.2943  0.5391  0.1447
   93MOL0     C12485   1.847   5.839   5.606 -0.4292 -0.5058 -0.5282
   93MOL0     C12486   1.934   5.789   5.508  0.2550 -0.5739 -0.0607
   93MOL0     C12487   2.079   5.775   5.546  0.5286 -0.1684 -0.1360
   93MOL0     H12488   2.074   5.522   5.068 -0.2252  0.7565  0.0650
   93MOL0     H12489   2.286   5.425   4.970 -2.3388  1.7241 -1.6887
   93MOL0     H12490   2.475   5.289   4.988  1.6668 -1.5181  0.0890
   93MOL0     H12491   2.519   5.397   4.854  1.9424  2.3847  1.2402
   93MOL0     H12492   2.741   5.385   4.899 -1.6324  1.7474 -0.9405
   93MOL0     H12493   2.681   5.229   4.916  2.3920  0.6507 -0.0455
   93MOL0     H12494   2.697   5.228   5.170 -0.0137  1.3415  1.4261
   93MOL0     H12495   2.749   5.404   5.163 -0.6867  3.2864 -4.6830
   93MOL0     H12496   2.910   5.172   5.047 -0.5354  1.9519 -3.2036
   93MOL0     H12497   2.961   5.329   5.030 -0.6064  0.5032  0.2275
   93MOL0     H12498   2.941   5.367   5.279 -2.3700  0.8849 -3.7035
   93MOL0     H12499   2.938   5.188   5.289  0.9045  0.9668  2.4897
   93MOL0     H12500   3.161   5.354   5.167 -0.0892  0.0700 -0.3201
   93MOL0     H12501   3.167   5.291   5.334 -1.1977  0.2362  0.5384
   93MOL0     H12502   3.151   5.110   5.096  1.3980 -0.1973 -0.7869
   93MOL0     H12503   3.147   5.057   5.265 -3.0161  1.5926  0.4045
   93MOL0     H12504   3.363   5.253   5.166  2.2487 -0.4097 -0.5754
   93MOL0     H12505   3.372   5.151   5.311  1.5389  4.5943  0.4550
   93MOL0     H12506   3.467   4.905   5.284  1.4233 -0.7829 -0.1085
   93MOL0     H12507   3.616   4.718   5.199  2.1236 -1.0144 -0.5937
   93MOL0     H12508   3.564   4.681   5.037 -2.0214 -0.3800  2.7808
   93MOL0     H12509   3.779   4.803   4.942  1.5939 -0.8105 -0.1315
   93MOL0     H12510   3.813   4.863   5.101  0.5206  1.0121 -1.5200
   93MOL0     H12511   3.945   4.670   5.026 -1.4523 -0.9520 -2.7034
   93MOL0     H12512   3.799   4.573   5.035  0.3303  0.1522 -1.1215
   93MOL0     H12513   3.961   4.550   5.232 -1.0126 -0.8090  0.7723
   93MOL0     H12514   3.809   4.613   5.284  1.9120 -1.7677  1.1483
   93MOL0     H12515   4.155   4.551   5.316  1.4991 -2.4894  2.6228
   93MOL0     H12516   4.358   4.573   5.428 -2.2584 -1.8847  1.3814
   93MOL0     H12517   4.706   4.504   5.532 -2.6315 -0.8140  1.5160
   93MOL0     H12518   4.937   4.491   5.582 -2.5525 -0.4608 -0.9533
   93MOL0     H12519   5.143   4.850   5.818  1.3750 -0.0665  0.4568
   93MOL0     H12520   5.110   4.717   5.927  1.0100 -1.1298  1.5100
   93MOL0     H12521   5.340   4.744   5.907 -0.6422 -0.0037  0.6028
   93MOL0     H12522   5.298   4.580   5.864  0.6125 -0.1523 -1.8257
   93MOL0     H12523   5.318   4.652   5.616 -0.2724  2.7202 -2.2064
   93MOL0     H12524   5.354   4.811   5.672  1.8637  0.4904  2.8029
   93MOL0     H12525   5.522   4.602   5.796 -1.6161  0.9730  1.4636
   93MOL0     H12526   5.566   4.757   5.731 -2.1594 -0.4373  0.3203
   93MOL0     H12527   5.494   4.648   5.496  1.9520  2.5034  1.0521
   93MOL0     H12528   5.507   4.492   5.583  4.8150 -1.6482 -3.9951
   93MOL0     H12529   5.734   4.693   5.545 -0.4026  0.7958  1.2840
   93MOL0     H12530   5.743   4.537   5.628 -0.4213 -0.4576  0.5311
   93MOL0     H12531   5.670   4.547   5.330  0.3544 -0.3961 -0.5915
   93MOL0     H12532   5.715   4.402   5.431  0.9440 -0.8696 -2.9752
   93MOL0     H12533   5.902   4.454   5.310  0.1870 -1.6446  0.7715
   93MOL0     H12534   5.878   4.627   5.342  1.7698  0.2759 -0.0917
   93MOL0     H12535   4.908   4.869   5.795 -2.0772  1.7058 -0.5573
   93MOL0     H12536   4.671   4.864   5.745 -1.8479 -0.0542 -4.1118
   93MOL0     H12537   4.237   4.958   5.575 -3.7139 -1.3562  2.6535
   93MOL0     H12538   4.015   4.929   5.477  0.2942 -0.8861  2.8323
   93MOL0     H12539   2.515   5.687   5.206  0.4494 -1.2713 -1.4927
   93MOL0     H12540   2.321   5.790   5.292  1.1638 -1.4294  1.3795
   93MOL0     H12541   1.689   5.725   5.273  1.1689  1.6356 -1.2158
   93MOL0     H12542   1.551   5.841   5.446  0.3320 -1.2230  0.6375
   93MOL0     H12543   1.488   5.799   5.650 -4.6778  0.7223 -0.5569
   93MOL0     H12544   1.456   5.972   5.639  0.1625  0.3402  1.4127
   93MOL0     H12545   1.487   6.007   5.877 -0.3855  0.6775 -0.1530
   93MOL0     H12546   1.497   5.824   5.888  0.1925 -2.1379 -3.0555
   93MOL0     H12547   1.275   5.989   5.800  0.3193 -0.1782  1.1784
   93MOL0     H12548   1.270   5.902   5.950  0.1698 -1.3492  0.5252
   93MOL0     H12549   1.279   5.735   5.706  1.1078  0.5232 -0.3103
   93MOL0     H12550   1.246   5.701   5.875 -1.3722  1.1468  0.8456
   93MOL0     H12551   0.864   5.784   5.749 -0.4192  1.4823  0.8565
   93MOL0     H12552   1.901   5.873   5.693  0.0731 -2.1930 -0.1393
   93MOL0     H12553   2.095   5.768   5.654 -0.9351  1.0408  0.1873
   93MOL0     H12554   2.112   5.683   5.495  1.5318  0.1836 -0.1485
   93MOL0     H12555   2.146   5.851   5.505  0.3135 -0.9938 -2.1577
   94MOL0     O12556  10.063   3.439   2.892 -0.5234 -0.5671 -0.0694
   94MOL0     C12557  10.166   3.416   2.950 -0.2144 -0.1805 -0.0922
   94MOL0     O12558  10.193   3.290   3.010  0.0295  0.5785  0.3199
   94MOL0     C12559  10.116   3.184   2.981  0.5986  0.3822 -0.3929
   94MOL0     C12560  10.159   3.100   2.882  0.8146  0.2650 -0.3270
   94MOL0     C12561  10.093   2.980   2.854  0.0086 -0.2790  0.1882
   94MOL0     C12562   9.960   2.963   2.898  0.0478  0.0363  0.4243
   94MOL0     O12563   9.902   2.864   2.828 -0.1943 -0.6479  0.5150
   94MOL0     C12564   9.767   2.850   2.856  0.0701 -0.3412 -0.1887
   94MOL0     C12565   9.694   2.764   2.750  0.6623  0.1807 -0.1617
   94MOL0     C12566   9.694   2.838   2.619 -0.5439  0.6568 -0.5426
   94MOL0     C12567   9.597   2.785   2.516 -0.1763  0.1371  0.7419
   94MOL0     C12568   9.608   2.870   2.382  0.0030  0.0188 -0.3256
   94MOL0     C12569   9.576   3.019   2.384 -0.0126 -0.6965 -0.2831
   94MOL0     C12570   9.570   3.095   2.248  0.5360  0.0273  0.1653
   94MOL0     C12571   9.434   3.077   2.165  1.0328  0.1096 -0.0967
   94MOL0     N12572   9.428   3.166   2.054  1.1071  0.2258 -0.2006
   94MOL0     C12573   9.360   3.286   2.049  0.7486  0.1603  1.2679
   94MOL0     C12574   9.399   3.342   1.933 -0.5392 -0.5810 -0.2045
   94MOL0     C12575   9.368   3.473   1.868 -0.0994  0.3451 -0.6272
   94MOL0     C12576   9.431   3.591   1.936  0.8871  0.1652  0.5621
   94MOL0     C12577   9.563   3.619   1.872  0.6683 -0.9032  0.1835
   94MOL0     C12578   9.642   3.697   1.980  0.5869 -0.5760  0.1849
   94MOL0     O12579   9.664   3.604   2.092  0.3362 -0.4058 -0.3324
   94MOL0     C12580   9.775   3.526   2.087  0.1935  0.1722  0.3165
   94MOL0     C12581   9.773   3.383   2.085 -0.6868  0.0601  0.1062
   94MOL0     C12582   9.895   3.312   2.093  0.4376  0.1385  0.4857
   94MOL0     C12583  10.019   3.373   2.073  0.6953 -1.5344  0.0734
   94MOL0     C12584  10.148   3.304   2.056 -0.0511 -0.5309 -0.0811
   94MOL0     O12585  10.245   3.337   2.151 -0.1435  0.2801  0.3301
   94MOL0     C12586  10.365   3.274   2.125  0.3563  0.9328 -0.7178
   94MOL0     C12587  10.472   3.343   2.072  0.3981 -0.8886 -0.3221
   94MOL0     C12588  10.596   3.277   2.053 -0.8348 -0.3033  0.8601
   94MOL0     C12589  10.611   3.147   2.092  0.4147  0.2096  0.0888
   94MOL0     O12590  10.734   3.085   2.080 -1.1992 -0.8023 -0.4339
   94MOL0     C12591  10.845   3.154   2.135 -0.0672 -0.3668 -0.3446
   94MOL0     C12592  10.966   3.064   2.137  0.2879 -0.1536 -0.6810
   94MOL0     C12593  10.952   2.948   2.240  0.3131 -0.2756  0.3097
   94MOL0     C12594  11.080   2.872   2.231  0.1504 -0.3128 -0.9156
   94MOL0     C12595  11.048   2.724   2.276  0.4984 -0.4676  0.3578
   94MOL0     C12596  11.170   2.630   2.286  0.1541 -0.7360  0.9660
   94MOL0     C12597  11.121   2.488   2.313 -0.5926  0.7551  0.1679
   94MOL0     C12598  11.232   2.392   2.331  0.1587 -0.0614  1.1088
   94MOL0    Cl12599  11.336   2.439   2.473 -0.1631 -0.0926 -0.1923
   94MOL0     C12600  10.498   3.082   2.130  0.0287 -0.0981 -0.4989
   94MOL0     C12601  10.376   3.138   2.151 -0.5354  0.2455  0.1296
   94MOL0     O12602  10.169   3.231   1.952  0.4414 -0.0489 -0.5625
   94MOL0     C12603  10.011   3.511   2.070  0.5899  0.2093 -0.0650
   94MOL0     C12604   9.901   3.590   2.088 -0.5380  0.1864 -0.3622
   94MOL0     N12605   9.503   3.263   1.878  0.5913 -0.0281 -0.7925
   94MOL0     N12606   9.521   3.162   1.959 -0.9335  0.3459  0.6601
   94MOL0     C12607   9.912   3.050   3.003  0.1456  0.0968 -0.2106
   94MOL0     C12608   9.995   3.154   3.050 -0.4551 -0.0761 -0.1668
   94MOL0     C12609  10.263   3.525   2.982  0.7759 -0.5979 -0.3622
   94MOL0     C12610  10.388   3.492   3.031  1.1597 -0.0023  0.2280
   94MOL0     C12611  10.475   3.584   3.085 -0.7427 -0.0520  0.1274
   94MOL0     C12612  10.444   3.720   3.083 -0.8402 -0.0219  1.0991
   94MOL0     O12613  10.535   3.810   3.135  0.4590 -0.3529 -0.1877
   94MOL0     C12614  10.509   3.953   3.121  0.3286  0.6801 -0.4644
   94MOL0     C12615  10.604   4.038   3.220 -0.4492 -0.0360  0.2029
   94MOL0     C12616  10.753   4.008   3.225  0.4040  0.4953  0.9022
   94MOL0     C12617  10.838   4.107   3.304 -0.3690  0.1031  1.1892
   94MOL0     C12618  10.975   4.055   3.318 -0.5571 -0.9345 -1.0671
   94MOL0     C12619  11.086   4.001   3.338 -0.1457 -0.9833 -0.0143
   94MOL0     C12620  10.325   3.754   3.003 -0.7217 -0.1103 -0.6585
   94MOL0     C12621  10.238   3.663   2.960 -0.4363 -0.0226  0.3568
   94MOL0     C12622  10.116   3.716   2.882 -0.0152  1.0104 -0.2206
   94MOL0     H12623  10.246   3.132   2.825  0.5434 -0.8300 -1.3856
   94MOL0     H12624  10.129   2.911   2.779 -0.2182  0.9914 -1.1371
   94MOL0     H12625   9.738   2.805   2.951 -2.0058 -0.8968 -1.0319
   94MOL0     H12626   9.716   2.946   2.861 -1.3316 -1.0123 -0.9043
   94MOL0     H12627   9.597   2.730   2.788  1.9816 -0.6748  2.7405
   94MOL0     H12628   9.750   2.670   2.744 -1.9518 -1.3954 -2.1634
   94MOL0     H12629   9.800   2.837   2.594 -0.6409 -0.4596 -0.9518
   94MOL0     H12630   9.671   2.942   2.646 -0.1551 -0.0904  3.2752
   94MOL0     H12631   9.621   2.679   2.501 -1.8576 -0.0566 -0.8549
   94MOL0     H12632   9.494   2.786   2.552  0.1384  1.9253  1.7198
   94MOL0     H12633   9.709   2.858   2.342  1.3346  1.8011  2.2597
   94MOL0     H12634   9.541   2.825   2.307  1.0717 -1.1012 -0.6364
   94MOL0     H12635   9.477   3.028   2.428  0.3910 -3.6753  1.4522
   94MOL0     H12636   9.649   3.073   2.445 -0.9082  1.0956 -0.7392
   94MOL0     H12637   9.644   3.053   2.179 -0.4000  2.4513 -2.4756
   94MOL0     H12638   9.586   3.200   2.274  0.7532  0.1466 -0.4337
   94MOL0     H12639   9.444   2.978   2.119 -1.3662 -0.3473  0.2492
   94MOL0     H12640   9.339   3.077   2.218  1.2202 -2.2797  0.3492
   94MOL0     H12641   9.293   3.318   2.128  0.1246 -0.6917  1.0935
   94MOL0     H12642   9.392   3.468   1.761 -3.5235 -2.0973 -1.4502
   94MOL0     H12643   9.261   3.496   1.875  0.5161  3.2057  1.0307
   94MOL0     H12644   9.366   3.677   1.918 -0.0726 -0.6401  0.0513
   94MOL0     H12645   9.435   3.578   2.044  2.8803  1.0075  0.6347
   94MOL0     H12646   9.554   3.689   1.789 -0.2833 -1.2266  0.0099
   94MOL0     H12647   9.622   3.531   1.845  0.4180 -1.2457  0.7431
   94MOL0     H12648   9.580   3.779   2.018 -0.8999 -0.6768 -1.8546
   94MOL0     H12649   9.732   3.741   1.937 -0.8483  2.6434  0.1919
   94MOL0     H12650   9.676   3.334   2.093 -0.0858 -1.1809  0.0809
   94MOL0     H12651   9.892   3.204   2.082 -1.5917  0.1518  0.4852
   94MOL0     H12652  10.456   3.446   2.042 -0.8530 -1.3081 -1.1855
   94MOL0     H12653  10.671   3.332   1.997  0.6922 -2.9582  0.0963
   94MOL0     H12654  10.864   3.247   2.081 -3.0212 -0.4383 -1.7282
   94MOL0     H12655  10.818   3.185   2.237 -1.9952 -0.4764 -0.7762
   94MOL0     H12656  10.997   3.026   2.040  2.4903 -0.8095  0.2042
   94MOL0     H12657  11.052   3.125   2.166 -0.4889  0.3503  0.6219
   94MOL0     H12658  10.930   2.993   2.337 -2.7544  1.0736 -0.8522
   94MOL0     H12659  10.871   2.875   2.228 -1.1414  1.4676 -1.3477
   94MOL0     H12660  11.147   2.921   2.302 -0.7314  1.0418 -0.9967
   94MOL0     H12661  11.136   2.873   2.137  0.9838 -1.5372 -0.4688
   94MOL0     H12662  10.968   2.682   2.215  0.2166 -0.0568  0.4460
   94MOL0     H12663  11.013   2.727   2.379  0.4588 -0.4234  0.3428
   94MOL0     H12664  11.234   2.632   2.198 -0.3611  1.6020  0.5914
   94MOL0     H12665  11.233   2.664   2.368 -1.1046  1.6265  1.0392
   94MOL0     H12666  11.072   2.453   2.221  0.1767  1.8299 -0.6871
   94MOL0     H12667  11.042   2.480   2.388  0.8832 -1.7127  1.5580
   94MOL0     H12668  11.195   2.291   2.351 -0.1488 -0.4649 -1.1546
   94MOL0     H12669  11.299   2.387   2.245 -0.1638 -1.3503  0.9118
   94MOL0     H12670  10.503   2.977   2.159 -0.0220 -0.1179 -0.5612
   94MOL0     H12671  10.289   3.076   2.174 -0.3538  0.5232  1.6492
   94MOL0     H12672  10.101   3.571   2.066  1.4536 -0.8270  2.1382
   94MOL0     H12673   9.905   3.696   2.108 -1.3611 -0.0897  1.4273
   94MOL0     H12674   9.812   3.034   3.041 -0.1464 -1.0758 -1.3999
   94MOL0     H12675   9.964   3.225   3.126 -0.0967  2.6740 -2.4334
   94MOL0     H12676  10.405   3.385   3.040 -0.3888 -0.1683  1.5951
   94MOL0     H12677  10.566   3.553   3.135  0.8476 -0.7655 -2.9770
   94MOL0     H12678  10.404   3.980   3.136  0.8296  1.1091  3.0544
   94MOL0     H12679  10.538   3.977   3.018 -0.5251  2.5024 -0.3110
   94MOL0     H12680  10.562   4.036   3.321 -0.8481 -0.5571  0.0314
   94MOL0     H12681  10.594   4.140   3.180  0.9891 -0.0507 -0.2544
   94MOL0     H12682  10.801   4.018   3.127 -1.7302 -0.3265 -0.2829
   94MOL0     H12683  10.767   3.904   3.257 -0.2668 -0.1222 -0.7099
   94MOL0     H12684  10.840   4.199   3.246 -1.0540  0.5034  1.7731
   94MOL0     H12685  10.780   4.114   3.397 -3.9762  1.1204 -0.9478
   94MOL0     H12686  11.180   3.949   3.343 -2.0805 -4.6872  1.1575
   94MOL0     H12687  10.305   3.857   2.975  3.0965  0.5691 -1.4542
   94MOL0     H12688  10.025   3.666   2.916  1.2622 -1.0431  0.3682
   94MOL0     H12689  10.101   3.822   2.904 -0.4395  0.4920  2.2761
   94MOL0     H12690  10.129   3.709   2.774  1.2097  0.6157 -0.0608
   95MOL0     O12691   1.942   9.352   9.594  0.2590 -0.3569 -0.4447
   95MOL0     C12692   1.868   9.453   9.586  0.0801  0.3992 -1.1463
   95MOL0     O12693   1.915   9.579   9.580  0.5724  0.6196 -0.4058
   95MOL0     C12694   2.049   9.624   9.590 -0.7302  0.6304 -0.4089
   95MOL0     C12695   2.164   9.545   9.557 -0.1011  0.2091 -0.0503
   95MOL0     C12696   2.288   9.609   9.579  0.3845  0.0578  0.7057
   95MOL0     C12697   2.306   9.735   9.630 -0.4675  0.2707 -1.4416
   95MOL0     O12698   2.434   9.795   9.651  0.6802 -0.6125 -0.5495
   95MOL0     C12699   2.451   9.917   9.729 -0.5011 -0.3141  0.5093
   95MOL0     C12700   2.603   9.947   9.725  0.2474 -0.2285  0.1853
   95MOL0     C12701   2.633  10.068   9.811 -0.5429  0.3387 -0.6498
   95MOL0     C12702   2.599  10.042   9.961  0.1720 -1.0263  0.1883
   95MOL0     C12703   2.673  10.156  10.047 -0.1113  0.3502 -0.8301
   95MOL0     C12704   2.615  10.162  10.184  0.3903  0.3365 -0.4113
   95MOL0     C12705   2.706  10.237  10.281  0.6556  0.2399  0.2739
   95MOL0     C12706   2.741  10.385  10.239 -0.3354  0.1103 -0.0382
   95MOL0     N12707   2.819  10.458  10.330 -0.3172 -0.9853 -0.0300
   95MOL0     C12708   2.940  10.514  10.300 -0.5187  0.6944  0.5195
   95MOL0     C12709   2.981  10.578  10.412 -0.2178 -0.0417 -0.2051
   95MOL0     C12710   3.120  10.640  10.423  1.0061  0.6132 -0.1130
   95MOL0     C12711   3.111  10.795  10.441 -0.9520 -0.3719  0.4259
   95MOL0     C12712   3.249  10.856  10.422 -0.0276 -0.1800  0.2678
   95MOL0     C12713   3.355  10.795  10.503  0.0008  0.7468 -0.5132
   95MOL0     O12714   3.316  10.776  10.644 -0.1210  0.3635  0.4230
   95MOL0     C12715   3.418  10.722  10.711 -0.2167 -0.6690 -0.0832
   95MOL0     C12716   3.419  10.589  10.744 -0.7005  0.2843 -1.2730
   95MOL0     C12717   3.533  10.538  10.816  0.2298  0.2830  0.4680
   95MOL0     C12718   3.635  10.627  10.857  1.5323  0.7160  0.4903
   95MOL0     C12719   3.754  10.576  10.922 -0.7243 -0.0704  0.5339
   95MOL0     O12720   3.864  10.655  10.923 -0.2041  0.2987 -0.6295
   95MOL0     C12721   3.982  10.593  10.971  0.6236  0.4005 -0.4843
   95MOL0     C12722   4.107  10.609  10.907 -0.3109  1.3677 -0.5301
   95MOL0     C12723   4.224  10.590  10.980 -0.0776  0.2873 -0.9409
   95MOL0     C12724   4.232  10.539  11.108  0.2638  1.2702 -0.3551
   95MOL0     O12725   4.344  10.499  11.179  0.3191  0.4380 -0.5939
   95MOL0     C12726   4.468  10.493  11.098 -0.2284 -0.2943 -0.1270
   95MOL0     C12727   4.574  10.418  11.179  0.1992 -0.0106  0.2430
   95MOL0     C12728   4.706  10.409  11.092  0.5818 -0.6922 -0.2755
   95MOL0     C12729   4.820  10.351  11.163 -0.5503  0.4693 -0.1263
   95MOL0     C12730   4.957  10.377  11.086  0.7151 -0.5227  0.6315
   95MOL0     C12731   5.071  10.313  11.164 -0.2091 -0.3174  0.5079
   95MOL0     C12732   5.214  10.329  11.102  0.5005  0.0635  0.5699
   95MOL0     C12733   5.215  10.266  10.966 -1.0257  0.2138  0.5910
   95MOL0    Cl12734   5.388  10.263  10.909  0.1395  0.6472  0.1939
   95MOL0     C12735   4.106  10.521  11.166  0.0503  0.0401  0.1891
   95MOL0     C12736   3.985  10.552  11.101 -0.5181  0.2717 -0.1865
   95MOL0     O12737   3.751  10.458  10.953  0.1681  0.1939 -0.6528
   95MOL0     C12738   3.633  10.763  10.821 -0.5214 -0.3140  0.3761
   95MOL0     C12739   3.517  10.811  10.746  0.7356 -0.5760  1.1196
   95MOL0     N12740   2.883  10.560  10.507 -0.2205  0.4135  0.1934
   95MOL0     N12741   2.784  10.500  10.456  0.9369  0.1379  0.3272
   95MOL0     C12742   2.190   9.811   9.649  0.1237 -0.3331 -0.3227
   95MOL0     C12743   2.065   9.754   9.626  0.1106 -0.0571  0.1397
   95MOL0     C12744   1.719   9.423   9.557 -0.0740 -0.0520 -1.2350
   95MOL0     C12745   1.655   9.341   9.648  0.3443 -0.2121 -0.3782
   95MOL0     C12746   1.521   9.309   9.623  0.4400  0.3521  0.1528
   95MOL0     C12747   1.456   9.366   9.512  0.0506 -0.0697  0.2460
   95MOL0     O12748   1.326   9.315   9.506 -0.1171  0.0775  0.0947
   95MOL0     C12749   1.243   9.384   9.419  0.6682  0.7154 -0.4156
   95MOL0     C12750   1.104   9.310   9.425  0.4486  0.4670 -0.6990
   95MOL0     C12751   1.020   9.327   9.301 -0.2432 -0.2647 -0.3840
   95MOL0     C12752   0.915   9.430   9.338 -0.2545  0.3106  0.0515
   95MOL0     C12753   0.811   9.427   9.233  0.1125  0.5551 -0.4786
   95MOL0     C12754   0.728   9.424   9.150 -0.0201 -0.3251 -0.1882
   95MOL0     C12755   1.520   9.450   9.433  0.3042  0.0516 -0.0098
   95MOL0     C12756   1.647   9.485   9.453 -0.5234 -0.1897 -0.7211
   95MOL0     C12757   1.721   9.573   9.354  0.6992 -1.1515  0.6857
   95MOL0     H12758   2.165   9.441   9.526 -0.6544  0.8277 -2.3243
   95MOL0     H12759   2.384   9.564   9.556 -0.0910 -1.4535  1.5150
   95MOL0     H12760   2.411  10.007   9.681  4.3442  1.6675 -0.3928
   95MOL0     H12761   2.422   9.903   9.833  2.4394 -0.3598  1.4039
   95MOL0     H12762   2.629   9.967   9.620 -2.2609 -1.5968 -0.7681
   95MOL0     H12763   2.655   9.859   9.762  0.5518 -0.3883 -0.5979
   95MOL0     H12764   2.573  10.150   9.770 -0.0623  1.8361  1.4435
   95MOL0     H12765   2.741  10.087   9.803 -0.7355  1.2798 -1.2034
   95MOL0     H12766   2.492  10.053   9.979 -0.0425 -1.0942 -0.9288
   95MOL0     H12767   2.628   9.939   9.980 -0.1472 -2.2703 -4.6466
   95MOL0     H12768   2.781  10.144  10.045  0.0497  0.6926  2.1154
   95MOL0     H12769   2.650  10.251   9.998  0.9542 -0.4955 -3.1145
   95MOL0     H12770   2.518  10.213  10.190  1.0535  1.4739  2.1835
   95MOL0     H12771   2.601  10.058  10.215  0.1302  0.2348 -0.8673
   95MOL0     H12772   2.798  10.180  10.294 -0.0347 -0.7905  0.8298
   95MOL0     H12773   2.644  10.237  10.372  0.0590 -0.7767 -0.1181
   95MOL0     H12774   2.795  10.372  10.144  0.0524 -0.6332  0.2783
   95MOL0     H12775   2.658  10.453  10.215 -0.2549  0.1209 -0.2962
   95MOL0     H12776   2.994  10.519  10.205  0.8844  0.6888  1.2905
   95MOL0     H12777   3.170  10.602  10.513  0.0106  0.5557  0.4247
   95MOL0     H12778   3.169  10.602  10.332  0.5423  1.2531 -0.6403
   95MOL0     H12779   3.038  10.836  10.370  0.5739  2.5124  0.3726
   95MOL0     H12780   3.067  10.811  10.540 -2.7949 -1.1808 -0.2119
   95MOL0     H12781   3.240  10.959  10.455 -1.0930 -0.0471 -0.4006
   95MOL0     H12782   3.273  10.853  10.315  0.0956 -1.8887  0.3148
   95MOL0     H12783   3.443  10.860  10.501  0.5848  0.3197  3.3563
   95MOL0     H12784   3.394  10.706  10.454 -3.5162  0.6030 -3.4963
   95MOL0     H12785   3.350  10.513  10.709  0.7283 -0.7940 -1.8993
   95MOL0     H12786   3.541  10.431  10.828  2.9087  0.5610  2.1076
   95MOL0     H12787   4.132  10.636  10.804  1.6686  0.3706 -0.3618
   95MOL0     H12788   4.323  10.588  10.935  0.0932 -1.3941 -0.5416
   95MOL0     H12789   4.447  10.437  11.007 -0.9621 -0.7781  0.3304
   95MOL0     H12790   4.502  10.596  11.079 -0.8788  0.6308  3.0554
   95MOL0     H12791   4.587  10.469  11.275 -0.8562 -0.1784  0.4936
   95MOL0     H12792   4.535  10.316  11.189  0.2345 -0.0518 -0.0446
   95MOL0     H12793   4.686  10.361  10.996 -1.0358  2.1861 -1.5298
   95MOL0     H12794   4.737  10.509  11.061  1.7336 -1.0790 -0.4208
   95MOL0     H12795   4.803  10.243  11.168  0.9537 -0.0122 -3.2887
   95MOL0     H12796   4.825  10.394  11.264  0.5195  1.0285 -0.4056
   95MOL0     H12797   4.979  10.482  11.066  1.6183 -0.7368  0.4205
   95MOL0     H12798   4.949  10.323  10.992 -1.2223 -0.8755  0.9701
   95MOL0     H12799   5.078  10.351  11.266  2.0472 -0.0307  0.3086
   95MOL0     H12800   5.042  10.208  11.149  2.9454 -0.8728 -4.0345
   95MOL0     H12801   5.284  10.270  11.163 -0.8150 -2.1739  0.0153
   95MOL0     H12802   5.241  10.434  11.088 -2.2212  0.5814 -1.5379
   95MOL0     H12803   5.180  10.162  10.970  0.9574 -0.9078 -4.4471
   95MOL0     H12804   5.155  10.305  10.884  0.9427  0.7335 -0.6692
   95MOL0     H12805   4.103  10.486  11.269 -1.0956  0.2422  0.2426
   95MOL0     H12806   3.892  10.540  11.157 -2.3391 -0.3083 -3.1321
   95MOL0     H12807   3.708  10.837  10.845 -1.1526  0.1720  0.8712
   95MOL0     H12808   3.505  10.913  10.710  3.4182 -0.1771  1.1300
   95MOL0     H12809   2.188   9.917   9.675 -0.3365 -0.3442 -0.2854
   95MOL0     H12810   1.969   9.801   9.645  0.4946  1.8553 -2.1449
   95MOL0     H12811   1.697   9.305   9.741  0.1369  1.5901  0.4677
   95MOL0     H12812   1.468   9.231   9.677 -1.2125  0.3328 -1.4103
   95MOL0     H12813   1.278   9.379   9.316 -0.2639 -1.6896 -0.6928
   95MOL0     H12814   1.229   9.484   9.460 -2.7598 -0.2509  1.2231
   95MOL0     H12815   1.052   9.349   9.514  0.6178 -0.5254 -0.1462
   95MOL0     H12816   1.131   9.207   9.447  3.1710  1.5863  1.9928
   95MOL0     H12817   0.977   9.230   9.274 -0.7362 -0.0713 -0.3009
   95MOL0     H12818   1.084   9.355   9.216  2.1480 -1.0213  1.0868
   95MOL0     H12819   0.868   9.410   9.434  1.3369  0.7554  0.9736
   95MOL0     H12820   0.961   9.530   9.337  1.4338 -0.4091  1.2208
   95MOL0     H12821   0.644   9.432   9.084 -1.9197 -1.5582  1.9455
   95MOL0     H12822   1.464   9.491   9.350 -1.5785 -0.7069  0.8281
   95MOL0     H12823   1.648   9.609   9.281  1.3590  1.2050  1.1019
   95MOL0     H12824   1.753   9.662   9.409  1.7940 -1.9908  1.4701
   95MOL0     H12825   1.805   9.528   9.300  0.2635 -1.5399  0.3217
   96MOL0     O12826   0.199   4.552   1.691 -0.2134 -0.2357 -0.1689
   96MOL0     C12827   0.176   4.438   1.725 -0.0555  0.9280 -0.7507
   96MOL0     O12828   0.274   4.342   1.743 -0.0881  0.1353  0.4144
   96MOL0     C12829   0.405   4.358   1.695  0.7735  0.5667  0.1696
   96MOL0     C12830   0.484   4.462   1.736 -0.3276 -0.7012  0.1929
   96MOL0     C12831   0.611   4.484   1.676  0.0688  0.2410  0.3015
   96MOL0     C12832   0.655   4.408   1.573 -0.7949 -0.3572  0.3721
   96MOL0     O12833   0.786   4.429   1.521  0.4554  0.1243 -0.1813
   96MOL0     C12834   0.865   4.309   1.491 -0.1060 -0.1229 -0.0011
   96MOL0     C12835   1.017   4.342   1.508 -0.8674 -0.1845  1.0035
   96MOL0     C12836   1.073   4.436   1.393  0.0039 -0.0013  0.7741
   96MOL0     C12837   1.220   4.424   1.369  0.3233 -0.1580 -0.3527
   96MOL0     C12838   1.244   4.307   1.272 -0.1279 -0.3054 -0.0510
   96MOL0     C12839   1.397   4.302   1.242  0.3493  0.1211  0.8646
   96MOL0     C12840   1.431   4.229   1.119  0.6139 -0.3972  0.0556
   96MOL0     C12841   1.583   4.198   1.111 -0.0784  0.1780  0.6113
   96MOL0     N12842   1.630   4.128   0.988  0.3920  0.1630  0.1253
   96MOL0     C12843   1.660   4.001   0.956  0.0790 -0.0585 -0.0301
   96MOL0     C12844   1.711   3.996   0.828  0.3943  0.5012  0.6502
   96MOL0     C12845   1.753   3.866   0.766 -0.0204 -0.2156 -0.7833
   96MOL0     C12846   1.895   3.847   0.723 -0.7760 -0.2281 -0.6617
   96MOL0     C12847   1.989   3.868   0.843  0.0713 -0.3319 -0.4195
   96MOL0     C12848   2.140   3.875   0.803 -0.8674 -0.3082 -0.4936
   96MOL0     O12849   2.177   3.981   0.713 -0.5768 -0.0819 -0.5135
   96MOL0     C12850   2.303   4.017   0.714 -0.5701 -0.1827 -0.2983
   96MOL0     C12851   2.400   3.921   0.702  0.2991  0.7815 -0.6382
   96MOL0     C12852   2.536   3.950   0.715  0.2316 -0.7528 -0.3479
   96MOL0     C12853   2.570   4.094   0.726  0.9824 -0.2999 -0.2166
   96MOL0     C12854   2.713   4.117   0.739 -0.2146 -0.5811  0.5935
   96MOL0     O12855   2.760   4.239   0.794  0.1365  0.0224 -0.5901
   96MOL0     C12856   2.882   4.292   0.760 -0.2817 -0.4637  0.1157
   96MOL0     C12857   2.897   4.349   0.635 -1.0953 -0.0450 -0.4665
   96MOL0     C12858   3.026   4.370   0.583  0.4355  0.0914 -0.5870
   96MOL0     C12859   3.138   4.359   0.664 -0.1373 -0.6008  0.1526
   96MOL0     O12860   3.263   4.372   0.606  0.2852 -0.2300 -0.8354
   96MOL0     C12861   3.390   4.367   0.691  1.1490  0.0734 -0.0324
   96MOL0     C12862   3.420   4.508   0.741 -1.2305 -0.1835  0.6096
   96MOL0     C12863   3.565   4.531   0.776 -0.1902  0.3202  0.0615
   96MOL0     C12864   3.598   4.686   0.772 -0.2771  0.2474  0.2613
   96MOL0     C12865   3.752   4.709   0.762 -0.1362 -0.0599  0.2758
   96MOL0     C12866   3.803   4.755   0.900  0.0348 -0.2602 -0.1770
   96MOL0     C12867   3.962   4.729   0.912  0.0492  0.0029 -0.5842
   96MOL0     C12868   4.046   4.852   0.886 -0.0355 -0.4102  0.1545
   96MOL0    Cl12869   4.039   4.952   1.027 -0.5157  0.0450  0.2149
   96MOL0     C12870   3.119   4.307   0.789 -0.1156 -0.4680 -0.9033
   96MOL0     C12871   2.997   4.270   0.843 -0.1478 -0.6055  0.0636
   96MOL0     O12872   2.782   4.042   0.668 -0.4542  0.1422 -0.3216
   96MOL0     C12873   2.477   4.191   0.737  0.4809  0.0519  0.2962
   96MOL0     C12874   2.339   4.153   0.726 -0.9085 -0.4341  0.1079
   96MOL0     N12875   1.696   4.122   0.781 -0.1313  0.2787  1.5104
   96MOL0     N12876   1.655   4.195   0.874  0.0898 -0.3964  0.7336
   96MOL0     C12877   0.576   4.298   1.535  0.1063  0.0508  1.2939
   96MOL0     C12878   0.448   4.270   1.591 -0.2731 -0.6736  0.2534
   96MOL0     C12879   0.049   4.388   1.788 -0.3245 -0.4278 -0.9839
   96MOL0     C12880  -0.002   4.254   1.767 -0.0862 -0.0148 -0.7335
   96MOL0     C12881  -0.102   4.191   1.839 -0.2007 -0.0271 -0.3925
   96MOL0     C12882  -0.187   4.277   1.919  0.3669  0.7877  0.2311
   96MOL0     O12883  -0.293   4.229   1.995 -0.3248 -0.0800  0.3762
   96MOL0     C12884  -0.283   4.096   2.033  1.1583 -0.3288 -0.3096
   96MOL0     C12885  -0.400   4.064   2.129  0.1086 -0.8763  0.3633
   96MOL0     C12886  -0.404   4.143   2.257 -0.2744  0.2451 -0.1485
   96MOL0     C12887  -0.537   4.115   2.331  0.2752  0.2010 -0.3486
   96MOL0     C12888  -0.547   3.978   2.366  0.1322 -0.2882 -0.1456
   96MOL0     C12889  -0.551   3.864   2.390 -0.5694  0.0698 -1.0931
   96MOL0     C12890  -0.144   4.412   1.939  1.0655 -0.0878  0.0734
   96MOL0     C12891  -0.033   4.463   1.879 -0.2183 -0.0145  0.3998
   96MOL0     C12892  -0.014   4.608   1.899 -0.9225 -0.1573  0.0637
   96MOL0     H12893   0.450   4.531   1.812 -1.0789 -2.0156  1.1028
   96MOL0     H12894   0.682   4.562   1.703 -0.1630  0.4622  0.2760
   96MOL0     H12895   0.840   4.227   1.558 -0.3504  0.3941  0.5514
   96MOL0     H12896   0.835   4.271   1.393 -1.5819  0.3371  0.2464
   96MOL0     H12897   1.075   4.250   1.500  0.0465  0.3607  1.2681
   96MOL0     H12898   1.047   4.389   1.601  1.7168  0.8251 -0.2499
   96MOL0     H12899   1.043   4.528   1.444 -2.0468 -0.6663  0.8943
   96MOL0     H12900   1.019   4.413   1.301  2.4449 -3.6704  0.0704
   96MOL0     H12901   1.246   4.515   1.314  3.2077 -0.2632  0.6581
   96MOL0     H12902   1.275   4.418   1.464 -0.7590  2.8668  0.5794
   96MOL0     H12903   1.213   4.210   1.312 -2.9804  0.6960  0.3838
   96MOL0     H12904   1.184   4.331   1.184 -0.3708  0.9049  0.4201
   96MOL0     H12905   1.432   4.405   1.251 -2.0509  0.9659  1.2127
   96MOL0     H12906   1.447   4.243   1.320  0.0325  0.0719  1.0300
   96MOL0     H12907   1.392   4.288   1.035 -0.4772  0.1538  0.9169
   96MOL0     H12908   1.369   4.139   1.116 -1.7146  1.0843  1.0978
   96MOL0     H12909   1.642   4.290   1.119 -0.9246  1.1596 -2.8840
   96MOL0     H12910   1.619   4.142   1.198  0.4304 -2.3641 -1.1245
   96MOL0     H12911   1.658   3.921   1.029 -0.9199  1.3540  1.5556
   96MOL0     H12912   1.719   3.784   0.830 -0.7148 -0.5254 -1.5391
   96MOL0     H12913   1.701   3.854   0.671 -0.8107  2.2048 -0.7208
   96MOL0     H12914   1.895   3.745   0.683 -0.9340 -0.4463 -0.1150
   96MOL0     H12915   1.924   3.915   0.643 -1.4247 -1.8423 -2.3506
   96MOL0     H12916   1.977   3.786   0.915  0.2328  0.6319  0.7413
   96MOL0     H12917   1.970   3.962   0.896  3.1623  0.1058  0.0640
   96MOL0     H12918   2.155   3.783   0.745  0.2542 -0.3241 -0.2146
   96MOL0     H12919   2.214   3.863   0.884 -1.6552 -0.6382  0.1956
   96MOL0     H12920   2.360   3.822   0.683 -1.2089  0.6929  2.4301
   96MOL0     H12921   2.606   3.867   0.709  0.7023 -0.5574  1.7488
   96MOL0     H12922   2.811   4.374   0.574 -0.4036  1.5320 -0.8378
   96MOL0     H12923   3.044   4.392   0.478 -0.1480 -1.9807 -1.1719
   96MOL0     H12924   3.372   4.295   0.771  0.0042 -0.8008 -1.0395
   96MOL0     H12925   3.470   4.338   0.622 -0.8963 -1.7565 -1.7673
   96MOL0     H12926   3.401   4.578   0.659  0.0198  0.9126  1.2335
   96MOL0     H12927   3.353   4.539   0.821 -3.6268  1.5748 -1.8730
   96MOL0     H12928   3.586   4.505   0.880  1.7710  3.1549  0.4886
   96MOL0     H12929   3.626   4.471   0.709 -0.1743 -0.5331  0.8243
   96MOL0     H12930   3.567   4.733   0.866  1.0657  1.0554  0.3224
   96MOL0     H12931   3.555   4.732   0.682 -0.1152 -0.4764 -0.1999
   96MOL0     H12932   3.774   4.799   0.703  0.5390  0.6663  1.5811
   96MOL0     H12933   3.800   4.619   0.723  1.8736  0.9963  0.1612
   96MOL0     H12934   3.771   4.858   0.916  0.0804 -0.2002 -0.4569
   96MOL0     H12935   3.758   4.705   0.986 -1.3503 -1.2150 -1.4007
   96MOL0     H12936   3.993   4.649   0.845  4.0077  0.8413  0.0118
   96MOL0     H12937   3.996   4.702   1.013  0.1449 -1.1559 -0.9187
   96MOL0     H12938   4.149   4.826   0.859 -0.0816  2.1651 -3.0788
   96MOL0     H12939   4.011   4.899   0.794 -0.9964 -1.4026 -0.0094
   96MOL0     H12940   3.205   4.289   0.853  2.1739  1.2289 -3.2897
   96MOL0     H12941   2.997   4.232   0.944  0.6694  2.6031  1.3827
   96MOL0     H12942   2.509   4.294   0.736  1.7579 -0.2606 -2.5647
   96MOL0     H12943   2.261   4.228   0.731 -0.6563 -0.1929  0.4646
   96MOL0     H12944   0.613   4.246   1.447 -0.7709  1.9869 -0.3250
   96MOL0     H12945   0.390   4.185   1.560  1.3752 -1.6338 -0.3126
   96MOL0     H12946   0.046   4.184   1.699 -0.8244 -3.2192  1.7490
   96MOL0     H12947  -0.124   4.085   1.827  4.3385 -1.2106 -0.2078
   96MOL0     H12948  -0.184   4.077   2.076  1.1708  0.9457  0.2957
   96MOL0     H12949  -0.299   4.040   1.941 -0.7185  0.6510 -0.6190
   96MOL0     H12950  -0.401   3.957   2.149  0.9821 -1.1851 -1.0732
   96MOL0     H12951  -0.495   4.083   2.077  2.2613  0.3365 -3.5252
   96MOL0     H12952  -0.383   4.248   2.235  0.8781  0.4138  1.5614
   96MOL0     H12953  -0.318   4.110   2.315  0.7410  1.6947 -0.7827
   96MOL0     H12954  -0.541   4.179   2.420  0.4514  0.8259 -0.7878
   96MOL0     H12955  -0.623   4.142   2.270 -0.1763  1.1139  0.6508
   96MOL0     H12956  -0.551   3.758   2.406  0.5993  0.2300  0.1783
   96MOL0     H12957  -0.208   4.478   1.997 -0.9520 -0.3651 -1.6940
   96MOL0     H12958  -0.029   4.671   1.810 -1.1147 -3.0587 -2.0888
   96MOL0     H12959  -0.064   4.650   1.987 -1.3702 -2.6137  1.0526
   96MOL0     H12960   0.089   4.613   1.934 -1.4187 -0.5252  1.6695
   97MOL0     O12961   9.758   7.320   7.486 -0.2900  0.4766  0.4067
   97MOL0     C12962   9.757   7.216   7.416  0.7279  0.1935 -0.2773
   97MOL0     O12963   9.848   7.112   7.423 -0.1627  0.2639 -0.0316
   97MOL0     C12964   9.969   7.144   7.484  0.4405  0.8383  0.3146
   97MOL0     C12965  10.003   7.085   7.608 -0.2623 -0.2821 -0.0490
   97MOL0     C12966  10.129   7.111   7.660 -0.4845 -0.6191  0.5418
   97MOL0     C12967  10.231   7.187   7.593  0.1620 -0.2514  0.1096
   97MOL0     O12968  10.347   7.214   7.666 -0.2818  0.3038  0.3239
   97MOL0     C12969  10.435   7.315   7.616  0.5538  0.1449 -1.0535
   97MOL0     C12970  10.557   7.312   7.698 -0.1207  0.9302 -0.6690
   97MOL0     C12971  10.646   7.183   7.674  0.3418  0.1432  1.0221
   97MOL0     C12972  10.729   7.155   7.800  0.4439  1.1483  0.6605
   97MOL0     C12973  10.810   7.024   7.767  1.1763  0.4807  0.2063
   97MOL0     C12974  10.849   6.961   7.905 -0.6258 -0.7326  0.0582
   97MOL0     C12975  10.927   6.826   7.888  0.5855 -0.7189 -0.3547
   97MOL0     C12976  10.956   6.780   8.029  0.4131  0.4002  0.6978
   97MOL0     N12977  11.052   6.874   8.093  1.7190 -0.3043  0.2257
   97MOL0     C12978  11.019   6.975   8.173  0.2615  0.1008  0.3562
   97MOL0     C12979  11.133   7.028   8.213  0.0145 -0.2648 -0.4835
   97MOL0     C12980  11.137   7.134   8.313 -0.1482  0.7565  0.1944
   97MOL0     C12981  11.264   7.227   8.315  0.9017 -1.3185 -0.3599
   97MOL0     C12982  11.269   7.305   8.450  0.0105  0.1177  0.5225
   97MOL0     C12983  11.374   7.422   8.437  1.0166 -0.5189 -0.5326
   97MOL0     O12984  11.499   7.355   8.441 -0.0490  0.6912  0.0572
   97MOL0     C12985  11.614   7.427   8.415 -0.3378  0.4561 -0.5837
   97MOL0     C12986  11.630   7.569   8.433  0.9397 -0.3845 -0.1979
   97MOL0     C12987  11.756   7.627   8.429  0.1060 -0.4894 -0.0598
   97MOL0     C12988  11.870   7.549   8.405 -0.7345 -0.6576 -0.5472
   97MOL0     C12989  11.997   7.622   8.402 -0.2087  0.0347  0.2781
   97MOL0     O12990  12.105   7.542   8.419  0.2005  0.4884  0.3976
   97MOL0     C12991  12.224   7.591   8.478 -0.3614  0.9552  0.5962
   97MOL0     C12992  12.232   7.707   8.564 -0.7583 -0.2036 -1.0151
   97MOL0     C12993  12.358   7.751   8.600 -1.0034  0.0016  0.3822
   97MOL0     C12994  12.473   7.667   8.584 -0.5912  0.4082 -0.0906
   97MOL0     O12995  12.603   7.690   8.625  0.4779 -0.4009 -0.4729
   97MOL0     C12996  12.623   7.780   8.731  0.1154 -0.7143  0.4737
   97MOL0     C12997  12.766   7.778   8.780 -0.1198 -0.1552 -1.2251
   97MOL0     C12998  12.783   7.909   8.873 -1.1312  0.7239 -0.5773
   97MOL0     C12999  12.930   7.890   8.936 -0.8216  0.2223 -0.1563
   97MOL0     C13000  12.986   8.017   8.975  0.1388 -0.2090  0.8054
   97MOL0     C13001  13.126   7.992   9.031 -0.0495  0.7854  0.0879
   97MOL0     C13002  13.187   8.128   9.072 -0.1024 -0.2320 -0.5320
   97MOL0     C13003  13.334   8.117   9.104  0.5216  0.3405  0.4696
   97MOL0    Cl13004  13.371   8.261   9.210 -0.3340 -0.2484 -0.6553
   97MOL0     C13005  12.462   7.553   8.493  0.7057 -0.1452 -0.6603
   97MOL0     C13006  12.336   7.515   8.440  0.1897 -0.3155  0.2702
   97MOL0     O13007  12.005   7.741   8.366  0.5187  0.4703  0.0415
   97MOL0     C13008  11.852   7.409   8.387 -0.3401  0.1900 -0.7537
   97MOL0     C13009  11.730   7.351   8.391 -0.8080 -0.1254  0.5088
   97MOL0     N13010  11.236   6.949   8.167  0.2530  0.2138 -0.3975
   97MOL0     N13011  11.187   6.856   8.094 -0.3001 -0.1324 -0.1399
   97MOL0     C13012  10.193   7.238   7.468 -0.0955 -0.1590  0.5132
   97MOL0     C13013  10.065   7.215   7.414  0.2043  0.6487 -0.7607
   97MOL0     C13014   9.658   7.216   7.311  0.5531  0.3242 -0.4568
   97MOL0     C13015   9.556   7.116   7.317  1.0305 -0.2451  0.1605
   97MOL0     C13016   9.464   7.101   7.216  0.2925  0.6381 -0.3101
   97MOL0     C13017   9.474   7.177   7.095  0.1297 -0.1111  0.2350
   97MOL0     O13018   9.376   7.160   6.989 -0.2218 -0.2005 -0.0257
   97MOL0     C13019   9.269   7.068   7.004  0.5994  0.5791  0.1639
   97MOL0     C13020   9.175   7.088   6.882  0.5421  0.0597 -0.8384
   97MOL0     C13021   9.126   7.236   6.861 -0.0270 -0.0628 -0.6281
   97MOL0     C13022   9.030   7.255   6.748 -0.1026  0.5974 -0.7829
   97MOL0     C13023   8.982   7.394   6.736  0.0918 -0.0132  0.3196
   97MOL0     C13024   8.927   7.505   6.725 -0.5643 -0.6792  0.5299
   97MOL0     C13025   9.573   7.278   7.090  0.6139  0.6289 -0.1309
   97MOL0     C13026   9.663   7.300   7.194 -0.6683 -1.1423 -0.4261
   97MOL0     C13027   9.752   7.424   7.196  0.0833 -0.2962  0.5417
   97MOL0     H13028   9.937   7.022   7.666  1.2838 -1.1522  0.8255
   97MOL0     H13029  10.166   7.065   7.752  2.3772  1.3690  0.5335
   97MOL0     H13030  10.461   7.286   7.513  0.7835 -1.3106 -0.6156
   97MOL0     H13031  10.388   7.413   7.624 -3.5160 -1.7804  2.2267
   97MOL0     H13032  10.512   7.314   7.798  1.5331 -2.3089  0.2867
   97MOL0     H13033  10.621   7.400   7.686  1.5815 -0.3045 -0.9864
   97MOL0     H13034  10.706   7.202   7.585 -0.5155  1.7062  0.7562
   97MOL0     H13035  10.584   7.093   7.665  1.5070 -0.6277  0.2872
   97MOL0     H13036  10.793   7.239   7.827  0.4258  2.5432 -3.1129
   97MOL0     H13037  10.656   7.137   7.880 -1.2412 -1.6423 -1.3388
   97MOL0     H13038  10.751   6.946   7.716  2.2367  0.8026 -1.6073
   97MOL0     H13039  10.895   7.045   7.701 -1.8598 -0.2230 -4.4527
   97MOL0     H13040  10.916   7.036   7.950 -0.5630  0.4156 -1.8405
   97MOL0     H13041  10.766   6.940   7.974 -0.2363  1.5596  1.3448
   97MOL0     H13042  11.014   6.838   7.823  1.0456  1.0963  0.5445
   97MOL0     H13043  10.853   6.757   7.846 -0.8627  1.1909 -1.0829
   97MOL0     H13044  10.865   6.767   8.088  0.0461  0.2404  0.1080
   97MOL0     H13045  11.001   6.682   8.014  1.1696  0.9665 -0.9818
   97MOL0     H13046  10.922   7.017   8.199  0.7756  0.8716  1.0853
   97MOL0     H13047  11.048   7.194   8.293 -1.7976 -0.9624  1.9833
   97MOL0     H13048  11.114   7.087   8.409 -1.4161  3.2583  1.2111
   97MOL0     H13049  11.360   7.176   8.298  2.5270  1.1218  0.9123
   97MOL0     H13050  11.267   7.306   8.239  3.4565 -0.5968  0.3845
   97MOL0     H13051  11.315   7.235   8.520 -1.1521 -1.4323 -0.1960
   97MOL0     H13052  11.174   7.354   8.474  1.3160  3.8330 -1.1726
   97MOL0     H13053  11.368   7.490   8.523 -1.7470 -1.0323 -0.2536
   97MOL0     H13054  11.366   7.479   8.344 -1.1904  2.1798  1.1537
   97MOL0     H13055  11.546   7.628   8.467  1.8822  0.4910  0.6928
   97MOL0     H13056  11.762   7.735   8.442 -2.9570 -0.0240 -1.5708
   97MOL0     H13057  12.150   7.755   8.617  0.2451 -1.1545  1.5308
   97MOL0     H13058  12.366   7.837   8.666 -6.4082  0.5341  0.7861
   97MOL0     H13059  12.585   7.878   8.702 -2.0658 -1.5631  0.2920
   97MOL0     H13060  12.571   7.747   8.821  2.9005  2.3722  3.5091
   97MOL0     H13061  12.784   7.684   8.833  3.3473 -0.6007 -2.9317
   97MOL0     H13062  12.836   7.773   8.697 -0.1444 -1.4303 -1.1904
   97MOL0     H13063  12.790   8.001   8.815 -2.4839 -0.4163 -2.6786
   97MOL0     H13064  12.699   7.904   8.942 -1.4796 -0.9039 -1.0711
   97MOL0     H13065  12.996   7.851   8.857  0.9329  2.3339  0.1762
   97MOL0     H13066  12.921   7.816   9.016 -1.5534  1.7115  1.1772
   97MOL0     H13067  12.917   8.072   9.040 -1.3633  0.6586 -1.4119
   97MOL0     H13068  12.991   8.080   8.886  1.7497  2.9110  2.8993
   97MOL0     H13069  13.125   7.923   9.116 -2.1683  0.1468 -0.3939
   97MOL0     H13070  13.187   7.946   8.952 -0.9006  0.7499 -0.5736
   97MOL0     H13071  13.142   8.165   9.165  1.0886 -2.0698  0.8593
   97MOL0     H13072  13.168   8.202   8.995 -0.9600  1.3757  1.1335
   97MOL0     H13073  13.375   8.031   9.158 -0.0790 -0.5357 -0.4376
   97MOL0     H13074  13.389   8.119   9.009 -1.4640 -2.4454 -0.8947
   97MOL0     H13075  12.552   7.496   8.473  0.6856  0.3704 -2.4206
   97MOL0     H13076  12.317   7.426   8.381  1.6460 -0.1564 -0.4730
   97MOL0     H13077  11.917   7.323   8.379 -0.9431 -0.7205  2.5041
   97MOL0     H13078  11.730   7.244   8.378 -0.0246 -0.1012  0.2117
   97MOL0     H13079  10.264   7.299   7.413  0.1687 -0.4067  0.5780
   97MOL0     H13080  10.032   7.246   7.315 -2.2513  0.2831 -0.1057
   97MOL0     H13081   9.532   7.063   7.409 -0.9360 -0.4658 -0.4266
   97MOL0     H13082   9.383   7.033   7.243  0.9080  0.5057  1.3171
   97MOL0     H13083   9.206   7.074   7.093  2.6421 -1.3209  1.8530
   97MOL0     H13084   9.310   6.967   6.995 -0.0751  0.3530 -0.4089
   97MOL0     H13085   9.089   7.033   6.919  0.7455 -0.5715 -1.2761
   97MOL0     H13086   9.212   7.053   6.784 -1.2596  0.5255 -1.7198
   97MOL0     H13087   9.216   7.296   6.842  0.8390 -0.5853  1.5493
   97MOL0     H13088   9.075   7.276   6.949  1.8679  1.2145 -0.0347
   97MOL0     H13089   9.089   7.241   6.657  1.8809 -0.6030  0.6003
   97MOL0     H13090   8.949   7.183   6.758  2.5655 -2.6835 -1.0791
   97MOL0     H13091   8.882   7.602   6.728 -1.0265 -0.8905  0.4460
   97MOL0     H13092   9.570   7.344   7.004 -2.3197  1.5161  0.5642
   97MOL0     H13093   9.692   7.511   7.226  1.9358  1.3758 -0.3563
   97MOL0     H13094   9.835   7.414   7.267  1.5842  3.9214 -0.3170
   97MOL0     H13095   9.781   7.443   7.093 -0.5393  0.5296  0.5053
   98MOL0     O13096   7.477   1.540   0.903  0.0589 -0.0073 -0.4105
   98MOL0     C13097   7.468   1.570   0.786  0.1736  1.0728  0.5870
   98MOL0     O13098   7.581   1.598   0.706  0.3119 -0.1544  0.2808
   98MOL0     C13099   7.710   1.597   0.745  0.5916  0.5189  0.5578
   98MOL0     C13100   7.763   1.503   0.836 -0.1671  0.6078 -0.1114
   98MOL0     C13101   7.889   1.523   0.879  0.4512  0.6187 -0.5183
   98MOL0     C13102   7.982   1.612   0.828  0.2371  0.1129  0.4368
   98MOL0     O13103   8.105   1.603   0.880  0.6732 -0.1330  0.2373
   98MOL0     C13104   8.166   1.733   0.869 -0.7401 -0.0077 -0.3353
   98MOL0     C13105   8.283   1.731   0.975  0.7684 -0.2047 -0.4967
   98MOL0     C13106   8.383   1.840   0.955 -0.0491 -0.1329  0.1616
   98MOL0     C13107   8.442   1.892   1.089  0.2552 -0.2703 -0.1666
   98MOL0     C13108   8.546   2.004   1.077  0.0004 -0.3532 -1.0942
   98MOL0     C13109   8.607   2.033   1.217 -0.7468  0.0718 -0.8782
   98MOL0     C13110   8.700   2.157   1.208 -0.8635 -0.6794  0.7839
   98MOL0     C13111   8.635   2.282   1.149 -0.6936  0.1702  0.0925
   98MOL0     N13112   8.723   2.406   1.147  0.8826  0.1436 -0.0989
   98MOL0     C13113   8.861   2.417   1.177 -0.0630  1.1673  0.7445
   98MOL0     C13114   8.886   2.547   1.176  0.4868 -1.0326 -0.7625
   98MOL0     C13115   9.015   2.622   1.186 -0.1265  0.4308  0.6895
   98MOL0     C13116   9.097   2.615   1.051  0.0294  0.0366 -0.9933
   98MOL0     C13117   9.219   2.705   1.066  0.3990  0.7018  0.6271
   98MOL0     C13118   9.333   2.657   1.156  0.4133 -0.6438 -0.4988
   98MOL0     O13119   9.454   2.721   1.114  0.0662  0.0105  0.0195
   98MOL0     C13120   9.576   2.690   1.179 -0.4009 -0.2141  0.4580
   98MOL0     C13121   9.697   2.741   1.126 -1.1164  0.0578 -0.1019
   98MOL0     C13122   9.820   2.713   1.191 -0.3878  0.2785  0.7332
   98MOL0     C13123   9.823   2.613   1.297  0.3548  0.4630 -0.7664
   98MOL0     C13124   9.944   2.552   1.357 -0.3324  0.0463  0.3166
   98MOL0     O13125  10.057   2.622   1.336 -0.2771  0.2157 -0.0783
   98MOL0     C13126  10.176   2.573   1.387  0.0801  0.6209 -1.2234
   98MOL0     C13127  10.240   2.456   1.340 -0.4317  0.9249 -1.0111
   98MOL0     C13128  10.354   2.420   1.403 -0.3964  0.2138 -0.2657
   98MOL0     C13129  10.399   2.501   1.516 -1.0035  0.3740 -0.5214
   98MOL0     O13130  10.510   2.462   1.595 -0.0718 -0.1930  0.3015
   98MOL0     C13131  10.537   2.323   1.610  0.4491  0.1066 -0.3583
   98MOL0     C13132  10.641   2.316   1.721 -1.4934  0.1506  0.6041
   98MOL0     C13133  10.684   2.165   1.740  0.4903 -1.2133  0.6946
   98MOL0     C13134  10.819   2.150   1.816  0.1165 -0.9979 -0.0388
   98MOL0     C13135  10.800   2.142   1.968 -0.7910 -0.2821 -0.9088
   98MOL0     C13136  10.831   2.284   2.032 -0.4253  0.5236  0.0494
   98MOL0     C13137  10.808   2.271   2.183  0.5160  0.3136  0.2977
   98MOL0     C13138  10.879   2.169   2.269  0.2723  0.1011  0.6578
   98MOL0    Cl13139  11.047   2.121   2.209 -0.2503  0.4164 -0.1265
   98MOL0     C13140  10.337   2.616   1.558  0.5180  0.0606  0.3889
   98MOL0     C13141  10.224   2.657   1.496 -0.4305 -0.2743 -0.0951
   98MOL0     O13142   9.937   2.459   1.432  0.0162  0.1310 -0.0478
   98MOL0     C13143   9.696   2.566   1.352  0.2775  0.0113  0.1503
   98MOL0     C13144   9.582   2.598   1.282 -0.8082 -0.1724 -0.2744
   98MOL0     N13145   8.765   2.620   1.172  0.0659  0.9035 -0.5721
   98MOL0     N13146   8.673   2.534   1.146 -0.0745  0.0773  0.0707
   98MOL0     C13147   7.935   1.690   0.724  0.1846 -0.5035  0.0547
   98MOL0     C13148   7.801   1.688   0.685  0.9938 -1.0293 -0.2369
   98MOL0     C13149   7.346   1.559   0.707  0.1453 -0.0959 -0.5242
   98MOL0     C13150   7.350   1.585   0.579 -0.8227 -0.4314 -0.4158
   98MOL0     C13151   7.252   1.596   0.486 -0.2643  0.1120 -0.6602
   98MOL0     C13152   7.125   1.548   0.528  0.1044 -0.2069  0.1689
   98MOL0     O13153   7.030   1.531   0.427  0.0145  0.3394 -0.1495
   98MOL0     C13154   6.891   1.496   0.473  0.4834 -0.4338 -0.1090
   98MOL0     C13155   6.801   1.613   0.516 -0.2536 -0.2257  0.2153
   98MOL0     C13156   6.691   1.595   0.619 -0.6118  0.7942 -0.0840
   98MOL0     C13157   6.592   1.474   0.584 -0.7579  0.5089  0.1128
   98MOL0     C13158   6.538   1.473   0.450 -0.0517  0.4507  0.3084
   98MOL0     C13159   6.478   1.461   0.345  0.9703 -0.8133 -0.6954
   98MOL0     C13160   7.103   1.521   0.666 -1.3109  0.0997  0.1637
   98MOL0     C13161   7.216   1.521   0.752 -0.5453 -0.7263 -0.2436
   98MOL0     C13162   7.190   1.487   0.894  0.3094  0.7053 -0.0771
   98MOL0     H13163   7.691   1.439   0.885 -2.4529  3.1237  0.0280
   98MOL0     H13164   7.907   1.459   0.965 -2.1922 -0.0329 -0.3624
   98MOL0     H13165   8.219   1.729   0.773  0.0447 -0.4702  0.1009
   98MOL0     H13166   8.103   1.818   0.893 -0.1096  0.9040 -1.7724
   98MOL0     H13167   8.333   1.635   0.962  0.0810 -0.5395 -0.7207
   98MOL0     H13168   8.235   1.726   1.073  0.0218  0.9094 -0.7731
   98MOL0     H13169   8.344   1.919   0.890  2.9453 -0.6540 -2.5100
   98MOL0     H13170   8.463   1.793   0.897 -0.4909 -0.4819 -0.1696
   98MOL0     H13171   8.354   1.931   1.142  0.1882 -1.3327  0.5305
   98MOL0     H13172   8.483   1.812   1.152  1.2430  0.0570 -0.3725
   98MOL0     H13173   8.620   1.964   1.007 -1.1291 -1.2902 -1.7846
   98MOL0     H13174   8.486   2.088   1.040  0.0105  0.1524 -0.0100
   98MOL0     H13175   8.540   2.044   1.302 -0.3784 -4.2299  0.2020
   98MOL0     H13176   8.679   1.953   1.239  3.0229  2.9271 -1.7002
   98MOL0     H13177   8.790   2.136   1.150 -1.9530  0.4425 -1.4304
   98MOL0     H13178   8.747   2.176   1.305  0.1058  0.2568  0.1531
   98MOL0     H13179   8.605   2.266   1.045 -2.4588 -2.3200  0.8917
   98MOL0     H13180   8.546   2.302   1.209 -1.5166 -1.7759 -0.4240
   98MOL0     H13181   8.936   2.340   1.192 -0.3141  0.3368 -1.7819
   98MOL0     H13182   8.991   2.722   1.223 -1.1886 -0.2792  1.9911
   98MOL0     H13183   9.082   2.584   1.264  0.1542  2.7093  1.6292
   98MOL0     H13184   9.137   2.516   1.025  2.0906  0.6050 -0.1479
   98MOL0     H13185   9.025   2.648   0.976 -0.3874  0.6044 -0.3565
   98MOL0     H13186   9.185   2.801   1.106  1.8655  1.2173  0.6810
   98MOL0     H13187   9.263   2.717   0.967 -0.9351 -2.8137 -0.5325
   98MOL0     H13188   9.359   2.553   1.135  2.8075  0.4841 -4.1056
   98MOL0     H13189   9.308   2.675   1.261  2.4010 -3.7070  0.6361
   98MOL0     H13190   9.700   2.815   1.046  1.3361  1.5233  1.2175
   98MOL0     H13191   9.908   2.764   1.154 -2.3283  2.8057 -0.7090
   98MOL0     H13192  10.194   2.402   1.257  4.6841 -2.7516 -1.9765
   98MOL0     H13193  10.403   2.328   1.372  1.7395  0.8130  1.0807
   98MOL0     H13194  10.453   2.265   1.648  0.0897  0.9083  0.1100
   98MOL0     H13195  10.574   2.285   1.515 -0.3515  1.1468 -1.1016
   98MOL0     H13196  10.727   2.368   1.678 -0.9595 -0.9699  0.2712
   98MOL0     H13197  10.601   2.371   1.806 -1.4455 -0.0032  0.7272
   98MOL0     H13198  10.599   2.110   1.779  0.5895 -0.6030  1.8345
   98MOL0     H13199  10.698   2.130   1.638 -3.9073  2.3310 -1.4668
   98MOL0     H13200  10.896   2.225   1.797  0.7042 -1.9825 -1.6610
   98MOL0     H13201  10.868   2.061   1.777 -2.1629 -2.0772 -0.6215
   98MOL0     H13202  10.880   2.088   2.020 -0.1232  2.5039  1.1822
   98MOL0     H13203  10.701   2.106   1.997 -2.2468  2.2731 -2.4064
   98MOL0     H13204  10.937   2.314   2.026 -0.1758 -0.5298 -1.2017
   98MOL0     H13205  10.778   2.364   1.980 -0.6641  0.1289 -0.3130
   98MOL0     H13206  10.700   2.258   2.191  0.1657  2.1466 -0.9061
   98MOL0     H13207  10.826   2.369   2.228  2.7716 -0.6458  1.7133
   98MOL0     H13208  10.883   2.201   2.374  0.2868  0.7086  0.4749
   98MOL0     H13209  10.814   2.080   2.265 -3.1501  2.4188  0.3033
   98MOL0     H13210  10.388   2.668   1.638  1.5132 -0.5913  0.2014
   98MOL0     H13211  10.170   2.749   1.515 -1.8689 -1.1636  0.3079
   98MOL0     H13212   9.685   2.484   1.422 -3.0146 -0.1641 -0.3999
   98MOL0     H13213   9.496   2.553   1.330 -2.8307  0.7871 -2.7448
   98MOL0     H13214   7.998   1.767   0.679 -2.7067  2.2482  0.3801
   98MOL0     H13215   7.776   1.755   0.603 -0.1678  0.0747  0.9632
   98MOL0     H13216   7.443   1.616   0.531 -0.5727  1.3777  1.1181
   98MOL0     H13217   7.263   1.641   0.388 -1.1056  0.7339 -0.4898
   98MOL0     H13218   6.895   1.415   0.546  0.4680 -0.4173 -0.0899
   98MOL0     H13219   6.833   1.445   0.395 -0.7613 -0.4201  0.7792
   98MOL0     H13220   6.759   1.665   0.429 -1.3784 -1.4675 -0.0042
   98MOL0     H13221   6.872   1.678   0.569 -2.5631  1.5210  1.3632
   98MOL0     H13222   6.640   1.691   0.632  0.2272  1.5810 -2.0863
   98MOL0     H13223   6.750   1.565   0.706  2.2425  1.6761 -1.5658
   98MOL0     H13224   6.643   1.380   0.608  1.5281  1.4718 -0.6770
   98MOL0     H13225   6.509   1.475   0.655 -0.8044 -1.5671  0.1660
   98MOL0     H13226   6.427   1.464   0.251  0.8576  1.7687 -0.6153
   98MOL0     H13227   7.014   1.478   0.711  0.5974 -1.3050  2.9185
   98MOL0     H13228   7.262   1.412   0.929 -0.5027 -0.2104 -0.3269
   98MOL0     H13229   7.205   1.575   0.957  0.3827  0.6958 -0.0804
   98MOL0     H13230   7.092   1.441   0.911  0.3836  0.5385 -0.0960
   99MOL0     O13231   6.112   3.438  10.018 -0.9760  0.5774  0.0479
   99MOL0     C13232   6.076   3.336   9.965  0.3154  0.2053  0.3435
   99MOL0     O13233   6.152   3.246   9.895 -0.2559 -0.3005  0.6501
   99MOL0     C13234   6.281   3.222   9.923  0.7783  0.0333 -1.1814
   99MOL0     C13235   6.310   3.149  10.038 -0.5234  1.5014  1.0591
   99MOL0     C13236   6.441   3.101  10.061  0.5264 -0.6262 -0.6369
   99MOL0     C13237   6.544   3.129   9.967 -0.2698  0.1155  0.0792
   99MOL0     O13238   6.672   3.073   9.984  0.0977 -0.3940  0.3990
   99MOL0     C13239   6.747   3.034   9.866  0.3415  0.2164 -0.5192
   99MOL0     C13240   6.860   2.942   9.917 -0.0249 -0.1754  0.1485
   99MOL0     C13241   6.976   3.012   9.987  0.1643 -0.2344  0.8525
   99MOL0     C13242   7.100   2.927   9.973  0.0390  0.2577 -0.0244
   99MOL0     C13243   7.224   2.981  10.045 -0.0530 -0.1281  0.7736
   99MOL0     C13244   7.290   3.106   9.977 -0.2131 -0.0124 -0.3271
   99MOL0     C13245   7.428   3.148  10.034 -0.4480 -0.5174  0.2663
   99MOL0     C13246   7.533   3.048   9.980  0.6589  0.6482  0.1052
   99MOL0     N13247   7.662   3.062  10.046 -0.1439 -0.8114 -0.0837
   99MOL0     C13248   7.782   3.104   9.987  0.3862  0.1563  0.2110
   99MOL0     C13249   7.855   3.125  10.092 -0.3396  0.3463 -0.9946
   99MOL0     C13250   7.984   3.206  10.089  0.4158  0.1946  0.2224
   99MOL0     C13251   8.075   3.170  10.209 -0.0774  0.5457  0.6402
   99MOL0     C13252   8.216   3.237  10.191 -0.5809  0.4891 -0.5975
   99MOL0     C13253   8.324   3.161  10.276  1.1090 -0.4310 -0.1368
   99MOL0     O13254   8.445   3.241  10.266  0.8609 -0.1684 -0.1103
   99MOL0     C13255   8.556   3.173  10.315 -0.2701  0.1403 -0.1220
   99MOL0     C13256   8.552   3.099  10.426  0.9031  0.2328  0.1374
   99MOL0     C13257   8.669   3.045  10.481  0.0366 -0.2006  0.6132
   99MOL0     C13258   8.791   3.065  10.422  1.1587 -0.4172  0.2160
   99MOL0     C13259   8.916   2.993  10.460  0.1659 -0.8341 -1.2429
   99MOL0     O13260   9.015   3.017  10.375 -0.1401  0.2485 -0.0139
   99MOL0     C13261   9.144   2.979  10.418 -0.1689 -0.3350 -0.4117
   99MOL0     C13262   9.210   2.887  10.342  0.1272  0.2799 -0.4535
   99MOL0     C13263   9.342   2.853  10.364  0.6132 -0.5245 -0.5071
   99MOL0     C13264   9.413   2.901  10.475  0.0126  0.2737 -0.1859
   99MOL0     O13265   9.543   2.854  10.494  1.1308 -0.5107  0.0036
   99MOL0     C13266   9.583   2.852  10.638  0.1840 -0.3356 -0.2758
   99MOL0     C13267   9.733   2.824  10.636 -0.0240  0.4728  0.6092
   99MOL0     C13268   9.775   2.702  10.552 -0.2280 -0.4923 -0.6187
   99MOL0     C13269   9.925   2.680  10.565 -0.1725 -0.6127 -0.3093
   99MOL0     C13270   9.969   2.562  10.484  0.7002  0.2440 -0.0326
   99MOL0     C13271  10.116   2.548  10.500  0.8413  0.1524  0.7540
   99MOL0     C13272  10.159   2.516  10.637 -0.0369 -0.1072 -0.2839
   99MOL0     C13273  10.315   2.503  10.635  0.0235 -0.6211 -0.4174
   99MOL0    Cl13274  10.380   2.455  10.794  0.0874  0.6869 -0.1839
   99MOL0     C13275   9.345   2.994  10.558  0.6584  0.0765 -0.9292
   99MOL0     C13276   9.220   3.037  10.526  0.0992 -0.2335  0.6617
   99MOL0     O13277   8.917   2.915  10.561  0.3148 -0.1410  0.0851
   99MOL0     C13278   8.795   3.143  10.303  0.3522  0.1789 -0.1466
   99MOL0     C13279   8.676   3.180  10.250 -0.2302 -0.0398  0.2498
   99MOL0     N13280   7.791   3.097  10.217  0.0045  0.5076  0.3842
   99MOL0     N13281   7.674   3.051  10.184  0.7872 -0.8901 -0.3650
   99MOL0     C13282   6.516   3.218   9.858  0.0928 -0.4673 -0.3666
   99MOL0     C13283   6.379   3.254   9.833 -0.5431  0.0845  0.5156
   99MOL0     C13284   5.923   3.326   9.950  0.6980  0.8583 -0.8902
   99MOL0     C13285   5.845   3.441   9.942 -0.0827  0.5244  0.9039
   99MOL0     C13286   5.705   3.429   9.930 -0.3114  0.1243 -0.4315
   99MOL0     C13287   5.636   3.309   9.928 -0.2364 -0.0604 -0.3962
   99MOL0     O13288   5.500   3.312   9.912 -0.2036  0.0841  0.1473
   99MOL0     C13289   5.420   3.188   9.925 -0.5071  0.1527 -0.1722
   99MOL0     C13290   5.272   3.218   9.975 -0.3028  0.3873  0.6286
   99MOL0     C13291   5.221   3.357   9.923  1.3026  0.0991 -0.6703
   99MOL0     C13292   5.076   3.391   9.959  0.1260  0.3373 -0.3992
   99MOL0     C13293   5.055   3.400  10.102 -1.0339  0.6941  0.3986
   99MOL0     C13294   5.039   3.392  10.222  0.2053  0.5037  0.2857
   99MOL0     C13295   5.713   3.197   9.933  0.2206 -0.1675 -0.5379
   99MOL0     C13296   5.853   3.201   9.944  0.3527  0.5568  0.2223
   99MOL0     C13297   5.922   3.069   9.953 -1.0187  0.8678  0.8738
   99MOL0     H13298   6.237   3.112  10.109  0.0050 -0.2860  0.7256
   99MOL0     H13299   6.462   3.033  10.142 -0.0990  0.2840  0.3112
   99MOL0     H13300   6.691   2.981   9.789 -1.6378  0.1613  0.8898
   99MOL0     H13301   6.780   3.128   9.820 -0.9721 -0.0256 -2.0533
   99MOL0     H13302   6.895   2.890   9.827  0.1560 -3.0588  1.7591
   99MOL0     H13303   6.816   2.866   9.983 -2.2663  1.4389  0.6212
   99MOL0     H13304   6.955   3.031  10.092  1.8235  0.4851  1.0915
   99MOL0     H13305   7.003   3.107   9.939  2.1793 -2.8758 -4.0242
   99MOL0     H13306   7.070   2.830  10.014 -1.9417  1.5943  1.8679
   99MOL0     H13307   7.119   2.908   9.866  1.0354  0.4867  0.1091
   99MOL0     H13308   7.195   3.003  10.148 -2.6505 -0.8212  0.2734
   99MOL0     H13309   7.298   2.901  10.047  0.9249  0.7093 -0.2125
   99MOL0     H13310   7.296   3.091   9.869 -2.8575  1.3198 -0.7539
   99MOL0     H13311   7.222   3.191   9.987 -0.9881 -0.3143 -2.5471
   99MOL0     H13312   7.432   3.140  10.143  1.8336 -0.5438  0.2294
   99MOL0     H13313   7.469   3.241   9.994  2.8759 -2.3906 -1.0559
   99MOL0     H13314   7.502   2.947  10.006  0.0000  1.3114  2.0736
   99MOL0     H13315   7.550   3.042   9.872  1.0569 -2.9688  0.2609
   99MOL0     H13316   7.815   3.129   9.886  2.4658  1.0519  1.0556
   99MOL0     H13317   8.034   3.183   9.995 -4.0516 -2.6840 -1.7780
   99MOL0     H13318   7.962   3.312  10.101  0.1955 -0.0734  2.9475
   99MOL0     H13319   8.016   3.192  10.299  0.8386 -0.8005  1.5962
   99MOL0     H13320   8.091   3.062  10.200  1.3528  0.8187 -0.5178
   99MOL0     H13321   8.220   3.335  10.240  1.7259 -0.4822  1.3337
   99MOL0     H13322   8.244   3.252  10.086 -2.3070 -1.3975 -1.3882
   99MOL0     H13323   8.341   3.058  10.244 -0.7421 -0.4614 -1.2034
   99MOL0     H13324   8.283   3.159  10.378  0.1061 -0.5934 -0.5250
   99MOL0     H13325   8.460   3.082  10.481  1.0566 -2.4105 -0.2833
   99MOL0     H13326   8.663   2.984  10.570  0.5623 -2.3562 -0.7535
   99MOL0     H13327   9.158   2.855  10.252 -0.5104  0.4265 -0.1418
   99MOL0     H13328   9.399   2.786  10.301  3.2254 -1.9461  3.0277
   99MOL0     H13329   9.567   2.952  10.678 -2.5649 -0.2971 -1.2177
   99MOL0     H13330   9.528   2.778  10.697  0.0705 -1.0965 -1.2971
   99MOL0     H13331   9.780   2.911  10.589  2.0378 -1.1120 -0.4792
   99MOL0     H13332   9.763   2.799  10.738 -0.3867 -0.9685  0.3925
   99MOL0     H13333   9.733   2.610  10.594 -0.2921 -0.1739  0.0214
   99MOL0     H13334   9.765   2.711  10.443 -3.8161 -0.6931 -0.4217
   99MOL0     H13335   9.943   2.658  10.671  0.2652 -1.0886 -0.4785
   99MOL0     H13336   9.981   2.772  10.547 -0.8089 -0.3179 -0.8179
   99MOL0     H13337   9.942   2.571  10.378 -1.0985  0.2033  0.3806
   99MOL0     H13338   9.928   2.466  10.518 -1.6533 -0.0992 -3.2991
   99MOL0     H13339  10.139   2.465  10.432  0.8875  1.7041 -1.2318
   99MOL0     H13340  10.173   2.632  10.459  3.0229 -1.5253  0.1466
   99MOL0     H13341  10.124   2.421  10.678  4.0598 -2.9722 -2.6335
   99MOL0     H13342  10.137   2.593  10.711  3.5245  1.0145 -0.1860
   99MOL0     H13343  10.355   2.442  10.553 -0.5282 -0.4581 -0.8143
   99MOL0     H13344  10.352   2.603  10.611 -0.5818 -0.5330 -1.0349
   99MOL0     H13345   9.388   3.038  10.648 -1.7841  4.5448 -1.6694
   99MOL0     H13346   9.172   3.107  10.593 -1.4646 -1.4351  0.8616
   99MOL0     H13347   8.879   3.177  10.243 -0.9666  0.1777 -2.1206
   99MOL0     H13348   8.686   3.233  10.156  0.6129 -1.2896 -0.4011
   99MOL0     H13349   6.595   3.241   9.788  0.0525 -3.8900 -1.7313
   99MOL0     H13350   6.354   3.308   9.742 -0.8405 -1.2175 -0.2005
   99MOL0     H13351   5.895   3.538   9.945 -0.9257  1.0789 -1.1269
   99MOL0     H13352   5.638   3.515   9.924 -2.4071 -1.0553  2.9635
   99MOL0     H13353   5.469   3.119   9.995  1.6452  0.0078 -1.7347
   99MOL0     H13354   5.431   3.138   9.829  0.8793 -1.3176  0.6995
   99MOL0     H13355   5.274   3.212  10.084  2.1088 -0.0426  0.6210
   99MOL0     H13356   5.207   3.135   9.948  0.3288 -0.5842  2.0033
   99MOL0     H13357   5.213   3.339   9.816  0.2603  1.5393 -0.8697
   99MOL0     H13358   5.290   3.439   9.943  0.4422  0.6516  0.1801
   99MOL0     H13359   5.050   3.486   9.912 -0.5905  0.2282 -0.2400
   99MOL0     H13360   5.006   3.319   9.914 -0.3213  0.8879 -0.5975
   99MOL0     H13361   5.027   3.378  10.328  0.6866  1.6718  0.5120
   99MOL0     H13362   5.672   3.096   9.934  1.7645 -0.8963  2.4404
   99MOL0     H13363   6.011   3.075  10.016  2.8178 -0.5082 -3.7971
   99MOL0     H13364   5.853   2.990   9.982 -1.2353  1.1601  1.1591
   99MOL0     H13365   5.963   3.053   9.853  1.5979  0.1320  1.9780
  100MOL0     O13366   1.136   8.791   8.213 -0.5370 -0.2633  0.0558
  100MOL0     C13367   1.232   8.723   8.251  1.1024  0.8064 -1.3699
  100MOL0     O13368   1.326   8.666   8.174 -0.3107  0.0247  0.3135
  100MOL0     C13369   1.313   8.692   8.040  0.9488  0.5811 -0.1163
  100MOL0     C13370   1.288   8.584   7.960  0.1837  0.9514 -0.0841
  100MOL0     C13371   1.276   8.600   7.826 -0.5471  0.5718  0.0047
  100MOL0     C13372   1.292   8.724   7.767 -0.4562 -0.4539 -0.8620
  100MOL0     O13373   1.296   8.730   7.633 -0.0559  0.3990  0.0957
  100MOL0     C13374   1.276   8.856   7.566  0.3438  0.3036  0.7047
  100MOL0     C13375   1.335   8.852   7.427  0.5716 -0.1193 -0.0543
  100MOL0     C13376   1.475   8.786   7.411 -0.2164 -0.4677 -0.1606
  100MOL0     C13377   1.582   8.844   7.511 -0.1987  0.6985  0.2610
  100MOL0     C13378   1.728   8.828   7.466 -0.1294  0.5209 -0.0640
  100MOL0     C13379   1.829   8.913   7.546  0.2317  0.1785 -0.7365
  100MOL0     C13380   1.959   8.921   7.468 -0.0530  0.3356  0.5033
  100MOL0     C13381   2.075   8.993   7.536  0.2346  0.3495  1.0257
  100MOL0     N13382   2.131   8.905   7.640  0.2549  0.4606 -0.4145
  100MOL0     C13383   2.188   8.784   7.618 -1.0067 -0.5203  0.7010
  100MOL0     C13384   2.265   8.751   7.726 -0.1397 -0.4003 -1.1169
  100MOL0     C13385   2.373   8.647   7.728  0.0870 -0.3746  0.3650
  100MOL0     C13386   2.367   8.547   7.842  0.5872  0.0466 -0.4754
  100MOL0     C13387   2.495   8.462   7.846  0.1264 -0.6739  0.2052
  100MOL0     C13388   2.512   8.364   7.966  0.5359 -0.5502  0.4946
  100MOL0     O13389   2.570   8.428   8.081 -0.1937  0.7957 -0.4646
  100MOL0     C13390   2.700   8.390   8.103 -1.0219  0.9328 -0.4652
  100MOL0     C13391   2.737   8.332   8.228  0.4622 -0.0679 -0.3384
  100MOL0     C13392   2.867   8.300   8.262  0.1997 -0.4093 -0.6420
  100MOL0     C13393   2.972   8.332   8.175 -1.4689 -0.8453  0.0581
  100MOL0     C13394   3.115   8.313   8.217  0.2911  0.5195 -0.0619
  100MOL0     O13395   3.133   8.250   8.337 -0.3556  0.4230 -0.5397
  100MOL0     C13396   3.259   8.232   8.396 -0.4579 -0.4107 -0.4687
  100MOL0     C13397   3.385   8.236   8.332  0.6857  0.8131  0.2662
  100MOL0     C13398   3.505   8.211   8.410  0.2727 -0.3640  0.7134
  100MOL0     C13399   3.512   8.203   8.545  0.9167  0.0919 -0.5248
  100MOL0     O13400   3.634   8.186   8.603  0.1811  0.4247  0.8358
  100MOL0     C13401   3.640   8.068   8.683 -0.7046  0.4478 -0.0976
  100MOL0     C13402   3.785   8.040   8.703  0.2148 -0.5841 -0.2412
  100MOL0     C13403   3.837   7.998   8.565  0.0524 -0.3243 -0.4452
  100MOL0     C13404   3.986   7.930   8.592  0.2947 -0.9053 -0.0730
  100MOL0     C13405   3.982   7.779   8.623 -0.2060 -0.3211 -0.0438
  100MOL0     C13406   4.129   7.715   8.644 -0.4451 -0.2493 -0.3727
  100MOL0     C13407   4.114   7.567   8.695 -0.4313  0.3832  0.0481
  100MOL0     C13408   4.069   7.473   8.587 -0.0184  0.3207  0.6158
  100MOL0    Cl13409   4.047   7.311   8.655 -0.3913 -0.4497  0.0258
  100MOL0     C13410   3.382   8.206   8.607 -0.2159 -0.0633 -0.5729
  100MOL0     C13411   3.260   8.207   8.536  0.0088  0.5449 -0.9106
  100MOL0     O13412   3.200   8.361   8.147  0.3052  0.1169 -0.2683
  100MOL0     C13413   2.947   8.401   8.058  0.2722 -0.0027 -0.3938
  100MOL0     C13414   2.808   8.423   8.020 -0.0413  0.0804 -0.2331
  100MOL0     N13415   2.249   8.854   7.816  0.6107  1.2951 -0.0979
  100MOL0     N13416   2.164   8.948   7.765  0.0373 -0.0122  0.0660
  100MOL0     C13417   1.314   8.841   7.849  0.3818  0.0916  0.3622
  100MOL0     C13418   1.323   8.823   7.983 -0.1272  0.3345  0.6436
  100MOL0     C13419   1.236   8.696   8.400  0.8216 -0.2264 -0.1577
  100MOL0     C13420   1.123   8.742   8.486  0.2342 -0.2617 -0.5560
  100MOL0     C13421   1.138   8.745   8.627  0.1041 -0.1521  0.2779
  100MOL0     C13422   1.251   8.704   8.693  0.1014  0.7052 -0.4153
  100MOL0     O13423   1.278   8.722   8.822  0.3084 -0.0232  0.5119
  100MOL0     C13424   1.172   8.716   8.914 -1.6146 -0.3783  0.6843
  100MOL0     C13425   1.135   8.571   8.951 -0.0577  0.1384 -0.6686
  100MOL0     C13426   1.020   8.586   9.051  0.7158  0.4310 -0.2435
  100MOL0     C13427   0.936   8.454   9.063 -1.1490  0.8658  0.8151
  100MOL0     C13428   0.831   8.458   9.165 -0.7884 -0.4374 -0.0158
  100MOL0     C13429   0.758   8.444   9.261  0.3157  0.0268  0.2439
  100MOL0     C13430   1.354   8.659   8.612 -0.4302 -0.2011  0.8118
  100MOL0     C13431   1.349   8.653   8.473 -0.4607  0.4909 -0.7490
  100MOL0     C13432   1.481   8.612   8.407  0.2897  0.2637 -0.3655
  100MOL0     H13433   1.273   8.488   8.007 -0.1234  0.2396 -1.5745
  100MOL0     H13434   1.252   8.520   7.757  2.5978  0.5082 -1.1779
  100MOL0     H13435   1.171   8.883   7.556  0.2753 -0.4554 -0.8751
  100MOL0     H13436   1.331   8.937   7.616  0.6520  0.9253 -0.6017
  100MOL0     H13437   1.331   8.953   7.383 -0.9806 -1.1342 -2.4397
  100MOL0     H13438   1.260   8.792   7.374 -0.6856  0.2414  1.2589
  100MOL0     H13439   1.496   8.785   7.304 -2.3862  1.0988 -0.6681
  100MOL0     H13440   1.467   8.680   7.438 -0.7780  0.1513  2.4015
  100MOL0     H13441   1.562   8.950   7.532 -1.8450 -0.1026  3.5239
  100MOL0     H13442   1.558   8.796   7.606 -0.3456 -0.7506 -0.4888
  100MOL0     H13443   1.766   8.726   7.482 -1.4355  0.2585  1.6184
  100MOL0     H13444   1.743   8.858   7.362 -1.3239  0.6678 -0.2046
  100MOL0     H13445   1.791   9.012   7.572 -0.1233 -0.7981  3.2201
  100MOL0     H13446   1.844   8.865   7.644  0.7915  1.2310 -0.2916
  100MOL0     H13447   1.946   8.980   7.376  0.5454  0.6742  0.6324
  100MOL0     H13448   1.985   8.819   7.440  1.2362 -0.0922  2.9877
  100MOL0     H13449   2.153   9.009   7.461  0.2119  0.1389  0.9579
  100MOL0     H13450   2.037   9.090   7.570  0.1247 -0.3342  3.0031
  100MOL0     H13451   2.196   8.738   7.520  2.8213  2.7634 -0.8212
  100MOL0     H13452   2.375   8.594   7.632 -1.8097  0.7847 -0.3584
  100MOL0     H13453   2.463   8.709   7.734  0.0257 -0.3034  0.5828
  100MOL0     H13454   2.378   8.615   7.927  0.1529  2.0588 -1.9493
  100MOL0     H13455   2.284   8.476   7.834  2.5063 -2.1588 -2.5698
  100MOL0     H13456   2.577   8.534   7.855  0.1510 -0.6811  0.0267
  100MOL0     H13457   2.503   8.394   7.762  0.0761 -0.2439 -0.1516
  100MOL0     H13458   2.572   8.281   7.929 -0.9023 -0.4539 -2.3363
  100MOL0     H13459   2.414   8.330   8.002 -1.8251  3.6082 -1.1995
  100MOL0     H13460   2.654   8.300   8.291 -0.0893 -0.0219 -1.0227
  100MOL0     H13461   2.873   8.240   8.352  1.8177 -0.4004 -0.7162
  100MOL0     H13462   3.391   8.261   8.226  1.5944  0.5619  0.2518
  100MOL0     H13463   3.600   8.226   8.361  0.5093  2.0246  1.7331
  100MOL0     H13464   3.602   8.088   8.785  4.9621 -1.6509  2.8359
  100MOL0     H13465   3.581   7.988   8.637  2.2948 -2.1935  0.3411
  100MOL0     H13466   3.845   8.124   8.741  1.9625 -3.1608  3.2765
  100MOL0     H13467   3.794   7.954   8.771  0.6304 -1.2200 -1.0862
  100MOL0     H13468   3.763   7.936   8.514  0.1107  0.2241 -1.2040
  100MOL0     H13469   3.846   8.095   8.515  2.0713  0.1111  0.6411
  100MOL0     H13470   4.030   7.986   8.675 -1.2060 -0.3800  0.4079
  100MOL0     H13471   4.052   7.943   8.506 -4.1607  3.4767 -3.4565
  100MOL0     H13472   3.936   7.723   8.541 -2.6438  0.7505  0.4916
  100MOL0     H13473   3.920   7.764   8.712 -0.7460 -0.9833 -0.5291
  100MOL0     H13474   4.182   7.717   8.548  0.5061 -1.8478  0.0904
  100MOL0     H13475   4.187   7.771   8.718  0.0902 -1.8750  0.4842
  100MOL0     H13476   4.038   7.565   8.773 -0.2488 -0.3319  0.2142
  100MOL0     H13477   4.211   7.532   8.731  0.8248  0.1480 -3.1895
  100MOL0     H13478   3.985   7.512   8.529 -2.0836 -3.2040  0.9852
  100MOL0     H13479   4.148   7.466   8.512  0.1200  3.3833  0.3534
  100MOL0     H13480   3.379   8.185   8.713  1.1930 -3.6827 -1.1003
  100MOL0     H13481   3.167   8.196   8.591 -0.8492 -0.0190 -2.4279
  100MOL0     H13482   3.017   8.459   7.999 -0.6537  2.9686  1.2386
  100MOL0     H13483   2.771   8.473   7.931 -1.9381  1.0476  1.0219
  100MOL0     H13484   1.301   8.938   7.802  1.0344 -0.3174 -0.6967
  100MOL0     H13485   1.340   8.903   8.055  2.0062 -0.4274  1.0760
  100MOL0     H13486   1.037   8.793   8.443 -0.0293  0.0537  0.3265
  100MOL0     H13487   1.044   8.765   8.678  0.5248 -1.2932  1.5927
  100MOL0     H13488   1.081   8.772   8.892 -1.1325  0.9218  1.8906
  100MOL0     H13489   1.211   8.761   9.005 -1.4574 -0.1953  0.5270
  100MOL0     H13490   1.226   8.531   8.996  0.5826  2.2226 -0.0168
  100MOL0     H13491   1.101   8.525   8.858 -0.7142 -0.2714 -0.2319
  100MOL0     H13492   0.947   8.662   9.020  0.7614  1.1671  1.3695
  100MOL0     H13493   1.053   8.605   9.153 -0.8136  1.5148  0.0905
  100MOL0     H13494   0.889   8.437   8.965 -0.7722  1.5338  0.5099
  100MOL0     H13495   1.001   8.370   9.088 -0.8947  0.7396 -0.2298
  100MOL0     H13496   0.698   8.421   9.346  0.1006  1.0695  0.3860
  100MOL0     H13497   1.441   8.615   8.660  0.7802 -0.5995 -1.6050
  100MOL0     H13498   1.529   8.688   8.343 -1.7263 -0.3929 -2.8200
  100MOL0     H13499   1.551   8.573   8.481 -0.7905 -0.4528  0.2938
  100MOL0     H13500   1.466   8.523   8.346 -2.1946 -0.1209  0.7102
  101MOL0     O13501   7.442   5.448   8.488  0.2282 -0.2150  0.2911
  101MOL0     C13502   7.388   5.340   8.501  0.7316 -0.0303  0.4611
  101MOL0     O13503   7.452   5.224   8.541  0.1378 -0.4489  0.2334
  101MOL0     C13504   7.589   5.211   8.563  0.5567 -0.4723 -0.3178
  101MOL0     C13505   7.683   5.298   8.508 -0.2658 -0.7065  0.4168
  101MOL0     C13506   7.821   5.273   8.531  0.3655  0.0778  0.2007
  101MOL0     C13507   7.867   5.164   8.611  0.2923  0.0346 -0.3006
  101MOL0     O13508   7.994   5.132   8.653 -0.1735  0.1506 -0.4255
  101MOL0     C13509   8.099   5.213   8.594  0.4097  0.5483  0.5570
  101MOL0     C13510   8.228   5.159   8.643 -0.0611  0.7226  0.1749
  101MOL0     C13511   8.285   5.056   8.545 -0.2546 -0.4414  0.5139
  101MOL0     C13512   8.404   5.121   8.479 -0.3069 -0.2933 -0.5361
  101MOL0     C13513   8.535   5.136   8.553 -0.9558  0.4041  0.0314
  101MOL0     C13514   8.647   5.189   8.457  0.1915 -0.4986 -0.6191
  101MOL0     C13515   8.782   5.154   8.523  0.3403  0.1540  0.0685
  101MOL0     C13516   8.885   5.138   8.411  0.2954  0.5785 -0.1976
  101MOL0     N13517   9.025   5.168   8.463  0.2362  0.0366 -0.4064
  101MOL0     C13518   9.119   5.074   8.492 -0.1131  0.2713 -0.2434
  101MOL0     C13519   9.235   5.140   8.512  0.0547  0.9949 -0.4608
  101MOL0     C13520   9.371   5.082   8.542  0.2572 -0.4731  0.3624
  101MOL0     C13521   9.364   4.996   8.672 -0.8766 -0.3918 -0.6692
  101MOL0     C13522   9.476   4.903   8.694 -0.3256  0.4186 -0.4818
  101MOL0     C13523   9.605   4.977   8.725  0.3291  0.0702  0.4275
  101MOL0     O13524   9.695   4.872   8.746 -0.4073 -0.2300 -0.0733
  101MOL0     C13525   9.819   4.906   8.797  0.2207  0.1018 -1.3653
  101MOL0     C13526   9.916   4.804   8.805 -0.4212 -0.3739  0.8959
  101MOL0     C13527  10.050   4.831   8.855  0.1647 -0.1138 -0.4373
  101MOL0     C13528  10.084   4.959   8.900 -0.8646  0.1990  0.2577
  101MOL0     C13529  10.224   4.990   8.954  0.8594  0.4479  0.1507
  101MOL0     O13530  10.319   4.892   8.951  0.0378  0.1289 -0.4267
  101MOL0     C13531  10.446   4.931   9.005  0.0181  0.4515  0.2060
  101MOL0     C13532  10.545   4.966   8.920  0.4059  0.4598 -0.1470
  101MOL0     C13533  10.669   5.010   8.974 -0.4221 -0.4546 -0.3305
  101MOL0     C13534  10.694   5.013   9.104  0.3278  0.6892 -0.2591
  101MOL0     O13535  10.817   5.059   9.169 -0.2258  0.3249  0.3223
  101MOL0     C13536  10.935   5.103   9.106 -1.0017 -0.3132 -0.3323
  101MOL0     C13537  11.046   5.078   9.207 -0.3265  0.4399  0.0453
  101MOL0     C13538  11.185   5.097   9.141 -0.1538 -0.7548  0.1296
  101MOL0     C13539  11.290   5.066   9.245  0.3737  0.4697  0.4130
  101MOL0     C13540  11.392   4.962   9.199 -0.7167  0.8331  0.8382
  101MOL0     C13541  11.496   5.011   9.094 -0.4458  0.1439  0.8578
  101MOL0     C13542  11.570   5.147   9.120 -1.6407 -0.5573 -0.0163
  101MOL0     C13543  11.682   5.175   9.019  0.0415 -0.3277  0.3786
  101MOL0    Cl13544  11.634   5.156   8.841 -0.1159 -0.0392  0.1939
  101MOL0     C13545  10.586   4.972   9.187 -0.1931  0.4493  0.0332
  101MOL0     C13546  10.464   4.927   9.139  0.4349  0.0420  0.4355
  101MOL0     O13547  10.237   5.101   8.993  0.0291 -0.1994 -0.0870
  101MOL0     C13548   9.980   5.058   8.902 -0.2228  1.2017 -0.1294
  101MOL0     C13549   9.853   5.036   8.850 -0.0394 -0.2094 -0.0610
  101MOL0     N13550   9.204   5.272   8.492  0.1517 -0.0764 -0.0501
  101MOL0     N13551   9.079   5.289   8.475 -0.1796 -0.2234 -0.1869
  101MOL0     C13552   7.761   5.085   8.668 -1.0671 -0.3578 -1.2433
  101MOL0     C13553   7.631   5.106   8.638  0.8464  0.1978 -0.4404
  101MOL0     C13554   7.244   5.322   8.472 -0.2994  0.4048  0.3597
  101MOL0     C13555   7.196   5.425   8.390 -0.2737 -0.3170 -0.2349
  101MOL0     C13556   7.074   5.409   8.332 -0.0388 -0.5136 -0.2746
  101MOL0     C13557   6.999   5.296   8.345  0.2473  0.1136  0.4806
  101MOL0     O13558   6.873   5.306   8.297 -0.2034 -0.8785  0.0398
  101MOL0     C13559   6.809   5.187   8.250 -0.9231 -0.8205  0.1046
  101MOL0     C13560   6.689   5.248   8.186  0.0826  0.0398 -0.2401
  101MOL0     C13561   6.585   5.147   8.128 -0.2736 -0.1875 -0.1880
  101MOL0     C13562   6.486   5.225   8.057  0.8962 -0.3681 -0.1772
  101MOL0     C13563   6.397   5.133   7.988 -0.0171  0.3734  0.3083
  101MOL0     C13564   6.309   5.068   7.929 -0.3673  0.0480 -0.6308
  101MOL0     C13565   7.041   5.188   8.421 -0.5610  1.7205 -0.1331
  101MOL0     C13566   7.172   5.200   8.479  0.2363  0.8786 -0.8022
  101MOL0     C13567   7.209   5.090   8.568 -0.4394  0.2423  0.0273
  101MOL0     H13568   7.667   5.383   8.441  3.1378  0.5862  1.0591
  101MOL0     H13569   7.892   5.344   8.491 -1.3439  1.2274 -0.9610
  101MOL0     H13570   8.091   5.202   8.486  0.3535 -1.3545  0.7108
  101MOL0     H13571   8.093   5.320   8.616  0.0154  1.1442 -2.1919
  101MOL0     H13572   8.213   5.108   8.739  1.6176  0.2245  0.2206
  101MOL0     H13573   8.300   5.236   8.674  0.6186 -0.3001  1.2307
  101MOL0     H13574   8.218   5.028   8.464  2.0463  0.5954 -1.8874
  101MOL0     H13575   8.304   4.965   8.603 -0.8662  1.2165  3.5282
  101MOL0     H13576   8.437   5.057   8.396  0.3679 -1.6518  0.7191
  101MOL0     H13577   8.372   5.213   8.429 -0.6619 -1.5115 -2.6864
  101MOL0     H13578   8.518   5.205   8.637  0.2003  1.1335 -0.3188
  101MOL0     H13579   8.563   5.036   8.587 -0.7817 -0.4539 -2.4809
  101MOL0     H13580   8.648   5.146   8.356  5.1041 -1.4197 -0.4540
  101MOL0     H13581   8.633   5.297   8.451 -3.6311 -0.7875  0.8666
  101MOL0     H13582   8.781   5.072   8.595 -1.2473  1.2392  1.3532
  101MOL0     H13583   8.815   5.246   8.573 -1.7622  0.8200  0.3354
  101MOL0     H13584   8.884   5.035   8.374  1.1786  0.3794  0.3200
  101MOL0     H13585   8.865   5.203   8.325 -1.3911 -1.5902 -1.5715
  101MOL0     H13586   9.111   4.966   8.496  1.8461  0.1181  2.6645
  101MOL0     H13587   9.405   5.032   8.451 -1.5576  0.1023 -0.6940
  101MOL0     H13588   9.439   5.165   8.559  1.2267 -0.9001 -1.2452
  101MOL0     H13589   9.351   5.066   8.754  3.2684  1.5903 -1.4030
  101MOL0     H13590   9.284   4.922   8.665 -0.0195 -1.9525  3.2894
  101MOL0     H13591   9.490   4.820   8.625 -1.2052 -1.2301  1.2471
  101MOL0     H13592   9.455   4.853   8.788  1.0872 -0.8539 -0.8047
  101MOL0     H13593   9.600   5.052   8.805 -0.2627 -1.0070  1.4404
  101MOL0     H13594   9.644   5.028   8.637  0.1656 -1.8051 -0.7997
  101MOL0     H13595   9.894   4.704   8.769  2.2415 -0.9521  0.6645
  101MOL0     H13596  10.122   4.751   8.865 -1.4081 -1.2829  3.3034
  101MOL0     H13597  10.515   4.966   8.816 -2.1869  1.2194  0.5225
  101MOL0     H13598  10.736   5.058   8.903 -1.2303 -2.2479 -2.4259
  101MOL0     H13599  10.956   5.049   9.014 -1.0233 -0.7989 -0.0586
  101MOL0     H13600  10.933   5.210   9.086 -0.3208  0.5919  3.5404
  101MOL0     H13601  11.039   5.151   9.287  1.3980  0.1967  0.4602
  101MOL0     H13602  11.032   4.978   9.250 -0.9841  0.0421 -1.0429
  101MOL0     H13603  11.191   5.030   9.055  1.0301 -0.4564 -0.0440
  101MOL0     H13604  11.197   5.201   9.110  0.1395 -1.1237 -1.0278
  101MOL0     H13605  11.241   5.036   9.338 -3.8665  2.1026 -1.0302
  101MOL0     H13606  11.348   5.157   9.265  2.6453 -0.5574 -1.1333
  101MOL0     H13607  11.337   4.873   9.166 -1.7008  0.3235  3.5917
  101MOL0     H13608  11.452   4.928   9.285 -0.4549  0.9307  0.6941
  101MOL0     H13609  11.567   4.932   9.068  0.2080  1.3972 -1.4164
  101MOL0     H13610  11.435   5.022   9.005  0.8729 -2.9281 -0.5826
  101MOL0     H13611  11.615   5.134   9.219  2.5722 -0.8939 -1.7678
  101MOL0     H13612  11.502   5.232   9.115  0.5131  1.3893  1.3715
  101MOL0     H13613  11.736   5.268   9.037  1.3641 -1.2547  1.3428
  101MOL0     H13614  11.745   5.086   9.028  0.7547 -0.6737 -4.8285
  101MOL0     H13615  10.602   4.964   9.294  0.8226 -0.2972 -0.1538
  101MOL0     H13616  10.378   4.894   9.196  0.6015  0.0639  0.7002
  101MOL0     H13617   9.999   5.154   8.949  2.1450  2.3405 -3.0683
  101MOL0     H13618   9.782   5.118   8.850  1.3202  1.0155 -1.0612
  101MOL0     H13619   7.801   5.008   8.733  1.9357  2.5029  0.6494
  101MOL0     H13620   7.569   5.029   8.681  3.2583 -1.0771  0.9649
  101MOL0     H13621   7.240   5.525   8.386  1.3157 -0.9067  1.1830
  101MOL0     H13622   7.039   5.485   8.263 -1.9911 -3.3001 -2.6088
  101MOL0     H13623   6.784   5.123   8.335  0.9656  0.3811  1.6230
  101MOL0     H13624   6.867   5.125   8.181 -0.8213  0.2512 -0.8178
  101MOL0     H13625   6.725   5.300   8.097  1.0545 -0.1103  0.0634
  101MOL0     H13626   6.637   5.314   8.257  0.3523  0.4323 -0.4044
  101MOL0     H13627   6.531   5.095   8.208 -0.6584 -0.3115 -0.5248
  101MOL0     H13628   6.637   5.079   8.061  1.9601 -1.0132  2.2349
  101MOL0     H13629   6.422   5.283   8.124  3.7192  0.8275  1.6636
  101MOL0     H13630   6.529   5.286   7.978  0.0754  0.9717  0.3755
  101MOL0     H13631   6.237   5.011   7.874 -3.1706 -0.0616  2.8010
  101MOL0     H13632   6.966   5.111   8.438  0.9189  0.1468 -0.5313
  101MOL0     H13633   7.124   5.022   8.583  0.6845 -1.0305  0.9043
  101MOL0     H13634   7.287   5.027   8.526  0.6156  0.2868  1.8137
  101MOL0     H13635   7.240   5.126   8.667  0.6102 -2.3272  0.7136
  102MOL0     O13636   0.631   8.767  10.509  0.1733 -0.0124  0.6402
  102MOL0     C13637   0.586   8.880  10.535 -0.6029 -0.6332  0.8986
  102MOL0     O13638   0.657   8.969  10.607 -0.2894 -0.3486 -0.7430
  102MOL0     C13639   0.759   8.931  10.690  0.0017  0.2269 -0.8138
  102MOL0     C13640   0.731   8.866  10.814 -0.2950  0.2934  0.9838
  102MOL0     C13641   0.843   8.832  10.888 -0.8785  0.4938  0.1662
  102MOL0     C13642   0.974   8.836  10.830  1.0893 -0.5848  0.0010
  102MOL0     O13643   1.084   8.785  10.887  0.3371  0.4793 -0.4104
  102MOL0     C13644   1.081   8.715  11.013  0.5432 -0.5741 -0.5124
  102MOL0     C13645   1.217   8.695  11.058 -0.2014  1.2910 -0.7731
  102MOL0     C13646   1.281   8.820  11.111  0.0361 -0.1663  0.1901
  102MOL0     C13647   1.411   8.785  11.187  0.1341  0.3302 -0.5252
  102MOL0     C13648   1.539   8.776  11.091 -0.1716  0.4403 -0.0253
  102MOL0     C13649   1.678   8.741  11.145 -0.5183  0.3964  0.8139
  102MOL0     C13650   1.785   8.719  11.032  1.0291  0.1913 -0.9134
  102MOL0     C13651   1.929   8.707  11.073  0.1390 -0.0736 -0.7049
  102MOL0     N13652   2.026   8.721  10.966 -0.2554 -0.0218  0.4353
  102MOL0     C13653   2.007   8.793  10.848  0.2237  0.2834  0.0573
  102MOL0     C13654   2.128   8.811  10.794 -0.3496 -0.1574  0.2974
  102MOL0     C13655   2.174   8.908  10.689 -0.0819 -0.2981 -0.1545
  102MOL0     C13656   2.327   8.912  10.670  0.5901  0.1148 -0.2798
  102MOL0     C13657   2.357   9.024  10.570  0.3104 -0.6631 -0.4497
  102MOL0     C13658   2.491   9.009  10.494  0.1091 -0.4546  0.4776
  102MOL0     O13659   2.481   8.898  10.404 -0.2497 -0.0251 -0.6566
  102MOL0     C13660   2.575   8.899  10.306  0.9208 -0.3620  0.8272
  102MOL0     C13661   2.540   8.900  10.172 -0.0832  0.1846 -0.1041
  102MOL0     C13662   2.645   8.902  10.081 -0.9400  0.4009  0.5351
  102MOL0     C13663   2.776   8.901  10.124  0.0434  0.3421  0.4630
  102MOL0     C13664   2.889   8.923  10.027  0.0038 -0.4366 -0.8981
  102MOL0     O13665   3.019   8.930  10.085  0.1076 -0.3247  0.7949
  102MOL0     C13666   3.131   8.924  10.008  0.7094  0.1696 -0.0112
  102MOL0     C13667   3.240   8.883  10.074 -0.3747  0.3550 -0.4510
  102MOL0     C13668   3.360   8.887  10.007 -0.2020 -0.1357  0.5029
  102MOL0     C13669   3.377   8.933   9.877  0.5323 -0.1391  0.5623
  102MOL0     O13670   3.491   8.911   9.804 -0.0329 -0.3003  0.4981
  102MOL0     C13671   3.618   8.962   9.847  0.4253 -0.0612 -0.4153
  102MOL0     C13672   3.733   8.937   9.747  0.4024  0.2690  0.2714
  102MOL0     C13673   3.868   8.970   9.809  0.2869 -0.2828  0.5162
  102MOL0     C13674   3.980   8.946   9.713  1.1008  0.0410  0.4065
  102MOL0     C13675   4.112   8.962   9.787 -0.9316 -0.3055 -0.3714
  102MOL0     C13676   4.222   8.996   9.696  0.0343 -0.1227  0.0909
  102MOL0     C13677   4.345   9.060   9.765 -0.0328  0.2956 -0.0176
  102MOL0     C13678   4.408   8.978   9.881 -0.3567  0.2523  0.5421
  102MOL0    Cl13679   4.442   8.809   9.818  0.4361 -0.0397 -0.0139
  102MOL0     C13680   3.264   8.983   9.814  0.9885  0.3586  0.3915
  102MOL0     C13681   3.140   8.989   9.882 -0.3743  0.0524  0.3811
  102MOL0     O13682   2.857   8.925   9.908  0.0941 -0.2442  0.0923
  102MOL0     C13683   2.809   8.881  10.258  0.2553 -0.2540  0.5662
  102MOL0     C13684   2.708   8.886  10.346 -0.1191 -0.3953 -0.2547
  102MOL0     N13685   2.213   8.739  10.873  0.1478  0.6551 -0.1958
  102MOL0     N13686   2.159   8.702  10.984  0.2975  0.2657 -0.2330
  102MOL0     C13687   0.989   8.906  10.708 -0.4838 -0.1322  0.0929
  102MOL0     C13688   0.882   8.957  10.646  0.3104  0.2705  0.3354
  102MOL0     C13689   0.461   8.919  10.468 -0.6009  0.3557 -0.0404
  102MOL0     C13690   0.439   8.879  10.337 -0.2983 -0.1076  0.1705
  102MOL0     C13691   0.318   8.913  10.264 -0.3202 -0.1386 -0.3087
  102MOL0     C13692   0.225   8.990  10.329 -0.3048  0.1374  0.0477
  102MOL0     O13693   0.110   9.013  10.261  0.4444 -0.3204  0.4563
  102MOL0     C13694   0.036   9.138  10.266 -0.3350  0.7673 -0.2504
  102MOL0     C13695  -0.101   9.105  10.327  0.0551  0.0932 -0.3483
  102MOL0     C13696  -0.115   9.095  10.480 -0.3274 -0.1063  0.2668
  102MOL0     C13697  -0.107   9.237  10.538 -0.5764  0.1027 -0.4528
  102MOL0     C13698  -0.085   9.223  10.684  0.1039  0.0882  0.6931
  102MOL0     C13699  -0.062   9.199  10.797  0.3482  0.0392 -0.0645
  102MOL0     C13700   0.248   9.038  10.452 -0.2322 -0.4948  0.3216
  102MOL0     C13701   0.362   9.007  10.524  0.2267  0.0509  0.0598
  102MOL0     C13702   0.358   9.051  10.669  0.1304 -0.0598  0.1337
  102MOL0     H13703   0.628   8.857  10.847 -1.1820 -0.2685 -1.6816
  102MOL0     H13704   0.819   8.787  10.984  0.3654 -1.4887 -0.3846
  102MOL0     H13705   1.021   8.772  11.084  1.0582 -1.9240  1.0666
  102MOL0     H13706   1.023   8.623  10.998 -1.5996  0.5801  0.2164
  102MOL0     H13707   1.287   8.663  10.979  3.0749  2.5099  1.3962
  102MOL0     H13708   1.209   8.619  11.136 -0.8372 -0.4832 -2.4825
  102MOL0     H13709   1.205   8.870  11.173 -0.2015 -0.4932  0.1634
  102MOL0     H13710   1.301   8.886  11.026  1.1819  2.4819  2.3523
  102MOL0     H13711   1.431   8.869  11.255 -0.9140  0.4139 -0.3073
  102MOL0     H13712   1.395   8.689  11.235  1.8159 -0.4441 -1.4334
  102MOL0     H13713   1.520   8.706  11.010 -0.5281  1.8040 -1.1655
  102MOL0     H13714   1.540   8.881  11.061 -0.6058 -0.0164 -1.7536
  102MOL0     H13715   1.714   8.822  11.208  1.5005 -0.1742  0.4526
  102MOL0     H13716   1.675   8.646  11.198  1.2297  0.3334  0.8666
  102MOL0     H13717   1.788   8.807  10.967  2.0919 -0.3737 -1.6601
  102MOL0     H13718   1.762   8.634  10.967 -0.8028  0.0416 -0.1253
  102MOL0     H13719   1.950   8.789  11.141  1.4573  0.2910 -1.5120
  102MOL0     H13720   1.946   8.610  11.121 -0.6855 -0.9617 -2.1193
  102MOL0     H13721   1.914   8.824  10.800 -0.6855 -0.6455  1.1365
  102MOL0     H13722   2.130   8.867  10.597  1.6113 -2.4038 -0.0959
  102MOL0     H13723   2.129   9.005  10.711  0.4518 -0.0105 -0.3138
  102MOL0     H13724   2.378   8.937  10.763 -0.5159 -0.8582  0.6308
  102MOL0     H13725   2.375   8.818  10.643  0.4708  0.0622 -0.3132
  102MOL0     H13726   2.371   9.109  10.638  0.6665 -0.1202 -1.1869
  102MOL0     H13727   2.271   9.040  10.504 -2.8093 -0.5623  3.2960
  102MOL0     H13728   2.559   8.987  10.578 -1.4213  2.1313  2.5656
  102MOL0     H13729   2.522   9.100  10.442 -0.0332 -1.6685 -1.8306
  102MOL0     H13730   2.441   8.904  10.129  0.2940 -1.5002 -1.2101
  102MOL0     H13731   2.622   8.914   9.976  2.8948 -1.6481 -0.7131
  102MOL0     H13732   3.220   8.844  10.173  0.3570 -3.4926 -1.6330
  102MOL0     H13733   3.454   8.848  10.045  1.0169 -0.2877 -2.3917
  102MOL0     H13734   3.614   9.070   9.862  0.9565  0.0097 -0.7831
  102MOL0     H13735   3.631   8.930   9.951 -1.0646  3.4014  0.9913
  102MOL0     H13736   3.729   8.833   9.713 -1.0096  0.8697 -1.5117
  102MOL0     H13737   3.709   8.997   9.660 -2.3598 -3.2712 -1.6900
  102MOL0     H13738   3.865   9.070   9.851 -0.7936 -0.3299  0.5911
  102MOL0     H13739   3.882   8.902   9.893  1.4439 -0.4506  0.2044
  102MOL0     H13740   3.968   9.019   9.632 -4.0422 -1.3815 -0.5026
  102MOL0     H13741   3.972   8.843   9.677  1.4224 -0.4770  1.7880
  102MOL0     H13742   4.138   8.870   9.840 -1.2936  0.0680  0.4561
  102MOL0     H13743   4.108   9.047   9.855  1.6575  0.4114 -1.0047
  102MOL0     H13744   4.250   8.909   9.636 -3.1679 -0.4740 -1.0793
  102MOL0     H13745   4.205   9.074   9.622  2.9844  0.6158  0.0640
  102MOL0     H13746   4.315   9.154   9.811  1.3883  2.2195 -2.7277
  102MOL0     H13747   4.423   9.090   9.695 -0.2642 -1.1863 -0.9583
  102MOL0     H13748   4.495   9.030   9.922 -0.5328 -1.2140  2.9769
  102MOL0     H13749   4.341   8.974   9.967 -0.9032  4.5606  0.5097
  102MOL0     H13750   3.272   9.031   9.717 -1.7047  0.8977  0.3444
  102MOL0     H13751   3.056   9.043   9.839 -0.8711 -0.0346  1.2247
  102MOL0     H13752   2.907   8.861  10.300  0.6436  0.5652  0.0699
  102MOL0     H13753   2.733   8.876  10.451  0.6880 -2.0428 -0.5673
  102MOL0     H13754   1.089   8.929  10.673 -0.6435  1.4875  0.6324
  102MOL0     H13755   0.897   9.003  10.548  0.4864 -0.7127 -0.1154
  102MOL0     H13756   0.503   8.817  10.275 -2.8223 -0.8974 -1.8276
  102MOL0     H13757   0.302   8.862  10.169  1.7994 -0.6490 -0.4431
  102MOL0     H13758   0.016   9.179  10.166 -2.7432  0.4881  0.0569
  102MOL0     H13759   0.091   9.211  10.326  0.3493 -0.2495  0.3948
  102MOL0     H13760  -0.134   9.005  10.295  0.8652 -1.2118  2.5802
  102MOL0     H13761  -0.178   9.176  10.294 -1.7996 -1.9182 -0.5693
  102MOL0     H13762  -0.048   9.019  10.522 -0.9370 -0.0157  1.4395
  102MOL0     H13763  -0.214   9.053  10.499 -0.5609  0.7058  0.9494
  102MOL0     H13764  -0.016   9.283  10.499  0.4137 -1.0232  0.4410
  102MOL0     H13765  -0.191   9.300  10.506  0.9642  2.4718 -0.0494
  102MOL0     H13766  -0.047   9.165  10.897 -0.4314  0.0040  0.0454
  102MOL0     H13767   0.178   9.102  10.504  1.1348  2.0844 -0.8143
  102MOL0     H13768   0.260   9.092  10.693 -0.6390 -0.6652 -1.7710
  102MOL0     H13769   0.390   8.962  10.725 -0.5842 -0.9809 -0.8744
  102MOL0     H13770   0.437   9.125  10.689  1.3511 -0.9627 -1.1580
  103MOL0     O13771  10.714   4.156  10.919  0.1417 -0.3145 -0.5233
  103MOL0     C13772  10.719   4.187  11.037  0.1193 -0.5042  0.0559
  103MOL0     O13773  10.819   4.133  11.120  0.0634 -0.2460  0.2737
  103MOL0     C13774  10.895   4.027  11.094  0.3320  0.2381  0.4138
  103MOL0     C13775  11.019   4.017  11.166 -0.0776 -0.4794  0.5704
  103MOL0     C13776  11.108   3.907  11.144  0.6688  0.3578 -0.0013
  103MOL0     C13777  11.069   3.804  11.060 -0.3399  0.2257  0.0335
  103MOL0     O13778  11.151   3.692  11.046  0.5647 -0.1471  0.3945
  103MOL0     C13779  11.290   3.718  11.035 -0.4710 -0.5724  0.2758
  103MOL0     C13780  11.352   3.579  11.041  0.5439  0.7753  0.5516
  103MOL0     C13781  11.501   3.586  11.029 -0.2481 -0.2164 -0.1253
  103MOL0     C13782  11.559   3.446  11.060 -0.2701 -0.3411 -0.0063
  103MOL0     C13783  11.707   3.447  11.009 -0.0627  0.1420  0.3914
  103MOL0     C13784  11.785   3.326  11.066 -0.2067 -0.8280  0.1347
  103MOL0     C13785  11.923   3.339  11.009 -0.1184  0.0188 -0.1224
  103MOL0     C13786  12.020   3.224  11.047  0.4456 -0.0360  0.2162
  103MOL0     N13787  12.158   3.237  10.994  0.0948 -0.5261  0.2964
  103MOL0     C13788  12.240   3.342  10.997 -0.6002 -0.8970 -0.5107
  103MOL0     C13789  12.360   3.300  10.954  0.5595  0.3832  0.1080
  103MOL0     C13790  12.491   3.384  10.962 -0.5851  1.0035 -0.6163
  103MOL0     C13791  12.583   3.316  11.067  0.0410  0.1847  0.6806
  103MOL0     C13792  12.655   3.189  11.032 -0.7384 -0.9005  0.6571
  103MOL0     C13793  12.786   3.215  10.953  0.1179 -0.5022 -0.7124
  103MOL0     O13794  12.878   3.314  11.013 -0.5931  0.9710 -0.3785
  103MOL0     C13795  12.998   3.317  10.949 -0.6808 -1.2536  0.0441
  103MOL0     C13796  13.039   3.233  10.841  0.1749  0.4361 -0.5482
  103MOL0     C13797  13.158   3.271  10.766 -0.4583  0.2417  0.1672
  103MOL0     C13798  13.246   3.362  10.828  0.6238 -1.0337  0.2306
  103MOL0     C13799  13.387   3.395  10.772 -0.0891  0.2938 -0.2313
  103MOL0     O13800  13.435   3.297  10.688 -0.7341  0.1855 -0.8580
  103MOL0     C13801  13.565   3.326  10.647 -0.3290  0.0871 -0.3218
  103MOL0     C13802  13.655   3.229  10.689 -0.6019  0.0297 -0.5269
  103MOL0     C13803  13.795   3.250  10.669 -0.2949 -0.1438  0.2274
  103MOL0     C13804  13.848   3.362  10.600  0.0066  0.1245  0.2061
  103MOL0     O13805  13.982   3.356  10.587  0.3602  0.4342  0.5034
  103MOL0     C13806  14.045   3.483  10.563  0.4537 -0.2535 -0.5805
  103MOL0     C13807  14.195   3.475  10.584 -0.9242  0.1537  0.4032
  103MOL0     C13808  14.275   3.589  10.524  0.5056  0.2709 -0.5270
  103MOL0     C13809  14.423   3.575  10.552 -0.8107  0.5982  0.4313
  103MOL0     C13810  14.514   3.670  10.471 -0.1651 -0.0440  0.2041
  103MOL0     C13811  14.659   3.684  10.520  0.2012  0.1202  0.4516
  103MOL0     C13812  14.761   3.569  10.507  0.0105 -0.6007 -0.5593
  103MOL0     C13813  14.908   3.614  10.535 -0.6984  0.3780  0.8164
  103MOL0    Cl13814  15.034   3.481  10.558  0.5499 -0.4006 -0.1595
  103MOL0     C13815  13.751   3.454  10.554 -0.3998 -0.8188 -0.7877
  103MOL0     C13816  13.617   3.444  10.582 -0.4900  0.1969 -0.3512
  103MOL0     O13817  13.448   3.491  10.809 -0.3959  0.1227 -0.9861
  103MOL0     C13818  13.201   3.443  10.933  0.4160 -0.3257 -0.1745
  103MOL0     C13819  13.078   3.422  10.986  0.3979  0.2360 -0.1190
  103MOL0     N13820  12.340   3.172  10.899 -0.1870  0.4462 -0.2146
  103MOL0     N13821  12.226   3.134  10.934  1.0122 -0.0589  0.3635
  103MOL0     C13822  10.948   3.810  10.986 -0.3626  1.3564  0.0029
  103MOL0     C13823  10.859   3.918  11.002  0.5385 -1.2924  0.2490
  103MOL0     C13824  10.636   4.300  11.106  1.1071 -0.0118 -0.1691
  103MOL0     C13825  10.624   4.305  11.251  0.3322 -0.5555  0.3125
  103MOL0     C13826  10.544   4.410  11.302  0.3955  0.8397 -0.4859
  103MOL0     C13827  10.497   4.517  11.223  0.5305  0.1191  0.4472
  103MOL0     O13828  10.447   4.637  11.256 -0.0971 -0.2169 -0.2328
  103MOL0     C13829  10.464   4.695  11.390 -0.0677 -0.0049 -0.1510
  103MOL0     C13830  10.563   4.806  11.374 -0.2176  0.0869  0.5082
  103MOL0     C13831  10.554   4.915  11.487 -0.1147 -0.6878 -0.2493
  103MOL0     C13832  10.456   5.030  11.445  0.3894 -0.3770 -0.0605
  103MOL0     C13833  10.410   5.098  11.566  0.6602 -0.2025  0.4202
  103MOL0     C13834  10.364   5.148  11.667 -0.4397  0.0190  0.4252
  103MOL0     C13835  10.502   4.499  11.085  0.4017  0.5908 -0.0362
  103MOL0     C13836  10.566   4.397  11.023  0.4682 -0.5521 -0.4810
  103MOL0     C13837  10.556   4.396  10.873 -0.1599 -0.0477 -0.4512
  103MOL0     H13838  11.050   4.102  11.226 -2.5298  1.9745 -1.3810
  103MOL0     H13839  11.197   3.921  11.204 -0.2029  1.0356  1.1782
  103MOL0     H13840  11.310   3.755  10.935  1.3473 -0.7069  0.5434
  103MOL0     H13841  11.322   3.780  11.120 -3.3683 -0.7267  1.6126
  103MOL0     H13842  11.314   3.521  10.956 -0.3047  2.1753 -0.0539
  103MOL0     H13843  11.329   3.528  11.135  3.1272 -0.8447  0.4209
  103MOL0     H13844  11.543   3.655  11.102  3.9405  0.4786 -2.8441
  103MOL0     H13845  11.542   3.607  10.930 -0.1994 -1.0313 -0.2895
  103MOL0     H13846  11.559   3.436  11.169 -2.8414 -0.6545  0.0406
  103MOL0     H13847  11.504   3.364  11.012 -2.8751  2.2505 -1.8716
  103MOL0     H13848  11.712   3.449  10.900 -1.3728 -1.2620  0.2759
  103MOL0     H13849  11.761   3.536  11.042  1.1421 -1.1606  2.1126
  103MOL0     H13850  11.792   3.322  11.175  1.0556 -0.9756  0.0707
  103MOL0     H13851  11.747   3.228  11.034 -1.2916 -1.1223  2.1956
  103MOL0     H13852  11.965   3.433  11.046  2.5542 -1.2225  0.2308
  103MOL0     H13853  11.915   3.339  10.900 -0.9411 -1.1540 -0.0807
  103MOL0     H13854  12.030   3.237  11.156  4.0315  2.4936 -0.2252
  103MOL0     H13855  11.975   3.129  11.018 -2.0242  0.3051  2.5149
  103MOL0     H13856  12.216   3.437  11.044 -1.9156 -2.3023  1.7874
  103MOL0     H13857  12.542   3.391  10.866  1.0462 -0.9093  0.0395
  103MOL0     H13858  12.473   3.489  10.984  0.9976  0.9051  1.4524
  103MOL0     H13859  12.665   3.386  11.084  0.0846  0.5917 -1.0245
  103MOL0     H13860  12.530   3.309  11.162  1.7762 -0.9830  1.6095
  103MOL0     H13861  12.586   3.136  10.966  0.1543  0.9926 -1.9354
  103MOL0     H13862  12.674   3.127  11.120  1.4477 -1.7487 -0.3399
  103MOL0     H13863  12.760   3.249  10.853 -0.5277  0.9822 -0.0651
  103MOL0     H13864  12.823   3.113  10.941 -0.3682 -1.2563  2.8167
  103MOL0     H13865  12.980   3.147  10.811 -3.1249  2.8540 -1.5585
  103MOL0     H13866  13.190   3.214  10.680  1.1905 -2.4974  2.4114
  103MOL0     H13867  13.618   3.136  10.732  0.2107 -0.7994 -1.5888
  103MOL0     H13868  13.860   3.167  10.697 -0.4691  0.2273  1.8624
  103MOL0     H13869  14.016   3.525  10.466  0.4426  1.9449  0.3168
  103MOL0     H13870  14.008   3.563  10.627  0.5574 -0.0109 -0.8200
  103MOL0     H13871  14.222   3.467  10.689  0.6222 -3.0148 -0.0920
  103MOL0     H13872  14.228   3.379  10.543 -2.4041  0.4101 -1.5424
  103MOL0     H13873  14.267   3.571  10.416 -2.4872  0.8178 -0.4788
  103MOL0     H13874  14.233   3.684  10.557  1.6822 -0.0086  2.0382
  103MOL0     H13875  14.465   3.476  10.532  1.4109  1.3848  0.9550
  103MOL0     H13876  14.437   3.583  10.660 -0.9618 -0.5158  0.5536
  103MOL0     H13877  14.467   3.769  10.477 -1.7883 -0.8383  1.2560
  103MOL0     H13878  14.519   3.632  10.369  1.1070 -1.4675  0.7522
  103MOL0     H13879  14.694   3.772  10.465 -2.4949  3.0847  3.0560
  103MOL0     H13880  14.666   3.720  10.624 -0.2839 -1.3646  1.0244
  103MOL0     H13881  14.762   3.526  10.406 -0.6329  0.0693 -0.8678
  103MOL0     H13882  14.730   3.489  10.575  0.6420 -1.2324 -1.0073
  103MOL0     H13883  14.948   3.679  10.457  1.7066 -0.9069  0.8918
  103MOL0     H13884  14.914   3.678  10.623  1.6587  0.9287  0.3080
  103MOL0     H13885  13.776   3.549  10.507  0.4548 -0.8164 -0.3327
  103MOL0     H13886  13.557   3.530  10.553  0.1688  1.3622  1.6109
  103MOL0     H13887  13.268   3.519  10.971  2.3392 -1.9288 -0.1355
  103MOL0     H13888  13.050   3.486  11.069 -0.1937  0.5779 -0.5700
  103MOL0     H13889  10.920   3.733  10.916  0.1130  0.9776  0.2221
  103MOL0     H13890  10.768   3.926  10.944  1.6239  1.2517 -1.2669
  103MOL0     H13891  10.683   4.242  11.316  3.1576  1.5756  0.0119
  103MOL0     H13892  10.529   4.404  11.409  0.7369  0.4400 -0.4576
  103MOL0     H13893  10.497   4.625  11.467 -2.8334 -1.2401  0.0304
  103MOL0     H13894  10.368   4.735  11.425 -0.1636 -2.4697  2.8372
  103MOL0     H13895  10.562   4.859  11.278 -0.3475 -0.1275  0.3910
  103MOL0     H13896  10.663   4.762  11.378 -0.7004 -1.4255 -2.0300
  103MOL0     H13897  10.654   4.949  11.515 -0.5145 -0.5112  1.0370
  103MOL0     H13898  10.524   4.874  11.584  0.4760  2.0787  1.2199
  103MOL0     H13899  10.511   5.103  11.385 -0.2947  1.2494  1.2154
  103MOL0     H13900  10.370   4.980  11.399 -0.7695 -0.1537  1.7679
  103MOL0     H13901  10.321   5.201  11.750 -0.5426  2.6862 -1.2283
  103MOL0     H13902  10.460   4.574  11.019  0.5119  1.1409  0.5085
  103MOL0     H13903  10.529   4.296  10.836  1.9093 -1.0698  0.6501
  103MOL0     H13904  10.479   4.462  10.831  1.2607  2.0247  0.0640
  103MOL0     H13905  10.658   4.417  10.839  0.1578 -0.5472  0.1834
  104MOL0     O13906   3.615   4.419   6.982  0.0446 -0.0453  0.5401
  104MOL0     C13907   3.533   4.329   6.985 -0.3838 -0.0226 -0.3086
  104MOL0     O13908   3.562   4.208   7.056 -0.0632  0.0439 -0.8675
  104MOL0     C13909   3.662   4.226   7.152  0.2650  1.0085 -0.1482
  104MOL0     C13910   3.772   4.142   7.155  0.4532 -0.4690  0.4686
  104MOL0     C13911   3.869   4.166   7.253 -0.6798  0.6663 -0.5902
  104MOL0     C13912   3.856   4.263   7.349  0.5222  0.2898  0.6584
  104MOL0     O13913   3.963   4.271   7.430 -0.2809  0.4467  0.0341
  104MOL0     C13914   3.986   4.406   7.483  0.2933 -0.9337 -0.6037
  104MOL0     C13915   4.125   4.409   7.550  0.3536 -0.7354 -0.3557
  104MOL0     C13916   4.150   4.563   7.571  0.3299  0.4892  0.4692
  104MOL0     C13917   4.286   4.608   7.627 -0.1846  0.3381 -0.9188
  104MOL0     C13918   4.297   4.761   7.635  0.3410 -1.0374 -0.4112
  104MOL0     C13919   4.439   4.821   7.615  0.6324  0.1060  0.8858
  104MOL0     C13920   4.542   4.762   7.708  0.2679 -0.0429  0.4368
  104MOL0     C13921   4.538   4.811   7.855 -0.9232 -0.0281  0.1623
  104MOL0     N13922   4.667   4.875   7.892  0.8178  1.5297 -0.1126
  104MOL0     C13923   4.778   4.819   7.960  0.0306 -0.1194  0.7209
  104MOL0     C13924   4.880   4.912   7.938 -0.1797 -1.0455 -0.7734
  104MOL0     C13925   5.020   4.907   8.003  0.0952  0.5452  0.1021
  104MOL0     C13926   5.120   4.983   7.912 -0.1407  0.0221 -0.8695
  104MOL0     C13927   5.255   4.910   7.930  0.2389  0.3375 -0.6269
  104MOL0     C13928   5.379   4.994   7.867 -0.0122 -0.3837  0.2151
  104MOL0     O13929   5.508   4.934   7.897  0.6332 -0.2815 -0.4212
  104MOL0     C13930   5.618   4.967   7.827 -0.4600 -0.1097  0.1326
  104MOL0     C13931   5.724   4.871   7.834 -0.3090  0.4125  0.8712
  104MOL0     C13932   5.844   4.901   7.773  0.2751 -0.1837 -0.4141
  104MOL0     C13933   5.874   5.032   7.720 -0.0472  0.9803 -0.2324
  104MOL0     C13934   6.007   5.072   7.665 -0.2833 -0.0553  0.8661
  104MOL0     O13935   6.046   5.202   7.672  0.4246  0.3585 -0.0661
  104MOL0     C13936   6.164   5.246   7.611  0.5474 -0.6731  0.1212
  104MOL0     C13937   6.256   5.325   7.686  0.1426 -0.4909  0.2424
  104MOL0     C13938   6.384   5.356   7.636 -0.2154 -0.2199  0.5031
  104MOL0     C13939   6.407   5.333   7.499  0.9695 -0.8064  0.7389
  104MOL0     O13940   6.527   5.362   7.457 -0.2373 -0.8413  0.7471
  104MOL0     C13941   6.602   5.263   7.397  0.3155  0.3434 -0.5899
  104MOL0     C13942   6.702   5.180   7.475 -0.3920  0.6209  0.2405
  104MOL0     C13943   6.813   5.270   7.545 -0.2656 -0.2427  0.4616
  104MOL0     C13944   6.912   5.183   7.641  0.3638 -0.5879  0.7149
  104MOL0     C13945   7.017   5.257   7.711 -1.3029  0.1719 -0.6756
  104MOL0     C13946   7.140   5.280   7.633  0.0972  0.1415  0.6600
  104MOL0     C13947   7.246   5.352   7.717  0.0174 -0.1903  0.7153
  104MOL0     C13948   7.363   5.253   7.756  0.0295  0.4668  0.2401
  104MOL0    Cl13949   7.447   5.145   7.638 -0.0137  0.1683  0.1309
  104MOL0     C13950   6.309   5.269   7.422  0.2612 -0.4079  0.0090
  104MOL0     C13951   6.195   5.224   7.477  0.1711  1.1978 -0.6682
  104MOL0     O13952   6.071   4.982   7.618  0.0081 -0.0966  0.5215
  104MOL0     C13953   5.762   5.112   7.700  0.2472  0.1370 -0.4980
  104MOL0     C13954   5.638   5.083   7.752 -0.5492  0.2960  0.3109
  104MOL0     N13955   4.821   5.014   7.865  0.5780  0.8507 -0.3953
  104MOL0     N13956   4.700   4.986   7.840  0.0882  0.3857  0.1340
  104MOL0     C13957   3.738   4.339   7.360 -0.1212 -0.1858 -0.0550
  104MOL0     C13958   3.645   4.314   7.265 -0.8325 -0.1673  0.5593
  104MOL0     C13959   3.395   4.350   6.929 -0.2009  0.0387  0.3937
  104MOL0     C13960   3.297   4.248   6.945 -0.6312 -0.1250 -0.4506
  104MOL0     C13961   3.163   4.262   6.911 -0.2175  0.7908  0.0166
  104MOL0     C13962   3.117   4.385   6.858  0.5133  0.3261  0.4984
  104MOL0     O13963   2.982   4.413   6.839 -0.2035 -0.1907 -0.1017
  104MOL0     C13964   2.931   4.544   6.802  0.1943  0.1771 -0.0178
  104MOL0     C13965   2.781   4.556   6.826  0.6421 -0.9710  0.0297
  104MOL0     C13966   2.728   4.695   6.787 -0.6531 -0.4187 -0.3283
  104MOL0     C13967   2.586   4.719   6.844 -0.0815  0.2808 -0.6047
  104MOL0     C13968   2.541   4.840   6.783 -0.4559  0.3411 -0.6394
  104MOL0     C13969   2.498   4.944   6.737  0.2086 -0.4520  1.2041
  104MOL0     C13970   3.213   4.479   6.820  0.0413  0.2123  0.2398
  104MOL0     C13971   3.349   4.469   6.856 -0.2431  1.0929 -0.5154
  104MOL0     C13972   3.450   4.577   6.818 -0.2314  0.0197  0.3886
  104MOL0     H13973   3.786   4.058   7.089 -3.8988 -2.7912  2.0664
  104MOL0     H13974   3.958   4.105   7.247 -1.1489  0.0686 -1.8073
  104MOL0     H13975   3.975   4.480   7.403  0.0172  1.4809  1.5395
  104MOL0     H13976   3.911   4.435   7.556 -0.3261  1.5425 -2.1172
  104MOL0     H13977   4.193   4.351   7.487 -0.0061  1.8337 -3.3797
  104MOL0     H13978   4.121   4.367   7.651 -0.0591 -0.2495 -0.1662
  104MOL0     H13979   4.074   4.601   7.640 -0.1283  2.7877 -1.1837
  104MOL0     H13980   4.151   4.610   7.472  3.1005  2.5885  1.3467
  104MOL0     H13981   4.293   4.564   7.727 -0.5633 -0.5838 -1.2799
  104MOL0     H13982   4.366   4.568   7.564  0.6146  2.3821 -1.2742
  104MOL0     H13983   4.229   4.808   7.563  1.2776 -0.6548 -1.0628
  104MOL0     H13984   4.278   4.794   7.738  3.5426  0.8543 -0.3078
  104MOL0     H13985   4.470   4.780   7.518  0.8702 -2.0756  1.8177
  104MOL0     H13986   4.430   4.929   7.601 -0.3350 -0.1674 -0.9638
  104MOL0     H13987   4.633   4.794   7.657 -1.5442  1.3242 -2.2066
  104MOL0     H13988   4.540   4.653   7.705  3.0892 -0.2692  2.5154
  104MOL0     H13989   4.450   4.875   7.867 -1.1030 -0.6017  2.1333
  104MOL0     H13990   4.534   4.722   7.918  0.5493 -0.3549 -0.1630
  104MOL0     H13991   4.798   4.719   7.997  0.4156  0.0500  0.9750
  104MOL0     H13992   5.017   4.956   8.101  1.7680 -0.1394  0.5351
  104MOL0     H13993   5.044   4.801   8.017 -0.0357  0.8444  3.3738
  104MOL0     H13994   5.094   4.974   7.807 -1.8835  1.0233 -0.5753
  104MOL0     H13995   5.110   5.089   7.941  0.6143 -0.1391  0.0184
  104MOL0     H13996   5.263   4.811   7.883  4.1181 -2.2713  4.4334
  104MOL0     H13997   5.264   4.887   8.037 -1.6149 -1.7456 -0.8514
  104MOL0     H13998   5.386   5.101   7.887 -0.3219 -0.1529 -0.8569
  104MOL0     H13999   5.369   4.991   7.758  1.2890  0.1464  0.0663
  104MOL0     H14000   5.706   4.782   7.892  1.7082  0.2170  1.2460
  104MOL0     H14001   5.905   4.811   7.773 -1.7166 -1.6123  0.0544
  104MOL0     H14002   6.228   5.344   7.789 -0.1286 -1.7402  0.4155
  104MOL0     H14003   6.461   5.400   7.699  2.4283 -1.4869 -1.6365
  104MOL0     H14004   6.544   5.197   7.333  0.6155 -1.5495  1.0098
  104MOL0     H14005   6.671   5.308   7.325 -0.8960  0.7891 -1.5060
  104MOL0     H14006   6.638   5.121   7.542  1.4071 -2.2349 -0.3796
  104MOL0     H14007   6.750   5.107   7.409  0.3247  1.5658 -0.3027
  104MOL0     H14008   6.871   5.315   7.464 -0.3026  0.4271  0.7934
  104MOL0     H14009   6.780   5.353   7.609  2.3696  1.5934 -0.3678
  104MOL0     H14010   6.942   5.085   7.602 -1.2204 -1.8056  2.3213
  104MOL0     H14011   6.832   5.156   7.711 -1.4581  2.5112  0.0073
  104MOL0     H14012   7.040   5.193   7.796  1.2557  0.6327 -0.9397
  104MOL0     H14013   6.974   5.353   7.744 -1.0805 -0.0309  0.1981
  104MOL0     H14014   7.181   5.190   7.587 -0.2424  0.8475 -1.1038
  104MOL0     H14015   7.113   5.341   7.545 -0.8737 -0.4111  0.5650
  104MOL0     H14016   7.199   5.390   7.808  2.3120 -0.3656  2.0549
  104MOL0     H14017   7.289   5.435   7.660  1.2548  0.0071  1.8974
  104MOL0     H14018   7.437   5.305   7.818  0.6096 -0.4007  0.3025
  104MOL0     H14019   7.312   5.191   7.830  0.2128  0.0063 -0.0108
  104MOL0     H14020   6.322   5.254   7.315 -4.4179  0.4102 -0.8971
  104MOL0     H14021   6.124   5.163   7.422 -0.9908  0.9540  1.0388
  104MOL0     H14022   5.775   5.199   7.637 -2.8596  1.2552  0.2534
  104MOL0     H14023   5.559   5.156   7.737  0.8157  1.8130  0.2694
  104MOL0     H14024   3.722   4.415   7.436  1.4461  0.4204 -0.2857
  104MOL0     H14025   3.554   4.373   7.272  0.3121  1.7965 -0.3229
  104MOL0     H14026   3.320   4.149   6.983 -1.2120  0.4736  1.6055
  104MOL0     H14027   3.088   4.185   6.927 -0.3171  0.0480 -3.3502
  104MOL0     H14028   2.944   4.565   6.696 -2.2423 -0.2669 -0.4802
  104MOL0     H14029   2.981   4.621   6.861 -0.2656 -0.8540  1.8220
  104MOL0     H14030   2.751   4.541   6.930  1.2369 -2.0773  0.0501
  104MOL0     H14031   2.731   4.484   6.760 -0.4638 -1.5853  1.4962
  104MOL0     H14032   2.725   4.705   6.678 -1.0198 -2.2664 -0.5039
  104MOL0     H14033   2.805   4.768   6.814  1.1326 -1.2953 -2.6802
  104MOL0     H14034   2.520   4.639   6.809 -1.6927  1.8746 -1.3533
  104MOL0     H14035   2.583   4.732   6.953  1.2849 -0.0872 -0.5001
  104MOL0     H14036   2.456   5.017   6.671  0.3609  0.6511  2.3073
  104MOL0     H14037   3.177   4.569   6.771  0.7696  0.2099 -0.3338
  104MOL0     H14038   3.401   4.656   6.760  1.7679  0.4505 -0.8186
  104MOL0     H14039   3.490   4.617   6.911 -0.1485 -2.4309  1.4725
  104MOL0     H14040   3.523   4.528   6.754 -0.7271  1.2198 -1.1718
  105MOL0     O14041   5.188   3.565   1.580 -0.0548 -0.1388  0.3330
  105MOL0     C14042   5.150   3.677   1.583 -0.0088 -0.1861 -0.4743
  105MOL0     O14043   5.033   3.725   1.532  0.1620 -0.2670 -0.2182
  105MOL0     C14044   4.975   3.632   1.450 -0.4455 -0.2882  0.2319
  105MOL0     C14045   4.850   3.587   1.483  0.4356  0.4250 -0.2139
  105MOL0     C14046   4.781   3.493   1.405  0.2126  0.1065 -0.1171
  105MOL0     C14047   4.843   3.453   1.283 -0.7033  0.6403 -0.3139
  105MOL0     O14048   4.788   3.367   1.206 -0.1155  0.2481  0.2553
  105MOL0     C14049   4.725   3.251   1.262 -0.9363  0.0629 -0.5286
  105MOL0     C14050   4.783   3.117   1.201 -0.2189 -0.8083 -0.7945
  105MOL0     C14051   4.927   3.091   1.230 -0.9951 -0.8954  0.7137
  105MOL0     C14052   4.997   3.017   1.111 -0.7347  0.0411 -0.5402
  105MOL0     C14053   5.140   2.995   1.164  0.9088 -0.1633 -0.1748
  105MOL0     C14054   5.207   2.900   1.069 -0.2888  0.5571  0.5260
  105MOL0     C14055   5.357   2.865   1.104  0.4179  0.6065  0.1906
  105MOL0     C14056   5.438   2.982   1.132  0.2648  0.4072 -0.7354
  105MOL0     N14057   5.578   2.944   1.152 -0.1056 -0.5141 -0.0465
  105MOL0     C14058   5.625   2.861   1.252 -1.0279  0.5399 -0.3794
  105MOL0     C14059   5.763   2.876   1.243 -0.5634 -0.5716  0.9113
  105MOL0     C14060   5.854   2.804   1.338  0.1219 -0.4557  0.8834
  105MOL0     C14061   5.859   2.652   1.305  0.2477 -0.1169  0.7084
  105MOL0     C14062   5.919   2.628   1.170 -0.4852  0.3864  0.2983
  105MOL0     C14063   5.935   2.475   1.144  0.6466 -0.4192 -0.2610
  105MOL0     O14064   5.997   2.456   1.021 -0.1681  1.2041 -0.2375
  105MOL0     C14065   6.127   2.474   0.995 -0.4126 -0.2867  0.2588
  105MOL0     C14066   6.218   2.516   1.097  0.6091  0.5968  0.2478
  105MOL0     C14067   6.350   2.518   1.071 -0.2030  0.7132  0.4600
  105MOL0     C14068   6.401   2.489   0.940  1.0734 -0.2135  0.0227
  105MOL0     C14069   6.543   2.503   0.913  0.0108  0.3097  0.4678
  105MOL0     O14070   6.628   2.530   1.028 -0.1488 -0.2533  0.1909
  105MOL0     C14071   6.739   2.607   1.005 -0.9917 -0.4536  0.8849
  105MOL0     C14072   6.759   2.725   1.080 -0.5673 -0.6320  0.2932
  105MOL0     C14073   6.874   2.812   1.062 -0.1163  0.1807 -1.5114
  105MOL0     C14074   6.973   2.773   0.969 -0.1140 -0.3708  0.5731
  105MOL0     O14075   7.100   2.836   0.950 -0.2420  1.0489 -0.5229
  105MOL0     C14076   7.223   2.762   0.946 -0.4123  0.5445  0.6408
  105MOL0     C14077   7.338   2.852   0.985  0.2713  0.6589  0.0672
  105MOL0     C14078   7.473   2.781   1.005  0.2300 -0.1519 -0.5239
  105MOL0     C14079   7.554   2.800   0.874 -0.9139  0.2722  0.5697
  105MOL0     C14080   7.684   2.719   0.883 -0.1358 -0.9365 -0.7016
  105MOL0     C14081   7.792   2.748   0.783 -0.4821 -0.2534 -0.4070
  105MOL0     C14082   7.934   2.698   0.833  0.3583 -0.0202  0.3891
  105MOL0     C14083   8.041   2.720   0.728 -0.4400  0.2139  0.7354
  105MOL0    Cl14084   8.066   2.896   0.694 -0.0498 -0.1143  0.2743
  105MOL0     C14085   6.958   2.654   0.900  0.1572  0.4773  0.8194
  105MOL0     C14086   6.845   2.565   0.922  0.5155  0.3760  0.0405
  105MOL0     O14087   6.589   2.497   0.794 -0.5103 -0.3847 -0.9204
  105MOL0     C14088   6.307   2.463   0.840 -0.0144 -0.1554 -0.4428
  105MOL0     C14089   6.173   2.465   0.868 -0.5688 -0.6286 -0.1704
  105MOL0     N14090   5.789   2.974   1.145  0.7850  0.4830  0.2485
  105MOL0     N14091   5.680   3.022   1.097  0.3215 -0.0023  0.2023
  105MOL0     C14092   4.969   3.500   1.252 -0.6707  0.2596 -0.4593
  105MOL0     C14093   5.037   3.595   1.329  0.0389 -0.2738  0.6065
  105MOL0     C14094   5.246   3.775   1.629  0.5286  0.4661 -0.1098
  105MOL0     C14095   5.217   3.840   1.755 -0.5743 -0.2179  0.2486
  105MOL0     C14096   5.302   3.934   1.811 -0.4886 -0.0328  0.1159
  105MOL0     C14097   5.427   3.961   1.749 -0.5985 -0.1273  0.5312
  105MOL0     O14098   5.513   4.059   1.800 -0.1402 -0.1819  0.2280
  105MOL0     C14099   5.527   4.091   1.932 -0.5916  1.1408 -0.3293
  105MOL0     C14100   5.620   3.980   2.000 -0.3337  0.7189  0.1201
  105MOL0     C14101   5.758   3.955   1.927  0.3521 -0.0363 -0.2782
  105MOL0     C14102   5.867   4.025   2.001  0.1832 -0.2122 -0.0005
  105MOL0     C14103   6.001   4.013   1.951 -0.8521  0.0234 -0.0121
  105MOL0     C14104   6.114   4.027   1.903 -0.2191  0.0727 -0.7615
  105MOL0     C14105   5.457   3.888   1.630  0.4761  0.2121  0.1605
  105MOL0     C14106   5.377   3.798   1.569  0.0660 -0.4626  0.3116
  105MOL0     C14107   5.434   3.729   1.438 -0.1464  0.2078 -0.5483
  105MOL0     H14108   4.800   3.632   1.567  0.3028 -0.1525  0.0189
  105MOL0     H14109   4.678   3.466   1.427  0.7047 -1.7341  0.1003
  105MOL0     H14110   4.730   3.254   1.371 -1.6133  1.5947 -0.5194
  105MOL0     H14111   4.622   3.254   1.227 -1.3179 -0.9527  0.4572
  105MOL0     H14112   4.756   3.107   1.096 -0.9498 -1.6814 -0.5464
  105MOL0     H14113   4.735   3.034   1.254 -0.0314 -0.3563  0.1098
  105MOL0     H14114   4.923   3.033   1.323  0.0613  0.3163  1.5455
  105MOL0     H14115   4.978   3.183   1.260 -2.2103 -1.0120  3.3669
  105MOL0     H14116   4.936   2.929   1.091 -2.4917  1.9606 -5.0097
  105MOL0     H14117   5.006   3.069   1.015 -0.7031 -0.6637 -0.9272
  105MOL0     H14118   5.194   3.087   1.189 -0.9864  0.6577  1.1273
  105MOL0     H14119   5.125   2.940   1.258 -2.1851 -0.3477 -0.6812
  105MOL0     H14120   5.161   2.801   1.069 -0.8391  0.8141  0.5451
  105MOL0     H14121   5.194   2.938   0.967 -0.5649  2.4577  1.2315
  105MOL0     H14122   5.401   2.817   1.016 -0.7056  0.8998 -0.5435
  105MOL0     H14123   5.354   2.803   1.194 -0.3075  0.3507 -0.0018
  105MOL0     H14124   5.413   3.054   1.054 -0.7221 -0.1173 -0.9183
  105MOL0     H14125   5.414   3.038   1.223 -2.0969 -0.0812 -1.0120
  105MOL0     H14126   5.570   2.796   1.320 -2.6293  2.7072  0.5369
  105MOL0     H14127   5.946   2.863   1.345 -0.7648  1.0073  0.7078
  105MOL0     H14128   5.797   2.815   1.431 -2.7748 -0.7757 -0.7455
  105MOL0     H14129   5.925   2.608   1.380  1.3346 -0.4673 -0.4171
  105MOL0     H14130   5.756   2.616   1.318 -0.3905  0.9656 -0.9621
  105MOL0     H14131   6.008   2.687   1.148 -0.6156  0.7275  0.6666
  105MOL0     H14132   5.849   2.653   1.090 -0.2576  0.2297  0.0471
  105MOL0     H14133   5.836   2.430   1.131  0.0167  1.4563 -2.7236
  105MOL0     H14134   5.976   2.424   1.232 -3.2589  0.5659  2.4032
  105MOL0     H14135   6.181   2.539   1.196 -0.5041  3.1995 -0.6966
  105MOL0     H14136   6.413   2.547   1.154  2.1415  1.9661 -1.6285
  105MOL0     H14137   6.689   2.747   1.160  1.0656  0.1781  1.5441
  105MOL0     H14138   6.881   2.903   1.121 -1.0656 -0.5715 -0.1888
  105MOL0     H14139   7.227   2.674   1.011  2.3729 -0.8280 -1.1810
  105MOL0     H14140   7.236   2.727   0.843 -4.1764  0.3451  0.0851
  105MOL0     H14141   7.345   2.940   0.920 -1.5326  1.9115  1.4773
  105MOL0     H14142   7.313   2.908   1.075 -2.0596  1.6953 -1.1295
  105MOL0     H14143   7.521   2.832   1.088 -2.3525  2.3799 -0.4124
  105MOL0     H14144   7.451   2.679   1.039 -0.6012  0.7184  1.7185
  105MOL0     H14145   7.579   2.906   0.863 -0.1776  0.1233  0.7948
  105MOL0     H14146   7.520   2.762   0.777 -0.2586 -1.9286  1.1462
  105MOL0     H14147   7.670   2.612   0.895  0.0978 -0.7490  1.6854
  105MOL0     H14148   7.724   2.745   0.982  2.0493 -3.2957 -0.8533
  105MOL0     H14149   7.760   2.720   0.682 -4.1261  0.8009  0.3070
  105MOL0     H14150   7.795   2.857   0.792 -1.8745 -0.2180 -0.0523
  105MOL0     H14151   7.926   2.593   0.860 -2.9807 -0.6422 -2.3348
  105MOL0     H14152   7.966   2.740   0.929 -0.6310 -1.2898  1.3081
  105MOL0     H14153   8.136   2.687   0.770  0.2871  1.2671 -0.0310
  105MOL0     H14154   8.017   2.661   0.640 -0.7107 -0.9252  1.5477
  105MOL0     H14155   7.027   2.623   0.821 -0.8149 -2.3492  0.9461
  105MOL0     H14156   6.837   2.468   0.874  3.1502  0.0508  0.0909
  105MOL0     H14157   6.347   2.446   0.740  2.7358 -1.4995  0.7722
  105MOL0     H14158   6.100   2.445   0.790 -1.9455  2.5256  0.1677
  105MOL0     H14159   5.012   3.481   1.154  1.3808 -1.2767  0.6330
  105MOL0     H14160   5.138   3.625   1.302  0.5520 -0.9315  1.6809
  105MOL0     H14161   5.120   3.821   1.802 -0.8725 -1.5172 -0.8284
  105MOL0     H14162   5.262   3.986   1.897 -2.0179 -0.1607 -0.4687
  105MOL0     H14163   5.430   4.103   1.983 -0.7655  0.4046 -0.4677
  105MOL0     H14164   5.592   4.178   1.946  0.5782  0.0231  1.7617
  105MOL0     H14165   5.564   3.887   2.000  0.7245  0.0628 -0.3592
  105MOL0     H14166   5.630   4.017   2.103 -0.9073 -1.6076  1.0643
  105MOL0     H14167   5.750   3.996   1.826 -0.1662 -1.1009 -0.6787
  105MOL0     H14168   5.770   3.847   1.923 -0.2437 -0.2092  1.4766
  105MOL0     H14169   5.849   4.133   1.998 -0.1248 -0.2685 -0.2421
  105MOL0     H14170   5.872   3.991   2.104  0.4235 -1.3360 -0.3770
  105MOL0     H14171   6.213   4.033   1.862 -0.7803 -0.1150 -2.2381
  105MOL0     H14172   5.544   3.905   1.568 -0.1325 -3.8310 -2.1529
  105MOL0     H14173   5.382   3.773   1.353  1.7997  0.1870 -1.8089
  105MOL0     H14174   5.540   3.754   1.434 -0.0597  1.7189  4.4387
  105MOL0     H14175   5.405   3.623   1.430  0.2901 -0.1438  1.9110
  106MOL0     O14176   0.518   0.859   1.227 -0.5071 -0.3543  0.3250
  106MOL0     C14177   0.511   0.780   1.130  0.1425 -0.3874 -0.4054
  106MOL0     O14178   0.611   0.713   1.071 -0.1899 -0.5202  0.8017
  106MOL0     C14179   0.738   0.737   1.118  0.3951  0.6337  0.0183
  106MOL0     C14180   0.828   0.788   1.027 -0.4407  0.6115  0.0633
  106MOL0     C14181   0.956   0.808   1.065 -0.6910 -0.1576  0.0813
  106MOL0     C14182   1.002   0.762   1.195 -0.0894 -0.6646  0.2809
  106MOL0     O14183   1.133   0.758   1.234 -1.1844  0.9939  0.4011
  106MOL0     C14184   1.231   0.808   1.133 -0.3312  0.1673 -0.3780
  106MOL0     C14185   1.374   0.788   1.187  0.1826  1.3017 -0.5000
  106MOL0     C14186   1.472   0.849   1.076  0.0500  0.4333 -0.8327
  106MOL0     C14187   1.617   0.852   1.130 -0.0111 -0.6054  0.4305
  106MOL0     C14188   1.703   0.976   1.074  0.0616  0.1036 -0.5472
  106MOL0     C14189   1.856   0.948   1.097  0.1237  0.3563 -0.4166
  106MOL0     C14190   1.939   1.073   1.065 -0.1476  0.8840  0.2627
  106MOL0     C14191   1.913   1.194   1.156 -0.6601  1.1053  0.5302
  106MOL0     N14192   2.027   1.277   1.166 -0.5238 -0.2389  0.4793
  106MOL0     C14193   2.078   1.357   1.063  0.0486 -0.9193 -0.6883
  106MOL0     C14194   2.188   1.419   1.122 -0.0263  0.7447  0.2427
  106MOL0     C14195   2.282   1.512   1.041  0.0826  0.5889  0.4457
  106MOL0     C14196   2.225   1.657   1.045 -0.0151  0.7691 -0.1189
  106MOL0     C14197   2.304   1.750   0.949  0.0667 -0.9029  0.4532
  106MOL0     C14198   2.450   1.751   0.975  0.1189  0.8103  0.5061
  106MOL0     O14199   2.515   1.673   0.877  0.0351  0.3506  0.5005
  106MOL0     C14200   2.655   1.667   0.880  0.4609  0.1032 -0.7033
  106MOL0     C14201   2.719   1.648   0.757 -0.3626 -0.0882  0.7138
  106MOL0     C14202   2.858   1.656   0.757 -0.0215  1.3687  0.2726
  106MOL0     C14203   2.932   1.664   0.877 -0.2042 -0.7785  0.1828
  106MOL0     C14204   3.082   1.669   0.875  0.9677 -0.3828  0.2515
  106MOL0     O14205   3.146   1.685   1.000  0.3134 -0.0191  0.3701
  106MOL0     C14206   3.278   1.721   0.985  0.0930 -0.4147  0.4157
  106MOL0     C14207   3.371   1.626   0.946  0.4280 -0.4175  0.9018
  106MOL0     C14208   3.502   1.653   0.906  0.6608 -0.8451 -0.6032
  106MOL0     C14209   3.551   1.781   0.911  0.1297 -0.5472  0.6490
  106MOL0     O14210   3.672   1.822   0.868  0.1389 -0.0630 -0.1162
  106MOL0     C14211   3.749   1.734   0.779 -0.0522 -0.4980  0.7242
  106MOL0     C14212   3.845   1.635   0.849  0.3696 -0.0335 -0.0170
  106MOL0     C14213   3.994   1.689   0.850  0.3767  0.1206  0.5249
  106MOL0     C14214   4.088   1.592   0.922 -0.2167 -0.2190  0.8666
  106MOL0     C14215   4.236   1.618   0.911 -0.5684  0.0464 -0.1410
  106MOL0     C14216   4.266   1.756   0.982 -0.5721 -0.6719  0.1137
  106MOL0     C14217   4.402   1.819   0.954  0.1301  1.1419  0.1748
  106MOL0     C14218   4.396   1.889   0.830 -0.3822 -0.5566  1.3876
  106MOL0    Cl14219   4.556   1.950   0.802 -0.6681  0.0570 -0.0774
  106MOL0     C14220   3.461   1.882   0.963 -0.3910 -0.1289  0.7604
  106MOL0     C14221   3.324   1.855   0.990 -0.1185 -0.5135 -0.0826
  106MOL0     O14222   3.132   1.686   0.764 -0.2819 -0.6283 -0.4432
  106MOL0     C14223   2.869   1.672   1.000  1.2804  0.5056 -0.4044
  106MOL0     C14224   2.729   1.681   0.996  0.1454  0.7875 -0.4762
  106MOL0     N14225   2.190   1.386   1.256 -0.2865  0.0849 -0.1419
  106MOL0     N14226   2.111   1.286   1.271  0.4358 -0.3968  0.6630
  106MOL0     C14227   0.906   0.711   1.282  0.2396 -0.7286 -0.7339
  106MOL0     C14228   0.774   0.696   1.248 -0.7189 -0.1843  0.4593
  106MOL0     C14229   0.372   0.755   1.093 -0.9479  0.5062  0.2195
  106MOL0     C14230   0.274   0.779   1.195 -0.1028 -0.6603 -0.7593
  106MOL0     C14231   0.140   0.763   1.173 -0.3989 -0.3375  0.0542
  106MOL0     C14232   0.099   0.723   1.052 -0.1000  0.3422  0.3008
  106MOL0     O14233  -0.033   0.716   1.016 -0.3539  0.2434  0.0261
  106MOL0     C14234  -0.141   0.774   1.097  1.0434  0.4806 -0.2296
  106MOL0     C14235  -0.260   0.782   1.003  0.3030 -0.1204  0.6272
  106MOL0     C14236  -0.271   0.907   0.902 -0.1435  0.7122 -0.7475
  106MOL0     C14237  -0.409   0.923   0.843  0.1358 -0.6046  0.9950
  106MOL0     C14238  -0.454   0.807   0.770  0.2674  0.6411 -0.1100
  106MOL0     C14239  -0.493   0.706   0.714  0.2434  0.3501 -0.2493
  106MOL0     C14240   0.185   0.691   0.941  0.2210 -0.4670 -0.4882
  106MOL0     C14241   0.327   0.706   0.958 -0.0525 -0.3490 -1.2161
  106MOL0     C14242   0.422   0.684   0.853  0.3690  0.8176  0.6695
  106MOL0     H14243   0.784   0.823   0.935 -3.5927 -0.6756  0.9185
  106MOL0     H14244   1.020   0.863   0.997  0.6629  1.3262  2.4244
  106MOL0     H14245   1.230   0.742   1.046 -0.2497  0.3125 -0.4896
  106MOL0     H14246   1.203   0.910   1.108 -0.1634  0.6070  1.1107
  106MOL0     H14247   1.395   0.681   1.199 -1.1908  1.0545 -0.0179
  106MOL0     H14248   1.394   0.841   1.280  0.8991  2.0111 -1.0494
  106MOL0     H14249   1.441   0.953   1.059  1.2193  0.6306 -1.9399
  106MOL0     H14250   1.467   0.796   0.981  0.1178  0.8794 -1.0890
  106MOL0     H14251   1.616   0.852   1.239  1.3323 -0.2648  0.4529
  106MOL0     H14252   1.663   0.756   1.103 -1.2987 -2.1677  3.2407
  106MOL0     H14253   1.678   1.008   0.972  1.4283 -0.9418 -1.2374
  106MOL0     H14254   1.667   1.053   1.143  2.5913 -1.1685  2.4483
  106MOL0     H14255   1.875   0.922   1.202 -0.2617  1.1193 -0.1461
  106MOL0     H14256   1.881   0.859   1.040 -1.2358  0.1531 -0.7242
  106MOL0     H14257   1.911   1.100   0.963  0.1600 -0.4067 -0.1912
  106MOL0     H14258   2.044   1.047   1.083 -0.4535  0.6242  1.8202
  106MOL0     H14259   1.828   1.251   1.118 -0.3775 -0.0610 -2.0314
  106MOL0     H14260   1.893   1.169   1.261 -1.9534 -0.6046 -0.0643
  106MOL0     H14261   2.048   1.364   0.959 -0.1962  0.2714 -0.5495
  106MOL0     H14262   2.378   1.502   1.092 -0.7415 -0.7171  1.8669
  106MOL0     H14263   2.283   1.488   0.935 -1.6497 -0.5265  0.6479
  106MOL0     H14264   2.117   1.646   1.029 -0.4662  2.8717  1.1216
  106MOL0     H14265   2.226   1.689   1.149 -0.0506 -0.5715  0.3125
  106MOL0     H14266   2.263   1.851   0.948  1.4741 -0.1771 -3.4934
  106MOL0     H14267   2.277   1.722   0.847  0.0300  1.1453 -0.1546
  106MOL0     H14268   2.467   1.715   1.076  0.5871 -3.4180 -0.8962
  106MOL0     H14269   2.491   1.851   0.958  0.5233  0.2640 -2.2419
  106MOL0     H14270   2.670   1.630   0.662  0.9337  0.6173 -0.1248
  106MOL0     H14271   2.899   1.651   0.656 -1.1406 -1.6116 -0.1165
  106MOL0     H14272   3.339   1.523   0.940  2.0723 -0.8973 -0.3528
  106MOL0     H14273   3.567   1.570   0.879 -0.0178 -0.7624 -2.6542
  106MOL0     H14274   3.683   1.677   0.712  0.5060 -1.4981  1.0095
  106MOL0     H14275   3.802   1.801   0.710 -0.0588 -3.1129 -2.0332
  106MOL0     H14276   3.809   1.619   0.951 -2.6973  0.4464 -0.9082
  106MOL0     H14277   3.844   1.540   0.796 -1.0541  0.1709 -0.4157
  106MOL0     H14278   4.020   1.713   0.747 -2.2026 -0.7034 -0.4095
  106MOL0     H14279   3.990   1.780   0.910 -0.5210 -0.9618  2.1918
  106MOL0     H14280   4.063   1.496   0.875  1.2883 -1.0124  1.5917
  106MOL0     H14281   4.065   1.598   1.029  1.9685  0.1701  1.3726
  106MOL0     H14282   4.272   1.606   0.808 -2.0243 -3.4842 -0.3810
  106MOL0     H14283   4.297   1.542   0.961 -0.6661 -0.8133 -1.2926
  106MOL0     H14284   4.187   1.828   0.959  0.0795  0.5132  1.4532
  106MOL0     H14285   4.260   1.729   1.088 -1.1664  0.7379  0.4516
  106MOL0     H14286   4.473   1.736   0.944  0.6997  1.9167 -3.7580
  106MOL0     H14287   4.423   1.879   1.043 -1.9625 -0.4562  1.8866
  106MOL0     H14288   4.369   1.820   0.750  0.1663  1.4602 -0.6450
  106MOL0     H14289   4.321   1.969   0.835  2.3365  2.2665  0.1928
  106MOL0     H14290   3.483   1.989   0.964 -3.1547  0.5992 -2.1684
  106MOL0     H14291   3.256   1.929   1.030  0.9261  0.1728  0.4592
  106MOL0     H14292   2.928   1.678   1.090  4.3510  2.1950 -2.3565
  106MOL0     H14293   2.685   1.690   1.095  4.3695 -1.6760  1.9853
  106MOL0     H14294   0.938   0.669   1.377  0.9599 -0.1828 -0.7298
  106MOL0     H14295   0.705   0.643   1.312 -0.4876 -0.8034  0.2105
  106MOL0     H14296   0.302   0.802   1.298 -0.4470  0.6528 -0.9417
  106MOL0     H14297   0.070   0.785   1.254  0.5148 -0.8732  1.0113
  106MOL0     H14298  -0.106   0.873   1.126 -0.0822  0.3579  1.6738
  106MOL0     H14299  -0.168   0.710   1.181  0.0017  2.5396  1.0780
  106MOL0     H14300  -0.352   0.776   1.063  0.7285 -3.0641  1.1458
  106MOL0     H14301  -0.273   0.692   0.942 -2.4700  1.6471 -1.6645
  106MOL0     H14302  -0.196   0.907   0.822  0.6755  4.1628 -0.1262
  106MOL0     H14303  -0.256   0.999   0.959 -0.5065 -0.4203  1.2548
  106MOL0     H14304  -0.479   0.948   0.924  0.8356  0.2703  1.3450
  106MOL0     H14305  -0.410   1.009   0.776  1.1419 -0.9123  0.5732
  106MOL0     H14306  -0.517   0.613   0.665  3.4844 -3.7676  4.8160
  106MOL0     H14307   0.139   0.668   0.845  0.3146  2.5566 -1.3694
  106MOL0     H14308   0.368   0.660   0.761  1.8771 -0.6976  0.1141
  106MOL0     H14309   0.488   0.768   0.829  0.4128 -0.1528 -3.2681
  106MOL0     H14310   0.474   0.587   0.860 -2.3582 -0.7837  0.3036
  107MOL0     O14311   5.846  11.059   0.518 -0.6346  0.5599  0.2231
  107MOL0     C14312   5.814  11.114   0.413 -0.1174 -0.9344 -0.2773
  107MOL0     O14313   5.901  11.140   0.305 -0.7541  0.0338 -0.1981
  107MOL0     C14314   6.030  11.111   0.336 -0.3497 -0.0092  0.0475
  107MOL0     C14315   6.071  10.975   0.326 -0.6230 -0.2763  1.0495
  107MOL0     C14316   6.204  10.942   0.317 -0.0896  0.2066 -0.5695
  107MOL0     C14317   6.309  11.039   0.341  0.5010  0.5888 -0.7996
  107MOL0     O14318   6.441  10.993   0.364  0.3743 -0.8236 -0.1906
  107MOL0     C14319   6.543  11.093   0.388 -0.1799 -0.5210  0.5181
  107MOL0     C14320   6.664  11.022   0.448  0.2338  0.2774 -0.0065
  107MOL0     C14321   6.796  11.105   0.424  0.3203  0.2665 -0.4333
  107MOL0     C14322   6.920  11.012   0.432  0.2587  0.2620  1.1587
  107MOL0     C14323   7.055  11.087   0.430  0.4659  0.6969  0.0846
  107MOL0     C14324   7.095  11.120   0.300 -0.4462  0.0722 -0.0074
  107MOL0     C14325   7.241  11.132   0.286  0.1431 -0.7561 -0.2052
  107MOL0     C14326   7.287  11.148   0.137  0.1840  0.2048 -0.1630
  107MOL0     N14327   7.429  11.120   0.124 -0.8597 -0.8055 -0.4607
  107MOL0     C14328   7.475  10.991   0.109  0.0495 -0.4142 -0.6564
  107MOL0     C14329   7.608  11.009   0.132  0.0455 -0.5576 -0.6813
  107MOL0     C14330   7.706  10.896   0.116  0.2139 -0.4393  0.0755
  107MOL0     C14331   7.792  10.881   0.241 -0.0064 -0.6534  0.7690
  107MOL0     C14332   7.731  10.849   0.373  0.0538 -0.5604  0.1731
  107MOL0     C14333   7.824  10.853   0.494  0.8671 -0.3305  0.6956
  107MOL0     O14334   7.865  10.986   0.502 -0.0295 -0.0079 -0.6719
  107MOL0     C14335   7.997  10.995   0.552  1.0684  0.4617 -0.3314
  107MOL0     C14336   8.049  10.903   0.647  0.0875 -0.4681  0.2826
  107MOL0     C14337   8.181  10.924   0.698  0.1812  0.0166 -0.3776
  107MOL0     C14338   8.263  11.029   0.647 -0.7434  0.1366 -0.1584
  107MOL0     C14339   8.398  11.052   0.699  0.3261  0.2218  0.0832
  107MOL0     O14340   8.486  11.105   0.609 -0.3681  0.2866  0.7668
  107MOL0     C14341   8.624  11.098   0.637  0.3620  0.0807 -0.0202
  107MOL0     C14342   8.704  11.037   0.544 -0.4352 -0.2191  0.0010
  107MOL0     C14343   8.842  11.037   0.563 -0.5315 -0.4892 -0.4480
  107MOL0     C14344   8.896  11.072   0.688 -0.4520 -0.0203  0.1040
  107MOL0     O14345   9.023  11.031   0.715 -0.5944  0.1847  0.4029
  107MOL0     C14346   9.104  11.088   0.814  0.4574  1.0605 -1.0347
  107MOL0     C14347   9.241  11.093   0.763  0.2117  0.3075  1.0943
  107MOL0     C14348   9.295  10.948   0.737 -0.4546  0.0431 -0.1464
  107MOL0     C14349   9.447  10.960   0.728  0.4630 -0.6341 -0.1950
  107MOL0     C14350   9.510  10.849   0.648 -0.1787  0.8679 -0.1532
  107MOL0     C14351   9.489  10.710   0.713  0.8046  0.3135  0.0707
  107MOL0     C14352   9.505  10.600   0.596  1.0848 -0.9251 -0.4334
  107MOL0     C14353   9.430  10.470   0.618  0.5353  0.6473  0.2641
  107MOL0    Cl14354   9.489  10.361   0.749 -0.2426  0.0731  0.0419
  107MOL0     C14355   8.811  11.130   0.784 -0.5300  0.2131  0.2790
  107MOL0     C14356   8.678  11.147   0.758 -0.4978 -0.5694 -0.9011
  107MOL0     O14357   8.422  11.002   0.806  0.4787  0.4828 -0.3091
  107MOL0     C14358   8.204  11.115   0.553  0.0337  0.0476  0.0141
  107MOL0     C14359   8.073  11.100   0.512 -0.3801 -0.7692  0.4896
  107MOL0     N14360   7.638  11.140   0.141  0.6607  0.3300 -0.1469
  107MOL0     N14361   7.535  11.215   0.130  0.0711  0.6530  0.2789
  107MOL0     C14362   6.262  11.170   0.351  0.3191  0.5119 -0.2109
  107MOL0     C14363   6.128  11.204   0.342 -0.9904  0.4822 -0.0273
  107MOL0     C14364   5.674  11.174   0.413 -0.4533  0.1663  0.7612
  107MOL0     C14365   5.572  11.097   0.478  0.6482  0.0681 -0.3030
  107MOL0     C14366   5.446  11.131   0.468  0.2742 -0.1762 -0.4865
  107MOL0     C14367   5.410  11.247   0.403  0.1689 -0.2825  0.2723
  107MOL0     O14368   5.284  11.301   0.399 -0.5027 -0.4019 -0.4567
  107MOL0     C14369   5.172  11.242   0.472 -0.1416 -0.2594  0.1682
  107MOL0     C14370   5.058  11.339   0.462  0.9842  0.0713  0.2751
  107MOL0     C14371   4.940  11.273   0.527 -0.4178 -0.9841  0.2229
  107MOL0     C14372   4.942  11.283   0.681 -0.8461 -0.1800 -0.9325
  107MOL0     C14373   4.817  11.233   0.740  0.1630  0.5037 -0.1373
  107MOL0     C14374   4.717  11.194   0.784 -0.1970 -0.6467 -1.8698
  107MOL0     C14375   5.506  11.325   0.340  0.1847  0.0855  0.1727
  107MOL0     C14376   5.639  11.292   0.345  0.4469  0.1752  0.6145
  107MOL0     C14377   5.739  11.382   0.294 -0.2152 -0.3772 -0.4518
  107MOL0     H14378   6.009  10.890   0.298  0.5179 -2.3287  4.2376
  107MOL0     H14379   6.238  10.840   0.303 -4.0291 -1.3006 -0.3519
  107MOL0     H14380   6.573  11.125   0.288 -0.7108 -0.4906  0.3670
  107MOL0     H14381   6.510  11.186   0.437 -2.3184 -1.1625  0.3859
  107MOL0     H14382   6.669  10.922   0.402  1.9570  0.5142 -0.3922
  107MOL0     H14383   6.658  11.003   0.556  0.8398  3.3136  0.6613
  107MOL0     H14384   6.803  11.192   0.491 -0.1470  0.6100 -0.8243
  107MOL0     H14385   6.790  11.149   0.325 -0.6599 -0.3358 -0.6579
  107MOL0     H14386   6.908  10.966   0.530 -1.0323  2.0842  1.9025
  107MOL0     H14387   6.916  10.934   0.355 -0.5979  1.7146 -0.3398
  107MOL0     H14388   7.048  11.174   0.497  0.2006  0.6471  0.1199
  107MOL0     H14389   7.132  11.022   0.474  1.3540  0.6011 -1.5483
  107MOL0     H14390   7.066  11.036   0.236 -0.4032  0.0985 -0.0611
  107MOL0     H14391   7.052  11.212   0.262  1.1096  1.4677  1.4495
  107MOL0     H14392   7.290  11.050   0.338 -0.6205 -1.3645 -0.4206
  107MOL0     H14393   7.268  11.225   0.337 -0.4309  0.0201 -1.2596
  107MOL0     H14394   7.238  11.090   0.058 -1.7458  3.9902 -1.9923
  107MOL0     H14395   7.270  11.253   0.112  1.0682 -0.2361 -3.0059
  107MOL0     H14396   7.428  10.900   0.075  1.1299 -0.7828 -1.2008
  107MOL0     H14397   7.645  10.805   0.109 -0.0210 -0.3878  1.2007
  107MOL0     H14398   7.769  10.897   0.027  1.1002 -0.3183  0.6951
  107MOL0     H14399   7.847  10.789   0.219  1.8760  0.1899  1.7675
  107MOL0     H14400   7.859  10.967   0.247 -0.2985  0.2302 -4.2893
  107MOL0     H14401   7.681  10.754   0.353 -0.9808  0.1392 -0.6358
  107MOL0     H14402   7.652  10.921   0.395 -2.6296 -1.0028 -6.0132
  107MOL0     H14403   7.896  10.770   0.488 -0.4318 -1.6512  2.5394
  107MOL0     H14404   7.764  10.836   0.584  1.5276 -0.0922  1.1890
  107MOL0     H14405   7.987  10.828   0.695  0.0181 -0.3882  0.3189
  107MOL0     H14406   8.216  10.869   0.785  1.2368 -0.9800 -1.3879
  107MOL0     H14407   8.666  10.997   0.450  2.0932 -0.2997 -1.0509
  107MOL0     H14408   8.908  10.989   0.492  1.7500  0.8129  0.6967
  107MOL0     H14409   9.070  11.187   0.845  1.2927  0.2510  3.0779
  107MOL0     H14410   9.107  11.014   0.895 -0.8556 -0.8093 -2.6247
  107MOL0     H14411   9.241  11.139   0.664 -0.0452 -2.2755 -0.1740
  107MOL0     H14412   9.311  11.149   0.826  1.0577  1.2815 -0.6276
  107MOL0     H14413   9.280  10.876   0.819  1.3066 -2.0919 -1.5918
  107MOL0     H14414   9.263  10.896   0.646 -0.9124 -0.9412  0.5512
  107MOL0     H14415   9.495  10.972   0.826 -1.6420  0.7276  0.7474
  107MOL0     H14416   9.473  11.052   0.676  2.2772 -0.5779  0.7508
  107MOL0     H14417   9.617  10.863   0.635 -0.5866  2.4149 -2.5316
  107MOL0     H14418   9.466  10.853   0.548 -2.7895  3.0120  0.9425
  107MOL0     H14419   9.569  10.695   0.787 -1.7134 -0.4778  2.7950
  107MOL0     H14420   9.395  10.699   0.767  0.3270 -1.6226 -1.0240
  107MOL0     H14421   9.609  10.575   0.572  0.7745 -3.0801  0.2207
  107MOL0     H14422   9.468  10.637   0.501 -2.0151 -1.1143  0.5817
  107MOL0     H14423   9.329  10.494   0.652  1.4731  0.7240  3.2551
  107MOL0     H14424   9.428  10.419   0.521 -1.7592  1.1382 -0.0098
  107MOL0     H14425   8.839  11.154   0.885 -1.6663 -2.7206  1.4192
  107MOL0     H14426   8.626  11.211   0.829  2.1925  0.2106  0.5112
  107MOL0     H14427   8.268  11.198   0.525  0.8937 -0.2463  1.0385
  107MOL0     H14428   8.036  11.177   0.445  2.1334 -0.5256 -0.7220
  107MOL0     H14429   6.332  11.253   0.361 -1.3378  1.7537  1.7758
  107MOL0     H14430   6.097  11.307   0.330  1.4183  1.2525 -0.0552
  107MOL0     H14431   5.595  11.005   0.531 -1.1866 -0.2829 -0.0674
  107MOL0     H14432   5.378  11.072   0.530  2.1126  0.5633  2.4337
  107MOL0     H14433   5.185  11.226   0.579  0.9824  0.3485  0.1356
  107MOL0     H14434   5.159  11.148   0.418  1.2477  0.7668 -2.1012
  107MOL0     H14435   5.045  11.366   0.357  0.8489  0.2550  0.3382
  107MOL0     H14436   5.093  11.431   0.509  1.9383 -0.7357  1.1994
  107MOL0     H14437   4.942  11.168   0.497 -1.9316 -1.3572  1.2899
  107MOL0     H14438   4.852  11.319   0.480  0.3250  1.2982  0.9519
  107MOL0     H14439   5.019  11.214   0.717  0.3572  1.4469 -0.2399
  107MOL0     H14440   4.967  11.380   0.725 -0.1233 -1.2893  1.2174
  107MOL0     H14441   4.619  11.182   0.826 -0.1484  3.2586 -0.2265
  107MOL0     H14442   5.468  11.405   0.277 -1.9836 -1.1558 -0.2051
  107MOL0     H14443   5.698  11.479   0.263 -1.8734 -0.9002  0.0045
  107MOL0     H14444   5.814  11.404   0.369 -1.7663 -0.9932  1.3676
  107MOL0     H14445   5.785  11.337   0.205 -0.4738  1.4063 -1.5395
  108MOL0     O14446   9.069   5.397   0.967  0.0549  0.9117  0.2562
  108MOL0     C14447   9.050   5.460   0.866 -0.1897 -0.0633 -0.3525
  108MOL0     O14448   9.138   5.470   0.756 -0.1141 -0.0823 -0.1481
  108MOL0     C14449   9.274   5.441   0.766 -0.4517 -0.2249 -0.4062
  108MOL0     C14450   9.355   5.530   0.839 -0.7514 -0.7679  1.1620
  108MOL0     C14451   9.496   5.507   0.843  0.4359  0.7537 -0.3111
  108MOL0     C14452   9.556   5.419   0.747  0.8315 -0.8663 -0.4750
  108MOL0     O14453   9.690   5.421   0.740  0.3302  0.5822 -0.1677
  108MOL0     C14454   9.759   5.375   0.612 -0.4643  0.0169 -0.3282
  108MOL0     C14455   9.909   5.407   0.612 -0.6026  0.3068 -0.0806
  108MOL0     C14456   9.975   5.451   0.485 -0.5967  0.1824 -0.0732
  108MOL0     C14457  10.129   5.463   0.495 -0.5348 -0.0203 -0.0052
  108MOL0     C14458  10.188   5.510   0.360 -0.0156  0.6153  0.2490
  108MOL0     C14459  10.334   5.542   0.368 -0.3799 -0.3006 -0.2899
  108MOL0     C14460  10.368   5.596   0.228 -2.0246 -0.0358  0.0679
  108MOL0     C14461  10.502   5.678   0.209  0.2930  0.4997  0.3527
  108MOL0     N14462  10.603   5.604   0.285  0.1578  1.0953  0.4356
  108MOL0     C14463  10.654   5.480   0.268  0.0132 -0.1614 -0.1433
  108MOL0     C14464  10.726   5.456   0.381  0.3860  0.1177  0.2776
  108MOL0     C14465  10.822   5.339   0.400 -0.5977  0.3327 -0.7857
  108MOL0     C14466  10.742   5.208   0.454 -0.4194 -1.0867 -0.4136
  108MOL0     C14467  10.635   5.228   0.566  0.1541 -0.5308  0.6000
  108MOL0     C14468  10.689   5.296   0.698 -0.2727  0.7789  0.6009
  108MOL0     O14469  10.795   5.212   0.758 -0.0617  0.0270  0.2920
  108MOL0     C14470  10.927   5.242   0.728  0.0765 -0.6961  0.0642
  108MOL0     C14471  10.985   5.371   0.715 -0.6305  0.5355  0.0976
  108MOL0     C14472  11.128   5.388   0.683 -0.0941 -0.1925  0.7441
  108MOL0     C14473  11.214   5.279   0.678  0.2356 -0.0300  0.2243
  108MOL0     C14474  11.353   5.294   0.648  0.0882  0.5464  0.0390
  108MOL0     O14475  11.431   5.176   0.654  0.1029 -0.5221 -0.0571
  108MOL0     C14476  11.558   5.159   0.593 -0.0701 -0.3185  0.2786
  108MOL0     C14477  11.641   5.256   0.533  0.3778  0.2341 -0.9190
  108MOL0     C14478  11.762   5.228   0.475 -1.0525 -0.1741  0.0677
  108MOL0     C14479  11.816   5.095   0.474  0.7724 -0.0822 -0.0469
  108MOL0     O14480  11.929   5.044   0.424  0.4049 -0.2592  0.2501
  108MOL0     C14481  12.022   5.131   0.357 -0.4199 -0.2963 -0.1323
  108MOL0     C14482  12.134   5.033   0.299 -0.5370  0.3240  0.0685
  108MOL0     C14483  12.273   5.107   0.305  0.9788  0.6029  0.2183
  108MOL0     C14484  12.397   5.021   0.286 -0.2077 -0.0252 -0.2291
  108MOL0     C14485  12.530   5.097   0.282  0.1611  0.5637  0.4902
  108MOL0     C14486  12.576   5.141   0.421 -0.2147  0.8638  0.6336
  108MOL0     C14487  12.719   5.192   0.420 -0.0719  0.2971 -0.4559
  108MOL0     C14488  12.765   5.225   0.561 -0.4230  0.1035  0.5433
  108MOL0    Cl14489  12.946   5.243   0.574 -0.2907 -0.3475  0.0631
  108MOL0     C14490  11.734   5.003   0.537  0.5952 -0.0901  0.4689
  108MOL0     C14491  11.612   5.031   0.603  0.5034 -0.6024  1.4071
  108MOL0     O14492  11.390   5.403   0.609 -0.4118 -0.3442  0.5264
  108MOL0     C14493  11.159   5.153   0.705 -0.4782  0.3758  0.2152
  108MOL0     C14494  11.014   5.130   0.726 -0.9383  0.6123 -0.6077
  108MOL0     N14495  10.718   5.571   0.470 -0.0663  0.5190  0.2195
  108MOL0     N14496  10.648   5.650   0.404  0.0737  0.0587 -0.4368
  108MOL0     C14497   9.465   5.344   0.666 -0.3761  0.2800 -0.6505
  108MOL0     C14498   9.323   5.359   0.676 -0.5478  0.0221  0.9190
  108MOL0     C14499   8.906   5.491   0.829 -0.4228  0.2731 -0.5654
  108MOL0     C14500   8.870   5.492   0.690  0.4301 -0.1761 -0.4166
  108MOL0     C14501   8.735   5.513   0.661  0.0921 -0.5471 -0.2862
  108MOL0     C14502   8.632   5.540   0.755  0.1680 -0.2065 -0.3804
  108MOL0     O14503   8.505   5.558   0.710  0.5463  0.5005  0.3506
  108MOL0     C14504   8.386   5.545   0.787 -0.2429  0.6350  0.8867
  108MOL0     C14505   8.262   5.597   0.697 -0.4421 -0.2416  0.1436
  108MOL0     C14506   8.134   5.588   0.785 -0.8218 -1.2610  0.1621
  108MOL0     C14507   8.009   5.628   0.705  0.4400  0.3387  0.3539
  108MOL0     C14508   7.897   5.627   0.799 -0.3758 -0.4105 -0.2430
  108MOL0     C14509   7.817   5.634   0.887  0.9431  0.4025  0.6262
  108MOL0     C14510   8.673   5.543   0.884 -0.5409 -0.7246 -0.2375
  108MOL0     C14511   8.807   5.522   0.929  0.2319  0.6405 -0.1572
  108MOL0     C14512   8.840   5.536   1.078 -0.0815 -0.8637  0.3715
  108MOL0     H14513   9.310   5.606   0.903 -2.2550  1.3721 -2.2021
  108MOL0     H14514   9.556   5.559   0.916 -0.4005 -0.1807  1.1042
  108MOL0     H14515   9.750   5.270   0.586  1.4710 -0.3686  0.4142
  108MOL0     H14516   9.712   5.427   0.528 -3.4943 -0.9825  0.6085
  108MOL0     H14517   9.960   5.316   0.647  1.0369  0.7501 -1.1715
  108MOL0     H14518   9.921   5.490   0.682 -1.0729  0.5801 -0.3248
  108MOL0     H14519   9.934   5.545   0.446 -0.1139 -0.9556 -3.6525
  108MOL0     H14520   9.971   5.371   0.411  0.9258  1.2574 -1.3862
  108MOL0     H14521  10.151   5.521   0.585 -0.1689  1.9070 -1.2822
  108MOL0     H14522  10.163   5.361   0.514 -0.8621  0.2615  2.3733
  108MOL0     H14523  10.170   5.435   0.282  0.3694 -0.4096  1.1291
  108MOL0     H14524  10.132   5.599   0.329 -1.8666 -0.2162  1.0406
  108MOL0     H14525  10.349   5.623   0.440  1.4227 -0.9037  0.0568
  108MOL0     H14526  10.388   5.453   0.400 -1.2911 -0.6614  0.2909
  108MOL0     H14527  10.295   5.668   0.191  2.9943  4.6598 -1.9050
  108MOL0     H14528  10.378   5.515   0.155  3.6175  0.7832 -0.4810
  108MOL0     H14529  10.525   5.683   0.103 -1.2640 -0.5651 -0.0793
  108MOL0     H14530  10.498   5.782   0.243  0.7814  1.2171 -1.6941
  108MOL0     H14531  10.642   5.411   0.186 -1.1163  1.3353 -1.2982
  108MOL0     H14532  10.875   5.317   0.307  0.6225  0.9098 -0.2594
  108MOL0     H14533  10.896   5.369   0.475 -0.9991 -0.1354 -0.1960
  108MOL0     H14534  10.692   5.168   0.365 -1.7073  1.4227 -0.9143
  108MOL0     H14535  10.820   5.142   0.492  2.5292  2.5267  0.3563
  108MOL0     H14536  10.577   5.136   0.584  0.8142 -1.3899 -1.3882
  108MOL0     H14537  10.565   5.300   0.522 -1.0095 -2.1157 -0.2541
  108MOL0     H14538  10.610   5.318   0.770 -2.2204  2.2537 -1.8273
  108MOL0     H14539  10.725   5.397   0.672  4.9617 -0.7112  0.8195
  108MOL0     H14540  10.927   5.462   0.705 -0.2635  0.6290 -1.6244
  108MOL0     H14541  11.177   5.485   0.678  1.1365 -0.7789  1.0355
  108MOL0     H14542  11.609   5.359   0.518  1.2478  0.4504 -1.3346
  108MOL0     H14543  11.825   5.308   0.437  0.3642 -1.0217  0.5287
  108MOL0     H14544  11.965   5.174   0.274 -0.2994 -1.4927 -0.8759
  108MOL0     H14545  12.062   5.196   0.435 -2.3912  0.6917  0.1245
  108MOL0     H14546  12.145   4.937   0.350  1.7442 -0.8772 -2.4438
  108MOL0     H14547  12.118   5.019   0.192  2.8550  1.6736 -0.7445
  108MOL0     H14548  12.277   5.196   0.241 -0.2876 -1.2007 -2.5473
  108MOL0     H14549  12.267   5.144   0.408 -3.5077  0.7951  0.1062
  108MOL0     H14550  12.390   4.973   0.188  4.0789  0.1673 -0.8198
  108MOL0     H14551  12.411   4.945   0.364  1.7311 -0.9131 -1.3752
  108MOL0     H14552  12.518   5.178   0.210  3.2153 -1.1961 -2.2822
  108MOL0     H14553  12.613   5.043   0.236 -0.0881  1.5368 -1.1938
  108MOL0     H14554  12.509   5.217   0.462 -0.9409  0.3362  0.4477
  108MOL0     H14555  12.574   5.061   0.495 -2.7089  0.5514  0.3062
  108MOL0     H14556  12.734   5.279   0.355 -0.7963 -0.2277 -1.3471
  108MOL0     H14557  12.779   5.109   0.381 -1.1069 -0.7806  0.1861
  108MOL0     H14558  12.718   5.316   0.598 -2.4650 -1.0854  1.0427
  108MOL0     H14559  12.726   5.160   0.640 -1.1582  1.3204  1.2086
  108MOL0     H14560  11.762   4.898   0.533  0.7927 -0.0179 -2.0695
  108MOL0     H14561  11.561   4.949   0.653  0.4428 -1.4016  0.0884
  108MOL0     H14562  11.215   5.060   0.701  1.2771  1.4055 -3.3372
  108MOL0     H14563  10.970   5.033   0.745 -0.1589  0.6710  1.7933
  108MOL0     H14564   9.497   5.274   0.589 -0.6616 -0.9985  0.3558
  108MOL0     H14565   9.254   5.308   0.610  1.0426  2.1583 -2.6740
  108MOL0     H14566   8.933   5.465   0.606  0.1153 -0.1074 -0.6762
  108MOL0     H14567   8.700   5.510   0.559  0.1590  1.1279 -0.3973
  108MOL0     H14568   8.399   5.602   0.879 -0.5092 -0.4109  1.5862
  108MOL0     H14569   8.356   5.443   0.812 -1.9398  0.6926 -0.6883
  108MOL0     H14570   8.254   5.527   0.613  1.4034 -1.1540  0.6671
  108MOL0     H14571   8.278   5.701   0.668  2.2605  0.0803  2.3597
  108MOL0     H14572   8.143   5.648   0.876  1.1163  2.0008 -1.9615
  108MOL0     H14573   8.121   5.485   0.818 -1.5821 -1.3945 -0.5112
  108MOL0     H14574   8.030   5.730   0.670 -2.2852  0.5203 -1.0147
  108MOL0     H14575   7.984   5.562   0.621 -0.8936 -2.3280  2.7125
  108MOL0     H14576   7.734   5.646   0.953 -0.1921  4.5377 -1.2336
  108MOL0     H14577   8.596   5.547   0.960  1.9355  2.2916  2.3733
  108MOL0     H14578   8.935   5.577   1.114 -0.6745  0.8044  0.1466
  108MOL0     H14579   8.773   5.608   1.126  0.3744 -1.1154  1.4125
  108MOL0     H14580   8.839   5.435   1.119 -1.4533 -0.9407  0.1940
  109MOL0     O14581   1.474   1.643  10.446 -0.0271  0.4097 -0.0476
  109MOL0     C14582   1.508   1.592  10.345 -0.1236  0.2395 -0.0078
  109MOL0     O14583   1.640   1.554  10.307  0.1424  0.0188  0.0154
  109MOL0     C14584   1.757   1.585  10.377 -0.0457  0.4433  0.4944
  109MOL0     C14585   1.768   1.605  10.514  0.1483  0.3068 -0.2157
  109MOL0     C14586   1.890   1.621  10.572  0.0041 -1.5119 -0.2739
  109MOL0     C14587   2.009   1.608  10.500 -0.0015  0.6220  0.7411
  109MOL0     O14588   2.117   1.664  10.561  0.1161 -0.1479 -0.1754
  109MOL0     C14589   2.248   1.613  10.520 -0.1196 -0.7501  0.3472
  109MOL0     C14590   2.329   1.619  10.651 -0.2013  0.2106 -0.1472
  109MOL0     C14591   2.464   1.558  10.632  0.3395  0.6905 -0.3394
  109MOL0     C14592   2.551   1.573  10.757 -1.1191  0.0223 -0.7023
  109MOL0     C14593   2.696   1.546  10.715 -0.3368 -0.4817  0.3243
  109MOL0     C14594   2.780   1.551  10.844  0.2968 -0.2807 -0.8474
  109MOL0     C14595   2.920   1.518  10.793 -0.2611 -0.0540  0.3259
  109MOL0     C14596   3.026   1.528  10.904 -0.1389  1.0681 -0.1260
  109MOL0     N14597   3.145   1.451  10.859 -0.3308  0.0809 -0.0445
  109MOL0     C14598   3.160   1.314  10.866  0.6814 -0.8729  0.7150
  109MOL0     C14599   3.294   1.295  10.864  0.1272 -0.0509  0.7750
  109MOL0     C14600   3.370   1.169  10.866 -0.2725  0.1886  0.7949
  109MOL0     C14601   3.523   1.203  10.867 -0.9290  0.4181  0.0540
  109MOL0     C14602   3.602   1.072  10.860 -1.1787  0.1164 -0.7670
  109MOL0     C14603   3.750   1.095  10.857  0.2432  0.1635  0.0686
  109MOL0     O14604   3.811   0.969  10.859 -0.0328  0.3265  0.2737
  109MOL0     C14605   3.932   0.951  10.932  0.1223 -0.5016 -0.9258
  109MOL0     C14606   4.040   1.032  10.911 -0.4134 -0.6815 -0.3627
  109MOL0     C14607   4.164   0.997  10.965 -0.4516 -1.3429 -0.3001
  109MOL0     C14608   4.180   0.879  11.049  0.7827 -0.1718 -0.2353
  109MOL0     C14609   4.307   0.838  11.108  0.3044  0.6214 -0.2016
  109MOL0     O14610   4.311   0.747  11.200  0.7048 -0.4671  0.4755
  109MOL0     C14611   4.422   0.726  11.278 -0.0767  0.3212 -0.6187
  109MOL0     C14612   4.477   0.601  11.284 -0.4838  0.1375  0.3664
  109MOL0     C14613   4.587   0.584  11.370 -0.2042  0.0458 -0.1424
  109MOL0     C14614   4.642   0.689  11.445  0.1487  0.7224 -0.0644
  109MOL0     O14615   4.758   0.659  11.512 -0.8922 -0.1634  0.2933
  109MOL0     C14616   4.732   0.594  11.636 -0.0148 -0.1887 -0.1546
  109MOL0     C14617   4.696   0.697  11.755  0.5364 -0.0457 -0.2126
  109MOL0     C14618   4.762   0.831  11.756  0.2735 -0.6666 -0.2002
  109MOL0     C14619   4.887   0.830  11.844  0.3994 -0.2414  0.0936
  109MOL0     C14620   4.926   0.970  11.893  0.0809  0.8797  0.2658
  109MOL0     C14621   4.955   1.060  11.769  0.0954  0.2232 -0.3409
  109MOL0     C14622   5.110   1.028  11.731  0.0670  0.4073 -0.1756
  109MOL0     C14623   5.148   1.120  11.613 -0.5874 -0.5406 -0.6044
  109MOL0    Cl14624   5.184   1.285  11.684 -0.2709 -0.5041  0.0905
  109MOL0     C14625   4.589   0.815  11.439 -0.6712 -0.5622  0.7715
  109MOL0     C14626   4.476   0.836  11.352  0.3453  0.4321 -0.4396
  109MOL0     O14627   4.404   0.901  11.068  0.3895  0.1625  0.7524
  109MOL0     C14628   4.068   0.799  11.072 -0.9368  0.6502 -0.3429
  109MOL0     C14629   3.941   0.842  11.025 -0.1237 -0.5283  0.5155
  109MOL0     N14630   3.355   1.419  10.854 -0.6222  0.3652 -0.2955
  109MOL0     N14631   3.267   1.518  10.856 -1.2384  0.8011  0.0637
  109MOL0     C14632   2.004   1.575  10.365  0.1595  0.1989  0.1280
  109MOL0     C14633   1.875   1.564  10.303  0.7313  0.5988  0.2214
  109MOL0     C14634   1.397   1.577  10.241 -0.8738  0.3898 -0.1094
  109MOL0     C14635   1.263   1.584  10.276 -0.0220 -0.7321 -0.2049
  109MOL0     C14636   1.156   1.573  10.189 -0.1453  0.2207 -0.5239
  109MOL0     C14637   1.185   1.564  10.054  0.2076  0.3469 -0.0799
  109MOL0     O14638   1.069   1.560   9.979 -0.3236  0.9359 -0.0814
  109MOL0     C14639   1.086   1.547   9.831 -0.1001  0.5404  0.2346
  109MOL0     C14640   1.128   1.405   9.781  0.0698  0.2641  0.9525
  109MOL0     C14641   1.011   1.306   9.795  0.5182 -0.1958 -0.0838
  109MOL0     C14642   1.017   1.190   9.699 -0.4635 -0.1844 -0.4403
  109MOL0     C14643   0.987   1.221   9.560  1.1018  0.0105  0.1860
  109MOL0     C14644   0.945   1.244   9.443 -0.3287  0.3552 -0.2888
  109MOL0     C14645   1.319   1.553  10.013 -0.2671  0.1419  1.0624
  109MOL0     C14646   1.427   1.558  10.107  0.5785  0.1032  0.5525
  109MOL0     C14647   1.566   1.573  10.047 -0.4808 -0.2461 -0.9475
  109MOL0     H14648   1.678   1.610  10.574 -0.3489  1.0010 -0.9973
  109MOL0     H14649   1.902   1.637  10.678  0.1596  0.0610 -0.4998
  109MOL0     H14650   2.246   1.516  10.470  0.1529  0.2835 -1.7768
  109MOL0     H14651   2.294   1.676  10.443  1.1669 -2.6547 -0.5047
  109MOL0     H14652   2.291   1.564  10.737  2.3193  2.0230  2.3076
  109MOL0     H14653   2.340   1.725  10.677 -1.6543  0.2806  0.2286
  109MOL0     H14654   2.523   1.606  10.554  1.5434  0.3002  0.3078
  109MOL0     H14655   2.459   1.450  10.618  0.5895  0.7104 -0.5854
  109MOL0     H14656   2.534   1.671  10.801 -0.4326 -1.0369  2.0904
  109MOL0     H14657   2.524   1.499  10.833  0.9985  2.5108  2.7546
  109MOL0     H14658   2.715   1.450  10.667 -0.5328 -0.4622  0.2077
  109MOL0     H14659   2.720   1.635  10.656 -2.2840 -0.1581 -0.0546
  109MOL0     H14660   2.770   1.646  10.897 -1.1514 -1.9836  2.2176
  109MOL0     H14661   2.753   1.480  10.923  0.8863  2.1052  1.6565
  109MOL0     H14662   2.948   1.583  10.710 -0.1467 -0.4122  0.0846
  109MOL0     H14663   2.927   1.418  10.750  0.1648  0.2278 -0.2758
  109MOL0     H14664   3.057   1.630  10.929  2.4510  0.3734 -0.2081
  109MOL0     H14665   2.988   1.490  10.999  0.1615  0.4910 -0.2323
  109MOL0     H14666   3.080   1.244  10.889  0.8643 -0.8882  1.3287
  109MOL0     H14667   3.329   1.106  10.944 -1.8659  0.6743  0.3856
  109MOL0     H14668   3.364   1.118  10.769  0.2703 -1.3983  1.5652
  109MOL0     H14669   3.549   1.258  10.777 -0.5751 -1.3819 -1.0003
  109MOL0     H14670   3.543   1.272  10.949  0.2320  3.0005 -2.2393
  109MOL0     H14671   3.583   1.016  10.768  3.6332 -0.7267 -1.4825
  109MOL0     H14672   3.572   1.003  10.939  1.5381 -0.6026 -0.2728
  109MOL0     H14673   3.786   1.148  10.945 -0.2848  3.4467 -1.5535
  109MOL0     H14674   3.780   1.145  10.765 -0.0652 -0.4349 -0.3680
  109MOL0     H14675   4.044   1.118  10.845 -1.0160  1.1885  1.8923
  109MOL0     H14676   4.260   1.041  10.941  0.0896 -0.3219  3.1483
  109MOL0     H14677   4.445   0.518  11.222  2.1928  0.6824 -1.9295
  109MOL0     H14678   4.637   0.488  11.374  2.0041  1.1733  1.2896
  109MOL0     H14679   4.671   0.503  11.632  1.4065 -1.1504 -0.8060
  109MOL0     H14680   4.827   0.545  11.659  0.7958  1.4304  0.1011
  109MOL0     H14681   4.589   0.714  11.748  0.1254 -1.6875  1.3480
  109MOL0     H14682   4.716   0.644  11.848  4.0270  4.0582  1.7326
  109MOL0     H14683   4.789   0.866  11.656  0.2168 -1.3660 -0.4707
  109MOL0     H14684   4.692   0.906  11.792 -0.3345 -0.5080 -1.6668
  109MOL0     H14685   4.973   0.780  11.798  0.0829 -0.9445  0.2695
  109MOL0     H14686   4.865   0.768  11.931  0.2422  0.2568  0.4178
  109MOL0     H14687   5.008   0.956  11.965  0.2360  1.2323  0.1612
  109MOL0     H14688   4.841   1.015  11.945 -0.7217  1.0176 -1.1204
  109MOL0     H14689   4.884   1.048  11.687 -2.5593 -0.5874  1.9058
  109MOL0     H14690   4.945   1.163  11.805 -2.3500  0.5707 -1.7802
  109MOL0     H14691   5.109   0.921  11.706  2.3745 -0.1996  1.8604
  109MOL0     H14692   5.183   1.029  11.813  3.3881 -2.1906 -2.7919
  109MOL0     H14693   5.231   1.078  11.555  0.3087 -3.0157  2.2479
  109MOL0     H14694   5.061   1.127  11.546  0.0676 -0.0846 -1.4376
  109MOL0     H14695   4.633   0.905  11.480 -1.4538  1.0981 -1.7650
  109MOL0     H14696   4.425   0.930  11.335  2.3356  1.5146 -0.7718
  109MOL0     H14697   4.076   0.703  11.122  0.2711  0.2040 -1.3341
  109MOL0     H14698   3.853   0.778  11.025 -2.0454  1.9654 -0.1055
  109MOL0     H14699   2.096   1.571  10.308  0.4966  3.3822  0.2537
  109MOL0     H14700   1.852   1.540  10.199 -0.8396 -0.0872  0.6976
  109MOL0     H14701   1.231   1.596  10.379  0.0920  1.1301 -0.3575
  109MOL0     H14702   1.052   1.593  10.211  0.8067  2.6628  2.5150
  109MOL0     H14703   1.163   1.619   9.804  0.0897  0.0427 -0.5899
  109MOL0     H14704   0.992   1.585   9.789 -1.9301  1.5275  4.6916
  109MOL0     H14705   1.209   1.359   9.839 -0.9316  0.9559  3.0224
  109MOL0     H14706   1.162   1.407   9.678 -0.2586  1.7206  0.8476
  109MOL0     H14707   0.918   1.357   9.769  0.6670 -0.6887 -1.6565
  109MOL0     H14708   0.995   1.268   9.896 -0.3709 -0.5456 -0.3426
  109MOL0     H14709   1.118   1.149   9.697 -0.9183 -1.4338  0.8370
  109MOL0     H14710   0.936   1.122   9.725  0.5108 -1.2223 -0.0747
  109MOL0     H14711   0.916   1.259   9.341 -2.0660  3.8618  0.5507
  109MOL0     H14712   1.345   1.537   9.909  1.1428  1.5262  1.1657
  109MOL0     H14713   1.629   1.488  10.075 -1.6841 -0.5038  1.2102
  109MOL0     H14714   1.568   1.583   9.938  3.1648  1.2901 -0.8817
  109MOL0     H14715   1.613   1.665  10.084 -1.8859 -0.0878  0.5973
  110MOL0     O14716   5.556   1.949   3.295  0.0847  1.0426  0.1838
  110MOL0     C14717   5.534   1.913   3.179 -0.1262 -0.0198 -0.6385
  110MOL0     O14718   5.627   1.884   3.086 -0.1200 -0.0643 -0.7406
  110MOL0     C14719   5.751   1.883   3.133 -0.2379 -0.2747  0.2675
  110MOL0     C14720   5.845   1.979   3.088  0.5874 -0.1818 -0.2785
  110MOL0     C14721   5.976   1.974   3.130  0.1576  0.0482 -0.4016
  110MOL0     C14722   6.021   1.878   3.216 -0.7283 -0.1581 -0.3449
  110MOL0     O14723   6.152   1.892   3.262 -0.4415 -0.6199  0.6749
  110MOL0     C14724   6.185   1.821   3.383 -0.1226 -0.4554 -0.3635
  110MOL0     C14725   6.331   1.858   3.421  0.2624 -0.2692 -0.1312
  110MOL0     C14726   6.355   1.995   3.492  0.6975  0.1116  0.7169
  110MOL0     C14727   6.257   2.028   3.597  0.3210 -0.3603 -0.3148
  110MOL0     C14728   6.270   2.163   3.661  0.1428 -0.2352 -0.0278
  110MOL0     C14729   6.403   2.190   3.731  0.1210 -0.3384  0.3078
  110MOL0     C14730   6.465   2.090   3.824  0.2406 -0.3434  0.1048
  110MOL0     C14731   6.376   2.088   3.948  0.1120  0.5801  0.3736
  110MOL0     N14732   6.446   2.023   4.063  0.2446 -0.5116 -0.2975
  110MOL0     C14733   6.541   2.080   4.150 -0.3812 -0.6041 -0.5730
  110MOL0     C14734   6.597   1.977   4.219  0.0070 -0.0254 -0.3399
  110MOL0     C14735   6.694   1.969   4.325  0.0175  0.8728  0.1006
  110MOL0     C14736   6.836   2.010   4.284  0.2864  0.2703 -0.5491
  110MOL0     C14737   6.925   1.989   4.412 -0.4409  0.1581 -0.3471
  110MOL0     C14738   7.069   1.930   4.377 -0.1715 -0.8197 -0.3782
  110MOL0     O14739   7.131   1.991   4.256 -0.4749  0.1807 -0.1249
  110MOL0     C14740   7.252   1.930   4.217  0.0301  0.3022  0.3456
  110MOL0     C14741   7.265   1.883   4.078 -0.6661 -0.1185 -0.8192
  110MOL0     C14742   7.380   1.817   4.040  0.5609 -0.6248  0.1669
  110MOL0     C14743   7.483   1.794   4.131 -0.6117 -0.8025  0.1708
  110MOL0     C14744   7.617   1.751   4.085  0.6439  0.1991 -0.0123
  110MOL0     O14745   7.711   1.749   4.184 -0.9136  0.5782 -0.5945
  110MOL0     C14746   7.828   1.684   4.165  0.1876  0.7856  0.1221
  110MOL0     C14747   7.943   1.749   4.198 -0.8901  0.1471  0.4394
  110MOL0     C14748   8.067   1.676   4.189 -0.1611 -0.4225  0.1390
  110MOL0     C14749   8.068   1.545   4.143 -0.1589 -0.7369 -0.1646
  110MOL0     O14750   8.192   1.487   4.147 -0.0218  0.6243  0.1960
  110MOL0     C14751   8.205   1.368   4.075  0.0208 -0.8294 -1.1465
  110MOL0     C14752   8.348   1.323   4.070  0.2718  0.4366 -0.1460
  110MOL0     C14753   8.386   1.174   4.021  0.0100 -0.6060 -0.4975
  110MOL0     C14754   8.338   1.130   3.879  0.6627  0.6776 -0.2381
  110MOL0     C14755   8.383   0.987   3.843  0.4014 -0.4999 -0.0409
  110MOL0     C14756   8.524   0.981   3.777  0.3106  0.5023 -0.7342
  110MOL0     C14757   8.559   0.828   3.753 -0.9575  0.2150 -0.0963
  110MOL0     C14758   8.717   0.800   3.737 -0.1813  0.2296 -0.2210
  110MOL0    Cl14759   8.757   0.639   3.690 -0.0623  0.5593 -0.2137
  110MOL0     C14760   7.948   1.482   4.110 -0.5078 -0.6831  0.8915
  110MOL0     C14761   7.830   1.552   4.121  0.6317 -0.5387  0.7550
  110MOL0     O14762   7.625   1.704   3.971  0.4506 -0.1723  0.3704
  110MOL0     C14763   7.471   1.830   4.263 -0.6633 -0.4705 -0.0708
  110MOL0     C14764   7.352   1.890   4.304  0.4953  0.0243  0.1783
  110MOL0     N14765   6.547   1.860   4.166  0.4980 -0.0946  0.1584
  110MOL0     N14766   6.453   1.888   4.076 -0.1567  0.3291 -0.0477
  110MOL0     C14767   5.935   1.784   3.264 -0.4616  0.4623 -0.1954
  110MOL0     C14768   5.803   1.783   3.217 -0.5695  0.3979 -0.0055
  110MOL0     C14769   5.392   1.886   3.130  0.6091  0.2645 -0.5780
  110MOL0     C14770   5.364   1.872   2.986 -0.4212  0.4869  0.5039
  110MOL0     C14771   5.236   1.848   2.938 -0.2752 -0.1416 -0.7720
  110MOL0     C14772   5.127   1.848   3.026  0.0554  0.8799 -0.5270
  110MOL0     O14773   5.000   1.841   2.962 -0.0289  0.1230  0.1953
  110MOL0     C14774   4.872   1.824   3.043  0.1830  0.2325 -0.4425
  110MOL0     C14775   4.863   1.669   3.094  0.0287  0.7619 -0.1635
  110MOL0     C14776   4.766   1.641   3.198  0.2923  0.9432 -0.3950
  110MOL0     C14777   4.785   1.725   3.321  0.0989 -0.4478 -0.7195
  110MOL0     C14778   4.701   1.687   3.435  0.2672 -0.5365  0.0158
  110MOL0     C14779   4.646   1.667   3.539 -0.5741  0.0744 -0.1361
  110MOL0     C14780   5.154   1.854   3.161  0.2682  0.4398  0.1352
  110MOL0     C14781   5.281   1.876   3.222 -0.4676  0.2416 -0.1672
  110MOL0     C14782   5.293   1.887   3.371  0.3444  0.6273  0.4529
  110MOL0     H14783   5.809   2.059   3.024 -0.1901  1.1973  1.7813
  110MOL0     H14784   6.043   2.049   3.089 -0.4919  0.7393 -0.2249
  110MOL0     H14785   6.120   1.835   3.470  1.1017  2.2671  0.2279
  110MOL0     H14786   6.191   1.713   3.369  2.0825 -0.5230  0.6348
  110MOL0     H14787   6.380   1.849   3.323 -0.2980 -0.1787 -0.4235
  110MOL0     H14788   6.361   1.783   3.495 -0.4561 -0.8426 -0.4010
  110MOL0     H14789   6.366   2.070   3.413  1.3673 -0.0331  0.6631
  110MOL0     H14790   6.453   1.992   3.541  0.0727 -1.8286  1.9877
  110MOL0     H14791   6.159   2.034   3.550 -0.9082  0.6709  2.1705
  110MOL0     H14792   6.253   1.952   3.677  1.6559  1.1099  1.2163
  110MOL0     H14793   6.248   2.243   3.589 -1.5105 -2.2130 -1.8673
  110MOL0     H14794   6.192   2.169   3.736 -1.9516 -1.3953 -1.9824
  110MOL0     H14795   6.479   2.212   3.656 -0.3156 -2.9051 -1.0007
  110MOL0     H14796   6.396   2.285   3.785  0.9662  0.0891 -0.3219
  110MOL0     H14797   6.567   2.118   3.853 -0.0436 -0.0477  0.8586
  110MOL0     H14798   6.468   1.996   3.769  3.4853  0.1734 -0.8066
  110MOL0     H14799   6.342   2.189   3.974  2.2979  1.3889  0.2549
  110MOL0     H14800   6.286   2.031   3.922  0.7377  1.2011 -3.7091
  110MOL0     H14801   6.545   2.186   4.174 -2.1850 -0.6221 -0.0894
  110MOL0     H14802   6.656   2.040   4.399  0.5875  1.9276 -0.6027
  110MOL0     H14803   6.695   1.866   4.363  2.0498  0.5524 -0.7278
  110MOL0     H14804   6.874   1.945   4.205  0.9952  2.6088 -2.2252
  110MOL0     H14805   6.824   2.113   4.249 -0.1368  0.3326 -0.2408
  110MOL0     H14806   6.873   1.924   4.482  0.6789  1.2555  1.5708
  110MOL0     H14807   6.942   2.080   4.470  2.9824  0.0021 -0.9109
  110MOL0     H14808   7.061   1.823   4.356  2.0495 -1.5859  2.1061
  110MOL0     H14809   7.136   1.937   4.463  0.0836 -0.5847 -0.5935
  110MOL0     H14810   7.191   1.924   4.011 -0.5210  0.7021 -0.4952
  110MOL0     H14811   7.387   1.767   3.944 -0.9045  0.9627 -0.8174
  110MOL0     H14812   7.937   1.853   4.228 -1.5737  0.1502  0.3052
  110MOL0     H14813   8.159   1.726   4.215 -1.3358  1.4014  0.9501
  110MOL0     H14814   8.139   1.294   4.121 -2.9437  3.5344  2.5154
  110MOL0     H14815   8.173   1.382   3.972 -1.2346 -1.3021 -0.8391
  110MOL0     H14816   8.409   1.397   4.018  2.2001 -1.2917 -0.4981
  110MOL0     H14817   8.382   1.326   4.174  0.2935 -2.0991 -0.0120
  110MOL0     H14818   8.493   1.156   4.020  0.1793  0.3274 -0.6230
  110MOL0     H14819   8.323   1.106   4.079 -1.3468 -1.3053 -2.6495
  110MOL0     H14820   8.389   1.193   3.806 -1.3439  2.0764 -0.5318
  110MOL0     H14821   8.229   1.141   3.872  0.7363  1.1568 -0.6795
  110MOL0     H14822   8.311   0.952   3.769 -0.1541 -0.3269  0.4112
  110MOL0     H14823   8.391   0.917   3.927  3.0562 -3.0813 -2.2307
  110MOL0     H14824   8.518   1.024   3.677  2.5808  0.0818 -1.1101
  110MOL0     H14825   8.595   1.032   3.844 -1.1218  0.2652  1.0669
  110MOL0     H14826   8.515   0.791   3.659  0.8869 -2.5986  0.0252
  110MOL0     H14827   8.529   0.775   3.844 -0.7074  0.8630  0.3641
  110MOL0     H14828   8.747   0.875   3.664 -3.2760  2.1232  0.2663
  110MOL0     H14829   8.768   0.823   3.831 -1.0863 -0.6835  0.5299
  110MOL0     H14830   7.945   1.374   4.102 -2.4295 -0.7271  1.6842
  110MOL0     H14831   7.738   1.500   4.098  0.1204  0.4870  0.4087
  110MOL0     H14832   7.559   1.823   4.326 -0.4364  0.7069 -0.2313
  110MOL0     H14833   7.342   1.910   4.410 -1.4152 -1.7470  0.3935
  110MOL0     H14834   5.952   1.705   3.336 -1.4258 -2.7052 -3.1729
  110MOL0     H14835   5.732   1.702   3.237 -0.0065 -0.0866  0.0688
  110MOL0     H14836   5.444   1.885   2.913 -2.2401  2.5194 -1.2696
  110MOL0     H14837   5.226   1.845   2.830  1.0376 -0.4601 -0.9074
  110MOL0     H14838   4.786   1.866   2.992  0.1861  0.0140 -0.6309
  110MOL0     H14839   4.870   1.894   3.127  1.1868 -0.8949  0.5799
  110MOL0     H14840   4.964   1.636   3.121  1.5370  2.2057 -3.5302
  110MOL0     H14841   4.840   1.602   3.012 -3.9819  0.7107  0.7791
  110MOL0     H14842   4.768   1.536   3.228 -0.8886  1.2520  0.8875
  110MOL0     H14843   4.669   1.653   3.149 -0.6481 -1.4729  0.7522
  110MOL0     H14844   4.890   1.728   3.353 -0.0934 -0.0208 -0.1120
  110MOL0     H14845   4.749   1.820   3.281 -4.1369 -1.8629 -0.7651
  110MOL0     H14846   4.589   1.649   3.628 -0.4539 -0.9964 -0.2655
  110MOL0     H14847   5.074   1.841   3.233  1.6311 -1.1040  1.4623
  110MOL0     H14848   5.209   1.832   3.415 -0.2927  1.7105  0.6238
  110MOL0     H14849   5.389   1.847   3.404  1.1022  1.6582 -0.4183
  110MOL0     H14850   5.284   1.993   3.397  0.3270  0.5058  0.9593
  111MOL0     O14851   5.956   3.076  10.787 -0.0523 -0.7628 -0.1167
  111MOL0     C14852   5.887   2.991  10.842  0.5164  0.5384 -0.0064
  111MOL0     O14853   5.934   2.871  10.895  0.0446 -0.2993 -0.6357
  111MOL0     C14854   6.064   2.852  10.894 -1.1516  0.6503 -0.1822
  111MOL0     C14855   6.166   2.897  10.806 -0.0880  0.0500  0.3564
  111MOL0     C14856   6.301   2.878  10.843 -0.5264  0.2320  0.5933
  111MOL0     C14857   6.347   2.812  10.962 -0.6891  0.3548  0.4047
  111MOL0     O14858   6.480   2.772  10.978  0.4415 -0.1798  0.5455
  111MOL0     C14859   6.569   2.764  10.869  0.4563 -0.0804  1.2819
  111MOL0     C14860   6.708   2.754  10.917 -0.9266  0.4509 -0.7847
  111MOL0     C14861   6.799   2.760  10.792  0.0604  0.2151  0.5334
  111MOL0     C14862   6.941   2.706  10.815  0.5351  1.0190  0.4974
  111MOL0     C14863   7.036   2.820  10.861 -0.2043 -0.8165  0.1870
  111MOL0     C14864   7.181   2.769  10.885 -0.3167  0.7728  0.4170
  111MOL0     C14865   7.291   2.865  10.952 -0.3603  0.6838 -0.2254
  111MOL0     C14866   7.429   2.804  10.962 -0.4396 -0.4537  0.3436
  111MOL0     N14867   7.529   2.904  11.008  0.6566  0.8265 -0.3352
  111MOL0     C14868   7.499   3.037  11.052 -0.0099  0.6667  0.0254
  111MOL0     C14869   7.628   3.096  11.049  0.2008 -0.2200 -0.6342
  111MOL0     C14870   7.664   3.239  11.084 -0.5873 -0.5056 -0.8445
  111MOL0     C14871   7.588   3.289  11.204 -0.5387 -0.1898  0.0588
  111MOL0     C14872   7.618   3.211  11.336  0.1597 -0.1171  0.2419
  111MOL0     C14873   7.516   3.232  11.444  0.4303  0.6139 -0.7774
  111MOL0     O14874   7.400   3.166  11.397 -0.0305  0.0491  0.5055
  111MOL0     C14875   7.276   3.203  11.450 -0.3500  0.4718 -0.1042
  111MOL0     C14876   7.252   3.255  11.581  0.2551  0.1849 -0.7008
  111MOL0     C14877   7.123   3.285  11.630 -0.0403 -0.0877 -0.9427
  111MOL0     C14878   7.014   3.260  11.542  0.2626 -0.4905  0.4445
  111MOL0     C14879   6.870   3.286  11.586  0.6545  0.1718 -0.8094
  111MOL0     O14880   6.763   3.237  11.517  0.2587 -0.3499 -0.1658
  111MOL0     C14881   6.632   3.274  11.538 -0.3237  0.7438  0.4616
  111MOL0     C14882   6.561   3.325  11.435  0.1339  0.0017 -0.4003
  111MOL0     C14883   6.433   3.378  11.445 -0.1063  0.2083  0.3555
  111MOL0     C14884   6.366   3.365  11.566  0.3501 -0.3900 -0.1749
  111MOL0     O14885   6.234   3.408  11.596  0.4804  0.5128  0.1917
  111MOL0     C14886   6.143   3.434  11.489  0.4738  0.1153 -0.5270
  111MOL0     C14887   6.002   3.446  11.549  0.0870  0.1846 -1.2309
  111MOL0     C14888   5.965   3.307  11.602  0.4316  0.4113 -0.5316
  111MOL0     C14889   5.810   3.288  11.614  0.3004 -0.1946  0.2014
  111MOL0     C14890   5.779   3.161  11.689  0.2831  0.3153 -0.1262
  111MOL0     C14891   5.626   3.136  11.682  0.0856  0.2576 -0.6781
  111MOL0     C14892   5.550   3.117  11.544 -0.0136 -0.3342 -0.2535
  111MOL0     C14893   5.606   3.019  11.439 -0.0434 -0.1201  1.0561
  111MOL0    Cl14894   5.656   2.856  11.500  0.1361  0.3163 -0.2617
  111MOL0     C14895   6.440   3.318  11.680 -0.0395  0.1168  0.4948
  111MOL0     C14896   6.574   3.269  11.665  0.1392 -0.9487  0.0178
  111MOL0     O14897   6.860   3.354  11.685 -0.6516  0.1039 -0.0249
  111MOL0     C14898   7.037   3.218  11.410 -0.5024 -0.0205  0.2714
  111MOL0     C14899   7.168   3.191  11.361 -1.0508  0.6578 -0.5343
  111MOL0     N14900   7.717   2.996  11.015 -0.4237 -0.1474 -0.0714
  111MOL0     N14901   7.663   2.888  10.989 -0.0252  0.0210  0.2968
  111MOL0     C14902   6.243   2.766  11.042 -0.1957 -0.1683 -0.5286
  111MOL0     C14903   6.112   2.785  11.010  0.3000  1.6392 -0.6860
  111MOL0     C14904   5.745   2.995  10.803  0.3656 -0.7331  0.0501
  111MOL0     C14905   5.675   2.869  10.812 -1.0065 -0.2758 -0.2496
  111MOL0     C14906   5.557   2.850  10.750 -0.4310 -0.1390  0.1683
  111MOL0     C14907   5.495   2.958  10.687 -0.8528  0.1967 -0.5457
  111MOL0     O14908   5.375   2.949  10.632  0.2066 -0.0245  0.2497
  111MOL0     C14909   5.270   2.873  10.690  0.3798 -0.0920  0.2245
  111MOL0     C14910   5.197   2.973  10.783  0.5838  0.3169 -0.7822
  111MOL0     C14911   5.121   3.085  10.718  1.3795 -0.1616 -0.0462
  111MOL0     C14912   5.189   3.207  10.658 -0.0457 -0.4822 -0.1266
  111MOL0     C14913   5.260   3.287  10.761 -0.1843 -0.5578 -0.7468
  111MOL0     C14914   5.337   3.343  10.847 -0.0186  0.6541 -0.2635
  111MOL0     C14915   5.552   3.087  10.687  0.0192 -0.1019 -0.3457
  111MOL0     C14916   5.683   3.106  10.748  0.0099 -0.1528 -0.1749
  111MOL0     C14917   5.731   3.251  10.757 -0.7708  0.3210  0.2591
  111MOL0     H14918   6.136   2.951  10.717  0.7628 -0.0319  0.0070
  111MOL0     H14919   6.359   2.935  10.771 -1.4629 -2.0599 -2.2050
  111MOL0     H14920   6.543   2.676  10.808 -2.1107  1.3450  0.1532
  111MOL0     H14921   6.552   2.852  10.807  0.8766 -0.9980 -0.1945
  111MOL0     H14922   6.720   2.668  10.984  0.2199  1.4686  0.3818
  111MOL0     H14923   6.727   2.841  10.982  0.5280 -0.5708  0.2309
  111MOL0     H14924   6.793   2.856  10.739  1.2875 -0.3387 -0.6742
  111MOL0     H14925   6.753   2.691  10.720  3.3007 -1.3019 -0.2330
  111MOL0     H14926   6.932   2.625  10.888 -0.8145 -0.5855 -1.3505
  111MOL0     H14927   6.983   2.663  10.724 -2.9669  0.6679 -1.1102
  111MOL0     H14928   7.033   2.905  10.793 -0.8162 -0.4790  0.6297
  111MOL0     H14929   7.006   2.859  10.959 -0.4960 -0.8069  0.0963
  111MOL0     H14930   7.174   2.684  10.953  0.9790  0.7464  0.5306
  111MOL0     H14931   7.216   2.740  10.786 -0.8994  3.1701 -0.5588
  111MOL0     H14932   7.247   2.916  11.038  0.8529  2.2576 -0.4893
  111MOL0     H14933   7.295   2.947  10.880 -4.0787  1.3302  0.0906
  111MOL0     H14934   7.431   2.726  11.039  0.7630  0.9467  1.7926
  111MOL0     H14935   7.473   2.769  10.868 -0.2462  1.0855 -0.1578
  111MOL0     H14936   7.408   3.080  11.093 -0.5616  0.7405 -1.2429
  111MOL0     H14937   7.770   3.248  11.108 -1.1174 -0.0136  1.5582
  111MOL0     H14938   7.638   3.308  11.003  2.2235  1.9644  0.1746
  111MOL0     H14939   7.629   3.386  11.234  1.1461 -0.6588 -0.6298
  111MOL0     H14940   7.481   3.283  11.180 -0.1328 -3.5082 -1.4692
  111MOL0     H14941   7.711   3.237  11.386 -0.1438  1.5691 -0.0359
  111MOL0     H14942   7.617   3.103  11.318  1.7383 -0.5999  2.6752
  111MOL0     H14943   7.510   3.340  11.464  1.3394  0.1231  2.6854
  111MOL0     H14944   7.557   3.181  11.531 -0.3864  0.8180 -0.2690
  111MOL0     H14945   7.327   3.264  11.658 -1.1086 -1.1561  0.8551
  111MOL0     H14946   7.128   3.332  11.728  1.0492  2.5780 -2.1907
  111MOL0     H14947   6.611   3.336  11.339  0.8842 -1.1962 -0.1698
  111MOL0     H14948   6.400   3.429  11.356  0.8270  1.1833  0.5534
  111MOL0     H14949   6.175   3.528  11.443  4.5400 -1.2402 -0.8527
  111MOL0     H14950   6.153   3.352  11.417  3.8496 -0.4018  0.3607
  111MOL0     H14951   6.008   3.526  11.624 -3.0334  3.9511 -4.5573
  111MOL0     H14952   5.929   3.466  11.471 -2.5046 -1.7635  0.5327
  111MOL0     H14953   6.010   3.225  11.546  1.8000  1.1755 -0.5818
  111MOL0     H14954   5.996   3.292  11.706 -4.8529 -0.8584  1.1721
  111MOL0     H14955   5.775   3.283  11.511  2.1312  0.1772 -0.4790
  111MOL0     H14956   5.761   3.377  11.656 -0.0232  1.2683 -2.9639
  111MOL0     H14957   5.812   3.167  11.794 -2.4026  2.7348  0.7307
  111MOL0     H14958   5.829   3.076  11.643  1.5485 -0.8549  3.0907
  111MOL0     H14959   5.609   3.049  11.746  2.9963 -2.8434 -3.6896
  111MOL0     H14960   5.583   3.222  11.733 -1.1589 -0.3851 -0.6053
  111MOL0     H14961   5.532   3.216  11.500 -0.3490 -0.3035 -0.0449
  111MOL0     H14962   5.448   3.095  11.576 -0.3425  0.3964 -0.7567
  111MOL0     H14963   5.528   2.997  11.365 -0.2911  1.7457  0.7030
  111MOL0     H14964   5.689   3.072  11.390  0.8205 -3.1821 -1.1307
  111MOL0     H14965   6.389   3.322  11.776  0.5746  2.7199  0.7809
  111MOL0     H14966   6.624   3.231  11.754  1.3778 -1.5998 -0.9198
  111MOL0     H14967   6.953   3.212  11.341  1.4308  0.2567 -2.2760
  111MOL0     H14968   7.175   3.175  11.254 -2.7475  2.8919 -1.0536
  111MOL0     H14969   6.271   2.698  11.122  0.2747 -0.9933 -1.3793
  111MOL0     H14970   6.037   2.744  11.077 -1.7528  3.3009 -1.8126
  111MOL0     H14971   5.723   2.784  10.860  0.3475 -0.2417 -1.4685
  111MOL0     H14972   5.507   2.754  10.751  2.6746 -1.8865  0.3969
  111MOL0     H14973   5.306   2.794  10.757 -0.7283  0.7070  1.8522
  111MOL0     H14974   5.202   2.832  10.615  1.6940  0.3456 -1.2503
  111MOL0     H14975   5.266   3.015  10.858  2.5018 -1.7283 -1.2842
  111MOL0     H14976   5.121   2.918  10.839 -0.2174  1.1276 -1.0588
  111MOL0     H14977   5.060   3.116  10.803  1.1249  0.7614 -0.5476
  111MOL0     H14978   5.055   3.046  10.640  0.7805  3.3403 -1.4836
  111MOL0     H14979   5.258   3.183  10.577  1.3504  3.4925 -0.3314
  111MOL0     H14980   5.118   3.275  10.610 -0.8366  0.9747  2.8836
  111MOL0     H14981   5.398   3.405  10.910 -1.3036  1.8315 -0.1441
  111MOL0     H14982   5.510   3.182  10.655  3.6444  2.8767  2.6983
  111MOL0     H14983   5.770   3.280  10.855  0.0530  1.9876 -0.5280
  111MOL0     H14984   5.806   3.277  10.682 -1.4682  3.1169  0.4261
  111MOL0     H14985   5.641   3.311  10.741 -2.6779 -3.0983 -4.4896
  112MOL0     O14986   0.774   7.695   3.110 -0.3941 -0.5156  0.5111
  112MOL0     C14987   0.732   7.613   3.196 -0.7419 -0.0531 -0.0099
  112MOL0     O14988   0.808   7.551   3.295 -0.1031  0.0643 -0.2602
  112MOL0     C14989   0.938   7.551   3.317 -0.8288  0.2539  0.3444
  112MOL0     C14990   1.038   7.591   3.223 -0.0032 -0.1836  1.0169
  112MOL0     C14991   1.172   7.571   3.266  0.5148  0.1696  0.4408
  112MOL0     C14992   1.212   7.547   3.397 -0.1550  0.6311  0.3086
  112MOL0     O14993   1.340   7.545   3.433 -0.1180  0.0324 -0.7748
  112MOL0     C14994   1.374   7.595   3.564 -0.4861 -0.5435 -0.5472
  112MOL0     C14995   1.529   7.586   3.587  0.8969  0.5525  0.3813
  112MOL0     C14996   1.608   7.700   3.519 -1.2791  0.4096  0.0281
  112MOL0     C14997   1.753   7.667   3.522 -0.4410  0.2782  0.1149
  112MOL0     C14998   1.836   7.771   3.453  0.5514  0.4341 -0.4526
  112MOL0     C14999   1.829   7.757   3.302 -0.4854  0.3811 -0.0160
  112MOL0     C15000   1.944   7.818   3.236 -0.3246  0.0861 -0.0480
  112MOL0     C15001   1.929   7.800   3.084  1.1366 -0.1842 -0.6859
  112MOL0     N15002   2.066   7.801   3.029  0.0806  0.2660 -0.6967
  112MOL0     C15003   2.140   7.913   3.008 -0.6219 -0.1199 -0.9961
  112MOL0     C15004   2.201   7.891   2.890 -1.0971 -0.4711  0.5665
  112MOL0     C15005   2.293   7.993   2.823  0.4281 -0.0856  0.3351
  112MOL0     C15006   2.330   7.944   2.681 -0.5766  0.6202  0.3943
  112MOL0     C15007   2.371   8.059   2.587 -0.1271  0.4446  0.5607
  112MOL0     C15008   2.491   8.150   2.649  0.6427  0.2113 -0.2003
  112MOL0     O15009   2.594   8.086   2.721 -0.3307  0.3677 -0.7498
  112MOL0     C15010   2.690   8.163   2.772 -0.0681 -1.0190 -0.3739
  112MOL0     C15011   2.792   8.092   2.828 -0.3787  0.1317 -0.1363
  112MOL0     C15012   2.903   8.158   2.881  0.6200 -0.4867  0.1069
  112MOL0     C15013   2.915   8.292   2.886  0.3571  0.3405  0.4817
  112MOL0     C15014   3.031   8.359   2.949 -0.3385 -0.1107 -0.1303
  112MOL0     O15015   3.111   8.284   3.032 -0.2038  0.3032  0.3881
  112MOL0     C15016   3.219   8.347   3.089  0.0816 -0.1465  0.3383
  112MOL0     C15017   3.337   8.359   3.024 -0.2345 -0.1663  0.2025
  112MOL0     C15018   3.445   8.400   3.098  0.0446  0.6878  0.3187
  112MOL0     C15019   3.445   8.443   3.227  0.3164  0.2037 -0.4517
  112MOL0     O15020   3.557   8.498   3.276  0.5176 -0.5194 -0.6984
  112MOL0     C15021   3.654   8.567   3.192  0.3789 -0.2111 -0.1441
  112MOL0     C15022   3.757   8.635   3.279  0.5992  0.6590 -0.1626
  112MOL0     C15023   3.844   8.720   3.184 -0.2647  0.3124  0.7187
  112MOL0     C15024   3.938   8.810   3.269  0.5929 -0.4311  1.0003
  112MOL0     C15025   4.074   8.789   3.221  0.2740 -0.5554 -0.7155
  112MOL0     C15026   4.169   8.875   3.302 -0.1779 -0.6038  0.2525
  112MOL0     C15027   4.318   8.820   3.307 -1.0875  0.4187 -0.4807
  112MOL0     C15028   4.421   8.926   3.354 -0.1644  0.0448  0.7921
  112MOL0    Cl15029   4.426   9.075   3.249 -0.0763  0.0733 -0.1914
  112MOL0     C15030   3.318   8.432   3.295  0.4126  1.1172  0.2224
  112MOL0     C15031   3.206   8.391   3.221 -0.8112 -0.2782 -0.6840
  112MOL0     O15032   3.053   8.478   2.919 -0.0290  0.0210 -0.1182
  112MOL0     C15033   2.814   8.371   2.823 -0.2857  0.0855 -0.0077
  112MOL0     C15034   2.702   8.308   2.776  0.1025  0.2881  0.1593
  112MOL0     N15035   2.178   7.765   2.841  0.3902 -0.3505 -0.8720
  112MOL0     N15036   2.095   7.718   2.923  0.6845 -0.4501  0.8657
  112MOL0     C15037   1.105   7.519   3.485 -0.5964 -0.0232  0.7273
  112MOL0     C15038   0.977   7.505   3.441  0.4520 -0.5856 -0.3168
  112MOL0     C15039   0.595   7.567   3.181 -0.5409  0.9439 -0.9610
  112MOL0     C15040   0.570   7.442   3.235 -0.2014  0.2703  0.6314
  112MOL0     C15041   0.444   7.397   3.243  0.5327  0.4714  0.6087
  112MOL0     C15042   0.334   7.468   3.203 -0.3840 -0.2985  0.3710
  112MOL0     O15043   0.200   7.439   3.216 -0.5404 -0.3472  0.7337
  112MOL0     C15044   0.169   7.356   3.324 -0.3940  0.3029  1.0302
  112MOL0     C15045   0.021   7.327   3.336  0.0881 -0.9315 -0.1536
  112MOL0     C15046  -0.010   7.270   3.468 -0.7013 -0.1865  0.0408
  112MOL0     C15047  -0.148   7.201   3.481  0.1933 -0.3088  0.0530
  112MOL0     C15048  -0.169   7.187   3.625 -0.5901 -0.7584  0.2227
  112MOL0     C15049  -0.178   7.170   3.738  0.1306  0.4770 -0.5961
  112MOL0     C15050   0.358   7.585   3.130  0.3762 -0.2972  0.1522
  112MOL0     C15051   0.486   7.641   3.124  0.9857  1.0613  0.2212
  112MOL0     C15052   0.503   7.772   3.069  0.3416 -0.0291 -0.0155
  112MOL0     H15053   1.019   7.621   3.120  0.2221 -2.6582  0.1969
  112MOL0     H15054   1.252   7.606   3.201  1.3742 -2.2114  0.1014
  112MOL0     H15055   1.348   7.701   3.557  2.6223  0.2312 -2.3372
  112MOL0     H15056   1.324   7.537   3.642  0.8282 -0.1086  0.6615
  112MOL0     H15057   1.565   7.487   3.558  1.7066  0.7058  0.8138
  112MOL0     H15058   1.543   7.598   3.695 -1.9847  1.8638  0.7089
  112MOL0     H15059   1.585   7.799   3.559  2.3581  2.0781 -1.5888
  112MOL0     H15060   1.573   7.703   3.415 -1.7862 -2.8702 -0.0164
  112MOL0     H15061   1.788   7.658   3.626 -1.3795  0.8179  0.4866
  112MOL0     H15062   1.769   7.567   3.481 -3.0769  0.2565 -0.9923
  112MOL0     H15063   1.803   7.868   3.490  0.2305 -0.5320  2.0016
  112MOL0     H15064   1.939   7.769   3.490  0.0053  1.6311  1.2450
  112MOL0     H15065   1.831   7.651   3.274  0.2492  0.6209 -0.9207
  112MOL0     H15066   1.734   7.793   3.262 -0.8602 -1.4670 -0.8710
  112MOL0     H15067   2.037   7.766   3.262  1.1298  1.8647 -1.4095
  112MOL0     H15068   1.954   7.924   3.264 -2.0880  0.1525  0.4120
  112MOL0     H15069   1.888   7.704   3.053  3.8254 -1.6244 -0.1173
  112MOL0     H15070   1.866   7.883   3.051  0.9812  0.3126  0.7515
  112MOL0     H15071   2.142   8.005   3.065  0.6992 -0.4644 -0.4381
  112MOL0     H15072   2.231   8.083   2.826 -2.0105 -1.6736  0.6604
  112MOL0     H15073   2.386   8.005   2.879  1.4421  0.5453 -1.4434
  112MOL0     H15074   2.408   7.868   2.691 -2.3520 -1.5726 -1.4219
  112MOL0     H15075   2.248   7.884   2.641 -0.0165 -0.4729  0.8484
  112MOL0     H15076   2.283   8.118   2.560 -1.4881 -1.7059  0.0611
  112MOL0     H15077   2.404   8.014   2.493  0.7295  1.0681  0.5423
  112MOL0     H15078   2.444   8.225   2.713  3.9661  1.8677  0.4922
  112MOL0     H15079   2.544   8.202   2.568  0.4170  2.5943  1.0919
  112MOL0     H15080   2.778   7.984   2.834 -0.0890  0.1604  1.5288
  112MOL0     H15081   2.979   8.094   2.924  0.3160 -2.1919 -1.6976
  112MOL0     H15082   3.356   8.321   2.924 -2.4312  3.1483 -1.6748
  112MOL0     H15083   3.538   8.401   3.043  0.9687 -1.3609  1.7091
  112MOL0     H15084   3.710   8.495   3.133  0.3645 -1.3478  1.1708
  112MOL0     H15085   3.606   8.638   3.124 -0.4591  0.4411  1.0873
  112MOL0     H15086   3.716   8.697   3.359  0.1702  0.2873 -0.0913
  112MOL0     H15087   3.829   8.568   3.328  0.2639  2.5177  3.1660
  112MOL0     H15088   3.899   8.659   3.112  0.5247  1.7149  0.1001
  112MOL0     H15089   3.779   8.789   3.128  0.7679  1.8954  1.3922
  112MOL0     H15090   3.930   8.775   3.373 -1.6002 -1.3475  0.5709
  112MOL0     H15091   3.906   8.914   3.274  0.6204 -0.2761 -1.2362
  112MOL0     H15092   4.079   8.812   3.114  0.8652  1.5498 -0.2913
  112MOL0     H15093   4.103   8.684   3.220  0.6431 -0.4544 -1.1832
  112MOL0     H15094   4.175   8.980   3.270  0.3926 -1.4145 -2.6097
  112MOL0     H15095   4.150   8.880   3.409  0.9709  3.0579  0.4270
  112MOL0     H15096   4.331   8.796   3.201 -0.3173 -0.4900 -0.2027
  112MOL0     H15097   4.328   8.732   3.372  1.7672  0.8836 -0.1600
  112MOL0     H15098   4.393   8.959   3.455 -1.0607  1.8071  0.0040
  112MOL0     H15099   4.517   8.874   3.355 -0.5852 -0.7539  0.5157
  112MOL0     H15100   3.305   8.463   3.398 -3.8426  0.8269 -0.0412
  112MOL0     H15101   3.111   8.394   3.272 -0.2874 -0.3110  0.3051
  112MOL0     H15102   2.831   8.478   2.817  0.2303  0.0296  0.3763
  112MOL0     H15103   2.629   8.369   2.725  1.4599  1.4445 -0.4535
  112MOL0     H15104   1.127   7.498   3.590  0.2260  0.5580  0.6805
  112MOL0     H15105   0.898   7.478   3.511  2.0071 -2.2418  0.8901
  112MOL0     H15106   0.645   7.378   3.281  0.1831  1.6650  2.0353
  112MOL0     H15107   0.434   7.295   3.277 -1.1704 -1.0863 -3.7684
  112MOL0     H15108   0.195   7.393   3.423  0.0826 -0.3314  1.1449
  112MOL0     H15109   0.218   7.260   3.306  0.1437  0.7302  0.1486
  112MOL0     H15110  -0.015   7.268   3.251 -1.6361 -1.2629  0.7689
  112MOL0     H15111  -0.030   7.422   3.317  0.0982 -0.0095  3.7301
  112MOL0     H15112   0.004   7.352   3.539 -1.5286  0.0279 -0.0256
  112MOL0     H15113   0.057   7.190   3.501 -2.1277 -1.6115 -0.3765
  112MOL0     H15114  -0.237   7.254   3.447  1.7684  2.0491 -0.6153
  112MOL0     H15115  -0.137   7.112   3.418  2.2735 -0.2819  0.3212
  112MOL0     H15116  -0.202   7.156   3.841  1.1890  2.1911 -0.0676
  112MOL0     H15117   0.273   7.644   3.099 -0.9770  0.0694  4.0018
  112MOL0     H15118   0.527   7.764   2.962 -1.6583  0.8289 -0.5779
  112MOL0     H15119   0.421   7.843   3.084  1.9517  2.0450 -0.6363
  112MOL0     H15120   0.583   7.826   3.120  0.5124  1.1714 -1.4974
  113MOL0     O15121   7.124   9.158   9.340 -0.3752 -0.2501  0.2358
  113MOL0     C15122   7.130   9.146   9.462  0.0590  0.0094  1.2629
  113MOL0     O15123   7.071   9.046   9.524 -0.0272 -0.4206 -0.5671
  113MOL0     C15124   6.969   8.980   9.458  0.6233 -0.2420 -0.5170
  113MOL0     C15125   6.835   9.025   9.486  0.1453 -0.0446 -0.0456
  113MOL0     C15126   6.721   8.966   9.430 -0.1669 -0.3066  0.0132
  113MOL0     C15127   6.742   8.868   9.332  0.1079 -0.1257  0.2203
  113MOL0     O15128   6.642   8.802   9.268 -0.6501 -0.1289 -0.1059
  113MOL0     C15129   6.540   8.881   9.209 -0.2050  0.2922  0.1788
  113MOL0     C15130   6.601   8.980   9.117  0.5664  0.4735  0.2766
  113MOL0     C15131   6.678   8.907   9.002 -0.4526  0.2928 -0.2317
  113MOL0     C15132   6.726   8.991   8.883  0.4487 -1.0266  0.2259
  113MOL0     C15133   6.783   8.911   8.769  0.3296 -0.5699 -0.8862
  113MOL0     C15134   6.835   9.006   8.663 -0.7995 -0.4496 -0.2086
  113MOL0     C15135   6.923   8.930   8.552  0.1250  0.6249 -0.3154
  113MOL0     C15136   7.014   9.025   8.466  0.2456 -0.4133  0.1971
  113MOL0     N15137   6.956   9.158   8.443 -0.7003 -0.2571  0.0532
  113MOL0     C15138   6.859   9.171   8.350  0.4814  0.4647  0.5237
  113MOL0     C15139   6.823   9.295   8.358 -0.4545 -0.1575  0.7500
  113MOL0     C15140   6.712   9.359   8.277  0.2185  0.4652 -0.6355
  113MOL0     C15141   6.756   9.415   8.148  0.6662 -0.5701 -0.0502
  113MOL0     C15142   6.646   9.501   8.085 -0.3615 -0.0038 -0.4490
  113MOL0     C15143   6.674   9.543   7.948  0.2953 -0.2944  0.3226
  113MOL0     O15144   6.809   9.599   7.942 -0.1026  0.4288 -0.2473
  113MOL0     C15145   6.878   9.590   7.827  0.3566 -0.2989  0.5152
  113MOL0     C15146   6.816   9.604   7.703 -0.3077  0.2901  0.8244
  113MOL0     C15147   6.888   9.581   7.578  0.8279  0.2665 -0.7481
  113MOL0     C15148   7.015   9.515   7.594  0.2863 -0.0916  0.1380
  113MOL0     C15149   7.100   9.474   7.482  0.8633 -0.8012  0.2857
  113MOL0     O15150   7.065   9.532   7.360 -0.7281 -0.4925 -0.0509
  113MOL0     C15151   7.135   9.485   7.255 -0.2160 -0.6627 -0.0126
  113MOL0     C15152   7.269   9.529   7.233 -0.3641  0.4165 -0.2249
  113MOL0     C15153   7.334   9.471   7.119  0.3085 -0.1743  0.1207
  113MOL0     C15154   7.267   9.382   7.031  0.7122 -0.1047 -0.6379
  113MOL0     O15155   7.331   9.326   6.924 -0.2628  0.3481  0.2150
  113MOL0     C15156   7.263   9.281   6.807 -0.2655  0.1065  0.0039
  113MOL0     C15157   7.340   9.255   6.687 -1.0644  0.7004 -0.2454
  113MOL0     C15158   7.444   9.361   6.662  0.1859  0.5427 -0.2079
  113MOL0     C15159   7.541   9.316   6.550  0.4654 -0.3145  0.9059
  113MOL0     C15160   7.657   9.413   6.513 -0.3033 -0.0936  0.2032
  113MOL0     C15161   7.589   9.550   6.481  0.2960 -0.1646  0.2467
  113MOL0     C15162   7.690   9.641   6.413 -0.2128 -0.3615  0.8496
  113MOL0     C15163   7.640   9.770   6.347  0.1092 -0.4687  0.8444
  113MOL0    Cl15164   7.632   9.894   6.481 -0.1253  0.0247  0.3021
  113MOL0     C15165   7.140   9.343   7.055 -0.3758 -0.6226  0.1612
  113MOL0     C15166   7.076   9.385   7.166  0.8104  0.3322 -0.4659
  113MOL0     O15167   7.199   9.404   7.500  0.4746 -0.2758  0.1952
  113MOL0     C15168   7.082   9.527   7.717  0.4271 -0.2962 -0.5069
  113MOL0     C15169   7.018   9.571   7.833 -0.2354 -0.2311  0.7393
  113MOL0     N15170   6.917   9.360   8.439  0.4671  0.0007  0.4550
  113MOL0     N15171   6.990   9.276   8.495 -0.3532 -0.3949 -1.1584
  113MOL0     C15172   6.866   8.827   9.304 -0.8199 -0.8054  0.4064
  113MOL0     C15173   6.985   8.884   9.357 -0.1313  0.4636 -0.0743
  113MOL0     C15174   7.209   9.249   9.545 -0.9547  0.4308 -0.3681
  113MOL0     C15175   7.271   9.358   9.487  0.8285  0.1260 -0.1860
  113MOL0     C15176   7.327   9.467   9.555 -0.2782  0.1260 -0.0930
  113MOL0     C15177   7.346   9.464   9.697  0.4549 -0.4623 -0.0217
  113MOL0     O15178   7.404   9.561   9.781  0.3960 -0.0545  0.9673
  113MOL0     C15179   7.438   9.679   9.707  0.5516  0.3620 -0.5248
  113MOL0     C15180   7.467   9.792   9.801  0.1474 -0.2605 -0.2379
  113MOL0     C15181   7.572   9.768   9.909  0.1600  0.5485 -0.3680
  113MOL0     C15182   7.703   9.845   9.897 -0.8702  0.3500  0.1250
  113MOL0     C15183   7.765   9.835   9.763 -0.2154  0.7565 -0.8978
  113MOL0     C15184   7.814   9.851   9.656  0.6385 -0.8983  0.1443
  113MOL0     C15185   7.305   9.340   9.755  0.0512 -0.5383  0.2499
  113MOL0     C15186   7.236   9.243   9.684  0.0002  0.8396 -0.4445
  113MOL0     C15187   7.178   9.137   9.771  0.9044  0.2058 -0.2398
  113MOL0     H15188   6.824   9.120   9.538  1.5752  1.0200 -1.5909
  113MOL0     H15189   6.623   9.007   9.452  0.6523  1.7830 -0.0813
  113MOL0     H15190   6.480   8.807   9.155  1.2524 -1.1768  0.4899
  113MOL0     H15191   6.477   8.930   9.283  1.6563  1.8130  0.8438
  113MOL0     H15192   6.665   9.047   9.175  3.0957 -0.8042 -0.8768
  113MOL0     H15193   6.515   9.032   9.072 -1.5302 -1.1532  2.1745
  113MOL0     H15194   6.606   8.832   8.968  1.7639 -1.1055 -2.2202
  113MOL0     H15195   6.757   8.844   9.044  1.3118  1.7912 -1.1367
  113MOL0     H15196   6.648   9.047   8.831  0.3777 -1.2638  0.0723
  113MOL0     H15197   6.804   9.058   8.920 -2.2307  0.3842  4.0148
  113MOL0     H15198   6.866   8.850   8.806 -0.6777 -1.2120  0.4153
  113MOL0     H15199   6.704   8.853   8.719 -0.4177  0.5814 -1.0754
  113MOL0     H15200   6.754   9.058   8.611  0.7219 -1.4993 -3.9727
  113MOL0     H15201   6.891   9.091   8.705 -1.1502  0.8000 -2.1199
  113MOL0     H15202   6.856   8.870   8.490  0.0920 -2.0542  2.1068
  113MOL0     H15203   6.980   8.855   8.607 -1.8698  0.5061  1.7617
  113MOL0     H15204   7.110   9.040   8.517  0.9425  0.6602 -1.3940
  113MOL0     H15205   7.024   8.972   8.371 -0.7203 -4.8049  2.2795
  113MOL0     H15206   6.797   9.100   8.295  2.2292  0.0352 -0.9844
  113MOL0     H15207   6.653   9.268   8.263  3.7251 -2.0726 -0.1597
  113MOL0     H15208   6.660   9.435   8.337 -4.0699 -3.0088  0.5442
  113MOL0     H15209   6.841   9.481   8.167 -0.9382  1.2291  1.2879
  113MOL0     H15210   6.778   9.334   8.078 -1.6622 -0.9843 -0.3741
  113MOL0     H15211   6.641   9.591   8.146  2.5814  0.6082 -0.9461
  113MOL0     H15212   6.556   9.439   8.085 -0.2604 -0.2033  1.5302
  113MOL0     H15213   6.607   9.621   7.911  0.9615  0.8440  1.4717
  113MOL0     H15214   6.672   9.454   7.884 -1.7892  1.0492 -1.6907
  113MOL0     H15215   6.714   9.635   7.686  0.0182  1.5167  1.0213
  113MOL0     H15216   6.833   9.599   7.486 -4.6610  1.0818  2.2677
  113MOL0     H15217   7.331   9.579   7.307  3.7161 -2.7359 -1.1008
  113MOL0     H15218   7.437   9.502   7.102  0.1496  2.1964  2.8390
  113MOL0     H15219   7.222   9.185   6.838  1.4183 -0.0604  1.9115
  113MOL0     H15220   7.182   9.350   6.782 -1.2565 -0.9433  0.2617
  113MOL0     H15221   7.391   9.159   6.695  0.9613  1.8800  2.8313
  113MOL0     H15222   7.269   9.253   6.604 -2.0329 -0.5546  0.5832
  113MOL0     H15223   7.401   9.460   6.643  2.6334  1.8545  0.6344
  113MOL0     H15224   7.510   9.370   6.749  0.2010 -0.4298 -0.1136
  113MOL0     H15225   7.478   9.314   6.460  2.1130 -0.0231 -0.3002
  113MOL0     H15226   7.583   9.218   6.571  0.3411  0.0865  3.3328
  113MOL0     H15227   7.722   9.386   6.429  0.3729  2.3672 -0.1470
  113MOL0     H15228   7.721   9.415   6.601 -1.7567 -2.0186  1.3865
  113MOL0     H15229   7.496   9.550   6.422 -0.0880  2.0361  0.7672
  113MOL0     H15230   7.566   9.586   6.582 -0.1541 -0.1115  0.1289
  113MOL0     H15231   7.735   9.579   6.335  0.3057  0.3650  0.5587
  113MOL0     H15232   7.770   9.672   6.480  1.0982 -1.0392 -0.3575
  113MOL0     H15233   7.718   9.804   6.279 -0.8120  0.4207  0.2106
  113MOL0     H15234   7.543   9.749   6.301 -0.2590 -0.5247  1.6235
  113MOL0     H15235   7.081   9.278   6.992 -2.0220  1.4874 -0.6113
  113MOL0     H15236   6.980   9.337   7.182  1.0344  0.2505  0.7900
  113MOL0     H15237   7.190   9.527   7.730  0.5519  2.8854 -0.8268
  113MOL0     H15238   7.075   9.581   7.924 -0.2720 -4.8726  1.4905
  113MOL0     H15239   6.899   8.751   9.235  0.8318 -0.8495  1.1771
  113MOL0     H15240   7.078   8.846   9.317  0.7666  1.8698  0.6208
  113MOL0     H15241   7.261   9.370   9.379  1.2225  0.5327 -0.1790
  113MOL0     H15242   7.361   9.541   9.483 -0.2049 -0.4549 -0.6656
  113MOL0     H15243   7.358   9.693   9.633  0.5847  1.0069 -0.4497
  113MOL0     H15244   7.524   9.650   9.646  1.7177 -0.0312  1.2317
  113MOL0     H15245   7.382   9.820   9.865  0.5935 -1.8660  1.1369
  113MOL0     H15246   7.487   9.871   9.728 -2.3111 -2.2395 -3.3108
  113MOL0     H15247   7.584   9.661   9.926  1.6463  0.9586  1.5094
  113MOL0     H15248   7.536   9.810  10.004 -1.3206  2.3387 -1.6465
  113MOL0     H15249   7.672   9.950   9.898 -1.5580  0.2002 -1.7718
  113MOL0     H15250   7.773   9.818   9.976 -1.5405  1.9554  1.3306
  113MOL0     H15251   7.855   9.870   9.558 -0.1437 -2.0644 -0.4313
  113MOL0     H15252   7.319   9.328   9.862  3.1616  2.1832  0.3029
  113MOL0     H15253   7.196   9.038   9.730 -2.3820  0.6118 -3.1018
  113MOL0     H15254   7.195   9.146   9.879 -0.7405 -2.9906  0.4057
  113MOL0     H15255   7.069   9.148   9.779  0.7160 -2.2849  2.3011
  114MOL0     O15256   5.480   7.179   5.086  0.5731 -0.2091 -1.0422
  114MOL0     C15257   5.458   7.204   4.967 -0.4236 -0.0258 -0.4696
  114MOL0     O15258   5.549   7.212   4.870 -0.2279 -0.1595 -0.0358
  114MOL0     C15259   5.686   7.207   4.909 -0.1232  0.1830 -0.2733
  114MOL0     C15260   5.745   7.082   4.951  0.0333 -0.1635 -0.8888
  114MOL0     C15261   5.878   7.070   4.987 -0.2159  0.4376  0.4153
  114MOL0     C15262   5.952   7.184   4.996 -0.2255 -0.0737  0.5040
  114MOL0     O15263   6.089   7.171   5.012 -0.1842 -0.6095  0.6226
  114MOL0     C15264   6.165   7.279   5.057 -0.1180 -0.0572  0.1727
  114MOL0     C15265   6.316   7.257   5.056 -0.3765  0.7462 -0.0199
  114MOL0     C15266   6.405   7.378   5.082  0.6592 -0.8369  1.3084
  114MOL0     C15267   6.553   7.340   5.095 -0.2401  0.3434 -0.6227
  114MOL0     C15268   6.644   7.461   5.150 -0.2182  0.6613  0.4311
  114MOL0     C15269   6.792   7.427   5.122 -0.3597 -0.5337  0.0334
  114MOL0     C15270   6.885   7.550   5.122 -0.1823 -1.3882 -0.8344
  114MOL0     C15271   7.002   7.546   5.029  0.0571  0.1309  0.4132
  114MOL0     N15272   7.076   7.677   5.033 -0.6268 -0.1567 -0.0376
  114MOL0     C15273   7.041   7.783   4.958 -0.0069 -0.6897 -0.6464
  114MOL0     C15274   7.110   7.886   5.016  0.1261 -0.3659  0.2740
  114MOL0     C15275   7.083   8.028   4.955 -0.4620 -0.0283  0.0590
  114MOL0     C15276   6.933   8.051   4.951 -0.2702  0.2015 -0.0956
  114MOL0     C15277   6.891   8.191   4.908  0.4012  0.2396  0.3527
  114MOL0     C15278   6.747   8.194   4.857  0.6732 -0.2290  1.0270
  114MOL0     O15279   6.642   8.175   4.966 -0.0488  0.2373  0.1487
  114MOL0     C15280   6.509   8.183   4.922  0.4200  0.5827 -0.6571
  114MOL0     C15281   6.451   8.234   4.806  0.2333  0.9676 -0.2271
  114MOL0     C15282   6.315   8.242   4.777  0.8290  0.2511  0.7840
  114MOL0     C15283   6.226   8.213   4.882  0.5716 -0.3940  0.4603
  114MOL0     C15284   6.081   8.234   4.876 -0.0883  0.1015  0.7271
  114MOL0     O15285   6.009   8.156   4.960 -0.7120  0.0117 -0.0838
  114MOL0     C15286   5.874   8.163   4.953 -0.1938 -0.5446 -0.3906
  114MOL0     C15287   5.814   8.091   4.865  0.9381 -0.9058  0.3196
  114MOL0     C15288   5.665   8.096   4.851  0.1543  0.3699  0.5703
  114MOL0     C15289   5.588   8.179   4.930  0.4131 -0.4561  0.2165
  114MOL0     O15290   5.454   8.192   4.924 -0.8811 -0.1618  0.2659
  114MOL0     C15291   5.366   8.093   4.872 -0.3507 -0.0823  1.2315
  114MOL0     C15292   5.226   8.157   4.850 -0.0351  0.2252  0.2529
  114MOL0     C15293   5.125   8.050   4.799 -0.4017  0.4053  0.1155
  114MOL0     C15294   4.989   8.119   4.763 -0.4146  0.7158  0.1486
  114MOL0     C15295   4.889   8.012   4.734 -0.0332 -0.7656 -0.5742
  114MOL0     C15296   4.756   8.075   4.711  0.8547  0.0688 -0.4542
  114MOL0     C15297   4.643   7.977   4.678  0.6820 -0.6937  0.8288
  114MOL0     C15298   4.511   8.053   4.662  1.0479 -0.5452 -0.2488
  114MOL0    Cl15299   4.537   8.174   4.540 -0.1719 -0.0160  0.3463
  114MOL0     C15300   5.662   8.251   5.026 -0.1994  0.3393  0.0910
  114MOL0     C15301   5.797   8.241   5.039  0.2881 -0.5110 -0.2387
  114MOL0     O15302   6.033   8.324   4.812 -0.2357 -0.8028 -0.2257
  114MOL0     C15303   6.281   8.155   5.000 -0.5672  0.0351  0.4628
  114MOL0     C15304   6.420   8.148   5.024  0.0452  0.1415  0.7547
  114MOL0     N15305   7.202   7.833   5.106 -0.1334  0.0059 -0.9230
  114MOL0     N15306   7.181   7.705   5.111  0.1806 -0.0073  0.0304
  114MOL0     C15307   5.899   7.319   4.961 -0.1823  0.5840  0.1139
  114MOL0     C15308   5.762   7.325   4.927  1.0862  0.5347 -0.1996
  114MOL0     C15309   5.319   7.241   4.917 -0.8016  0.0915 -0.4517
  114MOL0     C15310   5.283   7.197   4.789 -0.3815 -0.5388  0.5107
  114MOL0     C15311   5.151   7.214   4.736  0.2494  0.0084 -0.3351
  114MOL0     C15312   5.057   7.285   4.810  0.3875  0.1901 -0.0620
  114MOL0     O15313   4.931   7.317   4.762  0.1861  0.3580 -0.1000
  114MOL0     C15314   4.825   7.229   4.809 -0.0254 -0.0169  0.7233
  114MOL0     C15315   4.678   7.281   4.797 -0.0763 -0.4380  0.8595
  114MOL0     C15316   4.575   7.170   4.765 -0.2743  0.7286  0.0551
  114MOL0     C15317   4.444   7.234   4.718  0.3808 -0.3818 -0.1629
  114MOL0     C15318   4.333   7.138   4.711  0.4459  1.1103  0.0580
  114MOL0     C15319   4.234   7.067   4.721  0.0031  0.4361  0.1062
  114MOL0     C15320   5.093   7.325   4.938  0.2376  0.3738  0.1027
  114MOL0     C15321   5.218   7.311   4.993 -0.5352 -1.0073  0.7527
  114MOL0     C15322   5.252   7.373   5.127 -0.1279  0.8888  0.3663
  114MOL0     H15323   5.679   6.996   4.954  0.4713 -0.4762  1.4313
  114MOL0     H15324   5.921   6.975   5.016  3.6275  2.0593  0.6409
  114MOL0     H15325   6.150   7.366   4.994 -1.2238  0.0438  0.5516
  114MOL0     H15326   6.130   7.306   5.157 -0.6654 -1.7644  0.4708
  114MOL0     H15327   6.333   7.219   4.955 -2.0613 -1.8852  0.5718
  114MOL0     H15328   6.334   7.183   5.135 -3.4558 -0.7444 -0.5285
  114MOL0     H15329   6.366   7.433   5.168  0.7487  2.0099 -0.3496
  114MOL0     H15330   6.392   7.447   4.998  1.8785 -0.9058  1.0455
  114MOL0     H15331   6.561   7.260   5.169  0.7056 -2.6229 -3.6887
  114MOL0     H15332   6.602   7.295   5.008  4.0491  0.1214  1.6718
  114MOL0     H15333   6.619   7.559   5.109  2.2319  1.2704  0.2020
  114MOL0     H15334   6.637   7.462   5.259  0.7739 -3.1744  0.6702
  114MOL0     H15335   6.821   7.344   5.187 -0.7629 -1.5639 -1.0642
  114MOL0     H15336   6.791   7.377   5.024 -1.6078  0.7368 -0.6307
  114MOL0     H15337   6.936   7.554   5.219  2.5806 -1.1322 -2.2019
  114MOL0     H15338   6.834   7.643   5.096  0.7999 -0.2184  1.1535
  114MOL0     H15339   7.068   7.464   5.056 -0.2069 -0.6940 -1.2748
  114MOL0     H15340   6.968   7.535   4.925  0.2588  0.7504  0.2752
  114MOL0     H15341   6.962   7.788   4.883 -1.2843 -1.5315  0.5837
  114MOL0     H15342   7.128   8.106   5.017 -1.2352  0.2707  0.2626
  114MOL0     H15343   7.126   8.034   4.854  2.9762 -2.2091  1.2514
  114MOL0     H15344   6.893   7.978   4.880 -2.5067 -1.2553  2.4791
  114MOL0     H15345   6.897   8.029   5.052 -0.3055 -2.0976 -0.5623
  114MOL0     H15346   6.953   8.225   4.824 -0.7079  2.4660  0.3573
  114MOL0     H15347   6.916   8.264   4.985  1.9175  0.2188 -0.0806
  114MOL0     H15348   6.733   8.123   4.776 -0.8456  1.3213 -0.1426
  114MOL0     H15349   6.735   8.293   4.812  4.7906  0.3304  0.7256
  114MOL0     H15350   6.521   8.263   4.729  0.4495 -1.3372 -0.9597
  114MOL0     H15351   6.287   8.278   4.679  3.5940 -3.0804 -1.4270
  114MOL0     H15352   5.872   8.029   4.797 -1.6006 -1.3012 -1.6556
  114MOL0     H15353   5.623   8.034   4.772  0.5644  2.8799 -1.7420
  114MOL0     H15354   5.400   8.042   4.782  2.8661 -1.4689  3.0665
  114MOL0     H15355   5.353   8.010   4.942 -0.2179 -0.1893  1.1281
  114MOL0     H15356   5.198   8.190   4.950  0.7262 -1.9994  1.2760
  114MOL0     H15357   5.239   8.236   4.775  0.0976  0.3501  0.4078
  114MOL0     H15358   5.165   7.991   4.716 -0.1651  1.5528 -0.6166
  114MOL0     H15359   5.118   7.972   4.875  1.9041  0.3138  0.3113
  114MOL0     H15360   5.009   8.186   4.679 -0.7201 -0.3079 -0.7712
  114MOL0     H15361   4.951   8.175   4.849 -4.1518 -2.6997  1.0183
  114MOL0     H15362   4.888   7.941   4.818  2.9190 -0.3394 -0.0413
  114MOL0     H15363   4.924   7.966   4.642  2.2259 -1.9518  0.7768
  114MOL0     H15364   4.721   8.133   4.796 -2.1164 -0.4098 -1.2395
  114MOL0     H15365   4.777   8.132   4.620  3.6157  0.7058  0.4811
  114MOL0     H15366   4.626   7.903   4.757 -3.6825 -1.7684 -0.8132
  114MOL0     H15367   4.659   7.921   4.585 -2.0777 -0.5242  0.1777
  114MOL0     H15368   4.432   7.984   4.631  0.8598 -0.1827 -0.5896
  114MOL0     H15369   4.486   8.112   4.751  0.0278 -1.8010  0.3300
  114MOL0     H15370   5.617   8.324   5.092 -0.3018  0.7300 -0.4011
  114MOL0     H15371   5.854   8.308   5.102  1.6851 -0.3255 -1.6275
  114MOL0     H15372   6.211   8.120   5.075 -0.5587  0.1545  0.5266
  114MOL0     H15373   6.465   8.099   5.110 -1.1043 -0.2156  1.1741
  114MOL0     H15374   5.949   7.415   4.959 -1.6674  1.3758 -0.3067
  114MOL0     H15375   5.718   7.425   4.925  1.7394  0.9649  2.4293
  114MOL0     H15376   5.351   7.148   4.719 -3.0449 -3.5570 -0.1788
  114MOL0     H15377   5.112   7.176   4.642 -0.9571  0.3745 -0.0090
  114MOL0     H15378   4.848   7.192   4.909 -2.9272  0.3391  1.5973
  114MOL0     H15379   4.839   7.149   4.735 -0.4300  1.3272 -0.8813
  114MOL0     H15380   4.675   7.364   4.726  0.9281  0.0490  1.3615
  114MOL0     H15381   4.655   7.325   4.895 -0.5933 -2.4143  1.6669
  114MOL0     H15382   4.559   7.117   4.860  0.6918  0.6953  0.2108
  114MOL0     H15383   4.611   7.106   4.684  2.4778 -0.0695  1.7691
  114MOL0     H15384   4.424   7.311   4.793  4.1768 -0.6599  1.3616
  114MOL0     H15385   4.457   7.293   4.626 -0.1536  1.5529  0.9489
  114MOL0     H15386   4.134   7.027   4.727 -0.7580  2.2492 -0.0634
  114MOL0     H15387   5.023   7.371   5.007  2.0851 -0.3756  2.5869
  114MOL0     H15388   5.338   7.439   5.111  1.2839 -0.6408  1.4248
  114MOL0     H15389   5.165   7.429   5.165  0.5543  2.7642 -0.6786
  114MOL0     H15390   5.283   7.290   5.190  1.3198 -0.5603 -2.0968
  115MOL0     O15391   0.726   1.699   7.971 -0.0479  0.2545 -0.1894
  115MOL0     C15392   0.684   1.807   7.938 -0.6757 -0.1154  0.0769
  115MOL0     O15393   0.760   1.921   7.925  0.0966 -0.3990  0.1212
  115MOL0     C15394   0.891   1.912   7.980 -0.0025 -0.7096 -0.2939
  115MOL0     C15395   1.004   1.845   7.927  0.6215  0.0785  0.1427
  115MOL0     C15396   1.133   1.845   7.989 -0.5921 -0.8276  0.0591
  115MOL0     C15397   1.150   1.920   8.111  0.5529 -0.4853 -0.3521
  115MOL0     O15398   1.271   1.932   8.178 -0.5774 -0.0630  0.5271
  115MOL0     C15399   1.258   1.917   8.320  0.1818 -0.1960  0.5229
  115MOL0     C15400   1.400   1.887   8.381  0.6500 -0.6938 -0.7560
  115MOL0     C15401   1.518   1.973   8.334  0.6800  0.0620  0.3077
  115MOL0     C15402   1.647   1.904   8.318  0.0873  0.6188 -0.1290
  115MOL0     C15403   1.765   1.997   8.307  0.3178 -0.1436 -0.4665
  115MOL0     C15404   1.782   2.051   8.165 -0.2764  0.5565  0.2580
  115MOL0     C15405   1.914   2.113   8.148 -0.1281  0.2991  0.8653
  115MOL0     C15406   1.968   2.126   7.999 -0.0790  0.1961 -0.0802
  115MOL0     N15407   2.086   2.212   7.987  0.1010  0.1271  0.3364
  115MOL0     C15408   2.218   2.183   8.011 -0.3984  0.1888  0.2143
  115MOL0     C15409   2.285   2.293   7.964  0.5484 -0.1437 -0.2750
  115MOL0     C15410   2.439   2.314   7.969  0.4314 -0.7075 -0.2085
  115MOL0     C15411   2.507   2.370   7.843 -0.8719 -0.9694 -0.1487
  115MOL0     C15412   2.477   2.286   7.722  0.1018 -0.0581 -0.1116
  115MOL0     C15413   2.576   2.315   7.611 -0.7359  0.8864 -0.9005
  115MOL0     O15414   2.717   2.298   7.668  0.0472 -0.0455  0.2164
  115MOL0     C15415   2.831   2.321   7.594  0.0282  0.8916 -0.2389
  115MOL0     C15416   2.835   2.371   7.464 -0.3109 -0.0378 -0.2981
  115MOL0     C15417   2.951   2.373   7.398  0.3014 -0.5549 -0.5418
  115MOL0     C15418   3.070   2.316   7.449 -0.0886 -0.0705 -0.4734
  115MOL0     C15419   3.196   2.325   7.376  0.9029  1.4704 -0.5530
  115MOL0     O15420   3.313   2.283   7.432  0.5597  0.3635  0.0889
  115MOL0     C15421   3.437   2.289   7.359  0.3106  0.2581 -0.6072
  115MOL0     C15422   3.463   2.407   7.295 -0.0792 -0.1472  0.6161
  115MOL0     C15423   3.577   2.416   7.217  0.4444  0.3914  0.5000
  115MOL0     C15424   3.669   2.313   7.211  0.7025 -0.3549  0.6043
  115MOL0     O15425   3.781   2.319   7.136  0.2931  0.0604  0.3601
  115MOL0     C15426   3.835   2.446   7.114 -0.4053  0.3100 -0.0313
  115MOL0     C15427   3.972   2.434   7.052 -0.7973  0.3436 -0.4958
  115MOL0     C15428   4.029   2.559   6.981  0.0132 -1.0540  0.6584
  115MOL0     C15429   4.167   2.540   6.922  0.8953  0.3563 -0.0054
  115MOL0     C15430   4.210   2.652   6.829 -0.1656  0.0172  0.9216
  115MOL0     C15431   4.338   2.639   6.751 -0.2765  0.0011  0.8641
  115MOL0     C15432   4.364   2.505   6.690  0.0936  1.6621  0.1655
  115MOL0     C15433   4.514   2.495   6.646 -0.6054  0.1333  0.5111
  115MOL0    Cl15434   4.626   2.499   6.790  0.3150 -0.0216 -0.3851
  115MOL0     C15435   3.639   2.197   7.286  0.5900 -0.2926  0.4662
  115MOL0     C15436   3.522   2.179   7.354  0.2192 -0.4221 -0.0978
  115MOL0     O15437   3.183   2.365   7.265  0.6521 -0.5781 -0.1413
  115MOL0     C15438   3.069   2.263   7.583  0.1572  0.0956  0.3868
  115MOL0     C15439   2.946   2.270   7.653  0.8356 -0.4889 -0.0064
  115MOL0     N15440   2.191   2.376   7.901  0.6581  0.4194 -0.6470
  115MOL0     N15441   2.070   2.326   7.917 -0.5429  0.4344  0.0034
  115MOL0     C15442   1.032   1.991   8.159 -0.4199 -0.1779  0.4693
  115MOL0     C15443   0.909   1.988   8.089  0.2952 -0.1052 -0.0033
  115MOL0     C15444   0.540   1.825   7.892 -0.1051  0.4221  0.0564
  115MOL0     C15445   0.503   1.929   7.801 -0.0887 -0.0792  0.2848
  115MOL0     C15446   0.375   1.937   7.734 -0.0782  0.1725  0.7762
  115MOL0     C15447   0.282   1.846   7.766 -0.0332  0.1280 -0.6838
  115MOL0     O15448   0.157   1.839   7.718 -0.2019 -0.2052 -0.0936
  115MOL0     C15449   0.133   1.853   7.576  0.5367  0.1955 -0.7017
  115MOL0     C15450  -0.012   1.821   7.520  0.1470 -0.5479  0.3974
  115MOL0     C15451  -0.117   1.922   7.580  0.5185  0.6099  0.8317
  115MOL0     C15452  -0.263   1.881   7.544 -0.1365 -0.1499 -0.1264
  115MOL0     C15453  -0.306   1.900   7.402 -0.1117  0.0878  0.0408
  115MOL0     C15454  -0.347   1.920   7.290  0.0937  0.7098  0.4068
  115MOL0     C15455   0.317   1.745   7.856  0.0812  0.1148 -0.3715
  115MOL0     C15456   0.437   1.734   7.917  0.8667 -0.1756 -0.4733
  115MOL0     C15457   0.454   1.609   7.995 -0.4877 -0.5366 -0.3402
  115MOL0     H15458   0.994   1.786   7.837 -0.0441 -1.2929  1.0860
  115MOL0     H15459   1.214   1.787   7.946 -0.5686  0.4241 -1.6823
  115MOL0     H15460   1.230   2.012   8.367 -1.0296 -1.7460  3.1489
  115MOL0     H15461   1.177   1.848   8.343 -1.8868  2.5035  1.9304
  115MOL0     H15462   1.421   1.783   8.354 -0.6332 -1.0973 -0.2572
  115MOL0     H15463   1.390   1.900   8.489 -4.2195  0.9186 -1.1991
  115MOL0     H15464   1.530   2.059   8.401 -0.6204 -0.9459  1.9256
  115MOL0     H15465   1.494   2.016   8.237  1.3386 -2.5138 -1.0810
  115MOL0     H15466   1.656   1.842   8.408  0.2445 -0.1740 -0.6806
  115MOL0     H15467   1.642   1.835   8.234 -3.2710  0.4809  0.0306
  115MOL0     H15468   1.767   2.084   8.373  1.0147  0.0838 -0.7721
  115MOL0     H15469   1.851   1.936   8.336  1.3498  2.3627  2.2658
  115MOL0     H15470   1.763   1.970   8.094 -0.3850 -0.8025  1.7810
  115MOL0     H15471   1.700   2.121   8.149 -0.0445  0.8573  0.3889
  115MOL0     H15472   1.989   2.051   8.198 -1.0166  1.3250  3.6572
  115MOL0     H15473   1.913   2.218   8.181  0.6628  0.3679  0.6978
  115MOL0     H15474   1.990   2.026   7.962 -1.2592  0.5529 -1.8579
  115MOL0     H15475   1.886   2.171   7.942  0.9760  4.2023  1.2298
  115MOL0     H15476   2.257   2.088   8.047 -0.0885  0.4209  0.4875
  115MOL0     H15477   2.461   2.376   8.057 -1.8221 -1.8701  1.2937
  115MOL0     H15478   2.487   2.217   7.983  1.4736  0.1570  3.4818
  115MOL0     H15479   2.481   2.475   7.826  0.8911 -0.4554  0.1223
  115MOL0     H15480   2.613   2.370   7.869 -1.8571 -0.1862  5.2695
  115MOL0     H15481   2.374   2.308   7.692 -0.5188 -1.6525  0.7150
  115MOL0     H15482   2.470   2.178   7.740 -0.1125  0.0727  0.6514
  115MOL0     H15483   2.572   2.421   7.584 -1.1364  1.1442  0.1063
  115MOL0     H15484   2.560   2.249   7.525 -1.5019  1.4526 -1.2004
  115MOL0     H15485   2.745   2.408   7.415  0.4443  2.1159 -0.1449
  115MOL0     H15486   2.950   2.415   7.298  1.1647  2.9088  0.7712
  115MOL0     H15487   3.391   2.488   7.301 -0.6162 -0.5736  0.1329
  115MOL0     H15488   3.610   2.505   7.165 -0.4502  0.3005 -0.2496
  115MOL0     H15489   3.788   2.517   7.047 -2.5912 -1.1122 -0.0919
  115MOL0     H15490   3.855   2.503   7.206 -0.7244  0.7600 -0.2391
  115MOL0     H15491   4.042   2.423   7.135 -1.2021 -0.1437 -0.2107
  115MOL0     H15492   3.973   2.349   6.983 -0.0923  0.6727 -0.9009
  115MOL0     H15493   3.958   2.593   6.905  1.3787 -0.3673 -0.3600
  115MOL0     H15494   4.041   2.634   7.059 -0.1605 -1.9476  1.5702
  115MOL0     H15495   4.159   2.449   6.862 -3.3532 -0.6952  1.7994
  115MOL0     H15496   4.239   2.523   7.002  0.5306 -0.6359  0.1203
  115MOL0     H15497   4.219   2.742   6.892  0.3497  1.0967 -0.6315
  115MOL0     H15498   4.134   2.674   6.754  0.3285  1.6773  0.8511
  115MOL0     H15499   4.339   2.716   6.673  1.8774 -0.3786  0.4356
  115MOL0     H15500   4.420   2.653   6.822  1.0350  0.1968 -0.6398
  115MOL0     H15501   4.288   2.497   6.612  0.1740  1.4496  0.1059
  115MOL0     H15502   4.337   2.422   6.756 -0.0869 -0.0239 -1.8775
  115MOL0     H15503   4.522   2.402   6.589 -0.4758  0.4968 -0.0610
  115MOL0     H15504   4.543   2.578   6.582  2.0741 -0.9833  0.1220
  115MOL0     H15505   3.702   2.109   7.278 -0.5780 -1.4140  2.7280
  115MOL0     H15506   3.502   2.095   7.419  2.7841  0.0752  1.4909
  115MOL0     H15507   3.155   2.218   7.631 -1.1342 -3.9256 -0.6922
  115MOL0     H15508   2.950   2.231   7.754 -1.0350  0.2329  0.3986
  115MOL0     H15509   1.037   2.046   8.253 -1.8547 -0.5345  0.7762
  115MOL0     H15510   0.821   2.043   8.123 -2.1717 -1.7213 -3.1785
  115MOL0     H15511   0.584   1.993   7.768  0.5482  0.5372  2.7825
  115MOL0     H15512   0.360   2.014   7.658  1.4699 -1.2828 -1.1036
  115MOL0     H15513   0.205   1.790   7.522  0.0030 -1.4273  0.4160
  115MOL0     H15514   0.147   1.961   7.565 -0.3066  0.8356  3.1058
  115MOL0     H15515  -0.037   1.718   7.546 -0.2116  0.3235  3.9493
  115MOL0     H15516  -0.017   1.835   7.411  2.4878 -1.0953  0.1727
  115MOL0     H15517  -0.097   2.019   7.532  1.5907  0.2380  0.4933
  115MOL0     H15518  -0.116   1.926   7.689 -0.7779 -1.1590  0.9408
  115MOL0     H15519  -0.283   1.777   7.571 -0.2697 -0.0482  0.1771
  115MOL0     H15520  -0.325   1.941   7.612  2.0235  1.2620  0.7179
  115MOL0     H15521  -0.382   1.946   7.193 -1.7124  2.6936  1.5123
  115MOL0     H15522   0.236   1.676   7.875 -0.8038  0.6120 -2.1627
  115MOL0     H15523   0.484   1.647   8.093  0.7720  0.3196 -1.0330
  115MOL0     H15524   0.362   1.557   8.022  0.2409 -1.1752  1.0432
  115MOL0     H15525   0.535   1.546   7.959  0.2620  0.8630 -1.1837
  116MOL0     O15526  10.295   0.503   5.897 -0.7220  0.3359 -0.6928
  116MOL0     C15527  10.206   0.431   5.853 -0.5293  0.5020 -0.1454
  116MOL0     O15528  10.224   0.308   5.804 -0.1295  0.8013 -0.4151
  116MOL0     C15529  10.352   0.255   5.824 -0.0105  0.3664 -0.6867
  116MOL0     C15530  10.439   0.224   5.721  0.1121 -0.5289 -0.0696
  116MOL0     C15531  10.568   0.186   5.754 -0.4559 -0.1018  0.6149
  116MOL0     C15532  10.620   0.171   5.890 -0.6667  0.6062 -0.1431
  116MOL0     O15533  10.753   0.122   5.905  0.4725 -0.7049 -0.6541
  116MOL0     C15534  10.807   0.132   6.040  0.4825  0.3964  0.2560
  116MOL0     C15535  10.956   0.140   6.050  0.0581  0.2894  0.5045
  116MOL0     C15536  10.986   0.185   6.189 -1.2379 -0.7473 -0.0099
  116MOL0     C15537  11.130   0.200   6.216 -0.1315 -0.1860  0.6122
  116MOL0     C15538  11.178   0.332   6.154  0.9060 -0.5495 -0.1016
  116MOL0     C15539  11.140   0.468   6.229  1.1396 -0.1421 -0.1441
  116MOL0     C15540  11.222   0.578   6.166 -0.2235  0.5870 -0.2221
  116MOL0     C15541  11.157   0.643   6.045 -0.0845 -0.4506 -0.0644
  116MOL0     N15542  11.271   0.705   5.974 -0.6236 -0.4818  0.1477
  116MOL0     C15543  11.330   0.672   5.849  0.4810 -0.5384 -0.0125
  116MOL0     C15544  11.424   0.771   5.826 -0.3295  0.2354  0.6896
  116MOL0     C15545  11.532   0.789   5.719 -0.0507 -0.5017 -0.9542
  116MOL0     C15546  11.595   0.652   5.685 -0.0012  0.3736 -0.1521
  116MOL0     C15547  11.677   0.661   5.557  0.7268  0.2593 -0.0043
  116MOL0     C15548  11.787   0.762   5.569 -1.1524  0.5547  0.2232
  116MOL0     O15549  11.887   0.708   5.659 -0.5369  0.0098 -0.8975
  116MOL0     C15550  12.009   0.770   5.652 -0.0021 -0.6254 -0.2737
  116MOL0     C15551  12.050   0.874   5.575 -0.4921 -0.4483  0.0137
  116MOL0     C15552  12.182   0.936   5.574  0.3349  0.2938  0.4243
  116MOL0     C15553  12.276   0.897   5.664  0.2891 -0.5030 -0.1085
  116MOL0     C15554  12.408   0.961   5.661 -0.1264  0.2088 -0.6141
  116MOL0     O15555  12.515   0.908   5.740  0.4244 -0.0542 -0.1563
  116MOL0     C15556  12.633   0.976   5.757 -0.4173  0.2561 -0.6345
  116MOL0     C15557  12.750   0.919   5.723  0.4182 -0.2601  0.3742
  116MOL0     C15558  12.878   0.982   5.725 -0.6321 -0.3280 -0.0473
  116MOL0     C15559  12.882   1.115   5.756  0.4734 -0.6460  0.1335
  116MOL0     O15560  13.001   1.182   5.760  0.1440  0.0101 -0.1218
  116MOL0     C15561  13.001   1.303   5.840 -0.6084 -0.2962 -0.1884
  116MOL0     C15562  13.138   1.354   5.870 -0.6277  0.4651 -0.7635
  116MOL0     C15563  13.232   1.246   5.948  0.2068 -0.2779 -0.8995
  116MOL0     C15564  13.370   1.289   6.000 -0.2506  0.1814 -0.5509
  116MOL0     C15565  13.430   1.186   6.096 -1.4100  0.4554  0.0322
  116MOL0     C15566  13.569   1.210   6.146  0.0093 -0.4978 -0.0859
  116MOL0     C15567  13.667   1.218   6.034  0.4335 -0.0488  0.0178
  116MOL0     C15568  13.804   1.195   6.083 -0.2371 -0.3140  0.3676
  116MOL0    Cl15569  13.852   1.307   6.213  0.5101  1.0371 -0.0673
  116MOL0     C15570  12.763   1.173   5.799  0.3993 -0.9500  0.4910
  116MOL0     C15571  12.636   1.104   5.803 -0.2700  0.0694 -1.2192
  116MOL0     O15572  12.416   1.062   5.596 -0.0301 -0.0148 -0.0174
  116MOL0     C15573  12.240   0.790   5.751 -0.6906  0.6411  0.1875
  116MOL0     C15574  12.110   0.727   5.745 -0.8318 -0.8736 -0.2832
  116MOL0     N15575  11.410   0.864   5.924  0.3775  0.0683  0.2236
  116MOL0     N15576  11.324   0.831   6.013 -0.6802  0.0621 -0.2360
  116MOL0     C15577  10.524   0.183   5.990 -0.2763 -0.6367  0.4246
  116MOL0     C15578  10.397   0.230   5.962 -0.3822 -0.4588 -0.5390
  116MOL0     C15579  10.067   0.496   5.850  0.8867  0.8240  0.5727
  116MOL0     C15580  10.050   0.630   5.907 -0.3721 -0.1778  0.0259
  116MOL0     C15581   9.931   0.694   5.923  0.3436  0.5513  0.5609
  116MOL0     C15582   9.817   0.631   5.869 -0.4358 -0.3348  0.5192
  116MOL0     O15583   9.686   0.677   5.884 -0.8045 -0.1121  0.2102
  116MOL0     C15584   9.650   0.816   5.869 -0.6396  0.5210 -0.3329
  116MOL0     C15585   9.538   0.834   5.777 -0.2872 -0.1117  0.3776
  116MOL0     C15586   9.440   0.716   5.780 -0.2910 -0.2321  0.4297
  116MOL0     C15587   9.301   0.767   5.744 -0.2229 -0.6451  0.1724
  116MOL0     C15588   9.201   0.661   5.753  0.6458 -0.1248  0.5269
  116MOL0     C15589   9.130   0.559   5.726 -0.0900  0.6632 -0.1604
  116MOL0     C15590   9.825   0.511   5.802 -0.5123 -0.0252 -0.2837
  116MOL0     C15591   9.948   0.441   5.789 -0.5590  0.1039 -0.6617
  116MOL0     C15592   9.948   0.303   5.729  0.2178 -0.3443 -0.8129
  116MOL0     H15593  10.407   0.231   5.617  2.2984  0.6476 -0.7298
  116MOL0     H15594  10.645   0.173   5.678  0.9706  1.3191  1.7399
  116MOL0     H15595  10.759   0.215   6.092  1.1302 -0.0429  1.5867
  116MOL0     H15596  10.771   0.049   6.102  0.2314 -1.0116 -1.6624
  116MOL0     H15597  10.994   0.201   5.968 -0.2581 -2.1927 -1.6109
  116MOL0     H15598  11.000   0.047   6.013  2.1346  2.6591 -3.7785
  116MOL0     H15599  10.956   0.110   6.263  0.6781 -1.5968 -0.0319
  116MOL0     H15600  10.941   0.279   6.223 -0.7628 -0.9671  1.2868
  116MOL0     H15601  11.149   0.189   6.323  0.2126 -3.8474  0.3193
  116MOL0     H15602  11.198   0.127   6.172  1.6110  1.0889  1.0958
  116MOL0     H15603  11.287   0.323   6.159  0.9368  0.2442  0.8216
  116MOL0     H15604  11.149   0.336   6.049 -0.9938 -2.1668  0.3008
  116MOL0     H15605  11.033   0.487   6.237  1.3909  0.7381  1.9933
  116MOL0     H15606  11.160   0.453   6.336  2.2236 -0.1651 -0.3352
  116MOL0     H15607  11.321   0.542   6.134  0.6388  2.4108  0.2636
  116MOL0     H15608  11.248   0.654   6.240  0.7990  0.1560 -0.1129
  116MOL0     H15609  11.108   0.579   5.971  1.2153  1.2441 -2.5200
  116MOL0     H15610  11.081   0.718   6.069  0.3781 -0.2481  0.7979
  116MOL0     H15611  11.315   0.586   5.784  0.4351 -1.3956  1.1063
  116MOL0     H15612  11.496   0.842   5.631 -1.5686 -1.1028 -0.7191
  116MOL0     H15613  11.607   0.850   5.771 -0.3751  0.5532 -1.7019
  116MOL0     H15614  11.656   0.621   5.770 -0.0935  0.7881  0.0709
  116MOL0     H15615  11.526   0.568   5.678 -0.2216  0.6091 -1.0544
  116MOL0     H15616  11.611   0.678   5.471  0.0692 -3.4079 -0.4023
  116MOL0     H15617  11.714   0.558   5.544  0.3090  0.0890  0.1499
  116MOL0     H15618  11.759   0.862   5.605  0.0831  0.8802  0.3218
  116MOL0     H15619  11.835   0.765   5.471 -1.6764 -2.6572 -0.2318
  116MOL0     H15620  11.990   0.913   5.493 -0.1912  2.1174  0.8927
  116MOL0     H15621  12.192   1.025   5.512  0.6273  0.0084  0.0461
  116MOL0     H15622  12.733   0.816   5.694 -1.0199 -0.0583  0.4349
  116MOL0     H15623  12.971   0.930   5.703  1.5556  2.1570  2.5915
  116MOL0     H15624  12.944   1.385   5.795  1.2550  0.9581 -0.3629
  116MOL0     H15625  12.960   1.281   5.939 -1.0847 -2.9840 -0.9068
  116MOL0     H15626  13.199   1.378   5.782  1.7213  2.3305  1.1938
  116MOL0     H15627  13.116   1.441   5.934 -0.8942 -1.7317  2.3295
  116MOL0     H15628  13.171   1.203   6.028  1.2511  1.9012  1.1510
  116MOL0     H15629  13.241   1.163   5.876 -1.4459  0.0543 -1.5402
  116MOL0     H15630  13.359   1.383   6.055 -0.5523  0.0324 -0.3586
  116MOL0     H15631  13.435   1.316   5.916  0.9812 -0.7649  0.0601
  116MOL0     H15632  13.437   1.096   6.034  0.4518  0.3118  0.3726
  116MOL0     H15633  13.369   1.168   6.185 -0.2927 -2.4365  0.3134
  116MOL0     H15634  13.561   1.315   6.173 -3.6883 -0.4888 -0.6643
  116MOL0     H15635  13.599   1.135   6.220 -0.7561 -2.3493 -1.5628
  116MOL0     H15636  13.653   1.319   5.994  0.8773  0.5760  1.3926
  116MOL0     H15637  13.647   1.136   5.964  0.4930 -0.3989  0.4077
  116MOL0     H15638  13.800   1.091   6.116 -0.5009 -0.5965 -0.5141
  116MOL0     H15639  13.876   1.196   6.000 -1.2252 -2.4624 -0.6139
  116MOL0     H15640  12.762   1.279   5.821 -1.3697 -0.8365  0.0111
  116MOL0     H15641  12.545   1.158   5.828  0.3403  0.7770 -0.4818
  116MOL0     H15642  12.315   0.763   5.824  0.3788  1.7236 -0.4668
  116MOL0     H15643  12.088   0.654   5.822 -0.8869 -0.2048  0.3444
  116MOL0     H15644  10.548   0.158   6.092 -1.0052  0.4990  0.8920
  116MOL0     H15645  10.334   0.265   6.043  3.4765  3.7425  1.0524
  116MOL0     H15646  10.138   0.668   5.958 -0.1220 -1.4090  0.5535
  116MOL0     H15647   9.930   0.789   5.976  1.2543 -0.2275  2.0453
  116MOL0     H15648   9.729   0.879   5.827  1.6657 -1.6149  0.5833
  116MOL0     H15649   9.617   0.847   5.968  0.0094 -0.7199  0.2974
  116MOL0     H15650   9.580   0.844   5.676  0.7451  0.5947  0.8571
  116MOL0     H15651   9.483   0.925   5.803  0.7625  0.5248  0.4364
  116MOL0     H15652   9.443   0.673   5.881 -0.8028  0.5873  0.8056
  116MOL0     H15653   9.476   0.639   5.710  0.1434  2.3139 -2.3524
  116MOL0     H15654   9.274   0.849   5.811  1.2200  1.6202 -1.8301
  116MOL0     H15655   9.303   0.810   5.643  0.1389  0.2500  0.5461
  116MOL0     H15656   9.089   0.460   5.721  0.3106  0.2933  2.4722
  116MOL0     H15657   9.736   0.466   5.759  1.6372 -3.0375 -2.0128
  116MOL0     H15658   9.850   0.276   5.687 -0.0929  0.1171 -0.3966
  116MOL0     H15659  10.015   0.296   5.643 -1.0349  0.4350 -1.8823
  116MOL0     H15660   9.995   0.233   5.799  2.5837  2.1504  0.2452
  117MOL0     O15661   6.413   0.969   7.129  0.1564 -0.2980 -0.2681
  117MOL0     C15662   6.430   1.004   7.249 -0.2727 -0.6106 -0.2792
  117MOL0     O15663   6.555   1.012   7.315  0.5564  0.4433  0.3986
  117MOL0     C15664   6.667   0.962   7.258 -0.6107  0.7245 -0.2507
  117MOL0     C15665   6.732   1.026   7.153  0.7775  0.6280  0.8268
  117MOL0     C15666   6.867   0.985   7.121 -0.4012 -0.1075 -0.4945
  117MOL0     C15667   6.935   0.884   7.183  0.1899 -0.2629  0.5195
  117MOL0     O15668   7.049   0.847   7.130 -0.4009  0.1125 -0.3987
  117MOL0     C15669   7.115   0.727   7.170  0.2501 -0.4919 -0.1590
  117MOL0     C15670   7.252   0.733   7.106  0.7164 -0.1740  0.2329
  117MOL0     C15671   7.320   0.605   7.099 -0.6644  0.5075  0.0359
  117MOL0     C15672   7.348   0.545   7.239 -0.0996 -0.3006 -0.4349
  117MOL0     C15673   7.472   0.608   7.289 -0.5090  0.1243 -0.6733
  117MOL0     C15674   7.597   0.579   7.206 -0.7751  0.7416 -0.4005
  117MOL0     C15675   7.720   0.592   7.293  0.3711 -0.4252  0.8198
  117MOL0     C15676   7.749   0.739   7.335 -0.8031  0.8427  0.1865
  117MOL0     N15677   7.882   0.748   7.396  0.0145 -1.0059  0.5616
  117MOL0     C15678   7.914   0.838   7.498  0.1480 -0.1850  0.3692
  117MOL0     C15679   8.049   0.831   7.527  0.0908  0.3588 -0.1897
  117MOL0     C15680   8.134   0.896   7.631 -0.0903 -0.2310 -0.0862
  117MOL0     C15681   8.159   1.040   7.598 -0.2630  0.8441  0.0621
  117MOL0     C15682   8.280   1.075   7.510 -0.4073 -0.1481  0.4679
  117MOL0     C15683   8.313   0.976   7.408  0.1477  0.4937  0.5050
  117MOL0     O15684   8.426   1.005   7.324 -0.6289 -0.7547 -0.0672
  117MOL0     C15685   8.468   0.922   7.230 -0.7996 -0.2325  0.3525
  117MOL0     C15686   8.580   0.972   7.164 -0.3877 -0.5779 -0.3917
  117MOL0     C15687   8.628   0.894   7.060  0.0175  1.1831  0.0734
  117MOL0     C15688   8.573   0.767   7.025 -0.0442  0.1360  0.0768
  117MOL0     C15689   8.639   0.678   6.928  0.7486 -0.2316 -0.6179
  117MOL0     O15690   8.763   0.695   6.900 -0.5812  0.2417 -0.2638
  117MOL0     C15691   8.843   0.617   6.817  0.5731 -0.1596  0.2654
  117MOL0     C15692   8.803   0.512   6.734 -0.6735 -0.0917  0.5217
  117MOL0     C15693   8.897   0.438   6.656 -0.6410 -0.9945  0.5141
  117MOL0     C15694   9.029   0.455   6.666 -0.1171  0.1369  0.2754
  117MOL0     O15695   9.122   0.389   6.588  0.0688  0.6783 -0.2725
  117MOL0     C15696   9.079   0.281   6.508 -0.1387  0.6963  0.2252
  117MOL0     C15697   9.199   0.218   6.441 -0.7109  0.1809 -0.8396
  117MOL0     C15698   9.306   0.315   6.384 -0.4637  0.8937 -0.2183
  117MOL0     C15699   9.419   0.221   6.325 -0.2332  0.0194 -0.7285
  117MOL0     C15700   9.540   0.306   6.290  0.5835 -0.3534 -0.3251
  117MOL0     C15701   9.650   0.208   6.237 -0.5476 -0.1071  0.7659
  117MOL0     C15702   9.783   0.279   6.188  0.1832  0.1452  1.3502
  117MOL0     C15703   9.851   0.184   6.086 -0.8744  0.9723  0.0439
  117MOL0    Cl15704  10.036   0.226   6.101  0.7092  0.3744  0.2668
  117MOL0     C15705   9.072   0.555   6.753 -0.1081 -0.6728 -0.2933
  117MOL0     C15706   8.978   0.640   6.824 -0.3277  0.3871 -0.7290
  117MOL0     O15707   8.562   0.601   6.871 -0.7182  0.2629 -0.3839
  117MOL0     C15708   8.456   0.721   7.094 -0.5087 -0.1291 -0.1024
  117MOL0     C15709   8.412   0.795   7.198  0.0521  0.4934  0.0352
  117MOL0     N15710   8.104   0.740   7.432  0.5012  0.3236 -0.1657
  117MOL0     N15711   8.005   0.695   7.356  0.4405 -0.5334  0.4937
  117MOL0     C15712   6.868   0.820   7.284 -0.2611 -0.3062 -0.5110
  117MOL0     C15713   6.739   0.855   7.322 -0.1308 -0.9176 -0.2863
  117MOL0     C15714   6.305   1.045   7.316  0.4128  0.1185  0.2412
  117MOL0     C15715   6.188   1.076   7.234  0.3300  0.0794 -0.1726
  117MOL0     C15716   6.064   1.099   7.284  0.2875  0.5099 -0.1214
  117MOL0     C15717   6.050   1.097   7.425 -0.2471  0.1325 -0.0422
  117MOL0     O15718   5.940   1.138   7.500  0.3239  0.0403  0.3028
  117MOL0     C15719   5.829   1.188   7.422  0.3269  0.4137 -0.0647
  117MOL0     C15720   5.709   1.230   7.517 -0.3159  0.8515 -0.5572
  117MOL0     C15721   5.609   1.297   7.420 -0.0123 -0.8443 -0.5417
  117MOL0     C15722   5.484   1.348   7.506  0.1320  0.3022  0.6962
  117MOL0     C15723   5.402   1.239   7.567 -0.5985 -1.0330 -0.3036
  117MOL0     C15724   5.353   1.139   7.619  0.0798 -0.8892  0.0063
  117MOL0     C15725   6.162   1.074   7.507 -0.3829 -0.1635  0.3869
  117MOL0     C15726   6.287   1.053   7.458 -0.2145  0.8968  0.6953
  117MOL0     C15727   6.398   1.022   7.561 -0.0860 -0.3023  0.7690
  117MOL0     H15728   6.690   1.115   7.108  2.4440 -0.0527 -2.3879
  117MOL0     H15729   6.908   1.038   7.036 -2.0826  1.8813 -0.1398
  117MOL0     H15730   7.115   0.715   7.279  2.8150 -1.0636 -0.1531
  117MOL0     H15731   7.054   0.647   7.128 -4.2552  2.3298  0.2800
  117MOL0     H15732   7.322   0.799   7.157  1.3223 -2.4931  2.6094
  117MOL0     H15733   7.231   0.750   7.000  0.9179 -1.1598  0.0269
  117MOL0     H15734   7.410   0.616   7.038 -0.9690 -0.9916 -0.7296
  117MOL0     H15735   7.258   0.531   7.047 -0.7212  2.0476 -2.1854
  117MOL0     H15736   7.258   0.554   7.300 -0.0835 -2.7828  0.0663
  117MOL0     H15737   7.364   0.437   7.242  1.8052 -0.1040  3.6973
  117MOL0     H15738   7.452   0.713   7.313  0.6848  0.8314 -2.5252
  117MOL0     H15739   7.482   0.562   7.388 -1.2875  2.2589  0.4838
  117MOL0     H15740   7.597   0.474   7.175  3.9192  0.2312  0.4823
  117MOL0     H15741   7.605   0.645   7.119 -4.3239 -0.7766 -2.0331
  117MOL0     H15742   7.809   0.556   7.240  0.8750  0.1373  1.2627
  117MOL0     H15743   7.709   0.533   7.384  1.2483  1.0568  1.9260
  117MOL0     H15744   7.737   0.805   7.249  0.6465 -1.7101 -2.1238
  117MOL0     H15745   7.682   0.778   7.412 -1.9581 -3.4623  1.6271
  117MOL0     H15746   7.840   0.896   7.552 -0.1226  0.0558 -0.2523
  117MOL0     H15747   8.067   0.891   7.718 -0.3701  0.3160 -0.2646
  117MOL0     H15748   8.223   0.835   7.645  0.0724 -0.0034 -0.1233
  117MOL0     H15749   8.072   1.074   7.541  0.7751  0.5972 -1.7640
  117MOL0     H15750   8.167   1.103   7.687  3.8546  2.5930 -1.2696
  117MOL0     H15751   8.364   1.087   7.580  0.5425  0.6459 -0.7503
  117MOL0     H15752   8.281   1.177   7.471  0.1919  1.4240  4.0967
  117MOL0     H15753   8.231   0.973   7.335 -0.6073 -0.0860  1.3521
  117MOL0     H15754   8.317   0.877   7.455 -0.2609 -0.6401 -1.7113
  117MOL0     H15755   8.627   1.065   7.196  0.2186 -0.4735 -1.5158
  117MOL0     H15756   8.725   0.914   7.015  0.5647 -3.2696 -1.2182
  117MOL0     H15757   8.699   0.483   6.718 -0.9134  0.4598  1.0482
  117MOL0     H15758   8.849   0.358   6.600 -3.1037 -0.3987  1.6214
  117MOL0     H15759   9.026   0.205   6.566  2.0315  0.0045  1.4099
  117MOL0     H15760   9.011   0.323   6.434 -0.7444 -0.1932  0.2540
  117MOL0     H15761   9.252   0.161   6.517 -0.4789  1.1597 -0.2500
  117MOL0     H15762   9.169   0.158   6.354  1.6509  1.5002 -2.6976
  117MOL0     H15763   9.263   0.384   6.312  0.1700 -0.6043 -2.1120
  117MOL0     H15764   9.345   0.367   6.473 -1.0648 -1.7218  1.7101
  117MOL0     H15765   9.379   0.178   6.233  1.8541 -0.3427 -1.5279
  117MOL0     H15766   9.451   0.143   6.395  2.5753 -0.3288 -2.2428
  117MOL0     H15767   9.580   0.360   6.376  0.1299  1.1271 -1.0164
  117MOL0     H15768   9.517   0.382   6.215 -1.4570 -2.6141 -2.1321
  117MOL0     H15769   9.678   0.140   6.319  1.3244  1.6422  1.6684
  117MOL0     H15770   9.604   0.151   6.156 -1.3733 -2.2686  2.6306
  117MOL0     H15771   9.843   0.301   6.277  0.8438  1.6153  0.5823
  117MOL0     H15772   9.758   0.367   6.128 -2.1716 -3.0284 -2.8753
  117MOL0     H15773   9.834   0.082   6.122  1.3898  0.4311 -0.1994
  117MOL0     H15774   9.814   0.195   5.984  0.0997  1.0647 -0.3175
  117MOL0     H15775   9.180   0.571   6.751 -0.1211 -0.3543 -2.9520
  117MOL0     H15776   9.005   0.720   6.892  0.5892 -0.6000  0.1112
  117MOL0     H15777   8.410   0.625   7.071 -0.4024 -0.1816 -0.0981
  117MOL0     H15778   8.319   0.759   7.241  0.9983  0.3589  2.1048
  117MOL0     H15779   6.911   0.738   7.341  0.3449 -0.0553 -0.5962
  117MOL0     H15780   6.685   0.807   7.402 -0.2614  1.4776  1.1564
  117MOL0     H15781   6.203   1.084   7.127  0.6921 -1.2581 -0.2415
  117MOL0     H15782   5.979   1.133   7.226 -0.2176 -1.1592 -0.4203
  117MOL0     H15783   5.788   1.107   7.361 -4.6942 -0.1158  3.4259
  117MOL0     H15784   5.855   1.273   7.359  0.1789  0.5958  0.1218
  117MOL0     H15785   5.744   1.289   7.602 -2.7895  0.2058  1.0100
  117MOL0     H15786   5.667   1.135   7.553 -0.3587  1.3246  0.6546
  117MOL0     H15787   5.576   1.229   7.342  1.0971 -1.0931 -0.8155
  117MOL0     H15788   5.657   1.386   7.377  0.9321 -0.5389  1.0774
  117MOL0     H15789   5.513   1.406   7.594 -2.2652 -1.9924  3.1887
  117MOL0     H15790   5.415   1.410   7.447  0.4713  1.3932  1.4255
  117MOL0     H15791   5.314   1.053   7.669 -1.0736  1.0035  2.5827
  117MOL0     H15792   6.146   1.085   7.614 -0.0597  2.9568  0.1973
  117MOL0     H15793   6.363   1.005   7.664 -0.7382 -2.8162  0.2193
  117MOL0     H15794   6.449   0.929   7.534  0.5247  0.2192  0.0942
  117MOL0     H15795   6.475   1.098   7.550 -0.5784 -0.1854 -3.1327
  118MOL0     O15796   8.852   2.998  10.040  0.1988  0.0719 -0.0043
  118MOL0     C15797   8.860   3.019   9.918 -0.5992 -0.4884  0.2982
  118MOL0     O15798   8.967   2.991   9.839 -0.7729 -1.0316  0.5069
  118MOL0     C15799   9.066   2.920   9.899  0.2089 -0.0034  0.3143
  118MOL0     C15800   9.053   2.785   9.913  0.1944  0.4135  0.1768
  118MOL0     C15801   9.166   2.706   9.960  0.7936  0.3386 -0.3887
  118MOL0     C15802   9.287   2.776   9.991 -0.8031 -0.2924  1.0332
  118MOL0     O15803   9.407   2.718  10.021 -0.1147 -0.5056  0.3057
  118MOL0     C15804   9.426   2.605   9.945  0.8544  0.3165 -0.2025
  118MOL0     C15805   9.572   2.592   9.922 -0.8844 -0.0510 -0.1162
  118MOL0     C15806   9.601   2.474   9.830 -0.8373  0.6646  0.1281
  118MOL0     C15807   9.742   2.471   9.762 -0.2538 -0.2081  0.0954
  118MOL0     C15808   9.810   2.339   9.782  0.1919 -0.5474  0.9827
  118MOL0     C15809   9.946   2.335   9.728 -0.5175 -0.2022  0.1479
  118MOL0     C15810   9.998   2.195   9.733  0.1927  0.4816 -0.0779
  118MOL0     C15811  10.143   2.180   9.690 -0.5928 -0.3333  0.1624
  118MOL0     N15812  10.154   2.162   9.545  0.4166  0.5157  0.0414
  118MOL0     C15813  10.092   2.067   9.468 -0.0981  0.4434  0.8273
  118MOL0     C15814  10.149   2.074   9.340  0.2115 -0.2217 -0.1251
  118MOL0     C15815  10.115   1.984   9.223  0.5490 -0.6442  0.6856
  118MOL0     C15816  10.102   2.061   9.091  0.1637 -0.4911  0.5085
  118MOL0     C15817   9.985   2.153   9.084 -0.3390  0.3724 -0.1327
  118MOL0     C15818   9.852   2.106   9.143 -0.9073 -0.1906  0.8483
  118MOL0     O15819   9.801   1.986   9.072  0.0209  0.3436 -0.0053
  118MOL0     C15820   9.688   1.932   9.120  0.2286  0.3868 -0.0598
  118MOL0     C15821   9.650   1.817   9.051 -0.0799 -0.1731 -1.0183
  118MOL0     C15822   9.526   1.756   9.081 -0.7138  0.5850  0.2585
  118MOL0     C15823   9.428   1.819   9.158 -0.1099  0.0975  0.3275
  118MOL0     C15824   9.293   1.762   9.164  1.1536  0.4878 -0.1663
  118MOL0     O15825   9.198   1.825   9.240 -0.3706  0.7030 -0.3649
  118MOL0     C15826   9.075   1.765   9.271 -0.6982 -0.0895  1.1863
  118MOL0     C15827   9.058   1.710   9.407  0.0538 -0.5129  1.0785
  118MOL0     C15828   8.931   1.668   9.441 -0.0949  0.2537  0.2010
  118MOL0     C15829   8.835   1.645   9.340  0.9794  0.4465  0.6685
  118MOL0     O15830   8.708   1.595   9.366 -0.0939  0.4292 -0.1530
  118MOL0     C15831   8.667   1.546   9.494  0.0311  0.7868  0.2702
  118MOL0     C15832   8.528   1.498   9.466 -0.9951  0.2705  0.1388
  118MOL0     C15833   8.464   1.417   9.586 -0.3072 -0.2973  1.0617
  118MOL0     C15834   8.336   1.353   9.534 -0.9537 -0.5014 -0.9034
  118MOL0     C15835   8.241   1.330   9.646  0.8549  0.5043  0.1533
  118MOL0     C15836   8.283   1.219   9.741 -0.2459 -0.2869 -0.5896
  118MOL0     C15837   8.172   1.206   9.859 -0.9945  0.3169  0.5002
  118MOL0     C15838   8.214   1.098   9.952 -0.7587 -0.1877 -1.5544
  118MOL0    Cl15839   8.201   0.935   9.890 -0.4958 -0.1189 -0.5533
  118MOL0     C15840   8.858   1.683   9.210  0.1882 -1.5016  0.9138
  118MOL0     C15841   8.981   1.748   9.171 -0.1464 -0.6187  0.3157
  118MOL0     O15842   9.269   1.662   9.091 -0.3006  0.4353 -0.0862
  118MOL0     C15843   9.470   1.926   9.232 -0.4159  0.0494  0.0473
  118MOL0     C15844   9.602   1.977   9.218  0.3429 -0.4255  0.1522
  118MOL0     N15845  10.256   2.153   9.347 -0.1050  1.4049 -0.3414
  118MOL0     N15846  10.253   2.214   9.465  0.4059  0.0866  0.4178
  118MOL0     C15847   9.285   2.916   9.979 -0.6068 -0.2130 -0.3089
  118MOL0     C15848   9.180   2.994   9.936 -0.1094  0.1402  0.5085
  118MOL0     C15849   8.736   3.072   9.840 -0.5193  0.3926 -0.9676
  118MOL0     C15850   8.614   3.060   9.905  0.7300  0.0722 -0.1587
  118MOL0     C15851   8.500   3.096   9.842 -0.7041  0.1923  0.3195
  118MOL0     C15852   8.502   3.161   9.710 -0.5651  0.1215 -0.1658
  118MOL0     O15853   8.401   3.220   9.647  0.4522  0.7514 -0.3663
  118MOL0     C15854   8.268   3.200   9.701 -0.1682  0.1925  0.3511
  118MOL0     C15855   8.165   3.249   9.599  0.2925  0.2304  0.0311
  118MOL0     C15856   8.029   3.209   9.637 -0.3812 -0.4641  0.2714
  118MOL0     C15857   7.913   3.270   9.548  0.2116 -0.1090 -0.8956
  118MOL0     C15858   7.796   3.285   9.638 -0.5660  0.4389  0.3712
  118MOL0     C15859   7.694   3.284   9.705  0.3454 -0.0043  0.2912
  118MOL0     C15860   8.630   3.185   9.654  0.2790  0.0089  0.2557
  118MOL0     C15861   8.748   3.140   9.714 -0.9007 -0.5323 -0.3722
  118MOL0     C15862   8.877   3.179   9.649  0.1725  0.7757 -0.4441
  118MOL0     H15863   8.952   2.754   9.888  0.6297  1.4162 -3.3376
  118MOL0     H15864   9.153   2.599   9.975  0.2305  0.6352  1.5689
  118MOL0     H15865   9.376   2.525  10.000 -0.2678  0.5656 -0.8207
  118MOL0     H15866   9.382   2.621   9.846  0.1458  1.9648  0.3399
  118MOL0     H15867   9.622   2.586  10.019  0.7226  3.4148 -0.5983
  118MOL0     H15868   9.604   2.682   9.870  0.0850 -0.2973  0.0334
  118MOL0     H15869   9.522   2.450   9.758  2.2416  0.1383 -3.3618
  118MOL0     H15870   9.601   2.383   9.890 -1.1522 -0.1403 -1.0592
  118MOL0     H15871   9.725   2.506   9.660  0.3029  1.8472  0.6641
  118MOL0     H15872   9.807   2.548   9.804 -2.1055  1.2326  0.4699
  118MOL0     H15873   9.802   2.314   9.888 -0.3553  1.1067  1.3634
  118MOL0     H15874   9.749   2.265   9.729  1.5551 -0.3336 -0.9985
  118MOL0     H15875   9.954   2.373   9.626  2.1365  1.4552  0.8689
  118MOL0     H15876  10.013   2.397   9.788  1.3247 -1.9464 -0.0354
  118MOL0     H15877   9.932   2.131   9.673 -1.3587  1.0300  0.9636
  118MOL0     H15878   9.994   2.156   9.836 -2.3328  2.0568  0.5143
  118MOL0     H15879  10.201   2.272   9.705 -1.0598 -0.0441  0.1994
  118MOL0     H15880  10.198   2.100   9.741  1.6164  0.1175 -1.3563
  118MOL0     H15881  10.011   2.001   9.497  0.2142 -0.5265 -0.3966
  118MOL0     H15882  10.199   1.918   9.197  1.0184  0.7441 -1.6035
  118MOL0     H15883  10.026   1.924   9.245  0.4810 -0.1245  1.9216
  118MOL0     H15884  10.185   2.132   9.088 -2.0728  2.4517  2.7282
  118MOL0     H15885  10.099   1.997   9.002 -2.6860  0.6844 -0.3456
  118MOL0     H15886   9.960   2.192   8.985  0.5794 -0.1204 -0.5752
  118MOL0     H15887  10.006   2.242   9.144 -1.1497 -0.1119  0.8992
  118MOL0     H15888   9.789   2.193   9.126 -0.6964 -0.0152  0.9617
  118MOL0     H15889   9.866   2.094   9.251  0.1201  2.2212  1.0482
  118MOL0     H15890   9.702   1.781   8.963 -2.5422  0.4945 -2.8542
  118MOL0     H15891   9.505   1.664   9.027 -0.4905  0.4229  0.4446
  118MOL0     H15892   9.136   1.741   9.476 -0.9649  0.4702  1.8341
  118MOL0     H15893   8.927   1.628   9.542  3.8161  1.1349  0.8880
  118MOL0     H15894   8.733   1.465   9.525 -0.1798  0.4490 -0.1552
  118MOL0     H15895   8.669   1.622   9.573  0.7240 -1.4093  2.4695
  118MOL0     H15896   8.467   1.583   9.435 -2.3377  0.1491  2.2962
  118MOL0     H15897   8.543   1.428   9.383  2.4645 -1.2028  1.7952
  118MOL0     H15898   8.540   1.347   9.623  1.3708  1.1301  0.4727
  118MOL0     H15899   8.444   1.485   9.669  0.3834 -1.2140  2.0168
  118MOL0     H15900   8.364   1.261   9.481  2.7907  0.7165 -1.3382
  118MOL0     H15901   8.290   1.419   9.461 -1.7162  1.4618  1.2514
  118MOL0     H15902   8.148   1.293   9.601  1.0755  0.5189 -0.3175
  118MOL0     H15903   8.222   1.426   9.695 -0.0060 -0.8279  2.6195
  118MOL0     H15904   8.290   1.127   9.683 -4.5938  0.3798 -2.5414
  118MOL0     H15905   8.381   1.241   9.784 -0.0939  0.9388 -1.5060
  118MOL0     H15906   8.067   1.186   9.835 -1.3884 -1.2544  3.1556
  118MOL0     H15907   8.189   1.306   9.900  0.1657  0.6403 -0.6968
  118MOL0     H15908   8.320   1.114   9.972 -1.4294  1.9162  0.7205
  118MOL0     H15909   8.154   1.112  10.042  0.7825 -2.7818  0.0330
  118MOL0     H15910   8.791   1.664   9.126  0.6067 -2.5363  0.7987
  118MOL0     H15911   8.999   1.770   9.067 -0.8462 -0.3865  0.2374
  118MOL0     H15912   9.398   1.967   9.302 -1.9121 -0.1922 -1.2946
  118MOL0     H15913   9.634   2.065   9.273 -2.5128  1.8444 -1.4930
  118MOL0     H15914   9.373   2.972  10.009 -1.8960  1.6269  0.1956
  118MOL0     H15915   9.185   3.102   9.928 -0.6792  0.0823 -0.9753
  118MOL0     H15916   8.617   3.007   9.999 -0.5898 -2.1457 -1.2921
  118MOL0     H15917   8.412   3.061   9.895 -0.1500 -0.1842  0.9910
  118MOL0     H15918   8.256   3.254   9.796  2.1471  3.0424 -0.8229
  118MOL0     H15919   8.256   3.095   9.727  0.1106  0.4024  1.3615
  118MOL0     H15920   8.186   3.207   9.500 -0.7743 -1.2282  0.3829
  118MOL0     H15921   8.160   3.357   9.584  0.4534  0.0812 -1.1492
  118MOL0     H15922   8.009   3.254   9.734 -2.7991  1.4841 -1.0271
  118MOL0     H15923   8.036   3.100   9.635  2.6680 -0.3532  0.0820
  118MOL0     H15924   7.939   3.367   9.506  3.7637 -1.8146 -3.1247
  118MOL0     H15925   7.882   3.210   9.462 -0.3699  1.3269 -1.7082
  118MOL0     H15926   7.605   3.298   9.763  0.9442  0.6579  1.0803
  118MOL0     H15927   8.625   3.233   9.557  1.5597  0.3323  0.3255
  118MOL0     H15928   8.855   3.252   9.570  2.3017  0.3706 -1.4889
  118MOL0     H15929   8.954   3.210   9.720  0.6632 -0.7887 -0.2622
  118MOL0     H15930   8.927   3.096   9.599 -0.7861 -0.1586  0.1018
  119MOL0     O15931   8.140   1.365   3.661  0.2432 -0.2995 -0.1023
  119MOL0     C15932   8.061   1.344   3.564  0.0734  0.3311 -0.4614
  119MOL0     O15933   8.083   1.258   3.464  0.5010 -0.2352 -0.5385
  119MOL0     C15934   8.211   1.205   3.453  0.2674  0.4008 -0.1529
  119MOL0     C15935   8.326   1.275   3.444 -0.2837 -0.1631 -0.0513
  119MOL0     C15936   8.449   1.205   3.430 -0.7434 -0.2300 -0.1183
  119MOL0     C15937   8.466   1.066   3.416  0.6492  0.3134 -0.8515
  119MOL0     O15938   8.581   0.986   3.398  0.2175  0.4927  0.2182
  119MOL0     C15939   8.652   1.034   3.283 -0.2176  0.1549  0.3326
  119MOL0     C15940   8.737   0.912   3.234  0.2068  0.2414  0.3933
  119MOL0     C15941   8.868   0.897   3.319 -0.2908  0.3695 -1.4059
  119MOL0     C15942   8.951   0.789   3.261 -0.3411  0.1809 -0.0244
  119MOL0     C15943   9.075   0.750   3.346 -0.2712 -0.3727 -0.5189
  119MOL0     C15944   9.162   0.637   3.279  0.3105  0.0863 -0.5112
  119MOL0     C15945   9.265   0.595   3.382 -0.4787  0.2224 -0.7645
  119MOL0     C15946   9.358   0.488   3.327 -0.5780  0.5530 -0.1085
  119MOL0     N15947   9.456   0.429   3.423  0.4956 -0.0608 -0.5061
  119MOL0     C15948   9.505   0.505   3.522  0.4820 -0.4627 -0.2513
  119MOL0     C15949   9.620   0.443   3.556 -0.3506  0.4528 -0.4773
  119MOL0     C15950   9.725   0.499   3.652  0.3670 -0.6872 -0.0257
  119MOL0     C15951   9.772   0.395   3.761  0.3365 -0.1311 -0.0263
  119MOL0     C15952   9.881   0.449   3.839  0.2552 -0.9724 -0.2189
  119MOL0     C15953   9.941   0.364   3.943  0.2533  0.5788  0.5662
  119MOL0     O15954  10.007   0.240   3.901 -0.8054  0.5924  0.2851
  119MOL0     C15955  10.151   0.233   3.884  0.3825  0.7185  0.8014
  119MOL0     C15956  10.205   0.112   3.900 -0.4777 -0.4792 -0.0986
  119MOL0     C15957  10.342   0.082   3.881  0.2037 -0.6248  0.3269
  119MOL0     C15958  10.431   0.191   3.857 -0.6040 -0.0394  0.3610
  119MOL0     C15959  10.570   0.180   3.848 -1.2501  0.8520  0.7497
  119MOL0     O15960  10.640   0.261   3.760 -0.0288  0.2444 -0.6631
  119MOL0     C15961  10.768   0.250   3.756 -0.0672  1.1265 -1.6529
  119MOL0     C15962  10.846   0.358   3.804 -0.4387  0.5860 -0.5165
  119MOL0     C15963  10.986   0.346   3.797 -0.4722 -0.3785 -0.8163
  119MOL0     C15964  11.046   0.224   3.751  0.5359 -0.4794 -0.1534
  119MOL0     O15965  11.184   0.218   3.747  0.3147  0.0280 -0.2543
  119MOL0     C15966  11.231   0.288   3.628  0.2336  0.2615  0.5366
  119MOL0     C15967  11.386   0.269   3.619 -0.2203  0.4211 -0.1124
  119MOL0     C15968  11.429   0.126   3.585  0.1456 -0.4485  0.7028
  119MOL0     C15969  11.576   0.102   3.611  0.6761 -0.4476  0.7645
  119MOL0     C15970  11.611  -0.036   3.555  0.5668 -0.2224  0.6921
  119MOL0     C15971  11.759  -0.060   3.591 -0.9819 -0.2094 -0.5292
  119MOL0     C15972  11.806  -0.182   3.516  0.4367  0.6469  0.4361
  119MOL0     C15973  11.928  -0.252   3.567  0.1425  0.5383  0.9310
  119MOL0    Cl15974  12.077  -0.155   3.576 -0.3183 -0.4618 -0.2220
  119MOL0     C15975  10.969   0.127   3.694 -0.1725 -0.3355  0.2135
  119MOL0     C15976  10.827   0.135   3.698 -1.0515  0.9528 -0.0224
  119MOL0     O15977  10.615   0.085   3.907 -0.5992 -0.4014 -0.0533
  119MOL0     C15978  10.371   0.316   3.832  0.2811  0.0512 -0.2179
  119MOL0     C15979  10.229   0.337   3.850  0.2737 -0.7405  0.3849
  119MOL0     N15980   9.633   0.328   3.478 -0.0012  0.0518 -0.7840
  119MOL0     N15981   9.539   0.329   3.383  0.4975  0.1369 -0.2348
  119MOL0     C15982   8.345   1.003   3.441 -0.4966  0.1123  0.8938
  119MOL0     C15983   8.222   1.060   3.452 -0.3915  0.0294  0.3634
  119MOL0     C15984   7.923   1.414   3.571 -0.0139  0.1600 -0.8818
  119MOL0     C15985   7.833   1.360   3.477 -0.3457 -0.0947 -0.5930
  119MOL0     C15986   7.709   1.416   3.476  0.2081  0.8234  0.3094
  119MOL0     C15987   7.662   1.510   3.563  0.8201  0.5069 -0.0210
  119MOL0     O15988   7.527   1.542   3.552 -0.3471 -0.1311  0.7137
  119MOL0     C15989   7.479   1.625   3.658 -0.7541 -0.2967 -0.4204
  119MOL0     C15990   7.336   1.666   3.645  0.0853  0.0410 -0.7884
  119MOL0     C15991   7.246   1.542   3.630  0.3365  0.0941 -1.1640
  119MOL0     C15992   7.094   1.562   3.635  0.2746  0.0513 -1.0959
  119MOL0     C15993   7.034   1.423   3.656  0.8796 -0.2519  0.1118
  119MOL0     C15994   6.974   1.312   3.679 -0.6235 -1.2341  0.0193
  119MOL0     C15995   7.753   1.569   3.651 -0.2587  0.2598  1.2193
  119MOL0     C15996   7.886   1.531   3.645 -0.2909 -0.4732 -0.3872
  119MOL0     C15997   7.988   1.601   3.738  0.9840  0.1611  0.6102
  119MOL0     H15998   8.327   1.382   3.462  0.8876  0.5864 -3.6321
  119MOL0     H15999   8.536   1.270   3.432  1.0997 -2.4334 -2.3393
  119MOL0     H16000   8.578   1.070   3.211  0.3150  1.0350  0.2171
  119MOL0     H16001   8.715   1.121   3.303 -0.6193  1.4533 -3.3736
  119MOL0     H16002   8.748   0.916   3.125 -1.4003 -0.7354  0.1635
  119MOL0     H16003   8.686   0.819   3.263 -0.1900  1.6776  5.1591
  119MOL0     H16004   8.840   0.873   3.422  0.5162 -0.0278 -1.2712
  119MOL0     H16005   8.916   0.995   3.321  0.3325  0.1244 -2.7756
  119MOL0     H16006   8.884   0.704   3.246 -1.0244  0.8998 -1.1336
  119MOL0     H16007   8.987   0.823   3.164 -0.2248 -1.4166 -0.5744
  119MOL0     H16008   9.137   0.837   3.365 -1.6021  0.3388  0.7894
  119MOL0     H16009   9.038   0.729   3.446  1.1171  1.2585  0.3778
  119MOL0     H16010   9.099   0.551   3.252 -1.1570  0.6443  0.9882
  119MOL0     H16011   9.218   0.681   3.196  0.1230 -0.5708 -0.9967
  119MOL0     H16012   9.220   0.564   3.476 -0.4367  0.9751 -0.4861
  119MOL0     H16013   9.323   0.683   3.414 -2.1023  0.7355  0.9722
  119MOL0     H16014   9.291   0.405   3.306 -1.8998  1.3738  0.7419
  119MOL0     H16015   9.409   0.528   3.239  0.1310  0.2782  0.1640
  119MOL0     H16016   9.456   0.594   3.561 -0.6449 -2.8255  4.5275
  119MOL0     H16017   9.805   0.534   3.586  0.9209  2.2269  1.9868
  119MOL0     H16018   9.688   0.589   3.702  1.5941 -0.3202  0.2654
  119MOL0     H16019   9.687   0.377   3.827 -1.2434  1.5314 -1.4867
  119MOL0     H16020   9.797   0.298   3.717 -1.2849 -0.4825 -0.2194
  119MOL0     H16021   9.848   0.537   3.895  0.7872 -0.8412 -0.1093
  119MOL0     H16022   9.957   0.479   3.767  2.4250 -0.7145  2.0418
  119MOL0     H16023   9.860   0.340   4.014 -0.4598  2.7066  0.5468
  119MOL0     H16024  10.013   0.428   3.994 -1.4460  2.0618  1.2146
  119MOL0     H16025  10.130   0.039   3.928  0.6188 -0.9394  1.8839
  119MOL0     H16026  10.376  -0.019   3.901  1.7241 -0.0004  1.1118
  119MOL0     H16027  10.817   0.453   3.847  3.6882  1.7792  0.1219
  119MOL0     H16028  11.043   0.429   3.839  1.1870 -0.5432 -2.5658
  119MOL0     H16029  11.178   0.244   3.543 -0.0421 -1.4643  1.5493
  119MOL0     H16030  11.224   0.397   3.630  1.8655  0.6016 -3.3725
  119MOL0     H16031  11.411   0.343   3.542 -1.9826  2.0632  0.7933
  119MOL0     H16032  11.431   0.290   3.716 -0.9212 -1.3334  0.6246
  119MOL0     H16033  11.365   0.064   3.648 -2.2653  1.3261  0.1259
  119MOL0     H16034  11.407   0.107   3.479  2.5543  0.8260 -0.0945
  119MOL0     H16035  11.593   0.107   3.719 -2.9123  0.0342  1.4372
  119MOL0     H16036  11.641   0.180   3.570 -1.7881  2.5115  2.0529
  119MOL0     H16037  11.600  -0.043   3.447  1.2562  0.3677  0.5752
  119MOL0     H16038  11.537  -0.109   3.587  0.4159 -1.6364 -2.5253
  119MOL0     H16039  11.820   0.027   3.565  0.0388 -0.6852  0.1698
  119MOL0     H16040  11.774  -0.082   3.698  2.4197 -3.1589 -1.3923
  119MOL0     H16041  11.825  -0.150   3.413 -1.4853 -0.3441 -0.2631
  119MOL0     H16042  11.724  -0.254   3.512 -1.7122  2.9804 -0.3565
  119MOL0     H16043  11.911  -0.301   3.663 -0.0362  0.0714  0.6637
  119MOL0     H16044  11.956  -0.330   3.496 -0.7006  0.5449  0.5856
  119MOL0     H16045  11.006   0.037   3.646 -1.8168 -0.5076 -0.8173
  119MOL0     H16046  10.772   0.046   3.669  1.4649  0.2953 -3.3723
  119MOL0     H16047  10.430   0.405   3.811 -0.5211  0.8198  0.6564
  119MOL0     H16048  10.189   0.438   3.851  4.1160  0.9371  0.3870
  119MOL0     H16049   8.354   0.895   3.441 -1.1599  0.0510  0.6270
  119MOL0     H16050   8.136   0.994   3.448 -0.8150  0.6388 -1.4533
  119MOL0     H16051   7.850   1.288   3.398 -2.8629 -0.1297 -1.1768
  119MOL0     H16052   7.655   1.376   3.390  2.1182  0.3072 -0.7083
  119MOL0     H16053   7.530   1.721   3.668 -1.0723 -0.2358  0.8645
  119MOL0     H16054   7.489   1.568   3.750  1.1037 -0.3868 -0.6565
  119MOL0     H16055   7.319   1.748   3.575  0.2669  1.9849  1.3281
  119MOL0     H16056   7.306   1.707   3.742 -0.7992 -2.2896 -0.0035
  119MOL0     H16057   7.265   1.470   3.710 -0.7165 -0.5102 -1.4346
  119MOL0     H16058   7.275   1.505   3.531  2.9451 -0.2461 -0.3564
  119MOL0     H16059   7.075   1.625   3.723 -1.3019 -1.4282 -0.3081
  119MOL0     H16060   7.050   1.618   3.552  0.1196  0.1208 -0.9678
  119MOL0     H16061   6.923   1.222   3.708  1.3514 -2.4523 -0.0696
  119MOL0     H16062   7.729   1.651   3.718  0.1064  0.4886  1.0809
  119MOL0     H16063   8.032   1.533   3.811  3.0431 -0.7932 -1.3958
  119MOL0     H16064   8.076   1.648   3.693  0.1615 -0.0068 -1.2608
  119MOL0     H16065   7.932   1.681   3.787 -3.8522 -1.5376 -1.4691
  120MOL0     O16066   3.738   2.957  10.019  0.6784 -0.5093  0.5707
  120MOL0     C16067   3.755   2.844   9.972 -0.5794  0.8649 -0.6828
  120MOL0     O16068   3.654   2.769   9.925  0.2828 -0.1698 -0.0498
  120MOL0     C16069   3.521   2.802   9.906  0.1062 -0.0773  0.3160
  120MOL0     C16070   3.479   2.937   9.890 -0.8557  0.5307  0.8401
  120MOL0     C16071   3.345   2.963   9.887 -0.5178  0.0317  0.0354
  120MOL0     C16072   3.249   2.857   9.883  0.5083  0.2088  0.0642
  120MOL0     O16073   3.114   2.863   9.873  0.5871 -0.0420 -0.3172
  120MOL0     C16074   3.056   2.992   9.892 -0.5583  0.2778  0.3801
  120MOL0     C16075   2.914   2.989   9.949  0.1586 -0.2767 -0.5403
  120MOL0     C16076   2.793   2.991   9.855  0.1171  0.9431 -0.3297
  120MOL0     C16077   2.663   2.978   9.932  0.7176  0.6917  0.1704
  120MOL0     C16078   2.545   2.961   9.843  0.2768 -0.8909  1.0836
  120MOL0     C16079   2.526   2.830   9.777  0.5765 -0.1457  0.0068
  120MOL0     C16080   2.397   2.825   9.697  0.2547  0.2167 -0.2985
  120MOL0     C16081   2.350   2.677   9.672 -0.6220 -0.2700 -0.4047
  120MOL0     N16082   2.455   2.610   9.585 -0.1828  0.3958  0.5631
  120MOL0     C16083   2.533   2.675   9.490 -0.4378  0.3943  0.1989
  120MOL0     C16084   2.626   2.581   9.455 -0.3745  0.4283  0.6099
  120MOL0     C16085   2.730   2.594   9.344 -0.5262 -0.5152 -0.0536
  120MOL0     C16086   2.868   2.603   9.408  0.0496  0.0543  0.6598
  120MOL0     C16087   2.879   2.722   9.505 -0.4403 -0.1259 -0.0551
  120MOL0     C16088   3.022   2.728   9.576  0.0987 -0.2919  0.6563
  120MOL0     O16089   3.110   2.779   9.474  0.1237  0.4943  0.0962
  120MOL0     C16090   3.242   2.730   9.490  0.0399  0.2988 -0.5532
  120MOL0     C16091   3.277   2.599   9.482 -0.5695  0.3797 -1.1855
  120MOL0     C16092   3.411   2.562   9.490  0.7491 -0.3021 -0.0259
  120MOL0     C16093   3.510   2.656   9.533  0.1018  0.4973  0.1469
  120MOL0     C16094   3.651   2.617   9.559 -0.1968 -0.2777 -0.3158
  120MOL0     O16095   3.732   2.716   9.604  0.0377 -0.1576 -0.8256
  120MOL0     C16096   3.869   2.711   9.624  0.6704 -0.3446 -0.0937
  120MOL0     C16097   3.957   2.597   9.637  0.2217  0.2964  0.1645
  120MOL0     C16098   4.092   2.609   9.661  0.6840  0.4388 -0.3004
  120MOL0     C16099   4.152   2.733   9.676  0.2872 -0.1117  0.7452
  120MOL0     O16100   4.284   2.763   9.698 -0.2810 -0.4749  0.5277
  120MOL0     C16101   4.376   2.661   9.682 -0.1169  0.1226  0.7585
  120MOL0     C16102   4.506   2.722   9.749 -0.7783 -0.9808 -0.0889
  120MOL0     C16103   4.595   2.601   9.775 -0.6592 -0.3251  0.0323
  120MOL0     C16104   4.732   2.635   9.829  0.6687 -0.4029  0.2405
  120MOL0     C16105   4.821   2.515   9.857  0.1489 -0.3939 -0.7526
  120MOL0     C16106   4.962   2.547   9.904  0.5330 -1.2641 -0.2009
  120MOL0     C16107   5.054   2.423   9.915  0.3006 -0.5134  0.8304
  120MOL0     C16108   4.994   2.310   9.996  0.1159  0.4597  0.1622
  120MOL0    Cl16109   4.993   2.348  10.171  0.3214  0.2281  0.4085
  120MOL0     C16110   4.063   2.850   9.662 -0.1361  0.8846  0.4920
  120MOL0     C16111   3.925   2.838   9.632 -1.0322 -0.8497 -0.9287
  120MOL0     O16112   3.687   2.509   9.521 -0.0421  0.5013  0.0459
  120MOL0     C16113   3.467   2.783   9.560 -0.5427 -0.7985  0.8724
  120MOL0     C16114   3.333   2.815   9.538 -0.8076 -0.6944 -0.0113
  120MOL0     N16115   2.614   2.469   9.536  0.9328 -0.2980  0.1733
  120MOL0     N16116   2.520   2.491   9.621 -0.4545 -0.5334  1.3261
  120MOL0     C16117   3.296   2.727   9.882  0.4785 -0.3650  1.0884
  120MOL0     C16118   3.429   2.699   9.901  0.0420 -0.1741  0.3511
  120MOL0     C16119   3.884   2.763  10.001  0.7259 -0.5368 -0.2848
  120MOL0     C16120   3.890   2.624   9.979  0.1964 -0.0966 -0.6859
  120MOL0     C16121   4.008   2.553   9.991  0.7048  0.8679  0.2137
  120MOL0     C16122   4.125   2.612  10.032 -0.7232 -0.2406  0.0017
  120MOL0     O16123   4.226   2.518  10.049 -0.7726 -0.2788  0.6128
  120MOL0     C16124   4.329   2.546  10.141  0.1367 -0.0136  0.2314
  120MOL0     C16125   4.423   2.426  10.166  0.2828 -0.4122  0.3808
  120MOL0     C16126   4.487   2.416  10.293 -0.5375  1.1221  0.9535
  120MOL0     C16127   4.574   2.286  10.294 -0.6629  0.1108  0.2609
  120MOL0     C16128   4.653   2.297  10.419 -0.2111 -0.1662 -0.2802
  120MOL0     C16129   4.712   2.303  10.523  0.4792 -0.5405 -0.7097
  120MOL0     C16130   4.126   2.751  10.051 -0.0352  0.4934  0.9355
  120MOL0     C16131   4.010   2.830  10.031  0.9835 -0.3280 -0.4061
  120MOL0     C16132   4.025   2.978  10.050  0.0343  0.1063  0.0329
  120MOL0     H16133   3.544   3.023   9.889 -2.8143  2.0609  0.3498
  120MOL0     H16134   3.308   3.064   9.871  1.0654  0.8978  1.5856
  120MOL0     H16135   3.109   3.056   9.962 -2.6746  0.7654  1.6023
  120MOL0     H16136   3.047   3.048   9.799  0.4384  0.1996  0.2241
  120MOL0     H16137   2.900   3.063  10.028  2.3513  0.2071 -0.5442
  120MOL0     H16138   2.917   2.892  10.000 -0.6072  0.3913  0.8121
  120MOL0     H16139   2.800   2.915   9.776 -0.9114  0.3579  0.1232
  120MOL0     H16140   2.791   3.082   9.794 -0.1835  1.0040 -0.2309
  120MOL0     H16141   2.667   2.892  10.000 -0.0600  1.0154  0.6434
  120MOL0     H16142   2.629   3.063   9.992  1.3163 -0.1090  1.7197
  120MOL0     H16143   2.453   2.994   9.892  0.0682 -1.9409  1.4201
  120MOL0     H16144   2.551   3.038   9.765  0.2397  0.4422  2.3444
  120MOL0     H16145   2.610   2.796   9.715  0.2826 -1.1269  0.1268
  120MOL0     H16146   2.512   2.753   9.854 -0.4346 -0.1733 -0.1920
  120MOL0     H16147   2.403   2.884   9.605 -4.6390  1.9893  0.2141
  120MOL0     H16148   2.310   2.857   9.755  0.4595 -0.3292  0.3250
  120MOL0     H16149   2.356   2.608   9.756  3.1150 -1.1825 -1.2366
  120MOL0     H16150   2.251   2.670   9.625 -0.2575  0.4331 -1.3256
  120MOL0     H16151   2.518   2.776   9.455  0.2076  0.9154  1.3817
  120MOL0     H16152   2.722   2.507   9.278  0.3755  0.5401 -1.6016
  120MOL0     H16153   2.712   2.684   9.286 -1.4765  0.6510  1.9268
  120MOL0     H16154   2.888   2.516   9.470  1.0794  1.2382  2.0626
  120MOL0     H16155   2.940   2.603   9.326 -2.4195  2.9328 -1.7574
  120MOL0     H16156   2.814   2.718   9.592  1.1557 -1.1017  1.1470
  120MOL0     H16157   2.872   2.812   9.443 -1.5944 -1.0805 -1.3552
  120MOL0     H16158   3.055   2.626   9.597  1.2115 -0.5216 -1.8036
  120MOL0     H16159   3.017   2.796   9.661  0.4341 -0.2846  0.6741
  120MOL0     H16160   3.197   2.525   9.479 -1.7880  1.4271  1.5833
  120MOL0     H16161   3.441   2.458   9.484  1.2620 -0.1306 -0.5639
  120MOL0     H16162   3.916   2.498   9.621 -1.1093  1.0279 -1.1474
  120MOL0     H16163   4.147   2.515   9.659 -1.4309 -0.8653 -2.6306
  120MOL0     H16164   4.345   2.571   9.736 -3.1756  0.8239  0.3105
  120MOL0     H16165   4.384   2.641   9.574 -0.4481  2.1378  0.3174
  120MOL0     H16166   4.555   2.797   9.685  2.0961  0.4545  3.3903
  120MOL0     H16167   4.483   2.776   9.841 -2.8270 -1.6200 -0.1802
  120MOL0     H16168   4.554   2.529   9.846 -1.4874  2.8510  3.0671
  120MOL0     H16169   4.597   2.551   9.678 -1.2577  1.8539 -1.1693
  120MOL0     H16170   4.721   2.700   9.916  0.5364 -1.8294  1.3254
  120MOL0     H16171   4.782   2.704   9.760 -1.8018 -1.3988 -2.7778
  120MOL0     H16172   4.822   2.448   9.771  0.8407  0.0954 -1.1379
  120MOL0     H16173   4.770   2.454   9.931  1.0953 -0.1438  0.1328
  120MOL0     H16174   5.007   2.624   9.841  0.4463  0.4399  1.7343
  120MOL0     H16175   4.952   2.588  10.005 -3.0421  1.5231 -1.4473
  120MOL0     H16176   5.144   2.455   9.968  1.9939 -1.2367 -1.4470
  120MOL0     H16177   5.084   2.391   9.814 -2.2212  3.7481 -1.6141
  120MOL0     H16178   4.891   2.280   9.973  1.0653 -0.7960 -3.0792
  120MOL0     H16179   5.056   2.222   9.975 -0.5423  0.7614 -3.7491
  120MOL0     H16180   4.108   2.948   9.671  0.1635  1.1919 -2.8878
  120MOL0     H16181   3.862   2.926   9.629 -3.2109 -2.2819 -5.1195
  120MOL0     H16182   3.530   2.863   9.597  0.5434 -0.8462 -0.7754
  120MOL0     H16183   3.308   2.918   9.561  0.1880 -0.0697 -1.5893
  120MOL0     H16184   3.211   2.661   9.867 -0.2941  0.8955 -0.4330
  120MOL0     H16185   3.452   2.593   9.896 -1.7787 -0.6125  0.3609
  120MOL0     H16186   3.792   2.585   9.954 -0.3841  1.9658 -1.8668
  120MOL0     H16187   4.008   2.444   9.989  2.3451  0.8551 -0.0693
  120MOL0     H16188   4.287   2.570  10.239 -2.3244  1.9390 -1.1836
  120MOL0     H16189   4.393   2.627  10.106  0.7279 -1.0764 -1.2554
  120MOL0     H16190   4.505   2.429  10.093 -1.1709  0.2500 -1.2861
  120MOL0     H16191   4.354   2.342  10.150 -1.3407  0.6856  1.4075
  120MOL0     H16192   4.407   2.416  10.368 -1.7060 -1.2022 -0.2080
  120MOL0     H16193   4.552   2.502  10.315 -0.0503  1.0291 -0.0765
  120MOL0     H16194   4.513   2.196  10.293 -2.2509  1.1593 -1.0460
  120MOL0     H16195   4.641   2.281  10.207 -0.1401 -0.4361  0.6829
  120MOL0     H16196   4.772   2.306  10.612  1.0207  1.1045 -1.1083
  120MOL0     H16197   4.219   2.799  10.080  0.2218  1.0278 -0.6599
  120MOL0     H16198   3.967   3.016  10.134  1.0504  0.0486  0.7880
  120MOL0     H16199   4.131   2.993  10.076 -0.4263  2.2301  0.8961
  120MOL0     H16200   4.003   3.033   9.959  0.1622  0.3089  0.1234
  121MOL0     O16201   5.492   3.052   1.897  0.1733 -0.4947  0.2171
  121MOL0     C16202   5.431   3.066   2.004 -0.1554 -0.2765 -0.3990
  121MOL0     O16203   5.489   3.106   2.121 -0.0860 -0.5412  0.2232
  121MOL0     C16204   5.627   3.089   2.146  0.0725  0.1013 -0.3708
  121MOL0     C16205   5.709   3.187   2.096  0.1948  0.0130  0.4131
  121MOL0     C16206   5.849   3.186   2.112 -0.6015 -0.2220  0.0702
  121MOL0     C16207   5.907   3.081   2.183  0.1503  0.7574  0.7856
  121MOL0     O16208   6.040   3.096   2.212  0.0782 -0.0976  0.0333
  121MOL0     C16209   6.096   2.987   2.300  0.2917 -0.0863 -0.5962
  121MOL0     C16210   6.234   3.039   2.343  0.1393  0.4072 -0.1331
  121MOL0     C16211   6.339   3.051   2.225  0.4328  0.6957 -0.2119
  121MOL0     C16212   6.472   3.115   2.279  0.8639  0.9806  0.2341
  121MOL0     C16213   6.564   3.131   2.159  0.7040 -0.1630 -0.0816
  121MOL0     C16214   6.692   3.196   2.195 -0.7640 -0.1882  0.4816
  121MOL0     C16215   6.779   3.223   2.070 -0.4112  0.4388  1.2343
  121MOL0     C16216   6.842   3.091   2.008  0.9658 -0.6471  0.1726
  121MOL0     N16217   6.938   3.023   2.095  0.3809  1.2255 -0.3631
  121MOL0     C16218   7.059   3.063   2.144 -0.2289 -0.0112 -1.1820
  121MOL0     C16219   7.104   2.951   2.211 -0.6050  0.2288  0.3763
  121MOL0     C16220   7.231   2.952   2.291 -0.1872  0.0469  0.4830
  121MOL0     C16221   7.325   3.083   2.286  0.4120 -0.1991  0.9416
  121MOL0     C16222   7.456   3.076   2.364  1.0131  0.4065  0.0009
  121MOL0     C16223   7.432   3.081   2.514  0.3720 -0.2518 -0.6360
  121MOL0     O16224   7.398   3.216   2.560  0.2463  0.1257 -0.1884
  121MOL0     C16225   7.481   3.296   2.641 -0.0004 -0.0161  0.5787
  121MOL0     C16226   7.451   3.435   2.635  0.0654 -0.6568 -0.1726
  121MOL0     C16227   7.532   3.518   2.711 -0.0009 -0.0733  0.0745
  121MOL0     C16228   7.631   3.476   2.795  0.2370 -0.5487  0.0536
  121MOL0     C16229   7.705   3.556   2.896 -0.2692  0.0845  0.3904
  121MOL0     O16230   7.825   3.502   2.940  0.1295  0.1282  0.3734
  121MOL0     C16231   7.914   3.578   3.010 -0.3774 -0.0162 -0.2395
  121MOL0     C16232   7.962   3.704   2.956 -0.0256  0.5781  0.2675
  121MOL0     C16233   8.042   3.784   3.042  0.7038 -0.9933  0.4436
  121MOL0     C16234   8.081   3.741   3.168 -0.0288 -0.3158  0.3368
  121MOL0     O16235   8.165   3.825   3.232  0.0371 -0.1863 -0.5572
  121MOL0     C16236   8.129   3.851   3.368 -0.9214  0.2964 -0.4098
  121MOL0     C16237   8.237   3.949   3.418 -0.0400 -1.0145 -0.3764
  121MOL0     C16238   8.235   3.949   3.570  0.2116  1.2568 -0.1744
  121MOL0     C16239   8.347   4.041   3.618 -0.4375  0.7861 -0.6028
  121MOL0     C16240   8.367   4.050   3.770  0.1405 -0.4207 -0.4405
  121MOL0     C16241   8.363   3.912   3.846  0.3909 -0.0386 -0.6485
  121MOL0     C16242   8.389   3.925   3.996  0.3077  0.0618  1.3564
  121MOL0     C16243   8.264   3.982   4.064  0.4204 -0.1623 -1.1407
  121MOL0    Cl16244   8.124   3.890   4.048 -0.0412 -0.2537 -0.2296
  121MOL0     C16245   8.030   3.617   3.212 -0.7557 -0.2306 -0.1673
  121MOL0     C16246   7.953   3.541   3.132 -0.3193  0.8115 -0.5336
  121MOL0     O16247   7.663   3.667   2.929  0.9154  0.2645  0.8764
  121MOL0     C16248   7.659   3.335   2.796  0.8966 -0.0751  0.4317
  121MOL0     C16249   7.585   3.248   2.727  0.2932 -0.1139 -0.3690
  121MOL0     N16250   7.018   2.846   2.186 -0.4101  0.5211 -0.1300
  121MOL0     N16251   6.926   2.890   2.121  0.1366  0.0244 -0.5813
  121MOL0     C16252   5.821   2.984   2.237 -0.8312  0.4867 -1.2821
  121MOL0     C16253   5.680   2.986   2.216 -0.8124 -0.0324 -0.2794
  121MOL0     C16254   5.278   3.047   2.015  0.1157 -0.5478  0.0863
  121MOL0     C16255   5.210   3.137   2.097  0.0419 -0.0930  0.0212
  121MOL0     C16256   5.074   3.139   2.108 -0.3304 -0.0602 -0.0371
  121MOL0     C16257   4.995   3.054   2.040 -0.0183 -0.1658 -0.3047
  121MOL0     O16258   4.859   3.048   2.047  0.5512  0.1211  0.1565
  121MOL0     C16259   4.781   3.140   2.122  0.3658 -1.2379  1.3073
  121MOL0     C16260   4.629   3.135   2.105 -0.3613  0.1663 -0.3727
  121MOL0     C16261   4.562   3.057   2.217  0.4854  0.2981  0.2286
  121MOL0     C16262   4.589   2.907   2.195 -0.3589  0.9681 -0.7822
  121MOL0     C16263   4.495   2.822   2.266 -1.1463 -0.5921 -0.3259
  121MOL0     C16264   4.427   2.757   2.334  0.6341 -0.6047 -0.3139
  121MOL0     C16265   5.053   2.971   1.940  0.5352 -0.0282 -0.6311
  121MOL0     C16266   5.195   2.967   1.934 -0.0549 -0.7417  0.2977
  121MOL0     C16267   5.252   2.860   1.848  0.3329 -0.0116 -0.3028
  121MOL0     H16268   5.650   3.261   2.042 -3.9354 -2.3086  1.3563
  121MOL0     H16269   5.911   3.271   2.083 -1.3992  0.3947  0.1428
  121MOL0     H16270   6.034   2.977   2.390 -0.1292  3.1381 -0.4140
  121MOL0     H16271   6.103   2.885   2.261  0.6953  0.0748 -0.9421
  121MOL0     H16272   6.271   2.965   2.415 -0.3992  0.6754  0.4303
  121MOL0     H16273   6.222   3.132   2.400 -1.3807 -0.2573  0.6897
  121MOL0     H16274   6.303   3.113   2.142  2.2146  0.2157 -1.4070
  121MOL0     H16275   6.356   2.954   2.176  2.1535  0.5926  0.5076
  121MOL0     H16276   6.451   3.210   2.329  1.5780  0.7529  0.9717
  121MOL0     H16277   6.507   3.056   2.363 -1.1305  0.7721  0.9803
  121MOL0     H16278   6.580   3.032   2.116  1.7485  1.1043 -2.8162
  121MOL0     H16279   6.511   3.192   2.086  0.2858 -1.4948 -0.9098
  121MOL0     H16280   6.669   3.281   2.259 -1.7725 -1.8451  2.4121
  121MOL0     H16281   6.756   3.130   2.253  0.6446 -0.5584 -1.4033
  121MOL0     H16282   6.861   3.290   2.097 -0.7465  1.6416 -0.5818
  121MOL0     H16283   6.730   3.282   1.993  2.9957 -0.7069 -2.0925
  121MOL0     H16284   6.757   3.025   1.991  1.7582 -1.9136  0.9341
  121MOL0     H16285   6.890   3.116   1.913 -0.4677  0.1979 -0.3537
  121MOL0     H16286   7.108   3.159   2.136 -1.8636  1.2812  2.4486
  121MOL0     H16287   7.193   2.937   2.392  1.5259 -0.4686  1.0942
  121MOL0     H16288   7.288   2.861   2.269 -0.3030 -0.0387  0.5375
  121MOL0     H16289   7.354   3.094   2.181 -0.1770 -0.2228  0.7729
  121MOL0     H16290   7.260   3.168   2.309 -0.2528 -1.0046  2.1524
  121MOL0     H16291   7.528   3.154   2.337  0.4230  1.6158  1.7626
  121MOL0     H16292   7.491   2.976   2.336 -0.9018  0.0247 -1.1971
  121MOL0     H16293   7.523   3.050   2.566  1.0786  2.3190 -0.2271
  121MOL0     H16294   7.348   3.016   2.543  0.7510 -0.8081 -0.7728
  121MOL0     H16295   7.368   3.474   2.577 -0.4698 -2.7013 -0.8868
  121MOL0     H16296   7.498   3.620   2.725 -0.8808 -0.3549  0.0820
  121MOL0     H16297   7.948   3.720   2.850  0.3792 -0.7008  0.0084
  121MOL0     H16298   8.087   3.879   3.015  1.1256 -0.8225  1.6956
  121MOL0     H16299   8.028   3.891   3.380 -1.3266 -1.2066  1.8681
  121MOL0     H16300   8.137   3.772   3.443 -2.8776  1.5139  1.1874
  121MOL0     H16301   8.336   3.915   3.387  0.2506 -1.5189  1.0154
  121MOL0     H16302   8.217   4.046   3.371 -1.5452 -1.3897 -0.5686
  121MOL0     H16303   8.140   3.992   3.603  0.0207  2.1094 -1.7744
  121MOL0     H16304   8.253   3.848   3.611  1.1770  0.9314 -1.3530
  121MOL0     H16305   8.328   4.139   3.572 -0.0760  0.1173 -2.2500
  121MOL0     H16306   8.441   3.998   3.582  0.2372  2.9164 -1.5284
  121MOL0     H16307   8.296   4.120   3.815 -0.8409 -1.6716  0.0117
  121MOL0     H16308   8.458   4.107   3.790 -0.5373  0.2693  0.8596
  121MOL0     H16309   8.267   3.863   3.828 -0.1982  1.9959 -3.8625
  121MOL0     H16310   8.436   3.843   3.802 -0.3789 -0.9715 -0.5016
  121MOL0     H16311   8.477   3.988   4.011 -1.0316  2.6241 -0.7660
  121MOL0     H16312   8.407   3.827   4.041 -0.1310 -1.0598 -0.7719
  121MOL0     H16313   8.278   3.997   4.172 -0.4314 -0.3093 -1.0063
  121MOL0     H16314   8.251   4.079   4.015 -4.8438 -0.8506 -1.6232
  121MOL0     H16315   8.064   3.588   3.311  2.2882 -2.3185 -1.6518
  121MOL0     H16316   7.917   3.444   3.166  3.1661 -1.2214 -2.1251
  121MOL0     H16317   7.737   3.295   2.860  1.4438  0.7518  0.3026
  121MOL0     H16318   7.617   3.146   2.740  0.2488  0.0425  1.0578
  121MOL0     H16319   5.853   2.892   2.286 -0.0398  2.7820  3.0162
  121MOL0     H16320   5.628   2.896   2.246  1.7823 -0.6926  2.8098
  121MOL0     H16321   5.264   3.221   2.140  1.3245  0.3458 -2.2982
  121MOL0     H16322   5.025   3.218   2.164 -4.7258 -0.1896 -3.1866
  121MOL0     H16323   4.798   3.239   2.080 -0.5749 -1.3656  0.5953
  121MOL0     H16324   4.820   3.140   2.225  1.6462  0.9279  0.8723
  121MOL0     H16325   4.617   3.085   2.008  3.4160 -1.0355 -0.3876
  121MOL0     H16326   4.586   3.234   2.092  0.4605  0.7583  1.2205
  121MOL0     H16327   4.454   3.067   2.209  0.2347 -2.8583 -4.1666
  121MOL0     H16328   4.597   3.087   2.316 -2.9836 -1.0552  2.0288
  121MOL0     H16329   4.593   2.879   2.089 -0.6422  2.3764 -1.1856
  121MOL0     H16330   4.687   2.884   2.236  0.7753  4.1638 -1.3762
  121MOL0     H16331   4.390   2.710   2.423  0.0265 -2.5191 -1.5151
  121MOL0     H16332   4.989   2.903   1.884 -0.7346  2.2706 -2.1301
  121MOL0     H16333   5.301   2.789   1.914  1.7892  0.8192 -0.4330
  121MOL0     H16334   5.178   2.813   1.782 -0.0603 -0.5440  0.5049
  121MOL0     H16335   5.326   2.900   1.778  0.9840  0.7901  0.8189
  122MOL0     O16336   9.131   0.143   8.769  0.3524  0.4039 -0.0846
  122MOL0     C16337   9.090   0.248   8.822  0.2131 -0.6389  0.1191
  122MOL0     O16338   9.135   0.376   8.792 -0.3732  0.4458  0.3020
  122MOL0     C16339   9.255   0.396   8.725  0.7756  0.7026  0.2686
  122MOL0     C16340   9.253   0.480   8.621 -0.2726  0.5666 -0.2176
  122MOL0     C16341   9.364   0.506   8.547 -0.7200 -0.4100  0.1471
  122MOL0     C16342   9.487   0.443   8.582  0.1351 -0.2281  0.2984
  122MOL0     O16343   9.602   0.473   8.513  0.2535  1.0911  0.5684
  122MOL0     C16344   9.719   0.389   8.503 -0.0190 -0.1840 -0.6640
  122MOL0     C16345   9.699   0.268   8.415 -0.6312 -0.4632 -0.5737
  122MOL0     C16346   9.662   0.285   8.261  0.6570  0.0452 -0.2260
  122MOL0     C16347   9.734   0.396   8.188 -0.4110 -0.9693 -0.6506
  122MOL0     C16348   9.687   0.419   8.043 -0.1507  0.2802 -0.3057
  122MOL0     C16349   9.765   0.535   7.969 -0.2272 -0.4757  0.4775
  122MOL0     C16350   9.738   0.679   8.026 -0.0022 -0.9663 -0.0314
  122MOL0     C16351   9.815   0.786   7.948  0.0132 -0.1588  0.0756
  122MOL0     N16352   9.962   0.784   7.958  0.3158 -0.1481 -0.1309
  122MOL0     C16353  10.057   0.736   7.872  0.0037  0.6895  0.5149
  122MOL0     C16354  10.174   0.766   7.929  0.0202  0.2319 -0.8586
  122MOL0     C16355  10.317   0.742   7.882  0.7432 -0.2602 -0.3086
  122MOL0     C16356  10.349   0.588   7.879  0.3673  0.0055 -0.1127
  122MOL0     C16357  10.407   0.540   8.016 -0.3321  0.3152  0.0790
  122MOL0     C16358  10.470   0.399   8.012  1.1445 -0.1574 -0.1466
  122MOL0     O16359  10.570   0.370   7.912 -0.0647  0.0630 -0.0558
  122MOL0     C16360  10.700   0.416   7.921 -0.0368 -0.2069 -0.0852
  122MOL0     C16361  10.788   0.378   7.815  0.7962 -0.2449  0.4234
  122MOL0     C16362  10.914   0.433   7.808  0.0315  0.1948 -0.4984
  122MOL0     C16363  10.954   0.526   7.908  0.0158 -0.6009  0.0573
  122MOL0     C16364  11.086   0.584   7.897  0.1390 -1.0869  0.5331
  122MOL0     O16365  11.176   0.530   7.806 -0.5141  0.5863  0.1095
  122MOL0     C16366  11.305   0.577   7.825 -0.1227  0.1586  0.4343
  122MOL0     C16367  11.363   0.665   7.740  0.1713 -0.2832 -0.2122
  122MOL0     C16368  11.499   0.701   7.767  0.0193  0.6295  0.4680
  122MOL0     C16369  11.578   0.637   7.860  0.0447  0.6844 -0.2860
  122MOL0     O16370  11.710   0.670   7.880 -0.7225  0.5530 -0.2953
  122MOL0     C16371  11.781   0.652   7.759  0.1632  0.1032  0.4843
  122MOL0     C16372  11.927   0.617   7.789  0.2757  0.1502  1.1257
  122MOL0     C16373  11.997   0.734   7.850 -0.0075  0.1679  0.3189
  122MOL0     C16374  12.138   0.689   7.903 -0.1746  1.0983  0.4461
  122MOL0     C16375  12.217   0.788   7.985  0.0549 -0.8334 -0.5703
  122MOL0     C16376  12.322   0.849   7.887 -0.2028  0.3744 -0.0362
  122MOL0     C16377  12.369   0.979   7.938 -1.2086  0.1666  0.4400
  122MOL0     C16378  12.486   1.024   7.838 -0.1470  0.0045 -0.0606
  122MOL0    Cl16379  12.438   1.109   7.695  0.4864  0.2703  0.3667
  122MOL0     C16380  11.517   0.536   7.937  0.1697  0.0469  0.0621
  122MOL0     C16381  11.380   0.512   7.925  0.0114 -0.8938 -0.0638
  122MOL0     O16382  11.120   0.669   7.981  0.6673  0.7869 -0.3472
  122MOL0     C16383  10.872   0.560   8.008 -0.0462  0.8138 -0.2774
  122MOL0     C16384  10.746   0.505   8.022 -0.0462  0.1798  0.4176
  122MOL0     N16385  10.148   0.835   8.046 -0.1800 -0.4563  0.9403
  122MOL0     N16386  10.024   0.837   8.068 -0.2117 -0.1046  0.7689
  122MOL0     C16387   9.490   0.349   8.691 -0.1523 -0.6490  0.2955
  122MOL0     C16388   9.373   0.324   8.757  0.2955 -0.0207 -0.3423
  122MOL0     C16389   8.978   0.240   8.918  0.0336 -0.1172  0.6300
  122MOL0     C16390   8.920   0.356   8.967  0.9929  0.2851  1.2234
  122MOL0     C16391   8.829   0.350   9.070  0.8821 -0.8005 -0.2918
  122MOL0     C16392   8.786   0.226   9.129  0.3337  0.2444  0.6661
  122MOL0     O16393   8.681   0.208   9.215  0.3529  0.1931  0.2772
  122MOL0     C16394   8.643   0.325   9.288  0.6389  0.4201 -0.5896
  122MOL0     C16395   8.566   0.282   9.407  0.2955 -0.0862  0.0214
  122MOL0     C16396   8.543   0.399   9.498 -0.1783 -0.0058 -0.0908
  122MOL0     C16397   8.443   0.364   9.616  0.1522  0.3882  0.5174
  122MOL0     C16398   8.521   0.306   9.730 -0.1358  0.1684  0.4861
  122MOL0     C16399   8.580   0.258   9.829 -0.6787 -0.4663 -0.1241
  122MOL0     C16400   8.847   0.110   9.076 -0.8247 -0.9239 -0.5508
  122MOL0     C16401   8.948   0.113   8.976 -0.6879 -0.3748 -0.9759
  122MOL0     C16402   9.006  -0.027   8.953  0.3050 -0.6753  0.9231
  122MOL0     H16403   9.162   0.537   8.603  0.2281  1.3633 -0.3051
  122MOL0     H16404   9.363   0.567   8.458  0.3411 -3.7046 -2.3420
  122MOL0     H16405   9.805   0.448   8.470  1.0616 -1.5282 -0.3141
  122MOL0     H16406   9.744   0.348   8.602  2.4423  2.5196 -0.0153
  122MOL0     H16407   9.620   0.211   8.464 -1.0382 -0.2974 -1.0237
  122MOL0     H16408   9.785   0.199   8.416 -1.7822 -1.9574  0.6937
  122MOL0     H16409   9.555   0.304   8.251  0.6188  0.2220  0.5197
  122MOL0     H16410   9.682   0.189   8.211  2.0340  0.2284 -0.0722
  122MOL0     H16411   9.721   0.494   8.234  0.2463  0.3773 -3.2135
  122MOL0     H16412   9.840   0.370   8.180 -0.1524 -2.4399  4.0651
  122MOL0     H16413   9.710   0.328   7.986 -0.0498 -1.7304  2.7104
  122MOL0     H16414   9.579   0.433   8.040 -0.5791 -0.6396  3.9933
  122MOL0     H16415   9.871   0.509   7.964 -0.4429 -1.9090  2.2583
  122MOL0     H16416   9.731   0.542   7.865 -0.0605  0.6480  0.4819
  122MOL0     H16417   9.769   0.684   8.131 -0.9974  0.8148  0.2229
  122MOL0     H16418   9.630   0.692   8.018 -0.3983 -1.9353  2.5515
  122MOL0     H16419   9.808   0.758   7.843  3.9117 -2.0610  0.1198
  122MOL0     H16420   9.776   0.886   7.966  1.1503  0.2146  0.5434
  122MOL0     H16421  10.051   0.679   7.780  2.5648  2.3586 -0.8166
  122MOL0     H16422  10.312   0.777   7.778 -3.2632  1.6765  0.3800
  122MOL0     H16423  10.395   0.797   7.935  2.2153  1.4316 -3.8679
  122MOL0     H16424  10.263   0.532   7.841 -0.8338  0.3905  1.9115
  122MOL0     H16425  10.431   0.574   7.808 -1.5532  0.0463 -2.4777
  122MOL0     H16426  10.327   0.551   8.090 -0.5931 -0.7988 -0.0171
  122MOL0     H16427  10.491   0.606   8.038  0.2197 -0.3713  0.0675
  122MOL0     H16428  10.393   0.330   7.976  1.6799 -1.5444  1.2496
  122MOL0     H16429  10.501   0.369   8.113  5.4085  1.1996 -0.8357
  122MOL0     H16430  10.733   0.310   7.751 -1.7799  0.5818  1.6322
  122MOL0     H16431  10.975   0.389   7.730  0.7415 -0.6499  0.5117
  122MOL0     H16432  11.310   0.696   7.650  0.3912  0.4928 -0.0837
  122MOL0     H16433  11.560   0.764   7.703  0.9868  1.8391  2.4710
  122MOL0     H16434  11.740   0.568   7.703  1.1718  0.7247 -1.2682
  122MOL0     H16435  11.774   0.740   7.695 -2.6167  0.0582  0.6335
  122MOL0     H16436  11.928   0.524   7.846  0.8843 -0.5785 -0.0411
  122MOL0     H16437  11.989   0.587   7.705  1.6779  1.0848  1.7681
  122MOL0     H16438  12.016   0.803   7.767 -0.4347 -0.3923 -0.2587
  122MOL0     H16439  11.941   0.764   7.940  0.3345 -0.3847  0.7186
  122MOL0     H16440  12.197   0.656   7.817  0.2593  0.5026  0.9620
  122MOL0     H16441  12.114   0.601   7.964  0.1735 -0.0263 -0.9934
  122MOL0     H16442  12.270   0.748   8.072 -0.4304  0.5428  0.3910
  122MOL0     H16443  12.154   0.869   8.024  2.7158 -0.1097  2.6606
  122MOL0     H16444  12.409   0.784   7.872  0.6558  1.1406  1.4154
  122MOL0     H16445  12.266   0.866   7.794 -1.9347  1.0431  1.0894
  122MOL0     H16446  12.417   0.965   8.035  0.6646  2.3184 -0.0859
  122MOL0     H16447  12.285   1.048   7.944 -2.8790 -1.6657 -0.7296
  122MOL0     H16448  12.555   1.095   7.884  0.4368  0.2772 -1.3228
  122MOL0     H16449  12.554   0.943   7.809 -0.2870  0.0454 -0.5000
  122MOL0     H16450  11.565   0.482   8.018  0.7307 -1.5054 -1.2336
  122MOL0     H16451  11.334   0.433   7.982 -0.2986 -0.4359  0.3327
  122MOL0     H16452  10.895   0.621   8.095 -1.9090 -0.2563  1.0255
  122MOL0     H16453  10.687   0.537   8.107  2.1686 -0.1475  2.2119
  122MOL0     H16454   9.577   0.291   8.721 -0.4053 -1.9436 -1.3353
  122MOL0     H16455   9.372   0.252   8.837  0.5793 -0.3675 -0.6454
  122MOL0     H16456   8.943   0.450   8.920 -2.5886  0.2441 -1.0078
  122MOL0     H16457   8.786   0.444   9.103  2.7681 -0.1145  0.3786
  122MOL0     H16458   8.583   0.390   9.224  0.2747 -0.7594 -1.4832
  122MOL0     H16459   8.727   0.380   9.330  1.3202 -0.8666 -0.2346
  122MOL0     H16460   8.631   0.220   9.469 -0.7081  0.1452  1.3606
  122MOL0     H16461   8.475   0.223   9.393  0.7548 -0.9031  0.3916
  122MOL0     H16462   8.498   0.483   9.445 -0.7387  0.5217  1.1852
  122MOL0     H16463   8.639   0.433   9.538 -0.6467  1.0536  0.1583
  122MOL0     H16464   8.389   0.449   9.659 -3.7390 -1.4366 -0.3092
  122MOL0     H16465   8.363   0.300   9.577 -0.9447  2.4534 -0.8240
  122MOL0     H16466   8.613   0.214   9.920  0.5218  0.1290 -0.2527
  122MOL0     H16467   8.823   0.019   9.131 -1.1375  0.3561  1.5309
  122MOL0     H16468   9.003  -0.040   8.844  2.1418 -0.2724  0.7921
  122MOL0     H16469   9.111  -0.015   8.980  0.9918 -2.3894 -0.7685
  122MOL0     H16470   8.964  -0.115   9.001  0.0868 -2.4734 -2.2938
  123MOL0     O16471   8.842   9.067   9.573 -0.3431 -0.0760 -0.3602
  123MOL0     C16472   8.799   9.044   9.462 -0.2430  0.9777  0.0773
  123MOL0     O16473   8.843   9.101   9.346 -0.6061  0.1539  0.4090
  123MOL0     C16474   8.934   9.207   9.360  0.1702  0.1200 -0.8195
  123MOL0     C16475   8.903   9.335   9.319  0.0293 -0.1358 -0.2258
  123MOL0     C16476   8.996   9.439   9.321 -0.7231  0.3013 -0.2119
  123MOL0     C16477   9.130   9.411   9.376 -0.1245 -0.0090  0.1852
  123MOL0     O16478   9.231   9.506   9.372 -0.1081  0.4769 -0.0515
  123MOL0     C16479   9.227   9.619   9.290  0.3226  0.3394 -0.1581
  123MOL0     C16480   9.366   9.689   9.302 -0.8197  0.4107  0.3845
  123MOL0     C16481   9.389   9.755   9.431 -0.1556  0.4636 -0.4199
  123MOL0     C16482   9.542   9.788   9.436  0.2989 -0.0256  0.0227
  123MOL0     C16483   9.570   9.848   9.575 -0.2531  0.5266  0.1808
  123MOL0     C16484   9.715   9.903   9.577  0.2549  0.2268  0.4021
  123MOL0     C16485   9.773   9.954   9.711  1.1873 -0.1233  0.3266
  123MOL0     C16486   9.686  10.061   9.764 -0.1168  0.7029  0.6608
  123MOL0     N16487   9.758  10.120   9.880 -0.0114  0.0967 -0.2887
  123MOL0     C16488   9.795  10.062  10.000  0.1603  0.5780 -0.1773
  123MOL0     C16489   9.894  10.130  10.052 -1.0717  0.3065  0.0440
  123MOL0     C16490   9.971  10.104  10.185 -0.5492  0.5259 -0.2015
  123MOL0     C16491  10.118  10.073  10.158 -0.6453  0.0173 -0.3634
  123MOL0     C16492  10.140   9.941  10.096 -0.1728 -0.1202 -0.0813
  123MOL0     C16493  10.295   9.915  10.087  0.5883  1.2675 -0.1154
  123MOL0     O16494  10.361   9.943  10.210  0.5698  0.1480 -1.0228
  123MOL0     C16495  10.498   9.934  10.213 -1.1248  0.6498 -0.2491
  123MOL0     C16496  10.562   9.816  10.174  0.7456 -0.3193  0.1322
  123MOL0     C16497  10.702   9.805  10.172 -1.8776 -0.9194 -0.0957
  123MOL0     C16498  10.779   9.905  10.233  0.3501  0.2067  0.3376
  123MOL0     C16499  10.927   9.895  10.254 -0.2858 -0.4143  0.7427
  123MOL0     O16500  10.995   9.987  10.329 -0.0254 -0.2638  0.3003
  123MOL0     C16501  11.128   9.990  10.347 -0.9704  0.8326 -0.7440
  123MOL0     C16502  11.206   9.882  10.357 -0.1934 -0.2594  0.1860
  123MOL0     C16503  11.339   9.899  10.394  0.2588 -0.0391 -0.1804
  123MOL0     C16504  11.398  10.029  10.412 -0.8667  0.2254 -0.2726
  123MOL0     O16505  11.533  10.050  10.450  0.0364 -0.4917 -0.7050
  123MOL0     C16506  11.620   9.944  10.508  0.4854 -0.5313  0.1767
  123MOL0     C16507  11.750  10.002  10.542 -0.1039 -0.4511  0.6447
  123MOL0     C16508  11.864   9.936  10.471 -0.9470  1.0317 -0.9784
  123MOL0     C16509  11.982  10.028  10.482 -0.6988 -0.4411 -0.1408
  123MOL0     C16510  12.086  10.002  10.376  0.0720 -0.7159 -0.2353
  123MOL0     C16511  12.157   9.876  10.403  1.0153 -0.6800  0.6299
  123MOL0     C16512  12.283   9.857  10.325 -0.4954  0.4691  0.1939
  123MOL0     C16513  12.257   9.804  10.181 -0.5941  0.2371  0.8646
  123MOL0    Cl16514  12.191   9.640  10.190 -0.2515 -0.0268 -0.3284
  123MOL0     C16515  11.320  10.134  10.389  0.0986 -0.0843 -0.0269
  123MOL0     C16516  11.183  10.114  10.361 -1.1024 -0.3653 -0.0065
  123MOL0     O16517  10.982   9.799  10.203 -0.4812 -0.5813 -0.4033
  123MOL0     C16518  10.714  10.024  10.280 -0.0567  1.4241 -0.1990
  123MOL0     C16519  10.571  10.031  10.273 -0.7106 -0.1524  0.3688
  123MOL0     N16520   9.923  10.229   9.959 -0.4828 -0.1058 -0.4923
  123MOL0     N16521   9.841  10.221   9.859  0.1032  0.4450 -0.4451
  123MOL0     C16522   9.152   9.292   9.440 -0.2771  0.8206  0.1581
  123MOL0     C16523   9.059   9.190   9.432  0.0808 -0.1595 -0.3777
  123MOL0     C16524   8.702   8.929   9.441 -0.0060  0.4833 -0.2270
  123MOL0     C16525   8.717   8.847   9.327 -0.6837 -0.3473 -1.3173
  123MOL0     C16526   8.639   8.733   9.308  0.4179  0.0711  0.4597
  123MOL0     C16527   8.534   8.700   9.390 -0.3230  0.3737  0.1237
  123MOL0     O16528   8.451   8.596   9.374  0.4651 -0.6458 -0.0319
  123MOL0     C16529   8.460   8.525   9.247 -0.0529 -0.3980  0.2107
  123MOL0     C16530   8.349   8.422   9.238  0.5786 -0.1649 -0.3308
  123MOL0     C16531   8.356   8.318   9.346  0.2723 -0.5122 -0.0778
  123MOL0     C16532   8.236   8.229   9.345 -0.1165  0.1957 -0.5354
  123MOL0     C16533   8.219   8.159   9.467  0.0276  0.3806  0.0387
  123MOL0     C16534   8.216   8.103   9.572  0.3565 -0.5843 -0.2141
  123MOL0     C16535   8.518   8.774   9.504 -1.0432 -0.4505 -0.3702
  123MOL0     C16536   8.604   8.881   9.531  0.3788 -0.5457 -0.2919
  123MOL0     C16537   8.578   8.939   9.670  0.0079  0.4392 -0.2073
  123MOL0     H16538   8.806   9.339   9.270  0.2288  1.1460 -0.5519
  123MOL0     H16539   8.971   9.534   9.275  3.3646  0.2474 -3.0725
  123MOL0     H16540   9.214   9.599   9.184 -0.9986  0.9838 -0.1446
  123MOL0     H16541   9.149   9.688   9.326  0.0430 -0.3619  0.6129
  123MOL0     H16542   9.357   9.763   9.223 -2.0846 -0.7039 -0.5711
  123MOL0     H16543   9.447   9.619   9.278  0.8404  2.4944 -0.2998
  123MOL0     H16544   9.375   9.686   9.514 -1.8928  1.4278  0.1395
  123MOL0     H16545   9.329   9.842   9.462  2.4188  1.4222  2.4436
  123MOL0     H16546   9.604   9.698   9.427 -1.8700 -1.4475 -1.3983
  123MOL0     H16547   9.555   9.855   9.350 -2.6629 -2.5784 -2.6826
  123MOL0     H16548   9.487   9.910   9.610 -1.4692 -2.0337  2.1772
  123MOL0     H16549   9.572   9.766   9.647  2.3146 -0.2619 -0.6905
  123MOL0     H16550   9.782   9.835   9.524  0.2957  3.1665 -3.7320
  123MOL0     H16551   9.706   9.987   9.508  1.2421 -1.3530 -1.7713
  123MOL0     H16552   9.872   9.991   9.683  0.4360  0.4250 -1.8580
  123MOL0     H16553   9.768   9.876   9.787 -2.4675  0.2031  0.5920
  123MOL0     H16554   9.668  10.133   9.684 -0.3408  0.7433  0.7468
  123MOL0     H16555   9.590  10.019   9.794  0.9983 -1.6024  1.1876
  123MOL0     H16556   9.763   9.967  10.042  2.7421 -0.4929 -0.4230
  123MOL0     H16557   9.982  10.196  10.243  0.2697 -0.9846  2.1657
  123MOL0     H16558   9.936  10.019  10.244 -0.7569  0.4443 -0.4372
  123MOL0     H16559  10.162  10.156  10.102  0.9172 -0.5410 -0.0161
  123MOL0     H16560  10.158  10.066  10.259 -0.6409  0.3785 -0.3383
  123MOL0     H16561  10.096   9.948   9.996 -3.5634  3.1314  1.4146
  123MOL0     H16562  10.086   9.861  10.149  0.6024  0.5674  1.8200
  123MOL0     H16563  10.342   9.969  10.004 -0.5771  2.5194  0.0129
  123MOL0     H16564  10.315   9.810  10.061 -2.2718  0.0146  2.1620
  123MOL0     H16565  10.501   9.736  10.132  0.0711 -0.0072  0.5047
  123MOL0     H16566  10.754   9.711  10.159  0.8649  0.6199 -0.9843
  123MOL0     H16567  11.171   9.782  10.337 -0.0987  0.3404 -3.7704
  123MOL0     H16568  11.406   9.818  10.419  0.4568  0.0120 -0.5381
  123MOL0     H16569  11.570   9.902  10.596 -2.2499  2.3460  0.1686
  123MOL0     H16570  11.635   9.865  10.434  0.5753 -0.3028 -0.0517
  123MOL0     H16571  11.743  10.106  10.509  2.5115  0.2630  2.0534
  123MOL0     H16572  11.779  10.007  10.647  0.8852  0.6401  0.3411
  123MOL0     H16573  11.894   9.840  10.512  0.4080  0.8034 -2.4050
  123MOL0     H16574  11.839   9.927  10.364 -2.3111  1.7926 -0.7596
  123MOL0     H16575  12.035  10.016  10.576  0.3576 -3.0918 -0.9727
  123MOL0     H16576  11.953  10.133  10.474 -4.5142 -1.2331  1.2661
  123MOL0     H16577  12.159  10.083  10.390 -2.4800  1.5516  0.9395
  123MOL0     H16578  12.046  10.004  10.274  4.6207  1.5979 -2.2963
  123MOL0     H16579  12.178   9.866  10.510  2.4112  1.0275  0.5456
  123MOL0     H16580  12.090   9.793  10.375 -0.2551  0.8459 -1.1066
  123MOL0     H16581  12.317   9.775  10.388 -1.9338  1.1125  1.9085
  123MOL0     H16582  12.342   9.949  10.330 -2.2655  1.7725 -1.5472
  123MOL0     H16583  12.185   9.859  10.120 -0.3585 -1.2411 -0.8358
  123MOL0     H16584  12.351   9.810  10.126 -0.9896 -0.7394  0.0495
  123MOL0     H16585  11.362  10.234  10.394  2.6663 -1.0960 -0.2194
  123MOL0     H16586  11.122  10.203  10.352 -0.4353  0.1571  0.5033
  123MOL0     H16587  10.775  10.104  10.319  2.0883 -0.9689  1.6381
  123MOL0     H16588  10.519  10.119  10.308  1.1348  1.2299 -0.1497
  123MOL0     H16589   9.240   9.279   9.503  0.1120  0.7543 -0.3891
  123MOL0     H16590   9.073   9.094   9.481 -0.0946 -0.1335 -0.2783
  123MOL0     H16591   8.795   8.865   9.254 -0.6791  0.6032 -1.0920
  123MOL0     H16592   8.652   8.674   9.218  0.5974 -1.2586  1.3396
  123MOL0     H16593   8.560   8.481   9.241  0.7453  1.3986 -0.5109
  123MOL0     H16594   8.458   8.584   9.155  1.4490  1.1980  1.1497
  123MOL0     H16595   8.347   8.380   9.137  2.3686  1.8197 -1.2502
  123MOL0     H16596   8.254   8.476   9.233  0.9220  0.3306 -2.1539
  123MOL0     H16597   8.361   8.371   9.442 -1.3520  3.2557 -1.8509
  123MOL0     H16598   8.448   8.259   9.333 -0.4381 -1.1427 -2.9576
  123MOL0     H16599   8.139   8.278   9.327  0.0362  0.7696  0.1555
  123MOL0     H16600   8.249   8.152   9.268 -1.7717 -0.1003 -0.5722
  123MOL0     H16601   8.219   8.054   9.667 -0.8885  0.9401  0.6568
  123MOL0     H16602   8.444   8.737   9.574  0.6235 -2.7964  0.2612
  123MOL0     H16603   8.485   8.905   9.718  1.6854 -2.5132  1.1905
  123MOL0     H16604   8.652   8.911   9.745  1.0771 -3.4314 -2.4562
  123MOL0     H16605   8.574   9.048   9.674 -0.3226  0.4197  0.2410
  124MOL0     O16606   1.135   0.221   6.049  0.1749  0.6830 -0.7517
  124MOL0     C16607   1.111   0.154   6.148 -0.3823  0.1371 -0.0331
  124MOL0     O16608   1.205   0.113   6.235  0.0973  0.3959 -0.3836
  124MOL0     C16609   1.335   0.129   6.196 -0.6397  0.2350 -0.2238
  124MOL0     C16610   1.398   0.251   6.196  0.3981 -0.4572 -0.8028
  124MOL0     C16611   1.533   0.264   6.153  0.2808  0.1404  0.3980
  124MOL0     C16612   1.604   0.162   6.096 -0.7452 -0.0418  0.0529
  124MOL0     O16613   1.737   0.192   6.061  0.1236  0.4309 -1.1176
  124MOL0     C16614   1.791   0.126   5.946 -0.1312  0.2778  0.3003
  124MOL0     C16615   1.891   0.208   5.880 -0.0177 -0.4564 -0.5943
  124MOL0     C16616   1.964   0.136   5.760 -0.7533  0.8492 -0.1717
  124MOL0     C16617   2.069   0.237   5.706  0.0300 -0.9624 -0.1724
  124MOL0     C16618   2.142   0.181   5.590  0.0578 -0.3285 -0.2403
  124MOL0     C16619   2.278   0.116   5.637  0.3155 -0.3340 -0.0663
  124MOL0     C16620   2.326   0.039   5.524 -0.8934  0.0823 -0.2752
  124MOL0     C16621   2.457  -0.037   5.552 -1.3157  0.4541 -0.6115
  124MOL0     N16622   2.576   0.049   5.551  0.3249 -0.0004 -0.9311
  124MOL0     C16623   2.692   0.031   5.627 -0.9726 -0.5065 -0.3462
  124MOL0     C16624   2.767   0.137   5.595  0.3957 -1.0568  0.1748
  124MOL0     C16625   2.896   0.160   5.654 -0.4603  0.5415  0.1650
  124MOL0     C16626   3.012   0.113   5.571  1.1767  1.2415  0.2721
  124MOL0     C16627   3.141   0.196   5.589  0.9639  0.9438 -0.1688
  124MOL0     C16628   3.243   0.137   5.504 -0.3631  0.3542  0.2579
  124MOL0     O16629   3.357   0.221   5.505  1.0339  0.0560  0.2459
  124MOL0     C16630   3.478   0.186   5.454  0.2600 -0.2587 -0.1873
  124MOL0     C16631   3.500   0.061   5.388  0.2273 -0.6546 -0.3035
  124MOL0     C16632   3.630   0.025   5.348  0.3557  1.1036  0.0641
  124MOL0     C16633   3.738   0.109   5.371 -0.2317  0.5537 -0.3272
  124MOL0     C16634   3.875   0.068   5.328  0.5014  0.7002 -0.7283
  124MOL0     O16635   3.979   0.142   5.374  0.8382 -0.5198 -0.3586
  124MOL0     C16636   4.098   0.126   5.310  0.4385  1.1619  0.1919
  124MOL0     C16637   4.148   0.206   5.211  0.1958 -0.5609 -0.2005
  124MOL0     C16638   4.278   0.195   5.154  0.6828 -0.4359 -0.2547
  124MOL0     C16639   4.364   0.094   5.199 -0.1204  0.3759 -0.1298
  124MOL0     O16640   4.488   0.063   5.149 -0.3826 -0.5609 -0.7221
  124MOL0     C16641   4.556   0.163   5.079 -0.0021 -0.4540  1.0566
  124MOL0     C16642   4.696   0.100   5.052 -0.5100  0.1360  0.0206
  124MOL0     C16643   4.793   0.204   4.993 -0.6670  0.3368 -0.7395
  124MOL0     C16644   4.940   0.153   4.984  0.4976 -0.2806  0.2118
  124MOL0     C16645   5.015   0.220   4.871 -0.8974 -1.0764 -0.1236
  124MOL0     C16646   5.169   0.187   4.867  0.0187  0.1776  0.0661
  124MOL0     C16647   5.244   0.266   4.757  0.4481 -0.2910 -1.3079
  124MOL0     C16648   5.395   0.253   4.786  0.2351 -0.0440  0.3416
  124MOL0    Cl16649   5.457   0.079   4.789  0.1172 -0.2227 -0.4765
  124MOL0     C16650   4.321   0.001   5.288 -0.0602  0.1393 -0.8310
  124MOL0     C16651   4.184   0.014   5.349  0.5216 -0.5663  0.5689
  124MOL0     O16652   3.882  -0.026   5.246 -0.3641  0.4012 -0.1004
  124MOL0     C16653   3.719   0.229   5.442  0.0553  0.0227 -0.2774
  124MOL0     C16654   3.582   0.268   5.479 -0.8811 -0.3084 -0.7764
  124MOL0     N16655   2.706   0.219   5.508  1.0209 -0.0946 -0.5790
  124MOL0     N16656   2.596   0.169   5.479  1.0743 -0.0615  0.4941
  124MOL0     C16657   1.540   0.032   6.091  0.3833 -0.7570 -0.0828
  124MOL0     C16658   1.409   0.015   6.152  0.0262 -0.0560  0.2824
  124MOL0     C16659   0.970   0.149   6.196 -0.4768  0.1268  0.1655
  124MOL0     C16660   0.945   0.112   6.329 -0.8383  0.1923 -0.2803
  124MOL0     C16661   0.812   0.081   6.367  0.8401  0.3060  0.3070
  124MOL0     C16662   0.708   0.090   6.279  0.3163 -0.7013  1.4891
  124MOL0     O16663   0.587   0.054   6.329 -0.0894 -0.2198  0.5131
  124MOL0     C16664   0.469   0.080   6.258  0.6693  0.2003 -0.0012
  124MOL0     C16665   0.347   0.006   6.326  0.3548  0.3774 -0.4023
  124MOL0     C16666   0.352  -0.150   6.324 -0.0486  0.2072  0.2361
  124MOL0     C16667   0.294  -0.195   6.190 -0.0596  0.5102  0.1902
  124MOL0     C16668   0.151  -0.168   6.175  0.4027  0.0965 -0.0461
  124MOL0     C16669   0.030  -0.150   6.189  1.5746 -0.2038 -0.3626
  124MOL0     C16670   0.724   0.147   6.152  0.1641 -0.0348  0.2081
  124MOL0     C16671   0.857   0.169   6.103 -0.2035  1.2468 -0.0698
  124MOL0     C16672   0.873   0.213   5.959  0.4408  1.3528  0.2223
  124MOL0     H16673   1.340   0.334   6.234  0.9710 -1.0533  1.5424
  124MOL0     H16674   1.571   0.366   6.159 -1.1255  0.5887  2.3160
  124MOL0     H16675   1.848   0.036   5.971  1.3836  1.2065  0.3574
  124MOL0     H16676   1.718   0.123   5.864  2.0507  3.3599 -2.0023
  124MOL0     H16677   1.963   0.238   5.956  0.2040  1.0225 -1.3647
  124MOL0     H16678   1.832   0.292   5.843  1.6509  0.3804 -1.4729
  124MOL0     H16679   1.887   0.110   5.688 -2.6667  1.2902  1.6213
  124MOL0     H16680   2.024   0.050   5.792 -0.4052  0.9564 -0.5232
  124MOL0     H16681   2.027   0.334   5.676  3.6972  0.5576 -0.9554
  124MOL0     H16682   2.140   0.267   5.783 -1.0016  0.5159  0.2571
  124MOL0     H16683   2.074   0.115   5.535  0.4667 -1.1579  0.2303
  124MOL0     H16684   2.182   0.261   5.528  3.1056  0.1957  2.1292
  124MOL0     H16685   2.358   0.189   5.653 -1.2289  1.5147 -0.4833
  124MOL0     H16686   2.262   0.059   5.729 -0.8853 -0.3148 -0.2474
  124MOL0     H16687   2.344   0.103   5.437  0.2447  0.2776  0.0849
  124MOL0     H16688   2.247  -0.030   5.491 -1.8513  1.4778 -0.9928
  124MOL0     H16689   2.455  -0.085   5.651  0.0466 -2.6114 -1.9363
  124MOL0     H16690   2.480  -0.114   5.478  1.6942  0.9188 -0.3156
  124MOL0     H16691   2.728  -0.046   5.694  0.4669 -0.6226 -1.2189
  124MOL0     H16692   2.909   0.269   5.653  0.4005  0.4651 -1.9699
  124MOL0     H16693   2.904   0.118   5.754 -1.6408  0.0727  0.0822
  124MOL0     H16694   3.025   0.013   5.613 -1.0378  0.1878 -1.3292
  124MOL0     H16695   2.986   0.093   5.467  1.8297 -1.1084  0.5126
  124MOL0     H16696   3.174   0.193   5.693  0.0719 -2.4899  0.1345
  124MOL0     H16697   3.116   0.300   5.566  1.3041  1.1468  0.3652
  124MOL0     H16698   3.205   0.118   5.403  2.4383 -2.2086 -0.4579
  124MOL0     H16699   3.263   0.037   5.545 -0.7534 -0.6206 -1.8048
  124MOL0     H16700   3.422  -0.015   5.391  2.5539 -3.1773  1.4850
  124MOL0     H16701   3.654  -0.068   5.298 -1.9841  1.1424 -1.2907
  124MOL0     H16702   4.096   0.295   5.176 -0.9887 -2.5052 -3.8669
  124MOL0     H16703   4.302   0.264   5.073  1.0867  1.2286  1.2126
  124MOL0     H16704   4.509   0.184   4.982 -0.4828  0.7357  1.5383
  124MOL0     H16705   4.562   0.255   5.137  1.0936 -1.9041  3.3870
  124MOL0     H16706   4.733   0.069   5.150  0.2137 -0.9024 -0.5546
  124MOL0     H16707   4.690   0.011   4.989  4.2843  0.5222 -1.3944
  124MOL0     H16708   4.758   0.226   4.892  0.1723 -0.9705 -1.3442
  124MOL0     H16709   4.786   0.296   5.053 -0.3485  0.3147 -0.6617
  124MOL0     H16710   4.938   0.045   4.965  1.5598 -0.1842 -0.5546
  124MOL0     H16711   4.989   0.154   5.082 -0.2820 -0.1364  0.6071
  124MOL0     H16712   5.003   0.328   4.879  0.4014 -0.9334  0.1208
  124MOL0     H16713   4.976   0.195   4.772 -1.6170  0.3225 -0.2144
  124MOL0     H16714   5.214   0.196   4.966  1.5619 -0.2661 -0.5671
  124MOL0     H16715   5.177   0.080   4.844  3.0215  0.2687  0.2819
  124MOL0     H16716   5.215   0.371   4.765 -1.4353 -0.8961  1.6718
  124MOL0     H16717   5.222   0.237   4.654  0.7375 -0.4194 -1.3328
  124MOL0     H16718   5.431   0.312   4.701  1.0125 -1.8583 -0.6434
  124MOL0     H16719   5.428   0.302   4.878 -0.4141 -2.4919  1.9709
  124MOL0     H16720   4.386  -0.080   5.320 -1.0953 -0.3670  0.0958
  124MOL0     H16721   4.157  -0.064   5.420  0.2218 -0.4443  0.5882
  124MOL0     H16722   3.802   0.294   5.468 -0.5866  0.9768 -0.5656
  124MOL0     H16723   3.564   0.355   5.540  0.9072 -0.4461  0.0060
  124MOL0     H16724   1.586  -0.057   6.048 -1.5339 -0.9933 -1.7915
  124MOL0     H16725   1.363  -0.084   6.153 -0.1819  0.0418  0.3369
  124MOL0     H16726   1.019   0.139   6.403  2.5176  1.5945 -3.7564
  124MOL0     H16727   0.790   0.053   6.470  2.8525  0.8835  0.9417
  124MOL0     H16728   0.469   0.060   6.151 -0.1100  2.4227 -0.4539
  124MOL0     H16729   0.453   0.187   6.274  3.8490  0.9463 -1.0931
  124MOL0     H16730   0.256   0.046   6.282  1.7982  3.2757 -0.9792
  124MOL0     H16731   0.332   0.034   6.431 -0.4052  0.1129 -0.4326
  124MOL0     H16732   0.288  -0.186   6.406  1.8909 -3.3047  0.4036
  124MOL0     H16733   0.454  -0.184   6.342  0.5818  0.9742 -1.6944
  124MOL0     H16734   0.347  -0.146   6.109  1.2438 -0.8925  0.1524
  124MOL0     H16735   0.304  -0.304   6.189 -0.6283  0.4505 -1.1745
  124MOL0     H16736  -0.076  -0.139   6.198  1.4503  0.4153 -2.0960
  124MOL0     H16737   0.637   0.157   6.087 -1.2088 -0.5867  1.8995
  124MOL0     H16738   0.775   0.211   5.911 -0.4103 -0.4889  1.8668
  124MOL0     H16739   0.914   0.314   5.951  0.6438  1.1535 -1.4731
  124MOL0     H16740   0.949   0.152   5.910 -1.3360  0.0994 -1.0545
  125MOL0     O16741   3.051   6.969   2.669  0.2729 -0.1884  0.7755
  125MOL0     C16742   2.987   7.073   2.665 -0.3152 -0.0158  0.6314
  125MOL0     O16743   3.034   7.191   2.703  0.0630 -0.5217  0.0697
  125MOL0     C16744   3.169   7.218   2.725  0.2098 -0.3304 -0.0049
  125MOL0     C16745   3.220   7.266   2.846 -0.6150 -0.0868 -0.2930
  125MOL0     C16746   3.358   7.304   2.850  0.3840 -0.3553  0.6404
  125MOL0     C16747   3.450   7.270   2.747  0.3247  0.3026 -0.1595
  125MOL0     O16748   3.587   7.279   2.751  0.8978 -0.3635 -0.1430
  125MOL0     C16749   3.651   7.344   2.865 -0.3415 -0.2660 -0.4607
  125MOL0     C16750   3.805   7.335   2.852  0.4715 -1.2436  0.4228
  125MOL0     C16751   3.867   7.420   2.968  0.0125  0.3986 -0.4829
  125MOL0     C16752   4.024   7.399   2.960  0.7448  0.5282  0.0403
  125MOL0     C16753   4.087   7.436   3.091 -0.2953  0.1933  1.5099
  125MOL0     C16754   4.237   7.437   3.102 -0.9825 -0.9555 -0.4041
  125MOL0     C16755   4.295   7.493   3.233  0.6154  0.2174  0.1562
  125MOL0     C16756   4.447   7.471   3.247  0.1698 -0.5534 -0.4054
  125MOL0     N16757   4.490   7.502   3.385 -0.6025  0.1232  0.2218
  125MOL0     C16758   4.480   7.614   3.469  0.3679 -0.3732  0.6747
  125MOL0     C16759   4.545   7.582   3.586  0.3805 -0.2475 -0.0317
  125MOL0     C16760   4.580   7.668   3.703  0.0562  0.5431 -0.5100
  125MOL0     C16761   4.736   7.687   3.701 -0.0101  0.0388  0.5695
  125MOL0     C16762   4.794   7.758   3.828 -0.0027 -0.8624 -0.4497
  125MOL0     C16763   4.945   7.773   3.840 -0.2264  1.0684 -0.3436
  125MOL0     O16764   4.991   7.883   3.769  0.1211  0.0025  0.1689
  125MOL0     C16765   5.127   7.905   3.758  0.1301 -0.2957  1.0404
  125MOL0     C16766   5.167   8.005   3.665  0.3692 -0.6393 -0.6918
  125MOL0     C16767   5.305   8.042   3.648  0.5438  0.3704  0.4075
  125MOL0     C16768   5.407   7.991   3.727 -0.2674 -0.3479 -0.7580
  125MOL0     C16769   5.558   8.011   3.722 -0.4759 -0.3455  0.1194
  125MOL0     O16770   5.650   7.939   3.792 -0.3056 -0.2912 -0.3993
  125MOL0     C16771   5.787   7.951   3.797 -0.1253 -0.4746  0.1760
  125MOL0     C16772   5.868   7.842   3.826  0.4479  0.5153 -0.1370
  125MOL0     C16773   6.005   7.857   3.845 -0.0800 -0.0081  0.0783
  125MOL0     C16774   6.071   7.980   3.819  0.1211  0.5530  0.1588
  125MOL0     O16775   6.206   7.985   3.838  0.3565  0.5268  0.2049
  125MOL0     C16776   6.288   8.001   3.725  0.2779  0.2154 -0.3066
  125MOL0     C16777   6.366   7.872   3.714 -0.8300  0.5960 -0.9921
  125MOL0     C16778   6.451   7.843   3.842 -0.5763 -0.3314  0.8712
  125MOL0     C16779   6.541   7.720   3.809 -0.6746 -0.7032 -0.4477
  125MOL0     C16780   6.464   7.602   3.749 -0.1529  0.2540 -0.3223
  125MOL0     C16781   6.549   7.465   3.754  0.5562 -0.5119  0.1831
  125MOL0     C16782   6.463   7.343   3.768  0.5641 -0.5737  0.3942
  125MOL0     C16783   6.525   7.213   3.828 -0.2271  0.3726  0.6092
  125MOL0    Cl16784   6.675   7.169   3.739  0.2759  0.1858  0.3472
  125MOL0     C16785   5.992   8.087   3.789 -0.4759 -0.1118 -0.1065
  125MOL0     C16786   5.851   8.074   3.779 -0.5524  0.7836 -0.4471
  125MOL0     O16787   5.582   8.098   3.644 -0.1527 -0.0401  0.0715
  125MOL0     C16788   5.358   7.897   3.821 -0.0656 -0.6390  0.3772
  125MOL0     C16789   5.225   7.857   3.831 -0.5551  0.5042  0.2827
  125MOL0     N16790   4.598   7.449   3.563  0.4748 -0.1286  0.2207
  125MOL0     N16791   4.549   7.401   3.454 -0.2618  0.3464 -0.2116
  125MOL0     C16792   3.399   7.212   2.635 -0.0766  0.7789 -0.0044
  125MOL0     C16793   3.260   7.193   2.618  0.2939 -0.2187 -0.5997
  125MOL0     C16794   2.842   7.042   2.638 -0.6772  0.4033 -0.0328
  125MOL0     C16795   2.745   7.105   2.716  0.2795  0.5717  0.2409
  125MOL0     C16796   2.607   7.083   2.702  0.1212 -0.2061 -0.1179
  125MOL0     C16797   2.562   6.988   2.615 -0.1570 -0.2861  0.4314
  125MOL0     O16798   2.429   6.956   2.605 -0.3517 -0.0610 -0.1623
  125MOL0     C16799   2.340   7.039   2.676 -0.2871  1.1750  0.0386
  125MOL0     C16800   2.206   6.999   2.619  0.5108  0.3353 -0.1851
  125MOL0     C16801   2.086   7.078   2.669 -0.4195 -0.1307 -0.3034
  125MOL0     C16802   1.962   7.044   2.596 -0.2511  0.8417  0.0501
  125MOL0     C16803   1.851   7.131   2.637 -0.0536  0.0170 -0.1544
  125MOL0     C16804   1.772   7.206   2.691  0.3138  0.3795 -0.3292
  125MOL0     C16805   2.658   6.919   2.535  0.1149  0.7703 -1.4134
  125MOL0     C16806   2.800   6.934   2.552 -0.0503 -0.3887  0.2934
  125MOL0     C16807   2.885   6.843   2.466  0.2098 -0.6690 -0.6790
  125MOL0     H16808   3.144   7.282   2.922  0.3375  2.8531  0.1562
  125MOL0     H16809   3.401   7.346   2.940  0.8550 -1.7990  1.1146
  125MOL0     H16810   3.614   7.447   2.858 -3.8206 -1.3991 -0.8395
  125MOL0     H16811   3.619   7.293   2.957  1.0528  0.7065  0.6101
  125MOL0     H16812   3.830   7.387   2.759 -1.4729 -0.7087  0.1573
  125MOL0     H16813   3.844   7.234   2.839  2.6391 -0.5837  1.2083
  125MOL0     H16814   3.834   7.385   3.066  2.8119 -1.1503 -0.0073
  125MOL0     H16815   3.841   7.526   2.963 -0.2853  0.3133 -0.8509
  125MOL0     H16816   4.048   7.295   2.937  0.9202  0.1455  1.7612
  125MOL0     H16817   4.059   7.468   2.883  1.5943  1.3288  1.1053
  125MOL0     H16818   4.051   7.539   3.102 -0.7640  0.0926  0.9312
  125MOL0     H16819   4.051   7.385   3.181 -0.2098 -0.6553  1.0645
  125MOL0     H16820   4.269   7.336   3.077  2.1058  0.3525 -2.3739
  125MOL0     H16821   4.275   7.504   3.024 -0.5349 -1.5187 -0.6724
  125MOL0     H16822   4.247   7.442   3.316  1.9145 -1.0776  0.1551
  125MOL0     H16823   4.276   7.600   3.243 -1.8082 -0.1805  0.3846
  125MOL0     H16824   4.464   7.365   3.228  1.9778 -0.9891  2.9470
  125MOL0     H16825   4.503   7.533   3.176  3.8307 -1.4227  1.4401
  125MOL0     H16826   4.433   7.708   3.440 -0.3493 -0.0813  2.6456
  125MOL0     H16827   4.519   7.758   3.694 -2.9117 -1.4205 -1.5062
  125MOL0     H16828   4.552   7.615   3.794  2.7513 -1.1539 -0.5372
  125MOL0     H16829   4.780   7.589   3.688  0.7869  0.3151  1.1205
  125MOL0     H16830   4.761   7.747   3.613  0.7215 -3.1375 -1.5434
  125MOL0     H16831   4.757   7.706   3.917 -0.1619 -1.5611 -0.9145
  125MOL0     H16832   4.755   7.860   3.825  0.8296 -0.5598 -1.9418
  125MOL0     H16833   5.001   7.684   3.811  5.3490  4.1093 -0.3950
  125MOL0     H16834   4.963   7.801   3.944 -1.6099 -1.1298  0.5464
  125MOL0     H16835   5.090   8.049   3.603  1.1424 -2.2519 -2.9308
  125MOL0     H16836   5.322   8.097   3.556  0.1486 -0.1123  0.0344
  125MOL0     H16837   5.818   7.747   3.839  2.7575 -0.6499  0.8922
  125MOL0     H16838   6.067   7.777   3.885  1.1438  1.3158  0.8949
  125MOL0     H16839   6.233   8.032   3.635  0.9974 -0.3778 -0.9543
  125MOL0     H16840   6.357   8.083   3.747 -0.6084  1.8952 -3.2560
  125MOL0     H16841   6.296   7.787   3.712  1.4883 -1.4235 -3.1063
  125MOL0     H16842   6.431   7.879   3.627  2.7473  0.7706  1.4987
  125MOL0     H16843   6.504   7.935   3.866 -0.1212 -0.5244  0.6391
  125MOL0     H16844   6.376   7.816   3.917 -1.2226 -0.0840  0.3262
  125MOL0     H16845   6.574   7.680   3.906 -2.1036 -2.2189 -0.5463
  125MOL0     H16846   6.627   7.750   3.748  0.3913  2.5601  2.2978
  125MOL0     H16847   6.436   7.613   3.644  0.4960  1.3959 -0.3932
  125MOL0     H16848   6.369   7.593   3.803  0.2960 -1.3196  0.2716
  125MOL0     H16849   6.607   7.457   3.662 -1.3327  3.7142 -1.6614
  125MOL0     H16850   6.616   7.468   3.841 -0.9472 -1.8556  1.4472
  125MOL0     H16851   6.424   7.325   3.667  1.4941 -0.3662 -0.0097
  125MOL0     H16852   6.377   7.375   3.828  2.3394  0.8054  2.3332
  125MOL0     H16853   6.546   7.217   3.936  1.2701 -1.6578  0.4648
  125MOL0     H16854   6.451   7.134   3.812  1.0011 -1.0487  1.6204
  125MOL0     H16855   6.036   8.184   3.770 -1.2463  0.3768  0.5390
  125MOL0     H16856   5.795   8.160   3.744  1.5008  1.3237 -2.6386
  125MOL0     H16857   5.429   7.842   3.882 -2.6198 -2.9048  1.4728
  125MOL0     H16858   5.213   7.775   3.901  3.9595 -3.3115 -2.7643
  125MOL0     H16859   3.468   7.177   2.559 -1.2078 -0.3578 -0.5492
  125MOL0     H16860   3.217   7.159   2.524 -0.3207  0.5220 -0.5978
  125MOL0     H16861   2.760   7.192   2.780 -1.6163  2.3368 -1.5643
  125MOL0     H16862   2.533   7.139   2.759 -1.7459  0.6273 -3.1196
  125MOL0     H16863   2.352   7.145   2.655 -1.1527  1.1380 -0.7311
  125MOL0     H16864   2.344   7.004   2.780 -1.5341 -0.2883 -0.3610
  125MOL0     H16865   2.184   6.892   2.632  2.5967 -0.0511  0.6185
  125MOL0     H16866   2.223   7.013   2.512  1.0362  0.3984 -0.0969
  125MOL0     H16867   2.101   7.184   2.644 -1.4426  0.2712  0.6739
  125MOL0     H16868   2.064   7.065   2.776 -0.9244  3.7747  0.2352
  125MOL0     H16869   1.977   7.056   2.488 -0.9246 -0.7374 -0.2322
  125MOL0     H16870   1.942   6.940   2.621  1.7354  0.2826 -0.4665
  125MOL0     H16871   1.708   7.278   2.738  3.9130  2.5022  1.7588
  125MOL0     H16872   2.628   6.844   2.463  0.7316  0.7449 -1.6564
  125MOL0     H16873   2.826   6.775   2.404 -1.0003 -1.8585  1.6416
  125MOL0     H16874   2.953   6.905   2.406 -1.2731  3.3244  1.3821
  125MOL0     H16875   2.951   6.787   2.532  0.2316  0.4453  0.2812
  126MOL0     O16876   5.452   4.051   5.899 -0.2132 -0.2689 -0.2686
  126MOL0     C16877   5.511   3.949   5.878 -0.9895  0.0510 -0.0708
  126MOL0     O16878   5.475   3.826   5.925  0.4778  0.9447 -0.8285
  126MOL0     C16879   5.345   3.802   5.973 -0.7072  0.1333  0.6883
  126MOL0     C16880   5.235   3.846   5.907 -0.2450  0.1997 -0.0947
  126MOL0     C16881   5.108   3.822   5.949 -0.6340  0.4351 -0.9012
  126MOL0     C16882   5.081   3.746   6.065 -0.7289  0.0578  1.0018
  126MOL0     O16883   4.953   3.718   6.112  0.5986 -0.0276 -0.3183
  126MOL0     C16884   4.855   3.678   6.016 -0.7235  0.4416 -0.1764
  126MOL0     C16885   4.903   3.566   5.922 -0.2285  0.2026  0.0917
  126MOL0     C16886   4.780   3.494   5.873  1.0930  0.5025  0.0893
  126MOL0     C16887   4.786   3.414   5.736 -0.0713 -0.6815 -0.8320
  126MOL0     C16888   4.910   3.321   5.734  0.1351  0.6203 -0.5362
  126MOL0     C16889   4.920   3.241   5.598 -0.0240 -0.0343  0.3859
  126MOL0     C16890   5.024   3.130   5.606 -0.4262  0.4992 -0.0377
  126MOL0     C16891   5.172   3.180   5.625  0.0267  0.1459 -0.2820
  126MOL0     N16892   5.250   3.060   5.630 -0.2424  0.5496 -0.2971
  126MOL0     C16893   5.276   2.991   5.742 -0.7366 -0.4793  0.5916
  126MOL0     C16894   5.351   2.887   5.694  0.0866  0.1152 -0.2088
  126MOL0     C16895   5.428   2.791   5.776 -0.3870 -0.1251 -0.3552
  126MOL0     C16896   5.569   2.845   5.801  0.0486 -1.1878  0.2240
  126MOL0     C16897   5.589   2.913   5.933  0.2421  0.2788 -0.4618
  126MOL0     C16898   5.735   2.952   5.969 -0.4862  0.4817 -0.4260
  126MOL0     O16899   5.743   3.018   6.096  0.7304 -0.4986  0.6632
  126MOL0     C16900   5.870   3.063   6.112 -0.4479  0.4141 -0.2969
  126MOL0     C16901   5.906   3.194   6.076 -0.0670 -0.2157 -0.1561
  126MOL0     C16902   6.040   3.233   6.066 -0.5206 -0.1621  0.2769
  126MOL0     C16903   6.143   3.143   6.103  0.5812 -0.2470  0.2831
  126MOL0     C16904   6.283   3.186   6.120  0.0724  0.0823  0.6818
  126MOL0     O16905   6.377   3.103   6.161  0.7414  1.0831  0.6429
  126MOL0     C16906   6.499   3.133   6.215  0.2750  0.0421  0.3552
  126MOL0     C16907   6.593   3.208   6.155 -0.1421  0.1479 -0.4820
  126MOL0     C16908   6.713   3.231   6.219 -0.2294 -0.1700 -0.1569
  126MOL0     C16909   6.744   3.171   6.346  0.1856  0.5212 -0.1112
  126MOL0     O16910   6.846   3.218   6.418  0.5132  0.1032 -0.0340
  126MOL0     C16911   6.948   3.122   6.431  0.1093 -0.3209 -0.1597
  126MOL0     C16912   7.053   3.188   6.506  0.4508 -0.3145  0.1367
  126MOL0     C16913   7.171   3.097   6.512 -0.3720 -0.1406  0.2689
  126MOL0     C16914   7.245   3.091   6.382 -0.1269 -0.0195  0.3716
  126MOL0     C16915   7.379   3.017   6.395  0.5527 -0.3634  0.9457
  126MOL0     C16916   7.452   3.034   6.267 -0.4613 -0.4273  0.5949
  126MOL0     C16917   7.579   2.954   6.269  0.0144 -0.3595  0.2121
  126MOL0     C16918   7.686   3.037   6.336 -0.4871  0.4015  0.0676
  126MOL0    Cl16919   7.850   2.975   6.265  0.2731  0.2875 -0.4790
  126MOL0     C16920   6.649   3.075   6.398 -0.2888 -0.9050 -0.0055
  126MOL0     C16921   6.526   3.059   6.334 -0.3754  0.7260  0.5596
  126MOL0     O16922   6.311   3.304   6.099 -0.5654  0.6353  0.6103
  126MOL0     C16923   6.099   3.023   6.154 -0.3742  0.5616 -0.8547
  126MOL0     C16924   5.968   2.979   6.163 -0.0109 -0.6061  0.1906
  126MOL0     N16925   5.357   2.897   5.554  0.4560  0.0853 -0.8597
  126MOL0     N16926   5.295   2.999   5.515  0.0068  0.0397  0.0231
  126MOL0     C16927   5.193   3.706   6.138  0.1675  0.6576  0.2510
  126MOL0     C16928   5.325   3.739   6.096  0.7528 -0.2112  0.1324
  126MOL0     C16929   5.643   3.959   5.820 -0.2950  0.6987 -0.1493
  126MOL0     C16930   5.747   3.875   5.868  0.7064 -0.0699  0.1800
  126MOL0     C16931   5.873   3.880   5.822 -1.2032 -0.1715  0.3950
  126MOL0     C16932   5.906   3.954   5.709 -0.1610 -0.0469  0.2351
  126MOL0     O16933   6.025   3.951   5.638 -0.2974 -0.2135 -0.4814
  126MOL0     C16934   6.069   3.816   5.623 -0.5651  0.1221 -0.5556
  126MOL0     C16935   6.186   3.781   5.710  0.7833  0.4355 -0.0078
  126MOL0     C16936   6.316   3.821   5.647  0.6204 -0.7281 -0.5761
  126MOL0     C16937   6.422   3.826   5.756 -0.4771 -0.3962  0.2299
  126MOL0     C16938   6.561   3.852   5.703 -0.0769 -0.5105  0.4472
  126MOL0     C16939   6.677   3.851   5.671  0.2271 -0.7104  0.9401
  126MOL0     C16940   5.807   4.038   5.655  0.6287 -0.0868  0.4332
  126MOL0     C16941   5.679   4.049   5.716  0.9123 -0.4930  0.1930
  126MOL0     C16942   5.575   4.148   5.655 -0.4146 -0.7124 -1.0207
  126MOL0     H16943   5.247   3.895   5.811 -1.7797  0.8532  0.0149
  126MOL0     H16944   5.036   3.857   5.877  0.7527 -0.9906 -3.1076
  126MOL0     H16945   4.769   3.655   6.080 -1.9984 -0.1287 -2.0408
  126MOL0     H16946   4.823   3.763   5.955 -1.1247  0.2198 -0.2743
  126MOL0     H16947   4.976   3.509   5.980 -0.4587  0.9724  1.1683
  126MOL0     H16948   4.942   3.625   5.839 -3.2186 -0.6276 -2.0824
  126MOL0     H16949   4.706   3.573   5.858 -1.2328 -0.4942  4.6824
  126MOL0     H16950   4.731   3.426   5.944 -2.0012  0.1225 -2.2069
  126MOL0     H16951   4.691   3.366   5.710 -1.0637  1.2365 -0.9310
  126MOL0     H16952   4.797   3.487   5.656 -2.3983 -3.5621 -4.0708
  126MOL0     H16953   5.003   3.368   5.766  1.7270 -1.3579 -1.9850
  126MOL0     H16954   4.901   3.249   5.816 -2.1887 -0.2073 -1.4268
  126MOL0     H16955   4.829   3.195   5.559  1.9913 -2.6050 -1.6463
  126MOL0     H16956   4.953   3.302   5.514  0.8655 -1.5528 -0.4017
  126MOL0     H16957   5.013   3.097   5.502  0.1547 -0.5816  0.2252
  126MOL0     H16958   4.988   3.064   5.686 -1.0874  1.4061  0.4384
  126MOL0     H16959   5.204   3.235   5.535  1.1458  1.3165  0.7890
  126MOL0     H16960   5.192   3.241   5.713  0.0117  1.0214 -0.8658
  126MOL0     H16961   5.261   3.026   5.843 -0.5805  1.1794  0.0583
  126MOL0     H16962   5.379   2.765   5.870 -0.6206 -0.6435 -0.6150
  126MOL0     H16963   5.442   2.700   5.716 -0.7256  1.4659 -2.9910
  126MOL0     H16964   5.644   2.765   5.804 -0.3612 -1.5761  0.3462
  126MOL0     H16965   5.595   2.903   5.712  1.2381 -0.1330  1.2279
  126MOL0     H16966   5.554   2.838   6.004  2.1493 -1.3969 -1.1989
  126MOL0     H16967   5.520   2.998   5.929 -3.0570 -2.1884  0.3228
  126MOL0     H16968   5.777   3.002   5.882 -1.2129  1.2138 -0.3648
  126MOL0     H16969   5.791   2.858   5.977  1.8191  1.8852  1.1432
  126MOL0     H16970   5.823   3.257   6.045 -1.5881 -1.5714  0.9919
  126MOL0     H16971   6.060   3.327   6.017 -0.7959  0.0401  0.5507
  126MOL0     H16972   6.573   3.248   6.056  0.6571  0.1167 -0.6676
  126MOL0     H16973   6.786   3.293   6.167 -1.6030  0.5812 -1.2786
  126MOL0     H16974   6.908   3.036   6.485 -2.6763  0.1947 -1.2285
  126MOL0     H16975   6.992   3.086   6.338  0.0984  0.4438 -0.4738
  126MOL0     H16976   7.080   3.285   6.464 -1.2170 -1.0502 -2.9836
  126MOL0     H16977   7.004   3.198   6.603  0.0881  0.9976 -0.1625
  126MOL0     H16978   7.231   3.141   6.592 -1.8074  1.2532  0.6279
  126MOL0     H16979   7.130   3.003   6.550 -1.5400  0.1900 -0.1294
  126MOL0     H16980   7.256   3.195   6.352  1.1988 -0.7266 -1.8428
  126MOL0     H16981   7.182   3.044   6.305 -1.6253  1.4115  0.6771
  126MOL0     H16982   7.366   2.910   6.419  1.1025 -0.9370 -1.1393
  126MOL0     H16983   7.441   3.058   6.476 -0.8024 -2.1749  3.0382
  126MOL0     H16984   7.383   3.003   6.188 -1.9379  2.5698  0.5770
  126MOL0     H16985   7.485   3.135   6.242  1.6143 -0.5923  2.3696
  126MOL0     H16986   7.616   2.941   6.167  0.1886 -0.5723  0.3010
  126MOL0     H16987   7.575   2.855   6.317  2.2711 -1.1245 -1.0220
  126MOL0     H16988   7.675   3.144   6.315  1.6644  0.4254 -1.2217
  126MOL0     H16989   7.694   3.019   6.444  0.6992  0.5641  0.0271
  126MOL0     H16990   6.676   3.026   6.491  0.3920  2.0329  1.4585
  126MOL0     H16991   6.458   2.980   6.363  2.2608 -1.8770  0.1767
  126MOL0     H16992   6.166   2.946   6.191 -0.6933  1.6457  2.2305
  126MOL0     H16993   5.940   2.878   6.193 -0.9860 -1.1984 -2.4649
  126MOL0     H16994   5.175   3.648   6.228 -2.0626  0.8670  0.0096
  126MOL0     H16995   5.407   3.713   6.162  0.7578 -1.7876 -0.4529
  126MOL0     H16996   5.726   3.806   5.949  0.5972  0.7072  0.8297
  126MOL0     H16997   5.950   3.816   5.866 -0.0563  2.0652  1.8491
  126MOL0     H16998   6.118   3.809   5.525  0.7534  2.7570 -0.1830
  126MOL0     H16999   5.992   3.741   5.639 -1.5022  1.0874 -0.3949
  126MOL0     H17000   6.176   3.673   5.723  0.0239  0.3295 -1.2236
  126MOL0     H17001   6.161   3.828   5.806 -2.4389 -2.0747  0.5449
  126MOL0     H17002   6.315   3.921   5.601  1.2817 -1.4621 -2.2614
  126MOL0     H17003   6.353   3.747   5.575  3.3161  0.3919 -0.4749
  126MOL0     H17004   6.399   3.896   5.837  0.0891  0.2398 -0.1474
  126MOL0     H17005   6.424   3.724   5.795  2.4967 -0.1901  0.8273
  126MOL0     H17006   6.779   3.852   5.639 -0.0871  1.3154 -0.2099
  126MOL0     H17007   5.841   4.098   5.571 -0.8472 -1.3567 -1.1763
  126MOL0     H17008   5.629   4.207   5.581  0.1106 -2.2663 -1.9230
  126MOL0     H17009   5.494   4.090   5.611 -0.8923 -0.4431 -0.5233
  126MOL0     H17010   5.534   4.218   5.729  0.0844 -0.7591 -0.7026
  127MOL0     O17011   5.236   4.773  10.191  0.4684  0.3071  0.5903
  127MOL0     C17012   5.261   4.874  10.252  0.3838  0.2007 -1.2169
  127MOL0     O17013   5.179   4.938  10.338 -0.1929 -1.1596  0.0895
  127MOL0     C17014   5.075   4.868  10.400  0.3753 -0.5559 -0.6234
  127MOL0     C17015   5.095   4.807  10.527  0.3968 -0.2741 -0.9069
  127MOL0     C17016   4.992   4.730  10.590 -0.5100  0.1429  0.0045
  127MOL0     C17017   4.868   4.721  10.518 -0.4788  0.2526 -0.5820
  127MOL0     O17018   4.760   4.649  10.552  0.5281  0.7398  0.4185
  127MOL0     C17019   4.765   4.566  10.670 -0.7045 -0.4909 -0.4538
  127MOL0     C17020   4.633   4.508  10.705  0.1918  0.1252  0.5121
  127MOL0     C17021   4.631   4.395  10.811  0.1091  0.1675 -0.4248
  127MOL0     C17022   4.512   4.305  10.815  0.5869  0.5385  0.1106
  127MOL0     C17023   4.518   4.216  10.937 -0.1172  0.5606 -0.2900
  127MOL0     C17024   4.385   4.132  10.927 -0.7853  0.3272  0.2132
  127MOL0     C17025   4.360   4.062  11.067  0.6334  0.6536 -0.0708
  127MOL0     C17026   4.230   3.983  11.076 -0.1848 -0.6148  0.2578
  127MOL0     N17027   4.202   3.937  11.209  0.2866  0.0488  0.3915
  127MOL0     C17028   4.288   3.850  11.276  0.4421 -0.1034  0.5476
  127MOL0     C17029   4.247   3.865  11.403  0.3897 -0.2988  0.2399
  127MOL0     C17030   4.312   3.799  11.526  0.4316  0.1236  0.5834
  127MOL0     C17031   4.456   3.843  11.552 -0.1044  0.1058  0.0039
  127MOL0     C17032   4.480   3.994  11.586 -0.5507  0.0899  0.4221
  127MOL0     C17033   4.483   4.081  11.464 -0.0640 -0.7838  0.2518
  127MOL0     O17034   4.594   4.042  11.386 -0.2697  0.6837 -0.6507
  127MOL0     C17035   4.665   4.128  11.311 -1.0214  0.3956  0.3934
  127MOL0     C17036   4.771   4.068  11.226  0.5002 -0.5828  0.7222
  127MOL0     C17037   4.859   4.153  11.145  0.0768  0.1631  0.8950
  127MOL0     C17038   4.846   4.291  11.149 -0.0925 -0.1265  0.0155
  127MOL0     C17039   4.930   4.371  11.048 -0.0238  0.1689 -1.4238
  127MOL0     O17040   5.039   4.302  11.006 -0.7434  0.7250 -0.4770
  127MOL0     C17041   5.114   4.358  10.907  0.2521  0.2097 -0.3789
  127MOL0     C17042   5.134   4.303  10.783  0.3581 -0.1541  0.8679
  127MOL0     C17043   5.225   4.357  10.694 -0.0483 -0.6150  0.1123
  127MOL0     C17044   5.298   4.471  10.724  0.0381 -1.1703 -0.4577
  127MOL0     O17045   5.385   4.519  10.629  0.6070 -0.0562 -0.4234
  127MOL0     C17046   5.452   4.639  10.660  0.4563 -0.5867  0.0428
  127MOL0     C17047   5.539   4.681  10.540 -0.9348 -0.0744  0.8574
  127MOL0     C17048   5.563   4.834  10.538  1.0709 -0.7323  0.2959
  127MOL0     C17049   5.679   4.885  10.615  0.5404  0.2904  0.6057
  127MOL0     C17050   5.692   5.037  10.623 -0.5187  0.0867 -0.7550
  127MOL0     C17051   5.816   5.070  10.702 -0.0812  0.0887  0.8012
  127MOL0     C17052   5.808   5.011  10.840  0.5950  0.1117 -0.5521
  127MOL0     C17053   5.914   5.084  10.933 -0.5594  0.1191 -0.5516
  127MOL0    Cl17054   6.070   5.018  10.876  0.1578 -0.0298 -0.0670
  127MOL0     C17055   5.278   4.532  10.854 -0.4042  0.1522 -0.0239
  127MOL0     C17056   5.185   4.476  10.942 -0.2623 -0.0950 -0.4089
  127MOL0     O17057   4.891   4.484  11.013  0.5785 -0.1058 -0.2388
  127MOL0     C17058   4.735   4.348  11.217 -0.8665  0.6706  0.4261
  127MOL0     C17059   4.646   4.265  11.292 -0.5649 -0.3039  0.3889
  127MOL0     N17060   4.132   3.940  11.402  0.5316  0.1171  0.2044
  127MOL0     N17061   4.099   3.978  11.283 -0.3960 -0.0279 -0.0138
  127MOL0     C17062   4.847   4.790  10.400 -0.4969  0.4677 -0.8705
  127MOL0     C17063   4.954   4.850  10.332  0.0597 -0.4650  0.3440
  127MOL0     C17064   5.379   4.953  10.223  0.2837  0.6262 -0.2185
  127MOL0     C17065   5.381   5.094  10.258 -0.9709  1.0969  0.2230
  127MOL0     C17066   5.482   5.178  10.224 -0.5264 -0.3097 -0.0998
  127MOL0     C17067   5.596   5.133  10.158  0.1459 -0.7761 -0.0768
  127MOL0     O17068   5.694   5.220  10.125 -0.0024  0.7747 -0.8802
  127MOL0     C17069   5.820   5.169  10.067  1.4820  0.1710  0.1382
  127MOL0     C17070   5.927   5.280  10.057  0.0227 -1.0046  0.3014
  127MOL0     C17071   6.052   5.215   9.996 -0.1410 -0.0516  0.2976
  127MOL0     C17072   6.170   5.314  10.006 -0.3334  0.2705  0.5009
  127MOL0     C17073   6.290   5.236  10.006  0.0614  0.7346  1.3710
  127MOL0     C17074   6.382   5.157  10.017 -0.3269 -0.8253 -0.3545
  127MOL0     C17075   5.605   4.995  10.139 -0.6445 -0.6838  0.5823
  127MOL0     C17076   5.504   4.907  10.172 -0.1959 -0.0561  0.3410
  127MOL0     C17077   5.533   4.765  10.123  0.4106  0.1958 -0.4867
  127MOL0     H17078   5.193   4.818  10.573 -1.0190  1.9090  1.9440
  127MOL0     H17079   5.021   4.678  10.681  3.4885 -0.4872 -1.4062
  127MOL0     H17080   4.842   4.492  10.645 -0.7554  0.2207 -3.0403
  127MOL0     H17081   4.809   4.617  10.756 -0.0649 -1.6258 -0.0977
  127MOL0     H17082   4.586   4.467  10.614 -1.4549  2.4295  0.2297
  127MOL0     H17083   4.579   4.599  10.734  1.1757  0.5322  1.1143
  127MOL0     H17084   4.630   4.450  10.905 -2.8915 -0.1816 -0.1756
  127MOL0     H17085   4.718   4.331  10.796 -0.1752  0.2278 -2.6677
  127MOL0     H17086   4.424   4.368  10.833 -0.1953 -1.2180  3.3513
  127MOL0     H17087   4.498   4.240  10.728  1.9432 -3.2956  2.5120
  127MOL0     H17088   4.611   4.158  10.938 -0.2510  0.1418 -3.4973
  127MOL0     H17089   4.513   4.263  11.036 -1.7224 -2.2350  1.0812
  127MOL0     H17090   4.299   4.197  10.907  2.6630  5.0688 -0.6337
  127MOL0     H17091   4.405   4.052  10.855  0.2290 -0.8539  1.7524
  127MOL0     H17092   4.360   4.138  11.145  0.3998 -1.8013  2.4639
  127MOL0     H17093   4.438   3.988  11.084 -0.3284 -0.2598  0.4737
  127MOL0     H17094   4.149   4.046  11.039  1.5378  2.4626  1.3519
  127MOL0     H17095   4.247   3.900  11.006 -0.3355  0.7895 -1.5296
  127MOL0     H17096   4.377   3.799  11.241 -0.8703 -2.7167  0.8137
  127MOL0     H17097   4.257   3.818  11.618 -0.6603  0.7106 -0.1721
  127MOL0     H17098   4.305   3.691  11.509 -0.6017  0.1811  0.5974
  127MOL0     H17099   4.492   3.781  11.635  1.8313 -0.3026 -1.0738
  127MOL0     H17100   4.517   3.823  11.463 -3.2955  2.1596 -2.8899
  127MOL0     H17101   4.580   4.001  11.632 -1.2694  1.5532  1.9054
  127MOL0     H17102   4.398   4.032  11.648 -1.1195  0.7029 -0.6892
  127MOL0     H17103   4.490   4.186  11.493 -0.6343 -0.8529  0.6701
  127MOL0     H17104   4.401   4.071  11.392  0.3181 -2.3190 -0.0046
  127MOL0     H17105   4.780   3.961  11.241 -0.0150 -0.6337  0.6959
  127MOL0     H17106   4.938   4.106  11.087 -0.7691  0.0463 -0.1992
  127MOL0     H17107   5.084   4.209  10.761 -2.4299  0.9337  2.0317
  127MOL0     H17108   5.248   4.318  10.596 -2.4397  1.8489 -1.5896
  127MOL0     H17109   5.379   4.717  10.682 -1.7300 -2.1797 -1.2420
  127MOL0     H17110   5.521   4.630  10.745  1.6239  0.6856 -0.7265
  127MOL0     H17111   5.635   4.630  10.546 -1.0131 -0.0744  4.2073
  127MOL0     H17112   5.479   4.658  10.451 -2.4904  1.0748  1.5649
  127MOL0     H17113   5.569   4.874  10.436 -2.0647  1.8760  0.9397
  127MOL0     H17114   5.478   4.887  10.583  1.3775 -1.0189  1.2282
  127MOL0     H17115   5.765   4.858  10.552 -0.4155  0.3470 -0.7593
  127MOL0     H17116   5.685   4.843  10.715  1.8020  1.6563  1.1596
  127MOL0     H17117   5.606   5.081  10.674  0.1380  0.5631 -0.0360
  127MOL0     H17118   5.702   5.082  10.523  3.2833 -1.2079 -1.1256
  127MOL0     H17119   5.897   5.029  10.641 -0.3561  0.9171 -0.1297
  127MOL0     H17120   5.828   5.179  10.706  0.8417  0.0115  0.4685
  127MOL0     H17121   5.842   4.908  10.853 -0.0943 -0.0562 -0.0152
  127MOL0     H17122   5.708   5.025  10.881  2.2107 -0.1886  4.1357
  127MOL0     H17123   5.912   5.193  10.941  0.1175  0.1331 -0.5129
  127MOL0     H17124   5.890   5.045  11.032  1.4364 -0.8769 -0.4022
  127MOL0     H17125   5.331   4.624  10.875 -1.8691  0.7474  1.2981
  127MOL0     H17126   5.164   4.516  11.041  0.2341 -1.1423  0.1395
  127MOL0     H17127   4.721   4.456  11.218 -0.5496  0.7124  0.3090
  127MOL0     H17128   4.573   4.316  11.354 -0.0444 -0.8866  1.4856
  127MOL0     H17129   4.749   4.773  10.355 -1.7666  0.0026  1.8531
  127MOL0     H17130   4.943   4.892  10.233 -0.2070 -0.4593  0.3755
  127MOL0     H17131   5.291   5.139  10.298 -3.6984 -2.0670 -1.7495
  127MOL0     H17132   5.471   5.281  10.254 -0.1777 -0.1635 -0.4714
  127MOL0     H17133   5.807   5.139   9.963 -1.7453 -1.1983  0.8222
  127MOL0     H17134   5.845   5.080  10.125 -0.0508  0.0294  0.6230
  127MOL0     H17135   5.952   5.307  10.160  1.1837  4.8883 -1.2091
  127MOL0     H17136   5.887   5.363   9.999 -0.0287 -3.0814 -2.8645
  127MOL0     H17137   6.041   5.183   9.892  0.1262 -2.5300  0.9659
  127MOL0     H17138   6.071   5.123  10.051 -2.7988  1.3255  3.8812
  127MOL0     H17139   6.168   5.391   9.928  2.0595 -1.6566 -1.6625
  127MOL0     H17140   6.178   5.356  10.106  2.1617  0.1407  0.4153
  127MOL0     H17141   6.470   5.099   9.998  1.6001  1.5265  0.8714
  127MOL0     H17142   5.694   4.965  10.085  0.9776  2.8732  0.9999
  127MOL0     H17143   5.540   4.720  10.222  1.9480  0.7620 -0.3142
  127MOL0     H17144   5.447   4.725  10.067 -0.2332 -0.3721  0.8649
  127MOL0     H17145   5.628   4.745  10.073  0.7262  1.4999 -0.4408
  128MOL0     O17146   8.240  11.109   2.954 -0.3513 -0.1053  0.4565
  128MOL0     C17147   8.150  11.167   2.895 -0.6196 -0.6872 -0.4132
  128MOL0     O17148   8.173  11.275   2.821  0.2103 -0.9913  0.5298
  128MOL0     C17149   8.306  11.328   2.816  0.1257 -0.3249 -0.7358
  128MOL0     C17150   8.418  11.262   2.761 -0.0466  0.6904  0.6032
  128MOL0     C17151   8.550  11.314   2.794 -0.0249 -0.3660 -0.8397
  128MOL0     C17152   8.572  11.437   2.855  0.2760 -0.4931 -0.3811
  128MOL0     O17153   8.694  11.489   2.899 -0.8153  0.0947  0.3504
  128MOL0     C17154   8.787  11.392   2.959  0.2397  0.3273  0.4251
  128MOL0     C17155   8.921  11.456   2.957  0.1726 -1.0345 -0.5906
  128MOL0     C17156   9.039  11.371   2.989  0.9250 -0.1087 -0.1441
  128MOL0     C17157   9.162  11.450   3.039  0.0934  1.2802  0.2052
  128MOL0     C17158   9.281  11.357   3.042  0.0547 -0.6229  0.5986
  128MOL0     C17159   9.406  11.423   3.102  0.6170 -0.3541  0.7287
  128MOL0     C17160   9.533  11.331   3.120 -0.0852 -0.2840 -0.5361
  128MOL0     C17161   9.539  11.282   3.261 -0.2891 -0.3658  0.1314
  128MOL0     N17162   9.683  11.254   3.288  0.2422  0.2432 -1.3602
  128MOL0     C17163   9.765  11.347   3.346  1.0488  0.0146 -0.1444
  128MOL0     C17164   9.874  11.270   3.376 -0.7558  0.9279  0.0879
  128MOL0     C17165   9.990  11.319   3.457 -0.4698 -0.2168  0.3851
  128MOL0     C17166  10.109  11.368   3.367  0.6271 -0.4596  0.1304
  128MOL0     C17167  10.204  11.438   3.467 -1.0124  0.6612  0.5330
  128MOL0     C17168  10.336  11.479   3.405  1.1990 -0.3524 -0.4478
  128MOL0     O17169  10.414  11.355   3.394  0.6319 -0.3191  0.2658
  128MOL0     C17170  10.544  11.360   3.350 -0.0970  0.1673  0.1535
  128MOL0     C17171  10.622  11.474   3.311 -0.9062 -0.7193  0.0728
  128MOL0     C17172  10.762  11.461   3.283  0.2999 -0.4360  0.4138
  128MOL0     C17173  10.824  11.336   3.295 -1.0311 -0.1663 -0.9541
  128MOL0     C17174  10.956  11.314   3.243 -0.1144  0.7223 -0.0965
  128MOL0     O17175  11.013  11.423   3.183 -1.0490  0.0608 -0.2561
  128MOL0     C17176  11.148  11.440   3.178 -0.5102  0.3687 -0.0731
  128MOL0     C17177  11.243  11.341   3.146 -0.3523  0.5740  0.1368
  128MOL0     C17178  11.387  11.369   3.156  0.2449  1.1278  0.0689
  128MOL0     C17179  11.437  11.485   3.201  0.9018 -0.4970 -0.4363
  128MOL0     O17180  11.565  11.515   3.219  0.3247 -0.5453 -0.4799
  128MOL0     C17181  11.667  11.426   3.163  0.3595 -0.9677 -0.5798
  128MOL0     C17182  11.802  11.496   3.170  0.9095  0.4191 -0.1686
  128MOL0     C17183  11.859  11.483   3.310  0.1837  0.6165 -0.9744
  128MOL0     C17184  11.976  11.589   3.317  0.5691  0.1612  0.4342
  128MOL0     C17185  12.016  11.612   3.464 -0.9244 -0.8023  0.2055
  128MOL0     C17186  12.140  11.702   3.483 -0.5424  0.1366 -0.0958
  128MOL0     C17187  12.125  11.848   3.452  1.0256 -0.9120 -0.2106
  128MOL0     C17188  12.176  11.894   3.316 -0.1115  0.7132  0.4971
  128MOL0    Cl17189  12.351  11.881   3.300  0.0874  0.2978  0.2320
  128MOL0     C17190  11.338  11.578   3.253  0.3727  0.2314 -0.1101
  128MOL0     C17191  11.200  11.556   3.239  0.3517  0.0557 -0.7079
  128MOL0     O17192  11.011  11.197   3.254  0.4481  0.1272  0.6934
  128MOL0     C17193  10.750  11.226   3.340  0.5593  0.6937  0.0335
  128MOL0     C17194  10.613  11.241   3.366 -1.0455  0.2682  0.5143
  128MOL0     N17195   9.860  11.144   3.326 -0.4031 -0.0673 -0.3869
  128MOL0     N17196   9.745  11.129   3.278  0.4138 -0.4336 -0.2546
  128MOL0     C17197   8.456  11.504   2.897  0.1801  0.4500 -0.6201
  128MOL0     C17198   8.331  11.453   2.882  0.4177 -0.0031 -0.7246
  128MOL0     C17199   8.011  11.131   2.920 -0.2093 -0.9656  1.0157
  128MOL0     C17200   7.912  11.202   2.853  0.1087  0.7781  0.6693
  128MOL0     C17201   7.781  11.174   2.858  0.8913  0.4780  0.2393
  128MOL0     C17202   7.739  11.058   2.928  0.8221 -0.2194 -0.2614
  128MOL0     O17203   7.603  11.035   2.926 -0.1763  0.1397 -0.0482
  128MOL0     C17204   7.558  10.923   3.003 -0.1112  0.7226  0.5852
  128MOL0     C17205   7.408  10.920   2.984  0.6798 -1.2709  0.5214
  128MOL0     C17206   7.347  10.810   3.076 -1.5237 -0.1123 -0.1584
  128MOL0     C17207   7.191  10.804   3.068 -0.5100 -0.5035 -0.1402
  128MOL0     C17208   7.122  10.922   3.119 -0.3004  0.4685  0.4571
  128MOL0     C17209   7.065  11.019   3.161 -0.8168  0.2468 -0.0653
  128MOL0     C17210   7.833  10.983   2.995  0.2207 -0.3381 -0.1776
  128MOL0     C17211   7.972  11.017   2.992 -0.0870  0.6081 -0.0481
  128MOL0     C17212   8.063  10.918   3.066 -0.1740 -0.2248 -0.0444
  128MOL0     H17213   8.409  11.161   2.723  1.5013 -0.2321  2.4943
  128MOL0     H17214   8.632  11.249   2.764 -0.3260 -0.1123 -2.3276
  128MOL0     H17215   8.751  11.384   3.062 -1.6705  1.4915 -0.0893
  128MOL0     H17216   8.794  11.289   2.923  0.7574 -0.0933  1.7067
  128MOL0     H17217   8.917  11.532   3.035 -0.5022 -0.8955 -0.7520
  128MOL0     H17218   8.928  11.508   2.861 -3.1339  0.6714 -0.0562
  128MOL0     H17219   9.059  11.302   2.907  3.0106 -0.1038  0.2933
  128MOL0     H17220   9.008  11.307   3.072  0.2491  2.2456  1.5279
  128MOL0     H17221   9.181  11.536   2.975  1.1850 -1.0878 -2.9081
  128MOL0     H17222   9.134  11.480   3.140 -0.0366 -3.0203  1.6624
  128MOL0     H17223   9.253  11.273   3.106  1.6754 -0.7758  1.1655
  128MOL0     H17224   9.300  11.306   2.947  0.2821 -1.3573  1.0266
  128MOL0     H17225   9.434  11.506   3.037 -1.3958  1.1539  1.6909
  128MOL0     H17226   9.372  11.457   3.200 -1.0532 -0.8659  0.3739
  128MOL0     H17227   9.616  11.390   3.081  1.3969 -2.9101 -1.6169
  128MOL0     H17228   9.525  11.244   3.055  0.8667 -1.1797  0.4958
  128MOL0     H17229   9.500  11.361   3.326  0.3723  0.0783 -0.0028
  128MOL0     H17230   9.474  11.196   3.279 -2.8746  0.5931 -3.5149
  128MOL0     H17231   9.746  11.448   3.380 -0.2598 -0.1754 -0.2663
  128MOL0     H17232   9.950  11.393   3.527  0.8919 -0.6746  1.7066
  128MOL0     H17233  10.032  11.237   3.517 -0.1420  1.2762  2.3171
  128MOL0     H17234  10.168  11.291   3.316  1.6464  0.4151 -0.0340
  128MOL0     H17235  10.065  11.444   3.301 -0.8753 -2.1979 -0.9751
  128MOL0     H17236  10.227  11.371   3.550 -0.2567 -1.0509 -1.0004
  128MOL0     H17237  10.152  11.519   3.520 -2.3465 -0.8520  1.6352
  128MOL0     H17238  10.383  11.556   3.466  1.9887 -0.9953 -0.2208
  128MOL0     H17239  10.320  11.513   3.302  1.7970 -0.0930 -0.4576
  128MOL0     H17240  10.582  11.574   3.298  2.6350  1.0397  1.2744
  128MOL0     H17241  10.809  11.553   3.250 -3.6425  2.1774  1.4234
  128MOL0     H17242  11.204  11.245   3.114 -0.8628  1.4082 -1.9178
  128MOL0     H17243  11.458  11.289   3.136 -1.2808  0.3701 -2.8956
  128MOL0     H17244  11.669  11.332   3.218  1.2670 -0.4622  0.2853
  128MOL0     H17245  11.637  11.407   3.060 -1.8010  0.8924 -0.3853
  128MOL0     H17246  11.872  11.441   3.106  0.3087 -1.6470  0.8572
  128MOL0     H17247  11.797  11.603   3.145  3.1831  0.7659  0.5955
  128MOL0     H17248  11.775  11.510   3.375 -2.0934  1.5211 -4.0387
  128MOL0     H17249  11.897  11.382   3.325 -1.0074 -0.1286 -2.5761
  128MOL0     H17250  11.937  11.678   3.267  1.4026 -0.5800 -1.6471
  128MOL0     H17251  12.068  11.557   3.268  2.5465  1.1788  3.2307
  128MOL0     H17252  12.036  11.514   3.508  0.6108 -0.5005  0.2272
  128MOL0     H17253  11.938  11.670   3.514 -0.2781 -0.1041  0.4197
  128MOL0     H17254  12.152  11.700   3.592  1.2818  1.1248 -0.2367
  128MOL0     H17255  12.228  11.664   3.430 -1.6075  0.1021 -1.9184
  128MOL0     H17256  12.176  11.905   3.529 -1.1850 -0.6913  1.1814
  128MOL0     H17257  12.024  11.891   3.445  1.8044  1.3158  1.3219
  128MOL0     H17258  12.119  11.851   3.233 -0.5411  1.5055  0.3668
  128MOL0     H17259  12.154  12.001   3.308 -1.2273  0.4159 -0.9066
  128MOL0     H17260  11.374  11.666   3.306  1.1781  0.4810 -1.0352
  128MOL0     H17261  11.127  11.623   3.285  1.6525 -0.6580  2.7306
  128MOL0     H17262  10.787  11.124   3.349  0.3963  0.5156 -1.1358
  128MOL0     H17263  10.553  11.155   3.394 -1.4342  0.0347 -0.9463
  128MOL0     H17264   8.470  11.596   2.952 -0.2732  0.2168 -0.1026
  128MOL0     H17265   8.255  11.520   2.920  0.0278 -1.2568  0.8176
  128MOL0     H17266   7.941  11.291   2.798  0.8116  1.1136  1.5706
  128MOL0     H17267   7.716  11.235   2.795  3.1809  1.7089 -1.0721
  128MOL0     H17268   7.584  10.940   3.108  1.1469  0.4760  0.3230
  128MOL0     H17269   7.602  10.829   2.968  0.8278  2.0501 -2.0909
  128MOL0     H17270   7.378  10.903   2.880  0.4864  5.0134 -0.9121
  128MOL0     H17271   7.367  11.016   3.018 -1.5066 -2.0620  0.2873
  128MOL0     H17272   7.375  10.819   3.181 -2.2255 -0.7767  0.0898
  128MOL0     H17273   7.387  10.716   3.035  1.3578  1.4191 -1.1507
  128MOL0     H17274   7.148  10.796   2.968  0.2376  1.3913 -0.6580
  128MOL0     H17275   7.166  10.723   3.138  1.3244  0.2458  1.4855
  128MOL0     H17276   7.012  11.093   3.217  0.7542  0.4022  1.2733
  128MOL0     H17277   7.801  10.896   3.051  1.9364 -1.2210 -0.4897
  128MOL0     H17278   8.127  10.968   3.139 -0.3309 -0.0427 -0.0288
  128MOL0     H17279   8.003  10.847   3.124  0.9972 -0.3050  1.1210
  128MOL0     H17280   8.134  10.864   3.003  1.3875  2.8530 -1.1062
  129MOL0     O17281   8.417  10.649   9.686 -0.2710 -0.4854 -0.1593
  129MOL0     C17282   8.428  10.527   9.694 -1.3671  0.0952 -0.5572
  129MOL0     O17283   8.548  10.454   9.693  0.9014  0.4749  0.5098
  129MOL0     C17284   8.661  10.508   9.637 -0.2289  0.2428 -0.3695
  129MOL0     C17285   8.670  10.603   9.538 -0.4932  0.2007  0.3687
  129MOL0     C17286   8.788  10.660   9.498 -0.1847  0.8489  0.1242
  129MOL0     C17287   8.913  10.610   9.542  0.0190  1.0822  0.3988
  129MOL0     O17288   9.042  10.647   9.503  0.2332 -0.0178 -0.0272
  129MOL0     C17289   9.059  10.775   9.445  0.1652 -1.6217 -0.4061
  129MOL0     C17290   9.194  10.832   9.500  0.7519  0.4655 -0.4203
  129MOL0     C17291   9.312  10.738   9.464  0.1077 -0.5586  0.0621
  129MOL0     C17292   9.448  10.807   9.477  0.2895  0.3751 -0.2421
  129MOL0     C17293   9.558  10.707   9.423 -0.0976 -0.0676 -0.5121
  129MOL0     C17294   9.696  10.784   9.405 -0.1440 -0.6714 -0.0371
  129MOL0     C17295   9.759  10.838   9.531  0.0521 -0.3627  0.5681
  129MOL0     C17296   9.916  10.855   9.527 -0.4140 -0.2792 -0.1020
  129MOL0     N17297   9.969  10.931   9.416  0.1611 -0.3794 -0.7268
  129MOL0     C17298  10.001  10.886   9.293 -0.1744  0.1284  0.0225
  129MOL0     C17299  10.084  10.981   9.239  0.8040  0.1822  0.7094
  129MOL0     C17300  10.163  10.962   9.110  0.3967 -0.2219 -0.3220
  129MOL0     C17301  10.281  10.869   9.129 -0.3972  0.1086 -0.4871
  129MOL0     C17302  10.399  10.937   9.204  0.0296 -0.2280  0.1095
  129MOL0     C17303  10.522  10.840   9.211 -0.7006  0.3330  0.2182
  129MOL0     O17304  10.631  10.919   9.262 -0.0110 -0.0451 -0.1094
  129MOL0     C17305  10.748  10.855   9.295  0.2430  0.6014  0.3653
  129MOL0     C17306  10.795  10.740   9.239  0.3530  0.4184 -0.6527
  129MOL0     C17307  10.918  10.684   9.277 -1.5655  0.1041 -0.6790
  129MOL0     C17308  11.006  10.759   9.361  0.8079  0.0368 -0.2419
  129MOL0     C17309  11.140  10.714   9.396  1.1414 -0.0826 -0.2130
  129MOL0     O17310  11.220  10.813   9.445  0.0469  0.6866 -0.1129
  129MOL0     C17311  11.354  10.793   9.440 -0.7180  0.2768  0.8858
  129MOL0     C17312  11.439  10.889   9.378 -0.4224 -0.1671 -0.0652
  129MOL0     C17313  11.575  10.877   9.356 -0.2023 -0.5429 -0.0225
  129MOL0     C17314  11.641  10.769   9.407 -0.2568 -0.0584 -0.8418
  129MOL0     O17315  11.775  10.771   9.393 -0.5806  0.1510  0.0076
  129MOL0     C17316  11.850  10.648   9.419  0.1749 -0.2897 -0.5082
  129MOL0     C17317  11.825  10.532   9.321 -1.0645  0.6095 -0.3285
  129MOL0     C17318  11.940  10.434   9.359 -0.1911 -0.4721 -0.3216
  129MOL0     C17319  11.907  10.298   9.295  0.5380 -0.2173  1.0493
  129MOL0     C17320  12.017  10.193   9.326 -1.1969  0.0245 -0.0057
  129MOL0     C17321  11.996  10.073   9.246  0.3086 -0.1843  0.2363
  129MOL0     C17322  12.101   9.967   9.281  1.1502 -0.4099 -0.9519
  129MOL0     C17323  12.085   9.843   9.196 -0.1560  0.8522  0.3564
  129MOL0    Cl17324  12.249   9.763   9.193  0.0409 -0.0425  0.1126
  129MOL0     C17325  11.566  10.677   9.488  0.3553 -0.1509 -0.1025
  129MOL0     C17326  11.421  10.685   9.499  0.5400  0.0569 -0.0550
  129MOL0     O17327  11.167  10.601   9.371  0.0233  0.1371  1.0480
  129MOL0     C17328  10.963  10.887   9.404 -0.5398 -0.0417 -0.7544
  129MOL0     C17329  10.833  10.934   9.371  0.1462  0.4797 -0.7428
  129MOL0     N17330  10.096  11.085   9.326 -0.3641 -0.4626 -0.0744
  129MOL0     N17331  10.026  11.047   9.430  0.0080 -0.9048 -0.2074
  129MOL0     C17332   8.907  10.514   9.643 -0.0904 -0.2527  0.9985
  129MOL0     C17333   8.786  10.461   9.684 -1.0354  0.0692 -0.2041
  129MOL0     C17334   8.314  10.439   9.733  0.2917 -0.8592 -0.2585
  129MOL0     C17335   8.335  10.312   9.790 -0.2777  0.4030  0.2329
  129MOL0     C17336   8.234  10.232   9.839  0.2566 -0.3230  0.2461
  129MOL0     C17337   8.103  10.284   9.839  0.1186 -0.5526 -1.2369
  129MOL0     O17338   7.993  10.214   9.887  0.9943 -0.4780 -0.1651
  129MOL0     C17339   8.016  10.086   9.944 -0.0053 -0.3993  0.4091
  129MOL0     C17340   8.064  10.081  10.092  0.0172  0.0124  0.6877
  129MOL0     C17341   7.994  10.200  10.178 -0.1743 -0.0853 -0.4064
  129MOL0     C17342   7.845  10.218  10.159 -0.3406 -0.1141 -0.1078
  129MOL0     C17343   7.783  10.087  10.186  0.2533 -0.2570  0.7404
  129MOL0     C17344   7.716   9.981  10.209 -0.7302 -0.3542 -0.1492
  129MOL0     C17345   8.078  10.410   9.790 -0.3557 -0.7212  0.2648
  129MOL0     C17346   8.185  10.487   9.736  1.0499  0.2839  0.3058
  129MOL0     C17347   8.144  10.621   9.674  0.5474  0.4939  0.4616
  129MOL0     H17348   8.584  10.651   9.491  0.2149  2.5163  1.2740
  129MOL0     H17349   8.778  10.724   9.411 -2.2979 -2.9872 -2.7410
  129MOL0     H17350   9.059  10.760   9.336 -0.5702  2.3465 -1.1180
  129MOL0     H17351   8.977  10.846   9.463  2.7951  1.5255  0.1226
  129MOL0     H17352   9.179  10.849   9.607  1.2631 -0.0911 -0.2534
  129MOL0     H17353   9.207  10.927   9.448 -3.8494  1.1903 -0.6488
  129MOL0     H17354   9.305  10.707   9.359  0.1725  2.2231 -0.8616
  129MOL0     H17355   9.316  10.646   9.522 -0.0523 -1.3091 -1.0844
  129MOL0     H17356   9.451  10.899   9.418 -1.4974  0.7638  0.2085
  129MOL0     H17357   9.467  10.841   9.580 -0.6714 -2.8676  1.1504
  129MOL0     H17358   9.571  10.629   9.498 -0.7172  0.7672  0.4889
  129MOL0     H17359   9.535  10.656   9.329 -1.6186  1.9703 -1.3207
  129MOL0     H17360   9.763  10.711   9.358  0.8413 -1.3348  2.2479
  129MOL0     H17361   9.680  10.872   9.343  1.3262  0.8899  1.6782
  129MOL0     H17362   9.742  10.766   9.611  0.2381 -1.0651 -0.0161
  129MOL0     H17363   9.723  10.941   9.541  2.3635  0.6949 -0.9574
  129MOL0     H17364   9.949  10.904   9.619 -0.6072 -0.9117  0.3138
  129MOL0     H17365   9.961  10.755   9.529  1.0091  0.3183  2.8642
  129MOL0     H17366   9.972  10.793   9.246  1.6788 -0.8139  0.6572
  129MOL0     H17367  10.091  10.904   9.051  1.0491 -0.7584 -0.5914
  129MOL0     H17368  10.205  11.044   9.051 -1.0000 -1.3338 -3.0465
  129MOL0     H17369  10.244  10.783   9.186  0.0044  0.4074  0.2384
  129MOL0     H17370  10.306  10.839   9.027 -3.5402 -2.0556 -0.7613
  129MOL0     H17371  10.365  10.967   9.304  3.0481  0.9723  0.8871
  129MOL0     H17372  10.429  11.027   9.149  1.1991 -0.3553  0.5067
  129MOL0     H17373  10.531  10.796   9.111 -3.5988 -1.8059  0.7687
  129MOL0     H17374  10.501  10.750   9.270 -2.6552  0.2957 -0.4546
  129MOL0     H17375  10.727  10.674   9.186  0.1410  1.0001 -1.1107
  129MOL0     H17376  10.959  10.587   9.251  0.8908 -0.0302  2.9337
  129MOL0     H17377  11.390  10.980   9.346 -2.0887 -1.9054 -2.8190
  129MOL0     H17378  11.618  10.952   9.291 -0.8113 -0.1497  0.0129
  129MOL0     H17379  11.954  10.678   9.407  0.8262 -2.6191 -1.0109
  129MOL0     H17380  11.819  10.617   9.520 -5.6173  1.7258 -1.2757
  129MOL0     H17381  11.726  10.492   9.341 -1.7202  0.1133 -3.9205
  129MOL0     H17382  11.833  10.570   9.219  0.7123 -2.0389 -1.2837
  129MOL0     H17383  12.041  10.469   9.336 -0.3715  3.4960  3.6152
  129MOL0     H17384  11.943  10.410   9.465 -0.0358 -0.7804 -0.3969
  129MOL0     H17385  11.904  10.320   9.188 -0.3189 -0.7234  0.9652
  129MOL0     H17386  11.814  10.262   9.338 -0.2160 -0.9052 -1.0636
  129MOL0     H17387  12.008  10.169   9.432  1.5487  0.3113  0.3797
  129MOL0     H17388  12.119  10.230   9.308 -0.5141 -2.8192 -3.1478
  129MOL0     H17389  11.894  10.036   9.261  0.6487 -0.4246  2.2032
  129MOL0     H17390  12.017  10.101   9.142  2.2224 -1.8474  0.0959
  129MOL0     H17391  12.088   9.944   9.387  0.5892  2.3158 -0.3688
  129MOL0     H17392  12.202  10.007   9.275  1.9826 -1.6727  2.4075
  129MOL0     H17393  12.011   9.772   9.232  2.3964 -1.6447  1.0281
  129MOL0     H17394  12.049   9.877   9.098 -0.0438  0.5877  0.2231
  129MOL0     H17395  11.621  10.598   9.538 -1.1709 -1.9703 -1.2053
  129MOL0     H17396  11.381  10.605   9.561  1.9491 -1.9035 -1.5220
  129MOL0     H17397  11.023  10.954   9.464  0.5598  0.6979 -2.5809
  129MOL0     H17398  10.805  11.032   9.410 -2.5805 -0.9600  1.2589
  129MOL0     H17399   8.992  10.463   9.687  0.7652  0.7486  0.5543
  129MOL0     H17400   8.784  10.398   9.772 -1.6531 -2.3895 -1.8832
  129MOL0     H17401   8.432  10.266   9.796 -0.1753  0.5688 -0.0967
  129MOL0     H17402   8.271  10.133   9.865  2.5131  0.2004 -0.7046
  129MOL0     H17403   8.089  10.029   9.884 -0.0272 -0.7429  0.7084
  129MOL0     H17404   7.923  10.031   9.926 -1.1855  0.9918  1.9806
  129MOL0     H17405   8.173  10.091  10.102  0.4471 -3.3204  0.3880
  129MOL0     H17406   8.049   9.983  10.137  0.2395 -0.1368  0.4420
  129MOL0     H17407   8.035  10.297  10.150  0.9468 -1.0616 -2.3015
  129MOL0     H17408   8.008  10.177  10.284 -2.0131 -1.6451 -0.4482
  129MOL0     H17409   7.809  10.284  10.239  0.1352  1.1012 -0.8770
  129MOL0     H17410   7.818  10.257  10.061  3.2683  1.5545 -0.6076
  129MOL0     H17411   7.664   9.894  10.243  1.2210 -0.8276  1.8056
  129MOL0     H17412   7.973  10.435   9.781 -0.4868 -2.0061 -4.1257
  129MOL0     H17413   8.175  10.710   9.728  1.5997  1.6328 -1.8577
  129MOL0     H17414   8.181  10.647   9.574  1.2409  0.5916  0.7425
  129MOL0     H17415   8.035  10.628   9.679  0.6714  2.8811  0.7644
  130MOL0     O17416   7.992   3.615   9.992 -0.2908 -0.1076  0.1595
  130MOL0     C17417   7.955   3.570   9.888 -0.8174  0.1602  0.7316
  130MOL0     O17418   8.034   3.526   9.786 -0.0338 -0.0475 -0.8191
  130MOL0     C17419   8.173   3.521   9.808  0.0808 -0.2117  0.5028
  130MOL0     C17420   8.254   3.559   9.703  0.1925  0.8440  0.3140
  130MOL0     C17421   8.394   3.542   9.713  0.0310  0.4698 -0.0125
  130MOL0     C17422   8.459   3.508   9.831  0.5311  0.0638  1.0681
  130MOL0     O17423   8.595   3.505   9.825  0.0398 -0.0234 -0.8986
  130MOL0     C17424   8.662   3.466   9.946  0.0060 -0.2313 -0.3472
  130MOL0     C17425   8.815   3.467   9.923 -0.5662  0.2814  0.0126
  130MOL0     C17426   8.890   3.413  10.045 -0.0414  0.6983 -0.3200
  130MOL0     C17427   9.040   3.373  10.003 -0.0058  0.1703  0.8603
  130MOL0     C17428   9.113   3.315  10.127 -0.4887  0.0463  0.3052
  130MOL0     C17429   9.273   3.328  10.116  0.6383  0.4409 -0.1342
  130MOL0     C17430   9.346   3.273  10.247  0.5624 -0.8967  0.6051
  130MOL0     C17431   9.495   3.289  10.246 -0.5410 -0.6423 -0.5423
  130MOL0     N17432   9.573   3.173  10.195 -0.1892  0.6281 -0.7740
  130MOL0     C17433   9.614   3.067  10.265 -0.2202  0.0414 -0.2561
  130MOL0     C17434   9.694   2.988  10.179 -1.2723 -0.7286 -0.0586
  130MOL0     C17435   9.782   2.862  10.190  0.3352  0.2399  0.0863
  130MOL0     C17436   9.862   2.822  10.066 -0.6237 -0.2168 -0.1119
  130MOL0     C17437   9.958   2.714  10.108  0.2898  0.0019 -0.2621
  130MOL0     C17438  10.059   2.674   9.997  0.0328  0.6628  0.0889
  130MOL0     O17439  10.145   2.576  10.057 -0.2901  0.2899  0.1264
  130MOL0     C17440  10.251   2.521   9.975  0.0891  1.6179  0.0464
  130MOL0     C17441  10.307   2.572   9.854  0.0649 -0.2019 -0.4066
  130MOL0     C17442  10.405   2.511   9.779 -0.6125  0.1587 -0.0208
  130MOL0     C17443  10.464   2.395   9.824  0.0267 -0.1072  0.1826
  130MOL0     C17444  10.568   2.322   9.755  0.3577  0.6121  0.7886
  130MOL0     O17445  10.637   2.381   9.647 -0.1207  0.1421 -0.0749
  130MOL0     C17446  10.705   2.294   9.571 -0.6101  0.3708  0.7487
  130MOL0     C17447  10.635   2.202   9.490  0.7680  1.0429 -0.3149
  130MOL0     C17448  10.708   2.125   9.396  0.1581 -0.3205  0.1901
  130MOL0     C17449  10.839   2.146   9.370  0.6377  0.1398 -0.1730
  130MOL0     O17450  10.890   2.072   9.266 -0.5329  0.5230 -0.2231
  130MOL0     C17451  11.024   2.108   9.224  0.5413  0.0895 -0.5382
  130MOL0     C17452  11.059   2.041   9.091 -0.7722  0.6150 -0.1173
  130MOL0     C17453  10.961   2.064   8.992 -1.0603 -0.1092  0.6073
  130MOL0     C17454  10.952   2.220   8.950 -0.0780  1.0615  0.2358
  130MOL0     C17455  10.876   2.232   8.821 -0.0928 -0.0877  0.0760
  130MOL0     C17456  10.737   2.178   8.815  0.3465 -0.0576  0.4533
  130MOL0     C17457  10.651   2.246   8.925  0.1349  0.1098  0.4264
  130MOL0     C17458  10.499   2.211   8.897 -0.2356 -0.0283  0.7001
  130MOL0    Cl17459  10.465   2.043   8.953 -0.3934 -0.1168  0.7165
  130MOL0     C17460  10.908   2.239   9.447  0.0809  0.3949 -0.4165
  130MOL0     C17461  10.846   2.307   9.551  0.1220 -0.3464 -1.0813
  130MOL0     O17462  10.590   2.206   9.794  0.5707  0.7033  0.8545
  130MOL0     C17463  10.401   2.342   9.936 -0.0563  0.5615  0.3007
  130MOL0     C17464  10.299   2.399  10.012  0.1614  0.3711 -0.5805
  130MOL0     N17465   9.698   3.057  10.058 -0.0144 -1.0718  0.3958
  130MOL0     N17466   9.632   3.164  10.073  0.4902  0.7033  0.0837
  130MOL0     C17467   8.378   3.471   9.946 -0.7066  0.2867  0.1834
  130MOL0     C17468   8.235   3.474   9.932  0.2544  0.3583 -0.0844
  130MOL0     C17469   7.814   3.559   9.870  0.2450  0.2209  0.5610
  130MOL0     C17470   7.736   3.506   9.967 -0.2077 -0.7753 -0.3284
  130MOL0     C17471   7.596   3.520   9.962  0.2664 -0.6108 -0.0803
  130MOL0     C17472   7.529   3.573   9.850 -0.6565  0.2735  0.1904
  130MOL0     O17473   7.394   3.588   9.869 -0.3657  0.0324 -0.0395
  130MOL0     C17474   7.309   3.620   9.762 -0.8157 -0.4895  0.6467
  130MOL0     C17475   7.306   3.491   9.668  0.9828 -0.3830  0.9062
  130MOL0     C17476   7.265   3.357   9.727  0.0576 -0.6561 -0.4753
  130MOL0     C17477   7.241   3.252   9.624  0.2473  0.0924 -0.0390
  130MOL0     C17478   7.364   3.216   9.553 -0.4663  0.3833 -0.6397
  130MOL0     C17479   7.479   3.188   9.514  0.4771  0.2938 -0.2421
  130MOL0     C17480   7.609   3.616   9.747 -0.6992  0.3673  0.6122
  130MOL0     C17481   7.751   3.617   9.757 -0.1956 -0.2158 -0.1799
  130MOL0     C17482   7.838   3.676   9.653 -0.3144 -0.3987 -0.7240
  130MOL0     H17483   8.208   3.577   9.606  0.2629 -0.2590  0.0562
  130MOL0     H17484   8.450   3.560   9.622 -2.2003  1.4762 -1.2739
  130MOL0     H17485   8.634   3.531  10.029 -2.1696 -2.9413  1.2239
  130MOL0     H17486   8.633   3.365   9.976  0.4469  0.1891  1.6043
  130MOL0     H17487   8.855   3.567   9.907  1.2585 -0.2941  0.7791
  130MOL0     H17488   8.831   3.415   9.828  0.9985  0.2524  0.2689
  130MOL0     H17489   8.853   3.320  10.091  1.1051  0.1728 -0.4186
  130MOL0     H17490   8.889   3.489  10.123 -2.9467 -0.1236  0.5710
  130MOL0     H17491   9.049   3.305   9.918 -0.9280  1.1065 -0.0235
  130MOL0     H17492   9.093   3.461   9.964  1.5916 -1.9746 -2.2240
  130MOL0     H17493   9.072   3.366  10.214 -3.1209 -0.9434 -0.2692
  130MOL0     H17494   9.090   3.209  10.147  1.2837  0.1227  3.3211
  130MOL0     H17495   9.321   3.271  10.036  0.5768  0.0220  0.1193
  130MOL0     H17496   9.292   3.435  10.108  0.4518  0.3875 -1.3403
  130MOL0     H17497   9.308   3.171  10.249  1.3151 -1.1902  0.4313
  130MOL0     H17498   9.302   3.332  10.328  1.5113  0.8928 -0.1224
  130MOL0     H17499   9.513   3.387  10.202 -1.5314 -1.0922 -2.0033
  130MOL0     H17500   9.534   3.297  10.349  0.3310  0.1411 -0.9174
  130MOL0     H17501   9.591   3.056  10.371  0.2989  1.5685  0.0321
  130MOL0     H17502   9.851   2.884  10.272  1.4638 -0.1220 -0.7346
  130MOL0     H17503   9.710   2.783  10.211 -2.7529  2.6896 -0.5151
  130MOL0     H17504   9.790   2.795   9.989 -2.2124  0.3259  1.1068
  130MOL0     H17505   9.907   2.913  10.024 -2.4841  0.8973  0.1692
  130MOL0     H17506   9.902   2.628  10.147 -2.1443  1.4332 -0.4656
  130MOL0     H17507  10.019   2.759  10.187  1.0911  1.2717 -1.5797
  130MOL0     H17508  10.125   2.756   9.966  1.3403  0.7738  2.8188
  130MOL0     H17509  10.018   2.624   9.909  0.0768  2.1913 -0.8318
  130MOL0     H17510  10.276   2.675   9.840 -0.9791 -0.2239  1.4334
  130MOL0     H17511  10.454   2.576   9.708 -0.7334  0.0491 -0.2054
  130MOL0     H17512  10.528   2.190   9.499  0.8903 -2.6049 -1.8997
  130MOL0     H17513  10.658   2.049   9.337  0.1999  0.4325 -0.8388
  130MOL0     H17514  11.020   2.217   9.211 -3.4452  0.1971  0.3393
  130MOL0     H17515  11.103   2.075   9.292 -1.0616 -0.4330  1.1839
  130MOL0     H17516  11.161   2.064   9.059  0.1286 -2.5461  0.1429
  130MOL0     H17517  11.064   1.933   9.110  1.9045  0.7857  0.6219
  130MOL0     H17518  10.991   1.998   8.910 -1.5338 -2.0666  1.9521
  130MOL0     H17519  10.865   2.023   9.025 -1.9723 -0.1307 -1.8250
  130MOL0     H17520  11.052   2.262   8.940 -0.1982  0.8820 -2.6444
  130MOL0     H17521  10.896   2.267   9.032  0.4350 -0.2345  1.3741
  130MOL0     H17522  10.929   2.170   8.749 -0.7343  1.6442 -1.9828
  130MOL0     H17523  10.881   2.335   8.784  0.2289 -0.0664  0.1732
  130MOL0     H17524  10.694   2.193   8.715 -0.5509 -1.0635  0.6632
  130MOL0     H17525  10.734   2.070   8.833  1.7837 -0.2505 -0.3471
  130MOL0     H17526  10.657   2.354   8.914  0.2959  0.3506  2.5629
  130MOL0     H17527  10.693   2.223   9.023  1.6927  1.5497  0.1523
  130MOL0     H17528  10.444   2.288   8.951  1.5973  2.4897 -0.7761
  130MOL0     H17529  10.478   2.223   8.790  1.6577 -0.2752  0.2516
  130MOL0     H17530  11.010   2.266   9.422 -1.0731  1.5447 -4.6607
  130MOL0     H17531  10.900   2.375   9.616 -1.2946  1.9798 -2.2068
  130MOL0     H17532  10.430   2.243   9.968 -0.5010 -0.2328 -1.6192
  130MOL0     H17533  10.274   2.339  10.100  2.2799 -0.8674 -0.7649
  130MOL0     H17534   8.425   3.431  10.035 -1.2053  0.3829  0.4946
  130MOL0     H17535   8.165   3.462  10.015 -0.8767  3.7917 -0.3909
  130MOL0     H17536   7.790   3.469  10.054  2.0019  0.2741 -1.1573
  130MOL0     H17537   7.545   3.493  10.054  0.8072 -0.0385  0.3961
  130MOL0     H17538   7.333   3.713   9.710 -2.1215 -0.4509  0.0584
  130MOL0     H17539   7.211   3.637   9.808 -0.3105 -1.5798  2.2250
  130MOL0     H17540   7.401   3.472   9.615 -0.3521  0.3900 -2.0077
  130MOL0     H17541   7.238   3.516   9.586 -1.4982 -3.0189  2.0061
  130MOL0     H17542   7.175   3.380   9.785  0.1015  2.7007 -1.5348
  130MOL0     H17543   7.337   3.320   9.800 -0.2853  1.5713  1.1035
  130MOL0     H17544   7.197   3.156   9.653 -1.1823  0.5261 -0.7429
  130MOL0     H17545   7.171   3.286   9.548 -0.5839 -2.5198 -0.5231
  130MOL0     H17546   7.564   3.150   9.461 -1.0952 -1.5323 -1.5911
  130MOL0     H17547   7.566   3.671   9.664 -1.7606 -1.6865 -0.2884
  130MOL0     H17548   7.904   3.757   9.685 -1.6748  0.5404 -0.1643
  130MOL0     H17549   7.896   3.607   9.592  2.8940  1.6201 -0.1565
  130MOL0     H17550   7.780   3.723   9.572 -1.1863 -1.8496 -0.9821
  131MOL0     O17551   0.646   5.641   7.202  0.1978 -0.3517  0.1045
  131MOL0     C17552   0.662   5.528   7.154 -0.0444 -0.0099 -0.9061
  131MOL0     O17553   0.787   5.478   7.123  0.1408 -0.1618  0.3419
  131MOL0     C17554   0.894   5.563   7.102 -0.0875  0.3302 -0.3380
  131MOL0     C17555   0.963   5.609   7.215  0.2113  0.5240  0.1566
  131MOL0     C17556   1.067   5.690   7.200 -0.5644 -0.1043  0.5957
  131MOL0     C17557   1.115   5.722   7.072 -0.2678  0.1144  0.9441
  131MOL0     O17558   1.217   5.812   7.050 -0.5549 -0.2933 -0.6954
  131MOL0     C17559   1.299   5.855   7.162 -0.2640  0.6526  0.2353
  131MOL0     C17560   1.424   5.944   7.108  0.7205  0.1372  0.4312
  131MOL0     C17561   1.528   5.977   7.225  0.2376  0.6224  0.1839
  131MOL0     C17562   1.561   6.121   7.212 -0.1567  1.0461 -0.1170
  131MOL0     C17563   1.657   6.152   7.333  1.1349 -0.6236  0.6796
  131MOL0     C17564   1.800   6.104   7.312  0.0604  0.1240 -0.4046
  131MOL0     C17565   1.873   6.057   7.437  1.0152  0.0290  0.9050
  131MOL0     C17566   1.991   5.970   7.396  0.6907  0.2845 -0.3059
  131MOL0     N17567   2.092   6.047   7.326 -1.0035  0.2669 -0.0532
  131MOL0     C17568   2.219   6.090   7.370  0.1817  0.1728  0.3266
  131MOL0     C17569   2.293   6.113   7.261 -0.7599 -1.3559  0.3518
  131MOL0     C17570   2.433   6.157   7.256 -0.8469  0.4236 -0.3578
  131MOL0     C17571   2.468   6.271   7.357 -0.6974  0.1505 -0.4251
  131MOL0     C17572   2.622   6.285   7.367  0.6351 -0.0983  0.5746
  131MOL0     C17573   2.663   6.377   7.487  0.6841 -0.7226  0.0767
  131MOL0     O17574   2.808   6.370   7.501  0.5070  0.0639 -0.4790
  131MOL0     C17575   2.877   6.389   7.610  0.5252 -0.6648  0.1088
  131MOL0     C17576   2.825   6.445   7.720 -0.0133 -0.5219  0.5118
  131MOL0     C17577   2.904   6.466   7.829 -0.6624 -0.3124  0.3212
  131MOL0     C17578   3.046   6.433   7.828 -0.2976  0.4806 -0.4252
  131MOL0     C17579   3.127   6.430   7.954  0.1038  0.6115 -0.6280
  131MOL0     O17580   3.237   6.355   7.952 -0.4232 -0.6262  0.7359
  131MOL0     C17581   3.297   6.341   8.073 -0.8135 -0.3656  0.3910
  131MOL0     C17582   3.266   6.224   8.151 -1.1659 -0.1244  0.6043
  131MOL0     C17583   3.346   6.205   8.273  0.0457  1.1452  0.2979
  131MOL0     C17584   3.447   6.291   8.317  1.1269  0.1743 -0.1357
  131MOL0     O17585   3.514   6.269   8.434 -0.2540 -0.2174  0.1566
  131MOL0     C17586   3.613   6.172   8.420 -0.6661  0.1899 -0.9100
  131MOL0     C17587   3.634   6.092   8.557  0.8265 -0.9631  0.1188
  131MOL0     C17588   3.528   5.980   8.554 -0.2432  0.3938  0.2452
  131MOL0     C17589   3.543   5.890   8.679 -1.0172 -0.0042  0.2390
  131MOL0     C17590   3.430   5.789   8.711  1.6118 -0.8243  0.1555
  131MOL0     C17591   3.423   5.677   8.604 -1.0763  0.4622 -0.0888
  131MOL0     C17592   3.354   5.560   8.674  0.3126  0.1640 -0.6422
  131MOL0     C17593   3.459   5.487   8.781  0.9132 -0.0969 -0.3025
  131MOL0    Cl17594   3.395   5.329   8.843  0.0511  0.3250  0.1260
  131MOL0     C17595   3.458   6.410   8.246  0.3036  0.2523 -0.7844
  131MOL0     C17596   3.388   6.435   8.123  0.3962  0.3894 -0.1708
  131MOL0     O17597   3.081   6.495   8.047 -0.2243 -0.5258  0.1655
  131MOL0     C17598   3.099   6.384   7.709 -0.3148  0.4705 -0.2808
  131MOL0     C17599   3.013   6.356   7.603 -0.0137 -0.9141 -0.2066
  131MOL0     N17600   2.211   6.101   7.151  0.2163 -0.0214 -0.2004
  131MOL0     N17601   2.100   6.047   7.190  1.0029 -0.1697  0.1127
  131MOL0     C17602   1.044   5.678   6.956  0.2234  0.2343 -0.0789
  131MOL0     C17603   0.936   5.596   6.973  0.1718  0.3848  0.7680
  131MOL0     C17604   0.539   5.462   7.110  1.3984 -0.6801 -0.1278
  131MOL0     C17605   0.548   5.402   6.982  0.0778 -0.2001 -1.3201
  131MOL0     C17606   0.443   5.346   6.916 -0.0508  0.3525 -0.4051
  131MOL0     C17607   0.316   5.350   6.980  0.0481  0.3799  0.2949
  131MOL0     O17608   0.218   5.292   6.900 -0.5271 -0.5738  0.6345
  131MOL0     C17609   0.075   5.296   6.941 -0.8147 -0.8894 -0.7118
  131MOL0     C17610  -0.012   5.230   6.828  0.0139 -0.6337  0.5617
  131MOL0     C17611  -0.028   5.326   6.707 -0.0810  0.7437  0.9819
  131MOL0     C17612  -0.027   5.251   6.567 -0.4170  0.0510  0.0920
  131MOL0     C17613  -0.058   5.330   6.455 -0.3338 -0.2644  1.1824
  131MOL0     C17614  -0.113   5.387   6.357  0.1841  0.0618  0.5999
  131MOL0     C17615   0.302   5.411   7.108 -0.5038  1.1010  0.1700
  131MOL0     C17616   0.408   5.476   7.170  0.1897  0.9762 -0.5110
  131MOL0     C17617   0.389   5.551   7.295 -0.4095 -0.0447 -0.0446
  131MOL0     H17618   0.918   5.584   7.311  1.8743 -0.8181  0.6346
  131MOL0     H17619   1.115   5.735   7.287 -0.2660 -1.5636  1.2124
  131MOL0     H17620   1.236   5.923   7.221 -2.8437 -0.6982 -0.8254
  131MOL0     H17621   1.330   5.773   7.227  0.1070  1.2121  0.7747
  131MOL0     H17622   1.384   6.032   7.058 -0.6137 -0.0824  1.0503
  131MOL0     H17623   1.469   5.875   7.036 -1.2780 -1.8104  0.9320
  131MOL0     H17624   1.612   5.907   7.230  0.2238  0.5954  0.0485
  131MOL0     H17625   1.481   5.967   7.323  0.0273 -0.7069 -0.0344
  131MOL0     H17626   1.612   6.143   7.119 -0.6808  0.6509 -0.5041
  131MOL0     H17627   1.463   6.170   7.218 -0.0587  1.2747 -0.3673
  131MOL0     H17628   1.666   6.260   7.352  0.9838 -0.3213 -0.8904
  131MOL0     H17629   1.612   6.098   7.417 -2.3168 -1.1298 -1.3139
  131MOL0     H17630   1.779   6.015   7.251  0.7114 -3.1357  3.7018
  131MOL0     H17631   1.863   6.173   7.254  0.8182  0.5589  0.8967
  131MOL0     H17632   1.807   6.003   7.505  1.2926 -0.9432  0.4124
  131MOL0     H17633   1.900   6.150   7.488  0.2453  1.3385 -0.9707
  131MOL0     H17634   2.033   5.933   7.490  0.6485 -0.5900 -0.6293
  131MOL0     H17635   1.951   5.889   7.335 -0.9712 -0.1870  1.3194
  131MOL0     H17636   2.245   6.086   7.475  1.8543  0.5429 -0.0442
  131MOL0     H17637   2.499   6.070   7.266 -0.7521  0.5174 -0.1424
  131MOL0     H17638   2.449   6.192   7.154 -1.2044 -0.3419 -0.6823
  131MOL0     H17639   2.412   6.361   7.329 -1.0006 -0.6015 -2.4099
  131MOL0     H17640   2.432   6.250   7.459 -0.8502  0.4925 -0.4089
  131MOL0     H17641   2.661   6.322   7.272 -2.5830 -2.9835 -2.0967
  131MOL0     H17642   2.656   6.182   7.379  0.0619 -0.7594 -2.6663
  131MOL0     H17643   2.611   6.344   7.577  1.2200 -0.6320  0.4248
  131MOL0     H17644   2.630   6.481   7.480  1.3484 -0.2504  2.6684
  131MOL0     H17645   2.719   6.458   7.740 -0.0237 -1.5759  1.2406
  131MOL0     H17646   2.866   6.509   7.922  0.7896  0.6829  0.4986
  131MOL0     H17647   3.191   6.151   8.123 -2.2457  0.3228  2.1390
  131MOL0     H17648   3.336   6.116   8.334  1.2529  0.9195  0.1762
  131MOL0     H17649   3.580   6.109   8.338 -3.1373  3.5885 -2.7956
  131MOL0     H17650   3.708   6.220   8.396 -1.2393  1.2736 -1.0809
  131MOL0     H17651   3.731   6.043   8.560  1.7745  0.8808  0.6462
  131MOL0     H17652   3.623   6.150   8.649  2.8016  0.4426 -0.4898
  131MOL0     H17653   3.423   6.005   8.540 -0.4712 -1.7876 -3.0554
  131MOL0     H17654   3.547   5.912   8.470 -1.2287  1.3413 -0.7698
  131MOL0     H17655   3.536   5.959   8.765 -0.9678 -1.2747  1.2868
  131MOL0     H17656   3.639   5.838   8.680 -1.1785 -0.3233 -0.7053
  131MOL0     H17657   3.328   5.826   8.726  1.3919 -2.0037  1.9070
  131MOL0     H17658   3.452   5.750   8.811 -1.7903 -1.2350  0.8668
  131MOL0     H17659   3.365   5.707   8.517 -0.2494 -1.1258 -1.2371
  131MOL0     H17660   3.518   5.640   8.563 -2.2190 -1.2197 -1.3400
  131MOL0     H17661   3.317   5.484   8.604 -0.1691 -1.1196  0.9405
  131MOL0     H17662   3.263   5.592   8.724 -2.4131 -2.1903 -3.6386
  131MOL0     H17663   3.558   5.465   8.739  1.3752 -0.4470  0.9321
  131MOL0     H17664   3.490   5.546   8.867  2.1383 -3.0265  1.4272
  131MOL0     H17665   3.537   6.478   8.278  2.0498 -1.6804 -0.7822
  131MOL0     H17666   3.415   6.528   8.074  0.0938  1.6067  1.8562
  131MOL0     H17667   3.207   6.383   7.701 -0.0893  1.7538  1.7293
  131MOL0     H17668   3.051   6.309   7.512  0.9234 -0.5112 -0.0338
  131MOL0     H17669   1.078   5.715   6.860 -0.5482  0.8896 -0.1091
  131MOL0     H17670   0.887   5.551   6.887  1.1516  1.9172 -0.6493
  131MOL0     H17671   0.650   5.401   6.946  0.9207  0.0812  0.9163
  131MOL0     H17672   0.454   5.306   6.815 -2.0336 -1.8158  0.1499
  131MOL0     H17673   0.049   5.402   6.947 -2.5520 -1.2713 -1.0233
  131MOL0     H17674   0.073   5.240   7.035  1.2084  1.5598  0.9604
  131MOL0     H17675  -0.104   5.211   6.884  1.5451  0.4134  3.7158
  131MOL0     H17676   0.030   5.139   6.783  0.6876 -1.5653  2.9275
  131MOL0     H17677   0.061   5.389   6.715  1.7692 -1.8077  1.7483
  131MOL0     H17678  -0.115   5.390   6.719 -1.1119  0.3617 -3.0595
  131MOL0     H17679   0.073   5.212   6.543 -0.2747  1.2172 -1.3744
  131MOL0     H17680  -0.085   5.159   6.566 -3.7458  1.9984 -0.7812
  131MOL0     H17681  -0.147   5.438   6.270  2.1192 -1.4288 -1.1379
  131MOL0     H17682   0.205   5.415   7.156 -1.2168  0.5589 -1.1878
  131MOL0     H17683   0.406   5.659   7.282 -1.4009 -0.0005 -1.1900
  131MOL0     H17684   0.291   5.543   7.343 -1.1300  0.4853 -1.3726
  131MOL0     H17685   0.461   5.519   7.371 -0.5451  1.0365  0.5583
  132MOL0     O17686   8.563   1.089   8.893 -0.2577 -0.1834  0.6011
  132MOL0     C17687   8.482   1.013   8.837 -0.7343 -0.0967  0.5486
  132MOL0     O17688   8.495   0.973   8.711  0.0753  0.1370  0.0771
  132MOL0     C17689   8.589   1.026   8.627  0.4014  0.4189  0.3252
  132MOL0     C17690   8.651   0.934   8.534  0.4567  1.0922  0.0309
  132MOL0     C17691   8.740   0.974   8.435 -0.4089 -0.1366 -0.0544
  132MOL0     C17692   8.769   1.106   8.428  0.0929 -0.5164  1.3212
  132MOL0     O17693   8.849   1.164   8.331  0.0011  0.2387  0.6566
  132MOL0     C17694   8.937   1.069   8.259  0.0760 -0.8547 -0.0879
  132MOL0     C17695   9.032   1.148   8.169  0.4474 -0.5622 -1.0054
  132MOL0     C17696   8.974   1.179   8.038 -0.3331  0.2305 -0.8282
  132MOL0     C17697   9.048   1.289   7.968 -0.5782  0.4844  0.0164
  132MOL0     C17698   8.993   1.323   7.823  0.4518  0.7588  0.5811
  132MOL0     C17699   9.055   1.451   7.775 -0.4636 -0.5199  0.1055
  132MOL0     C17700   9.030   1.472   7.618  0.4189  0.3061  0.0039
  132MOL0     C17701   9.117   1.391   7.522 -0.4747  0.4149  0.2278
  132MOL0     N17702   9.254   1.443   7.527 -0.0878 -0.2743  0.4847
  132MOL0     C17703   9.290   1.564   7.482 -0.0901  0.2868  0.1796
  132MOL0     C17704   9.427   1.562   7.463 -0.7301 -0.7494 -0.3122
  132MOL0     C17705   9.490   1.689   7.424  0.0174 -0.0262  0.3603
  132MOL0     C17706   9.637   1.660   7.404  0.5539 -0.7616 -0.1986
  132MOL0     C17707   9.705   1.786   7.349 -0.4056  0.3125 -0.1801
  132MOL0     C17708   9.851   1.759   7.325 -1.0280 -0.2259 -0.5738
  132MOL0     O17709   9.910   1.864   7.244 -0.4442  0.6075  0.4187
  132MOL0     C17710  10.040   1.888   7.222  0.0931  1.1199  0.1500
  132MOL0     C17711  10.138   1.797   7.273  0.1643  0.3176  0.2531
  132MOL0     C17712  10.268   1.833   7.245 -0.3686  0.6504  0.8154
  132MOL0     C17713  10.305   1.953   7.183  0.3071  0.8625 -0.2240
  132MOL0     C17714  10.445   2.002   7.183 -0.2152  0.1099  0.7425
  132MOL0     O17715  10.475   2.110   7.099  0.2163  0.0830 -0.3525
  132MOL0     C17716  10.610   2.139   7.089 -0.6761 -0.2845 -0.0505
  132MOL0     C17717  10.684   2.233   7.162  0.6691 -0.0387 -0.3166
  132MOL0     C17718  10.818   2.256   7.141  0.2080 -0.7711 -0.1454
  132MOL0     C17719  10.891   2.174   7.046  0.7481  0.1322  0.5064
  132MOL0     O17720  11.018   2.195   7.002 -0.5594 -0.4367  0.2049
  132MOL0     C17721  11.075   2.314   7.065 -0.8385 -0.3147  0.5804
  132MOL0     C17722  11.222   2.331   7.019  0.3722  0.0611 -0.6352
  132MOL0     C17723  11.280   2.467   7.061  0.0083 -0.3800 -0.3786
  132MOL0     C17724  11.412   2.492   6.993  0.2363 -0.1991 -0.6573
  132MOL0     C17725  11.532   2.449   7.091  0.2424 -0.3605  0.4045
  132MOL0     C17726  11.664   2.517   7.042 -0.3543 -0.3670 -0.3018
  132MOL0     C17727  11.780   2.505   7.146  0.1438 -0.3501 -0.0943
  132MOL0     C17728  11.758   2.597   7.268 -0.3401  0.7741  0.7428
  132MOL0    Cl17729  11.821   2.762   7.227  0.3426  0.2446  0.6373
  132MOL0     C17730  10.811   2.081   6.977 -0.0102 -0.3259  0.3831
  132MOL0     C17731  10.677   2.066   6.994  0.7230 -1.1032 -0.0935
  132MOL0     O17732  10.522   1.944   7.260  0.0548 -0.2148  0.4670
  132MOL0     C17733  10.200   2.040   7.135  0.1282 -0.4234  0.4935
  132MOL0     C17734  10.072   2.001   7.152 -0.0059 -0.0937  0.5748
  132MOL0     N17735   9.471   1.438   7.509  0.3645  0.0135 -0.3556
  132MOL0     N17736   9.362   1.364   7.544  0.1929 -0.7184 -0.7690
  132MOL0     C17737   8.721   1.200   8.522 -0.2879  0.2582 -0.1897
  132MOL0     C17738   8.629   1.163   8.620  0.0869  0.4623  0.3427
  132MOL0     C17739   8.369   0.962   8.920  0.2056 -0.1336  0.7826
  132MOL0     C17740   8.267   0.893   8.856  0.4584  0.3140  0.0361
  132MOL0     C17741   8.144   0.877   8.928  0.0492 -0.5430  0.1133
  132MOL0     C17742   8.128   0.917   9.060  0.3111  0.5177 -0.4199
  132MOL0     O17743   8.015   0.898   9.143  0.2111 -0.5231 -0.0029
  132MOL0     C17744   7.907   0.813   9.100  0.6276 -0.4342  0.4832
  132MOL0     C17745   7.780   0.806   9.184 -0.2580 -0.1494  0.5978
  132MOL0     C17746   7.710   0.946   9.178 -0.4852 -0.3458 -0.1631
  132MOL0     C17747   7.595   0.950   9.283 -0.2222 -0.6251  0.3731
  132MOL0     C17748   7.506   0.836   9.257 -0.1793 -0.2623  0.0292
  132MOL0     C17749   7.435   0.746   9.232 -0.3750 -0.3560  1.0408
  132MOL0     C17750   8.234   0.979   9.123 -0.8311  0.0956 -0.5708
  132MOL0     C17751   8.349   0.998   9.058 -0.1659  0.0116  1.1505
  132MOL0     C17752   8.458   1.057   9.143 -0.3474  0.0631 -0.1570
  132MOL0     H17753   8.639   0.827   8.548 -0.7076  0.8536 -2.2979
  132MOL0     H17754   8.779   0.895   8.372 -0.4066  0.2675 -0.5629
  132MOL0     H17755   8.999   1.011   8.328  1.7918  2.1694  1.1151
  132MOL0     H17756   8.878   1.002   8.196  0.7415 -1.9017  0.3717
  132MOL0     H17757   9.118   1.089   8.135 -1.6298 -3.4660 -1.6562
  132MOL0     H17758   9.055   1.243   8.218 -0.9049 -0.2796 -0.8949
  132MOL0     H17759   8.875   1.220   8.058  0.2112  0.3421  1.9364
  132MOL0     H17760   8.975   1.090   7.974 -2.1646 -0.5678  0.1800
  132MOL0     H17761   9.064   1.373   8.036  0.1241  0.9489 -0.6914
  132MOL0     H17762   9.151   1.252   7.963 -1.2650 -2.1662  2.8563
  132MOL0     H17763   9.020   1.241   7.756 -1.1841  2.9160 -3.0408
  132MOL0     H17764   8.886   1.345   7.816  0.0088 -1.4202 -0.5528
  132MOL0     H17765   8.998   1.526   7.831  1.3851 -1.4270  3.4315
  132MOL0     H17766   9.159   1.459   7.806 -0.0579 -2.3164 -0.6913
  132MOL0     H17767   9.041   1.577   7.589 -3.5013  0.6650 -0.6393
  132MOL0     H17768   8.925   1.455   7.595  0.5567 -0.8019  0.1079
  132MOL0     H17769   9.114   1.283   7.540  0.0357  0.4797  0.7222
  132MOL0     H17770   9.080   1.404   7.420  0.1354  2.7897  0.2486
  132MOL0     H17771   9.230   1.653   7.461 -1.4541 -0.5271  0.4856
  132MOL0     H17772   9.447   1.741   7.338  0.4156  0.2806  0.3468
  132MOL0     H17773   9.479   1.763   7.504 -3.0689 -1.7793  1.7265
  132MOL0     H17774   9.678   1.626   7.500 -0.0793 -1.2404 -0.0862
  132MOL0     H17775   9.655   1.577   7.335 -0.5598 -0.9269 -0.3220
  132MOL0     H17776   9.698   1.867   7.421  1.6671 -1.0961  1.7501
  132MOL0     H17777   9.650   1.803   7.256 -0.3171 -1.8533 -0.6990
  132MOL0     H17778   9.877   1.664   7.277  1.2842 -0.2074  0.4946
  132MOL0     H17779   9.899   1.751   7.423 -2.3357 -3.0927 -0.0819
  132MOL0     H17780  10.112   1.710   7.331 -2.6035  0.3074 -0.8056
  132MOL0     H17781  10.339   1.761   7.285 -2.0071 -2.3892 -1.2532
  132MOL0     H17782  10.623   2.290   7.232 -1.4281  0.7064 -2.6191
  132MOL0     H17783  10.876   2.330   7.194 -0.3020 -2.0490  2.3323
  132MOL0     H17784  11.022   2.403   7.030  0.5750  0.8725  1.3674
  132MOL0     H17785  11.080   2.295   7.173 -2.3486 -1.7979  0.4496
  132MOL0     H17786  11.281   2.250   7.062 -0.7412 -1.3706 -1.6967
  132MOL0     H17787  11.226   2.329   6.910  0.0150  2.4175 -0.7630
  132MOL0     H17788  11.212   2.552   7.047  0.2208  0.0652  1.1114
  132MOL0     H17789  11.304   2.450   7.166  2.8453 -2.4663 -1.2389
  132MOL0     H17790  11.434   2.599   6.988  1.9892 -0.4933 -0.1623
  132MOL0     H17791  11.415   2.444   6.895 -1.5181 -1.4561 -0.1328
  132MOL0     H17792  11.549   2.341   7.093  2.6219 -0.0364  0.5856
  132MOL0     H17793  11.518   2.477   7.196  2.0492 -1.3558  0.9544
  132MOL0     H17794  11.691   2.486   6.941  0.2225 -0.9437  0.0157
  132MOL0     H17795  11.649   2.625   7.039 -1.8273 -0.5735 -1.7655
  132MOL0     H17796  11.875   2.527   7.096 -1.3699  3.6834 -1.6086
  132MOL0     H17797  11.784   2.401   7.178  0.9785 -0.1490  0.4890
  132MOL0     H17798  11.650   2.594   7.288 -0.9530 -0.1296 -2.2448
  132MOL0     H17799  11.815   2.563   7.354 -0.8710  1.5505  1.4243
  132MOL0     H17800  10.845   2.014   6.898  0.5524 -0.3779  0.6669
  132MOL0     H17801  10.617   2.005   6.927  0.7278  0.9127 -2.0532
  132MOL0     H17802  10.220   2.133   7.082 -1.5097 -0.0217  0.5297
  132MOL0     H17803   9.999   2.074   7.118  0.7096  0.5519  0.3881
  132MOL0     H17804   8.752   1.304   8.519  2.9161 -0.5537  0.2515
  132MOL0     H17805   8.585   1.239   8.683  0.8428  0.1508  1.2721
  132MOL0     H17806   8.266   0.862   8.752 -1.0874  2.2128 -0.5865
  132MOL0     H17807   8.073   0.808   8.883 -0.1547  0.2536 -0.8131
  132MOL0     H17808   7.944   0.711   9.088 -0.6198 -1.0283  1.4251
  132MOL0     H17809   7.867   0.861   9.010  1.7891  1.0695  0.7319
  132MOL0     H17810   7.813   0.771   9.282 -2.6384  0.9713  1.8806
  132MOL0     H17811   7.715   0.728   9.144  0.3540 -1.5159  2.1501
  132MOL0     H17812   7.682   0.972   9.076 -0.8646 -0.4914 -0.0997
  132MOL0     H17813   7.788   1.012   9.216  0.4637 -1.3214 -0.3535
  132MOL0     H17814   7.641   0.944   9.382  1.7487 -3.1141 -0.5969
  132MOL0     H17815   7.541   1.046   9.285 -0.8381 -0.9591  0.1707
  132MOL0     H17816   7.366   0.667   9.210 -1.0502  0.5473 -0.1778
  132MOL0     H17817   8.235   1.017   9.225  0.7729 -1.0235 -0.1402
  132MOL0     H17818   8.558   1.026   9.110 -0.4205  0.0645 -0.3831
  132MOL0     H17819   8.445   1.166   9.148  1.4788  0.2719  1.5145
  132MOL0     H17820   8.444   1.026   9.247  0.4765 -1.9117 -0.5966
  133MOL0     O17821   2.556   2.646   6.777  1.1522 -0.2877 -0.0052
  133MOL0     C17822   2.458   2.704   6.741  0.1231 -1.0764 -0.4007
  133MOL0     O17823   2.457   2.836   6.712 -0.3762  0.0289 -0.2194
  133MOL0     C17824   2.577   2.900   6.671  0.8157 -0.6565  0.1198
  133MOL0     C17825   2.560   2.971   6.551 -0.4105 -0.7588 -0.2682
  133MOL0     C17826   2.671   3.038   6.493  0.5822 -0.0961  0.1388
  133MOL0     C17827   2.794   3.040   6.551  0.2878 -0.0893 -0.6601
  133MOL0     O17828   2.902   3.071   6.484  0.0936  0.1375  0.0140
  133MOL0     C17829   3.003   3.137   6.561 -0.4886 -0.0174  0.2425
  133MOL0     C17830   3.136   3.179   6.471 -1.1458  0.1755 -0.5507
  133MOL0     C17831   3.236   3.066   6.432  0.0628  0.3392 -0.0874
  133MOL0     C17832   3.331   3.043   6.547  0.0329  0.2840  1.2053
  133MOL0     C17833   3.430   2.928   6.516  0.0173  0.0819  0.1836
  133MOL0     C17834   3.553   2.915   6.610  0.1294 -0.3773 -0.5943
  133MOL0     C17835   3.641   2.790   6.565  0.0175  0.0948 -0.2114
  133MOL0     C17836   3.771   2.794   6.653 -0.2834  0.0207 -0.7074
  133MOL0     N17837   3.870   2.902   6.637  0.0681 -0.1196 -0.6288
  133MOL0     C17838   3.933   2.960   6.744  0.5404 -0.6934 -0.1663
  133MOL0     C17839   4.033   3.036   6.690  0.4692  0.1108  0.2691
  133MOL0     C17840   4.122   3.127   6.761 -0.3715  0.2305 -0.7496
  133MOL0     C17841   4.237   3.049   6.824  0.6948  0.3810  0.6343
  133MOL0     C17842   4.350   3.028   6.717 -0.6828 -0.9623  0.2232
  133MOL0     C17843   4.476   2.972   6.777 -0.7643  0.0882 -1.4505
  133MOL0     O17844   4.518   3.079   6.868 -0.2522 -0.4164  0.8381
  133MOL0     C17845   4.632   3.064   6.940 -0.5193  0.6317 -0.2434
  133MOL0     C17846   4.635   3.149   7.049 -0.3996 -0.6980 -0.5994
  133MOL0     C17847   4.748   3.155   7.136  0.2061  0.1905  0.2420
  133MOL0     C17848   4.854   3.063   7.113  0.0370 -0.1914  0.9262
  133MOL0     C17849   4.982   3.055   7.193 -0.8324  0.2631 -0.2866
  133MOL0     O17850   5.067   2.947   7.166 -0.1892  0.1222  0.5253
  133MOL0     C17851   5.205   2.953   7.195  0.7656 -0.2371  0.0365
  133MOL0     C17852   5.258   2.826   7.208 -0.2499 -0.6929 -0.9237
  133MOL0     C17853   5.389   2.809   7.244 -0.3176 -0.3871  0.0221
  133MOL0     C17854   5.477   2.919   7.247  0.0285  1.2541 -0.4830
  133MOL0     O17855   5.618   2.909   7.242 -0.2967  0.0244  0.0750
  133MOL0     C17856   5.678   2.818   7.334  0.9306  0.2042  0.3915
  133MOL0     C17857   5.826   2.813   7.329  0.0882 -0.2500 -0.4931
  133MOL0     C17858   5.868   2.777   7.186  0.4542  0.7129 -0.0969
  133MOL0     C17859   6.016   2.726   7.178  0.0518  0.0894 -0.7099
  133MOL0     C17860   6.121   2.831   7.210 -0.0617 -0.7324  0.0471
  133MOL0     C17861   6.261   2.768   7.234  0.0111 -0.4301  0.5220
  133MOL0     C17862   6.367   2.874   7.271 -0.1770 -0.1704 -0.3832
  133MOL0     C17863   6.500   2.808   7.298 -0.0995  0.3205  0.1877
  133MOL0    Cl17864   6.568   2.714   7.158  0.0442 -0.3510 -0.2267
  133MOL0     C17865   5.431   3.047   7.226 -0.1036 -0.9245  0.2599
  133MOL0     C17866   5.289   3.067   7.209 -0.7563  0.2270  0.0466
  133MOL0     O17867   4.998   3.143   7.276  0.1393  0.8154 -0.1607
  133MOL0     C17868   4.844   2.975   7.007  0.2725  0.5965  0.4589
  133MOL0     C17869   4.735   2.968   6.917  0.0915 -0.6443  1.2394
  133MOL0     N17870   4.026   3.019   6.552 -0.4318 -0.2038  0.2640
  133MOL0     N17871   3.922   2.948   6.524 -0.1913  0.0518 -0.1449
  133MOL0     C17872   2.807   2.970   6.676  0.4293  0.4150  0.5407
  133MOL0     C17873   2.699   2.899   6.734 -0.3181  0.2151 -1.2583
  133MOL0     C17874   2.331   2.636   6.741 -0.3330 -0.2160 -0.9487
  133MOL0     C17875   2.223   2.700   6.798  0.1795  0.4649 -0.1517
  133MOL0     C17876   2.103   2.639   6.820 -0.1386  0.0709 -0.6412
  133MOL0     C17877   2.081   2.510   6.773 -0.1120  0.6228  0.5645
  133MOL0     O17878   1.960   2.445   6.783 -0.4682 -0.5918 -0.1627
  133MOL0     C17879   1.902   2.367   6.679  0.4648 -0.4185  0.1263
  133MOL0     C17880   1.751   2.390   6.704  0.2463  0.0303 -0.0672
  133MOL0     C17881   1.715   2.535   6.669  0.3898  0.5660 -0.4522
  133MOL0     C17882   1.557   2.546   6.681  0.3448 -0.4676  0.5587
  133MOL0     C17883   1.524   2.573   6.820 -0.7719 -0.4881 -0.5118
  133MOL0     C17884   1.472   2.616   6.922 -0.4760 -0.1108 -1.1628
  133MOL0     C17885   2.187   2.441   6.702 -0.9340 -0.1580 -0.4306
  133MOL0     C17886   2.316   2.506   6.689  0.4612  0.1095  0.4161
  133MOL0     C17887   2.426   2.428   6.618  0.0752 -0.0609  0.0337
  133MOL0     H17888   2.458   2.978   6.513 -1.3897  0.3281  2.2513
  133MOL0     H17889   2.650   3.066   6.390 -2.3808  0.8658  0.9121
  133MOL0     H17890   2.952   3.230   6.590 -1.8534  0.1989 -2.4934
  133MOL0     H17891   3.041   3.076   6.644  1.5223 -0.0835 -0.6785
  133MOL0     H17892   3.207   3.242   6.527  2.2768 -3.1023 -0.8398
  133MOL0     H17893   3.092   3.240   6.391 -0.9954 -0.9615 -1.5150
  133MOL0     H17894   3.295   3.101   6.346 -0.6452  0.9386 -0.3301
  133MOL0     H17895   3.180   2.975   6.409  0.9256 -0.7237  1.7909
  133MOL0     H17896   3.387   3.137   6.560 -0.7475  0.4484  4.3578
  133MOL0     H17897   3.286   3.017   6.643  1.2581 -3.5050  0.9144
  133MOL0     H17898   3.379   2.832   6.504 -1.0025  0.7398 -0.9709
  133MOL0     H17899   3.476   2.958   6.422  0.1498 -1.0486 -0.1263
  133MOL0     H17900   3.611   3.008   6.613  2.5431 -1.8426  1.5986
  133MOL0     H17901   3.505   2.896   6.706 -0.7280 -0.6688 -1.0712
  133MOL0     H17902   3.672   2.785   6.460 -1.5169 -2.6076 -0.6280
  133MOL0     H17903   3.580   2.702   6.586 -0.0189  0.1233 -0.1992
  133MOL0     H17904   3.732   2.797   6.756 -0.2608  0.0522 -0.6999
  133MOL0     H17905   3.824   2.701   6.632 -2.1224 -1.6427  1.4535
  133MOL0     H17906   3.927   2.936   6.849 -0.0006 -0.1272 -0.0702
  133MOL0     H17907   4.157   3.204   6.692  3.1245  1.3238  1.9048
  133MOL0     H17908   4.069   3.187   6.836  2.5812  3.5840 -1.0664
  133MOL0     H17909   4.267   3.106   6.912 -0.2600  0.3587  0.9876
  133MOL0     H17910   4.201   2.952   6.860 -0.5004  1.2808  1.9327
  133MOL0     H17911   4.371   3.117   6.658  0.3951 -1.5225 -0.2745
  133MOL0     H17912   4.312   2.957   6.643 -2.1358  0.4524 -0.4349
  133MOL0     H17913   4.554   2.971   6.700 -0.0825 -0.4888 -0.7731
  133MOL0     H17914   4.466   2.878   6.832  1.4425 -0.4030 -1.7767
  133MOL0     H17915   4.559   3.226   7.045  0.8724  0.5910 -1.0030
  133MOL0     H17916   4.772   3.223   7.217  1.6872 -1.3187  1.1320
  133MOL0     H17917   5.187   2.744   7.204  0.3746 -1.3124  0.0655
  133MOL0     H17918   5.425   2.707   7.252 -0.1513 -0.2325  1.7118
  133MOL0     H17919   5.651   2.846   7.436  2.3286  1.7298  0.3868
  133MOL0     H17920   5.645   2.714   7.321  0.1249  0.4228  0.6172
  133MOL0     H17921   5.855   2.915   7.358 -0.4731  0.0099 -0.8345
  133MOL0     H17922   5.859   2.736   7.399  1.4911  0.0924 -0.7347
  133MOL0     H17923   5.798   2.699   7.155 -1.3885  0.7245  3.5223
  133MOL0     H17924   5.847   2.857   7.115 -1.0112 -0.4676 -1.0569
  133MOL0     H17925   6.034   2.689   7.077 -0.1678  1.5619 -1.3226
  133MOL0     H17926   6.045   2.648   7.249 -1.2248  1.5312  1.5313
  133MOL0     H17927   6.096   2.879   7.305 -1.8085 -3.1413  0.9231
  133MOL0     H17928   6.121   2.907   7.131  0.2968 -0.5646  0.2078
  133MOL0     H17929   6.259   2.695   7.315 -0.0716 -2.2463 -1.0572
  133MOL0     H17930   6.294   2.717   7.143 -1.0951  2.7725 -1.8579
  133MOL0     H17931   6.330   2.936   7.354  1.1618  1.9321 -1.2543
  133MOL0     H17932   6.370   2.946   7.188 -3.4402  5.0359  3.3585
  133MOL0     H17933   6.566   2.893   7.315 -0.5277  0.3546  1.8619
  133MOL0     H17934   6.486   2.743   7.385  0.2192 -0.5510 -0.3948
  133MOL0     H17935   5.508   3.122   7.217  0.7961 -1.9255 -0.7141
  133MOL0     H17936   5.244   3.166   7.204  0.7349  1.1971  2.9946
  133MOL0     H17937   4.927   2.910   6.981  1.1897  2.2181 -0.8288
  133MOL0     H17938   4.750   2.904   6.830  0.5152 -1.1576  1.6825
  133MOL0     H17939   2.905   2.952   6.718  0.3991 -2.7751 -0.4965
  133MOL0     H17940   2.724   2.840   6.821 -1.5508  0.4649 -0.7187
  133MOL0     H17941   2.236   2.800   6.838 -1.0493  0.8564 -0.6617
  133MOL0     H17942   2.026   2.690   6.878  0.6662 -0.7087  1.1658
  133MOL0     H17943   1.932   2.262   6.683 -0.6009 -0.7126  1.7711
  133MOL0     H17944   1.926   2.404   6.579 -1.9798 -1.6093 -0.9843
  133MOL0     H17945   1.733   2.373   6.811 -1.4819 -0.7971 -0.4557
  133MOL0     H17946   1.689   2.312   6.659 -0.4226 -1.1629  2.7052
  133MOL0     H17947   1.759   2.556   6.571 -1.3525 -1.2894 -1.7365
  133MOL0     H17948   1.754   2.615   6.731 -0.9308  0.5839  0.3923
  133MOL0     H17949   1.527   2.630   6.618  2.3321  0.6420  1.0479
  133MOL0     H17950   1.519   2.449   6.647  2.5733 -0.4762 -2.2100
  133MOL0     H17951   1.419   2.643   7.010 -0.3000  2.4510 -1.7643
  133MOL0     H17952   2.169   2.340   6.669 -0.5290 -0.6012  0.6697
  133MOL0     H17953   2.380   2.393   6.526  2.8559 -2.9301 -0.4374
  133MOL0     H17954   2.515   2.489   6.601 -0.0183  0.2196  0.5323
  133MOL0     H17955   2.457   2.341   6.676  2.3879  1.5057  1.3041
  134MOL0     O17956   4.614  10.631   8.762  0.5539  0.3340 -0.1676
  134MOL0     C17957   4.562  10.625   8.653  0.5033 -0.0144  0.4822
  134MOL0     O17958   4.625  10.632   8.533  0.7888 -0.6426  0.9476
  134MOL0     C17959   4.755  10.660   8.537  0.1656 -0.9111 -0.3186
  134MOL0     C17960   4.792  10.795   8.569  0.0506 -0.3293 -0.1443
  134MOL0     C17961   4.934  10.829   8.569  0.2030 -0.5652 -0.3131
  134MOL0     C17962   5.032  10.747   8.517  0.0447  0.2380 -1.1492
  134MOL0     O17963   5.169  10.782   8.523 -0.1991  0.1722 -0.1012
  134MOL0     C17964   5.187  10.906   8.459  0.2954 -0.2042  0.2694
  134MOL0     C17965   5.329  10.929   8.420  0.1262  0.2380 -0.0489
  134MOL0     C17966   5.394  10.847   8.299  0.0882 -0.4360 -0.5812
  134MOL0     C17967   5.536  10.891   8.261  0.8350  0.1947 -0.2211
  134MOL0     C17968   5.642  10.798   8.326  0.1136 -0.3313 -0.3590
  134MOL0     C17969   5.784  10.834   8.275  0.2207 -0.1222  0.2676
  134MOL0     C17970   5.898  10.731   8.301 -0.1628  0.1759 -0.1302
  134MOL0     C17971   6.037  10.790   8.284  0.9994 -0.4845 -0.7731
  134MOL0     N17972   6.130  10.682   8.288  0.6263  0.1748  0.6906
  134MOL0     C17973   6.139  10.586   8.383 -0.8818  0.0662 -0.6326
  134MOL0     C17974   6.237  10.498   8.336 -0.3138  0.3386 -0.4464
  134MOL0     C17975   6.310  10.377   8.396 -0.1886  0.5860 -0.4727
  134MOL0     C17976   6.430  10.417   8.483 -0.8436 -0.0336  0.2761
  134MOL0     C17977   6.560  10.349   8.418 -0.0100 -0.3052 -0.1835
  134MOL0     C17978   6.688  10.398   8.490  0.1399 -0.2840 -0.9149
  134MOL0     O17979   6.715  10.537   8.450  0.1026  0.0610 -0.1697
  134MOL0     C17980   6.849  10.581   8.440  0.0938  0.2088  0.2219
  134MOL0     C17981   6.869  10.706   8.373 -0.4868 -0.1653  0.1502
  134MOL0     C17982   6.994  10.762   8.343 -0.3320 -0.1747 -0.0438
  134MOL0     C17983   7.104  10.703   8.401  0.5926 -0.3062 -0.4366
  134MOL0     C17984   7.237  10.766   8.389  0.0117  0.3788 -0.1523
  134MOL0     O17985   7.237  10.883   8.313 -0.1643 -0.1800 -0.4927
  134MOL0     C17986   7.351  10.959   8.322  0.7609 -0.7283  0.4018
  134MOL0     C17987   7.476  10.900   8.285 -0.3517  0.6277 -0.0403
  134MOL0     C17988   7.601  10.976   8.296 -0.0319 -0.0573 -0.6473
  134MOL0     C17989   7.596  11.098   8.349 -1.0446 -0.1293  0.4129
  134MOL0     O17990   7.711  11.172   8.354 -0.5303 -0.0957  0.0805
  134MOL0     C17991   7.723  11.275   8.258 -0.2700  0.5353  0.5760
  134MOL0     C17992   7.864  11.290   8.215  0.3430  0.3661 -0.3791
  134MOL0     C17993   7.907  11.151   8.147 -0.2655 -0.0132 -0.0476
  134MOL0     C17994   8.047  11.161   8.101 -0.9094  0.1985  0.6943
  134MOL0     C17995   8.098  11.048   8.006 -0.0289 -1.4607  0.4849
  134MOL0     C17996   8.068  10.914   8.075 -0.1964 -0.1848 -0.0582
  134MOL0     C17997   8.112  10.798   7.985  0.0911  0.0821 -0.7077
  134MOL0     C17998   8.107  10.656   8.060  0.5006  0.1920 -0.1840
  134MOL0    Cl17999   8.272  10.628   8.120 -0.0690  0.2421 -0.2888
  134MOL0     C18000   7.477  11.158   8.399  0.1200  0.4593  0.5025
  134MOL0     C18001   7.355  11.086   8.379  0.0537  0.2833  0.0648
  134MOL0     O18002   7.331  10.714   8.451 -0.1633  0.5020  0.2143
  134MOL0     C18003   7.084  10.587   8.475  0.1396 -0.1872 -0.4103
  134MOL0     C18004   6.964  10.519   8.496 -0.3185  0.3465  0.6713
  134MOL0     N18005   6.275  10.546   8.212 -0.6074  0.6727  0.5801
  134MOL0     N18006   6.214  10.659   8.188  0.7017  0.1485 -0.0574
  134MOL0     C18007   4.988  10.618   8.477 -0.7254  1.1418  0.1774
  134MOL0     C18008   4.852  10.577   8.488  0.3793 -0.1509 -0.0025
  134MOL0     C18009   4.415  10.577   8.643  0.1812  0.4267  0.8999
  134MOL0     C18010   4.361  10.551   8.515  0.1099  0.2086 -0.7779
  134MOL0     C18011   4.227  10.517   8.491  0.3427 -0.0752  0.1760
  134MOL0     C18012   4.140  10.526   8.603 -0.5557 -0.0280 -0.7499
  134MOL0     O18013   4.007  10.491   8.576  0.7785 -0.0302 -0.0579
  134MOL0     C18014   3.911  10.467   8.684 -0.8970  0.3093  0.0757
  134MOL0     C18015   3.799  10.378   8.634 -0.4172  0.1577  0.7846
  134MOL0     C18016   3.693  10.343   8.745  0.5114 -0.4511  0.1789
  134MOL0     C18017   3.561  10.429   8.751  0.1619  0.4446 -0.4046
  134MOL0     C18018   3.584  10.565   8.795 -0.5983  0.1632 -0.1397
  134MOL0     C18019   3.609  10.681   8.816  0.1945 -0.7357 -0.0951
  134MOL0     C18020   4.187  10.560   8.727 -0.6558  0.3982 -0.5261
  134MOL0     C18021   4.325  10.581   8.756 -0.0676 -0.8470  0.2666
  134MOL0     C18022   4.360  10.619   8.893 -0.0561  1.1369  0.6009
  134MOL0     H18023   4.727  10.874   8.605 -0.9041  0.1241 -2.6403
  134MOL0     H18024   4.960  10.923   8.616  0.3484 -1.2255  0.9536
  134MOL0     H18025   5.124  10.925   8.372 -0.2303  3.2337  1.2343
  134MOL0     H18026   5.158  10.980   8.534 -1.6220 -0.7830  0.1386
  134MOL0     H18027   5.397  10.913   8.505 -0.6334 -1.5137  0.2843
  134MOL0     H18028   5.329  11.035   8.395 -4.1090  0.3043 -0.4700
  134MOL0     H18029   5.333  10.851   8.209  0.1401 -1.7134 -0.6905
  134MOL0     H18030   5.393  10.741   8.324  0.6812 -0.4262 -0.5028
  134MOL0     H18031   5.556  10.878   8.154  5.1313 -1.3353  0.5363
  134MOL0     H18032   5.553  10.995   8.289  0.5592  0.2013 -0.0827
  134MOL0     H18033   5.634  10.808   8.435  0.1944  0.5792 -0.4291
  134MOL0     H18034   5.629  10.693   8.298  1.5631  0.1690 -3.2533
  134MOL0     H18035   5.786  10.856   8.168  0.4599  0.1788  0.3329
  134MOL0     H18036   5.805  10.923   8.335 -0.7768  0.5247 -0.3132
  134MOL0     H18037   5.889  10.648   8.230  0.1303 -0.4806  0.5904
  134MOL0     H18038   5.898  10.687   8.401 -0.2126  1.5752  0.5015
  134MOL0     H18039   6.048  10.845   8.190  0.3279  0.6823 -0.1937
  134MOL0     H18040   6.064  10.866   8.357  2.1247  0.1756 -1.8380
  134MOL0     H18041   6.087  10.583   8.478  0.5961 -0.3233  0.1871
  134MOL0     H18042   6.234  10.329   8.458 -0.4104  0.8747 -0.5196
  134MOL0     H18043   6.330  10.294   8.327 -0.5889 -1.4558  1.7070
  134MOL0     H18044   6.448  10.524   8.494  1.1540 -0.4012  0.9545
  134MOL0     H18045   6.419  10.390   8.588  1.8570  2.4175  1.3133
  134MOL0     H18046   6.571  10.391   8.318 -1.6862  0.9270  0.0904
  134MOL0     H18047   6.541  10.242   8.426 -2.6530  0.1427  0.8266
  134MOL0     H18048   6.772  10.336   8.459 -0.1054 -0.7975 -0.5721
  134MOL0     H18049   6.684  10.397   8.599 -1.2564  2.2770 -0.8496
  134MOL0     H18050   6.780  10.758   8.338 -2.1483 -1.6971  1.7982
  134MOL0     H18051   6.995  10.852   8.282  0.3850  0.4924  0.9216
  134MOL0     H18052   7.479  10.796   8.255  0.0077  0.3279  0.9740
  134MOL0     H18053   7.696  10.928   8.275 -0.0592 -1.1367  1.4314
  134MOL0     H18054   7.666  11.261   8.166  1.7647 -2.2964 -0.3734
  134MOL0     H18055   7.694  11.373   8.297  1.2924  0.8003  1.1647
  134MOL0     H18056   7.874  11.366   8.138  1.5714 -1.4351 -2.0925
  134MOL0     H18057   7.928  11.304   8.303 -1.9557 -0.6122  1.5589
  134MOL0     H18058   7.904  11.070   8.220  0.4065 -1.1561 -1.2420
  134MOL0     H18059   7.846  11.117   8.063  0.6113 -0.6220 -0.4636
  134MOL0     H18060   8.115  11.166   8.186 -0.1112  1.8602  0.0009
  134MOL0     H18061   8.063  11.257   8.051 -0.9803 -0.7141 -1.1660
  134MOL0     H18062   8.203  11.076   7.992 -0.3569  0.2762  1.2219
  134MOL0     H18063   8.048  11.052   7.909  1.9935 -0.5086 -0.5937
  134MOL0     H18064   8.120  10.918   8.172  0.0302  1.1840 -0.2236
  134MOL0     H18065   7.962  10.899   8.096 -0.2120 -1.9381 -1.1618
  134MOL0     H18066   8.208  10.819   7.938 -0.5892 -1.2179 -2.8384
  134MOL0     H18067   8.030  10.788   7.913 -0.9637 -0.6204  0.5509
  134MOL0     H18068   8.030  10.656   8.138 -0.5600 -0.5144 -1.1852
  134MOL0     H18069   8.078  10.586   7.980  0.3450  1.8200 -1.6177
  134MOL0     H18070   7.478  11.253   8.452  0.5956  1.0345 -0.5239
  134MOL0     H18071   7.263  11.131   8.413 -0.1182 -1.6530  2.4707
  134MOL0     H18072   7.168  10.553   8.536  0.2262  1.5345  0.4829
  134MOL0     H18073   6.947  10.428   8.553 -0.5932  0.4229  0.7148
  134MOL0     H18074   5.065  10.543   8.466 -1.6872 -0.0601  1.3263
  134MOL0     H18075   4.812  10.477   8.474 -1.7658  0.8022 -1.2508
  134MOL0     H18076   4.421  10.543   8.424 -1.0797 -0.4378 -1.5331
  134MOL0     H18077   4.182  10.476   8.402  4.6743 -1.7237 -1.5088
  134MOL0     H18078   3.876  10.568   8.708  2.6690  2.1718 -1.6838
  134MOL0     H18079   3.960  10.410   8.764 -0.1434  0.7608 -0.0461
  134MOL0     H18080   3.839  10.290   8.583  0.6871  1.3038 -0.3903
  134MOL0     H18081   3.744  10.431   8.555  1.7414 -0.8066 -1.4906
  134MOL0     H18082   3.742  10.344   8.843 -0.1877  1.6846  0.5438
  134MOL0     H18083   3.662  10.239   8.736  3.2597 -1.5759  2.2688
  134MOL0     H18084   3.502  10.427   8.658  0.4156 -1.0064 -0.5492
  134MOL0     H18085   3.500  10.389   8.832  2.3186  1.0057  1.6037
  134MOL0     H18086   3.626  10.787   8.826 -2.6228 -0.2562  0.5349
  134MOL0     H18087   4.111  10.565   8.805 -0.3121 -0.9867 -0.0738
  134MOL0     H18088   4.284  10.578   8.961  1.8095 -2.1806  0.9168
  134MOL0     H18089   4.455  10.587   8.936 -1.5180  1.7819  4.8631
  134MOL0     H18090   4.366  10.728   8.893  5.7659  1.1456 -1.6518
  135MOL0     O18091   0.182  11.197   9.349 -0.5162 -1.1657  0.0382
  135MOL0     C18092   0.198  11.290   9.270  0.3285 -0.0462 -0.5405
  135MOL0     O18093   0.316  11.336   9.226 -0.1176 -0.6297  0.1053
  135MOL0     C18094   0.434  11.313   9.290 -0.7684  0.2254 -0.9302
  135MOL0     C18095   0.506  11.424   9.328 -0.2149 -0.7974 -0.1099
  135MOL0     C18096   0.637  11.422   9.372 -0.2149 -0.4595  0.5023
  135MOL0     C18097   0.704  11.302   9.381 -0.3047 -0.3548 -0.4665
  135MOL0     O18098   0.840  11.287   9.419 -0.4983  0.1815 -0.2970
  135MOL0     C18099   0.896  11.396   9.495  0.4830  0.1694 -0.1949
  135MOL0     C18100   1.016  11.354   9.566  0.7373  0.5342  0.1642
  135MOL0     C18101   1.112  11.294   9.457 -0.2145  0.0637  0.5214
  135MOL0     C18102   1.233  11.230   9.525 -0.2907 -0.2033 -0.4634
  135MOL0     C18103   1.340  11.322   9.536 -0.3057  0.8124 -0.1917
  135MOL0     C18104   1.468  11.256   9.593 -0.3181  0.0609  0.7445
  135MOL0     C18105   1.586  11.353   9.583  0.0773 -0.3903 -0.6247
  135MOL0     C18106   1.714  11.287   9.630 -0.5874 -0.5153 -0.3555
  135MOL0     N18107   1.770  11.187   9.548 -0.6063  0.8925  0.1148
  135MOL0     C18108   1.792  11.206   9.413  0.1656 -0.4771  0.4906
  135MOL0     C18109   1.843  11.087   9.375 -0.1122 -0.6520  0.6049
  135MOL0     C18110   1.865  11.048   9.229 -0.5075  0.2633 -0.4047
  135MOL0     C18111   2.017  11.021   9.207  0.0843 -0.7951 -0.7258
  135MOL0     C18112   2.069  10.968   9.077 -0.7349 -0.8338 -0.0788
  135MOL0     C18113   2.223  10.957   9.075 -0.3088 -0.1710  0.1625
  135MOL0     O18114   2.282  11.072   9.135 -0.0602  0.5434  0.2587
  135MOL0     C18115   2.416  11.105   9.110  0.4492 -0.2215  0.0710
  135MOL0     C18116   2.501  11.035   9.022 -0.6401 -0.2290  1.4209
  135MOL0     C18117   2.630  11.087   9.012  0.5535  0.4739  1.1844
  135MOL0     C18118   2.676  11.200   9.083 -0.8748 -0.6217  0.2702
  135MOL0     C18119   2.811  11.257   9.051 -0.4591 -0.7943  0.0363
  135MOL0     O18120   2.834  11.392   9.067  0.1089 -0.2989 -0.8508
  135MOL0     C18121   2.947  11.458   9.026  0.0594 -0.3150  0.1954
  135MOL0     C18122   2.953  11.582   9.090 -0.1098  0.4811  0.0237
  135MOL0     C18123   3.071  11.663   9.079 -0.5571  0.1647 -0.5165
  135MOL0     C18124   3.175  11.623   8.999 -0.1166  0.6370  0.1719
  135MOL0     O18125   3.294  11.692   8.976  0.2909 -0.4362 -0.5606
  135MOL0     C18126   3.291  11.838   9.007  0.4289  1.0166  0.2775
  135MOL0     C18127   3.331  11.887   9.146  0.5088  0.4903 -0.6198
  135MOL0     C18128   3.460  11.839   9.204 -0.4084  0.2622 -0.4519
  135MOL0     C18129   3.584  11.902   9.133  0.6464 -0.0778  0.0081
  135MOL0     C18130   3.704  11.813   9.149 -0.5646 -0.1243  0.0959
  135MOL0     C18131   3.838  11.893   9.115  0.7368 -0.0133 -0.0302
  135MOL0     C18132   3.903  11.978   9.227  0.5997  0.6090 -0.8045
  135MOL0     C18133   4.051  11.992   9.209  0.4762 -0.1491  0.4204
  135MOL0    Cl18134   4.105  12.078   9.355  0.0374 -0.0563  0.4891
  135MOL0     C18135   3.156  11.510   8.918  1.5213  0.3784  0.0078
  135MOL0     C18136   3.043  11.424   8.934  0.4036 -0.9184  0.3900
  135MOL0     O18137   2.892  11.182   9.005 -0.2853  0.0742  0.6196
  135MOL0     C18138   2.604  11.256   9.177  0.6862 -0.4014  0.2342
  135MOL0     C18139   2.470  11.208   9.191 -0.0119 -0.6547  0.0360
  135MOL0     N18140   1.840  11.000   9.485  0.0785 -0.8051 -1.0057
  135MOL0     N18141   1.808  11.064   9.593 -0.0091 -0.4324 -0.6015
  135MOL0     C18142   0.634  11.187   9.356 -0.7956 -0.1729 -0.0486
  135MOL0     C18143   0.504  11.193   9.296 -0.2515  0.2911 -1.0578
  135MOL0     C18144   0.074  11.364   9.227 -0.3716  0.1406  0.3840
  135MOL0     C18145   0.100  11.493   9.182  1.1284 -0.5818  1.3968
  135MOL0     C18146   0.002  11.575   9.140  0.6239 -1.0508 -0.4032
  135MOL0     C18147  -0.133  11.542   9.171 -0.3081  0.3400  0.1476
  135MOL0     O18148  -0.223  11.645   9.157 -0.2636  1.2494  0.1558
  135MOL0     C18149  -0.355  11.643   9.196  0.4267 -0.2837  0.2557
  135MOL0     C18150  -0.355  11.687   9.346 -0.4830 -0.5395  0.1702
  135MOL0     C18151  -0.496  11.659   9.408  0.1679  0.7423  0.3122
  135MOL0     C18152  -0.490  11.683   9.560  0.6897 -0.5357 -0.8726
  135MOL0     C18153  -0.615  11.632   9.616 -0.4769  1.0005 -0.5314
  135MOL0     C18154  -0.698  11.562   9.675 -0.2408 -0.2025 -0.1266
  135MOL0     C18155  -0.159  11.416   9.218  0.2037 -0.5726  0.1600
  135MOL0     C18156  -0.059  11.321   9.239 -0.5329  1.5018  1.1881
  135MOL0     C18157  -0.108  11.179   9.276  0.3582 -0.1458 -0.2384
  135MOL0     H18158   0.459  11.521   9.316 -0.5596 -0.7214  1.6101
  135MOL0     H18159   0.693  11.515   9.378  1.6909 -1.5534  0.2804
  135MOL0     H18160   0.924  11.476   9.425  1.9956  1.6796  2.0232
  135MOL0     H18161   0.826  11.439   9.567 -0.6636  1.3426 -1.9148
  135MOL0     H18162   0.984  11.293   9.650 -0.2817  0.3189 -0.3608
  135MOL0     H18163   1.065  11.445   9.603  0.7527 -0.1687  1.9764
  135MOL0     H18164   1.141  11.367   9.382 -1.5487  0.6260  0.5291
  135MOL0     H18165   1.064  11.210   9.405 -0.5616  1.3964 -1.4035
  135MOL0     H18166   1.202  11.190   9.622 -0.7797  2.0347  0.3778
  135MOL0     H18167   1.258  11.144   9.462 -1.4516 -0.4533 -0.6106
  135MOL0     H18168   1.359  11.366   9.437  0.1121  1.0402 -0.0164
  135MOL0     H18169   1.304  11.400   9.603  0.4807  0.4863  0.6261
  135MOL0     H18170   1.441  11.224   9.695 -2.0815 -1.5104 -0.1598
  135MOL0     H18171   1.484  11.163   9.537 -1.3331  0.3048  0.0242
  135MOL0     H18172   1.560  11.438   9.646 -1.2130 -1.9440  1.0451
  135MOL0     H18173   1.595  11.390   9.480  1.2676  1.1855 -0.0054
  135MOL0     H18174   1.793  11.362   9.627 -2.3605  1.4414 -2.5506
  135MOL0     H18175   1.707  11.252   9.734  3.1133  2.6599  1.1914
  135MOL0     H18176   1.757  11.290   9.355 -1.2324 -1.1498  0.3169
  135MOL0     H18177   1.806  10.965   9.189 -1.5417  0.7980 -0.0350
  135MOL0     H18178   1.828  11.126   9.161  1.6615 -0.3920 -2.4721
  135MOL0     H18179   2.070  11.115   9.221 -1.1977  0.0435 -1.3397
  135MOL0     H18180   2.042  10.946   9.283  0.9371 -0.3878 -0.5973
  135MOL0     H18181   2.038  11.038   8.999  0.0834 -0.0021  0.3125
  135MOL0     H18182   2.036  10.868   9.047 -0.2429 -1.0031 -0.0527
  135MOL0     H18183   2.264  10.954   8.974  0.6639 -1.2884  0.5682
  135MOL0     H18184   2.262  10.869   9.126  3.8148  0.6445 -1.1600
  135MOL0     H18185   2.464  10.950   8.966  0.8863 -1.4867  2.2652
  135MOL0     H18186   2.696  11.043   8.937 -0.6413  0.2901  0.2110
  135MOL0     H18187   2.876  11.628   9.151  0.0500  0.8318 -0.0401
  135MOL0     H18188   3.085  11.755   9.135 -1.8271  0.1295 -0.1013
  135MOL0     H18189   3.366  11.889   8.946 -0.5271  1.4518 -0.5606
  135MOL0     H18190   3.198  11.886   8.977 -0.6574  0.3447  2.3531
  135MOL0     H18191   3.334  11.996   9.137 -3.1267  0.7749  0.1194
  135MOL0     H18192   3.246  11.865   9.211  0.7504  2.5777  0.4774
  135MOL0     H18193   3.445  11.852   9.311  1.6659 -0.2323 -0.0525
  135MOL0     H18194   3.472  11.731   9.194 -0.5432  0.3193 -1.3148
  135MOL0     H18195   3.602  12.007   9.158 -0.5518  0.7697 -2.3699
  135MOL0     H18196   3.573  11.917   9.025  0.3751 -0.2866  0.0052
  135MOL0     H18197   3.689  11.732   9.077  1.1039  0.6637 -1.2173
  135MOL0     H18198   3.717  11.771   9.249  0.4122 -1.2119 -0.4508
  135MOL0     H18199   3.911  11.816   9.090  0.8866  0.6353 -1.7416
  135MOL0     H18200   3.820  11.956   9.027 -3.7577 -0.5147  0.3427
  135MOL0     H18201   3.879  11.932   9.323  3.1628  0.5026 -0.1593
  135MOL0     H18202   3.857  12.078   9.222 -3.1165 -0.6498  2.9576
  135MOL0     H18203   4.101  11.896   9.199  1.6558  0.5595 -0.8521
  135MOL0     H18204   4.070  12.056   9.122 -1.5229  2.1193  1.5168
  135MOL0     H18205   3.242  11.476   8.861  0.8774 -1.3313  0.0018
  135MOL0     H18206   3.016  11.334   8.879  0.8963 -0.9801  0.2462
  135MOL0     H18207   2.637  11.337   9.240 -0.4834  1.4649 -1.4378
  135MOL0     H18208   2.414  11.245   9.276  1.1466  0.4197  0.3691
  135MOL0     H18209   0.688  11.093   9.359  1.3180  0.9660  2.7924
  135MOL0     H18210   0.453  11.106   9.256  0.3636 -1.1350  1.1144
  135MOL0     H18211   0.196  11.542   9.169 -0.1667  1.5784 -0.9954
  135MOL0     H18212   0.017  11.673   9.098  1.1758 -0.2812  1.4896
  135MOL0     H18213  -0.408  11.549   9.184  0.0063  0.0533 -0.6180
  135MOL0     H18214  -0.412  11.714   9.137 -0.9327 -2.6438 -1.4025
  135MOL0     H18215  -0.325  11.792   9.353 -1.7472 -0.0217 -1.4908
  135MOL0     H18216  -0.281  11.628   9.400  0.0578 -0.2972 -0.3021
  135MOL0     H18217  -0.525  11.556   9.391 -0.5681  0.1288  4.2554
  135MOL0     H18218  -0.568  11.731   9.369  2.1653  1.2082 -2.9016
  135MOL0     H18219  -0.413  11.618   9.601  1.1598 -0.7593 -2.0799
  135MOL0     H18220  -0.474  11.788   9.586 -2.0716 -0.3420  0.4641
  135MOL0     H18221  -0.762  11.505   9.739 -2.6793  1.4742 -0.9226
  135MOL0     H18222  -0.255  11.367   9.234  1.3035 -2.8073  0.1392
  135MOL0     H18223  -0.207  11.164   9.233 -0.2590  1.3524  0.6122
  135MOL0     H18224  -0.039  11.109   9.226  1.0283  0.9918 -0.9475
  135MOL0     H18225  -0.114  11.159   9.383  1.6376 -1.8595 -0.4319
  136MOL0     O18226   5.739  10.446   6.465 -0.5942  0.4986 -1.0323
  136MOL0     C18227   5.751  10.374   6.563  0.6706 -1.1245 -0.6103
  136MOL0     O18228   5.856  10.376   6.641  0.1535  0.0929 -0.3177
  136MOL0     C18229   5.967  10.459   6.626  0.2915 -0.2718 -0.0239
  136MOL0     C18230   6.040  10.482   6.504 -0.4133  0.9897 -0.1982
  136MOL0     C18231   6.157  10.548   6.509 -0.2645 -0.0968  0.5383
  136MOL0     C18232   6.203  10.604   6.631 -0.6968  0.0120  0.2785
  136MOL0     O18233   6.328  10.666   6.619 -0.0659  0.8861  0.1884
  136MOL0     C18234   6.387  10.722   6.738 -0.1015 -0.3885  0.1731
  136MOL0     C18235   6.501  10.820   6.703 -0.5620  0.3601  0.0190
  136MOL0     C18236   6.599  10.739   6.610  0.2613  0.6877  0.2895
  136MOL0     C18237   6.726  10.814   6.596 -0.5414 -0.1696  0.5084
  136MOL0     C18238   6.845  10.748   6.532  0.3590  0.2743  0.9230
  136MOL0     C18239   6.834  10.707   6.386  0.3391  0.7424 -0.8266
  136MOL0     C18240   6.943  10.598   6.350  0.6858 -0.2999  0.2290
  136MOL0     C18241   7.084  10.667   6.335 -0.1873  0.0293  0.2154
  136MOL0     N18242   7.182  10.597   6.260 -1.0037 -0.5196  0.0131
  136MOL0     C18243   7.314  10.631   6.241 -0.6867 -1.3677 -0.3494
  136MOL0     C18244   7.376  10.526   6.189  0.2220  0.0817  0.7683
  136MOL0     C18245   7.524  10.508   6.158 -0.4532  0.1502  0.3168
  136MOL0     C18246   7.548  10.512   6.010 -0.2517  0.2280  0.2749
  136MOL0     C18247   7.694  10.556   5.972  0.6735 -0.7188  0.3733
  136MOL0     C18248   7.797  10.441   5.985  0.3505 -0.4960  0.1554
  136MOL0     O18249   7.801  10.408   6.125  0.8708 -0.2682  0.7646
  136MOL0     C18250   7.838  10.279   6.165  0.0204  0.0144  0.1880
  136MOL0     C18251   7.920  10.194   6.081 -0.1894  0.1082 -0.0434
  136MOL0     C18252   7.966  10.067   6.134 -0.1076 -0.5770 -0.2097
  136MOL0     C18253   7.934  10.022   6.261  0.4012  0.5063 -0.7814
  136MOL0     C18254   7.986   9.898   6.312 -0.9074 -0.1009 -0.5641
  136MOL0     O18255   7.997   9.888   6.449  0.1170  0.3325 -0.0277
  136MOL0     C18256   8.082   9.790   6.506 -0.3359  0.7242 -0.1683
  136MOL0     C18257   8.025   9.711   6.604 -0.2774 -1.0185  0.6302
  136MOL0     C18258   8.112   9.624   6.683  0.8615  0.6680  0.1937
  136MOL0     C18259   8.250   9.620   6.656 -0.0473  0.4426 -0.2102
  136MOL0     O18260   8.337   9.539   6.721  0.1506 -0.4164 -0.8115
  136MOL0     C18261   8.428   9.459   6.646  0.0686  0.0577 -0.4429
  136MOL0     C18262   8.522   9.379   6.738  0.2942 -0.3647  0.2270
  136MOL0     C18263   8.625   9.296   6.660 -0.0048  0.1412 -0.1425
  136MOL0     C18264   8.692   9.200   6.756  0.4481 -0.6168  0.0309
  136MOL0     C18265   8.796   9.106   6.689  0.6357 -0.2469  0.1263
  136MOL0     C18266   8.727   8.986   6.632 -0.7653 -0.6822  0.3735
  136MOL0     C18267   8.815   8.877   6.580 -0.2461 -0.0175  0.5798
  136MOL0     C18268   8.726   8.765   6.517 -0.2136  0.1730  0.8060
  136MOL0    Cl18269   8.645   8.814   6.353  0.3575 -0.1121 -0.4268
  136MOL0     C18270   8.297   9.702   6.552 -0.2599  0.1449  0.3079
  136MOL0     C18271   8.215   9.779   6.468 -0.2208 -0.5432 -0.7943
  136MOL0     O18272   8.035   9.818   6.228 -0.3721 -0.8529 -0.3014
  136MOL0     C18273   7.859  10.108   6.345 -0.5890  0.9489 -0.6005
  136MOL0     C18274   7.812  10.235   6.296  0.3808  1.3388 -0.2642
  136MOL0     N18275   7.277  10.432   6.165  0.5003  0.7322  0.1687
  136MOL0     N18276   7.164  10.473   6.205 -1.1010 -0.5257  0.0478
  136MOL0     C18277   6.122  10.604   6.742 -0.4268 -0.6707  0.2079
  136MOL0     C18278   6.006  10.519   6.736  0.4123  0.0556 -0.8884
  136MOL0     C18279   5.641  10.275   6.594 -0.3107 -0.0731  0.7428
  136MOL0     C18280   5.673  10.163   6.671  0.3715 -0.9903 -0.0629
  136MOL0     C18281   5.582  10.054   6.696 -0.0020 -0.0832 -0.3261
  136MOL0     C18282   5.450  10.076   6.657 -0.0277 -0.0574  0.5635
  136MOL0     O18283   5.341   9.999   6.690 -0.4420 -0.0475  0.0561
  136MOL0     C18284   5.358   9.912   6.801 -0.0813  0.4816  0.4439
  136MOL0     C18285   5.220   9.848   6.826 -0.2685 -0.2213  0.2531
  136MOL0     C18286   5.106   9.957   6.841 -0.2586  0.0040  0.1797
  136MOL0     C18287   4.965   9.885   6.823 -0.3949  0.2368  0.0704
  136MOL0     C18288   4.947   9.797   6.933  0.1229 -0.2161 -1.1646
  136MOL0     C18289   4.937   9.716   7.031  1.0054  0.3466  0.9234
  136MOL0     C18290   5.418  10.196   6.596 -0.5065  0.0547  0.8162
  136MOL0     C18291   5.512  10.291   6.557  0.0114 -0.1265  0.2228
  136MOL0     C18292   5.470  10.417   6.486 -0.8529  0.2336  0.0072
  136MOL0     H18293   6.000  10.453   6.408 -3.4337  2.2290  0.5478
  136MOL0     H18294   6.223  10.557   6.423 -1.1589 -0.9559 -0.2508
  136MOL0     H18295   6.303  10.777   6.780 -0.8437 -0.3825 -1.2694
  136MOL0     H18296   6.416  10.638   6.801  1.8902 -0.2820 -0.5025
  136MOL0     H18297   6.556  10.852   6.792  0.3016 -2.8825  0.8058
  136MOL0     H18298   6.471  10.904   6.641  1.4826 -0.0196 -1.5964
  136MOL0     H18299   6.558  10.714   6.512  0.7186  0.0223  0.2568
  136MOL0     H18300   6.630  10.646   6.658  2.3197  1.9192  1.4893
  136MOL0     H18301   6.691  10.902   6.541 -2.3367 -1.6030 -0.7744
  136MOL0     H18302   6.761  10.844   6.695  0.2721  1.5502 -0.2644
  136MOL0     H18303   6.934  10.808   6.548 -0.0731  1.1379  0.1847
  136MOL0     H18304   6.866  10.653   6.583 -1.3613 -1.3102 -1.0864
  136MOL0     H18305   6.736  10.663   6.365 -0.3417 -0.0103  3.1937
  136MOL0     H18306   6.841  10.793   6.319 -2.0090  0.1744 -1.9446
  136MOL0     H18307   6.915  10.547   6.258 -1.3004  1.4191 -0.1896
  136MOL0     H18308   6.937  10.530   6.435 -3.3047  0.7671  0.9899
  136MOL0     H18309   7.082  10.759   6.275  1.3556  0.6462  1.0756
  136MOL0     H18310   7.117  10.684   6.437  1.3948 -0.7885 -0.1373
  136MOL0     H18311   7.368  10.719   6.273 -0.3929 -1.4213 -0.6918
  136MOL0     H18312   7.581  10.579   6.218 -0.0994  0.0089  0.1510
  136MOL0     H18313   7.549  10.406   6.188 -0.2784  0.5532  1.5754
  136MOL0     H18314   7.532  10.416   5.960 -3.0290  1.9003 -2.4236
  136MOL0     H18315   7.476  10.578   5.961 -0.1808 -0.1653 -0.3834
  136MOL0     H18316   7.712  10.639   6.042 -0.1312 -2.6609  3.0423
  136MOL0     H18317   7.697  10.581   5.866  2.5562 -0.8201  0.3595
  136MOL0     H18318   7.899  10.464   5.953  0.2550 -0.1548  0.0945
  136MOL0     H18319   7.759  10.355   5.929  0.8828 -0.0290 -0.9665
  136MOL0     H18320   7.953  10.220   5.981 -0.9770  0.7839 -0.1398
  136MOL0     H18321   8.040  10.014   6.075 -0.7072 -0.7569 -0.8164
  136MOL0     H18322   7.920   9.720   6.629  0.0274  1.5729  1.1930
  136MOL0     H18323   8.068   9.576   6.770 -0.8008  5.0846  2.0502
  136MOL0     H18324   8.359   9.390   6.596  1.2553 -1.3034 -0.2721
  136MOL0     H18325   8.477   9.509   6.562 -0.9783 -1.0717 -1.7632
  136MOL0     H18326   8.574   9.456   6.795  0.5185 -0.7259  0.5078
  136MOL0     H18327   8.466   9.317   6.809  0.0367  1.1025  1.3550
  136MOL0     H18328   8.571   9.234   6.588 -0.6352 -0.2627  0.6711
  136MOL0     H18329   8.697   9.358   6.605  0.5621 -0.6673 -0.3207
  136MOL0     H18330   8.620   9.145   6.817  0.6321 -0.6321  0.2405
  136MOL0     H18331   8.743   9.268   6.826 -0.3603 -0.9920  1.0206
  136MOL0     H18332   8.866   9.075   6.767  1.5684  0.0530 -0.5745
  136MOL0     H18333   8.854   9.158   6.612 -0.2937  2.6560  1.2467
  136MOL0     H18334   8.655   8.952   6.707  0.9554 -0.0838  2.3771
  136MOL0     H18335   8.673   9.011   6.540  1.9006 -0.3955 -1.2260
  136MOL0     H18336   8.881   8.837   6.657  0.4009 -1.7188 -0.7745
  136MOL0     H18337   8.885   8.906   6.501 -0.0157  0.4892  0.9664
  136MOL0     H18338   8.782   8.672   6.505 -0.8202 -0.4050  2.1747
  136MOL0     H18339   8.649   8.742   6.591 -0.6643  0.2808  0.3785
  136MOL0     H18340   8.403   9.693   6.531 -0.2519 -1.3132  0.8361
  136MOL0     H18341   8.253   9.848   6.393  0.4004  2.0821  1.7780
  136MOL0     H18342   7.828  10.079   6.445 -0.9150  1.1816 -0.6331
  136MOL0     H18343   7.759  10.306   6.359  0.0785 -0.2455  1.3528
  136MOL0     H18344   6.155  10.653   6.833  1.2980 -0.1608 -0.6688
  136MOL0     H18345   5.949  10.493   6.825 -0.0362 -0.4685 -1.3227
  136MOL0     H18346   5.775  10.152   6.707  1.0729  0.5699 -1.4100
  136MOL0     H18347   5.614   9.958   6.735 -2.9571 -2.5952 -3.5258
  136MOL0     H18348   5.393   9.959   6.893  2.3265  0.4997 -0.3843
  136MOL0     H18349   5.426   9.828   6.781 -1.1256 -0.9213  2.5083
  136MOL0     H18350   5.231   9.809   6.927 -0.1295  1.1975  0.8083
  136MOL0     H18351   5.189   9.782   6.744 -0.5844  4.2708 -3.6824
  136MOL0     H18352   5.115  10.037   6.767  0.0996  0.1383  0.3631
  136MOL0     H18353   5.117  10.009   6.937  0.1051 -1.1491  0.7789
  136MOL0     H18354   4.878   9.950   6.811 -1.3768 -0.3081  3.1094
  136MOL0     H18355   4.957   9.828   6.730 -0.8055 -0.5486  0.5732
  136MOL0     H18356   4.928   9.653   7.117  0.4630 -2.6544 -1.1834
  136MOL0     H18357   5.312  10.212   6.575 -0.9269 -3.1946 -0.0676
  136MOL0     H18358   5.515  10.431   6.387  1.9876  0.3156  1.2069
  136MOL0     H18359   5.362  10.433   6.480 -0.6837  2.0485  1.1354
  136MOL0     H18360   5.514  10.499   6.543  2.8595 -1.4464 -0.1477
  137MOL0     O18361   6.171   2.333   0.001  0.3606 -0.7528 -0.1002
  137MOL0     C18362   6.153   2.394  -0.109  0.0062 -0.0551 -0.3598
  137MOL0     O18363   6.244   2.414  -0.206 -0.2450 -0.0698 -0.4878
  137MOL0     C18364   6.361   2.344  -0.202 -0.1084  0.8743 -0.1442
  137MOL0     C18365   6.372   2.214  -0.156  0.0024  0.1354 -0.2474
  137MOL0     C18366   6.498   2.146  -0.158 -0.2291  0.2280 -0.3400
  137MOL0     C18367   6.600   2.214  -0.220 -0.5530  0.3961 -0.8267
  137MOL0     O18368   6.726   2.151  -0.237 -0.6384 -0.5866  0.0422
  137MOL0     C18369   6.763   2.025  -0.174  0.3812  0.3761 -0.5826
  137MOL0     C18370   6.909   1.989  -0.218 -0.2597 -1.0161  0.3093
  137MOL0     C18371   7.003   2.078  -0.133  0.7463  0.7817  0.6542
  137MOL0     C18372   7.144   2.060  -0.188 -1.1988 -0.8739 -0.2425
  137MOL0     C18373   7.244   2.131  -0.098 -0.2704  0.7473 -0.3706
  137MOL0     C18374   7.389   2.125  -0.143  0.5105  0.1427  0.5037
  137MOL0     C18375   7.487   2.233  -0.085  0.0747 -0.1210  0.1614
  137MOL0     C18376   7.633   2.185  -0.117  0.9168  0.0945  0.8804
  137MOL0     N18377   7.730   2.284  -0.062 -0.2845  0.8627 -0.1930
  137MOL0     C18378   7.753   2.408  -0.119  0.6077  0.8634  0.9844
  137MOL0     C18379   7.864   2.460  -0.067 -0.3022  0.6302  0.6042
  137MOL0     C18380   7.945   2.576  -0.108  0.6222  0.8013 -0.2801
  137MOL0     C18381   7.907   2.629  -0.250  0.3478  0.2365 -0.4597
  137MOL0     C18382   8.007   2.720  -0.299 -1.1019 -0.2180  0.1714
  137MOL0     C18383   8.025   2.840  -0.202  0.0369  0.2526  0.7510
  137MOL0     O18384   8.080   2.955  -0.275 -0.0415 -0.4676 -0.1938
  137MOL0     C18385   8.217   2.972  -0.289  0.0416 -0.2461 -0.4773
  137MOL0     C18386   8.307   2.913  -0.203 -0.4140 -0.0323  0.4264
  137MOL0     C18387   8.445   2.930  -0.222 -0.7180 -0.3201  0.4163
  137MOL0     C18388   8.495   3.016  -0.328 -0.3257  1.1444 -0.5842
  137MOL0     C18389   8.636   3.042  -0.355  0.2995 -0.3194 -0.2614
  137MOL0     O18390   8.728   2.986  -0.265  0.2387  0.3599 -0.6539
  137MOL0     C18391   8.865   3.010  -0.254 -0.2512 -0.5103 -0.7188
  137MOL0     C18392   8.943   3.081  -0.354 -0.4839  0.2937  0.0289
  137MOL0     C18393   9.078   3.104  -0.323 -0.3213  0.4723 -0.2350
  137MOL0     C18394   9.141   3.060  -0.203 -0.3926  0.4740 -0.3943
  137MOL0     O18395   9.270   3.079  -0.171 -0.1152  0.2593  1.0353
  137MOL0     C18396   9.351   3.164  -0.254  0.3555 -0.7013 -0.2734
  137MOL0     C18397   9.501   3.140  -0.209 -0.2593 -0.1446 -0.1900
  137MOL0     C18398   9.560   3.013  -0.279 -0.2817  0.7776  0.1403
  137MOL0     C18399   9.708   2.986  -0.238  0.4630 -0.6906 -0.2624
  137MOL0     C18400   9.804   3.055  -0.337  0.1269  0.3888  0.2742
  137MOL0     C18401   9.945   3.006  -0.300  0.2326 -0.0081  0.0601
  137MOL0     C18402  10.021   2.994  -0.430 -0.8974  0.2301  0.4625
  137MOL0     C18403  10.149   2.917  -0.394  0.2194  0.4716  0.4875
  137MOL0    Cl18404  10.234   2.874  -0.546 -0.4119  0.0491  0.5152
  137MOL0     C18405   9.067   2.974  -0.118  0.2094 -0.2267 -0.2552
  137MOL0     C18406   8.932   2.947  -0.146 -0.2065 -0.2154 -0.3497
  137MOL0     O18407   8.666   3.131  -0.442  0.3162  0.4782  0.3502
  137MOL0     C18408   8.394   3.068  -0.423  0.0908 -0.6018 -0.6372
  137MOL0     C18409   8.263   3.054  -0.394  0.6154  0.2449  0.2532
  137MOL0     N18410   7.906   2.361   0.025 -0.1888  0.2746  0.3001
  137MOL0     N18411   7.828   2.260   0.023  0.0666  0.2298 -0.3812
  137MOL0     C18412   6.592   2.339  -0.266  0.5581  0.0358  0.9802
  137MOL0     C18413   6.473   2.408  -0.260  0.3557 -0.5282  0.4419
  137MOL0     C18414   6.017   2.459  -0.130 -0.2698 -0.3686 -0.0922
  137MOL0     C18415   5.964   2.440  -0.260 -0.4549 -0.0908 -0.3278
  137MOL0     C18416   5.832   2.478  -0.298 -0.9789 -0.6716 -0.3788
  137MOL0     C18417   5.754   2.548  -0.206  0.1108 -0.8204  0.9376
  137MOL0     O18418   5.640   2.593  -0.256 -0.2553  0.0282 -0.3815
  137MOL0     C18419   5.554   2.679  -0.176 -0.5172  0.2953  0.0286
  137MOL0     C18420   5.410   2.664  -0.234  0.1044  0.1195  0.1617
  137MOL0     C18421   5.347   2.535  -0.178 -0.5273  0.6168 -0.1856
  137MOL0     C18422   5.265   2.547  -0.046 -0.1654  0.0156 -0.1493
  137MOL0     C18423   5.338   2.614   0.066 -0.8626 -0.0572 -0.0522
  137MOL0     C18424   5.402   2.666   0.146 -0.1096  0.2907 -0.2467
  137MOL0     C18425   5.810   2.577  -0.079 -0.2599 -0.2943 -0.3810
  137MOL0     C18426   5.937   2.533  -0.034  0.7756  0.3816  0.9736
  137MOL0     C18427   5.985   2.571   0.097  0.4721  1.4988 -0.2367
  137MOL0     H18428   6.290   2.167  -0.102 -0.2614  3.1625  2.2746
  137MOL0     H18429   6.499   2.052  -0.103  2.3326  2.4543  3.9417
  137MOL0     H18430   6.748   2.043  -0.067  0.2479  3.6741 -1.0460
  137MOL0     H18431   6.690   1.949  -0.204  1.8940 -0.6722 -1.7839
  137MOL0     H18432   6.921   2.010  -0.325  1.4874 -1.0485  0.4774
  137MOL0     H18433   6.924   1.881  -0.212 -0.7524 -1.0927  0.2381
  137MOL0     H18434   6.991   2.045  -0.030 -1.1788 -1.2575 -0.1415
  137MOL0     H18435   6.974   2.182  -0.150 -2.0618  0.0375  0.3312
  137MOL0     H18436   7.162   1.952  -0.195  1.1219 -0.5736  0.0902
  137MOL0     H18437   7.156   2.091  -0.292  1.3879  0.7989  0.4733
  137MOL0     H18438   7.215   2.236  -0.105  3.0959  1.7705 -0.9923
  137MOL0     H18439   7.237   2.090   0.003 -1.5612  0.9191 -0.3840
  137MOL0     H18440   7.413   2.021  -0.122 -3.8692 -0.8479  1.7284
  137MOL0     H18441   7.392   2.141  -0.251 -0.9788 -0.4890  0.3417
  137MOL0     H18442   7.484   2.232   0.024  2.2531  1.2151  0.2891
  137MOL0     H18443   7.462   2.336  -0.111 -0.3028  0.0019  0.9823
  137MOL0     H18444   7.640   2.084  -0.077 -0.7075 -1.2035 -1.8055
  137MOL0     H18445   7.655   2.178  -0.224  3.8270  1.6034  1.2948
  137MOL0     H18446   7.702   2.444  -0.208  1.2019  1.3077  0.8191
  137MOL0     H18447   7.927   2.654  -0.033 -2.0713  0.8158 -0.8552
  137MOL0     H18448   8.052   2.554  -0.109  0.5418 -0.0986 -3.9779
  137MOL0     H18449   7.911   2.538  -0.310 -0.2713 -1.6842  2.1943
  137MOL0     H18450   7.804   2.667  -0.253 -0.3580 -1.6571 -2.7620
  137MOL0     H18451   7.962   2.752  -0.393 -0.7387 -2.7443 -0.9329
  137MOL0     H18452   8.105   2.676  -0.316 -0.8054 -0.4461  2.2021
  137MOL0     H18453   8.075   2.803  -0.112 -2.8201 -1.7406  1.6523
  137MOL0     H18454   7.929   2.877  -0.166 -0.8418 -0.1992 -0.9999
  137MOL0     H18455   8.273   2.849  -0.122 -3.6816  3.0808  1.7429
  137MOL0     H18456   8.519   2.877  -0.164  0.9483  0.1653 -1.1576
  137MOL0     H18457   8.900   3.105  -0.450  2.1001 -1.3792 -1.6675
  137MOL0     H18458   9.128   3.162  -0.399  1.1723 -0.1825  0.2168
  137MOL0     H18459   9.340   3.129  -0.358 -0.1254  0.0871 -0.4996
  137MOL0     H18460   9.337   3.272  -0.241  0.3334 -0.7131 -0.1975
  137MOL0     H18461   9.556   3.230  -0.237  0.1117 -0.2727  0.1127
  137MOL0     H18462   9.502   3.123  -0.101  1.0063 -2.6493 -0.5033
  137MOL0     H18463   9.504   2.925  -0.247  0.3600  0.0646 -0.6360
  137MOL0     H18464   9.554   3.012  -0.388 -0.6957 -1.5678  0.1239
  137MOL0     H18465   9.716   2.877  -0.237  1.7830 -0.6000  1.1150
  137MOL0     H18466   9.724   3.010  -0.133  1.5422 -1.6780 -0.1842
  137MOL0     H18467   9.801   3.164  -0.332  0.5555  0.4547 -0.7568
  137MOL0     H18468   9.774   3.032  -0.439  0.4857 -2.3634  0.7245
  137MOL0     H18469   9.989   3.081  -0.233 -2.4758 -0.1095  2.1509
  137MOL0     H18470   9.933   2.905  -0.260 -0.8148 -0.8278 -2.1590
  137MOL0     H18471  10.056   3.087  -0.476  0.5873 -1.1036 -1.3020
  137MOL0     H18472   9.963   2.935  -0.502  1.1355 -1.1433 -0.1603
  137MOL0     H18473  10.216   2.975  -0.331  1.5117 -1.9399  1.4741
  137MOL0     H18474  10.124   2.825  -0.341  1.0979 -1.6895 -2.5486
  137MOL0     H18475   9.120   2.951  -0.026  1.9865  2.8938 -0.3402
  137MOL0     H18476   8.883   2.885  -0.072 -0.4422 -0.4301 -0.6801
  137MOL0     H18477   8.431   3.115  -0.514 -2.1326 -0.0261 -1.3051
  137MOL0     H18478   8.186   3.098  -0.457 -0.9142 -0.4379  1.5616
  137MOL0     H18479   6.672   2.395  -0.313 -1.9890  2.5421 -0.7178
  137MOL0     H18480   6.468   2.512  -0.291  0.2042 -0.9719 -1.1039
  137MOL0     H18481   6.022   2.377  -0.326 -1.4467 -1.8913  0.4360
  137MOL0     H18482   5.802   2.451  -0.398  1.2903  1.4039 -1.7361
  137MOL0     H18483   5.593   2.781  -0.181  2.0062 -0.6155 -0.4664
  137MOL0     H18484   5.555   2.649  -0.071  0.7211 -1.3313 -0.4071
  137MOL0     H18485   5.402   2.650  -0.343 -2.9338  0.8203  0.2089
  137MOL0     H18486   5.352   2.752  -0.203 -0.1821 -0.3826  1.0758
  137MOL0     H18487   5.428   2.463  -0.160  0.3980  0.9573 -2.6190
  137MOL0     H18488   5.286   2.492  -0.257  1.7350 -0.9350 -1.2140
  137MOL0     H18489   5.177   2.601  -0.082  0.0862 -0.5234 -1.6149
  137MOL0     H18490   5.235   2.450  -0.005  1.3851 -0.8219 -0.8846
  137MOL0     H18491   5.462   2.710   0.223 -0.9504 -1.6366  1.5864
  137MOL0     H18492   5.749   2.639  -0.015  0.6690 -0.1073  0.3551
  137MOL0     H18493   6.090   2.550   0.115  0.0872 -2.2304 -1.5473
  137MOL0     H18494   5.975   2.677   0.124  1.4345  1.6918 -0.5971
  137MOL0     H18495   5.931   2.506   0.167 -0.5429 -0.1281 -2.3991
  138MOL0     O18496   8.145   2.226   6.345 -0.4737 -1.0736  0.2769
  138MOL0     C18497   8.136   2.106   6.373  0.5666  0.0206  0.0524
  138MOL0     O18498   8.231   2.010   6.349  0.5260 -0.2495  0.1591
  138MOL0     C18499   8.354   2.059   6.310  0.0582 -0.1835 -0.8804
  138MOL0     C18500   8.463   2.041   6.399 -1.0807  0.1069  0.0762
  138MOL0     C18501   8.594   2.077   6.356  0.1550  0.9119  0.2350
  138MOL0     C18502   8.616   2.141   6.226  0.4829  0.4695 -0.6233
  138MOL0     O18503   8.729   2.196   6.193 -0.7550  0.8154 -0.5339
  138MOL0     C18504   8.848   2.178   6.277 -0.8536  0.5874 -0.0526
  138MOL0     C18505   8.973   2.241   6.213 -0.3870 -0.4160 -0.3303
  138MOL0     C18506   9.028   2.155   6.102  0.6182  0.3775  0.3176
  138MOL0     C18507   9.175   2.206   6.067 -0.1931 -0.1931  0.3956
  138MOL0     C18508   9.247   2.095   5.992  0.4414 -0.1953  0.3464
  138MOL0     C18509   9.212   2.079   5.853 -0.9481 -0.4531 -0.9845
  138MOL0     C18510   9.321   1.993   5.786 -0.3194 -0.2200  0.4073
  138MOL0     C18511   9.290   2.012   5.638 -0.5773  0.1559 -0.1696
  138MOL0     N18512   9.408   1.981   5.556 -0.1360  0.0059  0.0149
  138MOL0     C18513   9.524   2.058   5.539  1.2691  0.1148 -0.0091
  138MOL0     C18514   9.625   1.974   5.492  0.6104 -0.0117 -0.9885
  138MOL0     C18515   9.767   1.999   5.470 -0.1812 -0.4220  0.4737
  138MOL0     C18516   9.825   2.105   5.565  0.0955 -0.2538 -0.0152
  138MOL0     C18517   9.885   2.043   5.692 -0.0231 -0.5450  0.5120
  138MOL0     C18518   9.784   1.999   5.800  0.3951 -0.0691  0.1873
  138MOL0     O18519   9.851   1.986   5.920 -0.6598  0.4165 -0.1089
  138MOL0     C18520   9.769   1.970   6.026  0.6090 -0.1660  1.1022
  138MOL0     C18521   9.634   1.951   6.020 -0.0350 -0.9148 -0.1690
  138MOL0     C18522   9.547   1.942   6.135 -0.1903  0.5335 -0.1544
  138MOL0     C18523   9.607   1.951   6.258 -0.6769 -1.2784  0.1798
  138MOL0     C18524   9.522   1.954   6.380  0.9693 -0.9706 -0.2443
  138MOL0     O18525   9.382   1.958   6.361 -0.0531  0.1485  0.2776
  138MOL0     C18526   9.288   1.974   6.458  0.2119  0.3943 -0.7059
  138MOL0     C18527   9.168   1.913   6.430  1.0625  0.4023 -0.6444
  138MOL0     C18528   9.061   1.926   6.520 -0.0205  0.2884  0.5761
  138MOL0     C18529   9.083   1.990   6.638  0.5246  0.1434  0.3550
  138MOL0     O18530   8.991   1.993   6.736 -0.2592  1.0363 -0.2665
  138MOL0     C18531   8.877   2.063   6.704 -0.2631  0.5341  0.3289
  138MOL0     C18532   8.791   2.054   6.827  1.3549 -0.0534 -0.7877
  138MOL0     C18533   8.707   1.923   6.828 -0.0579 -0.2853  0.2912
  138MOL0     C18534   8.597   1.930   6.937 -0.5223 -0.7692 -0.5705
  138MOL0     C18535   8.557   1.790   6.983 -0.3211  0.5574 -0.3779
  138MOL0     C18536   8.488   1.787   7.113  0.9084 -0.9552 -1.0603
  138MOL0     C18537   8.348   1.823   7.100 -0.4486 -0.2649  0.1929
  138MOL0     C18538   8.265   1.838   7.227  0.6402 -0.0805 -0.4143
  138MOL0    Cl18539   8.239   1.660   7.276 -0.5619  0.5418  0.3386
  138MOL0     C18540   9.204   2.066   6.654  1.1176  0.2571  0.7128
  138MOL0     C18541   9.302   2.055   6.564 -0.2867  1.3356  0.0251
  138MOL0     O18542   9.571   1.959   6.495  0.5453 -0.0703  0.5747
  138MOL0     C18543   9.747   1.967   6.268 -0.8903  0.2293 -0.1824
  138MOL0     C18544   9.824   1.971   6.149  0.2073 -0.2602  0.4057
  138MOL0     N18545   9.568   1.850   5.485 -0.2375  0.8279  0.5221
  138MOL0     N18546   9.444   1.851   5.531 -0.9509  0.7956  0.5570
  138MOL0     C18547   8.505   2.156   6.139 -0.0938  0.2694 -0.7192
  138MOL0     C18548   8.374   2.108   6.179  0.4406  0.4377  0.0876
  138MOL0     C18549   8.008   2.061   6.439 -0.5195  0.2875 -0.1933
  138MOL0     C18550   7.990   1.920   6.466  0.1262 -0.7276  0.0557
  138MOL0     C18551   7.873   1.871   6.517 -0.1653  0.3152 -0.1589
  138MOL0     C18552   7.771   1.954   6.554 -0.1769 -0.4645 -0.6870
  138MOL0     O18553   7.656   1.923   6.616 -0.3990  0.2945  0.0449
  138MOL0     C18554   7.657   1.798   6.687 -0.2707 -0.9672 -0.4321
  138MOL0     C18555   7.542   1.805   6.784 -0.6710  0.3020 -0.7888
  138MOL0     C18556   7.400   1.810   6.708 -0.7752  0.0360 -0.8671
  138MOL0     C18557   7.348   1.675   6.666 -0.1457 -0.1139  0.1901
  138MOL0     C18558   7.207   1.697   6.625 -0.9428  0.3997 -0.4629
  138MOL0     C18559   7.096   1.720   6.590  0.7917 -0.1005  0.2078
  138MOL0     C18560   7.786   2.095   6.541  0.0955  0.1399  0.2206
  138MOL0     C18561   7.896   2.147   6.478  0.3423 -0.8320  0.8880
  138MOL0     C18562   7.901   2.297   6.459  0.9018  0.4380 -0.2396
  138MOL0     H18563   8.441   2.016   6.502 -0.1629  1.0045  0.5207
  138MOL0     H18564   8.672   2.060   6.430 -1.2639 -1.9594  1.2273
  138MOL0     H18565   8.839   2.231   6.372 -1.0394  0.4964 -0.0202
  138MOL0     H18566   8.867   2.071   6.291  0.8230  0.9169  0.5338
  138MOL0     H18567   9.059   2.246   6.281  0.0300  0.4107 -0.9076
  138MOL0     H18568   8.950   2.340   6.172  0.1860 -0.9237 -1.9115
  138MOL0     H18569   8.969   2.169   6.011  0.9999  2.2396  0.3031
  138MOL0     H18570   9.026   2.049   6.127  0.6841  0.5984  1.2993
  138MOL0     H18571   9.181   2.300   6.011  0.8948 -0.5195 -0.0563
  138MOL0     H18572   9.232   2.225   6.158  0.9190  1.7265 -0.6289
  138MOL0     H18573   9.354   2.115   6.004 -0.0981  2.2340  1.6343
  138MOL0     H18574   9.241   1.997   6.041 -0.7995  0.6258  1.9098
  138MOL0     H18575   9.116   2.029   5.837 -1.2258 -0.2695  0.0510
  138MOL0     H18576   9.213   2.177   5.803 -1.4562  1.1090  1.8329
  138MOL0     H18577   9.312   1.887   5.813 -0.3187 -0.2396  0.3297
  138MOL0     H18578   9.420   2.035   5.806 -0.7006  0.8524  0.1124
  138MOL0     H18579   9.207   1.949   5.606 -1.3183 -0.6509  2.9779
  138MOL0     H18580   9.265   2.117   5.620  1.1740  1.0485  2.0614
  138MOL0     H18581   9.519   2.165   5.554  0.8918 -0.0827  1.4459
  138MOL0     H18582   9.827   1.910   5.489  2.8621  1.0514 -1.5965
  138MOL0     H18583   9.778   2.039   5.369  1.7063  0.0763  0.8522
  138MOL0     H18584   9.905   2.157   5.513 -0.3538 -1.1221 -1.6286
  138MOL0     H18585   9.752   2.186   5.582 -0.1263 -0.5379  0.4243
  138MOL0     H18586   9.949   2.119   5.737 -0.4145  0.5440 -0.7082
  138MOL0     H18587   9.952   1.959   5.671 -0.7953 -0.8889 -0.7238
  138MOL0     H18588   9.743   1.899   5.783 -0.4484 -0.2309  2.7706
  138MOL0     H18589   9.714   2.082   5.811 -0.0879 -0.2773 -1.1350
  138MOL0     H18590   9.586   1.951   5.923 -0.8940  1.3821  0.1976
  138MOL0     H18591   9.443   1.925   6.113 -0.0039  2.0886 -2.5504
  138MOL0     H18592   9.160   1.850   6.342  0.1840  1.3775 -1.2843
  138MOL0     H18593   8.971   1.871   6.497  0.4853 -0.5201  0.4978
  138MOL0     H18594   8.886   2.168   6.674  0.2606  0.3339 -0.2543
  138MOL0     H18595   8.822   2.021   6.619 -0.3470  1.3446 -0.0283
  138MOL0     H18596   8.835   2.067   6.927 -3.1739 -1.8045  1.7469
  138MOL0     H18597   8.717   2.135   6.819  0.7335 -0.7042 -1.9325
  138MOL0     H18598   8.659   1.911   6.731  0.3175 -1.1733  0.2125
  138MOL0     H18599   8.774   1.840   6.848  1.0013  0.1218 -1.3479
  138MOL0     H18600   8.513   1.976   6.885  0.8619 -0.3829 -2.5663
  138MOL0     H18601   8.636   1.999   7.013  0.4906  1.1788 -2.7607
  138MOL0     H18602   8.653   1.737   6.988 -0.5872  0.0225 -0.7600
  138MOL0     H18603   8.495   1.735   6.912  0.4241 -0.2329 -0.4373
  138MOL0     H18604   8.505   1.687   7.153  2.6716 -0.7068 -1.1063
  138MOL0     H18605   8.542   1.858   7.176  1.9146 -1.8571 -0.8863
  138MOL0     H18606   8.303   1.761   7.022  1.1072  1.9017 -2.6225
  138MOL0     H18607   8.349   1.922   7.054  2.6125 -1.1100 -1.7891
  138MOL0     H18608   8.331   1.886   7.299  0.7908 -0.6272 -0.1755
  138MOL0     H18609   8.169   1.888   7.212 -0.1434 -0.9465  1.3103
  138MOL0     H18610   9.212   2.125   6.745  3.5042  0.7271  0.2656
  138MOL0     H18611   9.395   2.109   6.583  1.4878 -1.8031  0.9597
  138MOL0     H18612   9.796   1.989   6.361 -2.2050  4.7167 -0.3113
  138MOL0     H18613   9.928   1.974   6.179 -0.1564 -0.4640  1.7767
  138MOL0     H18614   8.518   2.200   6.041 -3.0493 -0.7700 -1.6967
  138MOL0     H18615   8.290   2.105   6.110  0.7913 -1.3518 -0.3159
  138MOL0     H18616   8.073   1.855   6.438  0.3902 -0.4203  0.1087
  138MOL0     H18617   7.851   1.765   6.527 -1.3783  0.5489 -0.2242
  138MOL0     H18618   7.750   1.802   6.744 -1.6792  4.7010  2.2581
  138MOL0     H18619   7.636   1.713   6.622  1.8302 -1.8341 -0.0478
  138MOL0     H18620   7.553   1.891   6.850  0.8007  0.3952 -1.1250
  138MOL0     H18621   7.541   1.709   6.837 -0.9150 -0.8861 -2.8100
  138MOL0     H18622   7.407   1.888   6.632  0.0070  1.3887  0.5231
  138MOL0     H18623   7.335   1.859   6.781  0.0397 -2.0699  1.4048
  138MOL0     H18624   7.408   1.645   6.581  1.9777  0.0040  1.5743
  138MOL0     H18625   7.356   1.600   6.745 -2.0649 -2.2201 -1.4540
  138MOL0     H18626   6.998   1.750   6.559 -0.0792 -1.2394  1.7066
  138MOL0     H18627   7.699   2.148   6.577  0.0462  0.9704 -1.0714
  138MOL0     H18628   7.981   2.341   6.520 -0.5783  1.9281  0.7065
  138MOL0     H18629   7.910   2.321   6.353  0.4999  0.9717 -0.1535
  138MOL0     H18630   7.809   2.344   6.495  0.8734 -0.7005  1.2857
  139MOL0     O18631   9.731   7.618   9.227  0.1305 -0.8462 -0.1282
  139MOL0     C18632   9.673   7.663   9.127 -1.3744  0.1946  0.7797
  139MOL0     O18633   9.728   7.764   9.041  1.1490  0.4385  0.9304
  139MOL0     C18634   9.858   7.802   9.064 -0.1174 -1.1051  0.0747
  139MOL0     C18635   9.889   7.939   9.097 -0.2343  0.6118  0.2031
  139MOL0     C18636  10.027   7.965   9.138 -0.4858 -0.8700  0.3905
  139MOL0     C18637  10.134   7.877   9.136  0.5386  0.5976 -0.8931
  139MOL0     O18638  10.265   7.907   9.172 -0.6387  0.1158 -0.1625
  139MOL0     C18639  10.380   7.825   9.137  0.1399 -0.0653 -0.1900
  139MOL0     C18640  10.502   7.898   9.115  0.1698 -0.6774 -0.2987
  139MOL0     C18641  10.626   7.813   9.146  0.3211 -0.5281  0.0040
  139MOL0     C18642  10.738   7.862   9.043  0.7865  0.5825 -0.8265
  139MOL0     C18643  10.877   7.804   9.085 -0.0162 -0.5874 -0.1664
  139MOL0     C18644  10.994   7.840   8.997  0.1124  0.3872 -0.0992
  139MOL0     C18645  11.029   7.983   9.034 -0.4018 -0.1388  0.3421
  139MOL0     C18646  11.095   8.043   8.906 -1.2589 -0.2530  0.5281
  139MOL0     N18647  11.224   7.986   8.874  0.4064  1.0628 -0.0587
  139MOL0     C18648  11.341   8.007   8.943  0.9062 -0.0168  0.2821
  139MOL0     C18649  11.435   7.942   8.875 -0.6838 -0.4862  0.0751
  139MOL0     C18650  11.585   7.936   8.905 -0.3180  0.1437 -0.0863
  139MOL0     C18651  11.609   7.928   9.063  0.0934 -0.4548  0.5373
  139MOL0     C18652  11.605   7.782   9.109 -0.2597 -0.0569  0.4708
  139MOL0     C18653  11.602   7.760   9.254  0.3299  0.1236 -0.4282
  139MOL0     O18654  11.587   7.623   9.301  0.1920 -0.1553  0.4469
  139MOL0     C18655  11.694   7.538   9.304 -0.4426  0.6080  1.1615
  139MOL0     C18656  11.830   7.580   9.286  0.1087 -0.3076  1.1807
  139MOL0     C18657  11.934   7.491   9.318  0.9296 -0.6492 -0.2230
  139MOL0     C18658  11.906   7.367   9.366  0.3576  0.0734 -0.2749
  139MOL0     C18659  12.015   7.273   9.380  0.6113  0.4630  1.2151
  139MOL0     O18660  12.133   7.316   9.331 -0.0396 -0.1133 -0.4410
  139MOL0     C18661  12.251   7.245   9.349  0.7534  0.0258 -0.4900
  139MOL0     C18662  12.352   7.259   9.253  0.5196 -0.4664  0.1935
  139MOL0     C18663  12.477   7.210   9.263  0.5297  0.4282  0.2082
  139MOL0     C18664  12.517   7.137   9.377 -0.1125  0.1741  0.3023
  139MOL0     O18665  12.645   7.096   9.399 -0.1892  0.0731  0.2428
  139MOL0     C18666  12.755   7.152   9.316 -0.1395 -0.6127  0.3433
  139MOL0     C18667  12.897   7.121   9.362  0.1546  0.9004  0.7126
  139MOL0     C18668  12.939   7.166   9.503 -0.5311  0.2726 -0.4252
  139MOL0     C18669  13.082   7.106   9.539 -0.9898  0.3325 -0.3347
  139MOL0     C18670  13.176   7.171   9.645  0.3636 -0.4884 -0.1325
  139MOL0     C18671  13.232   7.306   9.601  0.8564 -0.3703 -0.0840
  139MOL0     C18672  13.346   7.352   9.691 -0.7174  0.3133  0.8791
  139MOL0     C18673  13.386   7.499   9.657 -0.6600  0.7668 -0.2103
  139MOL0    Cl18674  13.489   7.570   9.779 -0.1493 -0.7275  0.6977
  139MOL0     C18675  12.416   7.106   9.471  0.1950 -0.7025  0.7242
  139MOL0     C18676  12.285   7.157   9.453  0.5671  0.0685 -1.1272
  139MOL0     O18677  11.991   7.159   9.424 -0.3914  0.1991  0.1087
  139MOL0     C18678  11.781   7.324   9.386  0.4133  0.0786 -0.2210
  139MOL0     C18679  11.674   7.407   9.355  0.2759  0.8282  0.1266
  139MOL0     N18680  11.366   7.874   8.784 -0.3552  0.3589  0.1688
  139MOL0     N18681  11.244   7.908   8.771  0.2182  0.3938  0.5941
  139MOL0     C18682  10.098   7.747   9.083 -0.3599 -0.5990 -0.0468
  139MOL0     C18683   9.966   7.721   9.045  0.1656  0.4789 -0.3369
  139MOL0     C18684   9.550   7.585   9.089  0.5144  0.7385  0.9065
  139MOL0     C18685   9.523   7.553   8.954 -0.6976 -0.2857  0.1054
  139MOL0     C18686   9.419   7.476   8.911  0.6033 -0.4679  0.2513
  139MOL0     C18687   9.333   7.418   9.005  0.2193 -0.8176  0.4535
  139MOL0     O18688   9.232   7.338   8.954  0.2840 -0.2751  0.6436
  139MOL0     C18689   9.117   7.411   8.906 -0.0435  0.2604  0.4679
  139MOL0     C18690   9.027   7.307   8.829 -0.0851  0.0884  0.6092
  139MOL0     C18691   8.997   7.180   8.909  0.6887  0.6172 -0.6645
  139MOL0     C18692   8.898   7.081   8.835  0.4629  0.2341 -0.3029
  139MOL0     C18693   8.780   7.152   8.787  0.2609 -0.4086  0.1386
  139MOL0     C18694   8.693   7.231   8.759 -1.0234 -0.2010 -0.7248
  139MOL0     C18695   9.351   7.457   9.139  0.6642  1.2771  0.2284
  139MOL0     C18696   9.453   7.537   9.181  0.5096 -0.2475 -0.5953
  139MOL0     C18697   9.459   7.557   9.331 -0.0810 -0.9447 -0.6990
  139MOL0     H18698   9.824   8.025   9.101 -1.3453 -0.1646 -0.6387
  139MOL0     H18699  10.069   8.058   9.176  1.7431 -1.5162 -0.3252
  139MOL0     H18700  10.408   7.758   9.219  2.2278 -2.5405 -2.7064
  139MOL0     H18701  10.362   7.764   9.047  0.0082 -1.4856  0.7594
  139MOL0     H18702  10.495   7.980   9.187  1.0655 -1.1151  0.2918
  139MOL0     H18703  10.517   7.936   9.013  0.3225 -0.2263 -0.1103
  139MOL0     H18704  10.608   7.705   9.144 -3.0943 -0.0889  1.1304
  139MOL0     H18705  10.660   7.835   9.248 -1.5337  1.0622  0.3328
  139MOL0     H18706  10.715   7.824   8.944  0.5217 -1.3732 -0.0554
  139MOL0     H18707  10.736   7.971   9.035  0.8972  0.5273 -1.6380
  139MOL0     H18708  10.903   7.818   9.190  3.4794 -0.2263 -0.9457
  139MOL0     H18709  10.879   7.695   9.092  1.9483 -0.5408  0.6166
  139MOL0     H18710  11.080   7.773   9.007  1.4962  2.1139  0.0540
  139MOL0     H18711  10.974   7.841   8.889  0.8607  0.0671 -0.2520
  139MOL0     H18712  11.089   7.991   9.125 -0.9142 -0.0222  0.6775
  139MOL0     H18713  10.941   8.042   9.064  0.7535  1.1322  1.3626
  139MOL0     H18714  11.024   8.039   8.823 -0.0050 -1.0508 -0.5526
  139MOL0     H18715  11.114   8.149   8.926 -1.6712 -0.2401  0.8525
  139MOL0     H18716  11.351   8.085   9.017 -2.4576  0.6098  0.1978
  139MOL0     H18717  11.634   7.853   8.854  0.6444  0.3325  0.5123
  139MOL0     H18718  11.630   8.031   8.875 -1.7262  0.6964 -0.5825
  139MOL0     H18719  11.710   7.969   9.073 -0.3158  0.1954  2.2351
  139MOL0     H18720  11.535   7.986   9.118  0.6765  3.4527 -2.3474
  139MOL0     H18721  11.691   7.728   9.067 -2.2617 -1.4123 -2.2051
  139MOL0     H18722  11.519   7.732   9.063  1.5608 -3.7276  0.6895
  139MOL0     H18723  11.516   7.816   9.292  0.2056 -0.2001 -0.2367
  139MOL0     H18724  11.688   7.802   9.307 -0.2901 -2.9078  3.4529
  139MOL0     H18725  11.849   7.678   9.242 -0.4167 -0.3080  0.9416
  139MOL0     H18726  12.033   7.527   9.296  0.6976  0.6567  0.7229
  139MOL0     H18727  12.332   7.314   9.161  0.5503  2.2506  1.6906
  139MOL0     H18728  12.545   7.235   9.182  0.3992 -0.9011 -0.3483
  139MOL0     H18729  12.747   7.120   9.211  4.0437  0.2259 -0.4003
  139MOL0     H18730  12.747   7.260   9.324 -1.4313 -0.5166 -1.6232
  139MOL0     H18731  12.911   7.014   9.346 -2.1257  0.6548 -0.0426
  139MOL0     H18732  12.970   7.167   9.295  0.7927  1.1057  1.5311
  139MOL0     H18733  12.953   7.274   9.495 -1.0146  0.2901 -1.1624
  139MOL0     H18734  12.868   7.133   9.579  0.1163 -0.0149  0.0731
  139MOL0     H18735  13.142   7.087   9.449  0.7077 -0.2767  0.8902
  139MOL0     H18736  13.066   7.002   9.569 -0.4018 -0.0696 -1.3715
  139MOL0     H18737  13.253   7.093   9.656  1.6419  0.5881 -1.1136
  139MOL0     H18738  13.114   7.188   9.733  1.8681 -2.2283  1.3401
  139MOL0     H18739  13.266   7.295   9.497  1.3155  1.5333 -0.1807
  139MOL0     H18740  13.146   7.373   9.606 -0.1624 -1.7295  1.7989
  139MOL0     H18741  13.431   7.285   9.675 -1.5423 -1.1216  2.2005
  139MOL0     H18742  13.319   7.357   9.797 -0.5482 -2.0282  1.0854
  139MOL0     H18743  13.426   7.508   9.556 -0.3367 -1.6788 -0.3564
  139MOL0     H18744  13.286   7.543   9.655 -2.7973 -3.5392 -2.3445
  139MOL0     H18745  12.439   7.042   9.556  2.3339 -2.0245 -0.7376
  139MOL0     H18746  12.210   7.127   9.525 -1.0253 -0.5277 -2.9457
  139MOL0     H18747  11.758   7.223   9.421 -2.0176  0.2102 -1.2505
  139MOL0     H18748  11.571   7.374   9.359  0.1886  0.9805 -0.7241
  139MOL0     H18749  10.168   7.665   9.071 -0.8129 -0.9750 -0.1308
  139MOL0     H18750   9.954   7.620   9.009  2.7033 -0.2188  0.5599
  139MOL0     H18751   9.591   7.598   8.882  0.6874  0.4542  1.8115
  139MOL0     H18752   9.402   7.441   8.809 -1.7150  3.3091 -0.8615
  139MOL0     H18753   9.152   7.490   8.838  2.2069  0.6526  1.9442
  139MOL0     H18754   9.057   7.451   8.988 -2.8212 -1.1496 -0.7613
  139MOL0     H18755   9.085   7.278   8.741  0.7077  0.1816  1.0841
  139MOL0     H18756   8.936   7.362   8.806 -0.2318 -0.4356 -0.0917
  139MOL0     H18757   8.948   7.202   9.004 -0.1711  0.2987 -1.0211
  139MOL0     H18758   9.086   7.121   8.934 -0.0633  0.0519  0.8043
  139MOL0     H18759   8.950   7.031   8.753  0.1276  2.1204 -1.7534
  139MOL0     H18760   8.885   7.004   8.910  1.1078  0.2568 -0.1615
  139MOL0     H18761   8.628   7.305   8.717  1.9188  2.2257 -1.2896
  139MOL0     H18762   9.280   7.431   9.217 -0.8056  1.3588 -1.0300
  139MOL0     H18763   9.487   7.660   9.359  0.4882 -1.0925 -0.7083
  139MOL0     H18764   9.361   7.564   9.380  1.3182  1.0776  2.0961
  139MOL0     H18765   9.523   7.491   9.389  1.3155  0.9186 -0.0051
  140MOL0     O18766   3.165   5.492   1.120  0.0526  0.9679  0.3951
  140MOL0     C18767   3.144   5.381   1.067  0.0179 -0.1728 -0.0272
  140MOL0     O18768   3.236   5.284   1.046  0.0326  0.3381 -0.3240
  140MOL0     C18769   3.370   5.313   1.024 -0.0610  1.5184 -0.3152
  140MOL0     C18770   3.415   5.431   0.984  0.2332 -0.6538  0.1640
  140MOL0     C18771   3.555   5.461   0.963 -0.0294 -0.4436 -0.4613
  140MOL0     C18772   3.653   5.363   1.004 -0.0409 -0.2912 -0.1297
  140MOL0     O18773   3.785   5.406   1.006 -0.1488  0.1681  0.4347
  140MOL0     C18774   3.893   5.331   1.066  0.5823 -0.2319 -0.3137
  140MOL0     C18775   4.029   5.402   1.066  0.0254  0.9015  0.2053
  140MOL0     C18776   4.129   5.310   1.137 -0.4390  0.4467 -0.5445
  140MOL0     C18777   4.269   5.378   1.158 -0.2558 -0.7320  0.3895
  140MOL0     C18778   4.376   5.279   1.222  0.1138 -0.7125  0.6841
  140MOL0     C18779   4.337   5.198   1.348 -0.2321 -0.0100 -0.0568
  140MOL0     C18780   4.364   5.262   1.485 -0.0013 -0.6608 -0.7108
  140MOL0     C18781   4.358   5.167   1.602 -0.2078 -0.2455  0.6229
  140MOL0     N18782   4.228   5.094   1.611 -0.6338 -0.4655 -0.4989
  140MOL0     C18783   4.102   5.149   1.632  0.2080  0.3023  0.8082
  140MOL0     C18784   4.018   5.045   1.609 -0.6072  0.1938  0.6956
  140MOL0     C18785   3.868   5.041   1.615  0.1822 -0.9243 -0.8319
  140MOL0     C18786   3.812   5.118   1.496  0.1553  0.2820 -0.2519
  140MOL0     C18787   3.875   5.060   1.361  0.0007 -0.5109 -0.4864
  140MOL0     C18788   3.848   4.916   1.336 -0.6019 -0.5093  0.0629
  140MOL0     O18789   3.703   4.921   1.337 -0.6420  0.4436 -0.2479
  140MOL0     C18790   3.644   4.805   1.374 -0.7383 -0.7213  0.0674
  140MOL0     C18791   3.684   4.673   1.352 -0.5762 -0.2392  0.4954
  140MOL0     C18792   3.625   4.566   1.402  0.8663  0.0643 -0.7285
  140MOL0     C18793   3.512   4.582   1.485  0.3695 -0.1203 -0.2239
  140MOL0     C18794   3.451   4.467   1.549  0.8830  0.0368  0.7459
  140MOL0     O18795   3.334   4.487   1.620 -0.0602 -0.7368  0.0953
  140MOL0     C18796   3.287   4.403   1.722  0.0572 -0.1844  0.1416
  140MOL0     C18797   3.169   4.435   1.797  0.2233 -0.0219  0.1180
  140MOL0     C18798   3.100   4.344   1.883  0.2547  0.0138 -0.1902
  140MOL0     C18799   3.152   4.215   1.906  0.3360  0.6061  0.0629
  140MOL0     O18800   3.100   4.115   1.968 -0.2099  0.2593  0.1948
  140MOL0     C18801   3.004   4.141   2.064 -0.2142  0.3808  0.0480
  140MOL0     C18802   2.938   3.998   2.105 -0.4821  0.2636 -0.0245
  140MOL0     C18803   2.854   3.994   2.237  0.0193 -0.7121 -0.1041
  140MOL0     C18804   2.747   4.106   2.233 -0.0322 -0.4545  1.0374
  140MOL0     C18805   2.635   4.047   2.154 -0.1080  0.5782 -0.1348
  140MOL0     C18806   2.511   4.130   2.143  0.3197 -0.3051  0.2156
  140MOL0     C18807   2.433   4.160   2.268 -0.7912 -0.1268 -0.2771
  140MOL0     C18808   2.279   4.175   2.238 -0.0775 -0.1271 -0.4332
  140MOL0    Cl18809   2.193   4.206   2.392  0.2558 -0.2368  0.4443
  140MOL0     C18810   3.270   4.187   1.839 -0.0800  0.6958 -0.8218
  140MOL0     C18811   3.339   4.278   1.750 -0.1604 -0.1660 -0.1157
  140MOL0     O18812   3.507   4.363   1.539 -0.2647 -0.7877 -1.0056
  140MOL0     C18813   3.458   4.716   1.501  0.2987  0.1453 -0.4697
  140MOL0     C18814   3.530   4.827   1.450 -0.3968 -0.3360 -0.3837
  140MOL0     N18815   4.093   4.933   1.596 -0.1322  0.6078  0.1695
  140MOL0     N18816   4.216   4.960   1.587 -0.1356  0.8483  0.0089
  140MOL0     C18817   3.605   5.240   1.061  0.6215  0.2499 -0.1559
  140MOL0     C18818   3.466   5.217   1.068 -0.0310  0.0728 -0.3260
  140MOL0     C18819   3.002   5.343   1.046  0.1249  0.2557  0.2439
  140MOL0     C18820   2.975   5.213   0.993  0.3308 -0.5288  1.4283
  140MOL0     C18821   2.847   5.172   0.978 -0.3540  0.3586  0.1550
  140MOL0     C18822   2.734   5.249   0.999 -0.0844 -0.2326 -0.1951
  140MOL0     O18823   2.611   5.185   0.988  0.0731  0.7224  0.2365
  140MOL0     C18824   2.497   5.264   1.021 -0.1079 -0.1928  0.8215
  140MOL0     C18825   2.372   5.193   0.984  0.0081 -0.4318 -0.7831
  140MOL0     C18826   2.348   5.074   1.073  0.8054  0.0287 -0.0382
  140MOL0     C18827   2.207   5.019   1.048 -0.6875 -0.9397  0.9141
  140MOL0     C18828   2.203   4.886   1.098  0.1101  0.5359 -0.1952
  140MOL0     C18829   2.216   4.768   1.097  1.4490 -0.1089  0.4682
  140MOL0     C18830   2.746   5.374   1.059 -0.2041 -0.1620 -0.3603
  140MOL0     C18831   2.885   5.422   1.080  1.1167 -0.3326  0.7496
  140MOL0     C18832   2.896   5.560   1.141 -0.0226  0.2970 -1.0583
  140MOL0     H18833   3.349   5.514   0.961  0.6527 -0.1957  0.6070
  140MOL0     H18834   3.586   5.562   0.940  0.5916  0.6349  4.2227
  140MOL0     H18835   3.860   5.321   1.170  2.7042 -1.7152  0.3014
  140MOL0     H18836   3.911   5.237   1.013  3.5028  0.4144 -0.6664
  140MOL0     H18837   4.018   5.493   1.125  1.2341  0.8230  0.5863
  140MOL0     H18838   4.039   5.430   0.961 -2.5234  0.3692 -0.2342
  140MOL0     H18839   4.137   5.212   1.089 -2.0303 -0.3644  0.7509
  140MOL0     H18840   4.083   5.304   1.236  0.4248  2.4101  0.0290
  140MOL0     H18841   4.307   5.424   1.066 -2.3039  0.6438  0.1829
  140MOL0     H18842   4.256   5.463   1.225 -1.0215 -0.1948 -0.4243
  140MOL0     H18843   4.395   5.208   1.141  1.9306  1.5150 -0.9506
  140MOL0     H18844   4.472   5.329   1.235 -0.5044  0.3296  1.3757
  140MOL0     H18845   4.231   5.173   1.334 -0.5514  1.6285 -0.7572
  140MOL0     H18846   4.380   5.098   1.354 -2.9386 -1.1660  4.0206
  140MOL0     H18847   4.289   5.338   1.510  2.0388  0.9605  0.8528
  140MOL0     H18848   4.460   5.314   1.489  0.4171 -1.4959  1.4415
  140MOL0     H18849   4.433   5.088   1.590 -0.2729 -0.1227 -0.8391
  140MOL0     H18850   4.382   5.222   1.693 -0.9701  2.4484 -0.7161
  140MOL0     H18851   4.080   5.252   1.656 -1.7498 -0.0938  0.9302
  140MOL0     H18852   3.824   4.941   1.611  0.8612 -1.2812  0.2029
  140MOL0     H18853   3.840   5.093   1.708  2.6881  1.0474 -1.0738
  140MOL0     H18854   3.703   5.108   1.500 -0.1208  2.5790 -0.3999
  140MOL0     H18855   3.851   5.219   1.510  3.1909 -0.6743 -0.9691
  140MOL0     H18856   3.983   5.069   1.344 -0.3940  3.8750 -1.9808
  140MOL0     H18857   3.825   5.124   1.287 -0.9249  0.0654  0.6111
  140MOL0     H18858   3.895   4.852   1.411 -0.1397 -0.5066 -0.2195
  140MOL0     H18859   3.884   4.886   1.237 -0.9934 -0.6668 -0.0341
  140MOL0     H18860   3.773   4.665   1.290  0.2452  1.0038  1.4633
  140MOL0     H18861   3.673   4.469   1.406  2.1275  0.7136  1.5751
  140MOL0     H18862   3.125   4.533   1.780  1.5562  0.5213 -0.3162
  140MOL0     H18863   3.007   4.377   1.927 -1.2682  0.7898 -3.6236
  140MOL0     H18864   3.042   4.189   2.155 -1.7118 -1.8221  1.9893
  140MOL0     H18865   2.923   4.197   2.016  1.2768 -0.2337 -3.4991
  140MOL0     H18866   2.882   3.958   2.020  0.7754 -1.6403 -0.0289
  140MOL0     H18867   3.018   3.928   2.129 -1.1420  0.2253  2.3944
  140MOL0     H18868   2.817   3.891   2.245  1.5197 -1.5197 -2.5147
  140MOL0     H18869   2.928   4.010   2.317 -2.0985 -0.2799  1.8839
  140MOL0     H18870   2.779   4.203   2.194 -0.1269 -1.5339 -1.9425
  140MOL0     H18871   2.706   4.121   2.334 -0.5638 -1.6572  1.0183
  140MOL0     H18872   2.606   3.950   2.195  1.0421  0.5290  0.6072
  140MOL0     H18873   2.673   4.042   2.052  2.1282  2.6568  0.4971
  140MOL0     H18874   2.535   4.227   2.098  1.8233 -0.3588  0.8526
  140MOL0     H18875   2.445   4.073   2.077 -1.9192  0.8320  1.3383
  140MOL0     H18876   2.467   4.246   2.325 -1.8358 -0.7504  1.3410
  140MOL0     H18877   2.443   4.075   2.336  0.4219  0.2239  0.0097
  140MOL0     H18878   2.262   4.261   2.172 -1.8934 -0.8698 -0.9898
  140MOL0     H18879   2.233   4.086   2.193 -1.5685  0.3030  0.1773
  140MOL0     H18880   3.313   4.087   1.838 -3.1452 -0.8288  1.3595
  140MOL0     H18881   3.430   4.236   1.709 -0.4150 -1.5522  0.6752
  140MOL0     H18882   3.360   4.723   1.548 -0.3042 -0.8353 -1.5342
  140MOL0     H18883   3.499   4.926   1.482  2.0242  0.5185 -0.5492
  140MOL0     H18884   3.672   5.165   1.101  0.2472 -0.4624 -0.8250
  140MOL0     H18885   3.419   5.135   1.122 -2.3317  1.7676  0.4145
  140MOL0     H18886   3.050   5.141   0.962 -0.7954 -1.0184 -0.3075
  140MOL0     H18887   2.824   5.066   0.964  2.6777 -0.8278  2.8080
  140MOL0     H18888   2.497   5.356   0.961  0.4156 -0.4814  0.3680
  140MOL0     H18889   2.498   5.293   1.127  0.1455 -0.1489  0.8097
  140MOL0     H18890   2.377   5.167   0.878  0.1420  0.4853 -1.0152
  140MOL0     H18891   2.289   5.263   0.998  0.1943 -0.5601  1.2398
  140MOL0     H18892   2.367   5.092   1.180  2.9106 -0.3751 -0.2876
  140MOL0     H18893   2.427   5.001   1.051  0.2081 -0.6101 -0.1115
  140MOL0     H18894   2.142   5.089   1.101 -0.5752 -0.0230 -0.1428
  140MOL0     H18895   2.187   5.017   0.940 -4.4158 -0.2280  1.4496
  140MOL0     H18896   2.213   4.662   1.084 -1.6727  0.0676 -1.3247
  140MOL0     H18897   2.668   5.446   1.080 -3.0319 -2.7438 -1.2716
  140MOL0     H18898   2.965   5.553   1.225 -0.7787 -1.7903 -0.5505
  140MOL0     H18899   2.942   5.636   1.077 -0.8374 -1.1166 -3.4496
  140MOL0     H18900   2.807   5.601   1.190 -1.0995 -2.2108 -0.7604
  141MOL0     O18901   6.857  11.278   4.714  0.2312 -0.2633  0.3177
  141MOL0     C18902   6.863  11.280   4.836 -0.6482  0.2694 -0.1639
  141MOL0     O18903   6.973  11.252   4.906  0.0379  0.6215 -0.1015
  141MOL0     C18904   7.083  11.185   4.850 -0.5342 -0.3461 -0.3080
  141MOL0     C18905   7.068  11.078   4.759  0.2783  0.6237 -0.9894
  141MOL0     C18906   7.180  11.007   4.718  0.2085 -0.8503  0.6318
  141MOL0     C18907   7.302  11.039   4.766 -0.3052 -0.2049 -1.2090
  141MOL0     O18908   7.413  10.967   4.728 -0.0435 -0.0189  0.1090
  141MOL0     C18909   7.434  10.967   4.592 -0.2532 -0.1157 -0.1809
  141MOL0     C18910   7.570  10.916   4.557 -0.0967  0.0295  0.9511
  141MOL0     C18911   7.573  10.762   4.575  0.3169  0.1238  0.3660
  141MOL0     C18912   7.653  10.703   4.463  0.0993  0.3280 -0.5310
  141MOL0     C18913   7.659  10.550   4.480  0.1496 -0.2988 -0.4854
  141MOL0     C18914   7.728  10.486   4.359 -0.5575  0.3569 -0.1468
  141MOL0     C18915   7.736  10.335   4.373 -0.1140  0.5973  0.6170
  141MOL0     C18916   7.801  10.278   4.244 -0.8918  0.3512  0.0368
  141MOL0     N18917   7.822  10.127   4.239 -0.1741  0.3819 -0.2251
  141MOL0     C18918   7.754  10.037   4.158 -0.6842 -0.0926 -0.0448
  141MOL0     C18919   7.822   9.920   4.181 -0.5677 -0.8498 -0.0207
  141MOL0     C18920   7.787   9.795   4.099 -0.3523 -0.4026  0.2428
  141MOL0     C18921   7.829   9.657   4.161  0.0455 -0.1188  0.6085
  141MOL0     C18922   7.795   9.634   4.309  0.5473 -1.1970 -0.1717
  141MOL0     C18923   7.800   9.488   4.351  0.5182 -0.0798 -0.0512
  141MOL0     O18924   7.723   9.399   4.263 -0.2943  0.3958  0.6498
  141MOL0     C18925   7.585   9.400   4.250 -1.0078 -1.2281  0.3413
  141MOL0     C18926   7.506   9.455   4.350 -0.0254 -0.7125 -0.1679
  141MOL0     C18927   7.367   9.438   4.336 -0.0634  0.2210  0.1227
  141MOL0     C18928   7.305   9.401   4.212 -0.0410 -0.2644  0.3028
  141MOL0     C18929   7.157   9.403   4.194  0.8282 -0.4921 -0.0189
  141MOL0     O18930   7.088   9.440   4.308 -0.0105  0.3880 -0.6249
  141MOL0     C18931   6.945   9.445   4.296 -0.0673  0.1990 -0.0867
  141MOL0     C18932   6.858   9.336   4.249 -0.6624 -1.0690  0.1989
  141MOL0     C18933   6.719   9.354   4.259 -0.0941 -0.6503  0.3411
  141MOL0     C18934   6.672   9.473   4.318 -0.0856  0.6824  0.7372
  141MOL0     O18935   6.543   9.501   4.330 -0.0979  0.3972 -0.1857
  141MOL0     C18936   6.470   9.398   4.405  0.7053  0.0244  1.6690
  141MOL0     C18937   6.331   9.442   4.436 -0.0903 -0.9808 -0.0367
  141MOL0     C18938   6.252   9.470   4.305 -0.5136 -0.3663  0.0348
  141MOL0     C18939   6.107   9.487   4.329  0.1500  0.2489  0.3789
  141MOL0     C18940   6.031   9.359   4.362 -0.9261  0.7520 -0.2888
  141MOL0     C18941   5.875   9.377   4.369 -0.2258  0.0449 -0.3602
  141MOL0     C18942   5.789   9.286   4.453  0.0937 -0.2316  0.2057
  141MOL0     C18943   5.650   9.351   4.493  0.2616  0.8632  0.2186
  141MOL0    Cl18944   5.546   9.335   4.350  0.0695 -0.2105  0.2403
  141MOL0     C18945   6.757   9.576   4.354 -0.1110  0.0857 -0.1292
  141MOL0     C18946   6.895   9.563   4.349  0.2828  0.2869  0.3386
  141MOL0     O18947   7.107   9.378   4.086  0.3984  0.3125 -0.5259
  141MOL0     C18948   7.393   9.375   4.105  0.3006 -0.3810  0.5261
  141MOL0     C18949   7.528   9.368   4.125 -0.5968  0.2096 -0.4752
  141MOL0     N18950   7.931   9.939   4.266 -0.3313 -0.0256  0.1369
  141MOL0     N18951   7.931  10.062   4.300 -0.2620 -0.8945  0.2636
  141MOL0     C18952   7.319  11.148   4.850  0.2308  0.0443 -0.0116
  141MOL0     C18953   7.209  11.221   4.894 -0.3393 -0.0444  0.1843
  141MOL0     C18954   6.751  11.343   4.914  0.2025 -1.0547  0.6425
  141MOL0     C18955   6.766  11.382   5.047 -0.2300 -0.2171 -0.1548
  141MOL0     C18956   6.657  11.414   5.127  0.4920 -0.9157  0.0429
  141MOL0     C18957   6.527  11.412   5.076  0.4358  0.2921 -0.3069
  141MOL0     O18958   6.417  11.449   5.157 -0.0878  0.9159  0.4692
  141MOL0     C18959   6.283  11.432   5.125  0.7081 -0.6864 -1.1661
  141MOL0     C18960   6.191  11.466   5.246 -0.0295 -0.3308  0.5504
  141MOL0     C18961   6.051  11.424   5.220  0.1126  0.2955 -0.6002
  141MOL0     C18962   5.958  11.482   5.325  0.3788  0.0907 -0.7288
  141MOL0     C18963   5.819  11.461   5.287 -0.4644 -0.6861 -0.9776
  141MOL0     C18964   5.707  11.438   5.246 -0.0349  0.5013  0.2052
  141MOL0     C18965   6.511  11.380   4.941  0.0411  0.1304 -0.3121
  141MOL0     C18966   6.618  11.342   4.865 -0.9861 -0.4511  0.3182
  141MOL0     C18967   6.584  11.312   4.720  0.5372 -0.1536  0.5057
  141MOL0     H18968   6.965  11.049   4.741  0.6892 -0.1091 -2.2766
  141MOL0     H18969   7.164  10.921   4.653 -0.2598  0.0780 -0.5248
  141MOL0     H18970   7.356  10.916   4.536 -0.1586 -0.7747  0.2683
  141MOL0     H18971   7.434  11.072   4.561 -4.9789  0.9123  2.4004
  141MOL0     H18972   7.640  10.973   4.618  0.5583  0.1487  0.1020
  141MOL0     H18973   7.597  10.940   4.454  1.1878  1.1112  1.5125
  141MOL0     H18974   7.468  10.730   4.574 -0.6630  3.0931 -1.2228
  141MOL0     H18975   7.622  10.746   4.672  0.0024  1.2953  0.7421
  141MOL0     H18976   7.607  10.738   4.370 -1.5093  0.6063  0.3353
  141MOL0     H18977   7.754  10.743   4.458  0.7464 -1.1668 -0.1161
  141MOL0     H18978   7.701  10.507   4.571  0.1811 -1.1731 -0.9029
  141MOL0     H18979   7.555  10.519   4.466  0.6308 -1.1696 -2.5312
  141MOL0     H18980   7.683  10.514   4.264  4.4958  0.6846 -2.7798
  141MOL0     H18981   7.829  10.526   4.348 -0.3110  0.5068  2.1122
  141MOL0     H18982   7.641  10.280   4.376  0.7318 -1.0095 -0.3946
  141MOL0     H18983   7.789  10.304   4.464  0.9238  2.7641  0.8175
  141MOL0     H18984   7.742  10.304   4.156 -0.2480 -1.7488 -1.0957
  141MOL0     H18985   7.897  10.329   4.232 -0.7103 -0.5941 -3.8366
  141MOL0     H18986   7.672  10.053   4.089 -1.5773 -0.7823  0.8310
  141MOL0     H18987   7.678   9.794   4.094 -0.4088 -0.7412  1.3311
  141MOL0     H18988   7.834   9.810   4.001  2.0971 -0.0503  1.3937
  141MOL0     H18989   7.783   9.572   4.110  3.4852 -2.0701  0.4904
  141MOL0     H18990   7.937   9.645   4.149 -0.0745  0.0283 -0.7445
  141MOL0     H18991   7.698   9.679   4.329  1.4591  0.8047  0.0054
  141MOL0     H18992   7.876   9.692   4.354 -1.4505  3.8025 -2.2922
  141MOL0     H18993   7.769   9.485   4.455  2.0577  0.1382  0.4387
  141MOL0     H18994   7.908   9.472   4.358  0.6833  1.2089  0.7728
  141MOL0     H18995   7.557   9.497   4.437  0.6954  1.8902 -1.7323
  141MOL0     H18996   7.299   9.459   4.418  1.2982 -1.7985  1.8683
  141MOL0     H18997   6.900   9.252   4.195  0.7477  0.3560 -0.9764
  141MOL0     H18998   6.649   9.286   4.211 -2.0909  0.9246  0.8986
  141MOL0     H18999   6.479   9.298   4.360 -3.4696  0.2398 -0.0459
  141MOL0     H19000   6.525   9.381   4.498  0.6771 -0.3021  1.6279
  141MOL0     H19001   6.291   9.360   4.497  1.1648 -0.9583  0.8424
  141MOL0     H19002   6.336   9.535   4.492  2.3681  0.0262 -1.7859
  141MOL0     H19003   6.282   9.566   4.262  1.2850 -0.5834  0.7011
  141MOL0     H19004   6.283   9.392   4.235 -0.2810 -0.5818  0.3739
  141MOL0     H19005   6.068   9.525   4.234 -0.2555 -2.1557 -0.4865
  141MOL0     H19006   6.085   9.562   4.406 -0.9943 -0.6919  0.9907
  141MOL0     H19007   6.060   9.340   4.466 -2.5656 -0.6098 -0.0393
  141MOL0     H19008   6.072   9.276   4.303  0.1241 -0.3954  1.9305
  141MOL0     H19009   5.853   9.474   4.414 -1.3119 -0.5343  0.4042
  141MOL0     H19010   5.831   9.388   4.269 -0.7942  0.4025 -0.0773
  141MOL0     H19011   5.839   9.260   4.546 -1.3328 -0.9494  0.7966
  141MOL0     H19012   5.765   9.200   4.389 -1.4312 -0.6229  1.2515
  141MOL0     H19013   5.603   9.290   4.571  1.5024  0.2206  0.4939
  141MOL0     H19014   5.666   9.452   4.531  1.3137  1.5642 -1.9162
  141MOL0     H19015   6.710   9.669   4.387  1.1077 -0.1370  2.4898
  141MOL0     H19016   6.971   9.637   4.372 -0.6886  1.3694  0.1897
  141MOL0     H19017   7.355   9.369   4.003 -0.7630  1.0936  0.7959
  141MOL0     H19018   7.590   9.326   4.046 -2.1100 -0.8511 -1.1390
  141MOL0     H19019   7.421  11.179   4.875  0.8317 -1.2022 -0.8275
  141MOL0     H19020   7.201  11.304   4.963  0.6428 -0.0818  0.3462
  141MOL0     H19021   6.867  11.386   5.086  0.6801 -0.1560 -2.3314
  141MOL0     H19022   6.688  11.437   5.229  0.3559  1.8243 -0.4554
  141MOL0     H19023   6.266  11.326   5.100  1.4161 -0.6695 -1.7607
  141MOL0     H19024   6.265  11.503   5.044  3.0448  1.7996  0.3482
  141MOL0     H19025   6.196  11.574   5.264 -1.0706 -0.5677  2.6249
  141MOL0     H19026   6.229  11.410   5.332 -0.7531  0.4466  1.3966
  141MOL0     H19027   6.037  11.316   5.212 -0.1313  0.3622 -1.1687
  141MOL0     H19028   6.027  11.466   5.121  1.4032  0.5872 -0.8103
  141MOL0     H19029   5.980  11.436   5.421  1.7867  2.6263  0.2681
  141MOL0     H19030   5.973  11.590   5.335 -1.8724  0.4025  0.0291
  141MOL0     H19031   5.603  11.436   5.220  0.1526  0.1351 -0.5266
  141MOL0     H19032   6.411  11.385   4.900  0.3151  1.5450 -0.8735
  141MOL0     H19033   6.603  11.207   4.697  1.8791  0.8206 -3.6251
  141MOL0     H19034   6.478  11.334   4.700  0.6497 -1.3983 -1.8482
  141MOL0     H19035   6.631  11.373   4.642 -2.4666  1.6681 -0.0662
  142MOL0     O19036   7.484   6.326  10.309 -0.5287  0.4624  0.5008
  142MOL0     C19037   7.456   6.334  10.185  0.4162  0.2050 -0.3018
  142MOL0     O19038   7.514   6.422  10.100  0.1421  0.0113  0.2830
  142MOL0     C19039   7.594   6.516  10.152 -0.5657 -0.3467  0.1187
  142MOL0     C19040   7.557   6.611  10.256  0.9564 -0.0638 -0.2367
  142MOL0     C19041   7.650   6.697  10.314  0.3306  0.0897  0.2860
  142MOL0     C19042   7.782   6.707  10.264 -0.6833 -0.0642 -0.9461
  142MOL0     O19043   7.884   6.792  10.307  0.0324 -0.3425 -1.3786
  142MOL0     C19044   7.868   6.863  10.431 -0.0706 -0.6288 -0.2732
  142MOL0     C19045   7.977   6.964  10.445  0.3037 -0.5976  0.4804
  142MOL0     C19046   7.964   7.054  10.320 -0.3674 -0.4375  0.4332
  142MOL0     C19047   8.062   7.168  10.314  1.0904 -0.2440  0.6672
  142MOL0     C19048   8.034   7.283  10.209 -0.5269  0.0666  0.0715
  142MOL0     C19049   8.130   7.399  10.240 -0.1777 -0.1508  0.0252
  142MOL0     C19050   8.113   7.498  10.127  0.2311 -0.2834  0.4841
  142MOL0     C19051   8.014   7.605  10.163 -0.1528 -0.0356 -0.5771
  142MOL0     N19052   8.042   7.672  10.288  0.5554  0.5930 -0.6981
  142MOL0     C19053   8.116   7.791  10.297 -0.5960 -0.0561  0.0914
  142MOL0     C19054   8.086   7.845  10.420  0.5047 -0.2903  1.0284
  142MOL0     C19055   8.140   7.983  10.471 -0.9375  0.3053 -0.0096
  142MOL0     C19056   8.267   7.972  10.557  0.0986  0.1421  0.5898
  142MOL0     C19057   8.317   8.105  10.623  0.1957 -0.2757 -0.4267
  142MOL0     C19058   8.355   8.203  10.516  0.4826  0.3740 -0.1350
  142MOL0     O19059   8.412   8.313  10.586  0.3511  0.5361 -0.6760
  142MOL0     C19060   8.522   8.374  10.528  0.2850 -0.8821  0.2071
  142MOL0     C19061   8.569   8.357  10.397 -0.4475 -0.0277  0.6201
  142MOL0     C19062   8.672   8.442  10.343  0.6047 -0.2101  0.7922
  142MOL0     C19063   8.732   8.535  10.428  0.1113 -0.7476 -0.8326
  142MOL0     C19064   8.847   8.619  10.381 -0.0466 -0.9447 -0.2955
  142MOL0     O19065   8.879   8.725  10.461  0.0784  0.4264 -0.0947
  142MOL0     C19066   8.988   8.793  10.430 -0.0759  0.0662 -0.0502
  142MOL0     C19067   8.984   8.876  10.318 -0.6910 -0.4023 -0.1193
  142MOL0     C19068   9.103   8.942  10.283  0.3805 -0.1639  0.0220
  142MOL0     C19069   9.213   8.944  10.370  0.4960 -0.3222  0.3022
  142MOL0     O19070   9.316   9.015  10.319 -0.5671  0.1036 -0.2271
  142MOL0     C19071   9.444   9.033  10.391  0.0134  0.1578 -0.1911
  142MOL0     C19072   9.521   9.151  10.323 -0.1847 -0.3494 -0.3760
  142MOL0     C19073   9.499   9.295  10.393 -0.9934  0.2578 -0.0717
  142MOL0     C19074   9.572   9.406  10.314  0.2245  0.5545 -0.0579
  142MOL0     C19075   9.585   9.537  10.389 -0.0152 -0.1152  0.3885
  142MOL0     C19076   9.720   9.540  10.465 -0.6218 -0.5149 -0.6414
  142MOL0     C19077   9.749   9.676  10.527 -0.0073  0.9223 -0.2123
  142MOL0     C19078   9.854   9.669  10.633 -0.1627  0.0154  0.7268
  142MOL0    Cl19079  10.011   9.652  10.568 -0.2879 -0.3293  0.3540
  142MOL0     C19080   9.213   8.863  10.485  0.4721 -0.1282 -0.5285
  142MOL0     C19081   9.101   8.786  10.517 -0.0877  0.6426 -0.1248
  142MOL0     O19082   8.887   8.597  10.268  0.2559  0.5532 -0.4887
  142MOL0     C19083   8.684   8.556  10.555 -0.8690  0.3782 -0.5831
  142MOL0     C19084   8.588   8.475  10.602  0.5227  1.0034 -0.1662
  142MOL0     N19085   7.996   7.764  10.485  0.1058 -0.0596 -0.9736
  142MOL0     N19086   7.975   7.663  10.411  0.1490 -0.4629  0.5473
  142MOL0     C19087   7.826   6.623  10.159  0.5014 -0.8388 -0.4865
  142MOL0     C19088   7.734   6.530  10.107 -0.0093 -0.8187  0.2819
  142MOL0     C19089   7.344   6.254  10.125 -0.3561  0.2398  0.2038
  142MOL0     C19090   7.311   6.282   9.994  0.5361  0.3843  0.9679
  142MOL0     C19091   7.201   6.222   9.930  0.3192  0.5687 -0.2878
  142MOL0     C19092   7.110   6.133  10.005 -0.7384 -0.4519 -0.0527
  142MOL0     O19093   6.993   6.087   9.951  0.5511  0.3910  0.5698
  142MOL0     C19094   6.916   5.979  10.006  0.7814 -0.0885 -0.1919
  142MOL0     C19095   6.781   5.980   9.932  0.1772 -0.1622 -0.3166
  142MOL0     C19096   6.693   5.860   9.962  0.3626  0.1322  0.8086
  142MOL0     C19097   6.568   5.879   9.865 -0.5322 -0.0311  1.0979
  142MOL0     C19098   6.482   5.763   9.857 -0.5616  0.5179 -0.8212
  142MOL0     C19099   6.407   5.671   9.840  0.6436  0.0747  0.1120
  142MOL0     C19100   7.143   6.106  10.139  0.7762 -1.2895 -0.1296
  142MOL0     C19101   7.258   6.167  10.200  0.3740  0.4693  0.6930
  142MOL0     C19102   7.296   6.118  10.337  0.3747 -0.2161 -0.4285
  142MOL0     H19103   7.458   6.604  10.301  0.6957 -0.7570 -0.8759
  142MOL0     H19104   7.618   6.761  10.396 -2.5716 -1.7648  0.7649
  142MOL0     H19105   7.772   6.914  10.420 -0.1496 -0.1624  2.0400
  142MOL0     H19106   7.866   6.788  10.511 -0.3446 -1.9000 -1.4252
  142MOL0     H19107   8.076   6.918  10.440 -0.2893 -1.7549 -2.1801
  142MOL0     H19108   7.967   7.014  10.542 -1.2418 -2.7689  1.5207
  142MOL0     H19109   7.860   7.087  10.316 -0.5246 -0.8774 -4.4537
  142MOL0     H19110   7.986   7.006  10.225  1.5093  1.4944 -0.1980
  142MOL0     H19111   8.065   7.208  10.415  0.2323  0.5491  0.3945
  142MOL0     H19112   8.163   7.129  10.295  0.5944 -0.6805 -1.3092
  142MOL0     H19113   8.042   7.253  10.105 -2.0293 -1.1985  0.2827
  142MOL0     H19114   7.930   7.309  10.229 -0.9382 -1.5558  0.1799
  142MOL0     H19115   8.103   7.430  10.341  1.8161 -1.3595  1.0014
  142MOL0     H19116   8.236   7.373  10.231 -0.6284 -1.3099 -2.7451
  142MOL0     H19117   8.072   7.453  10.036 -2.8810  1.4848  0.8336
  142MOL0     H19118   8.202   7.552  10.095  0.2297  0.7222  2.0734
  142MOL0     H19119   8.010   7.680  10.084 -1.4907  0.5629  0.0390
  142MOL0     H19120   7.913   7.564  10.165  0.1483 -0.9540 -2.2825
  142MOL0     H19121   8.182   7.833  10.222 -0.9923 -1.4092 -1.0499
  142MOL0     H19122   8.162   8.052  10.389 -2.0585 -1.2533 -1.6698
  142MOL0     H19123   8.061   8.032  10.529 -0.8681 -0.5349  0.8114
  142MOL0     H19124   8.238   7.901  10.635 -2.2573 -0.5209 -0.7762
  142MOL0     H19125   8.344   7.925  10.495  0.2088 -0.5516  1.2393
  142MOL0     H19126   8.407   8.080  10.679  0.5539 -0.0885 -0.9185
  142MOL0     H19127   8.237   8.147  10.685 -1.7375 -1.1956 -2.1592
  142MOL0     H19128   8.264   8.246  10.473  0.5679  0.5944 -0.0964
  142MOL0     H19129   8.415   8.147  10.445  0.5605 -1.1255  1.0412
  142MOL0     H19130   8.530   8.280  10.333 -0.8885 -0.0441  0.9043
  142MOL0     H19131   8.711   8.428  10.242  0.7489 -4.7741  1.2565
  142MOL0     H19132   8.897   8.892  10.256  0.0995 -2.1022 -1.7906
  142MOL0     H19133   9.089   9.003  10.194  1.2123  0.1175  0.0770
  142MOL0     H19134   9.425   9.063  10.494  1.0743 -0.8065  0.3040
  142MOL0     H19135   9.497   8.937  10.390  1.0821  0.7182 -2.3768
  142MOL0     H19136   9.625   9.122  10.340  0.2299  0.0659 -2.0222
  142MOL0     H19137   9.501   9.162  10.216  5.3648  1.7206 -1.5392
  142MOL0     H19138   9.392   9.319  10.393 -1.3082 -1.1176 -0.0596
  142MOL0     H19139   9.546   9.303  10.491  0.7692  2.6967 -0.9912
  142MOL0     H19140   9.515   9.429  10.223 -0.7807 -0.9335  0.1677
  142MOL0     H19141   9.672   9.372  10.288 -0.0343 -1.1452  1.0086
  142MOL0     H19142   9.497   9.568  10.447 -0.7970 -1.0686 -0.2619
  142MOL0     H19143   9.599   9.607  10.306  1.1443  0.9748  1.4539
  142MOL0     H19144   9.720   9.459  10.539  2.3924 -2.3337 -2.3929
  142MOL0     H19145   9.801   9.520  10.394 -1.1692  0.5397 -1.5770
  142MOL0     H19146   9.656   9.698  10.580  0.1755  0.0572  0.4909
  142MOL0     H19147   9.775   9.748  10.449 -1.4620 -0.8885 -2.4912
  142MOL0     H19148   9.843   9.763  10.688  1.8926  0.6906  0.0845
  142MOL0     H19149   9.830   9.586  10.700  0.9986 -2.3763 -1.6358
  142MOL0     H19150   9.303   8.848  10.543  0.5058 -0.0509 -0.5607
  142MOL0     H19151   9.099   8.716  10.600 -2.3394 -1.6921 -1.9221
  142MOL0     H19152   8.720   8.629  10.626  0.6581  0.3817 -1.3236
  142MOL0     H19153   8.553   8.490  10.704  2.6698 -0.6829  0.8865
  142MOL0     H19154   7.931   6.625  10.133  0.4051  1.1169 -0.8601
  142MOL0     H19155   7.777   6.455  10.041  1.6523 -1.5688  2.0995
  142MOL0     H19156   7.367   6.348   9.927 -0.4149 -0.5973 -0.8676
  142MOL0     H19157   7.168   6.233   9.827 -0.4003 -0.8705 -0.2410
  142MOL0     H19158   6.892   5.995  10.112 -2.6353  1.2080 -1.0082
  142MOL0     H19159   6.972   5.888   9.984 -0.3689 -0.6333 -0.9792
  142MOL0     H19160   6.810   5.990   9.827  0.0973  0.3230 -0.2945
  142MOL0     H19161   6.720   6.068   9.953  1.6527  1.1121 -1.1138
  142MOL0     H19162   6.666   5.855  10.068  1.0662 -1.0228  0.9453
  142MOL0     H19163   6.748   5.770   9.933  0.0336  0.5896 -1.4858
  142MOL0     H19164   6.510   5.968   9.891 -0.3093  0.9126 -1.3430
  142MOL0     H19165   6.611   5.889   9.765 -0.8123  0.3729  1.0154
  142MOL0     H19166   6.334   5.597   9.813 -1.0362  1.7466 -0.1214
  142MOL0     H19167   7.076   6.040  10.193 -2.5862  1.0727 -1.1038
  142MOL0     H19168   7.238   6.030  10.364  2.5758 -1.8551 -0.7239
  142MOL0     H19169   7.399   6.081  10.342 -0.5163 -3.0241 -1.1468
  142MOL0     H19170   7.286   6.193  10.416  2.3420 -0.4366  0.0984
  143MOL0     O19171   7.827   8.330   3.547  0.3213  0.0488  0.3105
  143MOL0     C19172   7.807   8.285   3.658 -0.1583  0.1323 -0.3662
  143MOL0     O19173   7.897   8.215   3.734 -0.0882  0.3918  0.3592
  143MOL0     C19174   8.033   8.222   3.722  0.1866  0.6071 -0.0976
  143MOL0     C19175   8.110   8.312   3.648  0.5149  0.2565  0.3574
  143MOL0     C19176   8.250   8.316   3.654  0.0211 -0.2812 -0.2483
  143MOL0     C19177   8.318   8.226   3.745  0.2617  0.3561  0.4199
  143MOL0     O19178   8.453   8.218   3.754 -0.5030  0.2264  0.0920
  143MOL0     C19179   8.521   8.185   3.631 -0.4623 -0.1178  0.8871
  143MOL0     C19180   8.655   8.114   3.668  0.3334  0.0761 -0.0621
  143MOL0     C19181   8.757   8.210   3.741 -0.4767  1.0100 -0.5627
  143MOL0     C19182   8.855   8.119   3.802 -0.6839  0.1879  0.2736
  143MOL0     C19183   8.969   8.211   3.857  0.2262 -1.4188  0.2189
  143MOL0     C19184   9.074   8.134   3.939  0.6813 -0.1854 -0.1176
  143MOL0     C19185   9.207   8.209   3.950  0.2763 -0.2950 -0.4935
  143MOL0     C19186   9.287   8.199   3.823 -0.0957 -0.2514  0.1723
  143MOL0     N19187   9.349   8.065   3.785  0.7346 -1.2001  0.2380
  143MOL0     C19188   9.449   8.000   3.850 -0.2568 -0.2163  0.8984
  143MOL0     C19189   9.496   7.908   3.760  0.3172 -0.2327 -0.8962
  143MOL0     C19190   9.612   7.811   3.782 -1.0986  0.3232 -0.2048
  143MOL0     C19191   9.683   7.764   3.647 -0.0882  0.3084 -0.1054
  143MOL0     C19192   9.762   7.638   3.673  0.1737 -0.3309 -0.1474
  143MOL0     C19193   9.857   7.598   3.557 -0.5116 -0.0754 -0.2480
  143MOL0     O19194   9.957   7.510   3.610  0.0673 -0.0838  0.3158
  143MOL0     C19195  10.080   7.495   3.547  0.2852 -0.8301  0.3343
  143MOL0     C19196  10.150   7.599   3.496 -0.0364 -0.6318 -0.1998
  143MOL0     C19197  10.275   7.580   3.432  0.5063 -0.8575 -0.5140
  143MOL0     C19198  10.335   7.463   3.427  0.5697 -0.0055  0.5984
  143MOL0     C19199  10.473   7.455   3.379  0.4936  0.5738 -0.3413
  143MOL0     O19200  10.546   7.570   3.400 -0.3151 -0.5009  0.3192
  143MOL0     C19201  10.674   7.593   3.352 -0.1311  0.0899 -0.6020
  143MOL0     C19202  10.740   7.714   3.384  0.3549  0.7239  0.5760
  143MOL0     C19203  10.872   7.734   3.341  0.7339  0.7720 -0.4740
  143MOL0     C19204  10.925   7.644   3.255  0.3383 -0.1281  0.7053
  143MOL0     O19205  11.043   7.698   3.210  0.1101 -0.0217 -0.3592
  143MOL0     C19206  11.106   7.643   3.105  0.3449  0.8634 -0.9520
  143MOL0     C19207  11.218   7.735   3.053 -0.1377  0.1657  0.6629
  143MOL0     C19208  11.312   7.662   2.953  0.3716 -0.3058  0.2346
  143MOL0     C19209  11.401   7.768   2.882 -0.1295 -0.1619  0.7934
  143MOL0     C19210  11.479   7.723   2.754  0.4724 -0.3037 -0.9946
  143MOL0     C19211  11.557   7.838   2.694 -0.0327 -0.5742 -0.0255
  143MOL0     C19212  11.672   7.890   2.764 -0.3172 -0.1252  0.4857
  143MOL0     C19213  11.728   8.005   2.679 -0.1027 -0.2142 -0.2585
  143MOL0    Cl19214  11.811   7.946   2.530  0.0524 -0.1723 -0.0136
  143MOL0     C19215  10.858   7.534   3.210 -0.2963  0.8932  0.3602
  143MOL0     C19216  10.731   7.507   3.255 -0.1089 -0.5240 -0.0562
  143MOL0     O19217  10.517   7.341   3.351  0.6271  0.1203  0.0254
  143MOL0     C19218  10.268   7.354   3.483 -0.4544 -0.1755 -0.1738
  143MOL0     C19219  10.138   7.370   3.546  0.4252 -0.7634  0.5315
  143MOL0     N19220   9.418   7.917   3.647 -0.3028  0.0373  0.0997
  143MOL0     N19221   9.327   8.006   3.661  0.2498 -0.1297 -0.1516
  143MOL0     C19222   8.240   8.146   3.829  0.4125 -0.2522 -0.9685
  143MOL0     C19223   8.099   8.139   3.813 -0.6863  0.5694 -0.1007
  143MOL0     C19224   7.666   8.275   3.697  0.5100  0.0018 -0.3726
  143MOL0     C19225   7.644   8.233   3.830  0.1097 -0.7913 -0.4094
  143MOL0     C19226   7.519   8.222   3.881 -0.2244 -0.1199 -0.9538
  143MOL0     C19227   7.407   8.251   3.807 -0.0454  0.5159  0.2806
  143MOL0     O19228   7.278   8.223   3.840 -0.3804 -0.5024  0.0291
  143MOL0     C19229   7.251   8.135   3.953  0.9471 -0.0592  0.2038
  143MOL0     C19230   7.170   8.209   4.051  0.0241  0.4683 -0.1328
  143MOL0     C19231   7.086   8.110   4.144 -0.3978 -0.6959  0.0129
  143MOL0     C19232   6.953   8.094   4.077  1.0270  0.3961  0.1371
  143MOL0     C19233   6.941   7.990   3.975 -0.3040 -0.2754 -0.2457
  143MOL0     C19234   6.946   7.899   3.901  0.3042  0.1968  0.4971
  143MOL0     C19235   7.423   8.318   3.683  0.0907  0.7252 -0.2179
  143MOL0     C19236   7.556   8.337   3.634  0.2504 -0.5219 -0.4538
  143MOL0     C19237   7.558   8.402   3.496  0.2210  0.6059 -0.1895
  143MOL0     H19238   8.062   8.388   3.586  2.4923  1.6886  0.4891
  143MOL0     H19239   8.308   8.375   3.584 -0.1433  0.3868  0.1772
  143MOL0     H19240   8.469   8.112   3.568  3.8942 -0.1957 -3.1959
  143MOL0     H19241   8.538   8.278   3.575 -0.4406  0.1341  1.3066
  143MOL0     H19242   8.689   8.070   3.575 -1.4249 -0.8100 -0.3297
  143MOL0     H19243   8.628   8.038   3.742 -2.1358  0.5352 -0.4070
  143MOL0     H19244   8.711   8.275   3.817 -0.5656  0.8045 -0.4411
  143MOL0     H19245   8.802   8.272   3.662 -0.0884  0.7248 -0.5678
  143MOL0     H19246   8.811   8.073   3.891 -1.0614  1.5856  0.8354
  143MOL0     H19247   8.904   8.053   3.729  4.7804  2.0387  1.7395
  143MOL0     H19248   9.012   8.257   3.767 -0.0175 -2.6087 -0.5417
  143MOL0     H19249   8.921   8.289   3.916  0.2117 -0.3586 -1.1282
  143MOL0     H19250   9.021   8.120   4.034  2.3485 -0.0751  0.8673
  143MOL0     H19251   9.094   8.035   3.895 -2.5221 -1.1894  0.4411
  143MOL0     H19252   9.254   8.166   4.039 -3.0245  2.6138  2.9667
  143MOL0     H19253   9.192   8.310   3.989 -0.4754 -2.1015  4.5694
  143MOL0     H19254   9.220   8.233   3.744  2.4226  0.2997 -1.8703
  143MOL0     H19255   9.361   8.279   3.827  1.1620 -1.2516 -1.5951
  143MOL0     H19256   9.487   8.011   3.951  0.9671  0.5585  0.3696
  143MOL0     H19257   9.681   7.864   3.848 -1.7578  0.5333  0.3378
  143MOL0     H19258   9.581   7.724   3.840  0.0517 -0.3684 -0.6100
  143MOL0     H19259   9.611   7.746   3.567 -2.3338  1.2580  1.6032
  143MOL0     H19260   9.753   7.844   3.619 -0.6002  0.8795  0.2123
  143MOL0     H19261   9.685   7.564   3.698  0.9162 -1.8004 -1.9440
  143MOL0     H19262   9.827   7.638   3.761 -2.4350 -0.5832  1.9013
  143MOL0     H19263   9.908   7.688   3.521 -0.3729 -1.1044 -2.8487
  143MOL0     H19264   9.805   7.560   3.468  1.0781  1.2974 -1.8492
  143MOL0     H19265  10.111   7.699   3.508  4.1393  1.1823  0.0482
  143MOL0     H19266  10.325   7.670   3.395  5.5022 -3.2145 -0.3887
  143MOL0     H19267  10.692   7.786   3.449 -0.7310 -0.0638  0.6643
  143MOL0     H19268  10.915   7.827   3.378  1.6634  0.6125 -1.1261
  143MOL0     H19269  11.156   7.550   3.132  0.1332  1.0414  0.0907
  143MOL0     H19270  11.026   7.632   3.030 -0.6247  0.0636  0.1549
  143MOL0     H19271  11.172   7.822   3.006  1.2843  1.7445  2.0593
  143MOL0     H19272  11.276   7.783   3.132 -0.5789  1.5889  0.1649
  143MOL0     H19273  11.385   7.598   3.003  2.8821  1.1789 -1.3116
  143MOL0     H19274  11.252   7.608   2.879  1.9723 -3.0488  0.8164
  143MOL0     H19275  11.467   7.801   2.962  2.9180  0.7822 -1.9088
  143MOL0     H19276  11.345   7.860   2.862 -0.6320 -0.4735  0.7550
  143MOL0     H19277  11.413   7.680   2.678  0.0531  0.2745 -0.9577
  143MOL0     H19278  11.549   7.646   2.788  1.0571  0.6181 -0.0522
  143MOL0     H19279  11.586   7.817   2.590 -1.3079  0.6579 -0.6697
  143MOL0     H19280  11.491   7.925   2.684 -0.6324 -0.8973  1.0262
  143MOL0     H19281  11.732   7.800   2.779 -1.4760 -0.7605  1.4909
  143MOL0     H19282  11.632   7.928   2.859 -0.9605 -1.9191  0.9871
  143MOL0     H19283  11.640   8.061   2.646  0.3293  1.3339  1.0504
  143MOL0     H19284  11.798   8.070   2.734  0.1380 -1.9475  1.5848
  143MOL0     H19285  10.911   7.465   3.145 -1.0672 -0.6050  1.2744
  143MOL0     H19286  10.684   7.421   3.207  1.6835 -0.3690 -2.2969
  143MOL0     H19287  10.322   7.260   3.481  0.3393  0.2711 -0.0281
  143MOL0     H19288  10.084   7.280   3.573  1.1886 -1.8051 -1.2415
  143MOL0     H19289   8.296   8.084   3.898  1.1574 -1.0352 -2.2642
  143MOL0     H19290   8.052   8.061   3.872  1.8553 -0.0391  1.2538
  143MOL0     H19291   7.723   8.197   3.896 -1.3043 -1.7639  0.8271
  143MOL0     H19292   7.522   8.178   3.980 -0.8034  2.9889  0.5650
  143MOL0     H19293   7.343   8.094   3.996  0.7321 -0.5658  0.1923
  143MOL0     H19294   7.193   8.054   3.908 -1.2779  0.7483  1.4747
  143MOL0     H19295   7.104   8.270   3.989 -0.2093 -0.2874 -0.6462
  143MOL0     H19296   7.246   8.273   4.097  0.8005 -0.0982 -0.6011
  143MOL0     H19297   7.074   8.145   4.247  1.8650  1.3939 -0.3222
  143MOL0     H19298   7.142   8.016   4.147  0.2731 -0.3206 -0.3742
  143MOL0     H19299   6.899   8.048   4.160  2.4767 -1.3695  0.1787
  143MOL0     H19300   6.907   8.186   4.040 -1.9041 -0.6614  0.8490
  143MOL0     H19301   6.938   7.811   3.840 -2.1207  0.3112  0.5829
  143MOL0     H19302   7.335   8.353   3.632 -2.2057 -1.5587  1.8533
  143MOL0     H19303   7.609   8.336   3.426 -0.4143  0.7063 -0.7613
  143MOL0     H19304   7.458   8.432   3.463 -0.6579 -2.5934 -0.8041
  143MOL0     H19305   7.614   8.496   3.506 -2.2997  2.2990 -1.0042
  144MOL0     O19306   6.222   2.438   3.403 -0.1345  0.9050 -0.1876
  144MOL0     C19307   6.259   2.472   3.291  1.2272 -0.3586 -0.6344
  144MOL0     O19308   6.370   2.532   3.256  0.0496  0.5067 -0.2513
  144MOL0     C19309   6.478   2.518   3.335 -0.0845  0.1638 -0.0096
  144MOL0     C19310   6.591   2.439   3.295 -0.4005  1.1075  0.0445
  144MOL0     C19311   6.714   2.432   3.375 -0.3404  0.2645  0.2545
  144MOL0     C19312   6.719   2.484   3.505  0.2207  0.3416 -0.0498
  144MOL0     O19313   6.832   2.465   3.587  0.5819 -0.2597  0.6505
  144MOL0     C19314   6.845   2.555   3.703  1.0930 -0.2372 -0.3861
  144MOL0     C19315   6.968   2.517   3.776 -0.5635 -0.0877 -0.1515
  144MOL0     C19316   7.094   2.540   3.694 -0.2584 -0.6430  1.0809
  144MOL0     C19317   7.216   2.490   3.766  0.6600 -0.2457 -0.8430
  144MOL0     C19318   7.341   2.526   3.690  0.5594  0.3242  0.2427
  144MOL0     C19319   7.344   2.458   3.547  0.2536 -0.4961  0.1929
  144MOL0     C19320   7.489   2.479   3.495 -0.0487 -0.0068  0.0764
  144MOL0     C19321   7.575   2.359   3.542  0.0606 -0.0588  0.4260
  144MOL0     N19322   7.708   2.376   3.475  0.4408 -0.1911 -0.1239
  144MOL0     C19323   7.776   2.296   3.387 -0.2192 -0.4284  0.2899
  144MOL0     C19324   7.899   2.344   3.380 -0.0684 -0.2489 -0.3225
  144MOL0     C19325   8.010   2.298   3.296  0.8777  0.5466  0.2081
  144MOL0     C19326   8.129   2.242   3.376  0.6086 -0.4188  0.5280
  144MOL0     C19327   8.232   2.349   3.398  0.1843 -0.6101  0.0901
  144MOL0     C19328   8.345   2.291   3.494  0.1355  0.0688  0.4596
  144MOL0     O19329   8.399   2.164   3.439  0.1291 -0.2842  0.0907
  144MOL0     C19330   8.517   2.166   3.375 -0.6754 -0.9143 -0.7932
  144MOL0     C19331   8.570   2.284   3.315  0.5426  0.2395 -0.0449
  144MOL0     C19332   8.698   2.268   3.254 -1.0525  0.1222 -0.6808
  144MOL0     C19333   8.763   2.143   3.243 -0.5159  0.3185 -0.8340
  144MOL0     C19334   8.895   2.131   3.185  0.4075 -0.0575 -0.5229
  144MOL0     O19335   8.939   2.002   3.138 -0.5602  0.2555 -0.3392
  144MOL0     C19336   9.072   1.976   3.088 -0.2879 -0.1451  0.4044
  144MOL0     C19337   9.096   1.863   3.014  0.5156 -0.1660  0.0047
  144MOL0     C19338   9.222   1.828   2.962 -0.1264  0.0559 -0.2722
  144MOL0     C19339   9.337   1.906   2.981 -1.3453 -0.2462 -0.5564
  144MOL0     O19340   9.453   1.883   2.906 -0.8515  0.3741  0.1828
  144MOL0     C19341   9.549   1.994   2.891 -0.0068  0.3065 -0.1400
  144MOL0     C19342   9.658   2.003   2.996  0.7385  0.5167 -0.3779
  144MOL0     C19343   9.747   2.114   2.947 -0.5238 -0.0111  0.0246
  144MOL0     C19344   9.862   2.120   3.042 -0.3693  0.3606 -0.5661
  144MOL0     C19345   9.962   2.234   2.999  0.3576  0.5690 -0.0634
  144MOL0     C19346  10.085   2.244   3.092  0.0656 -0.0863 -0.0596
  144MOL0     C19347  10.144   2.393   3.076 -0.1996  0.0672 -0.6593
  144MOL0     C19348  10.275   2.412   3.164  0.4227  0.5450 -0.2359
  144MOL0    Cl19349  10.425   2.312   3.109  0.3513  0.0189  0.1232
  144MOL0     C19350   9.318   2.026   3.057  0.6484 -0.3400 -0.4511
  144MOL0     C19351   9.188   2.054   3.117 -0.1920  1.1821  0.7537
  144MOL0     O19352   8.953   2.244   3.169 -0.2300  0.2571  0.5816
  144MOL0     C19353   8.711   2.025   3.302  0.7112 -0.5164 -0.3679
  144MOL0     C19354   8.582   2.041   3.364  0.5084 -0.1882  0.7130
  144MOL0     N19355   7.912   2.454   3.462  0.2230  0.5870 -0.6034
  144MOL0     N19356   7.793   2.477   3.503 -0.1176  0.2293  0.1688
  144MOL0     C19357   6.605   2.538   3.555 -0.0952 -0.1145  0.3198
  144MOL0     C19358   6.488   2.555   3.476 -0.4099  0.7009 -0.1979
  144MOL0     C19359   6.146   2.483   3.189 -0.2577 -0.1532  0.3884
  144MOL0     C19360   6.155   2.580   3.086  0.0387  0.2455 -0.1982
  144MOL0     C19361   6.061   2.578   2.979  0.0783 -0.0556 -1.0826
  144MOL0     C19362   5.951   2.493   2.981  0.1079 -0.4316 -0.0784
  144MOL0     O19363   5.863   2.511   2.876  0.3933 -0.4103 -0.8254
  144MOL0     C19364   5.733   2.458   2.885 -0.1004 -0.1531  0.1732
  144MOL0     C19365   5.639   2.492   2.771 -0.0474  0.3554 -0.5259
  144MOL0     C19366   5.496   2.490   2.803  0.0238 -0.1743 -0.5367
  144MOL0     C19367   5.419   2.364   2.815 -0.1332  0.5490 -0.3695
  144MOL0     C19368   5.457   2.279   2.924  0.1993 -0.5288  0.7317
  144MOL0     C19369   5.491   2.224   3.032  0.4089 -0.9187  0.1910
  144MOL0     C19370   5.935   2.412   3.093  0.3422 -0.3402  0.1170
  144MOL0     C19371   6.035   2.394   3.186  0.8104 -0.2201  0.6140
  144MOL0     C19372   5.999   2.292   3.290  0.1962  0.6182 -0.1350
  144MOL0     H19373   6.580   2.385   3.202  1.9956  0.4402  0.0732
  144MOL0     H19374   6.806   2.376   3.370 -1.4777 -1.9960  2.4750
  144MOL0     H19375   6.843   2.658   3.669 -1.2308  0.7830  2.4339
  144MOL0     H19376   6.765   2.538   3.776  2.2698  0.4459  1.1152
  144MOL0     H19377   6.951   2.412   3.798  1.3907 -0.2337  0.8223
  144MOL0     H19378   6.988   2.572   3.868  2.1687  0.9302 -1.2355
  144MOL0     H19379   7.117   2.641   3.659 -0.5742 -1.3612 -1.4034
  144MOL0     H19380   7.078   2.482   3.603  1.2079 -0.4726  0.6875
  144MOL0     H19381   7.228   2.523   3.870 -1.2818  2.3727 -1.3338
  144MOL0     H19382   7.203   2.382   3.774 -2.0829  0.0163 -0.5257
  144MOL0     H19383   7.352   2.634   3.682 -1.1597  0.4564 -0.9311
  144MOL0     H19384   7.430   2.497   3.746  1.2429  1.0793 -0.4383
  144MOL0     H19385   7.324   2.350   3.551 -1.4777 -0.2174 -0.0141
  144MOL0     H19386   7.270   2.511   3.487  1.5795 -0.7539 -1.7452
  144MOL0     H19387   7.523   2.576   3.531  1.5925 -1.3425  2.4015
  144MOL0     H19388   7.499   2.491   3.386  0.9861  1.3540  0.2935
  144MOL0     H19389   7.576   2.360   3.651 -3.0047  3.4968  0.6375
  144MOL0     H19390   7.541   2.263   3.504 -3.7352  1.8040 -1.4092
  144MOL0     H19391   7.729   2.215   3.332  0.9086 -1.5690  0.9373
  144MOL0     H19392   7.968   2.232   3.219  4.1499  0.8393 -2.0524
  144MOL0     H19393   8.039   2.378   3.227 -4.3009  1.7326 -0.9860
  144MOL0     H19394   8.107   2.201   3.475 -1.5013 -0.1548  0.2192
  144MOL0     H19395   8.176   2.165   3.314  0.7518  0.4289 -0.4373
  144MOL0     H19396   8.191   2.443   3.436  2.0651  0.7428 -1.0814
  144MOL0     H19397   8.278   2.372   3.302 -0.9427  0.2765 -0.2551
  144MOL0     H19398   8.306   2.271   3.594  1.7831 -1.7184  0.7966
  144MOL0     H19399   8.417   2.372   3.509 -3.3239  3.3841  0.6101
  144MOL0     H19400   8.527   2.383   3.319 -0.9277 -0.3249  4.9398
  144MOL0     H19401   8.746   2.359   3.217 -0.9815  0.1086 -0.6224
  144MOL0     H19402   9.008   1.802   2.995  0.8228 -0.0589 -1.8746
  144MOL0     H19403   9.223   1.738   2.902  0.1114 -1.2302  1.5850
  144MOL0     H19404   9.602   1.965   2.800  0.1536 -0.4734  0.1893
  144MOL0     H19405   9.492   2.086   2.875 -0.1080  0.1548 -0.6641
  144MOL0     H19406   9.624   2.013   3.100  1.2135 -0.7502 -0.0889
  144MOL0     H19407   9.722   1.915   2.988 -1.3807 -0.9772 -1.8626
  144MOL0     H19408   9.780   2.101   2.844 -1.5696  3.4979 -0.8910
  144MOL0     H19409   9.691   2.208   2.944 -2.0838 -0.9265 -1.4455
  144MOL0     H19410   9.917   2.026   3.053  2.0748  1.4597 -2.2559
  144MOL0     H19411   9.821   2.151   3.138 -3.5538  1.0796 -2.0437
  144MOL0     H19412   9.902   2.325   3.001 -0.5706  0.1519 -3.2235
  144MOL0     H19413   9.995   2.212   2.897  1.4232  0.2971  0.3285
  144MOL0     H19414  10.057   2.221   3.196 -1.5615  0.2452 -0.3927
  144MOL0     H19415  10.151   2.164   3.058 -0.8604 -0.4045 -1.1517
  144MOL0     H19416  10.070   2.465   3.112 -1.3136 -1.1090 -0.5266
  144MOL0     H19417  10.177   2.413   2.974 -0.0132  0.1797 -0.5760
  144MOL0     H19418  10.308   2.516   3.156  2.6972 -0.1398 -0.5950
  144MOL0     H19419  10.240   2.392   3.265  0.4561  1.3028 -0.0693
  144MOL0     H19420   9.398   2.096   3.081  0.6253 -0.0680 -1.1255
  144MOL0     H19421   9.173   2.138   3.184  0.3433  2.5442 -0.7767
  144MOL0     H19422   8.775   1.938   3.312  1.7139  0.2868  0.4308
  144MOL0     H19423   8.538   1.960   3.422  1.8215 -0.5647  1.2123
  144MOL0     H19424   6.596   2.565   3.660  1.6883  0.7840  0.2759
  144MOL0     H19425   6.392   2.589   3.514 -0.8199 -0.1395 -0.4618
  144MOL0     H19426   6.246   2.639   3.075 -0.9009  1.6985 -0.4286
  144MOL0     H19427   6.077   2.644   2.895  0.9153 -0.1203 -0.9814
  144MOL0     H19428   5.691   2.492   2.980 -0.5552 -2.4711  0.8697
  144MOL0     H19429   5.736   2.350   2.904  0.8618  0.2937  3.1345
  144MOL0     H19430   5.652   2.415   2.694  0.1903 -1.8156  1.5580
  144MOL0     H19431   5.664   2.588   2.726 -2.5341  0.9221 -0.8460
  144MOL0     H19432   5.464   2.558   2.724  0.2630  0.0597 -0.4311
  144MOL0     H19433   5.475   2.536   2.900  3.2969  0.1733  0.1121
  144MOL0     H19434   5.312   2.378   2.832 -0.2579 -0.0369 -0.6377
  144MOL0     H19435   5.424   2.307   2.721  0.6175 -1.4193  0.8053
  144MOL0     H19436   5.536   2.204   3.127 -0.3813 -1.8731  0.3854
  144MOL0     H19437   5.836   2.369   3.103 -1.1337  3.1576  2.2898
  144MOL0     H19438   5.990   2.338   3.388  1.3200  2.3701 -0.8042
  144MOL0     H19439   5.907   2.238   3.265  0.7440 -1.4715  2.0678
  144MOL0     H19440   6.073   2.212   3.296 -0.4898 -0.1579 -1.5902
  145MOL0     O19441   4.398   9.462   9.711 -0.0369  0.1524  0.1103
  145MOL0     C19442   4.341   9.498   9.611 -0.0739  0.8433 -0.4526
  145MOL0     O19443   4.407   9.568   9.520  0.4975  0.2950 -0.0785
  145MOL0     C19444   4.530   9.611   9.545 -0.3301 -0.4176  1.1452
  145MOL0     C19445   4.636   9.555   9.473 -0.5750  0.3671 -0.4419
  145MOL0     C19446   4.759   9.605   9.499 -0.5868  0.4247  0.3232
  145MOL0     C19447   4.791   9.703   9.588 -1.0581 -0.2500 -0.1205
  145MOL0     O19448   4.918   9.750   9.579 -0.4920 -0.0994  0.1962
  145MOL0     C19449   4.964   9.829   9.687 -0.0367  0.2234  0.0919
  145MOL0     C19450   5.099   9.881   9.650  0.2859  0.3580 -0.7495
  145MOL0     C19451   5.146   9.988   9.755 -0.9844  0.0155 -0.2475
  145MOL0     C19452   5.257  10.074   9.696 -0.4240 -0.6727  0.4385
  145MOL0     C19453   5.342  10.138   9.805  1.3119  0.0800  0.4769
  145MOL0     C19454   5.268  10.235   9.896 -0.7417  1.0963 -0.0379
  145MOL0     C19455   5.334  10.271  10.027 -0.1232 -0.2254 -0.5530
  145MOL0     C19456   5.394  10.151  10.111  0.3478  0.6199 -0.1609
  145MOL0     N19457   5.390  10.177  10.253 -0.9644 -0.8588  0.8100
  145MOL0     C19458   5.281  10.205  10.320  0.0369 -0.1172 -0.6826
  145MOL0     C19459   5.323  10.265  10.432 -0.0047 -0.1905 -0.6808
  145MOL0     C19460   5.241  10.318  10.542 -0.2411 -0.4946 -0.1894
  145MOL0     C19461   5.196  10.469  10.523  1.1390 -0.3338  0.4767
  145MOL0     C19462   5.088  10.485  10.410  0.0313 -0.2179  0.0466
  145MOL0     C19463   4.943  10.430  10.445 -0.0123  0.0972  0.8039
  145MOL0     O19464   4.866  10.398  10.323 -0.5616 -0.4545  0.1786
  145MOL0     C19465   4.787  10.485  10.257  0.2994 -1.1866  0.1069
  145MOL0     C19466   4.785  10.626  10.272 -0.2758 -0.0757 -0.5977
  145MOL0     C19467   4.699  10.706  10.207  0.5709 -0.1532 -0.0643
  145MOL0     C19468   4.615  10.655  10.101 -0.0088 -0.1434 -0.2450
  145MOL0     C19469   4.529  10.746  10.021 -0.0076 -0.1328  0.3359
  145MOL0     O19470   4.503  10.881  10.052  0.3027  0.0365 -0.1796
  145MOL0     C19471   4.433  10.965   9.964  0.4259 -0.1805 -0.6383
  145MOL0     C19472   4.333  10.928   9.873  0.0534 -0.0466 -0.3990
  145MOL0     C19473   4.255  11.028   9.796  0.9002 -0.0231 -0.3262
  145MOL0     C19474   4.293  11.162   9.800  0.3570  0.2112 -0.2387
  145MOL0     O19475   4.225  11.257   9.722 -0.4357 -0.3942 -0.1851
  145MOL0     C19476   4.169  11.365   9.794  0.0451 -0.1546 -0.3946
  145MOL0     C19477   4.080  11.438   9.701  0.9904 -1.0237 -0.0552
  145MOL0     C19478   4.020  11.557   9.783 -0.7310  0.4188  0.2737
  145MOL0     C19479   3.942  11.651   9.688  0.7260  1.1011  1.0459
  145MOL0     C19480   3.863  11.742   9.784  0.0864 -0.3911  0.4018
  145MOL0     C19481   3.755  11.817   9.706  0.0604 -0.2004 -0.0398
  145MOL0     C19482   3.837  11.927   9.617 -0.9120 -0.1882 -0.1321
  145MOL0     C19483   3.762  12.032   9.539 -0.2190  0.2301  0.0914
  145MOL0    Cl19484   3.608  12.080   9.622  0.1359  0.1147 -0.1132
  145MOL0     C19485   4.399  11.192   9.888 -0.1992 -0.1331  0.4311
  145MOL0     C19486   4.464  11.098   9.970 -0.4594  0.2063 -0.3786
  145MOL0     O19487   4.491  10.695   9.913 -0.2748  0.1802  0.1236
  145MOL0     C19488   4.627  10.517  10.075 -0.8640  0.6306  0.1022
  145MOL0     C19489   4.708  10.436  10.155 -0.5927 -0.5360  0.2687
  145MOL0     N19490   5.458  10.274  10.431 -0.3967 -0.1290 -0.6523
  145MOL0     N19491   5.501  10.222  10.319 -0.5178 -0.4378 -0.0778
  145MOL0     C19492   4.691   9.762   9.665  0.0240 -0.0126  0.2791
  145MOL0     C19493   4.558   9.710   9.640  0.3239 -0.2647 -0.0973
  145MOL0     C19494   4.201   9.444   9.590  0.3404  0.3132 -0.3551
  145MOL0     C19495   4.129   9.399   9.699 -0.0987 -0.2312 -0.8776
  145MOL0     C19496   3.997   9.348   9.680  0.3036 -0.9796  0.4987
  145MOL0     C19497   3.934   9.341   9.555  0.2102  0.6625 -1.1775
  145MOL0     O19498   3.815   9.274   9.535 -0.6403 -1.0424  0.4957
  145MOL0     C19499   3.713   9.309   9.626 -0.0049  0.3294  0.1085
  145MOL0     C19500   3.582   9.290   9.554  0.6533 -0.2753  0.6530
  145MOL0     C19501   3.468   9.288   9.665 -0.3270  0.2521 -0.3069
  145MOL0     C19502   3.330   9.295   9.604 -0.3003  0.2910 -0.1743
  145MOL0     C19503   3.231   9.339   9.706 -0.1411 -0.0643  0.0038
  145MOL0     C19504   3.147   9.372   9.783 -0.4331  0.3801  0.5688
  145MOL0     C19505   4.011   9.383   9.446  1.1038  0.2199 -0.4304
  145MOL0     C19506   4.144   9.425   9.460  0.4308  0.4614  0.6304
  145MOL0     C19507   4.219   9.453   9.330 -0.0091 -0.7911  0.5984
  145MOL0     H19508   4.620   9.473   9.404  0.0423 -0.5475  0.4678
  145MOL0     H19509   4.844   9.566   9.444  1.1258  2.4001  1.4013
  145MOL0     H19510   4.902   9.918   9.704 -3.2765 -2.0360  0.9968
  145MOL0     H19511   4.969   9.766   9.776  1.1159 -1.5923 -1.1919
  145MOL0     H19512   5.088   9.928   9.551 -0.3838  1.3100 -0.2365
  145MOL0     H19513   5.166   9.796   9.634 -1.4522 -1.2410  0.1882
  145MOL0     H19514   5.191   9.941   9.843 -1.7001  0.6865  0.5007
  145MOL0     H19515   5.068  10.048   9.803  1.8171 -0.1445  5.3804
  145MOL0     H19516   5.323  10.014   9.632 -1.0953 -0.9831  0.0196
  145MOL0     H19517   5.215  10.154   9.635  2.3885  1.1030  0.6546
  145MOL0     H19518   5.386  10.060   9.868  1.9407 -2.0489 -2.3990
  145MOL0     H19519   5.430  10.190   9.767 -0.1715  2.9488  0.7372
  145MOL0     H19520   5.237  10.325   9.842 -0.2494  1.3638  0.1209
  145MOL0     H19521   5.172  10.193   9.926  0.2155  0.2179  2.0107
  145MOL0     H19522   5.267  10.333  10.088  0.6046  0.4925 -0.4586
  145MOL0     H19523   5.421  10.330   9.997  1.3728 -1.6286  0.8059
  145MOL0     H19524   5.318  10.072  10.109  0.8841  0.0723 -2.7219
  145MOL0     H19525   5.485  10.102  10.074 -1.3418 -1.8938 -1.2830
  145MOL0     H19526   5.179  10.177  10.296 -1.6820  2.0553  3.2965
  145MOL0     H19527   5.153  10.253  10.551 -1.0500  0.1957 -2.4199
  145MOL0     H19528   5.303  10.308  10.632 -0.3361  0.8810  0.0608
  145MOL0     H19529   5.159  10.505  10.620  2.1448  2.9234 -0.2047
  145MOL0     H19530   5.281  10.534  10.503 -0.5665  1.8315 -0.1775
  145MOL0     H19531   5.124  10.433  10.321  1.0549  0.3849  0.0926
  145MOL0     H19532   5.081  10.594  10.397  0.9093  0.1162  2.0827
  145MOL0     H19533   4.886  10.490  10.517  0.7758 -1.5957  2.9426
  145MOL0     H19534   4.953  10.344  10.511 -0.0261  0.8167  1.7667
  145MOL0     H19535   4.854  10.672  10.342  0.5976 -0.9977 -0.8449
  145MOL0     H19536   4.691  10.811  10.235  0.1179 -0.3035  0.4009
  145MOL0     H19537   4.311  10.825   9.849  2.3973 -0.4223 -1.1534
  145MOL0     H19538   4.182  10.996   9.723 -1.6721 -1.2913  2.5882
  145MOL0     H19539   4.101  11.325   9.870  1.6820  0.3986  1.4332
  145MOL0     H19540   4.247  11.416   9.851 -0.2413 -0.0410 -0.0981
  145MOL0     H19541   4.138  11.467   9.612  1.9232 -1.6269  0.3355
  145MOL0     H19542   4.008  11.371   9.653  0.0957 -1.4985  1.8733
  145MOL0     H19543   3.963  11.503   9.859  1.8637  0.0820  2.0795
  145MOL0     H19544   4.102  11.612   9.830  0.7640 -2.7681  1.6602
  145MOL0     H19545   3.880  11.602   9.612  3.5119  0.4797 -1.0378
  145MOL0     H19546   4.020  11.697   9.626  0.8856 -1.2126 -0.6222
  145MOL0     H19547   3.937  11.808   9.831  0.2388 -0.5580  0.3972
  145MOL0     H19548   3.812  11.680   9.858  0.7320 -0.8842  0.4456
  145MOL0     H19549   3.697  11.746   9.647 -0.6824 -0.1341  0.5867
  145MOL0     H19550   3.694  11.869   9.781  0.3429  0.9813 -0.6048
  145MOL0     H19551   3.896  11.868   9.547  1.9182  0.8001  1.2371
  145MOL0     H19552   3.907  11.985   9.678 -2.7253  2.0811 -0.0561
  145MOL0     H19553   3.827  12.118   9.521 -1.0739  1.1463  1.1745
  145MOL0     H19554   3.731  11.980   9.448  2.9879 -2.3273  0.2636
  145MOL0     H19555   4.432  11.295   9.896 -1.3986  0.2797  0.2482
  145MOL0     H19556   4.550  11.123  10.032  1.4585  0.2277 -2.8678
  145MOL0     H19557   4.576  10.478   9.987  0.9892  0.4749 -0.9472
  145MOL0     H19558   4.704  10.329  10.137 -2.5604 -0.0261 -3.0725
  145MOL0     H19559   4.708   9.838   9.741 -1.5598 -0.7355  1.4015
  145MOL0     H19560   4.474   9.742   9.702  0.2810  0.3543 -0.4673
  145MOL0     H19561   4.168   9.394   9.801 -3.1139 -1.6864  0.3406
  145MOL0     H19562   3.949   9.307   9.768  0.7126 -1.9111  0.2963
  145MOL0     H19563   3.728   9.407   9.671 -1.5167 -0.5161  2.6422
  145MOL0     H19564   3.715   9.245   9.714 -1.5148  2.1270  1.5426
  145MOL0     H19565   3.584   9.202   9.489  0.4529  2.4521 -3.4110
  145MOL0     H19566   3.558   9.378   9.493  2.5127  0.4966  0.9518
  145MOL0     H19567   3.484   9.386   9.711  0.5694  0.0159 -0.0895
  145MOL0     H19568   3.476   9.203   9.733 -1.6001 -0.0946 -0.5707
  145MOL0     H19569   3.315   9.375   9.531  0.0837  2.9107  2.4532
  145MOL0     H19570   3.292   9.199   9.566  0.3435 -0.3484  0.7696
  145MOL0     H19571   3.069   9.408   9.847  1.5256  2.6064  1.8731
  145MOL0     H19572   3.973   9.374   9.345  1.1214 -1.0343 -0.3409
  145MOL0     H19573   4.167   9.424   9.238  0.6598  0.9241 -0.3682
  145MOL0     H19574   4.250   9.557   9.319  0.5533 -0.9299  0.8617
  145MOL0     H19575   4.309   9.390   9.331  1.3224  0.9698  3.3823
  146MOL0     O19576   1.221   8.904   3.142  0.0463  0.1386  0.3000
  146MOL0     C19577   1.177   8.978   3.049  0.8609 -0.1486  0.6058
  146MOL0     O19578   1.221   9.102   3.013 -0.3338 -0.2273  0.1778
  146MOL0     C19579   1.352   9.129   3.043  0.9107  0.1954 -0.2636
  146MOL0     C19580   1.455   9.030   3.034  0.0517 -0.0306  0.0844
  146MOL0     C19581   1.587   9.058   3.062  0.4688 -0.8089  0.7869
  146MOL0     C19582   1.622   9.188   3.083 -0.4024 -0.5272  1.0123
  146MOL0     O19583   1.752   9.236   3.106 -0.2683 -0.3923 -1.0459
  146MOL0     C19584   1.852   9.155   3.169 -0.3165  0.6325  0.5411
  146MOL0     C19585   1.927   9.227   3.275 -0.2647  0.4081 -0.3685
  146MOL0     C19586   2.019   9.334   3.206 -0.1110 -0.5684  0.1893
  146MOL0     C19587   2.082   9.413   3.324 -0.1659  0.3705 -0.1501
  146MOL0     C19588   2.195   9.506   3.269  0.0718 -0.0898  0.1725
  146MOL0     C19589   2.284   9.555   3.385  0.3408  0.9747 -0.1398
  146MOL0     C19590   2.389   9.678   3.374  0.0531  0.1201  0.2847
  146MOL0     C19591   2.445   9.719   3.502 -1.0539  0.4135  0.2233
  146MOL0     N19592   2.568   9.798   3.487 -0.2829 -0.4310  0.3023
  146MOL0     C19593   2.586   9.917   3.419 -0.0360  0.3329  0.2089
  146MOL0     C19594   2.704   9.970   3.464  0.0027 -0.3423 -0.0497
  146MOL0     C19595   2.754  10.109   3.411 -0.3309 -0.0150 -0.3188
  146MOL0     C19596   2.905  10.117   3.427 -0.4406 -0.4348  0.4562
  146MOL0     C19597   2.933  10.158   3.574 -0.0200  0.6232 -0.1744
  146MOL0     C19598   3.084  10.156   3.610  0.0517 -0.7752  0.0115
  146MOL0     O19599   3.147  10.249   3.520 -0.1224 -0.5443 -0.6989
  146MOL0     C19600   3.275  10.221   3.500  0.6899  0.2595  0.3271
  146MOL0     C19601   3.373  10.306   3.554 -0.7756 -0.6475 -0.0814
  146MOL0     C19602   3.513  10.284   3.530  0.2183 -0.0151 -0.3055
  146MOL0     C19603   3.545  10.174   3.450 -0.5315 -0.9882 -0.0620
  146MOL0     C19604   3.689  10.143   3.434 -0.1544  1.2666 -0.5301
  146MOL0     O19605   3.777  10.213   3.512  0.6271  0.0836  0.0113
  146MOL0     C19606   3.904  10.176   3.522 -0.0318 -0.2553  0.6518
  146MOL0     C19607   3.951  10.087   3.616  0.5904  0.7292 -0.2284
  146MOL0     C19608   4.079  10.031   3.596 -0.1496 -0.5243  0.2403
  146MOL0     C19609   4.153  10.055   3.486  0.7158 -0.9317 -0.1239
  146MOL0     O19610   4.287  10.025   3.467  0.5722 -0.9342  0.7844
  146MOL0     C19611   4.317   9.888   3.483 -0.5420  0.4645 -0.3829
  146MOL0     C19612   4.470   9.866   3.480 -1.2523  0.3046 -0.5389
  146MOL0     C19613   4.539   9.884   3.621  0.9515 -0.7874  1.1334
  146MOL0     C19614   4.692   9.878   3.608  0.6702 -0.0171  1.1227
  146MOL0     C19615   4.765   9.898   3.740  0.1999  0.1112  0.6170
  146MOL0     C19616   4.917   9.909   3.713 -0.4371 -0.7928 -0.0220
  146MOL0     C19617   4.990   9.952   3.838 -0.3560 -0.0590  0.3706
  146MOL0     C19618   5.139   9.912   3.851 -0.0787 -0.4002 -0.2890
  146MOL0    Cl19619   5.234  10.033   3.738 -0.4644  0.2813 -0.1316
  146MOL0     C19620   4.119  10.162   3.401  0.5033 -0.0462  0.6499
  146MOL0     C19621   3.990  10.227   3.417 -0.0329  0.3933 -0.3358
  146MOL0     O19622   3.718  10.038   3.367 -0.2662 -0.6881 -0.3249
  146MOL0     C19623   3.448  10.094   3.392  0.4026  0.1943  0.9665
  146MOL0     C19624   3.312  10.120   3.410  0.2491 -0.6299 -0.7514
  146MOL0     N19625   2.760   9.878   3.550  0.1644 -0.0243 -0.6807
  146MOL0     N19626   2.677   9.781   3.545 -0.3460  0.4832 -0.4545
  146MOL0     C19627   1.527   9.290   3.085  0.0858  0.7423 -0.7719
  146MOL0     C19628   1.391   9.258   3.062  1.2625 -0.8579  1.0554
  146MOL0     C19629   1.053   8.933   2.982 -1.4738  0.4270 -0.7774
  146MOL0     C19630   0.967   9.029   2.932 -0.3877 -0.2485 -0.3945
  146MOL0     C19631   0.838   9.008   2.889  0.0502  0.4050 -0.1164
  146MOL0     C19632   0.782   8.881   2.903 -0.1476 -0.6150  0.0052
  146MOL0     O19633   0.652   8.843   2.882  0.2325  0.6373 -0.1052
  146MOL0     C19634   0.563   8.952   2.859  0.4321 -0.2331 -0.5042
  146MOL0     C19635   0.417   8.907   2.851 -0.5531 -0.9075  1.0935
  146MOL0     C19636   0.384   8.820   2.973  0.5523  0.8246 -0.4072
  146MOL0     C19637   0.235   8.787   2.987 -0.7153  0.7645 -0.2465
  146MOL0     C19638   0.152   8.911   2.991 -0.5254 -0.6325 -0.0554
  146MOL0     C19639   0.092   9.016   2.984  1.3725 -0.2328  0.2375
  146MOL0     C19640   0.877   8.781   2.935  0.3932  0.3366  0.2730
  146MOL0     C19641   1.008   8.801   2.977 -0.1453 -0.2355  0.0156
  146MOL0     C19642   1.093   8.678   3.013  0.0143  0.5947 -0.0583
  146MOL0     H19643   1.435   8.926   3.015  0.3390 -0.9115  3.8110
  146MOL0     H19644   1.663   8.981   3.064 -0.3297 -1.6369  0.1953
  146MOL0     H19645   1.809   9.063   3.210 -0.7265  0.3655 -0.4621
  146MOL0     H19646   1.923   9.114   3.097 -1.2475 -0.4015  0.1855
  146MOL0     H19647   1.990   9.167   3.341  0.5832  3.3840  1.7365
  146MOL0     H19648   1.855   9.276   3.341 -0.7803  1.9704 -2.0227
  146MOL0     H19649   1.960   9.401   3.143 -1.8581 -0.2659  2.0703
  146MOL0     H19650   2.096   9.284   3.146 -0.4530 -1.7713  0.7224
  146MOL0     H19651   2.009   9.472   3.380 -2.0811  0.6465 -2.7492
  146MOL0     H19652   2.122   9.337   3.392 -1.8439 -0.2833  0.1452
  146MOL0     H19653   2.258   9.466   3.189 -0.1016 -0.1799  0.0823
  146MOL0     H19654   2.151   9.596   3.224  0.8024 -0.3945 -1.2032
  146MOL0     H19655   2.223   9.581   3.472 -0.7781  1.7173 -1.1052
  146MOL0     H19656   2.348   9.468   3.405 -0.1799  0.3043 -1.3058
  146MOL0     H19657   2.338   9.769   3.340  2.2582  0.9652 -0.9398
  146MOL0     H19658   2.460   9.650   3.295 -0.7717  2.6002 -1.4580
  146MOL0     H19659   2.370   9.780   3.554 -0.8575  2.5490 -1.8429
  146MOL0     H19660   2.471   9.629   3.559  3.3171  2.6840  2.2872
  146MOL0     H19661   2.514   9.962   3.351 -0.9934 -1.0693  0.2568
  146MOL0     H19662   2.718  10.142   3.313  1.3626 -0.5257 -1.1469
  146MOL0     H19663   2.710  10.178   3.483 -1.8100 -2.9644  1.8143
  146MOL0     H19664   2.946  10.023   3.389  1.0762  0.7962 -1.1454
  146MOL0     H19665   2.945  10.190   3.356  0.7922 -3.0508 -1.7469
  146MOL0     H19666   2.885  10.076   3.628 -2.3886  1.4206 -0.9508
  146MOL0     H19667   2.888  10.257   3.590  0.2934  1.0303 -1.6646
  146MOL0     H19668   3.109  10.051   3.588  1.8843 -0.2152 -0.7459
  146MOL0     H19669   3.100  10.181   3.715  1.8466 -4.2198  0.7126
  146MOL0     H19670   3.345  10.387   3.621 -1.5633 -2.9747  2.6161
  146MOL0     H19671   3.588  10.340   3.583 -0.5468 -0.5940  1.4523
  146MOL0     H19672   3.892  10.052   3.701 -0.6490  2.1128 -0.4797
  146MOL0     H19673   4.124   9.969   3.672  0.5634  0.5713  0.7370
  146MOL0     H19674   4.290   9.855   3.585  1.9880  2.3005  0.9793
  146MOL0     H19675   4.254   9.820   3.425 -0.1674 -4.1807  3.8445
  146MOL0     H19676   4.495   9.760   3.483  1.3434  0.8476 -0.8456
  146MOL0     H19677   4.529   9.919   3.405  3.8115  0.7169  3.2003
  146MOL0     H19678   4.511   9.986   3.647  0.5412 -0.4198 -0.6456
  146MOL0     H19679   4.490   9.813   3.689  0.0770 -1.6451 -0.3312
  146MOL0     H19680   4.723   9.950   3.531 -1.3389  0.6396  0.8552
  146MOL0     H19681   4.714   9.779   3.567 -3.1055 -0.9114  0.9106
  146MOL0     H19682   4.745   9.805   3.794  0.6016 -1.9677 -2.5276
  146MOL0     H19683   4.721   9.991   3.778 -0.6772 -0.0124 -0.0689
  146MOL0     H19684   4.949   9.806   3.692 -0.3532 -0.6724 -0.4904
  146MOL0     H19685   4.921   9.985   3.635  0.1799 -0.6787  0.1186
  146MOL0     H19686   4.947   9.908   3.929  1.0855 -0.1566  1.0358
  146MOL0     H19687   4.986  10.061   3.850 -0.3647 -0.2612  2.8508
  146MOL0     H19688   5.170   9.919   3.956 -2.7563  0.7311  0.5182
  146MOL0     H19689   5.146   9.808   3.818  0.3316  0.0196 -1.5731
  146MOL0     H19690   4.166  10.192   3.308 -1.1925  0.0370 -0.2319
  146MOL0     H19691   3.964  10.294   3.336 -1.5645  1.0873  0.6784
  146MOL0     H19692   3.472  10.013   3.323 -3.3030 -0.4163  0.1831
  146MOL0     H19693   3.242  10.063   3.349 -0.8328 -0.1529  0.0054
  146MOL0     H19694   1.558   9.390   3.116  1.2382 -0.1879  1.3273
  146MOL0     H19695   1.317   9.338   3.062 -0.2447 -2.2027  0.8109
  146MOL0     H19696   1.010   9.128   2.937 -2.2885  0.5713  1.3094
  146MOL0     H19697   0.786   9.092   2.844  1.9829  3.3156  2.6326
  146MOL0     H19698   0.584   9.006   2.766  1.4030 -0.0226 -0.1762
  146MOL0     H19699   0.580   9.024   2.939  2.5859 -1.9630  0.6962
  146MOL0     H19700   0.409   8.845   2.761  1.4643  0.9655 -0.5007
  146MOL0     H19701   0.354   8.997   2.847 -0.8765 -1.0911  1.9109
  146MOL0     H19702   0.416   8.866   3.067  1.5001 -2.9569  1.3151
  146MOL0     H19703   0.429   8.722   2.956 -0.8713 -0.2628  1.6752
  146MOL0     H19704   0.196   8.714   2.915 -0.2243 -3.6908  3.4961
  146MOL0     H19705   0.220   8.733   3.081  3.6325  1.3975  1.0055
  146MOL0     H19706   0.042   9.110   2.990 -1.8753 -1.8132 -0.1925
  146MOL0     H19707   0.834   8.682   2.925 -0.8198  0.8028  0.7015
  146MOL0     H19708   1.193   8.676   2.969  0.4984 -0.4715  1.0637
  146MOL0     H19709   1.103   8.665   3.121 -2.9426  2.3430  0.5402
  146MOL0     H19710   1.042   8.589   2.975 -0.2931  0.2178  1.1950
  147MOL0     O19711   1.016   0.515   8.382 -0.0191 -0.4924  0.1421
  147MOL0     C19712   0.951   0.492   8.484 -0.0110  0.6020 -0.6013
  147MOL0     O19713   1.005   0.427   8.590  0.1094  0.3318  0.3859
  147MOL0     C19714   1.141   0.436   8.612 -0.1414  0.0779  0.7074
  147MOL0     C19715   1.228   0.323   8.623  0.4184  0.3532  0.7435
  147MOL0     C19716   1.357   0.327   8.650 -0.6718  0.5256 -0.4355
  147MOL0     C19717   1.417   0.450   8.677 -0.1335 -0.7635 -0.3772
  147MOL0     O19718   1.556   0.466   8.692  0.5613  0.5946  0.3925
  147MOL0     C19719   1.629   0.364   8.769 -0.6588 -0.2464  0.2259
  147MOL0     C19720   1.774   0.401   8.771  0.6335  1.0031  0.5212
  147MOL0     C19721   1.798   0.510   8.864  0.1414 -0.2923 -0.4082
  147MOL0     C19722   1.946   0.534   8.876  0.1674 -0.9603 -1.0394
  147MOL0     C19723   1.970   0.633   8.991  0.5251 -0.5172  0.9096
  147MOL0     C19724   2.122   0.656   8.999  0.2958 -0.4388 -0.0238
  147MOL0     C19725   2.163   0.747   9.114  0.2182 -0.4277 -0.7797
  147MOL0     C19726   2.117   0.893   9.083  0.3348  0.3843 -1.0303
  147MOL0     N19727   2.193   0.951   8.974  0.0995 -0.0739 -0.5971
  147MOL0     C19728   2.305   1.032   8.995  0.6857  0.5607  0.2187
  147MOL0     C19729   2.359   1.036   8.867  0.1834  0.3701 -0.5463
  147MOL0     C19730   2.476   1.102   8.811  0.3246 -0.3794 -0.1939
  147MOL0     C19731   2.443   1.252   8.802  0.0875  0.1525  0.0040
  147MOL0     C19732   2.421   1.334   8.941 -0.1778  1.0920  0.3344
  147MOL0     C19733   2.547   1.407   8.979 -0.1304 -0.1041 -0.7888
  147MOL0     O19734   2.658   1.317   9.014 -0.3838 -0.7296 -1.0171
  147MOL0     C19735   2.770   1.375   9.076 -0.3124  0.5997 -0.0861
  147MOL0     C19736   2.858   1.279   9.113 -0.2527 -0.0393  0.3240
  147MOL0     C19737   2.973   1.321   9.177  0.9009 -0.0390  0.0170
  147MOL0     C19738   3.008   1.447   9.213 -0.3888 -0.0478 -0.2381
  147MOL0     C19739   3.139   1.485   9.280 -0.4342  0.3765 -0.6633
  147MOL0     O19740   3.230   1.391   9.309  0.0285 -0.5667  0.5595
  147MOL0     C19741   3.347   1.425   9.368 -0.3677 -0.3993  0.0308
  147MOL0     C19742   3.461   1.363   9.313  0.1038 -0.3025 -0.4323
  147MOL0     C19743   3.589   1.385   9.363 -0.6663  0.4564  0.3567
  147MOL0     C19744   3.605   1.481   9.466 -0.2497 -0.7823 -0.2539
  147MOL0     O19745   3.723   1.523   9.531 -0.2932 -0.3472 -0.2536
  147MOL0     C19746   3.835   1.435   9.531  0.5841 -0.1330 -0.0086
  147MOL0     C19747   3.862   1.367   9.663 -0.7945 -0.6862 -0.2884
  147MOL0     C19748   4.019   1.340   9.676  0.4975  0.1762 -0.0085
  147MOL0     C19749   4.068   1.282   9.818  0.0495 -0.3349  0.0960
  147MOL0     C19750   4.219   1.280   9.838 -0.1827 -0.0569  0.6605
  147MOL0     C19751   4.284   1.146   9.772 -0.4257 -0.7664  0.3351
  147MOL0     C19752   4.437   1.180   9.777 -0.1783 -1.2340 -0.4276
  147MOL0     C19753   4.497   1.173   9.922 -0.1741  0.3514  0.4106
  147MOL0    Cl19754   4.469   1.330  10.013 -0.4143  0.5623 -0.3784
  147MOL0     C19755   3.494   1.532   9.530 -0.1389  0.1053  0.1401
  147MOL0     C19756   3.363   1.501   9.487 -0.1190  0.1558 -0.8546
  147MOL0     O19757   3.145   1.605   9.311  0.2993  0.1428 -1.2072
  147MOL0     C19758   2.916   1.548   9.169 -0.2049 -0.5177  0.3763
  147MOL0     C19759   2.792   1.508   9.105 -0.6067  0.2483 -0.6907
  147MOL0     N19760   2.267   0.977   8.776 -1.2222 -0.0926  0.4432
  147MOL0     N19761   2.164   0.939   8.844 -0.4283  0.4287  0.4028
  147MOL0     C19762   1.342   0.566   8.660  1.4512  0.1978 -1.0644
  147MOL0     C19763   1.205   0.555   8.632  0.1268  0.4077 -0.5102
  147MOL0     C19764   0.803   0.516   8.490 -0.3309  0.0334 -0.0341
  147MOL0     C19765   0.741   0.496   8.614 -0.4987 -0.0609  0.0297
  147MOL0     C19766   0.604   0.511   8.629  0.8650 -1.1443 -1.0589
  147MOL0     C19767   0.529   0.559   8.528  1.3712  0.2294  0.2403
  147MOL0     O19768   0.394   0.589   8.540 -0.0866  0.0847  0.3483
  147MOL0     C19769   0.357   0.672   8.649  0.0638  0.2210  0.0119
  147MOL0     C19770   0.225   0.747   8.613  0.2475 -0.9466 -0.7311
  147MOL0     C19771   0.268   0.869   8.522  0.0055 -0.2618 -0.1769
  147MOL0     C19772   0.155   0.957   8.463 -1.2085 -0.8079 -0.0157
  147MOL0     C19773   0.076   0.896   8.358 -0.4445  0.4841 -0.7920
  147MOL0     C19774   0.029   0.835   8.261 -0.0658  0.2135  0.0664
  147MOL0     C19775   0.590   0.584   8.407  1.2834  0.1161 -0.5665
  147MOL0     C19776   0.726   0.568   8.384 -0.7295 -0.3454 -0.8489
  147MOL0     C19777   0.781   0.595   8.243 -0.0423 -0.7281 -0.2737
  147MOL0     H19778   1.168   0.236   8.600 -0.3309  0.7174  1.2434
  147MOL0     H19779   1.432   0.248   8.643  0.8927  1.9403 -0.0932
  147MOL0     H19780   1.585   0.354   8.869 -2.3727 -2.1132 -0.6551
  147MOL0     H19781   1.614   0.270   8.715  2.1290 -0.2978 -0.6216
  147MOL0     H19782   1.809   0.435   8.673  2.7525  4.2486  2.2170
  147MOL0     H19783   1.839   0.315   8.790  1.4112  1.1034 -1.4185
  147MOL0     H19784   1.760   0.483   8.963  0.8765 -0.6419 -0.2084
  147MOL0     H19785   1.739   0.597   8.836 -1.2563 -1.2295 -0.4464
  147MOL0     H19786   1.997   0.443   8.908 -0.2272 -0.7781  0.1370
  147MOL0     H19787   1.980   0.564   8.776 -0.8906 -0.4960 -1.2780
  147MOL0     H19788   1.928   0.729   8.962 -3.5989 -2.6097 -0.8766
  147MOL0     H19789   1.924   0.599   9.084 -1.2010 -3.1997 -0.7769
  147MOL0     H19790   2.166   0.559   9.022  0.1255 -0.7873 -1.0831
  147MOL0     H19791   2.149   0.697   8.901  0.7730  1.1315  0.7466
  147MOL0     H19792   2.272   0.746   9.125  0.2281 -1.0863 -0.8905
  147MOL0     H19793   2.118   0.717   9.209  0.8676 -2.2398 -1.0119
  147MOL0     H19794   2.010   0.886   9.062  0.3257 -0.9703 -0.5805
  147MOL0     H19795   2.141   0.954   9.171  0.6340 -1.3347  0.1213
  147MOL0     H19796   2.346   1.062   9.091 -0.1451  0.6061  0.5659
  147MOL0     H19797   2.566   1.081   8.870  0.0028 -0.0960  0.4045
  147MOL0     H19798   2.494   1.081   8.705  0.0734  1.6414 -0.6724
  147MOL0     H19799   2.519   1.310   8.747  0.5595  0.2326  0.7309
  147MOL0     H19800   2.353   1.271   8.743  0.4160 -0.8952 -0.8541
  147MOL0     H19801   2.377   1.276   9.023 -0.1365 -0.4504 -0.6919
  147MOL0     H19802   2.346   1.410   8.918 -1.5693 -1.1896 -3.5786
  147MOL0     H19803   2.529   1.482   9.057 -1.5158 -1.0757 -0.1137
  147MOL0     H19804   2.577   1.471   8.896  2.0679  1.3774  1.0095
  147MOL0     H19805   2.842   1.175   9.086  0.6486 -0.2429  0.5446
  147MOL0     H19806   3.034   1.236   9.206 -0.5158 -1.6566 -1.5526
  147MOL0     H19807   3.435   1.293   9.234 -1.1523  1.9350 -2.0943
  147MOL0     H19808   3.667   1.321   9.324  0.1765  1.0637  1.0232
  147MOL0     H19809   3.827   1.359   9.453  2.9613  1.2427 -1.7175
  147MOL0     H19810   3.928   1.486   9.504  1.8106 -1.9904  0.4676
  147MOL0     H19811   3.819   1.419   9.750 -0.3966  0.0231 -0.5075
  147MOL0     H19812   3.808   1.272   9.663 -0.1398 -1.0807  1.1692
  147MOL0     H19813   4.050   1.266   9.602 -0.0120  1.3302 -1.4192
  147MOL0     H19814   4.072   1.435   9.665  0.4189  0.6127  2.6283
  147MOL0     H19815   4.019   1.186   9.837 -0.2991 -0.0061  0.8992
  147MOL0     H19816   4.025   1.351   9.891 -2.1486 -0.6157 -0.8571
  147MOL0     H19817   4.241   1.286   9.945 -1.6523  1.4417  0.9276
  147MOL0     H19818   4.253   1.376   9.798 -1.5353 -0.3842 -1.4534
  147MOL0     H19819   4.253   1.054   9.823 -5.4253  0.1037 -0.5831
  147MOL0     H19820   4.262   1.132   9.666 -1.9545 -1.6634  0.7442
  147MOL0     H19821   4.474   1.270   9.726  1.9694  0.3661  3.5092
  147MOL0     H19822   4.480   1.094   9.725  1.5019 -0.3766 -0.5320
  147MOL0     H19823   4.432   1.104   9.978 -0.5972 -0.1217 -0.6269
  147MOL0     H19824   4.603   1.147   9.913 -0.5899 -1.4168  0.0972
  147MOL0     H19825   3.512   1.591   9.619 -0.7224 -0.0542  0.3639
  147MOL0     H19826   3.272   1.529   9.538  0.3487  1.3984 -0.6509
  147MOL0     H19827   2.942   1.650   9.195 -0.0862 -0.1963 -0.9222
  147MOL0     H19828   2.722   1.583   9.069  0.1035  2.0752  1.5197
  147MOL0     H19829   1.379   0.667   8.675 -0.6206  0.8447  0.1842
  147MOL0     H19830   1.143   0.645   8.631  0.4211  0.6082 -0.9232
  147MOL0     H19831   0.795   0.465   8.703  0.4767  0.1050 -0.4888
  147MOL0     H19832   0.548   0.497   8.721 -0.8289 -1.7367 -2.1257
  147MOL0     H19833   0.443   0.734   8.676  0.5212  0.0783 -1.0904
  147MOL0     H19834   0.335   0.598   8.727  0.9482 -2.3242 -1.9930
  147MOL0     H19835   0.173   0.789   8.699 -1.2095 -3.0643 -0.4988
  147MOL0     H19836   0.160   0.676   8.560 -1.3515  0.4487 -0.7344
  147MOL0     H19837   0.335   0.833   8.443  1.6120  1.1577  0.4800
  147MOL0     H19838   0.332   0.928   8.588 -0.4540  1.9513 -1.5891
  147MOL0     H19839   0.106   1.001   8.550  3.6418 -1.2917  3.3865
  147MOL0     H19840   0.197   1.054   8.433  0.1447 -1.0219  1.0601
  147MOL0     H19841  -0.019   0.775   8.186  0.7458 -0.9256  0.4358
  147MOL0     H19842   0.527   0.614   8.324  1.9120  1.1796 -0.6736
  147MOL0     H19843   0.856   0.674   8.235 -1.8442  0.9015 -2.4814
  147MOL0     H19844   0.818   0.508   8.188 -3.0411 -1.3735 -1.5162
  147MOL0     H19845   0.697   0.622   8.178 -1.0928  1.5280  1.8360
  148MOL0     O19846   8.656   6.559   6.708 -0.0072 -0.4732 -0.1074
  148MOL0     C19847   8.629   6.608   6.820  0.3647 -0.9348  0.1305
  148MOL0     O19848   8.713   6.687   6.899  0.6941 -0.0757  0.0477
  148MOL0     C19849   8.836   6.709   6.846  0.6147  0.0135  0.1747
  148MOL0     C19850   8.946   6.635   6.887 -0.2563 -0.1182 -0.1002
  148MOL0     C19851   9.070   6.663   6.853 -0.7240  0.1239 -0.6119
  148MOL0     C19852   9.096   6.761   6.765 -0.4749  0.1927  0.5954
  148MOL0     O19853   9.221   6.767   6.715 -0.8538 -0.2854  0.1754
  148MOL0     C19854   9.237   6.794   6.574 -0.8281 -0.3747  0.1567
  148MOL0     C19855   9.373   6.744   6.516 -0.7296 -0.1880 -0.9403
  148MOL0     C19856   9.492   6.774   6.606 -0.3031  0.5744  0.7077
  148MOL0     C19857   9.550   6.916   6.596 -0.1041  0.0900 -0.0724
  148MOL0     C19858   9.685   6.935   6.670 -0.9262 -0.2425 -0.3658
  148MOL0     C19859   9.720   7.094   6.684 -0.4512  0.1946 -0.0158
  148MOL0     C19860   9.831   7.116   6.792  0.1894  0.6098 -0.2380
  148MOL0     C19861   9.875   7.261   6.793  0.2149 -0.4670 -0.3263
  148MOL0     N19862   9.987   7.293   6.706  0.3474 -0.7221 -0.6556
  148MOL0     C19863  10.119   7.275   6.736 -0.7193  0.3918 -1.0437
  148MOL0     C19864  10.200   7.328   6.645 -0.2858 -0.0563 -0.1116
  148MOL0     C19865  10.349   7.330   6.627 -0.9106  0.1001  0.4956
  148MOL0     C19866  10.393   7.470   6.693  0.1298 -0.2971  1.0880
  148MOL0     C19867  10.538   7.454   6.739 -0.4293  0.3983  0.4336
  148MOL0     C19868  10.628   7.578   6.724  1.0352 -0.1092 -0.3488
  148MOL0     O19869  10.756   7.545   6.791 -0.0950  0.5623  0.5351
  148MOL0     C19870  10.864   7.614   6.762 -0.1208 -0.4970  0.3533
  148MOL0     C19871  10.870   7.708   6.654 -0.3693 -0.8566  0.4562
  148MOL0     C19872  10.998   7.765   6.626 -0.8469 -0.6109  0.1971
  148MOL0     C19873  11.111   7.727   6.692  0.0138  0.7455  0.2699
  148MOL0     C19874  11.244   7.770   6.648  0.6024 -0.1685 -0.9667
  148MOL0     O19875  11.343   7.767   6.740 -0.0067  0.7144 -0.6267
  148MOL0     C19876  11.468   7.815   6.715 -0.6529  0.7561 -0.3588
  148MOL0     C19877  11.545   7.752   6.615 -0.2550 -0.4323  0.4729
  148MOL0     C19878  11.671   7.798   6.584  0.9695  0.2643 -0.0139
  148MOL0     C19879  11.723   7.907   6.655  0.7356  0.7627  0.1428
  148MOL0     O19880  11.847   7.952   6.638 -0.4320 -0.6957 -0.6328
  148MOL0     C19881  11.961   7.872   6.591 -0.5701  0.6566  0.6867
  148MOL0     C19882  12.071   7.859   6.691 -0.0155  0.6110  0.5650
  148MOL0     C19883  12.165   7.981   6.693 -1.0671  0.0071 -0.1521
  148MOL0     C19884  12.269   7.968   6.799 -0.1023 -0.5821 -1.1291
  148MOL0     C19885  12.375   8.076   6.783 -0.5086  0.4128  0.2991
  148MOL0     C19886  12.497   8.068   6.883  0.1868 -0.7296 -0.5188
  148MOL0     C19887  12.578   8.194   6.890  0.2926  0.6076  0.2534
  148MOL0     C19888  12.719   8.188   6.951 -0.8178 -0.1747  0.0565
  148MOL0    Cl19889  12.830   8.084   6.865 -0.2516 -0.1191  0.0067
  148MOL0     C19890  11.644   7.969   6.748  0.1097  0.2327 -0.1600
  148MOL0     C19891  11.520   7.925   6.776 -0.6645 -0.1323 -0.0693
  148MOL0     O19892  11.261   7.799   6.534 -0.8059 -0.1619 -0.4278
  148MOL0     C19893  11.104   7.626   6.797 -0.6614  0.2239 -0.1515
  148MOL0     C19894  10.978   7.578   6.828 -0.1935  0.5766 -0.5994
  148MOL0     N19895  10.111   7.390   6.564  0.3528  0.2174 -0.3749
  148MOL0     N19896   9.986   7.365   6.592 -0.6632  0.3992  0.7782
  148MOL0     C19897   8.998   6.840   6.716 -0.5681 -0.1838 -0.1283
  148MOL0     C19898   8.872   6.821   6.761  0.5044 -0.8051  0.1003
  148MOL0     C19899   8.487   6.604   6.866 -0.9911 -0.3057  0.5875
  148MOL0     C19900   8.437   6.705   6.942 -0.3573 -0.3677 -0.1496
  148MOL0     C19901   8.295   6.711   6.963  0.1117 -0.1590  0.0451
  148MOL0     C19902   8.212   6.604   6.942  0.0571 -0.2817 -0.3671
  148MOL0     O19903   8.089   6.610   6.988  0.0914 -0.3508  0.5835
  148MOL0     C19904   7.990   6.513   6.961 -0.1006  0.1691  0.6496
  148MOL0     C19905   7.933   6.540   6.813 -0.9181 -0.9767 -0.4303
  148MOL0     C19906   7.803   6.458   6.799  0.8437  0.2132 -0.5917
  148MOL0     C19907   7.824   6.306   6.812  0.2334  0.2629  0.0174
  148MOL0     C19908   7.696   6.230   6.828 -0.4471  0.4183  0.0816
  148MOL0     C19909   7.590   6.163   6.847 -0.9336  0.4463 -0.1805
  148MOL0     C19910   8.259   6.503   6.860  0.4899 -0.8561  0.6119
  148MOL0     C19911   8.394   6.497   6.821 -0.7376  0.1389 -0.1181
  148MOL0     C19912   8.421   6.374   6.734  0.1681 -0.6261  0.0899
  148MOL0     H19913   8.924   6.542   6.939 -1.4024  0.0919 -0.1832
  148MOL0     H19914   9.158   6.604   6.873  1.5232  1.5319 -4.9547
  148MOL0     H19915   9.147   6.756   6.524 -1.9479 -1.2052  2.6395
  148MOL0     H19916   9.239   6.903   6.568  0.6273 -0.4394 -5.2434
  148MOL0     H19917   9.388   6.784   6.415  1.5812  3.1800  0.5475
  148MOL0     H19918   9.372   6.636   6.498 -0.0224 -0.4819  0.6449
  148MOL0     H19919   9.574   6.707   6.582 -1.9545 -1.0252 -0.8293
  148MOL0     H19920   9.459   6.746   6.706 -1.4533 -0.5035  0.0563
  148MOL0     H19921   9.567   6.937   6.490 -1.1159  1.5258  0.0070
  148MOL0     H19922   9.479   6.992   6.632 -3.0266 -3.0378  1.3511
  148MOL0     H19923   9.674   6.903   6.773 -0.1428  0.3326 -0.0970
  148MOL0     H19924   9.766   6.881   6.620 -0.4657  2.4895 -2.9100
  148MOL0     H19925   9.752   7.122   6.583 -3.0782  0.6963 -0.7693
  148MOL0     H19926   9.636   7.158   6.709  0.4211  1.5605 -0.4356
  148MOL0     H19927   9.922   7.057   6.774  0.8463  1.7186 -0.7217
  148MOL0     H19928   9.786   7.081   6.885 -0.3890 -0.3263 -0.8532
  148MOL0     H19929   9.793   7.331   6.774  1.8959  1.6817 -0.1717
  148MOL0     H19930   9.906   7.283   6.896 -1.5950 -0.9849  0.3727
  148MOL0     H19931  10.161   7.224   6.822 -2.3351  0.0230 -0.4256
  148MOL0     H19932  10.404   7.247   6.673  0.4430  0.4673 -0.4036
  148MOL0     H19933  10.360   7.329   6.518  0.1343  1.8181  0.5481
  148MOL0     H19934  10.378   7.550   6.620 -3.4628 -0.2425  1.6992
  148MOL0     H19935  10.334   7.494   6.782  0.3139 -2.5252  1.8754
  148MOL0     H19936  10.590   7.380   6.678  1.2930 -0.1051  2.4023
  148MOL0     H19937  10.550   7.421   6.842  2.5782 -0.9489 -0.2455
  148MOL0     H19938  10.590   7.670   6.769 -0.3750 -1.0765  0.5161
  148MOL0     H19939  10.640   7.598   6.617 -2.5898  1.8929 -0.5201
  148MOL0     H19940  10.786   7.744   6.595  1.8234  2.5104 -0.9325
  148MOL0     H19941  11.019   7.838   6.548  2.8649  0.9581  2.4183
  148MOL0     H19942  11.497   7.674   6.557 -1.2168 -0.5135  1.3568
  148MOL0     H19943  11.718   7.738   6.507 -2.4403 -2.5608 -0.1446
  148MOL0     H19944  11.934   7.766   6.587  3.7205 -0.7615  2.8191
  148MOL0     H19945  12.002   7.901   6.494 -0.9053 -1.0935 -0.0255
  148MOL0     H19946  12.036   7.846   6.794 -0.8479 -0.0093  0.2148
  148MOL0     H19947  12.128   7.768   6.670  0.1494  0.8436 -0.0072
  148MOL0     H19948  12.222   7.992   6.601  1.7854  0.2996  1.5057
  148MOL0     H19949  12.098   8.065   6.714 -1.5873 -0.7151  1.2794
  148MOL0     H19950  12.320   7.871   6.792 -2.0990 -1.6097 -2.5580
  148MOL0     H19951  12.215   7.975   6.893 -1.4998  1.3041 -2.0192
  148MOL0     H19952  12.328   8.173   6.801 -0.9329  0.4172 -0.7707
  148MOL0     H19953  12.410   8.069   6.679 -0.6231  0.0650  0.2817
  148MOL0     H19954  12.465   8.053   6.986 -0.0205  0.0537 -0.4564
  148MOL0     H19955  12.561   7.985   6.853  1.6227  0.3537 -0.5946
  148MOL0     H19956  12.525   8.264   6.954  3.3771  0.6807  2.9892
  148MOL0     H19957  12.584   8.227   6.785 -0.7989 -1.6984 -0.6081
  148MOL0     H19958  12.753   8.292   6.961 -0.7465  0.0211 -1.7938
  148MOL0     H19959  12.708   8.146   7.051  2.6160 -0.9458  0.2338
  148MOL0     H19960  11.691   8.047   6.807 -0.1346  1.4849 -1.5646
  148MOL0     H19961  11.471   7.979   6.856  1.4590  0.0093  1.2200
  148MOL0     H19962  11.186   7.594   6.860 -1.2980  0.9839  1.1057
  148MOL0     H19963  10.963   7.508   6.910 -0.7801  0.9511 -0.3835
  148MOL0     H19964   9.020   6.905   6.633 -1.3583 -0.5764 -0.6663
  148MOL0     H19965   8.788   6.870   6.713 -0.1069 -0.6291  1.3273
  148MOL0     H19966   8.500   6.786   6.977  0.4570 -0.9708 -0.1877
  148MOL0     H19967   8.261   6.801   7.013  0.1893  0.4394 -0.9720
  148MOL0     H19968   7.909   6.535   7.030  0.2767  0.0937  1.1217
  148MOL0     H19969   8.032   6.416   6.988 -1.7075  0.1330  3.4002
  148MOL0     H19970   8.006   6.521   6.734  2.8898  1.1082  2.2947
  148MOL0     H19971   7.900   6.644   6.805 -2.7778 -1.5175 -0.2376
  148MOL0     H19972   7.753   6.470   6.703  0.7891  2.2466 -0.3488
  148MOL0     H19973   7.729   6.482   6.876  0.9200 -2.3965  0.4070
  148MOL0     H19974   7.888   6.274   6.729  1.0571  1.6721  0.0716
  148MOL0     H19975   7.886   6.283   6.900  0.3629  2.0529  0.4183
  148MOL0     H19976   7.501   6.106   6.861  0.4689 -1.6125  0.9151
  148MOL0     H19977   8.190   6.428   6.822 -0.0102  0.3669 -0.9708
  148MOL0     H19978   8.362   6.376   6.642  2.7754  1.2100 -1.6926
  148MOL0     H19979   8.528   6.358   6.722  0.2375 -0.0446 -0.0955
  148MOL0     H19980   8.386   6.280   6.778  0.4762 -1.8142 -2.0896
  149MOL0     O19981   2.216  10.615  10.360  0.5919 -0.3684 -0.2806
  149MOL0     C19982   2.256  10.633  10.245  0.5967 -0.0726  1.0597
  149MOL0     O19983   2.365  10.704  10.209 -0.5773  0.5163  0.3802
  149MOL0     C19984   2.434  10.768  10.312  0.4320 -0.1319 -0.0703
  149MOL0     C19985   2.569  10.723  10.330 -0.2773 -0.6372  0.9640
  149MOL0     C19986   2.654  10.798  10.406 -0.0683 -0.3851 -0.4337
  149MOL0     C19987   2.609  10.914  10.470  0.2960 -0.2754 -0.0163
  149MOL0     O19988   2.691  10.998  10.544 -0.1449 -0.5228  0.1351
  149MOL0     C19989   2.791  10.923  10.624  0.1704  0.1459 -0.1703
  149MOL0     C19990   2.868  11.028  10.706 -0.1460 -0.7471 -0.6298
  149MOL0     C19991   2.971  10.946  10.798 -1.1057 -0.1341 -0.4119
  149MOL0     C19992   3.045  11.039  10.893 -0.2969 -0.3094  0.1099
  149MOL0     C19993   3.106  10.978  11.013  0.1229  1.1770 -0.2731
  149MOL0     C19994   3.244  10.922  10.978  0.0985 -0.1873  0.0973
  149MOL0     C19995   3.321  10.887  11.105  0.3722  0.0066  0.3339
  149MOL0     C19996   3.467  10.863  11.097 -0.7642 -0.2327  0.7046
  149MOL0     N19997   3.532  10.875  11.224 -1.1165 -0.3242  0.0053
  149MOL0     C19998   3.529  10.782  11.328 -0.0525 -0.1626 -0.0300
  149MOL0     C19999   3.596  10.831  11.429 -0.9976 -0.2776 -0.0363
  149MOL0     C20000   3.662  10.755  11.539  1.1668 -0.7316  0.4090
  149MOL0     C20001   3.795  10.707  11.505 -0.3581  0.6370  0.5912
  149MOL0     C20002   3.895  10.820  11.476 -0.3976  0.9852 -0.1269
  149MOL0     C20003   4.032  10.766  11.460 -0.2691  0.6956 -0.7899
  149MOL0     O20004   4.092  10.761  11.593 -0.2466  0.2076  0.1770
  149MOL0     C20005   4.227  10.726  11.603 -0.1629  0.0369  1.2792
  149MOL0     C20006   4.310  10.790  11.695 -0.1240 -0.6819 -0.2917
  149MOL0     C20007   4.443  10.752  11.708 -0.9067  0.9800 -0.0591
  149MOL0     C20008   4.502  10.661  11.629  0.2364  0.6995  0.0267
  149MOL0     C20009   4.645  10.632  11.624  0.4257  0.0850  0.6417
  149MOL0     O20010   4.691  10.537  11.539  0.1657  0.0758 -0.4453
  149MOL0     C20011   4.821  10.528  11.516  0.4935 -0.2893  0.7413
  149MOL0     C20012   4.881  10.413  11.552 -0.3117 -0.2810  0.1224
  149MOL0     C20013   5.022  10.397  11.547  0.2726  0.5128  0.6548
  149MOL0     C20014   5.101  10.503  11.503 -0.1161  0.3379  0.6604
  149MOL0     O20015   5.235  10.470  11.483 -0.2328  0.0766  0.7962
  149MOL0     C20016   5.302  10.561  11.395 -0.1011  0.3134 -0.1570
  149MOL0     C20017   5.427  10.482  11.352  0.6441 -0.4386  0.4767
  149MOL0     C20018   5.510  10.559  11.252 -0.0847  0.0512  0.0833
  149MOL0     C20019   5.632  10.479  11.197  0.8855  0.3489 -0.7659
  149MOL0     C20020   5.736  10.568  11.124 -0.4305  1.0117 -0.3173
  149MOL0     C20021   5.808  10.661  11.227 -0.7508  0.0181 -0.4943
  149MOL0     C20022   5.882  10.772  11.162  0.6172  0.8588 -0.1818
  149MOL0     C20023   6.016  10.732  11.102  0.1558 -0.3329 -0.5196
  149MOL0    Cl20024   6.091  10.879  11.037 -0.2601  0.2632  0.1763
  149MOL0     C20025   5.039  10.628  11.478  0.1301  0.1427  0.4140
  149MOL0     C20026   4.900  10.639  11.480 -0.2953  0.1669  0.4407
  149MOL0     O20027   4.709  10.690  11.709  0.7340  0.5603 -0.0704
  149MOL0     C20028   4.413  10.594  11.539 -0.0870  0.8869 -0.8864
  149MOL0     C20029   4.280  10.623  11.522  0.1042 -0.8233 -0.3837
  149MOL0     N20030   3.629  10.960  11.396 -0.7272 -0.1880  0.4012
  149MOL0     N20031   3.607  10.979  11.268  0.5770 -0.7584  0.0248
  149MOL0     C20032   2.479  10.962  10.444 -0.4914 -0.6185  0.1129
  149MOL0     C20033   2.390  10.889  10.371  0.4377  1.1603 -0.5672
  149MOL0     C20034   2.167  10.588  10.140 -0.3372 -0.7024 -0.0718
  149MOL0     C20035   2.124  10.680  10.040  0.6057  0.1670 -0.3444
  149MOL0     C20036   2.015  10.657   9.954  0.2949 -0.0679  0.1887
  149MOL0     C20037   1.937  10.534   9.963  0.2171 -0.2081 -0.9043
  149MOL0     O20038   1.821  10.524   9.897 -0.6263  0.5550  0.5931
  149MOL0     C20039   1.745  10.404   9.915 -0.0727 -0.5578 -0.2568
  149MOL0     C20040   1.615  10.414   9.844  0.1090 -0.1648  0.3328
  149MOL0     C20041   1.515  10.310   9.883  0.6478  0.5118  0.3234
  149MOL0     C20042   1.364  10.335   9.853  0.6046 -0.4108  0.2921
  149MOL0     C20043   1.287  10.218   9.864  0.5514 -0.3724 -0.2990
  149MOL0     C20044   1.231  10.114   9.880 -0.4257  0.8488 -0.3950
  149MOL0     C20045   1.985  10.434  10.052 -0.5025 -0.4053 -1.6261
  149MOL0     C20046   2.106  10.459  10.139  0.8411 -0.0306  0.1002
  149MOL0     C20047   2.170  10.346  10.217  0.3413 -0.7157 -1.2463
  149MOL0     H20048   2.617  10.658  10.258  1.0103  2.8427 -1.5714
  149MOL0     H20049   2.756  10.767  10.423 -0.5712 -1.9973 -0.2531
  149MOL0     H20050   2.726  10.867  10.691 -1.5329  0.4275 -1.5127
  149MOL0     H20051   2.863  10.863  10.567  1.0579  0.1411  0.9103
  149MOL0     H20052   2.797  11.093  10.757 -1.7842 -2.0342 -1.1728
  149MOL0     H20053   2.927  11.090  10.637 -1.2680 -1.4114 -2.2522
  149MOL0     H20054   3.055  10.895  10.751  1.5023  2.2999  1.2567
  149MOL0     H20055   2.920  10.881  10.870  0.4460  1.0688  1.8891
  149MOL0     H20056   3.116  11.108  10.846  0.0523  0.8138  2.1643
  149MOL0     H20057   2.961  11.094  10.936 -1.4806 -2.0482  0.1406
  149MOL0     H20058   3.119  11.047  11.097  1.4855 -1.4307  1.7814
  149MOL0     H20059   3.049  10.893  11.051  2.9081 -0.6492  0.0871
  149MOL0     H20060   3.233  10.831  10.917 -1.0316  1.8803 -3.0715
  149MOL0     H20061   3.299  10.990  10.912  1.3759 -0.3460  0.9719
  149MOL0     H20062   3.282  10.799  11.157  2.8914 -1.8768 -0.7482
  149MOL0     H20063   3.313  10.973  11.173 -2.0425  0.2710 -0.2018
  149MOL0     H20064   3.486  10.768  11.046  0.2807  0.3444 -0.0260
  149MOL0     H20065   3.507  10.943  11.033 -0.9994 -0.0282  0.8124
  149MOL0     H20066   3.476  10.688  11.322  0.0922 -0.3679  1.5690
  149MOL0     H20067   3.667  10.827  11.622  3.8527  0.1285 -0.3843
  149MOL0     H20068   3.598  10.672  11.571 -0.5564  0.2992 -0.2238
  149MOL0     H20069   3.829  10.661  11.598 -2.7196  0.1531  1.2621
  149MOL0     H20070   3.780  10.636  11.423  0.4469  0.5929  0.4687
  149MOL0     H20071   3.883  10.902  11.548 -2.7495  0.1863  0.4884
  149MOL0     H20072   3.869  10.858  11.377 -1.7002  0.4252 -0.0153
  149MOL0     H20073   4.092  10.833  11.398  1.1894  1.2943  1.1876
  149MOL0     H20074   4.029  10.672  11.404  0.2399  1.8690 -2.9233
  149MOL0     H20075   4.274  10.865  11.765 -1.5238 -1.6108  0.0261
  149MOL0     H20076   4.508  10.799  11.781 -1.7642  3.6284 -0.8783
  149MOL0     H20077   4.811  10.339  11.587 -1.1748  0.3550 -0.2116
  149MOL0     H20078   5.061  10.302  11.584 -0.7762  0.5572  1.9639
  149MOL0     H20079   5.248  10.587  11.303  0.0608 -1.6604 -0.8539
  149MOL0     H20080   5.329  10.652  11.449 -0.7481  0.2069  0.3551
  149MOL0     H20081   5.488  10.456  11.439 -2.4917 -0.6434  2.7904
  149MOL0     H20082   5.394  10.387  11.309 -0.4054  0.1656 -0.0883
  149MOL0     H20083   5.448  10.595  11.169 -0.6832 -0.6780  0.2037
  149MOL0     H20084   5.551  10.646  11.305  2.8996 -0.8700 -0.5499
  149MOL0     H20085   5.595  10.402  11.129  0.7460  1.0044 -1.4550
  149MOL0     H20086   5.677  10.415  11.273 -3.1747 -2.1399 -0.1797
  149MOL0     H20087   5.683  10.617  11.042 -0.6760  0.4306 -0.5105
  149MOL0     H20088   5.814  10.500  11.088  1.3532  0.7626  3.5388
  149MOL0     H20089   5.749  10.699  11.311  0.3641  0.3224  0.1696
  149MOL0     H20090   5.869  10.591  11.285 -1.0019  0.7515  0.6894
  149MOL0     H20091   5.885  10.855  11.234  1.3611  1.2200 -0.6104
  149MOL0     H20092   5.825  10.817  11.080 -1.5038 -0.3533  0.5566
  149MOL0     H20093   6.075  10.699  11.188 -0.2064  1.3716  0.4338
  149MOL0     H20094   6.011  10.654  11.027 -2.2513  0.2709 -1.0673
  149MOL0     H20095   5.107  10.707  11.450  1.9027 -1.2574  0.6010
  149MOL0     H20096   4.857  10.738  11.476  0.7644  0.9896  4.3832
  149MOL0     H20097   4.451  10.507  11.487  1.8903  1.1141  0.0732
  149MOL0     H20098   4.212  10.558  11.469 -1.0786  0.9533 -1.1165
  149MOL0     H20099   2.452  11.061  10.478  0.0976 -0.3391 -0.2201
  149MOL0     H20100   2.297  10.933  10.336  0.4896 -0.3759 -2.8021
  149MOL0     H20101   2.165  10.780  10.026 -0.3746  0.4608 -1.2541
  149MOL0     H20102   1.984  10.737   9.888 -0.7660  0.1364  0.9029
  149MOL0     H20103   1.721  10.371  10.017 -2.7551 -0.0942 -0.6825
  149MOL0     H20104   1.802  10.329   9.859 -1.1622 -1.3065 -0.3893
  149MOL0     H20105   1.627  10.404   9.736  0.0923  0.0596  0.3102
  149MOL0     H20106   1.570  10.512   9.860 -1.1953 -0.4027 -1.5169
  149MOL0     H20107   1.521  10.289   9.991  2.1226 -0.8609  0.0063
  149MOL0     H20108   1.536  10.217   9.830  0.8359  1.1153 -0.6861
  149MOL0     H20109   1.317  10.402   9.925  0.0488 -1.2430  0.7156
  149MOL0     H20110   1.342  10.377   9.754 -2.5024 -1.4486  0.4238
  149MOL0     H20111   1.179  10.021   9.890  0.8274  0.0016 -1.4857
  149MOL0     H20112   1.938  10.340  10.079  0.6210 -0.0429  2.1250
  149MOL0     H20113   2.278  10.348  10.199  0.0593  1.3309 -3.0243
  149MOL0     H20114   2.145  10.365  10.322 -2.4640 -1.6433 -1.6433
  149MOL0     H20115   2.126  10.248  10.193 -1.6801 -0.9120  2.4225
  150MOL0     O20116  10.156   3.360   9.803  0.5208  0.0826  0.0626
  150MOL0     C20117  10.179   3.321   9.691 -0.2683 -0.9002  0.6472
  150MOL0     O20118  10.292   3.337   9.619 -0.8587  0.7513 -0.0340
  150MOL0     C20119  10.412   3.302   9.676 -0.3718 -0.0685  0.0181
  150MOL0     C20120  10.429   3.262   9.815 -0.8123  0.2667  0.1528
  150MOL0     C20121  10.556   3.227   9.864 -0.4301 -0.3312  0.5456
  150MOL0     C20122  10.668   3.227   9.780  0.5637 -0.5816  0.2211
  150MOL0     O20123  10.784   3.173   9.832 -0.1924  0.8522 -0.0768
  150MOL0     C20124  10.893   3.157   9.738 -0.5430 -1.1240 -0.3445
  150MOL0     C20125  11.003   3.072   9.798 -0.5609  0.0920 -0.1500
  150MOL0     C20126  11.120   3.054   9.699 -0.0479  0.0244  0.0449
  150MOL0     C20127  11.249   3.004   9.763  0.5010 -0.0630  0.3970
  150MOL0     C20128  11.345   2.932   9.663  0.4945 -0.6192  0.8996
  150MOL0     C20129  11.327   2.781   9.625 -0.7713 -0.6655 -0.1228
  150MOL0     C20130  11.434   2.718   9.546  0.1039 -0.1815 -0.5904
  150MOL0     C20131  11.487   2.817   9.435 -0.1705 -0.0004 -0.2302
  150MOL0     N20132  11.584   2.743   9.357  0.6508 -0.4022 -0.2570
  150MOL0     C20133  11.716   2.727   9.382 -0.4796 -0.5746  0.1477
  150MOL0     C20134  11.758   2.672   9.265 -0.3017 -0.3819 -0.2018
  150MOL0     C20135  11.904   2.638   9.210 -0.5889 -0.6823 -0.5813
  150MOL0     C20136  12.013   2.620   9.313 -0.1304 -0.1466 -0.0978
  150MOL0     C20137  12.140   2.554   9.246  0.5326 -0.7184  0.1526
  150MOL0     C20138  12.224   2.649   9.166 -0.0328  0.1622  0.2334
  150MOL0     O20139  12.327   2.576   9.078 -0.3032 -0.1204  0.2049
  150MOL0     C20140  12.430   2.655   9.019  0.3058  0.3195 -0.6006
  150MOL0     C20141  12.534   2.592   8.951  0.1749 -0.4791  0.0978
  150MOL0     C20142  12.648   2.663   8.893 -1.0161  0.2449 -0.2045
  150MOL0     C20143  12.648   2.801   8.905  0.9616  0.7936  0.3755
  150MOL0     C20144  12.759   2.871   8.840 -0.7725 -0.0559 -0.1778
  150MOL0     O20145  12.843   2.797   8.767  0.4239 -0.5802 -0.2748
  150MOL0     C20146  12.967   2.849   8.754 -0.8138  0.2763  0.1190
  150MOL0     C20147  13.060   2.838   8.859 -0.1467 -0.4195  0.3930
  150MOL0     C20148  13.196   2.872   8.835  0.6607 -0.4538  0.0666
  150MOL0     C20149  13.239   2.918   8.708 -0.5276 -0.0138  0.2511
  150MOL0     O20150  13.371   2.935   8.671  0.3807 -0.3128  0.4461
  150MOL0     C20151  13.466   2.833   8.711 -0.2257 -0.0717 -0.1607
  150MOL0     C20152  13.552   2.889   8.825  0.4379  0.7647  1.1017
  150MOL0     C20153  13.635   3.008   8.783  0.4077 -0.0959  0.3148
  150MOL0     C20154  13.766   3.017   8.870 -0.4997 -0.7643  0.9731
  150MOL0     C20155  13.860   3.134   8.835  0.5244 -0.4851  0.6264
  150MOL0     C20156  13.990   3.131   8.917  0.3130 -0.5051 -0.8789
  150MOL0     C20157  14.075   3.258   8.881  0.6083 -0.2475 -0.3146
  150MOL0     C20158  14.226   3.247   8.893 -0.0743 -0.7073  0.2475
  150MOL0    Cl20159  14.300   3.418   8.877  0.2275  0.3531 -0.0491
  150MOL0     C20160  13.148   2.918   8.604 -0.6956 -0.0513 -0.1271
  150MOL0     C20161  13.012   2.886   8.626 -0.3032 -0.0709  0.5367
  150MOL0     O20162  12.758   2.998   8.844 -0.0431  0.5526  0.0894
  150MOL0     C20163  12.541   2.866   8.970  0.7554 -0.1143 -0.4516
  150MOL0     C20164  12.430   2.800   9.019 -0.0548 -0.1079  0.8782
  150MOL0     N20165  11.657   2.653   9.174  0.0233 -0.1945 -0.0523
  150MOL0     N20166  11.555   2.689   9.232  0.3851  0.5510  1.1334
  150MOL0     C20167  10.654   3.276   9.643  0.6923  0.3395 -0.7755
  150MOL0     C20168  10.532   3.313   9.601  0.4449 -0.7786 -0.5296
  150MOL0     C20169  10.060   3.292   9.613  0.7699 -0.1406  0.7713
  150MOL0     C20170  10.063   3.296   9.470 -0.5585  0.0689 -0.1000
  150MOL0     C20171   9.961   3.272   9.376  0.3742 -1.0330  0.3374
  150MOL0     C20172   9.837   3.234   9.430  0.3680 -0.0417 -0.7066
  150MOL0     O20173   9.739   3.218   9.339 -0.4025  0.0036  0.4874
  150MOL0     C20174   9.619   3.150   9.366  0.8419  0.1441  0.4404
  150MOL0     C20175   9.521   3.261   9.411  0.4811 -0.0354 -0.4386
  150MOL0     C20176   9.388   3.199   9.464  0.7962  0.1389  0.0684
  150MOL0     C20177   9.272   3.286   9.474  0.7515  0.0235 -0.3351
  150MOL0     C20178   9.191   3.284   9.355  0.0426 -0.0021 -0.2488
  150MOL0     C20179   9.122   3.265   9.254  1.0807  0.0307 -0.5970
  150MOL0     C20180   9.817   3.227   9.573  0.2588  0.2396  0.3954
  150MOL0     C20181   9.930   3.249   9.655 -0.9391  0.5198  0.0276
  150MOL0     C20182   9.903   3.231   9.804  0.2403 -0.2207  0.8940
  150MOL0     H20183  10.344   3.238   9.878  0.0778 -2.2597  0.5131
  150MOL0     H20184  10.574   3.189   9.964 -0.2973 -1.1508  0.2183
  150MOL0     H20185  10.846   3.115   9.649 -2.5473 -0.5507  0.3885
  150MOL0     H20186  10.938   3.254   9.714  0.4793 -0.9757  1.9420
  150MOL0     H20187  10.967   2.970   9.820 -1.9791  0.1131 -2.0714
  150MOL0     H20188  11.033   3.127   9.888 -0.5312 -2.2344  1.3626
  150MOL0     H20189  11.141   3.149   9.648 -1.0229  0.7691  0.9748
  150MOL0     H20190  11.091   2.978   9.627 -2.0903 -0.9683  1.8054
  150MOL0     H20191  11.302   3.089   9.808 -2.8039  1.6167  1.4905
  150MOL0     H20192  11.211   2.928   9.832 -1.3047  0.0995 -0.3728
  150MOL0     H20193  11.333   2.982   9.566 -1.4292 -2.2179  0.2532
  150MOL0     H20194  11.447   2.950   9.696 -0.0061 -0.4125  2.4242
  150MOL0     H20195  11.323   2.720   9.716 -0.0479  2.0392  1.8439
  150MOL0     H20196  11.226   2.777   9.585 -0.8326 -1.3541  0.0864
  150MOL0     H20197  11.400   2.622   9.506 -0.8305 -0.4949  0.8590
  150MOL0     H20198  11.514   2.681   9.611  0.6095  1.7315 -0.0750
  150MOL0     H20199  11.407   2.856   9.372 -1.4136 -1.7598  0.1733
  150MOL0     H20200  11.530   2.909   9.475  0.2188  0.3409 -1.3993
  150MOL0     H20201  11.792   2.755   9.456  3.9597 -2.4569 -3.2462
  150MOL0     H20202  11.886   2.543   9.158  1.1908 -1.6510  0.4996
  150MOL0     H20203  11.947   2.712   9.142  1.2183 -0.2263  0.9650
  150MOL0     H20204  12.046   2.719   9.348 -0.7519 -0.0824  0.3275
  150MOL0     H20205  11.985   2.547   9.389  0.7374 -2.0430 -1.5058
  150MOL0     H20206  12.119   2.464   9.187 -0.3596 -0.0824 -0.5315
  150MOL0     H20207  12.209   2.523   9.325 -0.3962  0.4765  1.4753
  150MOL0     H20208  12.267   2.721   9.236  0.1551 -1.1429  1.4975
  150MOL0     H20209  12.154   2.704   9.103 -0.4827 -1.5611 -0.8447
  150MOL0     H20210  12.520   2.488   8.922  2.0539 -0.6311 -0.4348
  150MOL0     H20211  12.720   2.610   8.831 -3.2101 -0.6422 -2.1368
  150MOL0     H20212  13.033   2.805   8.958 -2.4577  2.0234  0.6684
  150MOL0     H20213  13.261   2.870   8.922  0.9393 -0.4913 -0.1398
  150MOL0     H20214  13.403   2.748   8.735 -2.2135  1.4897  0.4366
  150MOL0     H20215  13.532   2.802   8.629 -0.1891  2.9056 -1.4179
  150MOL0     H20216  13.496   2.929   8.910  0.6026  0.5780  1.2997
  150MOL0     H20217  13.621   2.808   8.851  0.7367  0.9534  0.9052
  150MOL0     H20218  13.659   2.998   8.676 -2.5732 -1.0376 -0.3579
  150MOL0     H20219  13.574   3.097   8.796 -1.9399 -1.7673  1.2875
  150MOL0     H20220  13.815   2.919   8.869 -0.7386 -0.8841  1.1012
  150MOL0     H20221  13.748   3.042   8.975  2.7512  1.9287  1.0557
  150MOL0     H20222  13.820   3.232   8.862 -1.2516 -1.7670  3.1960
  150MOL0     H20223  13.887   3.138   8.730 -0.7600 -1.0708  0.2518
  150MOL0     H20224  13.969   3.132   9.025  3.7132  2.5775 -0.0333
  150MOL0     H20225  14.046   3.044   8.884 -0.2654 -0.5681 -1.7266
  150MOL0     H20226  14.041   3.338   8.947  1.5773  0.5966 -0.8070
  150MOL0     H20227  14.052   3.291   8.779  1.3448 -1.2437 -0.8260
  150MOL0     H20228  14.258   3.203   8.987  2.7407  1.4445  0.4178
  150MOL0     H20229  14.264   3.185   8.811 -1.2129  2.0123 -2.5224
  150MOL0     H20230  13.182   2.949   8.506  2.1789 -1.5281  0.3036
  150MOL0     H20231  12.949   2.902   8.539 -2.2181  0.0301  1.8608
  150MOL0     H20232  12.538   2.975   8.974 -1.4672 -0.0213 -2.5306
  150MOL0     H20233  12.355   2.852   9.078 -0.0751 -0.7448  1.4342
  150MOL0     H20234  10.734   3.294   9.572  1.2478  2.8671  0.3580
  150MOL0     H20235  10.518   3.348   9.499 -2.0174  2.1894  0.6582
  150MOL0     H20236  10.148   3.336   9.416 -1.7625  3.3693  0.1836
  150MOL0     H20237   9.973   3.289   9.270  0.3143  1.6926  0.6814
  150MOL0     H20238   9.634   3.080   9.449 -0.4002 -1.6905 -0.8116
  150MOL0     H20239   9.579   3.100   9.278 -0.6734 -0.1224  1.2350
  150MOL0     H20240   9.504   3.341   9.339  0.3523  1.3298  1.0634
  150MOL0     H20241   9.575   3.310   9.493  1.4313 -1.1141 -0.3825
  150MOL0     H20242   9.415   3.159   9.563 -1.2102 -2.7716 -0.4462
  150MOL0     H20243   9.373   3.106   9.410  2.4423 -1.0002  1.4450
  150MOL0     H20244   9.210   3.242   9.553  0.8831 -2.2702 -1.4027
  150MOL0     H20245   9.313   3.380   9.511  0.0621  0.0839  0.3068
  150MOL0     H20246   9.085   3.229   9.160 -2.1212 -3.3995  1.6428
  150MOL0     H20247   9.729   3.185   9.620  1.1438 -1.4348  0.6608
  150MOL0     H20248   9.976   3.166   9.853 -1.5374 -0.9396  2.7318
  150MOL0     H20249   9.904   3.334   9.843 -2.9714  0.8178 -1.2828
  150MOL0     H20250   9.807   3.182   9.821  0.6130 -1.0670  0.6049
  151MOL0     O20251   3.107   0.773   2.070  0.6260 -0.4869  0.1125
  151MOL0     C20252   3.061   0.740   2.178  0.4338 -0.2392  0.3847
  151MOL0     O20253   3.131   0.733   2.290  0.1016  0.5767  0.3543
  151MOL0     C20254   3.267   0.744   2.305  0.2963  0.5312 -0.5589
  151MOL0     C20255   3.308   0.832   2.414  0.0658  0.2483 -0.4083
  151MOL0     C20256   3.440   0.854   2.432  0.5525  0.7458  0.0203
  151MOL0     C20257   3.533   0.783   2.360 -0.2349 -0.8489  0.1553
  151MOL0     O20258   3.672   0.787   2.375  0.1607  0.1602  1.1474
  151MOL0     C20259   3.723   0.815   2.507  0.1234 -0.6601  0.3176
  151MOL0     C20260   3.704   0.719   2.613  0.2775 -0.6379  0.8088
  151MOL0     C20261   3.737   0.575   2.570 -0.3369  0.8357  0.0280
  151MOL0     C20262   3.881   0.546   2.612 -0.7722  0.9484  0.3553
  151MOL0     C20263   3.922   0.420   2.528  0.1027  0.5081 -0.3630
  151MOL0     C20264   4.072   0.396   2.571  1.4808 -0.0882  0.6892
  151MOL0     C20265   4.121   0.289   2.476 -0.0295  0.5535  0.3594
  151MOL0     C20266   4.276   0.261   2.493  0.4804 -0.5034  0.8590
  151MOL0     N20267   4.312   0.153   2.399 -0.3484 -0.3272  0.1330
  151MOL0     C20268   4.420   0.065   2.418  0.5585  0.1076 -0.4015
  151MOL0     C20269   4.404  -0.038   2.324  0.0206 -0.0506 -0.0391
  151MOL0     C20270   4.501  -0.152   2.332  0.2822 -0.3074 -0.7417
  151MOL0     C20271   4.613  -0.127   2.230  0.1895 -0.6793  0.0707
  151MOL0     C20272   4.702  -0.251   2.246 -0.0181 -0.3911 -0.6643
  151MOL0     C20273   4.799  -0.262   2.123  0.5501  0.3820 -0.9202
  151MOL0     O20274   4.901  -0.166   2.123 -0.3118 -0.1282 -0.2270
  151MOL0     C20275   5.030  -0.205   2.150 -0.7846  0.5265 -0.7172
  151MOL0     C20276   5.121  -0.105   2.130  0.1256 -0.8877 -0.0462
  151MOL0     C20277   5.254  -0.113   2.175 -0.3355  0.6204 -0.2573
  151MOL0     C20278   5.297  -0.230   2.244  0.4169 -0.3274 -0.1129
  151MOL0     C20279   5.436  -0.253   2.282  0.4218 -0.3030 -0.5783
  151MOL0     O20280   5.472  -0.374   2.329  0.6658 -0.2355 -0.3178
  151MOL0     C20281   5.603  -0.407   2.353  0.4266  1.0822 -0.2717
  151MOL0     C20282   5.717  -0.355   2.286  0.1641 -0.1706 -0.2902
  151MOL0     C20283   5.847  -0.399   2.318  0.0180  0.5308 -0.3630
  151MOL0     C20284   5.870  -0.503   2.411 -0.5141  0.1474  0.5754
  151MOL0     O20285   5.994  -0.539   2.439  0.4076 -0.1841  0.5442
  151MOL0     C20286   6.023  -0.665   2.503 -0.1826 -0.0953  1.0010
  151MOL0     C20287   6.172  -0.696   2.488 -0.6758 -0.6625  0.1838
  151MOL0     C20288   6.228  -0.796   2.582 -1.1075 -0.6518 -0.2164
  151MOL0     C20289   6.176  -0.938   2.554 -0.1755 -0.0802 -0.6906
  151MOL0     C20290   6.225  -1.051   2.643 -0.1623 -0.0797 -0.5261
  151MOL0     C20291   6.369  -1.082   2.619 -0.1881  0.2265 -0.1388
  151MOL0     C20292   6.447  -1.015   2.730  0.4813 -0.5953  0.0033
  151MOL0     C20293   6.577  -0.947   2.688  0.1822  0.5371  0.0048
  151MOL0    Cl20294   6.672  -1.077   2.595  0.2685  0.4761  0.0170
  151MOL0     C20295   5.751  -0.564   2.465  0.0451 -0.5251  0.0103
  151MOL0     C20296   5.618  -0.517   2.441  0.0552 -0.0703  0.3027
  151MOL0     O20297   5.509  -0.154   2.292  0.0403 -0.1137  0.6104
  151MOL0     C20298   5.199  -0.330   2.273  0.0164 -0.0655 -0.2395
  151MOL0     C20299   5.066  -0.320   2.222 -0.8551 -0.3870  0.0646
  151MOL0     N20300   4.283  -0.018   2.265  0.9715 -0.4762  0.2654
  151MOL0     N20301   4.234   0.098   2.302  0.7981 -0.3490 -0.3624
  151MOL0     C20302   3.498   0.702   2.251  0.6230 -1.0750  0.4990
  151MOL0     C20303   3.364   0.694   2.215  0.0143 -0.8082 -0.5903
  151MOL0     C20304   2.913   0.702   2.182 -1.3692  0.1251  0.1140
  151MOL0     C20305   2.846   0.700   2.059  0.5756 -0.1546 -0.8179
  151MOL0     C20306   2.709   0.664   2.053  0.5391 -0.6862  0.2296
  151MOL0     C20307   2.640   0.615   2.160 -0.2993  0.1385 -0.0493
  151MOL0     O20308   2.506   0.575   2.151  0.0948  0.3415 -0.6511
  151MOL0     C20309   2.499   0.460   2.069 -0.1354  0.1208 -0.1848
  151MOL0     C20310   2.386   0.372   2.123  0.0445  0.0775  0.2684
  151MOL0     C20311   2.355   0.267   2.017  0.4075  0.9339 -0.9305
  151MOL0     C20312   2.300   0.140   2.081  0.6885 -0.0418  0.1984
  151MOL0     C20313   2.192   0.165   2.171 -0.3763  0.2064  0.5518
  151MOL0     C20314   2.105   0.176   2.250  0.0878 -1.1546  0.2800
  151MOL0     C20315   2.708   0.626   2.283  0.5390 -0.1738  0.4254
  151MOL0     C20316   2.842   0.661   2.297 -0.5952 -0.2810 -0.2228
  151MOL0     C20317   2.908   0.654   2.431  0.3849  0.4680  0.1820
  151MOL0     H20318   3.236   0.877   2.481 -0.9798 -0.6142 -0.9265
  151MOL0     H20319   3.478   0.920   2.510 -0.9695  1.3981  0.2358
  151MOL0     H20320   3.831   0.815   2.490  0.1180 -0.7588  0.2817
  151MOL0     H20321   3.691   0.915   2.535  0.5023  0.4103 -2.7146
  151MOL0     H20322   3.606   0.721   2.661 -0.4305 -2.8507 -0.4089
  151MOL0     H20323   3.769   0.759   2.692 -0.9124  1.5440  0.7895
  151MOL0     H20324   3.725   0.554   2.463 -1.8754 -1.4816  0.5844
  151MOL0     H20325   3.675   0.495   2.610  1.7374 -2.8873 -3.4756
  151MOL0     H20326   3.944   0.632   2.588 -2.0438  2.1721  1.2354
  151MOL0     H20327   3.898   0.523   2.717 -1.9107 -1.0772  0.1547
  151MOL0     H20328   3.852   0.338   2.538 -1.0494  1.2967 -1.6230
  151MOL0     H20329   3.920   0.438   2.420 -0.7654 -1.0183 -0.6283
  151MOL0     H20330   4.131   0.487   2.559 -2.0531  2.2285 -0.9656
  151MOL0     H20331   4.069   0.359   2.674 -1.2656 -0.5250  0.5452
  151MOL0     H20332   4.096   0.310   2.371 -2.3418  0.4782  0.8364
  151MOL0     H20333   4.068   0.195   2.491 -0.8130  0.3927 -2.7204
  151MOL0     H20334   4.347   0.341   2.474  0.0475 -0.4735 -0.8724
  151MOL0     H20335   4.290   0.231   2.597  2.0113 -0.2216  0.7505
  151MOL0     H20336   4.498   0.087   2.491  0.1597 -0.7052  0.2905
  151MOL0     H20337   4.544  -0.170   2.430 -1.2579 -1.4184 -0.2256
  151MOL0     H20338   4.442  -0.243   2.315 -0.9378  0.4170 -0.5211
  151MOL0     H20339   4.569  -0.122   2.131  0.5567  0.6440 -0.0430
  151MOL0     H20340   4.662  -0.031   2.248  0.2196 -0.6042 -0.4032
  151MOL0     H20341   4.648  -0.345   2.262  0.1260 -0.9292 -2.9492
  151MOL0     H20342   4.759  -0.230   2.336  0.0279  1.1271 -1.0290
  151MOL0     H20343   4.745  -0.243   2.030  2.9767  2.4035 -2.0575
  151MOL0     H20344   4.844  -0.362   2.122  1.5602  0.7996  0.2165
  151MOL0     H20345   5.077  -0.014   2.089 -2.5109 -1.6292  0.9323
  151MOL0     H20346   5.329  -0.035   2.169 -0.3098  0.5177 -1.4587
  151MOL0     H20347   5.706  -0.273   2.216 -1.8284  0.2854  0.4959
  151MOL0     H20348   5.939  -0.358   2.276  1.7371  0.9489  3.4185
  151MOL0     H20349   5.998  -0.664   2.609  4.9038 -0.3234  2.4605
  151MOL0     H20350   5.963  -0.748   2.463  2.0422  0.3057 -3.9136
  151MOL0     H20351   6.194  -0.725   2.385  2.0059  1.4848  0.0178
  151MOL0     H20352   6.221  -0.598   2.496 -1.8044  0.2322 -2.8047
  151MOL0     H20353   6.335  -0.805   2.558 -1.0751 -0.4822 -0.1349
  151MOL0     H20354   6.213  -0.757   2.683  1.2074  0.0106 -0.0524
  151MOL0     H20355   6.200  -0.955   2.449 -2.1858  0.2697 -1.2344
  151MOL0     H20356   6.068  -0.931   2.567 -0.5220 -0.3594 -3.0109
  151MOL0     H20357   6.157  -1.130   2.609 -0.3996  0.3641 -1.0835
  151MOL0     H20358   6.206  -1.031   2.749  1.8748  4.8548 -0.8497
  151MOL0     H20359   6.371  -1.190   2.635 -0.3415  0.5511  2.5677
  151MOL0     H20360   6.395  -1.064   2.515 -0.1859 -3.5014 -0.9014
  151MOL0     H20361   6.472  -1.091   2.805 -0.9613 -0.2967  0.8427
  151MOL0     H20362   6.384  -0.941   2.782  3.0682  1.1730  0.8109
  151MOL0     H20363   6.570  -0.860   2.623  0.5577 -0.6203 -1.6365
  151MOL0     H20364   6.626  -0.905   2.777 -0.5017  0.8148  0.2530
  151MOL0     H20365   5.749  -0.639   2.543  0.8104  2.1743  2.8351
  151MOL0     H20366   5.522  -0.549   2.478 -0.2304  1.4738  0.9796
  151MOL0     H20367   5.227  -0.420   2.326  1.2125 -0.7818 -2.0218
  151MOL0     H20368   4.995  -0.396   2.252 -1.0082  0.3648  1.6735
  151MOL0     H20369   3.573   0.660   2.184 -0.9804 -0.1658 -2.0003
  151MOL0     H20370   3.328   0.656   2.120  1.4471 -2.6554 -0.4513
  151MOL0     H20371   2.887   0.733   1.964 -2.0985  0.6405 -1.7678
  151MOL0     H20372   2.651   0.672   1.961 -0.0778 -1.8661  0.4982
  151MOL0     H20373   2.587   0.395   2.061 -0.0670  0.3613 -1.6169
  151MOL0     H20374   2.467   0.494   1.970 -0.7915  1.7372  0.5545
  151MOL0     H20375   2.301   0.434   2.152  0.6273 -0.3038  3.0810
  151MOL0     H20376   2.422   0.332   2.218 -1.4780 -0.5874  0.5981
  151MOL0     H20377   2.442   0.254   1.951  1.7603  1.4190  0.6925
  151MOL0     H20378   2.272   0.308   1.959 -0.4159  0.5421 -0.0553
  151MOL0     H20379   2.280   0.063   2.007  0.3186 -0.6702  0.9325
  151MOL0     H20380   2.375   0.088   2.142 -0.5089 -1.6787  0.3359
  151MOL0     H20381   2.030   0.191   2.325  1.5338 -1.4308  1.8672
  151MOL0     H20382   2.651   0.593   2.369 -0.9166 -0.0764 -0.4654
  151MOL0     H20383   2.840   0.621   2.511 -0.9772  0.1376 -1.0692
  151MOL0     H20384   2.988   0.580   2.430  2.0132  2.1581 -1.2416
  151MOL0     H20385   2.948   0.751   2.461 -0.4529  1.7187 -2.4985
  152MOL0     O20386  10.997   0.573   5.017 -0.0788 -0.4905 -0.4163
  152MOL0     C20387  10.921   0.673   5.009 -0.0320 -0.1348  0.4806
  152MOL0     O20388  10.917   0.785   5.092  0.1815 -0.0448 -0.6847
  152MOL0     C20389  11.009   0.804   5.194 -0.3505  0.0062  0.1084
  152MOL0     C20390  11.088   0.708   5.260 -0.0545 -0.8310  0.7981
  152MOL0     C20391  11.199   0.754   5.339  0.0405 -0.0288  0.5692
  152MOL0     C20392  11.218   0.891   5.377 -0.1615  0.5235  0.7249
  152MOL0     O20393  11.322   0.924   5.466 -0.0540  0.4923  0.4208
  152MOL0     C20394  11.307   1.036   5.558  1.0003  0.0942  0.2040
  152MOL0     C20395  11.178   1.015   5.643 -0.4671 -0.0654  0.7187
  152MOL0     C20396  11.191   1.106   5.765  0.4707 -0.1774 -0.4436
  152MOL0     C20397  11.078   1.070   5.871 -0.3952  0.1417  0.8105
  152MOL0     C20398  11.114   1.110   6.013 -0.3069  0.3173  0.2789
  152MOL0     C20399  11.013   1.056   6.116  0.0000 -0.1747  1.0089
  152MOL0     C20400  11.076   1.073   6.254 -0.1544 -0.2168 -0.4507
  152MOL0     C20401  11.183   0.966   6.286  0.5053  0.1271 -0.3806
  152MOL0     N20402  11.221   0.966   6.429  0.4166 -0.1822  0.3607
  152MOL0     C20403  11.285   1.066   6.491 -0.3800  0.5562 -0.6292
  152MOL0     C20404  11.306   1.015   6.611  0.0732  0.0244 -0.3696
  152MOL0     C20405  11.381   1.093   6.724  0.3476  0.2424 -0.2245
  152MOL0     C20406  11.520   1.029   6.748 -0.3730  0.5886  0.1440
  152MOL0     C20407  11.625   1.020   6.641  0.0255 -0.4953 -0.0368
  152MOL0     C20408  11.640   0.883   6.573 -0.2995  0.8076 -0.0476
  152MOL0     O20409  11.731   0.884   6.461 -0.4194 -0.0493  0.2848
  152MOL0     C20410  11.702   0.965   6.361  0.0655 -0.2391  0.0644
  152MOL0     C20411  11.820   1.025   6.312 -1.5954  0.6405 -0.1846
  152MOL0     C20412  11.816   1.100   6.196  0.4796 -0.7457 -0.2724
  152MOL0     C20413  11.695   1.122   6.124 -0.1207  0.3066  0.4288
  152MOL0     C20414  11.703   1.197   5.995 -0.1566  0.3713 -0.5311
  152MOL0     O20415  11.616   1.161   5.904 -0.2003 -0.4128  0.6865
  152MOL0     C20416  11.642   1.196   5.774  0.3710 -0.5216 -0.5939
  152MOL0     C20417  11.541   1.261   5.705  0.0324 -0.3533  0.1731
  152MOL0     C20418  11.563   1.305   5.572  0.3393 -0.4462 -0.2912
  152MOL0     C20419  11.682   1.265   5.501  0.2240  0.3856 -0.4024
  152MOL0     O20420  11.700   1.297   5.369 -0.0421  0.0412  0.0473
  152MOL0     C20421  11.611   1.370   5.290 -1.1136 -0.1783 -0.5250
  152MOL0     C20422  11.680   1.427   5.157  0.3425  0.0227  0.2038
  152MOL0     C20423  11.822   1.468   5.183  0.1165  0.2862  0.3657
  152MOL0     C20424  11.881   1.553   5.073  0.0746 -0.9989  0.2514
  152MOL0     C20425  12.034   1.561   5.106  0.0577 -0.3188 -0.4126
  152MOL0     C20426  12.108   1.630   4.989 -0.7211 -1.0912 -0.1440
  152MOL0     C20427  12.259   1.644   5.002  0.1328  0.2487 -0.4500
  152MOL0     C20428  12.321   1.741   4.900 -0.4400 -0.1291  0.0420
  152MOL0    Cl20429  12.351   1.663   4.741 -0.4411 -0.1917 -0.1053
  152MOL0     C20430  11.778   1.192   5.580 -0.2274 -0.1989 -0.9386
  152MOL0     C20431  11.766   1.166   5.715 -0.0716 -0.1802  1.0213
  152MOL0     O20432  11.790   1.281   5.985 -0.5823  0.1427 -0.4064
  152MOL0     C20433  11.582   1.053   6.169  0.4207  0.7104  0.0399
  152MOL0     C20434  11.587   0.978   6.287  0.5592  0.1187  0.6388
  152MOL0     N20435  11.263   0.885   6.621  0.6564 -0.5460  0.4778
  152MOL0     N20436  11.211   0.858   6.509  0.1428  0.5322  0.3459
  152MOL0     C20437  11.126   0.980   5.318  0.7582  0.9515 -0.2808
  152MOL0     C20438  11.027   0.936   5.232 -0.1627  0.1910 -0.0934
  152MOL0     C20439  10.808   0.659   4.916 -0.1982 -0.2075  0.2187
  152MOL0     C20440  10.699   0.744   4.914  0.4323  0.5051 -0.5533
  152MOL0     C20441  10.590   0.738   4.825 -0.1457 -0.4305  0.6822
  152MOL0     C20442  10.598   0.641   4.724  0.1892 -0.2991  0.2390
  152MOL0     O20443  10.505   0.634   4.621 -0.4389 -0.3347 -0.1833
  152MOL0     C20444  10.429   0.751   4.597  1.1394 -0.2133  1.0086
  152MOL0     C20445  10.349   0.724   4.470 -0.3970  0.2899 -0.6908
  152MOL0     C20446  10.241   0.832   4.455 -0.4442 -0.5349  0.0045
  152MOL0     C20447  10.107   0.783   4.491  0.2723  0.1645  0.0441
  152MOL0     C20448  10.084   0.780   4.635 -0.2406 -0.3587  0.0402
  152MOL0     C20449  10.077   0.783   4.750  0.0587 -0.1238 -0.6911
  152MOL0     C20450  10.703   0.554   4.715 -0.4159  0.0622  0.0734
  152MOL0     C20451  10.811   0.555   4.814 -0.2827 -0.9112 -0.1679
  152MOL0     C20452  10.896   0.435   4.800  0.4867 -0.2943  0.0532
  152MOL0     H20453  11.087   0.604   5.229  3.8713 -0.6740 -0.4928
  152MOL0     H20454  11.263   0.676   5.378  0.1857 -1.2212 -1.8712
  152MOL0     H20455  11.395   1.046   5.622 -0.2197 -1.6537  2.3389
  152MOL0     H20456  11.302   1.129   5.501 -0.9806  0.4298  0.8396
  152MOL0     H20457  11.187   0.909   5.669  0.2258 -0.1040  0.3522
  152MOL0     H20458  11.090   1.039   5.582 -1.8284 -3.5338  1.0871
  152MOL0     H20459  11.183   1.213   5.743 -1.1310 -0.7502 -2.9818
  152MOL0     H20460  11.290   1.089   5.810 -0.9520 -0.5418  2.8295
  152MOL0     H20461  10.981   1.116   5.851 -0.0229 -0.2846 -2.6110
  152MOL0     H20462  11.075   0.960   5.870  2.5916 -0.0588 -2.2863
  152MOL0     H20463  11.211   1.066   6.035 -0.0437  0.9194  0.3394
  152MOL0     H20464  11.123   1.219   6.002  1.8138  0.1704  0.2864
  152MOL0     H20465  10.920   1.111   6.103  1.0869  1.5233  0.0650
  152MOL0     H20466  10.993   0.954   6.085 -1.0542  0.8771 -2.1014
  152MOL0     H20467  10.987   1.065   6.317  0.5906 -4.0567  0.3417
  152MOL0     H20468  11.113   1.174   6.271 -1.1715 -0.2405  2.3703
  152MOL0     H20469  11.150   0.867   6.253  0.8106  0.8422 -3.0457
  152MOL0     H20470  11.272   0.987   6.227  1.2448  0.4713  0.8295
  152MOL0     H20471  11.325   1.163   6.466 -1.3285  1.7828  2.1795
  152MOL0     H20472  11.383   1.199   6.700 -0.5398 -0.1743 -2.3835
  152MOL0     H20473  11.321   1.080   6.815 -0.4415 -0.1149 -0.7934
  152MOL0     H20474  11.569   1.082   6.830  0.4594  0.0107  0.0395
  152MOL0     H20475  11.502   0.930   6.790 -1.1841  0.4846 -0.4226
  152MOL0     H20476  11.718   1.042   6.695  0.5800 -0.6487 -0.9049
  152MOL0     H20477  11.607   1.104   6.574 -2.0111 -1.7278 -1.1325
  152MOL0     H20478  11.543   0.846   6.536  0.6327  1.2372 -3.1486
  152MOL0     H20479  11.676   0.818   6.653 -2.4030  0.9044  1.0718
  152MOL0     H20480  11.915   1.004   6.361 -1.5270  2.9932  0.8141
  152MOL0     H20481  11.908   1.138   6.155  0.0442  1.1322  0.3823
  152MOL0     H20482  11.456   1.303   5.758  0.6587 -1.4615  2.1536
  152MOL0     H20483  11.484   1.369   5.532 -0.5832 -1.9728 -1.0031
  152MOL0     H20484  11.526   1.312   5.255 -0.2314 -1.2076 -1.0266
  152MOL0     H20485  11.579   1.457   5.348  1.1550 -0.3239  1.0700
  152MOL0     H20486  11.669   1.359   5.072 -2.2821  0.6840 -0.0928
  152MOL0     H20487  11.616   1.512   5.131 -0.0054 -0.6223 -1.1117
  152MOL0     H20488  11.816   1.526   5.276 -2.2912 -1.7457  1.5935
  152MOL0     H20489  11.889   1.383   5.198 -2.2495 -1.4620  1.7857
  152MOL0     H20490  11.842   1.655   5.076  1.9338 -0.2748  1.5043
  152MOL0     H20491  11.864   1.513   4.973  0.4583  1.5286 -0.8944
  152MOL0     H20492  12.066   1.456   5.101 -1.3284 -0.7579 -0.6243
  152MOL0     H20493  12.049   1.606   5.204 -2.8180 -0.1703  0.0579
  152MOL0     H20494  12.089   1.571   4.899 -2.5336 -0.9277  0.0959
  152MOL0     H20495  12.074   1.733   4.979  0.4367 -0.5315  1.3244
  152MOL0     H20496  12.303   1.546   4.981  2.9295  1.5232 -1.0146
  152MOL0     H20497  12.278   1.681   5.103 -2.5589 -2.6778  1.3057
  152MOL0     H20498  12.274   1.835   4.871 -0.2889  0.0394  0.3299
  152MOL0     H20499  12.421   1.761   4.939  0.4025 -1.6431 -1.2160
  152MOL0     H20500  11.870   1.165   5.529 -0.6435 -0.0403 -1.7804
  152MOL0     H20501  11.845   1.110   5.764  0.2723 -0.9073 -0.3052
  152MOL0     H20502  11.493   1.060   6.107 -0.3531 -0.5014  0.9514
  152MOL0     H20503  11.509   0.912   6.323 -0.1452  0.0088 -0.9997
  152MOL0     H20504  11.151   1.082   5.344  1.6761  1.1104 -1.6410
  152MOL0     H20505  10.970   1.010   5.177  1.4134  0.5262 -1.3185
  152MOL0     H20506  10.700   0.819   4.992 -2.6851  0.0429  0.0595
  152MOL0     H20507  10.516   0.817   4.828  0.3431  0.1525 -1.2255
  152MOL0     H20508  10.488   0.843   4.593 -0.6479  0.9505  0.0800
  152MOL0     H20509  10.351   0.764   4.673  0.5147  2.1991  0.0547
  152MOL0     H20510  10.307   0.623   4.470 -2.2450  1.0073 -0.1077
  152MOL0     H20511  10.411   0.710   4.380  1.1073 -1.8908  0.5969
  152MOL0     H20512  10.238   0.874   4.354  2.3180 -1.6272 -0.6326
  152MOL0     H20513  10.261   0.919   4.518  3.2975 -1.9804  1.0964
  152MOL0     H20514  10.024   0.839   4.447 -1.8005 -1.9801  1.0224
  152MOL0     H20515  10.109   0.684   4.444  1.8441 -1.1446  2.6657
  152MOL0     H20516  10.055   0.780   4.855 -2.7974 -0.8416 -1.2125
  152MOL0     H20517  10.703   0.477   4.639 -1.0128 -0.8746  1.0050
  152MOL0     H20518  10.894   0.365   4.884  0.6827  0.8056  0.9899
  152MOL0     H20519  10.877   0.375   4.711  2.7270 -0.2479 -0.5033
  152MOL0     H20520  10.999   0.470   4.793  1.2294 -2.1824  0.9148
  153MOL0     O20521   6.731   9.779   0.374  0.1218  0.0358  0.4741
  153MOL0     C20522   6.638   9.839   0.322  0.1500 -0.0890 -0.6652
  153MOL0     O20523   6.641   9.978   0.299 -0.6976  0.7507 -0.8076
  153MOL0     C20524   6.756  10.051   0.318  0.1435  0.7067 -0.1757
  153MOL0     C20525   6.810  10.114   0.208 -0.3156  0.0781 -0.3168
  153MOL0     C20526   6.928  10.193   0.215 -0.3530  0.7795 -0.4543
  153MOL0     C20527   6.993  10.211   0.338 -0.5270  1.2466  0.0384
  153MOL0     O20528   7.106  10.287   0.340 -0.0989 -0.0982 -0.0079
  153MOL0     C20529   7.203  10.269   0.437 -0.1000  0.7161 -0.3255
  153MOL0     C20530   7.327  10.197   0.383  0.2140 -0.1657  0.0506
  153MOL0     C20531   7.402  10.278   0.276  0.2733 -0.2256  0.3044
  153MOL0     C20532   7.549  10.238   0.254 -0.1586 -0.1919  0.3293
  153MOL0     C20533   7.620  10.311   0.131  0.1238  0.2978  0.0681
  153MOL0     C20534   7.642  10.461   0.144  0.2139 -0.9301  1.0526
  153MOL0     C20535   7.691  10.510   0.010  0.5441  0.2544 -0.1625
  153MOL0     C20536   7.832  10.466  -0.040  0.3883  0.2817  0.7085
  153MOL0     N20537   7.943  10.507   0.045 -0.0715 -0.7117 -0.4032
  153MOL0     C20538   8.027  10.614   0.020 -0.0205  0.1211  0.3611
  153MOL0     C20539   8.128  10.608   0.108 -0.4560 -0.2678 -0.0010
  153MOL0     C20540   8.242  10.715   0.110 -0.1929 -0.7363  0.3700
  153MOL0     C20541   8.188  10.840   0.176  0.0739 -0.4432 -0.6138
  153MOL0     C20542   8.276  10.964   0.197 -0.5875  0.8425  0.4866
  153MOL0     C20543   8.383  10.937   0.308 -0.1431  0.4005 -0.3617
  153MOL0     O20544   8.480  10.845   0.268 -0.1960 -0.3088 -0.6686
  153MOL0     C20545   8.591  10.900   0.205 -0.1660  0.5611 -0.0941
  153MOL0     C20546   8.604  11.029   0.146 -0.0401  0.0514  0.6270
  153MOL0     C20547   8.718  11.065   0.081  0.0439 -0.2702 -0.6889
  153MOL0     C20548   8.834  10.982   0.078 -0.0334  0.1695  0.1507
  153MOL0     C20549   8.959  11.018   0.007  0.2429  0.6663  0.4820
  153MOL0     O20550   8.985  11.155  -0.024 -0.0327  0.3015 -0.4102
  153MOL0     C20551   9.090  11.172  -0.109  0.4545  0.5007 -0.3082
  153MOL0     C20552   9.064  11.208  -0.247  0.1716  0.3131 -0.9129
  153MOL0     C20553   9.174  11.230  -0.335 -0.0540 -0.1236 -0.8296
  153MOL0     C20554   9.309  11.217  -0.299 -0.4481  0.6930 -0.7894
  153MOL0     O20555   9.423  11.251  -0.373  0.6814 -0.2442 -0.5512
  153MOL0     C20556   9.383  11.258  -0.511 -0.1541 -1.6982  0.4190
  153MOL0     C20557   9.510  11.279  -0.608 -0.5143  0.7606 -0.7522
  153MOL0     C20558   9.585  11.409  -0.596  0.0795 -0.0463 -0.1957
  153MOL0     C20559   9.716  11.407  -0.673 -0.2523 -1.1702  0.4177
  153MOL0     C20560   9.748  11.551  -0.720  0.2435 -0.3352 -0.1674
  153MOL0     C20561   9.881  11.552  -0.781  0.6993 -0.0615 -0.0492
  153MOL0     C20562   9.917  11.690  -0.839 -0.0058  0.5526 -0.2128
  153MOL0     C20563  10.065  11.695  -0.891 -0.1905 -0.2162 -0.4146
  153MOL0    Cl20564  10.090  11.568  -1.012 -0.3224 -0.0962 -0.2409
  153MOL0     C20565   9.330  11.183  -0.165 -0.4676  0.2396 -0.6127
  153MOL0     C20566   9.225  11.158  -0.073 -0.4930  0.4091 -0.4859
  153MOL0     O20567   9.028  10.922  -0.033  0.1092  0.6470  0.7698
  153MOL0     C20568   8.813  10.856   0.135  0.7931  0.2850  0.3713
  153MOL0     C20569   8.699  10.816   0.198 -0.4832 -0.3669 -0.1334
  153MOL0     N20570   8.112  10.502   0.192 -0.1687 -0.5584  0.0065
  153MOL0     N20571   8.003  10.432   0.142 -0.0097  0.8659  0.1321
  153MOL0     C20572   6.939  10.151   0.450  0.0188 -0.5848  0.0636
  153MOL0     C20573   6.827  10.073   0.439  0.7027 -0.1218  0.0927
  153MOL0     C20574   6.501   9.771   0.288  0.2862 -0.2549 -0.4272
  153MOL0     C20575   6.405   9.842   0.211  0.4478  0.1116  0.2107
  153MOL0     C20576   6.273   9.797   0.184 -0.2715 -0.3797 -0.5627
  153MOL0     C20577   6.230   9.676   0.229 -0.1052  0.3334 -0.4971
  153MOL0     O20578   6.104   9.628   0.211  0.5754 -0.2779  1.1009
  153MOL0     C20579   5.986   9.713   0.194 -0.8208 -0.1348  0.1502
  153MOL0     C20580   5.868   9.666   0.276 -0.1784 -0.0288  0.8261
  153MOL0     C20581   5.822   9.529   0.234  0.2750 -0.2213  0.1882
  153MOL0     C20582   5.699   9.496   0.318 -0.1996  0.7689  0.7137
  153MOL0     C20583   5.581   9.577   0.281  0.0315  0.4723  0.4901
  153MOL0     C20584   5.488   9.643   0.239 -0.0267 -0.0407 -0.5575
  153MOL0     C20585   6.317   9.600   0.306 -0.3182 -0.1407  0.4096
  153MOL0     C20586   6.453   9.645   0.336  0.5446 -0.1383  0.2533
  153MOL0     C20587   6.544   9.568   0.430 -0.5274  0.1998  0.0159
  153MOL0     H20588   6.759  10.111   0.112 -1.2098  1.8682  0.0548
  153MOL0     H20589   6.981  10.221   0.124 -0.4136  2.1021 -0.0971
  153MOL0     H20590   7.232  10.365   0.482  2.0779  0.5506 -1.2307
  153MOL0     H20591   7.181  10.214   0.529  4.7850 -0.8374  0.2270
  153MOL0     H20592   7.295  10.099   0.347 -1.9492  1.4847 -2.9296
  153MOL0     H20593   7.389  10.171   0.470  1.2833 -0.3014 -0.7228
  153MOL0     H20594   7.403  10.387   0.289  3.1020 -0.3389  1.7726
  153MOL0     H20595   7.343  10.264   0.186 -1.4278  2.1761  0.9386
  153MOL0     H20596   7.603  10.251   0.349 -0.7233 -0.0495  0.6377
  153MOL0     H20597   7.546  10.130   0.238  0.0333 -0.2806  0.8444
  153MOL0     H20598   7.718  10.263   0.119  0.5796  0.8364  1.4506
  153MOL0     H20599   7.560  10.293   0.042  2.6784  1.8426 -2.1253
  153MOL0     H20600   7.546  10.511   0.159  1.5208  1.8998  0.5963
  153MOL0     H20601   7.706  10.503   0.222 -0.6832  0.2789  1.1550
  153MOL0     H20602   7.696  10.619   0.009 -0.9827  0.3869  1.4006
  153MOL0     H20603   7.617  10.486  -0.067 -1.2498  0.6435  1.3886
  153MOL0     H20604   7.826  10.356  -0.041  1.2399  0.2259 -0.5897
  153MOL0     H20605   7.844  10.506  -0.141 -0.5597 -0.3206  0.3386
  153MOL0     H20606   8.000  10.691  -0.052 -1.9982  0.7538  1.6950
  153MOL0     H20607   8.330  10.673   0.161 -0.8477 -0.1428  2.0679
  153MOL0     H20608   8.273  10.742   0.009  3.7461  1.8134  2.0263
  153MOL0     H20609   8.098  10.875   0.124 -0.6953 -0.9493  0.3396
  153MOL0     H20610   8.157  10.809   0.276  4.9313 -1.2132  0.9165
  153MOL0     H20611   8.213  11.046   0.231 -0.4411  1.6611 -1.1158
  153MOL0     H20612   8.318  10.992   0.100 -1.6135 -0.4755 -0.3845
  153MOL0     H20613   8.323  10.900   0.392 -1.7083  1.9802 -0.7216
  153MOL0     H20614   8.417  11.036   0.339 -1.4794  0.6624  0.3654
  153MOL0     H20615   8.527  11.105   0.153 -1.2568 -0.8948 -1.4899
  153MOL0     H20616   8.741  11.162   0.039 -0.1471 -0.8756 -2.2824
  153MOL0     H20617   8.962  11.198  -0.283 -0.2737 -0.7624  0.5197
  153MOL0     H20618   9.152  11.253  -0.439 -1.0932 -2.5700 -1.2346
  153MOL0     H20619   9.327  11.168  -0.536 -1.3627 -1.8639  3.3258
  153MOL0     H20620   9.315  11.343  -0.525  1.7986 -0.1875 -0.4933
  153MOL0     H20621   9.571  11.190  -0.590 -0.3753  0.6891 -1.5540
  153MOL0     H20622   9.483  11.268  -0.713  0.4486  1.4998 -1.0897
  153MOL0     H20623   9.520  11.490  -0.630  1.0188  0.3239 -1.1490
  153MOL0     H20624   9.605  11.431  -0.491 -2.6796 -3.4364  1.2641
  153MOL0     H20625   9.718  11.325  -0.746  0.7884  0.4510 -1.5024
  153MOL0     H20626   9.786  11.374  -0.596  0.4196  1.8424  1.2273
  153MOL0     H20627   9.739  11.612  -0.629 -3.5857 -3.2629  1.7174
  153MOL0     H20628   9.666  11.581  -0.786 -0.6426  0.1165  1.1006
  153MOL0     H20629   9.957  11.546  -0.703 -0.1080 -1.9866  0.6419
  153MOL0     H20630   9.893  11.472  -0.854 -1.8769  0.0477 -0.7014
  153MOL0     H20631   9.889  11.767  -0.766 -1.9191 -0.3338  0.0391
  153MOL0     H20632   9.855  11.712  -0.927 -0.6170  0.7638  0.2615
  153MOL0     H20633  10.100  11.793  -0.923 -2.2474  0.5557 -0.4869
  153MOL0     H20634  10.129  11.670  -0.806 -0.7138  0.2386  0.1273
  153MOL0     H20635   9.419  11.205  -0.107 -2.7292  3.3487  2.0404
  153MOL0     H20636   9.241  11.134   0.032 -2.2830 -4.2320 -1.0308
  153MOL0     H20637   8.891  10.784   0.110  0.7067  0.6380 -0.9664
  153MOL0     H20638   8.687  10.717   0.240 -0.1350 -1.0513 -1.6032
  153MOL0     H20639   6.994  10.143   0.543  0.0064 -2.5946 -0.0399
  153MOL0     H20640   6.785  10.022   0.525 -2.3142 -0.4819 -1.4579
  153MOL0     H20641   6.426   9.944   0.181 -2.6491  0.4482 -1.2776
  153MOL0     H20642   6.211   9.870   0.132  0.6064  1.2718  0.5901
  153MOL0     H20643   5.957   9.711   0.088  0.7613 -2.9383 -0.3119
  153MOL0     H20644   6.022   9.812   0.223  0.8415 -0.4388 -0.7442
  153MOL0     H20645   5.792   9.743   0.264  1.4735  1.5180 -0.2547
  153MOL0     H20646   5.906   9.660   0.379  1.4301 -0.2302  0.2596
  153MOL0     H20647   5.908   9.463   0.246 -0.3012 -0.8068  1.2099
  153MOL0     H20648   5.806   9.518   0.126  4.9338 -4.5163 -0.4260
  153MOL0     H20649   5.674   9.390   0.312  1.1750  0.4379  0.5185
  153MOL0     H20650   5.722   9.532   0.419  1.0720  1.5557  0.1725
  153MOL0     H20651   5.394   9.690   0.219  0.2397  0.6013 -0.3324
  153MOL0     H20652   6.289   9.502   0.343  1.3835 -1.9493 -2.6078
  153MOL0     H20653   6.496   9.474   0.460 -0.2071 -0.3900 -1.2559
  153MOL0     H20654   6.635   9.537   0.379 -0.7486 -0.4291 -0.0030
  153MOL0     H20655   6.577   9.639   0.507 -1.3803  2.4953 -1.6021
  154MOL0     O20656   8.716   4.715   4.407  0.4163 -0.3719 -0.5208
  154MOL0     C20657   8.651   4.767   4.495  0.5244 -0.3234  0.0737
  154MOL0     O20658   8.694   4.798   4.621 -0.6010  0.1646  0.0900
  154MOL0     C20659   8.820   4.749   4.659 -0.0341 -0.4689  0.2154
  154MOL0     C20660   8.837   4.626   4.717  0.2555  0.0733 -0.2045
  154MOL0     C20661   8.959   4.573   4.766  0.6386  0.5172  0.1580
  154MOL0     C20662   9.069   4.655   4.755 -0.1713 -0.5754  0.2186
  154MOL0     O20663   9.195   4.622   4.787 -0.3704  0.1059  0.4011
  154MOL0     C20664   9.216   4.552   4.919 -0.4009  0.2038  0.0891
  154MOL0     C20665   9.262   4.658   5.020 -0.4274 -0.1781 -0.2024
  154MOL0     C20666   9.391   4.720   4.979 -0.2561  0.3483 -0.6767
  154MOL0     C20667   9.499   4.620   5.028  0.0305 -0.5326  0.0341
  154MOL0     C20668   9.628   4.706   5.016  0.0903 -0.0536  0.3555
  154MOL0     C20669   9.751   4.625   5.046 -0.0197 -0.1646 -0.3888
  154MOL0     C20670   9.778   4.618   5.197 -0.9781  0.3537  0.0038
  154MOL0     C20671   9.902   4.527   5.207 -0.2271  0.1786 -0.1082
  154MOL0     N20672  10.030   4.581   5.158  0.5061  0.1937 -0.4048
  154MOL0     C20673  10.101   4.684   5.210  0.3493 -0.5675 -0.2327
  154MOL0     C20674  10.207   4.699   5.126  0.6531 -0.2932 -0.1777
  154MOL0     C20675  10.318   4.795   5.126  0.8482 -0.1420  0.0373
  154MOL0     C20676  10.431   4.743   5.225  0.4658  0.0135 -0.1461
  154MOL0     C20677  10.510   4.851   5.285 -0.7928 -0.1114 -0.6535
  154MOL0     C20678  10.595   4.924   5.183 -0.1665  0.8272 -0.7066
  154MOL0     O20679  10.728   4.866   5.180  0.2183  0.2377 -0.8276
  154MOL0     C20680  10.758   4.782   5.078 -0.5154 -0.3863  0.8629
  154MOL0     C20681  10.871   4.700   5.087  1.3512 -0.0455  0.6991
  154MOL0     C20682  10.920   4.619   4.983 -0.1202  0.3027  1.1602
  154MOL0     C20683  10.850   4.613   4.856 -0.6586  0.3140 -0.1557
  154MOL0     C20684  10.903   4.526   4.753  0.2685  0.2426  0.0683
  154MOL0     O20685  10.817   4.501   4.648  0.0174 -0.6305 -0.1545
  154MOL0     C20686  10.839   4.394   4.562  0.0782  0.1968 -0.1432
  154MOL0     C20687  10.723   4.338   4.514 -0.4401  0.7552 -0.2365
  154MOL0     C20688  10.743   4.241   4.409 -0.6618 -0.3349 -0.3545
  154MOL0     C20689  10.867   4.194   4.366 -0.6613 -0.3811 -0.4401
  154MOL0     O20690  10.864   4.101   4.269  0.6311 -0.4668 -0.2096
  154MOL0     C20691  10.854   3.967   4.325  0.6765  0.7936  0.2830
  154MOL0     C20692  10.987   3.901   4.371 -0.2315  0.3742 -0.1810
  154MOL0     C20693  11.090   3.922   4.261 -0.1401 -0.5702  0.5517
  154MOL0     C20694  11.224   3.860   4.300  0.0338 -0.5428  0.8641
  154MOL0     C20695  11.341   3.933   4.248  0.7381  0.3855  0.2670
  154MOL0     C20696  11.469   3.854   4.292  0.3139  0.3973 -0.0697
  154MOL0     C20697  11.595   3.934   4.249  0.2463  0.3312 -0.4615
  154MOL0     C20698  11.706   3.846   4.199 -1.1438  1.2071  0.0360
  154MOL0    Cl20699  11.651   3.797   4.034  0.3766  0.4977 -0.1231
  154MOL0     C20700  10.989   4.262   4.414  0.2956  0.3987  0.5758
  154MOL0     C20701  10.970   4.357   4.509  0.7508  0.3585 -0.3518
  154MOL0     O20702  11.010   4.470   4.772  0.0332 -0.1408  0.5103
  154MOL0     C20703  10.730   4.687   4.849 -0.0664  0.2260  0.7043
  154MOL0     C20704  10.695   4.773   4.950  0.3679 -0.5016  0.9026
  154MOL0     N20705  10.193   4.601   5.034  0.9766  0.7429 -0.3794
  154MOL0     N20706  10.090   4.538   5.044  0.4672  0.7304  0.2476
  154MOL0     C20707   9.052   4.790   4.701  1.2952 -0.0041  0.2215
  154MOL0     C20708   8.929   4.837   4.658  0.6680 -0.0293 -0.0887
  154MOL0     C20709   8.507   4.791   4.469  0.3564  0.2201  0.0965
  154MOL0     C20710   8.438   4.859   4.573 -0.0807  1.0103  0.4381
  154MOL0     C20711   8.311   4.887   4.544 -0.0034 -0.8493 -0.7538
  154MOL0     C20712   8.236   4.850   4.440  0.1594 -0.1835 -0.1559
  154MOL0     O20713   8.107   4.862   4.414  0.0626 -0.6001 -0.2726
  154MOL0     C20714   8.030   4.934   4.510  0.7808 -1.0956 -0.4277
  154MOL0     C20715   7.882   4.918   4.467  0.5925 -0.1217 -0.1678
  154MOL0     C20716   7.846   4.982   4.326 -0.5113  0.4629 -0.6190
  154MOL0     C20717   7.708   4.938   4.285  1.1443 -0.2614  0.5028
  154MOL0     C20718   7.601   4.964   4.381 -0.4600  0.8881  1.0985
  154MOL0     C20719   7.520   5.001   4.458 -0.1937 -0.0910  0.0825
  154MOL0     C20720   8.303   4.778   4.345 -0.5959  0.1007 -0.4350
  154MOL0     C20721   8.437   4.755   4.352 -0.0179  0.2850 -0.1281
  154MOL0     C20722   8.494   4.678   4.236  0.2457 -0.4723 -1.0008
  154MOL0     H20723   8.745   4.569   4.729  1.0459 -0.7577  2.4476
  154MOL0     H20724   8.953   4.468   4.793  0.4321  0.2715 -0.8005
  154MOL0     H20725   9.124   4.507   4.959  0.5677 -0.6724  1.4263
  154MOL0     H20726   9.286   4.468   4.914  2.0261  2.1800 -2.5956
  154MOL0     H20727   9.262   4.600   5.113 -2.5044  1.6541  1.0583
  154MOL0     H20728   9.190   4.739   5.037  1.0216  1.3967 -1.2863
  154MOL0     H20729   9.410   4.817   5.026  0.7015  0.0930 -0.5108
  154MOL0     H20730   9.406   4.744   4.873  1.5363  1.0844 -0.2909
  154MOL0     H20731   9.479   4.587   5.130 -1.1123 -2.1027 -0.6529
  154MOL0     H20732   9.503   4.533   4.962  0.1277 -2.0500  1.9573
  154MOL0     H20733   9.630   4.760   4.921 -2.0502 -1.2771 -0.4582
  154MOL0     H20734   9.627   4.789   5.087  0.5673  0.0592  0.2331
  154MOL0     H20735   9.734   4.525   5.004 -0.6662 -0.0553 -0.3956
  154MOL0     H20736   9.842   4.665   5.000  0.4646  0.0848  0.7490
  154MOL0     H20737   9.693   4.576   5.250 -0.8315  0.4249  0.2948
  154MOL0     H20738   9.806   4.716   5.236  0.3899  0.3658 -0.9242
  154MOL0     H20739   9.931   4.516   5.312  1.2779  0.0305 -0.5235
  154MOL0     H20740   9.877   4.428   5.167 -0.7078 -0.4423  1.6339
  154MOL0     H20741  10.075   4.749   5.293 -1.6717  1.3024 -2.1853
  154MOL0     H20742  10.355   4.810   5.024 -2.1255  2.3202 -0.8702
  154MOL0     H20743  10.264   4.885   5.159 -0.5814 -1.2300  0.8043
  154MOL0     H20744  10.388   4.683   5.306 -0.9609  2.3661  0.9536
  154MOL0     H20745  10.498   4.679   5.166  1.9131  2.0237 -0.7819
  154MOL0     H20746  10.579   4.800   5.353 -1.1100  1.0629  0.5872
  154MOL0     H20747  10.448   4.919   5.344  0.2530 -0.3280  0.7787
  154MOL0     H20748  10.603   5.028   5.217  0.2393  1.1307 -1.7068
  154MOL0     H20749  10.553   4.930   5.083 -0.5991  0.4913 -0.5484
  154MOL0     H20750  10.920   4.691   5.183  0.5873  0.0543  1.1128
  154MOL0     H20751  11.009   4.558   4.993 -0.5673 -1.1154 -2.2385
  154MOL0     H20752  10.625   4.377   4.543 -0.6057 -0.4611  0.9285
  154MOL0     H20753  10.659   4.184   4.368  1.8945 -2.9280 -2.4043
  154MOL0     H20754  10.776   3.950   4.400  0.1092  1.2446 -0.1904
  154MOL0     H20755  10.813   3.913   4.238  3.2276  1.8110 -1.6779
  154MOL0     H20756  11.023   3.931   4.469 -1.5857 -1.8782  1.0987
  154MOL0     H20757  10.968   3.793   4.371  0.1384  0.3087  0.1137
  154MOL0     H20758  11.051   3.887   4.165  0.9800  1.5071 -0.7176
  154MOL0     H20759  11.100   4.030   4.250  2.7982 -0.5040  2.6806
  154MOL0     H20760  11.229   3.755   4.267 -4.0093 -0.9628  1.0222
  154MOL0     H20761  11.231   3.847   4.408 -1.5856  2.4193  1.4138
  154MOL0     H20762  11.334   4.031   4.296 -3.6284 -0.6119  2.1793
  154MOL0     H20763  11.321   3.934   4.141 -2.0743  0.4053  0.7078
  154MOL0     H20764  11.467   3.834   4.400 -2.7889  0.2002 -0.0769
  154MOL0     H20765  11.484   3.753   4.253  2.7053 -0.5819  2.9104
  154MOL0     H20766  11.620   3.991   4.338 -1.4831  0.1855  0.1594
  154MOL0     H20767  11.576   4.006   4.169  0.3855  0.3287 -0.4955
  154MOL0     H20768  11.799   3.903   4.206 -0.2106 -0.4269  1.9183
  154MOL0     H20769  11.731   3.755   4.254 -3.6226 -0.4529 -1.4214
  154MOL0     H20770  11.085   4.238   4.368 -1.2929 -1.2825 -2.1335
  154MOL0     H20771  11.055   4.410   4.551  2.1569 -0.8867 -1.5663
  154MOL0     H20772  10.667   4.683   4.761  2.9891 -0.2458 -1.6441
  154MOL0     H20773  10.615   4.840   4.919  0.3059 -1.6715 -1.7254
  154MOL0     H20774   9.137   4.857   4.691  1.8094 -0.3727  1.8847
  154MOL0     H20775   8.917   4.938   4.621 -1.7895 -1.1916 -2.8706
  154MOL0     H20776   8.498   4.908   4.650  3.0423 -1.6525 -0.0525
  154MOL0     H20777   8.266   4.948   4.622  1.6168  2.3632 -2.1206
  154MOL0     H20778   8.069   5.036   4.513 -0.7381 -0.4610 -0.9328
  154MOL0     H20779   8.033   4.891   4.611  0.3524 -1.1817 -0.4455
  154MOL0     H20780   7.814   4.958   4.543 -3.5777 -2.6248 -2.2451
  154MOL0     H20781   7.861   4.811   4.481  0.4187  0.2256  2.9188
  154MOL0     H20782   7.915   4.959   4.245 -1.4750 -0.6224 -1.1564
  154MOL0     H20783   7.861   5.090   4.343 -0.5558  0.1824  1.5785
  154MOL0     H20784   7.679   4.979   4.188 -2.1119 -1.3081  0.9232
  154MOL0     H20785   7.721   4.830   4.275 -1.2108 -0.6221  0.8686
  154MOL0     H20786   7.438   5.021   4.524 -1.2549 -1.7462 -0.6462
  154MOL0     H20787   8.249   4.744   4.257 -0.0682  1.6533 -1.3960
  154MOL0     H20788   8.422   4.668   4.153  0.7354  0.3613 -1.5452
  154MOL0     H20789   8.587   4.726   4.204 -0.0672 -0.6628 -2.2573
  154MOL0     H20790   8.530   4.581   4.270  4.2328  1.4093  0.7910
  155MOL0     O20791   2.519   5.578   3.834  0.3131  0.1467 -0.2302
  155MOL0     C20792   2.446   5.537   3.739 -0.0292  0.2415  1.2159
  155MOL0     O20793   2.495   5.505   3.606 -0.3792  0.3543 -0.3495
  155MOL0     C20794   2.621   5.499   3.554  0.2862  1.1499 -0.5846
  155MOL0     C20795   2.737   5.515   3.628 -1.1113 -0.3866 -0.0469
  155MOL0     C20796   2.863   5.503   3.568 -0.7959  0.2789  0.0713
  155MOL0     C20797   2.874   5.471   3.431  1.1710  0.0916 -0.4540
  155MOL0     O20798   2.991   5.439   3.375  0.2773 -0.2180  0.1581
  155MOL0     C20799   3.030   5.511   3.253 -0.0318 -0.3698 -0.9649
  155MOL0     C20800   3.120   5.411   3.175 -0.3050  0.3839  0.5712
  155MOL0     C20801   3.258   5.388   3.235 -0.7339  0.8492  0.5149
  155MOL0     C20802   3.360   5.489   3.206  0.3571  0.8141  0.1384
  155MOL0     C20803   3.499   5.440   3.234 -0.0466  0.0828  0.5436
  155MOL0     C20804   3.591   5.554   3.191  0.4119  0.1052  0.1836
  155MOL0     C20805   3.728   5.507   3.203  0.6703 -0.1180 -0.3676
  155MOL0     C20806   3.784   5.559   3.336 -0.2542  0.2344 -0.6551
  155MOL0     N20807   3.933   5.530   3.335  0.0721 -0.6987  1.4169
  155MOL0     C20808   4.025   5.623   3.300  0.1544  0.1149  1.0592
  155MOL0     C20809   4.144   5.553   3.285  1.1307 -0.0546  0.2195
  155MOL0     C20810   4.261   5.617   3.220  0.1827 -0.4394 -1.0271
  155MOL0     C20811   4.358   5.671   3.323 -0.5396 -0.8597  0.8858
  155MOL0     C20812   4.447   5.789   3.271  0.3213 -0.6206  0.2719
  155MOL0     C20813   4.547   5.842   3.377  0.1707  0.3656  0.1932
  155MOL0     O20814   4.646   5.750   3.420  0.1423 -0.2444 -0.3669
  155MOL0     C20815   4.784   5.758   3.408 -0.2988 -0.0682  0.1553
  155MOL0     C20816   4.851   5.887   3.405 -0.0282  0.5228  0.8599
  155MOL0     C20817   4.985   5.895   3.380 -0.1277  0.1645  0.2726
  155MOL0     C20818   5.063   5.780   3.370 -0.0811 -0.3846  0.1074
  155MOL0     C20819   5.214   5.788   3.354  0.9491 -0.6472 -0.1660
  155MOL0     O20820   5.265   5.906   3.311 -0.1011 -0.1554  0.0492
  155MOL0     C20821   5.396   5.926   3.296  0.8762 -0.1354 -0.2177
  155MOL0     C20822   5.481   5.923   3.400  0.0209  0.0560 -0.2102
  155MOL0     C20823   5.617   5.946   3.398  0.2265  0.1571 -0.1432
  155MOL0     C20824   5.676   5.991   3.276 -0.4271  0.9184 -0.2688
  155MOL0     O20825   5.811   6.020   3.280 -0.4693  0.5577 -0.4549
  155MOL0     C20826   5.894   6.061   3.163  0.0958 -0.8311 -1.1297
  155MOL0     C20827   6.036   6.055   3.209  0.7407 -0.2988 -0.2252
  155MOL0     C20828   6.142   6.070   3.102  0.3108  0.1084  0.5805
  155MOL0     C20829   6.280   6.068   3.167 -0.7487  0.0293  0.9290
  155MOL0     C20830   6.390   6.089   3.063  0.2578 -0.3014  0.1186
  155MOL0     C20831   6.516   6.125   3.139 -0.5033 -0.0285  0.5728
  155MOL0     C20832   6.598   6.007   3.194  0.3983 -0.2316 -0.5299
  155MOL0     C20833   6.659   5.899   3.101  0.0801 -0.2799 -0.9786
  155MOL0    Cl20834   6.773   5.979   2.992 -0.3531 -0.3960 -0.0692
  155MOL0     C20835   5.589   5.992   3.167 -0.5728  0.2672 -0.1776
  155MOL0     C20836   5.454   5.967   3.180 -1.2231  0.5952  0.4813
  155MOL0     O20837   5.279   5.693   3.392  0.1061 -0.2986 -0.0350
  155MOL0     C20838   5.003   5.651   3.386  0.4168  0.7932 -0.2689
  155MOL0     C20839   4.860   5.645   3.388  0.8670 -0.3391 -0.3369
  155MOL0     N20840   4.121   5.421   3.321 -0.0291  0.5755  0.1738
  155MOL0     N20841   3.999   5.413   3.354  0.1984  0.2759  0.5607
  155MOL0     C20842   2.755   5.465   3.357 -0.0828 -0.4065 -0.1751
  155MOL0     C20843   2.628   5.475   3.419 -0.3966  0.2872 -0.2441
  155MOL0     C20844   2.306   5.515   3.775  0.1629 -0.0012 -0.2204
  155MOL0     C20845   2.247   5.606   3.863 -0.5445 -1.0196  0.5975
  155MOL0     C20846   2.107   5.598   3.891 -1.4011  0.3757 -0.2305
  155MOL0     C20847   2.027   5.499   3.843 -0.6310 -0.0060  0.8484
  155MOL0     O20848   1.897   5.504   3.885 -0.4926 -0.3277 -0.8049
  155MOL0     C20849   1.803   5.408   3.838  0.4378  0.2674  0.9963
  155MOL0     C20850   1.662   5.455   3.880 -0.0711 -0.2761 -0.0971
  155MOL0     C20851   1.554   5.350   3.823 -0.1143  0.0473 -0.5312
  155MOL0     C20852   1.414   5.410   3.838 -0.0896 -0.0227  1.0183
  155MOL0     C20853   1.292   5.321   3.823 -0.4296  0.4543 -0.3963
  155MOL0     C20854   1.195   5.250   3.799 -0.8105  0.7645  0.3920
  155MOL0     C20855   2.090   5.391   3.771  0.1200 -0.1945 -0.4517
  155MOL0     C20856   2.226   5.404   3.735  0.8114  0.0569  0.5215
  155MOL0     C20857   2.269   5.307   3.629 -0.0429  0.3323 -0.0930
  155MOL0     H20858   2.732   5.532   3.735  0.7809 -0.8069  0.1346
  155MOL0     H20859   2.957   5.500   3.622 -0.9551 -1.1150  0.3281
  155MOL0     H20860   2.946   5.548   3.194 -1.3342 -1.6018  0.0746
  155MOL0     H20861   3.093   5.599   3.270 -0.2177 -0.0622 -1.8161
  155MOL0     H20862   3.128   5.433   3.068  0.1860 -1.0772  0.2858
  155MOL0     H20863   3.074   5.311   3.177 -0.7261  0.4373 -1.9498
  155MOL0     H20864   3.285   5.289   3.198 -1.5015  0.1099  1.8255
  155MOL0     H20865   3.257   5.386   3.345  1.6444  1.3944  0.6029
  155MOL0     H20866   3.340   5.512   3.101 -4.1277 -0.3158  0.5705
  155MOL0     H20867   3.337   5.581   3.261 -0.0997  1.0158 -0.3808
  155MOL0     H20868   3.500   5.418   3.341 -1.9129  0.2581  0.6373
  155MOL0     H20869   3.521   5.351   3.174  4.3756  0.4201  1.3102
  155MOL0     H20870   3.587   5.572   3.083 -0.2088  0.1796  0.2140
  155MOL0     H20871   3.563   5.651   3.233  0.2088  0.3677 -0.5464
  155MOL0     H20872   3.781   5.545   3.115 -1.6657 -0.5541 -2.0577
  155MOL0     H20873   3.741   5.400   3.188  0.9676  0.1292 -2.1626
  155MOL0     H20874   3.760   5.665   3.348  0.8658  0.2628  1.9750
  155MOL0     H20875   3.731   5.509   3.418  1.0077 -0.0104  0.0317
  155MOL0     H20876   4.009   5.730   3.288  1.1694  0.1084 -0.6619
  155MOL0     H20877   4.322   5.550   3.159  1.4525  0.7642 -1.1341
  155MOL0     H20878   4.223   5.699   3.157 -2.9447  0.1459  1.3596
  155MOL0     H20879   4.307   5.705   3.413 -1.3545  2.5035 -0.6916
  155MOL0     H20880   4.414   5.585   3.362  1.4588 -1.8544 -3.5489
  155MOL0     H20881   4.380   5.869   3.239 -1.8166 -2.4503 -0.1114
  155MOL0     H20882   4.502   5.761   3.181 -1.7660 -2.6594 -0.4599
  155MOL0     H20883   4.504   5.893   3.463 -0.9987  2.5865 -1.6179
  155MOL0     H20884   4.596   5.925   3.326  1.5856 -1.6158 -1.8471
  155MOL0     H20885   4.803   5.980   3.433  1.1982  1.5463 -0.3437
  155MOL0     H20886   5.020   5.995   3.359  2.8716 -1.1864 -1.8567
  155MOL0     H20887   5.432   5.889   3.491 -0.2416  1.4112  0.1743
  155MOL0     H20888   5.677   5.939   3.489  0.6259 -0.9714 -0.4804
  155MOL0     H20889   5.889   5.992   3.077  1.3828 -1.7880 -0.4689
  155MOL0     H20890   5.869   6.166   3.144 -1.3754 -1.3556 -2.3817
  155MOL0     H20891   6.038   6.132   3.287 -0.2404  0.7974 -1.2359
  155MOL0     H20892   6.060   5.955   3.247 -1.2841 -0.8516 -0.3222
  155MOL0     H20893   6.140   5.992   3.025  5.5859 -0.7386  0.9186
  155MOL0     H20894   6.119   6.166   3.055 -0.0414 -0.4824 -0.4865
  155MOL0     H20895   6.298   5.974   3.220 -0.4787  0.0492  0.8719
  155MOL0     H20896   6.288   6.143   3.246  1.4869  1.2814 -0.3822
  155MOL0     H20897   6.360   6.171   2.996 -1.3188 -0.7893  0.1805
  155MOL0     H20898   6.416   5.999   3.006  1.9356 -0.7496  1.4949
  155MOL0     H20899   6.581   6.171   3.064 -0.3828 -1.3826 -0.1765
  155MOL0     H20900   6.489   6.201   3.213 -0.4859  0.0414  0.5075
  155MOL0     H20901   6.535   5.959   3.270 -2.8064  3.1342 -0.7543
  155MOL0     H20902   6.678   6.054   3.252  0.0102  2.4106 -1.9947
  155MOL0     H20903   6.705   5.835   3.176 -5.1037 -0.4892  2.5896
  155MOL0     H20904   6.590   5.831   3.051  1.1921 -4.4767  2.5867
  155MOL0     H20905   5.630   6.027   3.072  1.4474 -1.7481 -0.1224
  155MOL0     H20906   5.395   5.973   3.089  3.4198  0.9891 -2.8481
  155MOL0     H20907   5.053   5.555   3.393  0.0668  0.6760  0.8469
  155MOL0     H20908   4.797   5.557   3.403 -1.8845  1.2025 -1.9797
  155MOL0     H20909   2.756   5.443   3.251 -1.3738  1.8807 -0.7261
  155MOL0     H20910   2.540   5.470   3.356 -0.1017 -0.9137 -0.6015
  155MOL0     H20911   2.306   5.687   3.906  0.1157 -1.5112  0.6208
  155MOL0     H20912   2.065   5.678   3.952  1.2635  2.6810 -1.1714
  155MOL0     H20913   1.828   5.311   3.883  0.8533 -0.0151  0.1833
  155MOL0     H20914   1.822   5.394   3.731  0.5317 -0.8036  1.1426
  155MOL0     H20915   1.648   5.558   3.846  1.3669  0.5670  1.7105
  155MOL0     H20916   1.660   5.459   3.989 -0.1651  2.0508 -0.1345
  155MOL0     H20917   1.546   5.256   3.879 -5.2137 -2.4380 -4.5552
  155MOL0     H20918   1.569   5.320   3.719  1.4307 -1.7189  0.1365
  155MOL0     H20919   1.406   5.452   3.939 -3.8657 -1.2344  1.3664
  155MOL0     H20920   1.402   5.495   3.770  0.1311 -0.1777  0.7804
  155MOL0     H20921   1.100   5.201   3.797 -0.1018 -0.6749  0.9839
  155MOL0     H20922   2.035   5.301   3.745  1.0732 -0.1284 -2.9341
  155MOL0     H20923   2.371   5.275   3.652 -0.2733 -0.3160  0.0750
  155MOL0     H20924   2.215   5.213   3.644  1.0607  0.2649  6.3164
  155MOL0     H20925   2.269   5.342   3.525 -0.4184 -2.1155 -0.9963
  156MOL0     O20926   5.361   3.801   2.731 -0.2379 -0.6780  0.4896
  156MOL0     C20927   5.373   3.863   2.625 -0.3005  0.9780  0.0797
  156MOL0     O20928   5.267   3.920   2.556  0.0003 -0.1804 -0.5889
  156MOL0     C20929   5.139   3.896   2.591 -0.0938 -0.3168  0.2517
  156MOL0     C20930   5.087   3.762   2.601 -0.4904  0.0539 -0.0500
  156MOL0     C20931   4.953   3.742   2.624 -0.2554  0.7205 -0.1418
  156MOL0     C20932   4.858   3.840   2.642 -0.1535  0.1609 -0.8259
  156MOL0     O20933   4.729   3.815   2.696 -0.2059  0.0591 -0.0087
  156MOL0     C20934   4.659   3.699   2.649 -0.5297 -0.2654  0.5653
  156MOL0     C20935   4.514   3.736   2.689 -0.0481  0.3716  0.1377
  156MOL0     C20936   4.394   3.659   2.625  0.5299 -0.0394  0.1695
  156MOL0     C20937   4.272   3.740   2.614  0.2633  0.0302  0.2872
  156MOL0     C20938   4.154   3.656   2.568  0.2362 -0.4751 -0.4108
  156MOL0     C20939   4.021   3.719   2.608  0.1384 -0.2971  0.5601
  156MOL0     C20940   3.906   3.627   2.559  0.1572  1.3715  0.5353
  156MOL0     C20941   3.768   3.693   2.584  1.0768 -0.4510 -0.0094
  156MOL0     N20942   3.667   3.641   2.486  0.4200  0.0521  0.1797
  156MOL0     C20943   3.599   3.716   2.400 -0.3820 -1.0877 -0.1056
  156MOL0     C20944   3.512   3.636   2.337 -0.1759  0.3982 -0.1219
  156MOL0     C20945   3.413   3.666   2.233  0.2895 -0.3581  0.3972
  156MOL0     C20946   3.278   3.589   2.234 -0.2307  0.0901 -0.4684
  156MOL0     C20947   3.160   3.657   2.167  0.4062  0.1075  0.3842
  156MOL0     C20948   3.167   3.680   2.015  0.2190  0.3262 -0.7876
  156MOL0     O20949   3.281   3.760   1.989 -0.2391  0.4862  0.0267
  156MOL0     C20950   3.335   3.761   1.864  0.2040 -0.3769 -0.0164
  156MOL0     C20951   3.267   3.710   1.750 -0.5915  0.0032 -0.3011
  156MOL0     C20952   3.333   3.706   1.626 -0.5807  0.0553 -0.0921
  156MOL0     C20953   3.464   3.761   1.605 -0.2017 -0.0348 -0.0519
  156MOL0     C20954   3.522   3.749   1.477 -0.3029  0.3683  0.4939
  156MOL0     O20955   3.471   3.648   1.397  0.3525  0.3580 -0.2609
  156MOL0     C20956   3.513   3.626   1.270 -0.2180  0.3357  0.8344
  156MOL0     C20957   3.569   3.495   1.237  0.4109  0.2145  0.8454
  156MOL0     C20958   3.603   3.470   1.100 -0.4609 -0.3387  0.1418
  156MOL0     C20959   3.604   3.579   1.011 -0.2246  0.4643  0.0824
  156MOL0     O20960   3.626   3.574   0.872  0.0710 -0.0179 -0.2292
  156MOL0     C20961   3.641   3.449   0.802  0.0703 -0.0551 -0.0377
  156MOL0     C20962   3.791   3.423   0.790  0.5302  0.3031  1.2934
  156MOL0     C20963   3.805   3.267   0.774 -0.9078 -0.1717  0.2095
  156MOL0     C20964   3.952   3.240   0.754  0.3021 -0.1572  0.0313
  156MOL0     C20965   3.979   3.086   0.724 -0.7564 -0.6967 -0.8983
  156MOL0     C20966   4.116   3.060   0.671 -0.3052  0.0396  0.7030
  156MOL0     C20967   4.222   3.127   0.760 -0.0170 -0.4802  0.2679
  156MOL0     C20968   4.206   3.066   0.898 -0.4638  0.3830  0.7320
  156MOL0    Cl20969   4.362   3.077   0.980  0.2309  0.2287  0.0889
  156MOL0     C20970   3.556   3.704   1.044 -0.4636 -0.3655 -0.2012
  156MOL0     C20971   3.504   3.730   1.173  0.7961  0.3108  0.5773
  156MOL0     O20972   3.614   3.812   1.452 -0.5731  0.5203  0.0146
  156MOL0     C20973   3.532   3.808   1.724  0.0489 -0.1547  0.5559
  156MOL0     C20974   3.470   3.804   1.847  0.1081 -0.5094  0.0132
  156MOL0     N20975   3.530   3.515   2.398  0.8398 -0.7790 -0.3283
  156MOL0     N20976   3.621   3.514   2.486  0.0267 -1.0069  0.2767
  156MOL0     C20977   4.913   3.973   2.646 -0.5973 -0.3154  0.3442
  156MOL0     C20978   5.047   3.999   2.609 -0.0558  0.2039 -0.6946
  156MOL0     C20979   5.503   3.879   2.565 -0.2372 -0.8141  0.3102
  156MOL0     C20980   5.542   4.003   2.520  0.5821  0.3415  0.4954
  156MOL0     C20981   5.665   4.025   2.466 -0.6009 -0.7807  0.6122
  156MOL0     C20982   5.755   3.917   2.448 -0.0005  0.5594 -0.0393
  156MOL0     O20983   5.885   3.932   2.400  0.1805 -0.1159 -0.4024
  156MOL0     C20984   5.940   4.064   2.373 -0.5262 -0.7218 -1.0835
  156MOL0     C20985   6.083   4.045   2.329 -0.1833  0.7594 -0.3376
  156MOL0     C20986   6.183   3.981   2.418 -0.2939  0.4280  0.5234
  156MOL0     C20987   6.330   4.009   2.381  0.0433  0.1120  0.0345
  156MOL0     C20988   6.373   3.952   2.251  0.2323 -0.2860  0.5814
  156MOL0     C20989   6.417   3.898   2.148  1.0419  0.1844 -0.0914
  156MOL0     C20990   5.707   3.787   2.485 -0.0841  0.2474 -0.8722
  156MOL0     C20991   5.588   3.769   2.552 -0.0579  0.2390  0.7023
  156MOL0     C20992   5.552   3.631   2.601  0.8123 -0.1809 -0.0242
  156MOL0     H20993   5.148   3.673   2.592 -2.5222 -1.2228 -2.8799
  156MOL0     H20994   4.923   3.639   2.640  0.1559  0.3821 -1.4321
  156MOL0     H20995   4.660   3.699   2.540 -0.4773 -1.1388  0.5618
  156MOL0     H20996   4.697   3.608   2.696  0.4079 -1.0132 -1.5496
  156MOL0     H20997   4.509   3.844   2.671  0.7497  0.6218  1.2669
  156MOL0     H20998   4.497   3.723   2.796 -1.3718 -2.6135 -0.3377
  156MOL0     H20999   4.376   3.570   2.686 -1.6823  0.1266 -0.1756
  156MOL0     H21000   4.438   3.637   2.527  3.2188 -1.0001  1.5027
  156MOL0     H21001   4.251   3.780   2.714 -0.9946 -1.5142  0.6845
  156MOL0     H21002   4.296   3.816   2.540 -0.4537  0.7848  0.8100
  156MOL0     H21003   4.164   3.658   2.459 -4.0299 -2.7645 -1.0314
  156MOL0     H21004   4.155   3.554   2.606 -0.3255 -0.8725 -1.4320
  156MOL0     H21005   4.008   3.728   2.716 -1.3474 -1.9175  0.5754
  156MOL0     H21006   4.021   3.814   2.555  1.1780  0.5231  1.9862
  156MOL0     H21007   3.907   3.533   2.614 -0.4307 -0.2731 -2.1008
  156MOL0     H21008   3.914   3.597   2.455 -0.3467 -1.2521  1.1721
  156MOL0     H21009   3.732   3.679   2.686 -1.4320  0.1391 -0.7254
  156MOL0     H21010   3.769   3.802   2.570 -1.5631 -0.3217  0.2097
  156MOL0     H21011   3.620   3.822   2.391  0.1765 -1.3428 -2.1430
  156MOL0     H21012   3.397   3.774   2.241 -2.1431 -0.5730 -0.6594
  156MOL0     H21013   3.448   3.664   2.129 -3.8818  1.3852 -1.2548
  156MOL0     H21014   3.301   3.492   2.190 -0.8343 -0.9575  1.4067
  156MOL0     H21015   3.256   3.573   2.340  1.6475 -1.8667 -0.3060
  156MOL0     H21016   3.144   3.756   2.209  1.8057  0.6548 -0.3187
  156MOL0     H21017   3.073   3.594   2.189  1.9947 -2.3878 -0.0082
  156MOL0     H21018   3.069   3.716   1.983 -0.4837  0.1185  1.0301
  156MOL0     H21019   3.183   3.585   1.962 -2.0587 -0.4789 -0.1415
  156MOL0     H21020   3.167   3.670   1.764 -0.5218  0.4381  1.6569
  156MOL0     H21021   3.268   3.671   1.547  0.0958 -2.1459  0.2536
  156MOL0     H21022   3.581   3.417   1.312  0.2726 -0.7714 -0.1313
  156MOL0     H21023   3.643   3.373   1.076 -0.3787 -0.6237  1.3720
  156MOL0     H21024   3.600   3.366   0.861  0.9062 -1.6221 -1.5400
  156MOL0     H21025   3.586   3.447   0.707  1.5480 -0.7206 -0.9170
  156MOL0     H21026   3.832   3.477   0.704 -1.7126 -0.2863 -0.2403
  156MOL0     H21027   3.844   3.468   0.875  0.5766  1.9650  0.4336
  156MOL0     H21028   3.771   3.221   0.867  0.7122 -0.7476  0.5549
  156MOL0     H21029   3.747   3.232   0.688 -1.0486  0.8345 -0.1185
  156MOL0     H21030   4.002   3.267   0.848 -1.5718 -0.8317  1.2844
  156MOL0     H21031   3.983   3.304   0.671 -0.1797 -0.4590 -0.3849
  156MOL0     H21032   3.919   3.043   0.643  1.9634 -1.8770 -2.4216
  156MOL0     H21033   3.956   3.033   0.817 -2.0252  1.4852  0.1224
  156MOL0     H21034   4.129   2.953   0.654  0.4938 -0.1527  2.3099
  156MOL0     H21035   4.119   3.108   0.573 -3.5090 -1.2904 -0.1696
  156MOL0     H21036   4.229   3.236   0.754  4.0813 -0.4635  2.0789
  156MOL0     H21037   4.315   3.092   0.714 -0.5744 -2.7127  0.7074
  156MOL0     H21038   4.131   3.127   0.950 -1.1026 -0.4731  0.8200
  156MOL0     H21039   4.182   2.960   0.891  1.2972 -0.1370  1.7972
  156MOL0     H21040   3.554   3.793   0.983  5.6620  0.6384  0.3817
  156MOL0     H21041   3.465   3.827   1.202  2.6371  1.4038 -0.4144
  156MOL0     H21042   3.636   3.836   1.712 -0.9563  2.7298 -3.5056
  156MOL0     H21043   3.532   3.842   1.927 -2.1281  2.7858  0.3909
  156MOL0     H21044   4.854   4.058   2.679 -0.3153  0.1976 -0.4589
  156MOL0     H21045   5.096   4.096   2.607 -1.1775  1.1477  4.3526
  156MOL0     H21046   5.472   4.084   2.539  1.8058  1.1468  1.7743
  156MOL0     H21047   5.672   4.132   2.446 -0.8037 -0.3713  2.5105
  156MOL0     H21048   5.961   4.106   2.471 -0.7693  0.8229 -1.6623
  156MOL0     H21049   5.880   4.139   2.320 -0.9538  0.8505  1.4324
  156MOL0     H21050   6.132   4.137   2.294  1.5228  1.6671  3.8648
  156MOL0     H21051   6.080   3.972   2.248 -1.5498 -0.7740  1.0300
  156MOL0     H21052   6.170   3.873   2.423  0.1086  0.3499 -0.0085
  156MOL0     H21053   6.150   4.020   2.515 -2.0910  0.3718 -0.0205
  156MOL0     H21054   6.350   4.116   2.372  1.1140 -0.0104  0.7796
  156MOL0     H21055   6.395   3.968   2.459  3.1343  2.2985 -1.1794
  156MOL0     H21056   6.455   3.838   2.069  2.0632 -1.5464  1.6435
  156MOL0     H21057   5.780   3.710   2.460  0.3300  0.2051  0.4156
  156MOL0     H21058   5.568   3.627   2.709  1.0935  0.8103 -0.0125
  156MOL0     H21059   5.454   3.594   2.569  0.2212 -0.8514  2.3625
  156MOL0     H21060   5.616   3.553   2.560 -1.3522 -3.3457  2.2180
  157MOL0     O21061   4.768   6.504   8.172 -0.3339  0.4550  0.1619
  157MOL0     C21062   4.734   6.388   8.161 -0.1319 -0.2395  0.6967
  157MOL0     O21063   4.814   6.281   8.145 -0.1668 -0.1004 -0.0736
  157MOL0     C21064   4.952   6.307   8.146 -0.3991  0.0399  0.6612
  157MOL0     C21065   5.015   6.366   8.033  0.0134  0.5984 -0.0635
  157MOL0     C21066   5.155   6.395   8.039 -0.8245 -0.1560 -0.0778
  157MOL0     C21067   5.230   6.372   8.156  0.8908 -0.2492 -0.3442
  157MOL0     O21068   5.359   6.407   8.165 -0.2496  0.1926  0.1770
  157MOL0     C21069   5.443   6.380   8.281 -0.3037  0.7800 -0.3885
  157MOL0     C21070   5.574   6.421   8.231 -0.3681 -0.1299 -1.5045
  157MOL0     C21071   5.705   6.386   8.306 -0.6804  0.1018  0.4499
  157MOL0     C21072   5.823   6.445   8.232  0.0082 -0.0392 -0.4183
  157MOL0     C21073   5.960   6.423   8.310  0.6194 -0.4537 -0.0252
  157MOL0     C21074   6.082   6.494   8.246 -0.3420  0.0958 -0.2421
  157MOL0     C21075   6.193   6.495   8.347  0.3659  0.3164 -1.2733
  157MOL0     C21076   6.319   6.566   8.294 -0.0434  0.3969  0.5428
  157MOL0     N21077   6.436   6.557   8.380 -0.1595 -0.7610 -0.2417
  157MOL0     C21078   6.479   6.640   8.484  1.2409  0.6044  0.3974
  157MOL0     C21079   6.590   6.574   8.540 -0.1621  1.0574 -0.5328
  157MOL0     C21080   6.680   6.600   8.663  0.2766 -0.2814 -0.0595
  157MOL0     C21081   6.804   6.660   8.598 -0.4583 -0.5333  0.4572
  157MOL0     C21082   6.911   6.692   8.701 -0.1250 -0.2801  0.0406
  157MOL0     C21083   7.020   6.775   8.646 -0.7729 -1.5676  0.2253
  157MOL0     O21084   7.107   6.811   8.759 -0.0350 -0.1313 -0.4286
  157MOL0     C21085   7.236   6.851   8.752  0.2713 -1.0075 -0.6422
  157MOL0     C21086   7.295   6.897   8.871  1.0397 -0.1339  0.2210
  157MOL0     C21087   7.424   6.949   8.871  0.3658 -0.1203  0.1357
  157MOL0     C21088   7.502   6.951   8.751  0.4331  0.3367 -0.6876
  157MOL0     C21089   7.645   7.009   8.752 -0.5706 -0.0222 -0.1829
  157MOL0     O21090   7.720   6.975   8.648 -0.0268  0.0126  0.4352
  157MOL0     C21091   7.854   6.984   8.632 -0.2603 -0.0835 -0.5789
  157MOL0     C21092   7.911   6.909   8.528 -0.2434 -0.3260 -0.7534
  157MOL0     C21093   8.052   6.911   8.510  0.7185  0.2475 -0.4148
  157MOL0     C21094   8.137   6.978   8.597  0.0129 -0.4515 -0.5152
  157MOL0     O21095   8.270   6.992   8.572  0.2916  0.2770  0.3018
  157MOL0     C21096   8.303   7.016   8.439 -0.2714  0.3729  0.1940
  157MOL0     C21097   8.444   7.072   8.416  1.1701  0.7827  0.7089
  157MOL0     C21098   8.548   6.961   8.438 -1.0016 -0.2966  0.0944
  157MOL0     C21099   8.691   7.021   8.428 -0.0901 -0.0836 -0.4750
  157MOL0     C21100   8.800   6.908   8.428 -0.0285 -0.3854  0.6055
  157MOL0     C21101   8.939   6.978   8.428  0.0236 -0.4155 -0.3050
  157MOL0     C21102   9.043   6.863   8.417  0.3809  0.7273  0.2049
  157MOL0     C21103   9.180   6.910   8.473 -0.2001  0.1390 -0.7836
  157MOL0    Cl21104   9.238   7.037   8.367  0.3426 -0.1021  0.4502
  157MOL0     C21105   8.081   7.056   8.702  0.1649  0.5741 -0.1389
  157MOL0     C21106   7.937   7.053   8.722 -0.2286  0.5237  0.8808
  157MOL0     O21107   7.690   7.058   8.856  0.8277 -0.2008 -0.5058
  157MOL0     C21108   7.441   6.910   8.626 -0.1071 -0.2685 -0.1040
  157MOL0     C21109   7.312   6.856   8.630 -0.4264 -0.5273  0.0952
  157MOL0     N21110   6.624   6.471   8.452 -0.1575 -0.6366 -0.0785
  157MOL0     N21111   6.530   6.464   8.366 -0.9749  0.4813  0.4951
  157MOL0     C21112   5.165   6.316   8.268 -0.3610 -0.1370 -0.2966
  157MOL0     C21113   5.027   6.291   8.263 -0.0982  0.9855 -0.0544
  157MOL0     C21114   4.589   6.373   8.177 -0.5050 -0.3240 -0.0155
  157MOL0     C21115   4.523   6.435   8.291  0.2869  0.1630 -0.3677
  157MOL0     C21116   4.392   6.412   8.326  0.2071 -0.6283  0.0527
  157MOL0     C21117   4.315   6.342   8.241 -0.2915  0.0347  1.5243
  157MOL0     O21118   4.183   6.357   8.269  0.2144  0.1898 -0.4108
  157MOL0     C21119   4.102   6.247   8.218  0.1893 -0.6383  0.2830
  157MOL0     C21120   3.957   6.256   8.277 -0.0076  0.2909 -0.5516
  157MOL0     C21121   3.874   6.357   8.199 -0.5705  0.2048  0.8342
  157MOL0     C21122   3.813   6.319   8.060  0.3906 -0.0927 -0.6382
  157MOL0     C21123   3.722   6.210   8.055  0.3122  0.8318  0.3379
  157MOL0     C21124   3.638   6.116   8.078 -0.3308 -1.0791  1.0419
  157MOL0     C21125   4.373   6.279   8.125 -0.1145  0.0241 -0.1437
  157MOL0     C21126   4.508   6.287   8.095 -1.2054 -0.2458 -0.4012
  157MOL0     C21127   4.564   6.219   7.974  0.1190 -0.6006  0.6385
  157MOL0     H21128   4.955   6.372   7.942 -0.0146 -0.8541 -0.1680
  157MOL0     H21129   5.207   6.433   7.951  1.1244  0.5234  1.3120
  157MOL0     H21130   5.417   6.441   8.368  1.3182  2.4540 -1.0019
  157MOL0     H21131   5.451   6.274   8.304 -0.2208  1.1362  1.3510
  157MOL0     H21132   5.561   6.530   8.236 -2.1051 -0.3687  1.3209
  157MOL0     H21133   5.587   6.381   8.130 -2.5443  0.0474 -1.9034
  157MOL0     H21134   5.715   6.277   8.309  0.0218  0.1140 -0.7411
  157MOL0     H21135   5.715   6.432   8.405 -1.1530  0.1973  0.4557
  157MOL0     H21136   5.837   6.400   8.133 -3.0123  1.0589 -1.4428
  157MOL0     H21137   5.810   6.552   8.214  0.8426  0.1123 -0.1972
  157MOL0     H21138   5.945   6.448   8.415 -0.2742  0.0848 -0.2725
  157MOL0     H21139   5.979   6.315   8.306 -0.0535 -0.6119  0.8393
  157MOL0     H21140   6.114   6.452   8.150  0.7604 -1.0250  0.5907
  157MOL0     H21141   6.054   6.598   8.225 -0.6634 -0.0174 -0.3727
  157MOL0     H21142   6.217   6.396   8.387 -1.6281  0.1246 -0.4023
  157MOL0     H21143   6.167   6.558   8.432 -3.9714 -2.3118 -0.3149
  157MOL0     H21144   6.341   6.514   8.200 -0.5915  0.4502  0.3827
  157MOL0     H21145   6.305   6.670   8.263 -0.9939  0.2084  0.2992
  157MOL0     H21146   6.443   6.734   8.526  1.2869  0.2164  1.3328
  157MOL0     H21147   6.629   6.670   8.730 -2.6622 -4.2999  2.3589
  157MOL0     H21148   6.708   6.515   8.726 -2.0671 -0.0615  1.4055
  157MOL0     H21149   6.828   6.591   8.517 -0.8681 -0.3939  0.2131
  157MOL0     H21150   6.782   6.756   8.549 -0.4919 -1.0867 -0.6346
  157MOL0     H21151   6.957   6.602   8.745 -1.1717 -0.7997  0.1068
  157MOL0     H21152   6.858   6.751   8.776  0.6348  0.5940 -0.0995
  157MOL0     H21153   6.977   6.862   8.594 -0.3080 -1.5970 -0.2234
  157MOL0     H21154   7.083   6.717   8.576  0.2833  1.6623 -1.7369
  157MOL0     H21155   7.241   6.904   8.964 -0.9377  1.2869 -0.9323
  157MOL0     H21156   7.472   7.000   8.954  3.0622  1.2768 -2.1015
  157MOL0     H21157   7.849   6.858   8.455  0.1519  0.7101 -1.8364
  157MOL0     H21158   8.104   6.841   8.445 -1.6535 -0.1421 -2.0022
  157MOL0     H21159   8.300   6.927   8.375 -1.3177  1.5411 -1.4673
  157MOL0     H21160   8.231   7.087   8.397  0.2518  1.3789  0.9616
  157MOL0     H21161   8.441   7.117   8.316 -0.2003  0.1026  0.4157
  157MOL0     H21162   8.445   7.157   8.484  1.6560  0.5577  0.9824
  157MOL0     H21163   8.530   6.927   8.540 -0.2188  3.0443  1.4736
  157MOL0     H21164   8.530   6.890   8.357 -1.5955  0.4474 -0.4360
  157MOL0     H21165   8.709   7.092   8.508  1.2078 -1.1499  0.2194
  157MOL0     H21166   8.704   7.073   8.333  3.1565  2.4803  1.1829
  157MOL0     H21167   8.782   6.852   8.336  0.7844 -1.1884  0.9281
  157MOL0     H21168   8.775   6.845   8.514 -0.3538 -1.8970 -0.5708
  157MOL0     H21169   8.958   7.060   8.357 -0.0012 -0.6500 -0.5830
  157MOL0     H21170   8.949   7.025   8.527 -1.5298  1.8331 -1.1144
  157MOL0     H21171   9.056   6.833   8.313  2.7234  0.9056  0.3735
  157MOL0     H21172   9.002   6.778   8.473 -1.9242  1.5676 -0.0965
  157MOL0     H21173   9.160   6.951   8.572  0.0621 -0.6015 -0.4167
  157MOL0     H21174   9.249   6.827   8.491  0.0883  0.5093 -0.1814
  157MOL0     H21175   8.155   7.098   8.770  0.9050 -1.4589  0.4054
  157MOL0     H21176   7.899   7.120   8.798  0.7158  4.4607 -1.7794
  157MOL0     H21177   7.496   6.916   8.533  0.5341  0.2991  0.2965
  157MOL0     H21178   7.270   6.820   8.536 -1.1476  1.6142 -0.4735
  157MOL0     H21179   5.230   6.296   8.352  2.2853 -1.9557 -2.6011
  157MOL0     H21180   4.966   6.269   8.350 -1.7335  4.0742 -0.2792
  157MOL0     H21181   4.582   6.509   8.344  0.8897  1.0772 -2.2195
  157MOL0     H21182   4.361   6.474   8.410  0.0729 -2.1806  1.2111
  157MOL0     H21183   4.133   6.144   8.234 -4.4616 -1.7741  4.4683
  157MOL0     H21184   4.102   6.276   8.113  1.0544  4.0691  1.3381
  157MOL0     H21185   3.966   6.292   8.380 -0.0520 -1.5178  0.1264
  157MOL0     H21186   3.900   6.164   8.293  1.9973 -0.5834  2.4637
  157MOL0     H21187   3.940   6.444   8.200 -1.5478  0.9570  1.5201
  157MOL0     H21188   3.801   6.397   8.269  2.0951  2.4056  2.5627
  157MOL0     H21189   3.748   6.404   8.034 -1.1587 -1.9406 -3.3837
  157MOL0     H21190   3.889   6.307   7.982  3.5279  1.2243  1.9940
  157MOL0     H21191   3.567   6.039   8.098 -1.9779  0.1363  0.1416
  157MOL0     H21192   4.308   6.223   8.059 -0.6502 -0.3514  0.6805
  157MOL0     H21193   4.632   6.276   7.909 -1.9699  2.8184  1.2367
  157MOL0     H21194   4.612   6.124   8.002 -0.2204 -2.0031 -2.9984
  157MOL0     H21195   4.486   6.186   7.905  0.2175  0.9770 -0.2652
  158MOL0     O21196   7.477   8.467   7.723 -0.7524 -0.1760 -0.4849
  158MOL0     C21197   7.403   8.490   7.632 -0.4832  0.3667  0.0548
  158MOL0     O21198   7.420   8.594   7.538 -0.9171  0.4965 -0.2344
  158MOL0     C21199   7.544   8.658   7.525  0.9427 -0.0607  0.1275
  158MOL0     C21200   7.567   8.708   7.392  0.3717  0.6100  0.0764
  158MOL0     C21201   7.688   8.773   7.372 -0.2164  0.0005 -0.2283
  158MOL0     C21202   7.778   8.805   7.472 -0.3028  0.4078 -0.3685
  158MOL0     O21203   7.898   8.863   7.436  0.6002 -0.7053  0.4505
  158MOL0     C21204   8.013   8.797   7.480 -0.0082 -0.3854  0.6950
  158MOL0     C21205   8.134   8.884   7.440  0.1935  0.1316 -0.9485
  158MOL0     C21206   8.269   8.846   7.502  0.1060 -0.0555 -0.3631
  158MOL0     C21207   8.341   8.735   7.423 -0.1036 -0.4313 -0.4232
  158MOL0     C21208   8.474   8.693   7.481  1.0253 -0.7715  0.5998
  158MOL0     C21209   8.450   8.625   7.618  0.3153  0.2912 -0.0099
  158MOL0     C21210   8.564   8.545   7.683 -0.1275  0.7276 -0.3866
  158MOL0     C21211   8.551   8.526   7.834 -0.1443 -0.5002  0.3266
  158MOL0     N21212   8.640   8.429   7.884 -0.0286 -0.8081  0.5946
  158MOL0     C21213   8.773   8.451   7.900  0.8297  0.3547  0.0953
  158MOL0     C21214   8.828   8.326   7.924  0.2099 -0.0217  0.1437
  158MOL0     C21215   8.970   8.298   7.950  0.3852  1.8343 -0.3088
  158MOL0     C21216   8.997   8.262   8.098  0.5094 -1.0835  0.3597
  158MOL0     C21217   9.132   8.204   8.134 -0.3637  0.1463  0.3168
  158MOL0     C21218   9.247   8.282   8.079 -0.2811 -0.2818  0.8834
  158MOL0     O21219   9.268   8.244   7.943  0.3941 -1.2367 -0.3263
  158MOL0     C21220   9.365   8.307   7.875 -0.1169  0.1849  0.5481
  158MOL0     C21221   9.378   8.257   7.747 -0.2658 -0.0169 -1.2365
  158MOL0     C21222   9.477   8.306   7.661 -0.2770 -0.2248 -0.7742
  158MOL0     C21223   9.560   8.410   7.711  0.2195 -0.6299 -0.2479
  158MOL0     C21224   9.656   8.477   7.617 -0.8835 -0.2364 -0.5203
  158MOL0     O21225   9.623   8.473   7.482 -0.0669  0.1109 -0.1361
  158MOL0     C21226   9.708   8.523   7.387  0.1213 -0.5013  0.2770
  158MOL0     C21227   9.843   8.505   7.387  0.4820  0.7338 -0.4865
  158MOL0     C21228   9.923   8.561   7.298 -0.6104 -0.4917  1.6552
  158MOL0     C21229   9.867   8.642   7.194  0.1359 -0.3116  0.2155
  158MOL0     O21230   9.949   8.706   7.101 -0.6033  0.1779  0.0087
  158MOL0     C21231  10.084   8.733   7.140 -0.4833  0.0283 -0.2005
  158MOL0     C21232  10.155   8.820   7.035  0.2187  0.2000 -0.5207
  158MOL0     C21233  10.199   8.742   6.897 -1.2209 -1.0073  0.1682
  158MOL0     C21234  10.259   8.839   6.792 -1.3606 -0.1970  0.6205
  158MOL0     C21235  10.304   8.744   6.674 -0.3821 -0.3999  0.2799
  158MOL0     C21236  10.382   8.814   6.560 -0.2661 -0.5549 -0.2939
  158MOL0     C21237  10.324   8.949   6.517  0.1774 -0.1264 -0.3114
  158MOL0     C21238  10.405   8.992   6.399 -0.8110  0.4150  0.1143
  158MOL0    Cl21239  10.388   9.167   6.347 -0.1870 -0.0458 -0.0706
  158MOL0     C21240   9.734   8.660   7.192 -0.3411  0.7475 -0.2013
  158MOL0     C21241   9.655   8.607   7.289  0.9027 -0.3142  0.4294
  158MOL0     O21242   9.748   8.542   7.665 -0.0058  0.8540 -0.4137
  158MOL0     C21243   9.551   8.456   7.844  0.1531 -0.0966  0.4959
  158MOL0     C21244   9.456   8.402   7.922 -0.7224  0.3156 -0.5225
  158MOL0     N21245   8.722   8.237   7.922  1.1010  0.1626 -0.1785
  158MOL0     N21246   8.602   8.299   7.906 -0.5291  0.0752 -0.6096
  158MOL0     C21247   7.752   8.758   7.597  0.6571 -0.2060 -0.0674
  158MOL0     C21248   7.634   8.681   7.627 -0.1056  0.2516  0.1625
  158MOL0     C21249   7.277   8.408   7.605  0.1655  0.1990  0.6006
  158MOL0     C21250   7.239   8.386   7.476 -0.5814  0.2730  0.0137
  158MOL0     C21251   7.121   8.322   7.445 -0.4079  0.2951  0.5195
  158MOL0     C21252   7.035   8.259   7.542 -0.3114 -0.0934 -0.3326
  158MOL0     O21253   6.925   8.175   7.519 -0.0158 -0.4075 -0.1230
  158MOL0     C21254   6.899   8.137   7.383  0.0256  0.0262 -0.2294
  158MOL0     C21255   6.782   8.031   7.365  0.4152  0.6905  0.2520
  158MOL0     C21256   6.643   8.087   7.409 -0.5340  0.3045  1.0842
  158MOL0     C21257   6.612   8.217   7.333  0.4736 -0.1566 -0.2320
  158MOL0     C21258   6.476   8.206   7.283  0.2993  0.0662  0.6117
  158MOL0     C21259   6.367   8.199   7.223 -0.0907 -0.1730 -0.9572
  158MOL0     C21260   7.069   8.287   7.676 -1.3089 -0.2100  0.1838
  158MOL0     C21261   7.180   8.370   7.702 -0.9061  0.1003  0.8490
  158MOL0     C21262   7.201   8.407   7.841  0.1332  0.4616 -0.2388
  158MOL0     H21263   7.502   8.692   7.307  4.0155  2.5308 -3.4525
  158MOL0     H21264   7.727   8.798   7.274  0.3317  2.5927  0.5777
  158MOL0     H21265   8.013   8.783   7.589 -1.1150 -0.3498  0.7193
  158MOL0     H21266   8.022   8.698   7.433 -1.7628  0.1696 -0.9290
  158MOL0     H21267   8.105   8.979   7.488  1.1303  0.5708 -1.2220
  158MOL0     H21268   8.140   8.904   7.333  2.4881  1.2774 -0.6809
  158MOL0     H21269   8.251   8.808   7.603 -0.2753  0.8882 -0.0637
  158MOL0     H21270   8.330   8.937   7.505 -0.1974  0.1598 -0.6177
  158MOL0     H21271   8.278   8.647   7.408 -3.9457  1.8979  0.7432
  158MOL0     H21272   8.349   8.773   7.321 -2.6028  3.2929  0.5940
  158MOL0     H21273   8.510   8.610   7.420  1.0645  0.1424 -0.6667
  158MOL0     H21274   8.547   8.775   7.477  0.0711  0.0976  0.7436
  158MOL0     H21275   8.431   8.716   7.676  0.9029 -0.4624  1.4233
  158MOL0     H21276   8.355   8.571   7.618  0.5078 -0.1190 -1.8610
  158MOL0     H21277   8.659   8.598   7.676  2.1962 -2.7771  1.3427
  158MOL0     H21278   8.563   8.448   7.633 -2.4426  0.4654  0.0543
  158MOL0     H21279   8.571   8.628   7.870 -0.0602 -0.1265 -0.7677
  158MOL0     H21280   8.447   8.502   7.859 -0.3761  1.4878  1.5420
  158MOL0     H21281   8.818   8.550   7.906 -0.4537  1.0095 -0.4841
  158MOL0     H21282   9.004   8.212   7.890 -1.1665  0.4306  0.7397
  158MOL0     H21283   9.033   8.380   7.915 -0.6281  2.9340  0.4182
  158MOL0     H21284   8.985   8.355   8.155  2.3584 -1.7647  1.9719
  158MOL0     H21285   8.932   8.180   8.131 -0.7003 -0.0928  0.5038
  158MOL0     H21286   9.130   8.101   8.097 -1.9568 -0.2908  1.5189
  158MOL0     H21287   9.135   8.189   8.243  1.7865 -1.2627  0.1300
  158MOL0     H21288   9.334   8.261   8.141  2.7988  0.8760 -2.6452
  158MOL0     H21289   9.233   8.390   8.082  0.7672 -0.1644  2.6103
  158MOL0     H21290   9.326   8.162   7.732  0.2856 -0.6294  0.5031
  158MOL0     H21291   9.484   8.274   7.558 -0.3290  2.3472 -1.6597
  158MOL0     H21292   9.887   8.447   7.468 -0.0450  1.2114  0.1570
  158MOL0     H21293  10.026   8.528   7.307  0.3166  1.9909  0.7754
  158MOL0     H21294  10.086   8.773   7.242  0.4901 -2.7282  0.9415
  158MOL0     H21295  10.146   8.643   7.148  1.6320  1.5506  3.2088
  158MOL0     H21296  10.094   8.907   7.010  0.5402  0.6175  0.1180
  158MOL0     H21297  10.241   8.858   7.091 -1.0056 -1.5277  2.7825
  158MOL0     H21298  10.277   8.673   6.928  0.9025  2.5128  3.5610
  158MOL0     H21299  10.110   8.694   6.855 -1.9003  1.4208 -1.4168
  158MOL0     H21300  10.346   8.886   6.838 -2.0873 -0.4309  2.3304
  158MOL0     H21301  10.181   8.911   6.768 -0.4484  0.6029  0.0044
  158MOL0     H21302  10.217   8.698   6.625 -1.8938  3.2794 -0.8307
  158MOL0     H21303  10.368   8.662   6.709 -0.7986 -0.6723  0.4235
  158MOL0     H21304  10.486   8.818   6.595 -0.4645 -1.5465  0.4394
  158MOL0     H21305  10.389   8.756   6.468 -0.1805  0.9256 -1.2595
  158MOL0     H21306  10.341   9.027   6.591  0.7196 -0.7925  0.2852
  158MOL0     H21307  10.218   8.946   6.487  0.4162 -1.2456 -1.1198
  158MOL0     H21308  10.510   8.971   6.421 -1.5278 -1.2172  2.3939
  158MOL0     H21309  10.364   8.939   6.313 -0.5227  0.2319  0.0894
  158MOL0     H21310   9.683   8.725   7.121 -1.7381  1.4490  1.3922
  158MOL0     H21311   9.548   8.626   7.292  0.8758  0.5988 -2.8074
  158MOL0     H21312   9.622   8.526   7.886  0.5150  0.3059 -0.7330
  158MOL0     H21313   9.458   8.430   8.027  0.8160 -0.0357 -0.4481
  158MOL0     H21314   7.818   8.781   7.680  0.6488 -2.7998  0.7277
  158MOL0     H21315   7.626   8.637   7.725 -0.4205 -0.4511 -0.1716
  158MOL0     H21316   7.302   8.429   7.398 -1.4614  1.1079 -0.2578
  158MOL0     H21317   7.085   8.325   7.343 -0.2522  0.6856  0.4757
  158MOL0     H21318   6.988   8.089   7.340 -0.3813 -0.3783 -0.6353
  158MOL0     H21319   6.872   8.222   7.320  4.4192  1.6947 -0.1729
  158MOL0     H21320   6.804   7.940   7.422  0.9197  0.3093 -0.5334
  158MOL0     H21321   6.772   8.006   7.259  2.6302  2.0783 -0.3407
  158MOL0     H21322   6.645   8.113   7.515  0.2871 -1.5188  1.5601
  158MOL0     H21323   6.560   8.017   7.397 -0.9477  0.9792 -0.2505
  158MOL0     H21324   6.629   8.301   7.401 -1.5295 -0.8954  1.2760
  158MOL0     H21325   6.686   8.239   7.255 -0.5405  1.2758 -0.8380
  158MOL0     H21326   6.274   8.178   7.175  0.5892 -3.7908 -0.9258
  158MOL0     H21327   7.019   8.231   7.754 -1.7038 -2.2999 -1.4911
  158MOL0     H21328   7.103   8.427   7.885 -0.8239 -1.5490 -1.3062
  158MOL0     H21329   7.237   8.315   7.887  2.7795  0.8500 -1.3338
  158MOL0     H21330   7.257   8.496   7.871 -2.0770  1.3819  1.4087
  159MOL0     O21331   5.988  10.633   3.539  0.3773  0.2456  0.5955
  159MOL0     C21332   5.998  10.749   3.562 -0.6036  0.3937  0.0377
  159MOL0     O21333   6.102  10.809   3.629  0.4485 -1.2109  0.6443
  159MOL0     C21334   6.221  10.741   3.641 -0.3328  0.8113  0.6635
  159MOL0     C21335   6.307  10.761   3.749  0.5878 -1.0423  0.1167
  159MOL0     C21336   6.438  10.709   3.749 -0.7800 -1.1447  0.7398
  159MOL0     C21337   6.488  10.624   3.656 -1.0487 -0.2859  0.1058
  159MOL0     O21338   6.619  10.588   3.663  1.0280 -0.4586  0.4454
  159MOL0     C21339   6.677  10.521   3.554 -0.9136  0.5698  0.5316
  159MOL0     C21340   6.733  10.387   3.585  0.5192 -0.0677  0.5217
  159MOL0     C21341   6.856  10.366   3.497 -0.5128  0.5955  0.2358
  159MOL0     C21342   6.931  10.229   3.537  0.3885 -0.7263 -0.7285
  159MOL0     C21343   7.074  10.226   3.479  0.3396 -0.5339  0.4920
  159MOL0     C21344   7.130  10.090   3.516  0.0761  1.4341  0.4260
  159MOL0     C21345   7.266  10.062   3.450 -0.5829 -0.0942  0.4206
  159MOL0     C21346   7.329   9.924   3.483  0.6365  0.0821  0.8489
  159MOL0     N21347   7.457   9.915   3.417  0.3856 -0.1136 -0.2562
  159MOL0     C21348   7.483   9.839   3.309  0.2723  0.7364 -0.6962
  159MOL0     C21349   7.610   9.870   3.288 -0.7455  0.4382 -0.3233
  159MOL0     C21350   7.692   9.832   3.158 -0.2190  0.7571 -0.0451
  159MOL0     C21351   7.691   9.956   3.076  0.9696 -0.3623 -1.3662
  159MOL0     C21352   7.723   9.909   2.937  0.1135 -0.1733 -0.3973
  159MOL0     C21353   7.759  10.029   2.845  0.0608  0.0055 -0.6900
  159MOL0     O21354   7.897  10.063   2.869  0.7724  0.3412  0.2060
  159MOL0     C21355   7.990  10.023   2.781  0.8058  0.2682  0.2185
  159MOL0     C21356   7.977   9.916   2.690  0.2759 -1.0536 -0.2784
  159MOL0     C21357   8.076   9.885   2.606 -0.4405  0.1047  0.1436
  159MOL0     C21358   8.197   9.953   2.609 -0.1031 -0.8340 -0.9717
  159MOL0     C21359   8.308   9.907   2.527  0.4201  0.1155 -0.5256
  159MOL0     O21360   8.430   9.960   2.577  0.1859  0.9537  0.0210
  159MOL0     C21361   8.552   9.921   2.526  0.0220  0.2965 -0.2241
  159MOL0     C21362   8.590   9.805   2.452  0.3969 -0.6007 -0.0471
  159MOL0     C21363   8.722   9.789   2.405  0.2585  0.4002  0.4441
  159MOL0     C21364   8.823   9.877   2.446 -0.2497 -0.4648  0.0654
  159MOL0     O21365   8.946   9.856   2.407 -0.7852  0.4885 -0.1614
  159MOL0     C21366   9.053   9.956   2.431 -0.1824 -0.0914 -0.3473
  159MOL0     C21367   9.176   9.933   2.341  0.5612  0.3124 -0.8078
  159MOL0     C21368   9.307   9.981   2.398 -0.5359  0.2178 -0.1366
  159MOL0     C21369   9.417   9.994   2.296  0.2266 -0.0014  0.1067
  159MOL0     C21370   9.556   9.976   2.363  0.6828  0.4535  1.0555
  159MOL0     C21371   9.592  10.083   2.468 -0.0780 -0.7783  0.2515
  159MOL0     C21372   9.750  10.099   2.493 -0.1164  0.0249 -0.6175
  159MOL0     C21373   9.773  10.217   2.582 -0.2944  0.1684  0.2015
  159MOL0    Cl21374   9.763  10.361   2.484 -0.3197 -0.0822 -0.2419
  159MOL0     C21375   8.784   9.985   2.529 -0.1332  0.2516 -0.0438
  159MOL0     C21376   8.654  10.006   2.570  0.9794 -0.0859 -0.3172
  159MOL0     O21377   8.289   9.809   2.461 -0.0023 -0.7263  0.8081
  159MOL0     C21378   8.207  10.064   2.702 -0.2392 -0.1833  0.1472
  159MOL0     C21379   8.106  10.098   2.786 -0.1401  0.9295 -0.7109
  159MOL0     N21380   7.670   9.956   3.378 -0.4984 -0.7726  0.0093
  159MOL0     N21381   7.572   9.984   3.450 -0.8282 -0.5438  0.6162
  159MOL0     C21382   6.400  10.586   3.556  0.0891 -1.0435 -0.1806
  159MOL0     C21383   6.269  10.643   3.546 -0.1115  0.8746  0.0003
  159MOL0     C21384   5.893  10.845   3.523  0.4874 -0.4022 -0.0452
  159MOL0     C21385   5.864  10.946   3.610 -0.7237  0.3249 -0.6201
  159MOL0     C21386   5.756  11.031   3.583  0.2444  0.8458  0.0880
  159MOL0     C21387   5.682  11.020   3.462 -0.0309  0.5068  0.8588
  159MOL0     O21388   5.584  11.101   3.439  0.4755 -0.0687  0.1541
  159MOL0     C21389   5.491  11.073   3.328  0.9435  0.3730 -0.4447
  159MOL0     C21390   5.358  11.136   3.339  0.1702 -0.3727  0.0892
  159MOL0     C21391   5.265  11.100   3.218  0.1107  0.8244 -0.5926
  159MOL0     C21392   5.326  11.102   3.073 -0.5106  0.0990  0.1821
  159MOL0     C21393   5.211  11.088   2.976 -0.7093  0.3360 -0.6694
  159MOL0     C21394   5.111  11.064   2.909 -0.1458  0.0256 -0.1586
  159MOL0     C21395   5.723  10.927   3.364 -0.1930 -0.6788  0.6139
  159MOL0     C21396   5.834  10.839   3.394 -0.4192  0.2299  0.2470
  159MOL0     C21397   5.867  10.740   3.293 -0.5295  0.9050 -0.6850
  159MOL0     H21398   6.261  10.824   3.825  0.6252 -1.5556  0.5759
  159MOL0     H21399   6.497  10.744   3.833 -0.2647 -1.0372  0.3389
  159MOL0     H21400   6.618  10.512   3.462 -1.7091 -0.2342  1.1013
  159MOL0     H21401   6.768  10.572   3.520 -0.3066 -2.3132 -2.8029
  159MOL0     H21402   6.660  10.309   3.563 -2.4698  2.0849  2.1579
  159MOL0     H21403   6.758  10.382   3.692 -0.4987  1.1476  0.8446
  159MOL0     H21404   6.931  10.446   3.489  0.8540 -0.7194 -0.5542
  159MOL0     H21405   6.821  10.356   3.394 -0.2343  2.0194 -0.0192
  159MOL0     H21406   6.952  10.225   3.644  0.0716 -1.7727 -0.6993
  159MOL0     H21407   6.865  10.147   3.507 -1.5476  0.3680  0.3848
  159MOL0     H21408   7.067  10.245   3.371 -0.3652 -0.7636  0.4911
  159MOL0     H21409   7.130  10.300   3.537  2.5328 -1.6001 -0.1530
  159MOL0     H21410   7.136  10.092   3.625 -0.0218 -1.3698  0.5641
  159MOL0     H21411   7.062  10.011   3.484  0.4519  1.2799 -0.0089
  159MOL0     H21412   7.330  10.149   3.466 -0.5726 -0.1712  0.8108
  159MOL0     H21413   7.251  10.051   3.342  0.4849 -0.9481  0.3478
  159MOL0     H21414   7.353   9.915   3.589 -2.0331 -1.9934  1.4073
  159MOL0     H21415   7.265   9.839   3.457 -0.0866  0.4647  1.3350
  159MOL0     H21416   7.413   9.793   3.240  2.9630 -1.6318 -2.0447
  159MOL0     H21417   7.793   9.794   3.174  0.9928  2.1794 -3.3712
  159MOL0     H21418   7.646   9.744   3.112  3.4588 -1.8220  0.7806
  159MOL0     H21419   7.588   9.992   3.068  0.2204 -1.6016  1.5152
  159MOL0     H21420   7.756  10.029   3.126 -1.8387  1.3063  0.0794
  159MOL0     H21421   7.629   9.872   2.895  0.5788  0.8314 -2.4347
  159MOL0     H21422   7.806   9.837   2.937  1.1371  0.9745 -0.7985
  159MOL0     H21423   7.699  10.119   2.863 -0.8415 -0.2569 -2.2377
  159MOL0     H21424   7.734  10.003   2.742 -2.1785  0.2234 -0.2572
  159MOL0     H21425   7.884   9.860   2.693 -0.9021  0.7473 -1.3011
  159MOL0     H21426   8.061   9.804   2.535  1.8560  0.4091 -0.7878
  159MOL0     H21427   8.514   9.732   2.430 -0.4391  0.0904  0.4983
  159MOL0     H21428   8.751   9.702   2.348 -3.5411  0.6941 -2.3176
  159MOL0     H21429   9.015  10.056   2.410 -0.4325 -0.1700 -0.2737
  159MOL0     H21430   9.077   9.938   2.537  1.3200 -2.6291 -1.0161
  159MOL0     H21431   9.184   9.824   2.331 -1.9467 -0.1095  0.7452
  159MOL0     H21432   9.172   9.975   2.240  1.4187  2.9755  0.1786
  159MOL0     H21433   9.302  10.075   2.453  3.2139  0.4354  0.1065
  159MOL0     H21434   9.334   9.908   2.476 -1.7691  0.4393  0.5188
  159MOL0     H21435   9.415  10.091   2.245 -4.0415 -0.6646 -1.3678
  159MOL0     H21436   9.405   9.922   2.215  0.9133 -0.8016  0.6896
  159MOL0     H21437   9.633   9.979   2.285  2.1472 -0.2236  2.4268
  159MOL0     H21438   9.552   9.876   2.406 -1.0285  0.8743  1.9534
  159MOL0     H21439   9.545  10.173   2.427  0.6409 -1.3946 -2.0452
  159MOL0     H21440   9.540  10.070   2.564 -0.0667  0.5659  0.4574
  159MOL0     H21441   9.804  10.101   2.397 -2.7635  1.3866 -2.1950
  159MOL0     H21442   9.790  10.010   2.544  2.3852  1.6015  0.3555
  159MOL0     H21443   9.704  10.216   2.667  0.6022 -1.6662  0.9697
  159MOL0     H21444   9.874  10.205   2.622 -0.5679  1.4083  1.3222
  159MOL0     H21445   8.851  10.055   2.578 -0.4567 -0.4490  1.4337
  159MOL0     H21446   8.619  10.086   2.635 -0.9721 -1.6121  0.5995
  159MOL0     H21447   8.302  10.116   2.710 -0.3777 -0.0671  1.3184
  159MOL0     H21448   8.123  10.179   2.857  0.6983 -1.4014  1.9392
  159MOL0     H21449   6.426  10.504   3.490  2.0822 -1.0879  0.5897
  159MOL0     H21450   6.207  10.604   3.466 -0.1269 -0.0730  0.4577
  159MOL0     H21451   5.917  10.958   3.704  1.1962  0.9211 -1.7103
  159MOL0     H21452   5.719  11.106   3.652 -1.6880  1.1074 -1.1537
  159MOL0     H21453   5.477  10.966   3.306  1.8123  0.5651 -2.1339
  159MOL0     H21454   5.537  11.106   3.234 -2.9678  0.5188 -2.4936
  159MOL0     H21455   5.366  11.245   3.349 -1.3335 -0.1738 -0.5150
  159MOL0     H21456   5.307  11.107   3.432 -1.6102  2.2393  0.0504
  159MOL0     H21457   5.173  11.159   3.227 -1.1904 -0.7877 -2.3213
  159MOL0     H21458   5.239  10.994   3.229  1.0943  0.4918 -1.3136
  159MOL0     H21459   5.381  11.196   3.062  0.3894 -0.2880  1.1164
  159MOL0     H21460   5.401  11.026   3.049 -1.7165 -0.7149 -1.1328
  159MOL0     H21461   5.018  11.041   2.861  0.1209  1.3620 -1.3744
  159MOL0     H21462   5.684  10.923   3.263  1.4018  0.8836 -0.1228
  159MOL0     H21463   5.975  10.736   3.275 -0.8340  2.0791 -3.2562
  159MOL0     H21464   5.825  10.641   3.310 -0.2183  0.8071 -0.4713
  159MOL0     H21465   5.830  10.779   3.198 -2.2048  0.9906 -0.0258
  160MOL0     O21466   5.110   2.462   1.009 -1.0803  0.0368  0.7995
  160MOL0     C21467   5.189   2.401   1.083 -0.2368 -0.1512  0.1363
  160MOL0     O21468   5.201   2.424   1.212 -0.2387 -0.5129  0.3196
  160MOL0     C21469   5.103   2.488   1.278 -0.2843 -0.5867  0.2456
  160MOL0     C21470   4.979   2.426   1.300  0.3014 -0.0239 -0.6955
  160MOL0     C21471   4.880   2.502   1.368 -0.1270 -1.3177  0.2684
  160MOL0     C21472   4.896   2.641   1.396 -0.2240  0.1870 -0.5583
  160MOL0     O21473   4.812   2.728   1.458 -0.0337  0.5928  0.0371
  160MOL0     C21474   4.689   2.672   1.510 -0.4714 -0.2355 -0.5935
  160MOL0     C21475   4.606   2.785   1.570  0.5672 -0.2563 -1.0843
  160MOL0     C21476   4.517   2.849   1.459  0.0646  0.9062  0.3880
  160MOL0     C21477   4.474   2.985   1.500 -0.8828  0.4362  0.2948
  160MOL0     C21478   4.386   3.054   1.387  0.4406 -0.3487 -0.3921
  160MOL0     C21479   4.389   3.199   1.417  0.4724  1.0213  0.9537
  160MOL0     C21480   4.289   3.280   1.328  0.1614 -0.5450  0.3249
  160MOL0     C21481   4.148   3.295   1.387 -0.1870 -0.1139 -0.3737
  160MOL0     N21482   4.058   3.380   1.316  0.1531 -0.2014 -0.0443
  160MOL0     C21483   4.067   3.517   1.306 -0.5301  0.3067 -0.1772
  160MOL0     C21484   3.957   3.546   1.236 -0.2668  0.0963 -1.2640
  160MOL0     C21485   3.905   3.681   1.222  0.2923 -0.3883  0.3357
  160MOL0     C21486   4.002   3.758   1.129  0.3114  0.3422 -0.1359
  160MOL0     C21487   3.984   3.725   0.982 -0.5420  0.0996 -1.0444
  160MOL0     C21488   4.057   3.825   0.892  0.6407  0.7377 -0.3378
  160MOL0     O21489   4.199   3.821   0.911  0.3641  0.0591 -0.3313
  160MOL0     C21490   4.277   3.902   0.830  0.0871 -0.4107  0.6361
  160MOL0     C21491   4.412   3.899   0.837 -0.5162  0.1026  0.3403
  160MOL0     C21492   4.497   3.978   0.757 -0.4320  0.3023  0.0170
  160MOL0     C21493   4.446   4.072   0.671 -0.0736 -0.3133 -0.2344
  160MOL0     C21494   4.532   4.163   0.604 -0.0814  0.1738 -0.0156
  160MOL0     O21495   4.473   4.233   0.497 -0.1109  0.0661  0.1483
  160MOL0     C21496   4.543   4.330   0.429 -0.4056 -0.0951  0.1158
  160MOL0     C21497   4.487   4.458   0.393  0.1135 -0.5509 -0.4715
  160MOL0     C21498   4.558   4.550   0.309  0.2930  0.0089  0.0216
  160MOL0     C21499   4.671   4.511   0.249 -0.4215 -0.1794 -0.5116
  160MOL0     O21500   4.743   4.563   0.146  0.2678 -0.6486 -0.0321
  160MOL0     C21501   4.693   4.696   0.106 -1.0471 -0.5257 -0.1578
  160MOL0     C21502   4.782   4.743  -0.010  0.2507 -0.3096 -0.3903
  160MOL0     C21503   4.928   4.731   0.016 -0.7723 -0.1705 -0.2220
  160MOL0     C21504   5.014   4.784  -0.097  0.2090  0.0388 -0.1439
  160MOL0     C21505   5.162   4.783  -0.071 -0.0713 -0.2698  0.2230
  160MOL0     C21506   5.243   4.858  -0.177 -0.3530 -0.1539 -0.3725
  160MOL0     C21507   5.386   4.858  -0.115 -0.6544  0.3084 -0.0274
  160MOL0     C21508   5.491   4.935  -0.196  0.0393 -0.3309  0.2507
  160MOL0    Cl21509   5.504   4.874  -0.366 -0.2693  0.1881 -0.8260
  160MOL0     C21510   4.733   4.387   0.286 -0.5779 -0.1539  1.5978
  160MOL0     C21511   4.667   4.299   0.369 -0.3425  0.5381  0.6383
  160MOL0     O21512   4.649   4.163   0.637 -0.1016 -0.6243  0.1137
  160MOL0     C21513   4.301   4.078   0.661  0.6834 -0.0599 -0.4847
  160MOL0     C21514   4.221   3.994   0.738 -1.1144 -0.1061 -0.3938
  160MOL0     N21515   3.895   3.432   1.195  0.4536  0.3529 -0.1391
  160MOL0     N21516   3.949   3.334   1.246 -0.2879  0.3982  0.2466
  160MOL0     C21517   5.017   2.693   1.371 -0.2252  0.4434  0.6462
  160MOL0     C21518   5.120   2.624   1.307  0.2692 -0.1038  0.6800
  160MOL0     C21519   5.286   2.298   1.025  0.0003 -0.2393 -0.3202
  160MOL0     C21520   5.363   2.221   1.124  0.1738 -0.1230  0.0627
  160MOL0     C21521   5.469   2.145   1.071 -0.6572  0.3505  0.1765
  160MOL0     C21522   5.510   2.143   0.938 -0.8804  0.3466  0.5124
  160MOL0     O21523   5.610   2.053   0.893 -0.4787 -0.0795 -0.5292
  160MOL0     C21524   5.580   1.917   0.923 -0.0714 -0.1941 -0.1912
  160MOL0     C21525   5.667   1.823   0.843  0.3614 -0.1529 -0.9695
  160MOL0     C21526   5.701   1.690   0.912  1.1542 -0.3639 -0.4659
  160MOL0     C21527   5.597   1.584   0.888 -0.2680 -0.1712 -0.2204
  160MOL0     C21528   5.458   1.608   0.926  0.1510 -0.0652 -0.3481
  160MOL0     C21529   5.344   1.619   0.960 -0.0116 -0.3850 -0.4649
  160MOL0     C21530   5.428   2.206   0.845 -0.3921 -0.1297  0.4991
  160MOL0     C21531   5.320   2.289   0.888 -0.6464 -0.0115  0.6697
  160MOL0     C21532   5.242   2.355   0.775 -0.3959 -0.6881 -0.5335
  160MOL0     H21533   4.973   2.320   1.277 -1.6535  0.5380 -3.2948
  160MOL0     H21534   4.795   2.449   1.410 -0.9339 -0.7301 -0.5629
  160MOL0     H21535   4.635   2.621   1.430 -0.1838 -0.1866 -0.8196
  160MOL0     H21536   4.715   2.592   1.579  0.6060 -0.0218 -0.7219
  160MOL0     H21537   4.667   2.858   1.624 -0.1278 -0.0232 -0.5924
  160MOL0     H21538   4.545   2.737   1.648  1.3580  2.5078  1.4103
  160MOL0     H21539   4.437   2.776   1.439  2.0623 -1.4095  0.3967
  160MOL0     H21540   4.567   2.868   1.363 -2.9503  3.0460 -0.9256
  160MOL0     H21541   4.411   2.985   1.590 -0.0394  1.4111  0.9067
  160MOL0     H21542   4.567   3.037   1.524  0.2861 -0.4538 -2.0211
  160MOL0     H21543   4.433   3.035   1.290  1.8680 -3.5251  0.7774
  160MOL0     H21544   4.280   3.029   1.389  0.2162  0.5805 -0.1502
  160MOL0     H21545   4.356   3.210   1.521 -2.2016 -0.2090  0.3357
  160MOL0     H21546   4.491   3.235   1.406 -0.4124  3.3937 -0.0723
  160MOL0     H21547   4.285   3.241   1.226 -2.4186  0.3387  0.0278
  160MOL0     H21548   4.348   3.372   1.322  3.8740 -2.7628 -0.0237
  160MOL0     H21549   4.096   3.199   1.391  0.5347 -0.4841  0.6821
  160MOL0     H21550   4.163   3.328   1.491  1.5832  0.2496 -0.7207
  160MOL0     H21551   4.147   3.577   1.346  0.0006 -0.2982 -0.3151
  160MOL0     H21552   3.804   3.683   1.181  1.2218  2.2636 -2.1306
  160MOL0     H21553   3.903   3.728   1.321  3.8748  1.5973 -0.3314
  160MOL0     H21554   3.974   3.862   1.147 -1.8143 -0.3744  1.0108
  160MOL0     H21555   4.107   3.734   1.151  0.6022  0.1205 -1.6608
  160MOL0     H21556   3.881   3.716   0.947 -0.0149  3.9823 -4.1786
  160MOL0     H21557   4.035   3.629   0.969 -0.7725 -0.0491 -0.8727
  160MOL0     H21558   4.020   3.926   0.913  0.2167 -0.0929  3.6604
  160MOL0     H21559   4.027   3.814   0.787 -1.1823  2.8212 -0.1153
  160MOL0     H21560   4.476   3.841   0.903  2.4748 -0.8951 -3.0754
  160MOL0     H21561   4.605   3.965   0.759 -0.5545 -1.0064 -0.7871
  160MOL0     H21562   4.389   4.472   0.437  0.8988 -0.3074  1.2468
  160MOL0     H21563   4.510   4.647   0.301 -3.1137 -1.4150  1.2981
  160MOL0     H21564   4.594   4.686   0.062 -0.8229 -1.0887 -0.5518
  160MOL0     H21565   4.692   4.770   0.187  4.3143  0.4250 -0.5503
  160MOL0     H21566   4.746   4.689  -0.097  1.0158 -0.0901 -0.8519
  160MOL0     H21567   4.776   4.850  -0.032  1.3148 -0.1445  0.0331
  160MOL0     H21568   4.955   4.783   0.109 -1.3734 -0.5893  0.1940
  160MOL0     H21569   4.953   4.625   0.027 -2.7503 -0.5080  1.8308
  160MOL0     H21570   4.978   4.881  -0.133 -0.8724  0.1064  1.0637
  160MOL0     H21571   5.010   4.715  -0.182  5.5414 -1.5325  0.4973
  160MOL0     H21572   5.195   4.679  -0.082  1.5197  0.2990 -0.6499
  160MOL0     H21573   5.180   4.816   0.031 -3.4242  2.8057  0.0122
  160MOL0     H21574   5.243   4.810  -0.275  0.1462  1.9737 -1.4944
  160MOL0     H21575   5.205   4.961  -0.187 -1.9837 -0.5899  0.9255
  160MOL0     H21576   5.415   4.753  -0.117  0.6426  0.6219  1.0835
  160MOL0     H21577   5.384   4.889  -0.010  0.2525 -1.0914  0.4219
  160MOL0     H21578   5.476   5.043  -0.188  0.3319 -0.0840 -1.8179
  160MOL0     H21579   5.585   4.910  -0.148 -1.3595 -0.6931  2.9807
  160MOL0     H21580   4.821   4.365   0.226  0.5865 -0.5956  3.3629
  160MOL0     H21581   4.705   4.199   0.385 -0.9207  0.2287  0.1085
  160MOL0     H21582   4.249   4.158   0.610 -0.2419  1.6795  2.8440
  160MOL0     H21583   4.113   3.997   0.724 -1.3818  1.7829  1.6073
  160MOL0     H21584   5.035   2.795   1.404  0.2903  0.3735  0.5905
  160MOL0     H21585   5.217   2.666   1.284  1.3108 -1.6620  1.9867
  160MOL0     H21586   5.347   2.225   1.231 -1.5639  1.3036 -0.1943
  160MOL0     H21587   5.520   2.080   1.141  1.2315  0.9010 -0.6175
  160MOL0     H21588   5.473   1.906   0.904 -0.2800  0.5271  0.5233
  160MOL0     H21589   5.594   1.908   1.031 -2.9624 -0.5492  0.2201
  160MOL0     H21590   5.753   1.877   0.802 -0.2586 -0.1120 -2.2791
  160MOL0     H21591   5.610   1.794   0.754  2.6755  0.0518 -2.5966
  160MOL0     H21592   5.718   1.710   1.018 -1.8682 -0.8872  0.1967
  160MOL0     H21593   5.791   1.642   0.874  2.7151  1.8984  0.1570
  160MOL0     H21594   5.596   1.570   0.779  1.5086  3.0611 -0.7881
  160MOL0     H21595   5.626   1.488   0.930 -1.6812  0.1010  1.4758
  160MOL0     H21596   5.247   1.623   1.007  1.4841  1.9789  2.8168
  160MOL0     H21597   5.463   2.190   0.744 -0.8020  0.4156  0.2709
  160MOL0     H21598   5.134   2.339   0.785 -0.2850 -0.4867  1.3350
  160MOL0     H21599   5.258   2.463   0.772  1.8656 -0.8615  1.7722
  160MOL0     H21600   5.277   2.320   0.677  0.5559  2.3064 -1.3803
  161MOL0     O21601   7.072   2.215   4.779 -0.3317  0.0837  0.5763
  161MOL0     C21602   7.055   2.288   4.683  0.3155 -1.2631  0.2552
  161MOL0     O21603   7.153   2.353   4.596  0.4194  0.1618  0.7738
  161MOL0     C21604   7.282   2.329   4.631  0.1537  0.3352 -0.5834
  161MOL0     C21605   7.360   2.439   4.679  0.2238  0.2264 -0.1676
  161MOL0     C21606   7.491   2.418   4.723  0.5048  0.4158 -0.1312
  161MOL0     C21607   7.547   2.286   4.737  0.4342  0.0249 -0.3101
  161MOL0     O21608   7.677   2.253   4.777 -0.1338  0.2469  0.1231
  161MOL0     C21609   7.768   2.357   4.734  0.4170  0.1322 -0.5562
  161MOL0     C21610   7.911   2.303   4.757 -0.2391 -0.9224  0.6843
  161MOL0     C21611   8.021   2.406   4.749 -0.0513  0.9922  0.2217
  161MOL0     C21612   8.158   2.345   4.802  0.0977  0.2083  0.2280
  161MOL0     C21613   8.267   2.426   4.749 -1.1133 -0.4405 -0.4786
  161MOL0     C21614   8.410   2.371   4.789 -0.4126 -0.1626 -0.1709
  161MOL0     C21615   8.501   2.490   4.782  0.3814  0.3219 -0.3560
  161MOL0     C21616   8.649   2.468   4.787  0.6953 -0.6440  0.1185
  161MOL0     N21617   8.691   2.389   4.673 -0.4658  0.4379  0.7881
  161MOL0     C21618   8.744   2.439   4.555 -0.0328  0.0870  0.5245
  161MOL0     C21619   8.789   2.322   4.490 -0.1312  0.1483  0.5041
  161MOL0     C21620   8.832   2.308   4.342 -0.2238 -0.0278  0.9230
  161MOL0     C21621   8.971   2.256   4.323 -0.4167 -0.3939  0.1050
  161MOL0     C21622   8.995   2.114   4.374  0.2948 -0.6247  1.5312
  161MOL0     C21623   9.141   2.103   4.410 -0.2437  0.6253 -0.2562
  161MOL0     O21624   9.232   2.093   4.300  0.5478  0.1407 -0.1265
  161MOL0     C21625   9.361   2.087   4.337 -0.7717 -0.2877 -0.0258
  161MOL0     C21626   9.406   2.059   4.468 -0.1612 -0.3776  0.3816
  161MOL0     C21627   9.537   2.056   4.505 -0.1068 -0.3319  0.4752
  161MOL0     C21628   9.645   2.063   4.417 -0.2400 -0.0494  0.2927
  161MOL0     C21629   9.787   2.027   4.464 -0.1947 -0.2862 -0.1426
  161MOL0     O21630   9.884   2.033   4.365 -0.3368 -0.1225 -0.7450
  161MOL0     C21631  10.016   2.045   4.389 -0.4107  0.1740 -0.3140
  161MOL0     C21632  10.074   2.094   4.506  0.8367  0.2381 -0.3131
  161MOL0     C21633  10.206   2.112   4.514 -0.4027  0.3774 -0.0277
  161MOL0     C21634  10.285   2.049   4.422 -0.0377  0.7624  0.1351
  161MOL0     O21635  10.419   2.057   4.432 -0.3102 -0.0546 -1.1013
  161MOL0     C21636  10.481   1.929   4.447 -0.1265  0.4883 -0.5607
  161MOL0     C21637  10.626   1.929   4.395  0.0900 -0.0737 -0.1938
  161MOL0     C21638  10.731   1.959   4.494 -0.4652  0.3906 -0.0850
  161MOL0     C21639  10.716   2.097   4.554 -0.2694 -0.3980  0.0972
  161MOL0     C21640  10.820   2.148   4.649 -0.5422 -0.0493  0.5643
  161MOL0     C21641  10.964   2.132   4.590 -0.0689 -0.7815 -0.4364
  161MOL0     C21642  11.070   2.204   4.667 -0.4106  0.3628  0.3507
  161MOL0     C21643  11.089   2.163   4.813 -0.5750  0.9478  0.2840
  161MOL0    Cl21644  11.150   1.995   4.815 -0.0624 -0.1157  0.0859
  161MOL0     C21645  10.228   2.000   4.307 -0.0197 -1.1093 -0.5440
  161MOL0     C21646  10.094   2.004   4.280 -0.0051 -0.4741 -0.3193
  161MOL0     O21647   9.813   2.013   4.577 -0.4237 -0.6933 -0.4572
  161MOL0     C21648   9.603   2.092   4.286  0.0925 -0.1378  0.3211
  161MOL0     C21649   9.461   2.109   4.246 -0.9888  0.1127 -0.1844
  161MOL0     N21650   8.763   2.221   4.568 -0.0885  0.3025  0.6911
  161MOL0     N21651   8.700   2.257   4.676 -0.4141 -0.5554 -1.2908
  161MOL0     C21652   7.470   2.180   4.685 -1.2777  0.5261  0.6360
  161MOL0     C21653   7.344   2.204   4.637  0.7318  0.4036 -0.9068
  161MOL0     C21654   6.916   2.299   4.626  0.0074  0.0063 -0.1943
  161MOL0     C21655   6.900   2.385   4.516 -0.8673 -0.1811  0.2639
  161MOL0     C21656   6.773   2.392   4.460 -0.2671 -0.1004 -0.5192
  161MOL0     C21657   6.663   2.325   4.513 -0.1394  0.2331 -0.5293
  161MOL0     O21658   6.533   2.330   4.472 -0.0893  0.3556 -0.5806
  161MOL0     C21659   6.504   2.447   4.392 -0.2771 -0.6422 -0.0535
  161MOL0     C21660   6.354   2.479   4.417  0.3547  0.5688  0.3849
  161MOL0     C21661   6.305   2.592   4.334  0.3628 -1.0796  0.0106
  161MOL0     C21662   6.352   2.726   4.379 -0.1855  0.0007  0.5724
  161MOL0     C21663   6.290   2.818   4.285  0.7395  0.0065  0.2426
  161MOL0     C21664   6.246   2.884   4.188  0.0575 -0.5464 -0.6090
  161MOL0     C21665   6.682   2.237   4.619  0.3956 -0.0983 -0.2590
  161MOL0     C21666   6.800   2.232   4.684 -0.1403  0.5111  0.4078
  161MOL0     C21667   6.800   2.135   4.801  0.2379 -0.3627 -0.6199
  161MOL0     H21668   7.320   2.540   4.670  0.2825  0.3312  0.6744
  161MOL0     H21669   7.538   2.506   4.766 -2.1541  1.4726  0.8626
  161MOL0     H21670   7.757   2.377   4.627 -0.0918  0.7303 -0.4011
  161MOL0     H21671   7.744   2.449   4.789 -0.5290 -2.6533  4.2006
  161MOL0     H21672   7.937   2.222   4.688  2.3967  1.0418 -0.8082
  161MOL0     H21673   7.914   2.266   4.860 -0.6619  0.8724  1.3644
  161MOL0     H21674   7.999   2.499   4.801  0.6099  0.6092  1.2023
  161MOL0     H21675   8.028   2.419   4.640  1.5663  1.2328  0.3398
  161MOL0     H21676   8.166   2.344   4.911 -1.0323  0.4993  0.3229
  161MOL0     H21677   8.162   2.241   4.767  0.0044 -0.1855  1.3499
  161MOL0     H21678   8.255   2.428   4.640 -4.3567  1.8984 -0.2173
  161MOL0     H21679   8.250   2.530   4.777  0.4682 -0.1347 -0.5460
  161MOL0     H21680   8.413   2.336   4.892  0.2445  0.6700  0.1087
  161MOL0     H21681   8.447   2.293   4.722  1.3962 -1.1964  1.8999
  161MOL0     H21682   8.471   2.561   4.859 -3.3263 -0.2810 -1.0420
  161MOL0     H21683   8.476   2.538   4.686 -0.6991  4.6182  1.8319
  161MOL0     H21684   8.697   2.566   4.780  1.5952 -1.1225 -0.5879
  161MOL0     H21685   8.672   2.430   4.887 -0.2289  0.5365  0.8033
  161MOL0     H21686   8.730   2.537   4.511  2.2341 -0.8675 -2.6994
  161MOL0     H21687   8.771   2.224   4.306  2.1969 -1.5310  0.0604
  161MOL0     H21688   8.812   2.399   4.285 -2.1073 -1.2686 -0.5321
  161MOL0     H21689   8.982   2.262   4.214 -1.0815  2.1084  0.1284
  161MOL0     H21690   9.042   2.328   4.363 -1.4851  1.0056 -0.4386
  161MOL0     H21691   8.971   2.045   4.293  0.1413  0.6360  0.4690
  161MOL0     H21692   8.929   2.107   4.462 -1.9908 -2.7784 -0.2052
  161MOL0     H21693   9.153   2.011   4.468  2.0029  0.8404 -0.3089
  161MOL0     H21694   9.159   2.189   4.475  0.1361  1.1607 -1.0655
  161MOL0     H21695   9.342   2.033   4.551 -1.3617 -0.0892 -0.4305
  161MOL0     H21696   9.553   2.015   4.604 -2.0801  0.1862  1.0584
  161MOL0     H21697  10.023   2.132   4.594 -2.1620 -1.3870 -1.2175
  161MOL0     H21698  10.261   2.168   4.589  0.0472 -0.7467  0.5074
  161MOL0     H21699  10.478   1.899   4.553  2.9618 -0.5805 -0.6551
  161MOL0     H21700  10.425   1.848   4.400  0.3268 -0.3408  0.2791
  161MOL0     H21701  10.660   1.829   4.366  2.3241  0.1213  1.4906
  161MOL0     H21702  10.648   1.993   4.309 -0.6508 -1.7857 -1.7397
  161MOL0     H21703  10.737   1.895   4.582  0.1024 -0.6598 -0.8746
  161MOL0     H21704  10.823   1.975   4.437 -0.4848  1.5580  0.1712
  161MOL0     H21705  10.619   2.099   4.604  0.4848 -1.7138  1.7020
  161MOL0     H21706  10.705   2.163   4.467 -0.2113 -0.8275 -0.2368
  161MOL0     H21707  10.815   2.083   4.738 -3.2351 -2.5233 -1.1919
  161MOL0     H21708  10.803   2.255   4.655  0.1655  0.1379 -0.4912
  161MOL0     H21709  10.993   2.026   4.585  0.5175 -0.6129 -0.7679
  161MOL0     H21710  10.964   2.182   4.492 -1.7164 -1.5902 -0.8888
  161MOL0     H21711  11.038   2.307   4.682 -0.1206  0.3719  0.9107
  161MOL0     H21712  11.165   2.213   4.613 -0.9994 -0.6134 -0.9056
  161MOL0     H21713  11.171   2.223   4.853  2.0277 -1.8674 -0.4223
  161MOL0     H21714  10.994   2.173   4.867 -0.9184 -0.9639  0.0995
  161MOL0     H21715  10.290   1.965   4.225  0.3005 -1.3301 -0.2133
  161MOL0     H21716  10.056   1.992   4.179 -1.3084 -0.9345  0.2033
  161MOL0     H21717   9.667   2.113   4.201 -1.7364 -1.4791 -1.4935
  161MOL0     H21718   9.420   2.120   4.146 -2.3155 -2.2209  0.0150
  161MOL0     H21719   7.508   2.078   4.684  3.5000  2.0545 -1.4759
  161MOL0     H21720   7.280   2.118   4.621  1.7991 -0.2690 -1.7160
  161MOL0     H21721   6.982   2.435   4.466  1.7914 -0.5670  3.8431
  161MOL0     H21722   6.767   2.439   4.362  2.0386  2.4857  0.4570
  161MOL0     H21723   6.524   2.432   4.286 -2.5771 -0.2280 -0.6004
  161MOL0     H21724   6.560   2.535   4.428  0.1804 -0.4522 -1.1953
  161MOL0     H21725   6.328   2.491   4.522 -3.2156 -0.4884 -0.2489
  161MOL0     H21726   6.301   2.389   4.386 -0.2555  0.9240  0.3896
  161MOL0     H21727   6.199   2.582   4.356 -0.3597  1.5099 -1.8533
  161MOL0     H21728   6.336   2.573   4.231  0.1270  0.6554 -0.4086
  161MOL0     H21729   6.328   2.753   4.482 -2.3343  1.1410 -0.1571
  161MOL0     H21730   6.461   2.730   4.368 -0.3833  2.1606 -1.2708
  161MOL0     H21731   6.208   2.945   4.109 -1.2963 -1.9589 -1.0843
  161MOL0     H21732   6.596   2.180   4.651  1.8101 -2.4343 -0.4087
  161MOL0     H21733   6.853   2.043   4.774  0.0957 -1.1433  1.5237
  161MOL0     H21734   6.863   2.185   4.875 -0.5860 -0.6767  0.3235
  161MOL0     H21735   6.697   2.112   4.830  0.6758 -2.7863 -0.7810
  162MOL0     O21736  10.137   9.255   7.759  0.2118 -0.0881 -0.2045
  162MOL0     C21737  10.016   9.271   7.750  0.4069 -0.2168 -0.2735
  162MOL0     O21738   9.956   9.306   7.634 -0.2049  0.3729  0.6334
  162MOL0     C21739  10.032   9.336   7.521 -1.2354  0.6618  0.4385
  162MOL0     C21740  10.024   9.250   7.410 -0.2564  0.4546  0.0298
  162MOL0     C21741  10.097   9.272   7.294 -0.1141 -0.1718  0.1573
  162MOL0     C21742  10.185   9.386   7.285  0.2488  0.6181  0.3135
  162MOL0     O21743  10.266   9.409   7.175 -0.9114 -0.6445 -0.0902
  162MOL0     C21744  10.269   9.317   7.063 -0.6689  0.0566 -0.5048
  162MOL0     C21745  10.369   9.358   6.960  0.5136  0.2398 -0.0264
  162MOL0     C21746  10.371   9.254   6.851  1.3753  0.6887 -0.8367
  162MOL0     C21747  10.458   9.270   6.731 -0.3293 -0.0542 -0.4302
  162MOL0     C21748  10.584   9.182   6.745  0.1012  0.0823 -0.0353
  162MOL0     C21749  10.667   9.196   6.620 -0.5107  0.0646  1.0891
  162MOL0     C21750  10.776   9.081   6.601  0.8298 -0.1897  0.1434
  162MOL0     C21751  10.863   9.073   6.721 -0.8377 -0.6528 -0.5229
  162MOL0     N21752  10.963   8.964   6.714  0.4277 -0.8095 -1.0138
  162MOL0     C21753  11.087   8.959   6.773 -0.4109 -0.1709 -0.1308
  162MOL0     C21754  11.137   8.845   6.721 -0.8516 -0.1456  0.3754
  162MOL0     C21755  11.275   8.790   6.733  0.1290  0.7733 -0.8396
  162MOL0     C21756  11.289   8.704   6.864  0.2653  0.6475 -0.0817
  162MOL0     C21757  11.370   8.782   6.966 -0.3853 -0.5104  0.3840
  162MOL0     C21758  11.511   8.811   6.928  0.0160 -0.1557  0.0647
  162MOL0     O21759  11.555   8.944   6.933  0.0187 -0.6803 -0.1330
  162MOL0     C21760  11.580   9.001   6.815  0.7336  0.5535  1.3350
  162MOL0     C21761  11.497   9.105   6.763 -1.0416 -0.5120 -1.1329
  162MOL0     C21762  11.521   9.156   6.636 -0.7378 -0.4743 -0.0171
  162MOL0     C21763  11.620   9.109   6.547  0.7328  0.1448  0.9799
  162MOL0     C21764  11.633   9.151   6.406  0.3184  0.4439  0.4354
  162MOL0     O21765  11.725   9.082   6.324 -0.4769 -0.7540 -0.9429
  162MOL0     C21766  11.741   9.117   6.193 -1.2970 -0.0835  0.5188
  162MOL0     C21767  11.656   9.064   6.101  0.4608  0.0268 -0.7664
  162MOL0     C21768  11.679   9.079   5.970  1.4193 -0.3916  0.1298
  162MOL0     C21769  11.776   9.168   5.924 -0.9541  0.4163  0.2016
  162MOL0     O21770  11.779   9.187   5.784 -0.2571  0.1765 -0.8142
  162MOL0     C21771  11.824   9.314   5.730 -0.0657 -0.6347  0.4425
  162MOL0     C21772  11.717   9.424   5.736  0.4079  0.6871  0.3764
  162MOL0     C21773  11.766   9.558   5.690  0.4901  0.6228 -0.1031
  162MOL0     C21774  11.645   9.651   5.684  0.4297  0.6262  0.3805
  162MOL0     C21775  11.685   9.768   5.598  0.3798  0.0694  0.2948
  162MOL0     C21776  11.793   9.854   5.659  0.1394 -1.2485 -0.5103
  162MOL0     C21777  11.809   9.980   5.583  1.1581  0.8148 -0.1885
  162MOL0     C21778  11.918  10.079   5.626 -0.9190  0.1046 -0.3505
  162MOL0    Cl21779  12.085  10.035   5.566  0.2214 -0.0225 -0.5608
  162MOL0     C21780  11.861   9.227   6.015 -0.9746 -0.4579  0.2840
  162MOL0     C21781  11.850   9.202   6.152  0.1875  0.0386  0.1965
  162MOL0     O21782  11.572   9.256   6.377  0.0774  0.6572  0.7341
  162MOL0     C21783  11.707   9.011   6.606 -0.5318 -0.0391  0.9340
  162MOL0     C21784  11.683   8.956   6.733 -0.5159 -0.0630  0.1523
  162MOL0     N21785  11.036   8.780   6.659  0.7455  0.1626  0.0870
  162MOL0     N21786  10.931   8.852   6.655  0.0808 -0.2467  0.0347
  162MOL0     C21787  10.191   9.467   7.395 -0.5748  0.0413 -0.2999
  162MOL0     C21788  10.116   9.442   7.512  0.5071 -0.6602 -0.1148
  162MOL0     C21789   9.948   9.250   7.882 -0.1848  0.4652 -0.1667
  162MOL0     C21790  10.030   9.240   7.997  0.3092 -0.3313  0.6869
  162MOL0     C21791   9.968   9.243   8.122  0.6864 -0.7154 -0.2940
  162MOL0     C21792   9.826   9.244   8.140 -0.2745 -0.0942  0.4316
  162MOL0     O21793   9.767   9.235   8.259  0.1675 -0.5105  0.2104
  162MOL0     C21794   9.845   9.269   8.373 -1.1654 -0.6739 -0.1341
  162MOL0     C21795   9.753   9.290   8.493 -0.3225 -0.0609 -0.1385
  162MOL0     C21796   9.694   9.152   8.542 -0.3017 -0.3363  1.3882
  162MOL0     C21797   9.657   9.166   8.691  0.2425 -0.4788  0.0475
  162MOL0     C21798   9.589   9.039   8.740  0.4197  0.3236  0.4111
  162MOL0     C21799   9.547   8.933   8.777 -0.7311  0.0235  0.4623
  162MOL0     C21800   9.747   9.251   8.024 -0.0667 -0.2852  0.4346
  162MOL0     C21801   9.813   9.256   7.896  0.6087 -0.8785 -0.6642
  162MOL0     C21802   9.725   9.258   7.776 -0.6119 -1.1119 -0.4394
  162MOL0     H21803   9.963   9.162   7.425  0.8496 -0.0923  1.6058
  162MOL0     H21804  10.083   9.204   7.209  0.2132 -0.0568  0.0090
  162MOL0     H21805  10.297   9.216   7.093 -0.4468  0.2841  0.0593
  162MOL0     H21806  10.168   9.310   7.021 -0.9761  2.2763 -0.2730
  162MOL0     H21807  10.467   9.358   7.008  0.3585  1.5574  0.3278
  162MOL0     H21808  10.335   9.458   6.932 -1.6355 -0.2173  0.7263
  162MOL0     H21809  10.269   9.245   6.811  2.4046 -1.2485 -3.2653
  162MOL0     H21810  10.396   9.161   6.901  2.0551  1.3880  0.1665
  162MOL0     H21811  10.400   9.250   6.640 -0.2467  2.7257 -1.2006
  162MOL0     H21812  10.488   9.375   6.718  2.2691 -0.4379  1.6281
  162MOL0     H21813  10.640   9.218   6.832 -0.7772  2.3518 -0.3624
  162MOL0     H21814  10.550   9.079   6.758 -0.3637  0.4188  1.7520
  162MOL0     H21815  10.594   9.196   6.539  1.8081  1.6655 -1.1444
  162MOL0     H21816  10.724   9.289   6.612 -0.2414 -0.1382  0.6656
  162MOL0     H21817  10.827   9.089   6.504 -1.2514  1.0008 -0.9321
  162MOL0     H21818  10.719   8.988   6.596 -0.3348  0.4142  1.4393
  162MOL0     H21819  10.925   9.162   6.717  0.1240 -1.1142  2.2433
  162MOL0     H21820  10.808   9.062   6.815  1.5384 -0.2828  0.9979
  162MOL0     H21821  11.134   9.039   6.830  0.9433  0.0314 -1.4487
  162MOL0     H21822  11.300   8.731   6.645 -1.3147 -1.0719 -0.0841
  162MOL0     H21823  11.347   8.872   6.730 -0.3047  1.1359 -1.5838
  162MOL0     H21824  11.184   8.694   6.891 -0.0295  2.1617 -0.5505
  162MOL0     H21825  11.333   8.604   6.854  1.1488  1.1575 -1.5952
  162MOL0     H21826  11.364   8.728   7.061 -0.8799 -2.2526 -0.6141
  162MOL0     H21827  11.318   8.878   6.977 -2.3728 -1.1187 -2.6126
  162MOL0     H21828  11.527   8.776   6.825 -1.4277 -0.1527 -0.1810
  162MOL0     H21829  11.566   8.744   6.993 -0.1224  1.0028  1.4319
  162MOL0     H21830  11.428   9.152   6.833 -2.1558 -0.5962 -2.1407
  162MOL0     H21831  11.460   9.238   6.602  0.1985  1.2820  2.2506
  162MOL0     H21832  11.578   8.995   6.133  0.9377 -0.4357 -0.5950
  162MOL0     H21833  11.610   9.037   5.898  1.0348 -2.3909  1.5934
  162MOL0     H21834  11.913   9.348   5.783  1.0079 -0.0613 -1.6114
  162MOL0     H21835  11.853   9.299   5.625 -0.3927  0.6765  0.1534
  162MOL0     H21836  11.642   9.389   5.664  2.3686 -1.5171 -0.7432
  162MOL0     H21837  11.676   9.429   5.837 -3.5287 -0.8578 -0.9718
  162MOL0     H21838  11.833   9.592   5.769  0.1580 -0.8986  0.8841
  162MOL0     H21839  11.810   9.554   5.590  0.0880  4.9878 -0.6340
  162MOL0     H21840  11.614   9.677   5.785 -1.8535 -2.6123  0.6788
  162MOL0     H21841  11.562   9.599   5.636 -1.2188  1.6144  2.0252
  162MOL0     H21842  11.595   9.830   5.591  0.6678  0.8616  2.7989
  162MOL0     H21843  11.708   9.732   5.497 -2.5776  0.4177 -0.6010
  162MOL0     H21844  11.763   9.884   5.760 -0.3095 -0.9878 -0.7174
  162MOL0     H21845  11.882   9.791   5.668 -1.1757 -3.2509 -0.7942
  162MOL0     H21846  11.718  10.030   5.618  1.1849  0.6440  0.1301
  162MOL0     H21847  11.803   9.953   5.477  3.3428 -0.0431 -0.1342
  162MOL0     H21848  11.880  10.172   5.583  1.2395  0.8546 -0.7943
  162MOL0     H21849  11.931  10.076   5.734 -0.2539 -0.5503 -0.4385
  162MOL0     H21850  11.938   9.290   5.971 -1.8027  1.5707  1.6448
  162MOL0     H21851  11.902   9.260   6.228 -0.4079 -1.8811  2.1572
  162MOL0     H21852  11.797   8.986   6.552  0.7137  2.6156  1.6006
  162MOL0     H21853  11.743   8.871   6.762 -1.9470 -1.0814  0.2040
  162MOL0     H21854  10.247   9.559   7.383  0.2070 -0.5256 -1.1747
  162MOL0     H21855  10.116   9.506   7.601 -1.5097  1.4815 -1.5246
  162MOL0     H21856  10.138   9.244   7.987  0.2055 -2.0752 -2.0092
  162MOL0     H21857  10.036   9.241   8.207 -1.5699 -0.1782  1.6432
  162MOL0     H21858   9.894   9.367   8.373 -1.2953 -0.5320  2.7519
  162MOL0     H21859   9.920   9.191   8.391  0.0528  0.1161 -1.5491
  162MOL0     H21860   9.678   9.366   8.470  2.3091  2.8365  0.3474
  162MOL0     H21861   9.810   9.338   8.573 -1.0148  0.6219 -0.0414
  162MOL0     H21862   9.764   9.068   8.535 -0.0751 -0.1464  1.3540
  162MOL0     H21863   9.606   9.131   8.482  1.9694  1.9218 -3.3068
  162MOL0     H21864   9.751   9.179   8.746 -0.2738 -1.6981  1.2643
  162MOL0     H21865   9.594   9.254   8.701 -0.9017 -1.3123  0.4093
  162MOL0     H21866   9.506   8.841   8.814  2.0792 -2.4403 -1.9045
  162MOL0     H21867   9.638   9.254   8.020 -0.0409  0.2765 -0.1202
  162MOL0     H21868   9.622   9.225   7.795 -0.2258 -1.0857  1.9165
  162MOL0     H21869   9.720   9.354   7.723  0.4371 -2.1713 -2.6029
  162MOL0     H21870   9.757   9.177   7.710  0.0204 -0.7078 -0.6327
  163MOL0     O21871   6.386   8.998   3.351  0.1843 -0.2040 -0.3354
  163MOL0     C21872   6.272   8.950   3.322 -1.2109 -0.0062 -0.3687
  163MOL0     O21873   6.269   8.819   3.262  0.2107 -0.4450  0.0424
  163MOL0     C21874   6.376   8.735   3.273  0.1676  0.5940  0.3374
  163MOL0     C21875   6.474   8.732   3.369 -0.1816 -0.1257 -0.0068
  163MOL0     C21876   6.586   8.650   3.364  0.1623 -0.0158  0.1505
  163MOL0     C21877   6.598   8.555   3.266  0.0549  0.4728  0.5386
  163MOL0     O21878   6.714   8.477   3.269  1.1121  0.4440 -0.1765
  163MOL0     C21879   6.715   8.363   3.169 -0.1630 -0.3770 -0.3023
  163MOL0     C21880   6.784   8.408   3.037  0.2164  0.3585  0.3069
  163MOL0     C21881   6.768   8.284   2.940  0.2237  0.5874 -0.4683
  163MOL0     C21882   6.847   8.289   2.814 -0.1645  0.7223 -0.4519
  163MOL0     C21883   6.778   8.385   2.712 -0.1646 -0.9752  0.6305
  163MOL0     C21884   6.878   8.423   2.605  0.2644 -0.9599 -0.1306
  163MOL0     C21885   6.822   8.498   2.481 -0.1063  0.7758  0.7377
  163MOL0     C21886   6.934   8.508   2.366 -0.3227  0.4075  0.4080
  163MOL0     N21887   6.968   8.380   2.315  0.0652  0.0600  0.5782
  163MOL0     C21888   7.080   8.318   2.354 -0.0655  0.3870  0.0334
  163MOL0     C21889   7.098   8.229   2.260  0.5125 -0.4160  0.4493
  163MOL0     C21890   7.207   8.131   2.254  0.4173  0.3823  0.3536
  163MOL0     C21891   7.294   8.150   2.129  0.7371  0.5669  0.1055
  163MOL0     C21892   7.406   8.047   2.114  0.3476 -0.7167 -0.2793
  163MOL0     C21893   7.502   8.090   2.009 -0.3822  0.4960 -0.2616
  163MOL0     O21894   7.603   7.987   1.985  0.3463  0.3930 -0.4563
  163MOL0     C21895   7.730   8.027   1.935  0.1303 -0.7942 -0.3355
  163MOL0     C21896   7.808   7.911   1.914  0.6380 -0.6477 -0.9319
  163MOL0     C21897   7.934   7.930   1.862 -0.0865 -0.3871 -0.8747
  163MOL0     C21898   7.976   8.056   1.813 -0.9370 -0.6860  1.1190
  163MOL0     C21899   8.120   8.076   1.759  0.0455  0.0306 -0.1980
  163MOL0     O21900   8.167   8.199   1.741 -0.5297 -0.0181 -0.5571
  163MOL0     C21901   8.295   8.212   1.685  0.1618  0.1509 -0.2018
  163MOL0     C21902   8.309   8.217   1.539 -0.8658 -0.1737 -0.1697
  163MOL0     C21903   8.436   8.212   1.479 -0.0990  0.4925 -0.0256
  163MOL0     C21904   8.547   8.207   1.552  0.7114 -0.2849 -0.2698
  163MOL0     O21905   8.664   8.219   1.493  0.0729 -0.3494  0.8167
  163MOL0     C21906   8.765   8.270   1.566  0.5196 -0.2480 -0.6049
  163MOL0     C21907   8.887   8.314   1.482 -0.4765 -0.0150  0.3883
  163MOL0     C21908   9.003   8.364   1.567 -0.8039  0.1498  0.0768
  163MOL0     C21909   9.115   8.402   1.473 -0.1289 -0.5386  0.0059
  163MOL0     C21910   9.249   8.452   1.549 -0.5469  0.8654 -0.3526
  163MOL0     C21911   9.345   8.489   1.438  0.9658 -0.5538  0.3869
  163MOL0     C21912   9.486   8.470   1.481 -0.1399  0.6911  0.0355
  163MOL0     C21913   9.601   8.498   1.377  0.6586  0.1447 -0.8684
  163MOL0    Cl21914   9.622   8.357   1.271 -0.0835  0.2036  0.0542
  163MOL0     C21915   8.534   8.196   1.693 -1.0107  0.3155 -0.1868
  163MOL0     C21916   8.410   8.201   1.763 -0.1096 -0.7863 -0.1020
  163MOL0     O21917   8.187   7.972   1.736  0.1249  0.1429 -0.2976
  163MOL0     C21918   7.890   8.170   1.837 -0.9455 -0.2151  0.5639
  163MOL0     C21919   7.769   8.160   1.900 -0.2884  0.7272 -0.3776
  163MOL0     N21920   6.994   8.231   2.169  0.2862  0.1431 -0.0774
  163MOL0     N21921   6.909   8.319   2.208 -0.6385 -0.3966  0.7431
  163MOL0     C21922   6.489   8.554   3.172  0.1851  0.2297 -0.2475
  163MOL0     C21923   6.378   8.638   3.177 -0.5999  0.3546 -0.1447
  163MOL0     C21924   6.144   9.029   3.338 -0.0821  0.7490  1.0184
  163MOL0     C21925   6.028   8.967   3.295 -0.5843  0.3020 -0.6723
  163MOL0     C21926   5.909   9.024   3.307  0.1059 -0.6124 -0.1724
  163MOL0     C21927   5.893   9.141   3.372 -0.4478  0.0175  0.3690
  163MOL0     O21928   5.775   9.210   3.393  0.1557  0.3825  0.5606
  163MOL0     C21929   5.657   9.134   3.391  0.7031  0.2665 -0.9747
  163MOL0     C21930   5.536   9.214   3.349 -0.7046  0.3602 -0.8718
  163MOL0     C21931   5.402   9.137   3.345  0.6117  0.2502 -0.7071
  163MOL0     C21932   5.365   9.078   3.482  1.1429  0.1796 -0.1975
  163MOL0     C21933   5.243   8.992   3.456  0.2832  0.3766  0.5437
  163MOL0     C21934   5.148   8.926   3.419  0.7147 -0.4351 -0.0920
  163MOL0     C21935   6.006   9.212   3.417  0.7897 -0.0064 -0.2934
  163MOL0     C21936   6.134   9.156   3.397  0.5550  0.5340 -0.7734
  163MOL0     C21937   6.251   9.232   3.446 -0.2888 -0.1554  0.2058
  163MOL0     H21938   6.466   8.797   3.456 -0.4741 -1.8450  1.3141
  163MOL0     H21939   6.661   8.656   3.441  0.1781  0.0392  0.1313
  163MOL0     H21940   6.776   8.291   3.224  0.4260  0.2592 -0.1215
  163MOL0     H21941   6.616   8.329   3.136 -0.3335 -0.1859  0.0149
  163MOL0     H21942   6.889   8.427   3.058  0.5352 -0.8294 -0.1528
  163MOL0     H21943   6.740   8.497   2.991  1.1262  0.5413 -0.2261
  163MOL0     H21944   6.663   8.279   2.910  1.1250 -2.6442 -3.8859
  163MOL0     H21945   6.787   8.192   2.997  0.8836  2.9324  3.4381
  163MOL0     H21946   6.951   8.316   2.836  0.2810 -1.2602  0.0166
  163MOL0     H21947   6.838   8.188   2.774  1.3807 -0.0017  0.9122
  163MOL0     H21948   6.683   8.354   2.668 -1.2758  1.5270  1.1018
  163MOL0     H21949   6.750   8.476   2.767  0.7239  0.2598 -0.8976
  163MOL0     H21950   6.960   8.475   2.657  2.0667 -2.4898 -1.3194
  163MOL0     H21951   6.924   8.331   2.567 -2.2140 -1.2898 -2.6689
  163MOL0     H21952   6.790   8.598   2.511 -1.7813  0.3920  0.3004
  163MOL0     H21953   6.734   8.457   2.431  1.2336  0.2284 -1.2738
  163MOL0     H21954   6.883   8.574   2.295 -0.3499  1.3978  1.3166
  163MOL0     H21955   7.025   8.549   2.411 -0.1392 -0.6275  0.9957
  163MOL0     H21956   7.140   8.344   2.441 -1.9110 -0.2012  1.5415
  163MOL0     H21957   7.270   8.120   2.342  1.2066  1.2161 -0.0972
  163MOL0     H21958   7.163   8.031   2.240  1.2654  0.2272 -1.5855
  163MOL0     H21959   7.233   8.147   2.039 -1.0214 -0.4207  1.2689
  163MOL0     H21960   7.332   8.253   2.130  0.5982  0.6261 -0.3917
  163MOL0     H21961   7.362   7.951   2.084 -0.1762 -0.1527 -1.4019
  163MOL0     H21962   7.450   8.042   2.213  1.4189  1.9774 -0.5495
  163MOL0     H21963   7.558   8.174   2.051  0.7789  0.2880 -1.3400
  163MOL0     H21964   7.442   8.130   1.927 -0.1813  0.1947 -0.5555
  163MOL0     H21965   7.761   7.818   1.945 -0.1639  0.7460  2.4797
  163MOL0     H21966   7.993   7.840   1.850 -0.6412 -1.2166  1.9014
  163MOL0     H21967   8.219   8.224   1.479 -2.1234  2.4294  1.8020
  163MOL0     H21968   8.433   8.226   1.371 -1.4845  1.5458  0.1173
  163MOL0     H21969   8.727   8.356   1.623 -1.0742  0.0309 -2.0262
  163MOL0     H21970   8.808   8.199   1.637  0.6632  3.2607  3.1698
  163MOL0     H21971   8.906   8.229   1.416  2.7906  0.3121  0.7464
  163MOL0     H21972   8.839   8.393   1.425 -2.0716 -0.4807  1.0216
  163MOL0     H21973   8.986   8.454   1.626  0.5853 -0.0868  0.8899
  163MOL0     H21974   9.035   8.284   1.635 -0.9334  1.3621  1.6401
  163MOL0     H21975   9.080   8.479   1.404  0.6089  1.0482  1.3243
  163MOL0     H21976   9.137   8.311   1.417  0.4518 -1.0643  1.0487
  163MOL0     H21977   9.286   8.375   1.617 -0.7130  2.9500  2.2245
  163MOL0     H21978   9.231   8.534   1.619  0.7730 -0.9847  2.3195
  163MOL0     H21979   9.325   8.429   1.348  1.1053  1.2985 -0.9330
  163MOL0     H21980   9.330   8.595   1.417  0.0237 -0.6683  0.4473
  163MOL0     H21981   9.490   8.366   1.513 -0.5778  1.2748  2.1174
  163MOL0     H21982   9.501   8.537   1.566  1.9114 -0.3455  0.5584
  163MOL0     H21983   9.580   8.594   1.329  0.1348 -0.3160 -1.5911
  163MOL0     H21984   9.691   8.528   1.431  0.6076  1.4156 -1.4640
  163MOL0     H21985   8.624   8.199   1.754  0.1363  1.3427 -1.8377
  163MOL0     H21986   8.400   8.181   1.869 -0.5485 -1.2142 -0.2233
  163MOL0     H21987   7.929   8.267   1.808 -0.9916 -0.2927  0.2371
  163MOL0     H21988   7.691   8.235   1.910  1.2670  2.1545  1.8847
  163MOL0     H21989   6.493   8.498   3.079  1.0336  1.3408 -0.8994
  163MOL0     H21990   6.306   8.636   3.096 -1.5131 -0.0207  0.6654
  163MOL0     H21991   6.034   8.875   3.237  0.4496 -0.1490  0.1163
  163MOL0     H21992   5.824   8.978   3.258  0.8397  0.6278 -2.8424
  163MOL0     H21993   5.645   9.102   3.495 -1.9990  0.1781 -1.2544
  163MOL0     H21994   5.648   9.048   3.324 -3.1421 -0.5151  0.3051
  163MOL0     H21995   5.565   9.248   3.249 -0.3981  0.4694 -0.7465
  163MOL0     H21996   5.534   9.302   3.415  0.1184 -2.0112  2.5823
  163MOL0     H21997   5.411   9.055   3.274 -0.3005 -0.1265 -0.3913
  163MOL0     H21998   5.325   9.207   3.312 -0.8303 -2.1121 -2.6622
  163MOL0     H21999   5.443   9.007   3.513  0.0926 -0.3998  1.2404
  163MOL0     H22000   5.344   9.161   3.550 -1.5978  1.8560 -2.8914
  163MOL0     H22001   5.067   8.865   3.386  1.4139 -0.5463 -1.6882
  163MOL0     H22002   5.990   9.313   3.454  0.7014 -0.0598 -0.1851
  163MOL0     H22003   6.296   9.173   3.526 -0.5851 -0.1450  0.3840
  163MOL0     H22004   6.328   9.253   3.372  1.2557 -2.4862  1.0398
  163MOL0     H22005   6.212   9.326   3.487 -1.8121 -0.9540  0.6779
  164MOL0     O22006   7.518   5.687   2.524  0.3423  0.2331 -0.1975
  164MOL0     C22007   7.504   5.793   2.467  0.4819 -0.5144 -0.3106
  164MOL0     O22008   7.600   5.889   2.457 -0.2145 -0.4756  0.1211
  164MOL0     C22009   7.728   5.849   2.428 -0.0380 -0.1614 -0.0404
  164MOL0     C22010   7.812   5.955   2.400  0.6791  0.3769  1.1347
  164MOL0     C22011   7.949   5.950   2.367 -0.4558  0.2652 -0.2484
  164MOL0     C22012   8.010   5.822   2.352 -0.4408 -1.1184 -0.6692
  164MOL0     O22013   8.149   5.836   2.317 -0.6143 -0.1257 -0.4408
  164MOL0     C22014   8.204   5.710   2.266  1.0324 -1.2036 -0.7224
  164MOL0     C22015   8.335   5.741   2.198 -0.3260 -0.5417 -0.3372
  164MOL0     C22016   8.456   5.735   2.307 -0.5737  0.3026  1.2986
  164MOL0     C22017   8.566   5.830   2.265 -0.6519 -0.1802 -0.3788
  164MOL0     C22018   8.688   5.837   2.362  0.6926 -0.6457  0.0352
  164MOL0     C22019   8.800   5.926   2.312  0.1733 -0.6761 -0.1311
  164MOL0     C22020   8.919   5.916   2.408 -0.5612 -0.1526 -0.3647
  164MOL0     C22021   9.049   5.959   2.334  0.1377  0.2415  0.2748
  164MOL0     N22022   9.164   5.969   2.428  0.2563  0.4818 -0.4250
  164MOL0     C22023   9.251   6.073   2.470  0.1832  0.3182 -0.8465
  164MOL0     C22024   9.334   6.022   2.569 -0.2486  0.3078  0.8205
  164MOL0     C22025   9.444   6.087   2.638  0.0866  0.4841  0.2637
  164MOL0     C22026   9.575   6.011   2.624 -0.1678  0.4671  0.3180
  164MOL0     C22027   9.635   6.055   2.488  0.2924 -0.3720  0.5581
  164MOL0     C22028   9.775   5.991   2.478 -0.5967 -0.0288  0.5841
  164MOL0     O22029   9.835   6.038   2.353 -0.2721  0.4043 -0.2070
  164MOL0     C22030   9.955   5.986   2.320 -0.5949  0.2621  1.3541
  164MOL0     C22031  10.029   5.893   2.397 -0.8201 -0.0494 -0.5217
  164MOL0     C22032  10.151   5.839   2.354  1.1177  0.2422 -0.6108
  164MOL0     C22033  10.206   5.869   2.231  0.1250 -0.3565  0.8344
  164MOL0     C22034  10.340   5.825   2.195 -0.7952 -0.2757 -0.5408
  164MOL0     O22035  10.389   5.863   2.072  0.1594  0.1917  0.3190
  164MOL0     C22036  10.499   5.799   2.038  0.0344 -0.0451 -0.0456
  164MOL0     C22037  10.492   5.670   1.981  0.0632 -0.1640 -0.5471
  164MOL0     C22038  10.614   5.599   1.953 -0.5689 -0.3412 -0.6017
  164MOL0     C22039  10.737   5.656   1.995  0.6687  0.3452  0.9901
  164MOL0     O22040  10.855   5.602   1.979 -0.2143 -0.3643  0.2238
  164MOL0     C22041  10.875   5.502   1.879 -0.0934 -0.4283  0.0929
  164MOL0     C22042  11.023   5.500   1.841  1.7988 -0.9855  0.0133
  164MOL0     C22043  11.126   5.465   1.946 -0.4972  0.6475 -0.3487
  164MOL0     C22044  11.274   5.488   1.896  0.2593 -0.8859 -0.5648
  164MOL0     C22045  11.325   5.631   1.906 -0.1385 -0.7061 -0.4464
  164MOL0     C22046  11.479   5.626   1.881  0.5720 -0.8467  0.4221
  164MOL0     C22047  11.546   5.763   1.872  0.7321 -1.3042  0.0981
  164MOL0     C22048  11.693   5.766   1.856  0.9234  0.1094 -0.6896
  164MOL0    Cl22049  11.768   5.722   2.012 -0.1249  0.1374 -0.2101
  164MOL0     C22050  10.744   5.785   2.042 -0.0293 -0.5081  0.0428
  164MOL0     C22051  10.624   5.857   2.059  0.7191  0.5000  0.8751
  164MOL0     O22052  10.400   5.749   2.277  0.3780 -0.3579 -0.7668
  164MOL0     C22053  10.134   5.962   2.152 -0.1396  0.4603  0.0067
  164MOL0     C22054  10.016   6.025   2.197 -0.2161  0.2134  0.5221
  164MOL0     N22055   9.301   5.884   2.580 -0.9238 -0.2749 -0.1296
  164MOL0     N22056   9.201   5.854   2.500  0.4629 -0.3587 -0.0404
  164MOL0     C22057   7.922   5.714   2.375  1.0559  0.9502 -0.0764
  164MOL0     C22058   7.784   5.729   2.394  0.4552 -0.2651  0.3258
  164MOL0     C22059   7.357   5.816   2.439  0.2442 -0.1445  0.3684
  164MOL0     C22060   7.260   5.733   2.494 -0.0764  0.0641  0.0134
  164MOL0     C22061   7.124   5.763   2.484  0.3390 -0.6279  0.5303
  164MOL0     C22062   7.088   5.872   2.411  0.0318 -0.6631  0.0675
  164MOL0     O22063   6.956   5.911   2.406 -0.6180 -1.0301  0.8926
  164MOL0     C22064   6.863   5.803   2.355 -0.2061 -0.5102 -0.0110
  164MOL0     C22065   6.746   5.872   2.288  0.1051  0.7054  0.1963
  164MOL0     C22066   6.647   5.776   2.220 -0.4729 -0.4941 -0.2235
  164MOL0     C22067   6.530   5.861   2.165  0.3491 -0.1400  0.4649
  164MOL0     C22068   6.438   5.763   2.096  0.2359 -0.1856 -0.4472
  164MOL0     C22069   6.374   5.673   2.050 -0.5738  0.4994  0.1288
  164MOL0     C22070   7.176   5.965   2.359 -0.4883  0.2642 -0.0050
  164MOL0     C22071   7.315   5.946   2.382  0.7673 -0.0496 -0.9160
  164MOL0     C22072   7.411   6.054   2.328  0.1086  0.6014 -0.3756
  164MOL0     H22073   7.766   6.052   2.418 -1.9139  0.0340 -2.5605
  164MOL0     H22074   7.998   6.047   2.361 -0.2592  0.5523  3.4438
  164MOL0     H22075   8.215   5.629   2.338  3.0522  1.2319  1.9775
  164MOL0     H22076   8.133   5.685   2.186 -0.9939  1.4539  0.0654
  164MOL0     H22077   8.333   5.840   2.153  0.3534  0.4776  1.7222
  164MOL0     H22078   8.370   5.685   2.111  1.9980  2.4895 -1.5553
  164MOL0     H22079   8.492   5.632   2.302 -0.3584  0.4078 -2.3757
  164MOL0     H22080   8.421   5.762   2.407  0.7102 -0.4975  1.9861
  164MOL0     H22081   8.609   5.795   2.171 -1.6994  2.4094 -1.9237
  164MOL0     H22082   8.530   5.932   2.249  0.2279  0.4015  1.1170
  164MOL0     H22083   8.654   5.870   2.461 -0.1539 -0.7736 -0.2051
  164MOL0     H22084   8.730   5.738   2.382 -0.1872 -1.4638 -1.9092
  164MOL0     H22085   8.830   5.896   2.211  0.9074  0.4967 -0.2754
  164MOL0     H22086   8.770   6.031   2.308  1.6192 -0.1869  1.0668
  164MOL0     H22087   8.931   5.814   2.445  0.9106  0.1996  0.2056
  164MOL0     H22088   8.904   5.983   2.493 -0.7003 -0.0823 -0.4424
  164MOL0     H22089   9.050   5.881   2.258  2.3792 -1.0323  1.4896
  164MOL0     H22090   9.040   6.055   2.284  0.5579  0.5781  0.8286
  164MOL0     H22091   9.259   6.172   2.426  1.3918  0.5577 -0.1132
  164MOL0     H22092   9.453   6.192   2.609  0.7240 -0.4701 -3.5840
  164MOL0     H22093   9.421   6.063   2.742  1.1336 -2.8103 -0.1615
  164MOL0     H22094   9.645   6.034   2.704  0.3025  0.8114 -0.1897
  164MOL0     H22095   9.556   5.904   2.635 -1.0634  0.7870  2.4571
  164MOL0     H22096   9.635   6.164   2.481  2.1679 -0.4521 -3.6889
  164MOL0     H22097   9.574   6.019   2.405  1.7563 -3.3175  0.6029
  164MOL0     H22098   9.774   5.882   2.484  1.6462  0.0123  3.0345
  164MOL0     H22099   9.833   6.023   2.564 -0.8204  0.4504  0.5606
  164MOL0     H22100  10.004   5.849   2.494  2.3195  1.6113  1.1868
  164MOL0     H22101  10.212   5.785   2.426 -0.2104  0.4685  0.7345
  164MOL0     H22102  10.393   5.629   1.963 -0.9713  0.7546  2.3310
  164MOL0     H22103  10.622   5.503   1.902  1.3721  0.2509 -1.4878
  164MOL0     H22104  10.846   5.403   1.914  0.0437 -0.0265  1.3806
  164MOL0     H22105  10.819   5.539   1.792 -0.6461 -0.2859  0.5031
  164MOL0     H22106  11.035   5.434   1.755 -0.9527 -0.2474 -1.0382
  164MOL0     H22107  11.034   5.601   1.801 -0.5910 -1.1726 -1.3083
  164MOL0     H22108  11.107   5.521   2.038  2.3474 -1.4652  1.6721
  164MOL0     H22109  11.126   5.360   1.976  1.4692  1.0148  1.0975
  164MOL0     H22110  11.285   5.469   1.788 -1.0566  1.8278 -1.2666
  164MOL0     H22111  11.341   5.426   1.955  1.6453 -3.3183 -4.2741
  164MOL0     H22112  11.313   5.672   2.007 -0.9545 -0.3015 -0.6966
  164MOL0     H22113  11.268   5.704   1.848 -2.0979 -1.4448  0.4791
  164MOL0     H22114  11.527   5.571   1.963  1.9247 -1.5973 -0.8255
  164MOL0     H22115  11.506   5.576   1.788  0.7869  0.3191 -0.1541
  164MOL0     H22116  11.528   5.819   1.965  2.8216  2.3122 -1.4336
  164MOL0     H22117  11.505   5.818   1.787  3.7529 -1.1562 -1.3550
  164MOL0     H22118  11.724   5.704   1.772  0.2859 -1.1218 -0.0354
  164MOL0     H22119  11.724   5.871   1.844  0.3784  0.3483 -0.1156
  164MOL0     H22120  10.836   5.837   2.067 -0.0209 -0.9730  1.0218
  164MOL0     H22121  10.638   5.958   2.097  1.7854 -0.1028  2.2185
  164MOL0     H22122  10.164   5.993   2.053 -1.4677 -1.2301 -0.9778
  164MOL0     H22123   9.964   6.100   2.139  0.5886  0.4005  0.0199
  164MOL0     H22124   7.959   5.612   2.367 -0.5759  0.4650 -2.2755
  164MOL0     H22125   7.717   5.643   2.389 -0.3839  0.4147 -0.4856
  164MOL0     H22126   7.282   5.647   2.556 -1.1361  0.2430  0.6639
  164MOL0     H22127   7.045   5.706   2.531 -0.6039 -0.0979 -0.3691
  164MOL0     H22128   6.839   5.742   2.442  2.6248 -3.4125 -1.0431
  164MOL0     H22129   6.922   5.741   2.287  3.2035 -0.0108  2.2508
  164MOL0     H22130   6.783   5.946   2.217 -0.6693 -0.1735 -1.1755
  164MOL0     H22131   6.707   5.930   2.372  0.9169  1.0351  0.3476
  164MOL0     H22132   6.606   5.700   2.288 -1.5232  1.4341  1.4383
  164MOL0     H22133   6.705   5.728   2.142  0.7787 -2.0901  1.5943
  164MOL0     H22134   6.483   5.902   2.254 -1.7025  1.9294 -1.4160
  164MOL0     H22135   6.560   5.950   2.108  0.3607  0.0169  0.7158
  164MOL0     H22136   6.316   5.594   2.006  0.5003  0.8988 -2.1316
  164MOL0     H22137   7.146   6.054   2.304  4.2402  0.7894 -2.2124
  164MOL0     H22138   7.469   6.004   2.250  0.5980 -1.2063  1.0761
  164MOL0     H22139   7.353   6.133   2.280 -0.2328 -0.0046 -0.9785
  164MOL0     H22140   7.467   6.095   2.413  0.2446 -2.3161  1.0848
  165MOL0     O22141   1.609   1.630   1.920 -1.1660  0.6221  0.6389
  165MOL0     C22142   1.555   1.719   1.862  0.5238 -0.4564 -0.0884
  165MOL0     O22143   1.602   1.847   1.860  0.4197  0.0586 -0.1918
  165MOL0     C22144   1.730   1.850   1.887 -0.0515 -0.2531  0.2118
  165MOL0     C22145   1.774   1.946   1.982 -0.1844  0.4017  0.3235
  165MOL0     C22146   1.909   1.968   2.008 -0.1876  0.2434  0.0165
  165MOL0     C22147   2.006   1.888   1.950 -0.3273 -0.6345 -0.4980
  165MOL0     O22148   2.135   1.894   2.003 -0.2538 -0.0706 -0.5126
  165MOL0     C22149   2.246   1.830   1.937 -0.1876  0.2480  0.0971
  165MOL0     C22150   2.366   1.847   2.031 -1.0591  0.2950  0.2365
  165MOL0     C22151   2.491   1.803   1.967 -0.3031  0.7220  0.2161
  165MOL0     C22152   2.600   1.797   2.079  0.0460  0.4685  0.7433
  165MOL0     C22153   2.714   1.707   2.032  0.8336  0.3987  0.5153
  165MOL0     C22154   2.821   1.703   2.138 -0.3164  0.2111  0.3881
  165MOL0     C22155   2.906   1.820   2.136  0.1285 -0.4823 -0.0746
  165MOL0     C22156   3.014   1.802   2.244 -0.1138 -0.8438 -0.5140
  165MOL0     N22157   3.112   1.698   2.228 -0.6786  0.8101 -0.0748
  165MOL0     C22158   3.234   1.718   2.169 -0.3256 -0.0995 -0.0268
  165MOL0     C22159   3.310   1.608   2.200 -0.0621  0.0261  0.0826
  165MOL0     C22160   3.444   1.560   2.135 -0.9269  0.0203  0.0173
  165MOL0     C22161   3.569   1.613   2.197  0.6508  0.2137 -0.6146
  165MOL0     C22162   3.685   1.598   2.098 -0.4200 -0.1471 -0.7426
  165MOL0     C22163   3.737   1.452   2.080  0.2370  0.6479 -0.4996
  165MOL0     O22164   3.841   1.410   2.163  0.4752 -0.1535  0.2911
  165MOL0     C22165   3.968   1.434   2.123 -0.4689  0.0058 -0.3732
  165MOL0     C22166   4.072   1.383   2.202 -0.4461 -1.0941 -0.0870
  165MOL0     C22167   4.203   1.414   2.169 -0.2905  0.3981  1.6129
  165MOL0     C22168   4.235   1.488   2.043 -0.2083 -0.5395 -0.4898
  165MOL0     C22169   4.377   1.506   2.005  0.3571 -0.8074  0.3441
  165MOL0     O22170   4.396   1.548   1.873  0.7014 -0.5605 -0.1564
  165MOL0     C22171   4.525   1.563   1.833  0.1618 -0.2242 -0.7014
  165MOL0     C22172   4.595   1.444   1.792  0.3722 -0.5986  0.1548
  165MOL0     C22173   4.722   1.470   1.731  0.8226  0.1577 -0.4600
  165MOL0     C22174   4.780   1.596   1.721 -0.4390 -0.2563 -0.0886
  165MOL0     O22175   4.907   1.603   1.660  0.4881 -0.0662 -0.0029
  165MOL0     C22176   4.981   1.719   1.687  0.0504  0.4339 -0.1178
  165MOL0     C22177   5.122   1.684   1.631  1.0252 -0.0365  0.1621
  165MOL0     C22178   5.190   1.573   1.716 -0.2446  0.0914 -0.1156
  165MOL0     C22179   5.257   1.628   1.847  1.3486  0.0597  1.0209
  165MOL0     C22180   5.357   1.529   1.901 -0.0691 -0.6923 -0.1558
  165MOL0     C22181   5.401   1.568   2.043 -0.2781  0.1273  0.0041
  165MOL0     C22182   5.285   1.527   2.139 -0.1568 -0.4415 -0.1076
  165MOL0     C22183   5.334   1.405   2.209  0.8765  0.2442 -0.1235
  165MOL0    Cl22184   5.241   1.399   2.360 -0.0344  0.2902  0.0636
  165MOL0     C22185   4.711   1.713   1.773  0.4217 -0.2263  0.8693
  165MOL0     C22186   4.582   1.691   1.832 -0.3444  1.0914  0.1735
  165MOL0     O22187   4.464   1.489   2.087  0.2840 -0.1441 -0.2443
  165MOL0     C22188   4.129   1.537   1.964  0.3042  0.6268  0.2593
  165MOL0     C22189   4.000   1.511   2.007  0.9976 -0.4023 -0.5981
  165MOL0     N22190   3.228   1.521   2.273  0.8326 -0.2500  0.0941
  165MOL0     N22191   3.106   1.567   2.269 -0.6579  0.7518 -0.6162
  165MOL0     C22192   1.966   1.792   1.854 -0.2136  0.2210 -0.4944
  165MOL0     C22193   1.831   1.770   1.824 -0.2332 -0.6994  0.0344
  165MOL0     C22194   1.413   1.706   1.825  0.9680 -0.2119  0.0643
  165MOL0     C22195   1.331   1.822   1.816 -0.7428 -0.2852 -0.3224
  165MOL0     C22196   1.196   1.822   1.790 -0.7100  0.9789 -0.1282
  165MOL0     C22197   1.134   1.703   1.764 -0.5870  0.0053 -0.1003
  165MOL0     O22198   1.003   1.716   1.724  0.1020  0.1990 -0.0960
  165MOL0     C22199   0.969   1.620   1.625  0.5698  0.1654  0.4506
  165MOL0     C22200   0.819   1.596   1.633 -0.8148 -0.4256 -0.4466
  165MOL0     C22201   0.773   1.487   1.541  0.3041 -0.5952  1.0900
  165MOL0     C22202   0.624   1.505   1.504  0.1405  0.3606  0.0425
  165MOL0     C22203   0.591   1.594   1.393 -0.4855  1.2212 -0.6088
  165MOL0     C22204   0.551   1.667   1.309 -0.5788  0.3455 -0.2491
  165MOL0     C22205   1.203   1.583   1.785  0.9836  0.9794 -0.0229
  165MOL0     C22206   1.341   1.579   1.809  0.8969 -0.4577  0.4215
  165MOL0     C22207   1.402   1.447   1.823  0.5225  0.4152  0.1960
  165MOL0     H22208   1.703   2.004   2.039  0.8758  2.4107 -0.3188
  165MOL0     H22209   1.941   2.039   2.083 -3.2397  1.4976  0.2465
  165MOL0     H22210   2.218   1.725   1.928  0.2942 -0.0363  1.6555
  165MOL0     H22211   2.279   1.879   1.845 -1.8322  1.4033  0.0807
  165MOL0     H22212   2.343   1.781   2.115 -2.3171  0.6613  0.2059
  165MOL0     H22213   2.382   1.951   2.061 -0.7343 -0.1446  1.6900
  165MOL0     H22214   2.527   1.873   1.891 -0.7223 -1.3434 -2.0050
  165MOL0     H22215   2.478   1.708   1.916  3.2046 -0.4859  1.3153
  165MOL0     H22216   2.638   1.897   2.102 -2.1506  1.2675  1.1680
  165MOL0     H22217   2.553   1.765   2.172  0.4113  1.6070  1.3395
  165MOL0     H22218   2.678   1.605   2.012  1.6159  0.4707 -1.6317
  165MOL0     H22219   2.747   1.743   1.934 -1.1367  2.6079  0.5845
  165MOL0     H22220   2.789   1.680   2.240  0.6213 -1.5544  0.3187
  165MOL0     H22221   2.890   1.624   2.109  0.2149  0.7033  0.2937
  165MOL0     H22222   2.851   1.909   2.168  0.3331 -0.6887  0.8661
  165MOL0     H22223   2.959   1.827   2.040  0.9100  0.2040  0.3886
  165MOL0     H22224   3.063   1.895   2.274  1.3333 -1.9350  0.6579
  165MOL0     H22225   2.967   1.763   2.334 -0.1718  1.4680  0.5351
  165MOL0     H22226   3.275   1.803   2.116  0.9370 -0.4195  0.3831
  165MOL0     H22227   3.455   1.452   2.152  1.3725  0.3190  0.7812
  165MOL0     H22228   3.435   1.587   2.029 -1.7252  1.9720  0.5464
  165MOL0     H22229   3.570   1.721   2.213 -0.9517  0.2606 -0.6885
  165MOL0     H22230   3.587   1.575   2.298  0.4026  0.4638 -0.4743
  165MOL0     H22231   3.763   1.669   2.129 -1.5415  1.1218 -0.7338
  165MOL0     H22232   3.640   1.619   2.000 -3.6771 -2.2691  0.1542
  165MOL0     H22233   3.750   1.431   1.973 -0.8155 -0.9353 -0.3475
  165MOL0     H22234   3.654   1.389   2.113  0.5885  0.3502 -0.1787
  165MOL0     H22235   4.048   1.318   2.286 -1.1499 -0.2291  0.4081
  165MOL0     H22236   4.287   1.381   2.229  1.0859  1.2201  0.2081
  165MOL0     H22237   4.558   1.343   1.808  2.5504 -1.0059  3.6299
  165MOL0     H22238   4.783   1.385   1.706 -0.1062 -0.3028 -1.2300
  165MOL0     H22239   4.947   1.804   1.629  1.3342  1.1151  0.0826
  165MOL0     H22240   4.973   1.735   1.795 -0.6099 -1.8596  0.2363
  165MOL0     H22241   5.101   1.651   1.529 -1.1131  0.1497  0.5021
  165MOL0     H22242   5.182   1.775   1.620 -0.9716  1.2361 -0.7245
  165MOL0     H22243   5.114   1.502   1.753 -0.2907  2.2883  4.7931
  165MOL0     H22244   5.268   1.537   1.648 -1.7535 -0.5298 -1.5924
  165MOL0     H22245   5.176   1.658   1.914  0.3322  0.3043 -0.2751
  165MOL0     H22246   5.308   1.722   1.825  0.3112  0.2878 -0.5868
  165MOL0     H22247   5.444   1.519   1.835  1.1584 -0.7194  1.3846
  165MOL0     H22248   5.312   1.431   1.923  0.7915 -0.8407  1.0519
  165MOL0     H22249   5.501   1.530   2.067  0.5957  3.2990  1.9901
  165MOL0     H22250   5.414   1.675   2.058 -0.7219 -0.2496  4.0175
  165MOL0     H22251   5.189   1.516   2.088 -1.0929  3.0490  0.6372
  165MOL0     H22252   5.273   1.612   2.207  0.0263 -0.2069 -0.3662
  165MOL0     H22253   5.327   1.312   2.151  0.9906 -1.0739  1.8750
  165MOL0     H22254   5.438   1.415   2.239  0.5181 -1.7733  2.1078
  165MOL0     H22255   4.750   1.814   1.767  1.0420 -0.3916  1.9185
  165MOL0     H22256   4.524   1.773   1.873 -0.5263  2.1463 -2.0120
  165MOL0     H22257   4.146   1.598   1.876 -0.2085  2.2402  1.2313
  165MOL0     H22258   3.918   1.555   1.952  0.7936 -0.1822 -0.1298
  165MOL0     H22259   2.034   1.718   1.812 -1.1077 -0.9162  0.0121
  165MOL0     H22260   1.818   1.695   1.747  0.6175 -0.3695 -0.4548
  165MOL0     H22261   1.374   1.919   1.839  0.9925 -1.0380 -0.2086
  165MOL0     H22262   1.144   1.915   1.769  1.2453  2.1635  0.0649
  165MOL0     H22263   1.016   1.522   1.636 -0.4907 -0.2499  1.5243
  165MOL0     H22264   0.995   1.650   1.523  1.4126 -1.3313  0.1949
  165MOL0     H22265   0.766   1.689   1.612  0.4172  0.2211 -0.8333
  165MOL0     H22266   0.797   1.575   1.738  0.9376  4.1930  1.1320
  165MOL0     H22267   0.787   1.388   1.584 -0.7060 -1.1990  0.0703
  165MOL0     H22268   0.834   1.496   1.450 -1.4035 -0.7074 -0.1093
  165MOL0     H22269   0.584   1.412   1.462  0.6021 -0.2096  0.8302
  165MOL0     H22270   0.577   1.522   1.602  2.5356  1.3581  1.1041
  165MOL0     H22271   0.504   1.733   1.239 -2.1851 -0.6192 -0.1332
  165MOL0     H22272   1.140   1.496   1.788  0.6673  1.2053 -0.1031
  165MOL0     H22273   1.342   1.380   1.761  1.8703  0.7560 -1.5600
  165MOL0     H22274   1.502   1.438   1.778  0.4884 -0.7031  0.3213
  165MOL0     H22275   1.402   1.405   1.924 -0.6382 -1.9293 -0.7091
  166MOL0     O22276   0.216   6.958   2.951 -0.4324 -0.4375 -0.1643
  166MOL0     C22277   0.144   6.970   3.049  0.0046 -0.6067 -0.3282
  166MOL0     O22278   0.154   6.893   3.162 -0.4616 -0.3054  0.1035
  166MOL0     C22279   0.252   6.789   3.160  0.5277  0.0573 -0.6498
  166MOL0     C22280   0.214   6.657   3.157  0.2983  0.4389  0.3204
  166MOL0     C22281   0.314   6.561   3.173  0.8805  0.3019 -0.1824
  166MOL0     C22282   0.448   6.602   3.177  0.3523 -0.1077  0.9029
  166MOL0     O22283   0.557   6.524   3.182  0.0172  0.3045  0.3052
  166MOL0     C22284   0.540   6.382   3.197 -0.3817 -0.3350 -0.4682
  166MOL0     C22285   0.516   6.325   3.339 -0.2780 -1.1590  0.3270
  166MOL0     C22286   0.613   6.365   3.450 -0.6610  0.0118 -0.1494
  166MOL0     C22287   0.753   6.333   3.415  1.3867  0.1346  0.2868
  166MOL0     C22288   0.851   6.364   3.522 -0.1698 -0.8492  0.0418
  166MOL0     C22289   0.995   6.330   3.500 -0.8133 -0.5326  0.0613
  166MOL0     C22290   1.048   6.375   3.357 -0.5695 -0.2522  0.3855
  166MOL0     C22291   1.192   6.333   3.322 -0.2168  1.1583 -0.1002
  166MOL0     N22292   1.306   6.338   3.416  0.0824 -0.3493  0.5163
  166MOL0     C22293   1.312   6.254   3.523 -0.6642  0.0412 -0.3280
  166MOL0     C22294   1.433   6.277   3.581 -0.3567  0.5233  0.3096
  166MOL0     C22295   1.498   6.223   3.715 -0.5194 -0.6311  0.3495
  166MOL0     C22296   1.620   6.304   3.761  0.0380  0.3454  0.0363
  166MOL0     C22297   1.668   6.252   3.899  0.6738  0.3005  0.4860
  166MOL0     C22298   1.765   6.352   3.959 -0.6957  0.4512  0.0014
  166MOL0     O22299   1.800   6.286   4.085  0.0128 -0.3751  0.4992
  166MOL0     C22300   1.936   6.266   4.096 -1.0189 -0.3486 -0.1023
  166MOL0     C22301   1.998   6.295   4.219  0.4864  0.0628 -0.0340
  166MOL0     C22302   2.139   6.295   4.244  0.8566  0.6829 -0.4424
  166MOL0     C22303   2.220   6.259   4.137 -0.0422  0.2767  0.2195
  166MOL0     C22304   2.371   6.273   4.153 -0.3742 -0.7071 -0.0547
  166MOL0     O22305   2.423   6.306   4.271  0.4061  0.3223 -0.3500
  166MOL0     C22306   2.560   6.307   4.280  0.4124 -0.2844 -0.1043
  166MOL0     C22307   2.646   6.395   4.202 -0.7268 -0.1098  0.9966
  166MOL0     C22308   2.787   6.375   4.205  0.6426  0.0358  0.0045
  166MOL0     C22309   2.847   6.266   4.282  0.3581 -0.1997  0.3066
  166MOL0     O22310   2.980   6.236   4.278  0.2581 -0.7792 -0.4707
  166MOL0     C22311   3.060   6.329   4.207 -0.2599  0.5967  0.1990
  166MOL0     C22312   3.210   6.287   4.209 -0.5572  0.3090 -0.0557
  166MOL0     C22313   3.235   6.156   4.123  0.4776 -0.4944 -0.9828
  166MOL0     C22314   3.379   6.120   4.111 -0.0069  0.0261  0.3246
  166MOL0     C22315   3.415   6.036   3.981 -0.1268 -0.0735 -0.9483
  166MOL0     C22316   3.567   6.038   3.953  0.4053 -0.3947 -0.4889
  166MOL0     C22317   3.586   5.971   3.817 -0.2151 -0.2677  0.5350
  166MOL0     C22318   3.653   6.073   3.719  1.1027 -0.5559  0.1409
  166MOL0    Cl22319   3.818   6.090   3.768 -0.3951  0.0583 -0.5389
  166MOL0     C22320   2.768   6.190   4.362 -0.6238 -0.1018  0.8587
  166MOL0     C22321   2.629   6.206   4.361  0.2321  1.1398  1.2868
  166MOL0     O22322   2.435   6.269   4.050  0.2948  0.2401 -0.1450
  166MOL0     C22323   2.166   6.224   4.009  0.9914 -0.1181  1.1678
  166MOL0     C22324   2.028   6.222   3.993  1.2359 -0.7735  0.6341
  166MOL0     N22325   1.487   6.377   3.507 -0.6084 -0.9255 -0.9688
  166MOL0     N22326   1.411   6.415   3.410 -0.5276 -0.5549 -0.6646
  166MOL0     C22327   0.483   6.733   3.179 -0.5934 -0.3340 -0.2309
  166MOL0     C22328   0.385   6.827   3.187  0.0467  0.1492  0.2620
  166MOL0     C22329   0.021   7.060   3.033 -0.9298  0.1343  0.0515
  166MOL0     C22330  -0.110   7.019   3.057  0.2213 -0.0736  0.4310
  166MOL0     C22331  -0.216   7.107   3.048  0.6216 -0.4327  0.4025
  166MOL0     C22332  -0.200   7.224   2.979 -0.4570 -0.1176 -0.0196
  166MOL0     O22333  -0.311   7.288   2.942  0.3150 -0.1105  0.1659
  166MOL0     C22334  -0.308   7.368   2.830  0.2425  0.2199  0.5030
  166MOL0     C22335  -0.450   7.383   2.777  0.1036 -0.8207 -0.0940
  166MOL0     C22336  -0.547   7.450   2.874  0.0328  0.5998 -0.3335
  166MOL0     C22337  -0.681   7.471   2.808 -0.0474  0.4757  0.7018
  166MOL0     C22338  -0.789   7.494   2.911 -0.0200  1.0240 -0.6640
  166MOL0     C22339  -0.884   7.515   2.987  0.0159 -0.6191  0.2834
  166MOL0     C22340  -0.072   7.263   2.947  0.2071 -0.1346 -1.0209
  166MOL0     C22341   0.040   7.190   2.972  0.2182 -0.3069 -0.5345
  166MOL0     C22342   0.178   7.246   2.942  0.4935  0.0193  0.2857
  166MOL0     H22343   0.112   6.630   3.136 -0.0609  0.8932  1.3941
  166MOL0     H22344   0.290   6.456   3.185  0.7239  0.5679  2.3014
  166MOL0     H22345   0.458   6.343   3.135 -1.2219  0.4930  0.0821
  166MOL0     H22346   0.635   6.340   3.165 -0.9570 -1.2229 -1.0589
  166MOL0     H22347   0.495   6.218   3.337 -1.2678 -0.9684 -1.5102
  166MOL0     H22348   0.421   6.368   3.371 -0.7026 -1.5411 -0.3891
  166MOL0     H22349   0.596   6.299   3.535  4.7667 -1.6317  0.0235
  166MOL0     H22350   0.614   6.473   3.472 -0.4970  0.4622 -2.1281
  166MOL0     H22351   0.764   6.225   3.399  3.1961  0.3589 -0.2645
  166MOL0     H22352   0.783   6.393   3.328 -3.6492  3.2442  0.2875
  166MOL0     H22353   0.850   6.470   3.548 -0.2389 -1.1067  1.1359
  166MOL0     H22354   0.824   6.309   3.613  1.6474 -0.4292  0.8749
  166MOL0     H22355   1.059   6.384   3.569  0.0282 -0.2667 -0.8995
  166MOL0     H22356   1.001   6.221   3.509 -0.0893 -0.4178  1.0159
  166MOL0     H22357   1.049   6.484   3.355 -2.1581 -0.1902  1.6394
  166MOL0     H22358   0.988   6.334   3.274 -0.4841  0.7066 -0.1593
  166MOL0     H22359   1.192   6.229   3.289 -1.3443  1.3690 -0.8102
  166MOL0     H22360   1.227   6.384   3.232  0.9080 -4.1092 -3.0702
  166MOL0     H22361   1.244   6.183   3.568 -0.9481  1.3434  1.3791
  166MOL0     H22362   1.427   6.250   3.794 -1.0352  0.6966 -0.5311
  166MOL0     H22363   1.518   6.115   3.712 -1.6915 -0.9698  2.3173
  166MOL0     H22364   1.706   6.287   3.696 -1.1182  0.7791 -1.6895
  166MOL0     H22365   1.605   6.412   3.769  1.5035  0.4603  1.9115
  166MOL0     H22366   1.714   6.153   3.886 -2.5672 -1.3122  0.2334
  166MOL0     H22367   1.587   6.253   3.972  1.1706  0.0205  1.0516
  166MOL0     H22368   1.718   6.449   3.979  0.7063  0.9830  0.8598
  166MOL0     H22369   1.851   6.379   3.899 -0.0904 -1.1449  0.1040
  166MOL0     H22370   1.930   6.303   4.303 -2.5610 -0.0973 -2.3014
  166MOL0     H22371   2.181   6.310   4.343  0.6214 -1.9121  0.1200
  166MOL0     H22372   2.609   6.470   4.132  0.8054  0.6407  0.9279
  166MOL0     H22373   2.838   6.450   4.146 -1.2933  0.5966 -1.0294
  166MOL0     H22374   3.030   6.331   4.102 -1.8677  2.0415  0.6274
  166MOL0     H22375   3.051   6.434   4.234  1.0319  1.2277 -1.6667
  166MOL0     H22376   3.266   6.372   4.170 -1.0608  1.3417  1.3864
  166MOL0     H22377   3.248   6.276   4.312 -1.0206  2.8872  0.4636
  166MOL0     H22378   3.176   6.072   4.161  1.1136 -0.5191 -0.0175
  166MOL0     H22379   3.195   6.171   4.022 -2.9179 -1.2903  0.1182
  166MOL0     H22380   3.397   6.051   4.193 -3.3288 -0.3034  0.8946
  166MOL0     H22381   3.452   6.201   4.124 -1.5714  1.3316  1.2726
  166MOL0     H22382   3.361   6.088   3.901 -2.7563 -1.5168 -0.2106
  166MOL0     H22383   3.376   5.934   3.979  1.9194 -0.8926 -1.9500
  166MOL0     H22384   3.601   6.139   3.979 -1.4324 -0.0985  0.9678
  166MOL0     H22385   3.614   5.974   4.029 -1.1940  1.8218  2.6299
  166MOL0     H22386   3.489   5.949   3.772 -0.0509 -2.6946  1.2173
  166MOL0     H22387   3.646   5.880   3.826  1.4197  0.8083  1.1217
  166MOL0     H22388   3.642   6.037   3.616  2.3320  0.5449 -0.3991
  166MOL0     H22389   3.611   6.173   3.722  2.6431  0.2056 -1.7377
  166MOL0     H22390   2.803   6.098   4.409 -0.9534  0.2867  1.8958
  166MOL0     H22391   2.570   6.126   4.405  0.0033  0.1858 -0.6493
  166MOL0     H22392   2.223   6.190   3.923 -0.8183 -0.3443 -0.0053
  166MOL0     H22393   1.989   6.195   3.895  1.2687  3.5419 -0.8022
  166MOL0     H22394   0.587   6.763   3.169 -1.0801  1.1237 -1.3982
  166MOL0     H22395   0.404   6.934   3.182  0.8368  0.0091 -3.9779
  166MOL0     H22396  -0.125   6.915   3.082  0.8562 -1.9914 -5.4808
  166MOL0     H22397  -0.313   7.072   3.081  0.7789 -0.4754  0.8149
  166MOL0     H22398  -0.255   7.316   2.750  0.3930 -0.1150  0.8194
  166MOL0     H22399  -0.257   7.461   2.855  0.5062 -0.4026  2.3974
  166MOL0     H22400  -0.499   7.290   2.747  0.1742 -0.6411 -0.8015
  166MOL0     H22401  -0.435   7.460   2.700  0.1135  1.6300  2.1901
  166MOL0     H22402  -0.499   7.541   2.912  2.3653 -1.6202  2.6130
  166MOL0     H22403  -0.559   7.382   2.959  0.1331  0.3831 -0.4933
  166MOL0     H22404  -0.680   7.557   2.741 -2.0081  2.3829  2.8991
  166MOL0     H22405  -0.715   7.394   2.739  0.3142  0.9085  0.0323
  166MOL0     H22406  -0.965   7.521   3.057  0.6760  0.3920  0.9883
  166MOL0     H22407  -0.053   7.358   2.897 -0.1235  1.5598  1.8744
  166MOL0     H22408   0.220   7.195   2.855  0.1457 -0.8398  0.6133
  166MOL0     H22409   0.162   7.353   2.926  3.3397  0.4260 -0.3458
  166MOL0     H22410   0.257   7.244   3.018  0.7414  1.5846  0.1088
  167MOL0     O22411  11.038   4.608   8.769 -0.5011 -0.0465  0.0693
  167MOL0     C22412  10.972   4.520   8.727 -0.2629  0.0502 -0.5348
  167MOL0     O22413  11.024   4.419   8.655  0.5447  0.1813  0.1716
  167MOL0     C22414  11.160   4.394   8.666 -0.0233 -0.4591 -0.7406
  167MOL0     C22415  11.232   4.383   8.546  0.4151  0.1468 -0.0654
  167MOL0     C22416  11.361   4.325   8.548  0.0757 -0.0355  0.2595
  167MOL0     C22417  11.423   4.302   8.669 -0.1828 -0.4030 -0.6782
  167MOL0     O22418  11.554   4.262   8.664  0.5850  0.3442 -0.3139
  167MOL0     C22419  11.640   4.260   8.771  0.5678 -0.0441 -0.7467
  167MOL0     C22420  11.783   4.223   8.731  0.4837  0.0486 -0.1070
  167MOL0     C22421  11.859   4.180   8.849 -0.7908  0.1820  0.0520
  167MOL0     C22422  11.998   4.133   8.805 -0.1887  0.3763  0.0295
  167MOL0     C22423  12.091   4.101   8.925 -0.2500 -0.3300  0.8239
  167MOL0     C22424  12.113   4.210   9.029 -0.5689 -0.2757 -0.2113
  167MOL0     C22425  12.207   4.159   9.141  0.1798  0.5310 -0.0344
  167MOL0     C22426  12.349   4.127   9.085  0.7406 -0.8424  0.1106
  167MOL0     N22427  12.437   4.090   9.196  0.2755  1.5537  0.5203
  167MOL0     C22428  12.509   4.179   9.269  0.1839 -0.3556  0.3870
  167MOL0     C22429  12.548   4.107   9.374 -0.9526 -0.0460 -0.2127
  167MOL0     C22430  12.634   4.162   9.486 -0.3751  0.7867  0.0707
  167MOL0     C22431  12.537   4.176   9.616 -0.0665 -0.2872 -0.2782
  167MOL0     C22432  12.446   4.304   9.607 -0.0651 -0.7100 -0.1242
  167MOL0     C22433  12.335   4.286   9.709  0.6025 -0.0098  0.9842
  167MOL0     O22434  12.391   4.284   9.846  0.2809  0.1687  0.5679
  167MOL0     C22435  12.303   4.317   9.947 -0.6911 -0.4086  1.3438
  167MOL0     C22436  12.349   4.375  10.062 -0.1890  1.0602 -0.7025
  167MOL0     C22437  12.272   4.414  10.171  0.1707  1.3333  0.3724
  167MOL0     C22438  12.126   4.401  10.162  0.1164  0.2982 -0.0007
  167MOL0     C22439  12.032   4.442  10.271  0.4156 -0.8153  0.7671
  167MOL0     O22440  11.903   4.468  10.232 -0.8078  0.5444 -0.1526
  167MOL0     C22441  11.816   4.499  10.338 -0.0089 -0.1275 -0.7633
  167MOL0     C22442  11.810   4.630  10.387  0.5848 -0.3448  0.2370
  167MOL0     C22443  11.723   4.661  10.495  0.1512 -0.0897 -0.1808
  167MOL0     C22444  11.635   4.566  10.548 -0.4599 -0.0366 -0.1711
  167MOL0     O22445  11.564   4.615  10.653 -0.0071  0.5531 -0.1921
  167MOL0     C22446  11.448   4.535  10.690 -0.0296  0.3951 -0.2368
  167MOL0     C22447  11.392   4.597  10.820 -0.3514  0.6699  0.1712
  167MOL0     C22448  11.484   4.590  10.933 -0.2952  0.0551  0.6730
  167MOL0     C22449  11.441   4.628  11.065  0.5457 -0.2369 -0.0046
  167MOL0     C22450  11.553   4.695  11.152  0.1771  0.0901  0.4745
  167MOL0     C22451  11.680   4.606  11.163 -0.5025  0.2962 -0.0063
  167MOL0     C22452  11.651   4.480  11.224 -0.2010 -0.2166  0.3754
  167MOL0     C22453  11.771   4.381  11.206  0.4561  0.6842 -0.2258
  167MOL0    Cl22454  11.932   4.453  11.251  0.0916  0.2067  0.4096
  167MOL0     C22455  11.635   4.443  10.491 -0.4821  0.4658 -0.1792
  167MOL0     C22456  11.730   4.406  10.387 -0.5296  0.3218 -0.7781
  167MOL0     O22457  12.077   4.445  10.388  0.3680 -0.1040  0.1382
  167MOL0     C22458  12.077   4.347  10.045 -0.2469 -0.2607  0.4599
  167MOL0     C22459  12.162   4.304   9.945  0.8793  0.2519  0.2955
  167MOL0     N22460  12.513   3.972   9.351  0.1941  0.5218 -0.5203
  167MOL0     N22461  12.439   3.964   9.251  0.0657 -0.6614  0.7886
  167MOL0     C22462  11.357   4.325   8.787  0.1743 -0.5629 -0.3627
  167MOL0     C22463  11.225   4.364   8.795 -0.2171 -1.0096 -0.4427
  167MOL0     C22464  10.827   4.518   8.756  1.2170  0.3887  0.5755
  167MOL0     C22465  10.738   4.432   8.669  0.3167  0.1663  0.1035
  167MOL0     C22466  10.606   4.415   8.695  0.2825 -1.0521 -0.0888
  167MOL0     C22467  10.544   4.467   8.809 -0.4296  0.1616  0.4866
  167MOL0     O22468  10.416   4.434   8.850 -0.1818 -0.7259  0.1043
  167MOL0     C22469  10.342   4.339   8.783  0.8943  0.2061 -0.0869
  167MOL0     C22470  10.194   4.358   8.820 -0.6901  0.2240 -1.0652
  167MOL0     C22471  10.118   4.240   8.760 -0.8428  0.0916 -0.1031
  167MOL0     C22472   9.964   4.264   8.770 -0.5724 -0.3083  0.0090
  167MOL0     C22473   9.883   4.152   8.714 -0.4228  0.6821  0.0861
  167MOL0     C22474   9.812   4.074   8.660  0.1345 -0.1558 -0.2205
  167MOL0     C22475  10.628   4.540   8.897  0.6298  1.3668 -0.5087
  167MOL0     C22476  10.766   4.573   8.870  0.1471  0.3086  0.2676
  167MOL0     C22477  10.836   4.654   8.976 -0.2930  0.7080 -0.4183
  167MOL0     H22478  11.188   4.407   8.450 -1.2048 -0.4294  0.5050
  167MOL0     H22479  11.407   4.317   8.450 -4.0675  1.6206 -2.1196
  167MOL0     H22480  11.643   4.359   8.817  1.2640  0.0195 -0.9234
  167MOL0     H22481  11.594   4.189   8.841  1.6472 -0.1176 -0.1011
  167MOL0     H22482  11.836   4.305   8.680 -0.0282 -1.4082 -3.2538
  167MOL0     H22483  11.785   4.142   8.657 -1.4824 -0.6822  0.6004
  167MOL0     H22484  11.802   4.101   8.899 -1.5876  0.2865 -0.6707
  167MOL0     H22485  11.862   4.264   8.919 -0.1137  1.7053 -1.7520
  167MOL0     H22486  11.992   4.048   8.737 -1.5579  2.4430 -2.6681
  167MOL0     H22487  12.053   4.213   8.753 -0.6308  1.0196  0.5417
  167MOL0     H22488  12.034   4.025   8.979 -2.0317  0.7751  0.5954
  167MOL0     H22489  12.188   4.075   8.882 -0.3092  2.3275 -1.2109
  167MOL0     H22490  12.171   4.290   8.982  0.6463 -0.2238  1.2725
  167MOL0     H22491  12.029   4.253   9.084 -1.6749 -2.4488 -0.1141
  167MOL0     H22492  12.173   4.064   9.184 -1.4889  1.1368  0.0452
  167MOL0     H22493  12.220   4.237   9.216  1.0479  2.1822 -1.7977
  167MOL0     H22494  12.349   4.046   9.012 -0.7257  0.0034 -0.8836
  167MOL0     H22495  12.386   4.211   9.026 -0.3636 -1.1631 -1.1068
  167MOL0     H22496  12.529   4.286   9.259  1.1904 -0.6374 -0.8779
  167MOL0     H22497  12.718   4.094   9.502  1.1410  1.9328 -2.3842
  167MOL0     H22498  12.676   4.262   9.467 -1.3762  1.2739  0.3577
  167MOL0     H22499  12.475   4.086   9.623 -1.2620  0.6323  2.0865
  167MOL0     H22500  12.594   4.179   9.709 -1.1729  0.8493  0.3956
  167MOL0     H22501  12.401   4.311   9.507 -1.8311  0.7243  0.7119
  167MOL0     H22502  12.501   4.397   9.620  1.5597 -1.7446  0.6953
  167MOL0     H22503  12.282   4.190   9.705  3.0248 -1.3903 -0.0522
  167MOL0     H22504  12.264   4.368   9.698  2.6767  1.7550  0.1734
  167MOL0     H22505  12.457   4.387  10.063 -0.0269  0.1375 -2.5643
  167MOL0     H22506  12.331   4.449  10.255  0.2036 -0.0512  0.9472
  167MOL0     H22507  11.867   4.706  10.335 -1.3493  1.4004  0.5267
  167MOL0     H22508  11.726   4.763  10.533  2.5076 -0.0347 -0.3650
  167MOL0     H22509  11.370   4.534  10.614  1.7213 -1.9192 -2.1444
  167MOL0     H22510  11.468   4.430  10.713 -1.6790 -0.0871 -0.8512
  167MOL0     H22511  11.368   4.701  10.796  1.0719  0.6689 -1.4645
  167MOL0     H22512  11.301   4.538  10.837  1.1680 -1.7765  0.3260
  167MOL0     H22513  11.520   4.486  10.935  1.7520  0.7256  1.6429
  167MOL0     H22514  11.567   4.657  10.909 -1.0779  1.4148  1.6232
  167MOL0     H22515  11.396   4.546  11.121  2.2350  0.6733  2.9311
  167MOL0     H22516  11.355   4.694  11.050 -0.8397 -2.2357 -1.2192
  167MOL0     H22517  11.509   4.714  11.251 -0.9101 -0.6118  0.1411
  167MOL0     H22518  11.579   4.789  11.102  0.9465 -0.7641 -0.7820
  167MOL0     H22519  11.732   4.596  11.067  2.0410 -2.1763  1.4778
  167MOL0     H22520  11.755   4.648  11.231  1.8890 -2.5616 -0.6318
  167MOL0     H22521  11.562   4.448  11.170  0.0146  2.8715 -2.0774
  167MOL0     H22522  11.628   4.493  11.331 -2.7245  1.4719 -0.2976
  167MOL0     H22523  11.754   4.286  11.258 -0.1237 -0.2019 -1.9289
  167MOL0     H22524  11.769   4.356  11.099 -1.2175 -2.2933  0.3668
  167MOL0     H22525  11.580   4.368  10.547  0.3125  0.2211  0.2947
  167MOL0     H22526  11.724   4.303  10.353 -1.5237 -0.8745  2.6073
  167MOL0     H22527  11.972   4.332  10.023 -0.0732 -1.8797  0.6156
  167MOL0     H22528  12.118   4.252   9.861  2.9062 -0.7232 -0.2184
  167MOL0     H22529  11.402   4.303   8.883 -0.2915 -1.6501 -0.3771
  167MOL0     H22530  11.171   4.371   8.889  0.1958  1.6736 -0.3181
  167MOL0     H22531  10.784   4.411   8.572  2.1582  0.3246  0.9010
  167MOL0     H22532  10.551   4.363   8.617  1.8253 -0.3852 -1.7177
  167MOL0     H22533  10.371   4.234   8.791 -2.0261 -0.8332 -1.8244
  167MOL0     H22534  10.357   4.354   8.676 -0.1683 -1.6079 -0.5315
  167MOL0     H22535  10.154   4.452   8.780 -0.0545  2.4907  3.0103
  167MOL0     H22536  10.188   4.367   8.929 -1.0285  2.4587 -1.2042
  167MOL0     H22537  10.150   4.153   8.817 -2.0798 -0.0638  0.3785
  167MOL0     H22538  10.148   4.236   8.655  1.8636 -1.3705  0.6205
  167MOL0     H22539   9.930   4.291   8.871 -1.0415  3.0719 -0.9596
  167MOL0     H22540   9.945   4.347   8.702 -0.6917  0.4089  0.8980
  167MOL0     H22541   9.755   4.011   8.596 -0.4465 -1.5298  1.5829
  167MOL0     H22542  10.572   4.588   8.977 -3.2078 -0.2637 -1.9893
  167MOL0     H22543  10.929   4.602   9.000  0.1063 -0.6155 -4.1535
  167MOL0     H22544  10.861   4.754   8.938 -0.5107  0.6599 -0.6932
  167MOL0     H22545  10.774   4.664   9.065 -0.0793 -2.7338  0.2550
  168MOL0     O22546   0.448   6.535   0.361 -0.8171 -0.4591 -0.1543
  168MOL0     C22547   0.439   6.660   0.368  0.1069 -0.7208  0.1894
  168MOL0     O22548   0.547   6.746   0.372 -0.1105 -0.0033  0.4827
  168MOL0     C22549   0.680   6.707   0.358  0.7256 -0.2610  0.4675
  168MOL0     C22550   0.732   6.586   0.345  0.0916  0.6315 -0.5503
  168MOL0     C22551   0.876   6.564   0.337 -0.5190  0.0488  0.5310
  168MOL0     C22552   0.964   6.670   0.340 -1.0967 -0.7300 -1.3783
  168MOL0     O22553   1.099   6.645   0.321 -0.1411  0.0590 -0.0259
  168MOL0     C22554   1.186   6.694   0.423  0.0476 -0.0618  0.0282
  168MOL0     C22555   1.331   6.689   0.376 -0.1913  0.4507 -0.7826
  168MOL0     C22556   1.357   6.772   0.257 -0.7064 -0.6909  0.9771
  168MOL0     C22557   1.425   6.705   0.135 -0.3791 -0.1454  0.4930
  168MOL0     C22558   1.575   6.691   0.184  0.0726  0.1181  0.1540
  168MOL0     C22559   1.647   6.589   0.096 -0.0608  0.1753  0.8602
  168MOL0     C22560   1.649   6.621  -0.054 -0.3889 -0.8377 -0.8343
  168MOL0     C22561   1.777   6.567  -0.125  1.6606 -0.8234  1.1293
  168MOL0     N22562   1.905   6.606  -0.074 -0.2693  0.2279  0.4168
  168MOL0     C22563   1.958   6.731  -0.055  0.3137 -0.0356 -0.1985
  168MOL0     C22564   2.088   6.709  -0.022  0.1833  0.5553 -0.2347
  168MOL0     C22565   2.196   6.802  -0.017  0.2014 -0.7726 -0.2515
  168MOL0     C22566   2.183   6.900   0.103 -0.1720 -0.6608 -0.2810
  168MOL0     C22567   2.283   7.014   0.114 -0.1238  0.0008  0.2803
  168MOL0     C22568   2.437   6.966   0.121 -0.1882 -0.2478 -0.2871
  168MOL0     O22569   2.510   7.092   0.131 -0.1233  0.6856  0.6172
  168MOL0     C22570   2.652   7.081   0.134 -0.8583  0.0330 -0.6529
  168MOL0     C22571   2.728   6.964   0.126  0.1248  0.1660 -0.3114
  168MOL0     C22572   2.869   6.968   0.126 -0.1270  0.3441  0.1507
  168MOL0     C22573   2.941   7.088   0.127 -0.3233  0.0765  0.1306
  168MOL0     C22574   3.088   7.096   0.120  0.4498  0.2540  0.1957
  168MOL0     O22575   3.142   7.228   0.135  0.2357  0.0220 -0.5655
  168MOL0     C22576   3.280   7.236   0.159  0.4688 -0.3481  0.0040
  168MOL0     C22577   3.352   7.332   0.089 -0.0740  0.7637 -0.4844
  168MOL0     C22578   3.492   7.340   0.091  0.6643 -0.0163  0.8989
  168MOL0     C22579   3.563   7.259   0.182  0.1431 -0.2250  1.0243
  168MOL0     O22580   3.702   7.268   0.181  1.0404  0.9567  0.1248
  168MOL0     C22581   3.768   7.252   0.303 -0.5639  0.4386 -0.2613
  168MOL0     C22582   3.913   7.304   0.281  0.0688  0.3266 -0.5101
  168MOL0     C22583   3.988   7.233   0.172  0.2882  0.0186 -0.5118
  168MOL0     C22584   4.137   7.263   0.157  0.2710  0.5349  0.0803
  168MOL0     C22585   4.196   7.181   0.045 -0.5364  0.0478  0.5040
  168MOL0     C22586   4.322   7.245  -0.010 -0.6536 -0.1094  0.3796
  168MOL0     C22587   4.393   7.165  -0.115 -0.0526  0.1853 -0.8417
  168MOL0     C22588   4.529   7.229  -0.143  0.0920  0.2430  0.8877
  168MOL0    Cl22589   4.630   7.116  -0.239  0.1064  0.1364 -0.8023
  168MOL0     C22590   3.488   7.167   0.264  0.1975  0.3718  0.4083
  168MOL0     C22591   3.347   7.154   0.247 -0.0970  0.2952 -0.1510
  168MOL0     O22592   3.146   6.985   0.105 -0.2362 -0.3431 -0.4467
  168MOL0     C22593   2.861   7.204   0.122  0.1449 -0.2902 -0.3428
  168MOL0     C22594   2.726   7.198   0.138  0.0390  0.3328  0.2592
  168MOL0     N22595   2.108   6.572  -0.005  0.8904  0.5474 -0.5816
  168MOL0     N22596   1.995   6.506  -0.035  0.0698 -1.0431  0.8341
  168MOL0     C22597   0.907   6.793   0.344 -1.2916 -0.9502 -0.9067
  168MOL0     C22598   0.768   6.814   0.368 -0.7006 -0.3069  0.2146
  168MOL0     C22599   0.307   6.728   0.386 -0.9105  0.0068 -0.3709
  168MOL0     C22600   0.318   6.868   0.409  0.1457 -1.2534  0.5009
  168MOL0     C22601   0.202   6.948   0.418 -0.6383  0.1165 -0.0321
  168MOL0     C22602   0.071   6.886   0.424 -0.7739 -0.4310  0.0755
  168MOL0     O22603  -0.031   6.978   0.421 -0.0126  0.0619 -1.1000
  168MOL0     C22604  -0.145   6.929   0.479  0.4366 -0.1291  0.1959
  168MOL0     C22605  -0.253   7.034   0.472  0.3660  0.2214 -0.1190
  168MOL0     C22606  -0.384   6.962   0.516 -0.3180  0.1310 -0.1327
  168MOL0     C22607  -0.442   6.858   0.411  0.2358  0.2282 -0.3734
  168MOL0     C22608  -0.589   6.880   0.390 -0.2256 -0.3169  0.1959
  168MOL0     C22609  -0.708   6.907   0.388 -0.0685 -0.1050  0.3897
  168MOL0     C22610   0.063   6.751   0.413  0.4839 -0.1002 -0.4853
  168MOL0     C22611   0.179   6.664   0.391 -0.2808 -0.4033 -0.9900
  168MOL0     C22612   0.161   6.519   0.357  0.4329 -0.0953 -1.0402
  168MOL0     H22613   0.676   6.494   0.333 -1.3904  1.6330 -1.6753
  168MOL0     H22614   0.915   6.465   0.317 -0.8359  0.0905 -0.3785
  168MOL0     H22615   1.160   6.797   0.447  0.5513 -0.0585  0.5671
  168MOL0     H22616   1.173   6.645   0.520  1.5711 -0.3437  0.1148
  168MOL0     H22617   1.351   6.585   0.350  1.1073  0.3437  0.5303
  168MOL0     H22618   1.403   6.726   0.449 -1.8874 -0.5405  1.5092
  168MOL0     H22619   1.412   6.863   0.282 -3.6980  2.2842 -2.1016
  168MOL0     H22620   1.262   6.804   0.213  0.5741  0.6082 -1.0169
  168MOL0     H22621   1.380   6.607   0.114  1.2081 -1.0911  1.2579
  168MOL0     H22622   1.429   6.771   0.048 -0.7823  2.2180  2.1938
  168MOL0     H22623   1.616   6.792   0.173 -1.4584  0.6293 -1.1475
  168MOL0     H22624   1.575   6.648   0.285 -0.6642  0.3955  0.2753
  168MOL0     H22625   1.751   6.595   0.131  0.0926 -0.2109  0.4794
  168MOL0     H22626   1.625   6.484   0.118  1.0294 -0.6711 -1.7110
  168MOL0     H22627   1.660   6.728  -0.076  0.7743 -0.7912 -0.1055
  168MOL0     H22628   1.553   6.591  -0.096 -1.9024  2.4991 -0.0912
  168MOL0     H22629   1.776   6.458  -0.135  1.2310 -0.7282 -0.0032
  168MOL0     H22630   1.778   6.613  -0.224 -3.8975  2.4705  2.1347
  168MOL0     H22631   1.905   6.825  -0.063  0.9322  0.3426  0.0471
  168MOL0     H22632   2.284   6.744   0.010 -0.1858 -1.7450 -1.0194
  168MOL0     H22633   2.228   6.847  -0.111 -0.3788 -0.6774 -0.4065
  168MOL0     H22634   2.089   6.952   0.087  0.5018 -0.3635 -4.4643
  168MOL0     H22635   2.189   6.841   0.195  0.1295 -2.0659 -1.1675
  168MOL0     H22636   2.256   7.077   0.200 -1.0100 -0.1922  0.1562
  168MOL0     H22637   2.277   7.075   0.023  2.1256 -2.5346 -1.7187
  168MOL0     H22638   2.455   6.902   0.034 -1.0120 -2.1875  0.9058
  168MOL0     H22639   2.458   6.899   0.204  4.0348  0.9576 -0.1634
  168MOL0     H22640   2.686   6.865   0.117  1.1589 -0.0949 -3.9811
  168MOL0     H22641   2.926   6.876   0.117 -2.7905 -1.4232  0.0071
  168MOL0     H22642   3.297   7.399   0.023  1.4381  1.4655 -1.0781
  168MOL0     H22643   3.535   7.422   0.035 -1.4390  1.5216  1.3909
  168MOL0     H22644   3.724   7.313   0.384 -0.2552 -1.5987  1.5336
  168MOL0     H22645   3.783   7.150   0.339 -0.4128  0.6574  0.3197
  168MOL0     H22646   3.903   7.408   0.251 -1.4272  0.3341 -0.0638
  168MOL0     H22647   3.966   7.292   0.377 -0.6221 -1.5482 -0.3033
  168MOL0     H22648   3.968   7.125   0.173  1.2769 -0.1963  2.0687
  168MOL0     H22649   3.935   7.269   0.083  1.3621  2.6310 -0.1970
  168MOL0     H22650   4.183   7.247   0.255 -4.1181  0.8236  2.4602
  168MOL0     H22651   4.149   7.366   0.123 -0.6689  0.3510 -0.8441
  168MOL0     H22652   4.121   7.176  -0.034 -1.2350 -1.5009  1.2214
  168MOL0     H22653   4.215   7.082   0.088 -5.4039 -1.2409  0.2652
  168MOL0     H22654   4.303   7.341  -0.059 -1.8648  0.5693  2.0689
  168MOL0     H22655   4.391   7.255   0.073  2.3308 -2.6103 -1.5863
  168MOL0     H22656   4.344   7.148  -0.211 -2.1783 -1.6678  0.4876
  168MOL0     H22657   4.420   7.071  -0.067 -0.2440 -0.7438 -2.5072
  168MOL0     H22658   4.529   7.320  -0.203  0.4181 -2.0566 -2.9336
  168MOL0     H22659   4.579   7.248  -0.048  0.4781 -0.7358  0.8906
  168MOL0     H22660   3.542   7.110   0.339  0.2297 -0.3311 -0.1427
  168MOL0     H22661   3.293   7.085   0.311  2.0748 -0.7806  0.6202
  168MOL0     H22662   2.910   7.301   0.116  0.5016 -0.2701  2.0997
  168MOL0     H22663   2.668   7.289   0.154  0.4987  0.3901  1.7156
  168MOL0     H22664   0.967   6.881   0.329 -1.8243 -0.1874  1.1150
  168MOL0     H22665   0.721   6.911   0.381 -1.8613 -0.9324  0.9001
  168MOL0     H22666   0.407   6.930   0.413 -1.5019  1.9310 -4.2607
  168MOL0     H22667   0.205   7.056   0.428 -0.2450  0.2745 -1.5658
  168MOL0     H22668  -0.131   6.924   0.587  0.9994  0.6237  0.1659
  168MOL0     H22669  -0.178   6.837   0.430  0.8495 -0.2872  0.2019
  168MOL0     H22670  -0.255   7.078   0.372  1.1828 -0.4883 -0.4565
  168MOL0     H22671  -0.234   7.115   0.544 -0.3313  0.6790 -0.4315
  168MOL0     H22672  -0.460   7.040   0.526 -1.3996 -0.9606  0.4994
  168MOL0     H22673  -0.359   6.917   0.613 -1.0823  1.8317  0.8928
  168MOL0     H22674  -0.390   6.850   0.315 -0.2635 -1.2413 -0.5421
  168MOL0     H22675  -0.426   6.759   0.456 -1.1708 -0.0436 -0.4451
  168MOL0     H22676  -0.811   6.938   0.379  0.5383  2.7028  1.9310
  168MOL0     H22677  -0.036   6.708   0.402 -0.5132  2.2964 -1.6667
  168MOL0     H22678   0.178   6.495   0.252  1.3543  1.6472 -1.3277
  168MOL0     H22679   0.228   6.459   0.419 -2.0460 -1.2404  0.7013
  168MOL0     H22680   0.062   6.483   0.387  1.2946  0.1644  2.6636
  169MOL0     O22681   2.045   2.758   3.601  1.0412  0.5621  0.3675
  169MOL0     C22682   1.950   2.771   3.679  0.4896 -1.2349  0.8820
  169MOL0     O22683   1.957   2.768   3.822  0.1152 -0.2526 -0.3439
  169MOL0     C22684   2.081   2.750   3.892 -0.0319 -0.2845 -0.1289
  169MOL0     C22685   2.065   2.710   4.023  0.0613  0.6410 -0.3477
  169MOL0     C22686   2.170   2.707   4.117 -0.4953  0.2378 -0.6822
  169MOL0     C22687   2.295   2.748   4.074 -0.1891 -0.8613  0.8852
  169MOL0     O22688   2.405   2.741   4.151 -0.5546 -0.3333 -0.1807
  169MOL0     C22689   2.400   2.736   4.296 -0.0421  0.6497 -0.3168
  169MOL0     C22690   2.550   2.736   4.339 -0.0907  0.9244  0.2711
  169MOL0     C22691   2.638   2.632   4.267 -0.3082 -0.2144 -0.3420
  169MOL0     C22692   2.780   2.663   4.300 -0.4830 -0.2726 -0.7076
  169MOL0     C22693   2.881   2.559   4.251  0.8322 -0.5433  0.1832
  169MOL0     C22694   3.027   2.608   4.267 -0.5229 -0.3896 -0.7090
  169MOL0     C22695   3.129   2.509   4.207 -0.4307 -0.2170 -0.4900
  169MOL0     C22696   3.105   2.362   4.240  0.3482 -0.2199  0.0983
  169MOL0     N22697   3.212   2.275   4.199  0.4777  0.7741 -0.3215
  169MOL0     C22698   3.219   2.214   4.075 -1.0456 -0.7305 -0.5512
  169MOL0     C22699   3.335   2.136   4.076  0.6665 -0.4741 -0.4544
  169MOL0     C22700   3.376   2.042   3.967 -0.2416 -0.5111  0.3797
  169MOL0     C22701   3.511   1.969   3.992 -0.0129  0.1258 -0.5184
  169MOL0     C22702   3.628   2.067   3.993  0.1879  0.8307  0.7171
  169MOL0     C22703   3.691   2.105   3.860  0.2468 -0.6601 -0.3984
  169MOL0     O22704   3.787   2.212   3.870 -0.3356  0.7524  0.1072
  169MOL0     C22705   3.904   2.211   3.796  0.1276 -0.2270  0.2450
  169MOL0     C22706   3.946   2.120   3.696  0.3932 -0.5455  0.0707
  169MOL0     C22707   4.080   2.104   3.661 -0.6009  0.5780 -1.0123
  169MOL0     C22708   4.175   2.206   3.705  0.5358  1.2039  0.8623
  169MOL0     C22709   4.317   2.204   3.663  0.6860 -0.7354 -0.5534
  169MOL0     O22710   4.344   2.127   3.548 -0.0512  0.0845 -0.2019
  169MOL0     C22711   4.474   2.127   3.507  0.1028 -0.3326 -0.1321
  169MOL0     C22712   4.565   2.024   3.523 -0.5162 -0.3368 -0.5122
  169MOL0     C22713   4.697   2.041   3.472 -0.2068 -0.0204  0.7382
  169MOL0     C22714   4.724   2.148   3.391 -0.0728 -0.4291 -0.3534
  169MOL0     O22715   4.849   2.165   3.340  0.2608 -0.1139  0.4025
  169MOL0     C22716   4.881   2.264   3.235 -0.8286  0.0015  0.1379
  169MOL0     C22717   5.014   2.223   3.182  0.3227 -0.9878  0.2057
  169MOL0     C22718   5.040   2.293   3.042  0.6426 -0.2981 -0.1805
  169MOL0     C22719   4.970   2.228   2.925 -0.0432 -0.1417  0.2877
  169MOL0     C22720   4.987   2.308   2.793  0.8192  0.8482 -0.8469
  169MOL0     C22721   4.933   2.207   2.684  0.1035 -0.6743 -0.0270
  169MOL0     C22722   5.022   2.080   2.657  0.8011  0.3696  0.0302
  169MOL0     C22723   5.004   2.027   2.511 -0.1516  0.1132  0.5784
  169MOL0    Cl22724   5.097   1.874   2.515 -0.1006  0.2023 -0.2607
  169MOL0     C22725   4.632   2.246   3.369 -0.1153  0.2156 -0.1892
  169MOL0     C22726   4.514   2.236   3.426 -0.1296  0.1893 -0.0403
  169MOL0     O22727   4.398   2.274   3.725  0.3503 -0.4533 -0.1564
  169MOL0     C22728   4.131   2.304   3.800  0.2967 -0.2260  1.3846
  169MOL0     C22729   3.998   2.302   3.839  0.8208  0.6299 -0.4067
  169MOL0     N22730   3.398   2.159   4.194  0.7279 -0.0879 -0.1777
  169MOL0     N22731   3.326   2.241   4.270 -0.5145  0.5368  0.6377
  169MOL0     C22732   2.315   2.788   3.940 -0.3293 -0.4067 -0.0460
  169MOL0     C22733   2.209   2.800   3.846  0.5122  0.3048 -0.2066
  169MOL0     C22734   1.813   2.791   3.615  0.5224 -0.0841  0.3375
  169MOL0     C22735   1.709   2.792   3.710  0.1710  0.2917  0.1143
  169MOL0     C22736   1.583   2.807   3.668 -0.4650  0.3031 -0.1048
  169MOL0     C22737   1.549   2.807   3.525  0.1212 -0.0387  0.5179
  169MOL0     O22738   1.418   2.786   3.495  0.9720  0.7288  0.1685
  169MOL0     C22739   1.386   2.665   3.424 -0.3530 -0.0447  0.1892
  169MOL0     C22740   1.336   2.539   3.499  0.7996  0.7897  0.5509
  169MOL0     C22741   1.196   2.577   3.567 -0.8440 -0.2926  0.2326
  169MOL0     C22742   1.106   2.451   3.592  0.0750 -0.6821 -0.1836
  169MOL0     C22743   1.142   2.383   3.718 -0.8748 -0.6567  0.6595
  169MOL0     C22744   1.188   2.327   3.820 -0.3400 -0.4617 -0.6075
  169MOL0     C22745   1.654   2.803   3.435 -0.3217 -0.3425 -0.2810
  169MOL0     C22746   1.788   2.793   3.478  0.1026 -0.0265 -0.5911
  169MOL0     C22747   1.891   2.805   3.367 -0.5364 -0.5872  0.2118
  169MOL0     H22748   1.966   2.708   4.069  0.7212  0.1338  1.0960
  169MOL0     H22749   2.161   2.677   4.221  3.8977  0.3666 -0.0958
  169MOL0     H22750   2.350   2.826   4.333  1.6000  1.3782  0.2297
  169MOL0     H22751   2.363   2.641   4.333  1.6283  0.7842  1.9208
  169MOL0     H22752   2.552   2.702   4.443  2.8359  2.0060  0.6879
  169MOL0     H22753   2.600   2.833   4.334  1.8637 -0.0546 -0.6403
  169MOL0     H22754   2.624   2.643   4.159  3.4509  1.0676 -0.8575
  169MOL0     H22755   2.609   2.531   4.298  2.0084 -0.3682  1.5875
  169MOL0     H22756   2.799   2.758   4.248 -0.1014 -0.7849 -1.5163
  169MOL0     H22757   2.796   2.682   4.407 -1.6783  0.3569 -0.6161
  169MOL0     H22758   2.859   2.464   4.301 -0.2099 -0.7865 -0.7078
  169MOL0     H22759   2.874   2.546   4.143  3.2826 -0.0069 -0.1109
  169MOL0     H22760   3.051   2.698   4.210  1.7298 -0.6136 -0.1754
  169MOL0     H22761   3.054   2.646   4.366  2.0136  0.9790 -1.8496
  169MOL0     H22762   3.229   2.537   4.239  0.0467  0.5732 -2.5259
  169MOL0     H22763   3.131   2.515   4.098 -1.1696  1.1071 -0.4543
  169MOL0     H22764   3.102   2.347   4.349  1.4345  0.4600  0.2287
  169MOL0     H22765   3.010   2.321   4.205  0.4787 -0.7752  0.3771
  169MOL0     H22766   3.160   2.206   3.984  1.0990 -2.8652 -1.8785
  169MOL0     H22767   3.304   1.965   3.940  0.6290 -0.4976 -2.2924
  169MOL0     H22768   3.379   2.114   3.885  0.7410  1.6355  2.1649
  169MOL0     H22769   3.517   1.920   4.089  1.2331  1.1266 -0.0619
  169MOL0     H22770   3.532   1.903   3.907  0.7887  0.8575 -0.9067
  169MOL0     H22771   3.719   2.031   4.042  0.4362  0.5893  0.0843
  169MOL0     H22772   3.598   2.160   4.041 -0.9812 -0.4754  2.6260
  169MOL0     H22773   3.600   2.143   3.814 -1.3653  0.6239  3.4802
  169MOL0     H22774   3.732   2.014   3.814  2.4711 -0.1998  0.5119
  169MOL0     H22775   3.874   2.043   3.668  0.8544 -1.1442  0.5189
  169MOL0     H22776   4.116   2.014   3.612 -0.6524  0.2860 -0.5154
  169MOL0     H22777   4.551   1.941   3.592  0.3761 -0.1250 -0.0588
  169MOL0     H22778   4.773   1.969   3.497 -1.5403 -0.1432  5.5427
  169MOL0     H22779   4.814   2.246   3.151 -1.1312 -1.2542  0.6214
  169MOL0     H22780   4.865   2.368   3.262  0.4006 -0.0009  0.9561
  169MOL0     H22781   5.090   2.266   3.247 -0.1259  2.4878 -1.3179
  169MOL0     H22782   5.007   2.114   3.171  0.9278 -0.8412 -2.0762
  169MOL0     H22783   5.001   2.394   3.053 -0.3419 -0.9174  3.1783
  169MOL0     H22784   5.147   2.296   3.019  0.3146  2.0745 -1.7189
  169MOL0     H22785   4.869   2.200   2.956  0.7756 -1.5864  1.8095
  169MOL0     H22786   5.022   2.132   2.916  0.0196 -0.0509 -0.3703
  169MOL0     H22787   5.090   2.338   2.776  1.2393 -0.8920 -1.6551
  169MOL0     H22788   4.926   2.398   2.797  2.9109  2.2985 -0.2673
  169MOL0     H22789   4.835   2.173   2.717 -1.2100  2.9561  0.2373
  169MOL0     H22790   4.918   2.270   2.596  0.3495  1.8853  1.6466
  169MOL0     H22791   4.992   2.010   2.735 -0.6703  0.7239 -0.1854
  169MOL0     H22792   5.122   2.120   2.678  0.3923  1.7217 -0.4633
  169MOL0     H22793   4.898   2.008   2.495 -0.2485  1.7010 -0.9765
  169MOL0     H22794   5.042   2.099   2.437  1.4955  1.3261  2.4925
  169MOL0     H22795   4.653   2.338   3.316 -2.6161  1.0252  0.0800
  169MOL0     H22796   4.444   2.319   3.417  1.6448  1.7561  0.0909
  169MOL0     H22797   4.190   2.380   3.849  1.6102 -0.8834  0.8593
  169MOL0     H22798   3.977   2.377   3.916 -1.4684 -2.5324  2.3328
  169MOL0     H22799   2.419   2.807   3.914 -0.3229  2.2051  1.5017
  169MOL0     H22800   2.234   2.828   3.745 -1.9713  1.6847 -0.4978
  169MOL0     H22801   1.722   2.788   3.818 -0.4846 -0.8404  0.1626
  169MOL0     H22802   1.497   2.803   3.735 -1.5391 -1.8618 -1.4895
  169MOL0     H22803   1.476   2.634   3.369 -1.8366 -2.4539 -1.0774
  169MOL0     H22804   1.318   2.699   3.345 -1.7568 -1.2534  0.8231
  169MOL0     H22805   1.417   2.507   3.566 -0.7979 -2.4072  1.1150
  169MOL0     H22806   1.328   2.460   3.424 -2.6311  0.2800  1.2872
  169MOL0     H22807   1.129   2.630   3.498 -2.3322 -2.5220 -0.1517
  169MOL0     H22808   1.209   2.639   3.657 -1.3264  1.2941 -0.7439
  169MOL0     H22809   1.005   2.484   3.615  1.0302  0.6602  2.5531
  169MOL0     H22810   1.102   2.373   3.516  2.7847 -1.5781  0.4689
  169MOL0     H22811   1.209   2.297   3.920 -3.6001  1.4757  0.8338
  169MOL0     H22812   1.623   2.801   3.331  0.4895 -1.4982 -0.5222
  169MOL0     H22813   1.976   2.866   3.401 -2.5123  0.9207  2.8019
  169MOL0     H22814   1.926   2.710   3.324  0.8240  1.0723 -2.6561
  169MOL0     H22815   1.842   2.866   3.291 -1.4076  1.7330  2.4883
  170MOL0     O22816   9.691   5.560   5.646  0.1747  0.0532  0.0221
  170MOL0     C22817   9.659   5.441   5.674 -0.3105  0.3831 -0.2345
  170MOL0     O22818   9.744   5.342   5.723  0.2922  0.8757  0.5915
  170MOL0     C22819   9.871   5.379   5.755 -0.6388  0.2584  0.6446
  170MOL0     C22820   9.895   5.488   5.837  0.0380  0.4980 -0.6138
  170MOL0     C22821  10.027   5.516   5.880  0.0786 -0.2281  1.4928
  170MOL0     C22822  10.136   5.442   5.840 -0.0188  0.2674  0.4882
  170MOL0     O22823  10.265   5.480   5.867  0.0747  0.7752  0.2866
  170MOL0     C22824  10.328   5.534   5.756 -0.4897 -0.4838  0.6854
  170MOL0     C22825  10.427   5.637   5.803  0.0124 -0.1111  0.5118
  170MOL0     C22826  10.542   5.571   5.878  0.0534  0.0210 -0.4620
  170MOL0     C22827  10.683   5.638   5.867  0.9544  0.5085 -0.4350
  170MOL0     C22828  10.793   5.561   5.943  0.1053 -0.2907  0.7751
  170MOL0     C22829  10.743   5.544   6.090 -0.7888  0.3105 -0.1301
  170MOL0     C22830  10.846   5.476   6.170 -0.7467  0.1037 -0.7867
  170MOL0     C22831  10.818   5.494   6.319  0.2237  0.4360 -0.3699
  170MOL0     N22832  10.863   5.628   6.368 -0.8251  0.8828 -0.2435
  170MOL0     C22833  10.996   5.681   6.367  0.6436 -0.6604 -0.9058
  170MOL0     C22834  10.980   5.812   6.388 -0.3545 -0.0195  0.2527
  170MOL0     C22835  11.087   5.916   6.406 -0.1362 -0.2580 -0.0559
  170MOL0     C22836  11.240   5.887   6.416  0.5450  0.0845  0.3639
  170MOL0     C22837  11.301   5.850   6.279 -0.0639 -0.6365 -0.9010
  170MOL0     C22838  11.443   5.800   6.293  0.3987 -1.0170  0.6624
  170MOL0     O22839  11.443   5.670   6.343 -0.3222  0.5231 -0.9954
  170MOL0     C22840  11.574   5.641   6.397  0.1873  0.6458  1.1909
  170MOL0     C22841  11.697   5.690   6.347  0.5071  0.7038 -0.2464
  170MOL0     C22842  11.823   5.660   6.409 -0.3481 -0.0004  0.2451
  170MOL0     C22843  11.832   5.581   6.522  0.4237  0.2835  0.3434
  170MOL0     C22844  11.960   5.551   6.590  0.0740 -0.1456 -0.3350
  170MOL0     O22845  12.074   5.594   6.525  0.2022 -0.5967 -0.2462
  170MOL0     C22846  12.200   5.588   6.569 -0.6450 -0.1001  0.5052
  170MOL0     C22847  12.281   5.697   6.547  0.6038 -0.3854  0.3351
  170MOL0     C22848  12.419   5.696   6.578 -0.9358  1.1000 -0.2816
  170MOL0     C22849  12.472   5.568   6.625  0.2607 -0.5572  0.0001
  170MOL0     O22850  12.602   5.556   6.660 -0.4716  0.1478 -0.4689
  170MOL0     C22851  12.662   5.667   6.726 -0.1287 -0.7102  0.0972
  170MOL0     C22852  12.799   5.613   6.787  0.0357 -0.1297 -1.3125
  170MOL0     C22853  12.900   5.590   6.676 -0.4834 -0.0100 -0.6674
  170MOL0     C22854  13.041   5.575   6.731  0.1501  0.8237 -0.4560
  170MOL0     C22855  13.097   5.703   6.806  0.1244 -0.1005 -0.5156
  170MOL0     C22856  13.244   5.730   6.795  0.0393 -0.4940 -0.1193
  170MOL0     C22857  13.279   5.866   6.869  0.6418 -0.1658 -0.1848
  170MOL0     C22858  13.416   5.917   6.832  0.6938  0.2426  0.0110
  170MOL0    Cl22859  13.530   5.777   6.849  0.0352 -0.0674 -0.2390
  170MOL0     C22860  12.385   5.458   6.653 -0.2551 -0.0804  0.8310
  170MOL0     C22861  12.251   5.477   6.631  0.6917  0.7487  0.6484
  170MOL0     O22862  11.953   5.500   6.703 -0.4934 -0.5403 -0.4785
  170MOL0     C22863  11.708   5.526   6.566  0.3553 -0.8054 -0.2310
  170MOL0     C22864  11.581   5.550   6.501  0.9138  0.5926  0.7634
  170MOL0     N22865  10.844   5.831   6.416  0.1810  0.0691 -0.8462
  170MOL0     N22866  10.777   5.724   6.403  0.8412  0.1375  1.2923
  170MOL0     C22867  10.109   5.327   5.752  0.0791  0.4488  0.2793
  170MOL0     C22868   9.977   5.297   5.721  0.0145  0.3462 -0.3870
  170MOL0     C22869   9.525   5.410   5.633  0.0604 -0.3642  0.0031
  170MOL0     C22870   9.493   5.281   5.586 -0.5788 -1.0563  0.0154
  170MOL0     C22871   9.369   5.248   5.548  0.0318  0.1493  0.1175
  170MOL0     C22872   9.265   5.338   5.533 -0.4178  0.0871 -0.6502
  170MOL0     O22873   9.161   5.292   5.454 -0.1840  0.0945  0.0208
  170MOL0     C22874   9.072   5.388   5.400 -0.3767  0.4376 -0.1421
  170MOL0     C22875   8.990   5.326   5.280  0.5531 -0.3615 -0.2120
  170MOL0     C22876   9.068   5.292   5.147 -0.2438  0.2341  0.5042
  170MOL0     C22877   9.115   5.416   5.063 -0.3195 -0.3623  0.1316
  170MOL0     C22878   9.003   5.489   4.998  0.5079  0.3852 -0.5898
  170MOL0     C22879   8.935   5.560   4.929  0.7473  0.1339 -1.1459
  170MOL0     C22880   9.291   5.472   5.577  0.0333 -0.0208 -1.0599
  170MOL0     C22881   9.417   5.506   5.624  0.2639 -0.1987  0.0687
  170MOL0     C22882   9.438   5.650   5.664 -0.1296  0.7600 -0.2069
  170MOL0     H22883   9.812   5.546   5.876  0.8641 -0.4439  2.9971
  170MOL0     H22884  10.045   5.600   5.946 -0.5463  0.5322  0.7121
  170MOL0     H22885  10.378   5.453   5.701  1.7594  2.3154 -1.7496
  170MOL0     H22886  10.255   5.586   5.693  0.6906 -0.2899 -0.5716
  170MOL0     H22887  10.380   5.718   5.859 -0.4981  1.4694 -2.0208
  170MOL0     H22888  10.457   5.698   5.717 -1.1316 -0.7638 -0.3792
  170MOL0     H22889  10.562   5.467   5.850  3.7853  0.4375  0.2400
  170MOL0     H22890  10.515   5.565   5.984  0.4380  1.2371 -0.2817
  170MOL0     H22891  10.709   5.653   5.762  1.6496 -1.5124 -0.5927
  170MOL0     H22892  10.680   5.741   5.904 -2.2008  0.7319 -1.0727
  170MOL0     H22893  10.822   5.469   5.893  1.4645  0.8358 -0.6211
  170MOL0     H22894  10.883   5.622   5.939  1.4475 -2.2711 -1.3363
  170MOL0     H22895  10.703   5.630   6.143 -0.0305 -0.9352  2.6318
  170MOL0     H22896  10.663   5.469   6.088  0.1513 -0.7310  0.2805
  170MOL0     H22897  10.946   5.515   6.148 -0.4469 -0.8795 -1.2298
  170MOL0     H22898  10.849   5.371   6.140  4.0294  0.8288 -3.9664
  170MOL0     H22899  10.713   5.478   6.345  0.1283 -0.4559 -1.2222
  170MOL0     H22900  10.871   5.416   6.375 -1.4756 -0.3366  0.2394
  170MOL0     H22901  11.088   5.625   6.352  1.3810  0.1193  0.4661
  170MOL0     H22902  11.070   5.982   6.320  0.0026  0.5289  0.5094
  170MOL0     H22903  11.067   5.983   6.490 -0.2103 -0.8736  0.4262
  170MOL0     H22904  11.276   5.983   6.455 -2.0637  1.9327 -1.4772
  170MOL0     H22905  11.249   5.813   6.495  2.4143  1.0920  1.1849
  170MOL0     H22906  11.298   5.941   6.218  0.1758 -1.3835 -2.0708
  170MOL0     H22907  11.248   5.771   6.225  2.4824 -3.8401  0.8846
  170MOL0     H22908  11.509   5.864   6.353  0.8997  0.1237 -1.0361
  170MOL0     H22909  11.488   5.797   6.193 -0.5918 -0.6285  0.1972
  170MOL0     H22910  11.714   5.757   6.264 -2.1806  0.8494 -0.7467
  170MOL0     H22911  11.907   5.719   6.373 -1.0499  1.8999  1.5280
  170MOL0     H22912  12.240   5.789   6.507 -2.5003 -0.8360  2.1893
  170MOL0     H22913  12.488   5.778   6.558 -0.6028  1.1394  0.9549
  170MOL0     H22914  12.684   5.751   6.659  0.7640  0.9574  2.3741
  170MOL0     H22915  12.603   5.716   6.804 -1.8834 -1.5612 -0.6413
  170MOL0     H22916  12.838   5.684   6.860 -1.8483  2.6590 -2.8151
  170MOL0     H22917  12.786   5.522   6.845  0.3269  2.1315  2.6205
  170MOL0     H22918  12.884   5.507   6.606 -1.3420 -0.6745  0.2935
  170MOL0     H22919  12.910   5.686   6.624  0.4625  1.7283  2.4708
  170MOL0     H22920  13.103   5.559   6.642  0.9621  1.1374  0.0454
  170MOL0     H22921  13.048   5.488   6.797 -1.5753  0.9309 -0.0929
  170MOL0     H22922  13.081   5.701   6.914 -0.1175  1.4054 -0.5039
  170MOL0     H22923  13.039   5.788   6.770 -1.1055 -1.9116 -3.1534
  170MOL0     H22924  13.292   5.659   6.863 -0.5043 -0.6548  0.1054
  170MOL0     H22925  13.292   5.724   6.697 -0.0544 -0.8525 -0.1458
  170MOL0     H22926  13.275   5.842   6.975 -2.9890 -1.3597 -0.4606
  170MOL0     H22927  13.199   5.934   6.836 -0.9799 -2.1684 -0.5762
  170MOL0     H22928  13.419   5.957   6.730 -1.1972  3.5960  1.0919
  170MOL0     H22929  13.448   5.999   6.897  0.4451 -0.2353  0.7407
  170MOL0     H22930  12.426   5.363   6.686  1.2906  0.4688  0.6077
  170MOL0     H22931  12.177   5.400   6.648  1.4930  0.0115  0.8413
  170MOL0     H22932  11.698   5.449   6.642  1.7078 -1.7057 -0.9235
  170MOL0     H22933  11.489   5.503   6.536  0.1962 -0.2678 -2.0783
  170MOL0     H22934  10.186   5.267   5.705  0.0236  0.3505  0.3138
  170MOL0     H22935   9.958   5.215   5.651 -0.2982 -0.0654  0.1773
  170MOL0     H22936   9.567   5.201   5.585  1.5165  0.4918  4.2834
  170MOL0     H22937   9.352   5.147   5.511 -1.8112  0.8159 -1.0466
  170MOL0     H22938   9.124   5.476   5.363 -1.7243  0.9804 -0.8246
  170MOL0     H22939   8.998   5.426   5.471 -1.8970 -0.1546 -1.3551
  170MOL0     H22940   8.906   5.392   5.257 -0.2123 -1.7366 -1.5286
  170MOL0     H22941   8.938   5.234   5.309 -3.0303  0.7442 -2.4768
  170MOL0     H22942   9.002   5.225   5.091 -2.4009  2.4441  0.2212
  170MOL0     H22943   9.152   5.238   5.192 -0.2179 -0.1720 -0.0218
  170MOL0     H22944   9.170   5.482   5.131  0.9583 -2.6635  1.4680
  170MOL0     H22945   9.174   5.388   4.976 -0.6716  0.2611 -0.3200
  170MOL0     H22946   8.896   5.641   4.870  1.7359  0.6527 -1.1094
  170MOL0     H22947   9.212   5.546   5.567 -1.7099 -1.6029  0.1529
  170MOL0     H22948   9.490   5.658   5.760  1.6479 -1.1241 -0.9553
  170MOL0     H22949   9.487   5.704   5.583 -2.8853 -1.3878 -3.6261
  170MOL0     H22950   9.343   5.700   5.687  0.3968  2.6937 -1.9188
  171MOL0     O22951   3.145   3.391   0.114 -0.5235 -0.2820  0.2768
  171MOL0     C22952   3.077   3.357   0.209 -1.0691 -0.4341 -0.7262
  171MOL0     O22953   3.127   3.324   0.334 -0.3156 -0.4709 -0.0617
  171MOL0     C22954   3.262   3.326   0.336 -1.0601 -0.1191 -0.6322
  171MOL0     C22955   3.331   3.204   0.316 -0.2501 -0.7349  0.8315
  171MOL0     C22956   3.466   3.192   0.335 -0.4996  0.3199 -1.1479
  171MOL0     C22957   3.539   3.306   0.387  0.4632  0.5257 -0.1132
  171MOL0     O22958   3.677   3.320   0.428 -0.0603  0.2639 -0.3276
  171MOL0     C22959   3.776   3.220   0.396 -0.1842 -0.5224 -0.0227
  171MOL0     C22960   3.827   3.206   0.259 -0.3357  0.4708  0.6473
  171MOL0     C22961   3.884   3.061   0.252 -0.7563 -0.1084  0.4911
  171MOL0     C22962   4.035   3.084   0.252  0.8085  0.4282  0.1154
  171MOL0     C22963   4.088   3.124   0.106 -0.1289 -0.2238 -0.0559
  171MOL0     C22964   4.241   3.158   0.121  0.2666 -0.5175 -0.0436
  171MOL0     C22965   4.308   3.247   0.012 -0.0826  0.3017 -0.6266
  171MOL0     C22966   4.407   3.342   0.075 -0.0239  0.5213  0.2522
  171MOL0     N22967   4.466   3.430  -0.028  0.1330 -0.6492  0.7062
  171MOL0     C22968   4.505   3.401  -0.156  0.6616  0.6187  0.1149
  171MOL0     C22969   4.529   3.522  -0.219  0.3072  0.1349  0.4710
  171MOL0     C22970   4.573   3.546  -0.361  0.1416  1.2379  0.1052
  171MOL0     C22971   4.493   3.651  -0.435 -0.3395 -0.2240 -0.4634
  171MOL0     C22972   4.362   3.601  -0.505  0.8612 -0.4719  0.3201
  171MOL0     C22973   4.272   3.531  -0.410 -1.2763 -0.3114  0.5083
  171MOL0     O22974   4.148   3.513  -0.474 -0.2391 -0.1276 -0.5016
  171MOL0     C22975   4.052   3.437  -0.413  0.3897  0.7793 -0.0132
  171MOL0     C22976   4.073   3.367  -0.287 -0.0467 -0.8195  0.8243
  171MOL0     C22977   3.970   3.293  -0.239  0.1118  0.4979  0.4330
  171MOL0     C22978   3.850   3.276  -0.315 -0.6991  0.5770 -0.3887
  171MOL0     C22979   3.744   3.187  -0.260  0.5970 -0.7625  0.2511
  171MOL0     O22980   3.751   3.167  -0.120  0.8587 -0.1989  0.0489
  171MOL0     C22981   3.648   3.092  -0.070 -0.7578 -0.2641 -0.4404
  171MOL0     C22982   3.662   2.945  -0.075 -0.5596  0.9855  0.5648
  171MOL0     C22983   3.564   2.854  -0.022  0.2535 -0.2828  0.4474
  171MOL0     C22984   3.448   2.908   0.026 -0.3490  0.3583  0.1346
  171MOL0     O22985   3.356   2.822   0.070 -0.7076 -0.0523  0.4095
  171MOL0     C22986   3.211   2.848   0.046 -0.3240 -0.2401  0.0458
  171MOL0     C22987   3.165   2.824  -0.100  0.1668 -0.2059  0.2468
  171MOL0     C22988   3.195   2.689  -0.166 -0.6428  0.1718  0.4713
  171MOL0     C22989   3.142   2.678  -0.309  0.0496  0.4128 -0.8443
  171MOL0     C22990   3.190   2.543  -0.368  0.1396 -0.3030 -0.0373
  171MOL0     C22991   3.324   2.557  -0.443  0.3232 -0.1399  0.8452
  171MOL0     C22992   3.383   2.416  -0.477 -1.8074 -0.1436  0.8277
  171MOL0     C22993   3.296   2.341  -0.578 -0.1370  0.2307  0.1386
  171MOL0    Cl22994   3.304   2.413  -0.743 -0.2793  0.3024 -0.0583
  171MOL0     C22995   3.440   3.052   0.020  0.9365 -0.3049  0.0294
  171MOL0     C22996   3.529   3.143  -0.013 -0.0710 -0.9753  0.3983
  171MOL0     O22997   3.657   3.135  -0.333 -0.2232 -0.5582  0.1183
  171MOL0     C22998   3.835   3.339  -0.439 -0.1212  0.4565 -0.1772
  171MOL0     C22999   3.936   3.419  -0.487  0.1651 -0.5093 -0.6377
  171MOL0     N23000   4.507   3.617  -0.123  1.0014  0.3102  0.2165
  171MOL0     N23001   4.480   3.563  -0.006  0.3292 -0.1975  0.2514
  171MOL0     C23002   3.467   3.416   0.428 -0.1340 -0.4911 -0.5703
  171MOL0     C23003   3.331   3.430   0.408 -0.9828 -0.3535 -0.5621
  171MOL0     C23004   2.933   3.362   0.203  0.3827 -0.2528  0.1444
  171MOL0     C23005   2.855   3.380   0.326 -0.8693  0.1124  1.3077
  171MOL0     C23006   2.716   3.402   0.332 -0.3617 -0.2501  0.2008
  171MOL0     C23007   2.642   3.412   0.212 -0.4276  0.3029 -0.4491
  171MOL0     O23008   2.514   3.459   0.229 -0.4107 -0.4993 -0.4113
  171MOL0     C23009   2.435   3.475   0.115  1.1196 -0.8358  0.1200
  171MOL0     C23010   2.340   3.352   0.107  0.6642 -0.4396 -0.8461
  171MOL0     C23011   2.266   3.323   0.236  0.1414  0.4444  0.3227
  171MOL0     C23012   2.163   3.214   0.207  0.0215 -0.2387 -0.9254
  171MOL0     C23013   2.093   3.206   0.336 -0.4600  0.1881  0.4674
  171MOL0     C23014   2.062   3.192   0.453  0.4186 -0.2076  0.1794
  171MOL0     C23015   2.716   3.387   0.089  0.0402 -0.4469  0.6590
  171MOL0     C23016   2.852   3.343   0.084  0.8681  0.5725  0.0433
  171MOL0     C23017   2.919   3.309  -0.047  0.3995  0.5993  0.6314
  171MOL0     H23018   3.264   3.123   0.288 -1.7740  0.4609  0.8814
  171MOL0     H23019   3.534   3.110   0.312 -1.0235 -0.4506 -0.0387
  171MOL0     H23020   3.860   3.247   0.461  0.1425 -2.0094  0.2207
  171MOL0     H23021   3.745   3.124   0.438 -0.5008 -0.7194 -0.6987
  171MOL0     H23022   3.898   3.286   0.238 -0.1428  0.4865  1.3482
  171MOL0     H23023   3.743   3.194   0.190 -1.2769 -4.0168  2.1857
  171MOL0     H23024   3.852   3.015   0.158  0.6310  0.3907 -0.2379
  171MOL0     H23025   3.860   2.995   0.337 -0.6855  1.4036  1.7208
  171MOL0     H23026   4.071   3.162   0.321 -0.5357  1.2813 -0.1186
  171MOL0     H23027   4.087   2.995   0.289 -0.0713  0.0665  0.5043
  171MOL0     H23028   4.066   3.041   0.037  1.5209 -3.3234  2.8529
  171MOL0     H23029   4.036   3.209   0.061 -0.4783  1.2416  2.8715
  171MOL0     H23030   4.260   3.193   0.222 -1.5388 -0.7528  0.4101
  171MOL0     H23031   4.291   3.062   0.129  0.0215 -0.5258  1.8782
  171MOL0     H23032   4.229   3.295  -0.046 -1.6029 -2.5976 -1.1564
  171MOL0     H23033   4.359   3.177  -0.055  0.6805 -0.5095  0.7544
  171MOL0     H23034   4.356   3.403   0.150 -0.8989  1.4529 -1.0595
  171MOL0     H23035   4.484   3.284   0.127 -0.3386 -0.0113  0.1304
  171MOL0     H23036   4.516   3.304  -0.204 -1.3231  0.2136  0.4137
  171MOL0     H23037   4.679   3.572  -0.365  0.3108  0.5239 -0.2972
  171MOL0     H23038   4.567   3.448  -0.410 -1.6380  0.5146  1.6210
  171MOL0     H23039   4.463   3.734  -0.371  1.5772  0.4996 -0.4491
  171MOL0     H23040   4.569   3.683  -0.507  0.0726 -3.0555 -1.4436
  171MOL0     H23041   4.376   3.532  -0.589 -1.7768 -0.8200  0.0792
  171MOL0     H23042   4.307   3.685  -0.548  0.4399  1.1787  3.7697
  171MOL0     H23043   4.272   3.588  -0.317  1.7159  0.0407  0.3776
  171MOL0     H23044   4.325   3.437  -0.390  1.8031  1.1630 -0.1666
  171MOL0     H23045   4.164   3.392  -0.233 -0.2714 -0.6660  1.1402
  171MOL0     H23046   3.988   3.257  -0.138  1.4584 -0.5078 -0.1361
  171MOL0     H23047   3.750   2.894  -0.113 -1.0837 -0.2230  0.9510
  171MOL0     H23048   3.579   2.748  -0.008 -1.5622 -0.3635  2.3385
  171MOL0     H23049   3.154   2.785   0.115 -1.0624 -0.8042 -1.0443
  171MOL0     H23050   3.182   2.949   0.077  1.9893  0.8548 -1.1426
  171MOL0     H23051   3.060   2.853  -0.107  0.4057  1.0943  1.5696
  171MOL0     H23052   3.211   2.908  -0.153  0.9781  1.1755  2.9386
  171MOL0     H23053   3.302   2.668  -0.171 -0.8375 -0.5780 -1.6877
  171MOL0     H23054   3.144   2.604  -0.118  1.3382 -1.3902 -0.0594
  171MOL0     H23055   3.173   2.761  -0.373 -2.5805  2.3862  0.2710
  171MOL0     H23056   3.033   2.675  -0.309 -0.0637 -1.4519  2.8685
  171MOL0     H23057   3.115   2.500  -0.435 -0.0742 -1.8467  1.1326
  171MOL0     H23058   3.203   2.479  -0.281 -0.0096  0.5830  0.6582
  171MOL0     H23059   3.319   2.613  -0.537  2.9826 -1.1999 -0.0413
  171MOL0     H23060   3.395   2.607  -0.376 -1.8365 -0.0806  3.2447
  171MOL0     H23061   3.388   2.359  -0.384 -2.0208  0.7726  1.4129
  171MOL0     H23062   3.484   2.436  -0.515 -1.7006  0.4363  1.3828
  171MOL0     H23063   3.335   2.240  -0.587  3.5099  1.4072  1.1598
  171MOL0     H23064   3.197   2.341  -0.531 -0.1039  3.9052  0.5347
  171MOL0     H23065   3.343   3.080   0.061  1.9790  1.1488  1.6311
  171MOL0     H23066   3.510   3.249   0.001  1.8297 -0.2829 -1.5450
  171MOL0     H23067   3.738   3.342  -0.488 -1.7428  3.4478  2.7663
  171MOL0     H23068   3.940   3.460  -0.587  0.8538 -0.7914 -0.7331
  171MOL0     H23069   3.517   3.495   0.484  0.2220 -1.1596  0.0732
  171MOL0     H23070   3.291   3.529   0.427  2.8597  1.7550 -2.2105
  171MOL0     H23071   2.907   3.380   0.421  0.7388 -0.1586  0.4467
  171MOL0     H23072   2.676   3.422   0.431 -0.7416 -0.0130 -0.0008
  171MOL0     H23073   2.497   3.493   0.026  2.3617  1.1154  1.2887
  171MOL0     H23074   2.371   3.561   0.137 -1.5990 -1.4981 -4.0275
  171MOL0     H23075   2.399   3.264   0.079  1.7556 -0.9681  2.5995
  171MOL0     H23076   2.259   3.356   0.033 -0.3168  0.1206  0.2156
  171MOL0     H23077   2.217   3.414   0.272 -1.0585 -0.7149  1.7531
  171MOL0     H23078   2.334   3.278   0.308 -1.0096 -0.7114  0.7343
  171MOL0     H23079   2.097   3.247   0.126  1.5971  1.2485 -1.6591
  171MOL0     H23080   2.209   3.117   0.184 -0.3358 -0.3371 -1.2460
  171MOL0     H23081   2.025   3.202   0.553  1.7017 -0.8039  0.7471
  171MOL0     H23082   2.669   3.390  -0.009 -0.2246 -0.0469  0.7972
  171MOL0     H23083   2.839   3.302  -0.122 -1.1258  0.8011  2.1824
  171MOL0     H23084   3.002   3.373  -0.078  3.0817 -2.8928 -0.0229
  171MOL0     H23085   2.964   3.210  -0.043 -0.6923 -0.0201 -0.9742
  172MOL0     O23086   2.291   0.553   7.592  0.3416 -0.0587  0.4443
  172MOL0     C23087   2.303   0.597   7.708 -0.3314  0.7931  0.2280
  172MOL0     O23088   2.423   0.628   7.770  0.5500  0.2613 -0.3155
  172MOL0     C23089   2.532   0.580   7.699 -0.5902  0.1086  0.6203
  172MOL0     C23090   2.590   0.637   7.585 -0.4008  0.2860  0.5026
  172MOL0     C23091   2.712   0.597   7.527 -1.3112  0.6996  0.1879
  172MOL0     C23092   2.789   0.493   7.596 -0.1553  0.6906 -0.6420
  172MOL0     O23093   2.912   0.463   7.552 -0.4611  0.2875  0.2542
  172MOL0     C23094   3.019   0.471   7.658 -0.0803 -0.1849  0.3096
  172MOL0     C23095   3.077   0.330   7.695  0.0942 -0.2296 -0.0194
  172MOL0     C23096   3.148   0.265   7.582 -0.7286 -0.4047 -0.5433
  172MOL0     C23097   3.295   0.319   7.576  0.1643  0.4508  0.2595
  172MOL0     C23098   3.369   0.261   7.465 -0.3732  0.4152 -0.5012
  172MOL0     C23099   3.319   0.299   7.326 -0.9106 -0.5098 -0.6595
  172MOL0     C23100   3.371   0.446   7.303 -0.4230 -0.0007 -0.3579
  172MOL0     C23101   3.330   0.512   7.171 -0.0597  1.0913 -0.1600
  172MOL0     N23102   3.190   0.479   7.134 -0.3216  0.2016 -0.4100
  172MOL0     C23103   3.074   0.519   7.206  0.0285  0.0541 -0.3428
  172MOL0     C23104   2.971   0.472   7.128  0.1158  0.0798  0.1290
  172MOL0     C23105   2.825   0.487   7.147  0.8774  0.3583 -0.0042
  172MOL0     C23106   2.790   0.634   7.152 -0.2373  0.2901  0.0542
  172MOL0     C23107   2.644   0.660   7.170  0.3767 -0.5792 -0.7072
  172MOL0     C23108   2.598   0.801   7.187 -0.0628 -0.5680  0.2409
  172MOL0     O23109   2.479   0.809   7.256  0.5660  0.0277  0.1520
  172MOL0     C23110   2.365   0.755   7.198  0.8156  0.6160  0.0960
  172MOL0     C23111   2.265   0.753   7.295 -0.1923  0.3940 -0.3031
  172MOL0     C23112   2.132   0.739   7.256  0.0526  0.1236 -0.6857
  172MOL0     C23113   2.095   0.723   7.124 -0.1137 -0.1024 -0.1416
  172MOL0     C23114   1.954   0.722   7.081  0.0943  0.7756  1.1579
  172MOL0     O23115   1.930   0.717   6.942  0.2697 -0.0588 -0.4297
  172MOL0     C23116   1.811   0.676   6.893 -0.2166 -0.1881  0.2367
  172MOL0     C23117   1.680   0.695   6.947 -0.4791 -0.2867 -0.1181
  172MOL0     C23118   1.573   0.689   6.857  0.2821  1.0399  0.2237
  172MOL0     C23119   1.580   0.609   6.737 -0.5218  0.4731 -0.1416
  172MOL0     O23120   1.460   0.587   6.669  0.4633  0.8186 -0.8277
  172MOL0     C23121   1.456   0.502   6.556 -0.1037  0.3242 -0.3396
  172MOL0     C23122   1.313   0.524   6.493  0.6691  0.6034 -0.0528
  172MOL0     C23123   1.192   0.517   6.593  1.1717  0.2873  0.6555
  172MOL0     C23124   1.062   0.544   6.518  0.4327 -0.1260 -0.1503
  172MOL0     C23125   0.934   0.581   6.606  0.5229  0.4902 -0.2136
  172MOL0     C23126   0.899   0.465   6.702  0.6340 -0.3870 -0.6465
  172MOL0     C23127   0.844   0.344   6.626 -0.1761 -0.6275 -0.0582
  172MOL0     C23128   0.707   0.356   6.563  0.5993 -0.4178 -0.3531
  172MOL0    Cl23129   0.707   0.406   6.392  0.0878 -0.1591  0.2215
  172MOL0     C23130   1.706   0.583   6.690  0.2857  0.8698 -0.7482
  172MOL0     C23131   1.822   0.619   6.767  0.8903 -0.0663 -0.3600
  172MOL0     O23132   1.867   0.710   7.168  0.2672 -0.1885 -0.5808
  172MOL0     C23133   2.195   0.724   7.027  0.9991  0.0028  0.2924
  172MOL0     C23134   2.333   0.734   7.062  0.5292  0.2956  0.4560
  172MOL0     N23135   3.033   0.413   7.020  0.0463  0.1842  0.6911
  172MOL0     N23136   3.157   0.410   7.027 -0.2242  0.5452 -0.4107
  172MOL0     C23137   2.727   0.433   7.709  0.9706  0.1993 -0.0417
  172MOL0     C23138   2.606   0.479   7.760  0.7673  0.2288 -0.1670
  172MOL0     C23139   2.173   0.592   7.791  1.0564  0.5393  0.9507
  172MOL0     C23140   2.182   0.593   7.929  0.1673 -0.1585  0.4538
  172MOL0     C23141   2.063   0.616   8.016  0.1380  0.2959 -0.1178
  172MOL0     C23142   1.935   0.623   7.952 -0.9347  0.6583  0.1958
  172MOL0     O23143   1.832   0.636   8.036 -0.5297  0.0994  0.4736
  172MOL0     C23144   1.688   0.619   8.003  0.0063  0.7938  0.4573
  172MOL0     C23145   1.634   0.745   7.936 -0.6839  0.8691  0.1689
  172MOL0     C23146   1.495   0.737   7.881  0.0251 -0.6345 -0.9768
  172MOL0     C23147   1.496   0.660   7.743 -0.8791 -0.1572 -0.0433
  172MOL0     C23148   1.361   0.673   7.687  0.7610  0.5949  0.5324
  172MOL0     C23149   1.248   0.670   7.656  0.3762 -0.2766  0.1708
  172MOL0     C23150   1.926   0.609   7.813  0.6757  1.1936  0.0037
  172MOL0     C23151   2.046   0.609   7.735  1.0885  1.3788 -1.3675
  172MOL0     C23152   2.011   0.616   7.593  0.1831 -0.0692  0.7238
  172MOL0     H23153   2.523   0.708   7.538  0.1001  1.0582  0.9451
  172MOL0     H23154   2.738   0.631   7.427 -1.0117 -1.0771 -0.3753
  172MOL0     H23155   3.106   0.526   7.622  0.0051  0.1200  0.9581
  172MOL0     H23156   2.977   0.533   7.738 -0.6568  3.5774 -2.6299
  172MOL0     H23157   2.995   0.261   7.717  0.8327 -1.8435 -1.9440
  172MOL0     H23158   3.146   0.352   7.776  1.3883 -2.1315 -0.5431
  172MOL0     H23159   3.096   0.286   7.488  1.2655  1.0526 -1.4047
  172MOL0     H23160   3.155   0.159   7.608  2.1010 -0.5396 -1.4677
  172MOL0     H23161   3.294   0.428   7.567  2.5583  0.5845  0.7371
  172MOL0     H23162   3.338   0.290   7.672  1.1325 -0.5040 -0.4449
  172MOL0     H23163   3.477   0.277   7.478 -0.4709 -0.3643  1.8456
  172MOL0     H23164   3.349   0.153   7.463  0.0363  0.2651  1.4179
  172MOL0     H23165   3.362   0.242   7.243  0.3077  1.9310 -1.7776
  172MOL0     H23166   3.209   0.303   7.321 -0.9570  0.7658  0.6524
  172MOL0     H23167   3.480   0.448   7.308 -0.3596 -2.2239  0.2970
  172MOL0     H23168   3.324   0.509   7.379  0.2406  1.3586 -1.0509
  172MOL0     H23169   3.347   0.620   7.164  1.8623  0.7281 -2.6280
  172MOL0     H23170   3.393   0.463   7.096  1.4444  2.0591  0.4304
  172MOL0     H23171   3.078   0.581   7.295  0.8626  2.0494 -1.7011
  172MOL0     H23172   2.785   0.435   7.059  0.3209  0.8809 -0.0655
  172MOL0     H23173   2.789   0.437   7.237  0.2251  1.7612  0.5275
  172MOL0     H23174   2.841   0.677   7.238 -1.7197 -0.2732  1.2479
  172MOL0     H23175   2.828   0.684   7.062 -3.5432  1.9564 -0.5959
  172MOL0     H23176   2.624   0.603   7.261  2.2526 -1.9484 -1.1047
  172MOL0     H23177   2.595   0.608   7.087  1.5631 -1.1908 -1.0359
  172MOL0     H23178   2.614   0.867   7.101  2.3637  1.1126  1.8532
  172MOL0     H23179   2.670   0.844   7.257 -0.9082  2.5339 -0.6209
  172MOL0     H23180   2.272   0.775   7.401 -1.7443  0.0647 -0.1148
  172MOL0     H23181   2.046   0.739   7.324  1.8568 -0.1055  1.7383
  172MOL0     H23182   1.679   0.756   7.036  2.2261 -0.4136  0.0844
  172MOL0     H23183   1.478   0.735   6.881  0.1740  1.9630 -1.7387
  172MOL0     H23184   1.536   0.523   6.484 -0.7663  1.4905 -0.7630
  172MOL0     H23185   1.467   0.402   6.600  1.3369  0.3645 -0.5795
  172MOL0     H23186   1.312   0.622   6.445 -2.9454  0.9700  0.5047
  172MOL0     H23187   1.297   0.456   6.410  0.1124 -0.6024  1.0147
  172MOL0     H23188   1.192   0.414   6.631 -1.8512  0.9431  2.7434
  172MOL0     H23189   1.201   0.589   6.674 -1.7452 -1.2618  2.5447
  172MOL0     H23190   1.048   0.450   6.463  0.7446 -0.4254  0.2777
  172MOL0     H23191   1.077   0.633   6.456  0.2010 -0.5080 -0.7677
  172MOL0     H23192   0.845   0.594   6.543  0.0673 -0.1122  0.2979
  172MOL0     H23193   0.963   0.673   6.657  1.6417 -0.4408  0.8704
  172MOL0     H23194   0.985   0.440   6.765  1.1949  3.4754  0.3583
  172MOL0     H23195   0.817   0.492   6.769 -0.2012 -0.6081 -1.5722
  172MOL0     H23196   0.836   0.265   6.701 -1.0797  0.5865  1.1770
  172MOL0     H23197   0.924   0.310   6.560  2.0492  0.9435  1.6834
  172MOL0     H23198   0.654   0.261   6.552 -0.7288  0.4575 -2.0564
  172MOL0     H23199   0.642   0.414   6.630  1.3091  0.0382 -0.0541
  172MOL0     H23200   1.728   0.536   6.595  2.5084  3.3935 -1.5886
  172MOL0     H23201   1.916   0.593   6.720  0.5492 -0.5367 -0.8013
  172MOL0     H23202   2.162   0.711   6.925 -1.0338  0.9211  0.7762
  172MOL0     H23203   2.407   0.751   6.984  0.9949 -2.4276  0.2173
  172MOL0     H23204   2.779   0.360   7.771  2.6957  1.0099 -0.4828
  172MOL0     H23205   2.561   0.435   7.849 -0.8217  2.5226  0.2585
  172MOL0     H23206   2.282   0.587   7.972  2.0298 -0.0575 -3.4743
  172MOL0     H23207   2.074   0.614   8.124 -1.2780  2.7890  0.1329
  172MOL0     H23208   1.627   0.588   8.088 -2.0677 -1.3294 -1.6397
  172MOL0     H23209   1.679   0.539   7.929 -1.2147 -0.9075  2.3654
  172MOL0     H23210   1.701   0.761   7.851 -1.1174 -0.5904 -0.4716
  172MOL0     H23211   1.651   0.823   8.011 -0.3238 -0.8545  1.9862
  172MOL0     H23212   1.452   0.836   7.866 -2.2922 -1.1708  1.2982
  172MOL0     H23213   1.427   0.683   7.948  0.7214  0.3664  0.6016
  172MOL0     H23214   1.566   0.701   7.670 -1.2421  0.3622 -0.1072
  172MOL0     H23215   1.539   0.560   7.757 -2.6108 -1.0803 -0.9715
  172MOL0     H23216   1.143   0.666   7.635  0.5143  0.7033 -0.7758
  172MOL0     H23217   1.825   0.598   7.776 -0.7749  3.3721  2.9118
  172MOL0     H23218   1.909   0.650   7.571 -0.3311 -0.8233  1.8500
  172MOL0     H23219   2.074   0.695   7.552 -0.8195 -0.7061 -2.3111
  172MOL0     H23220   2.032   0.521   7.543  0.5206  0.8530 -0.9457
  173MOL0     O23221   5.636   5.421   8.597 -0.2154  0.4380 -0.4605
  173MOL0     C23222   5.572   5.330   8.658  0.6089 -0.0486  0.0467
  173MOL0     O23223   5.625   5.244   8.744 -0.5405 -0.1349 -0.0898
  173MOL0     C23224   5.756   5.253   8.780  0.3683  0.1736 -0.2010
  173MOL0     C23225   5.825   5.132   8.779  0.1405  0.2877  0.0796
  173MOL0     C23226   5.962   5.124   8.802 -0.8682  0.6319  0.2625
  173MOL0     C23227   6.038   5.237   8.824 -0.2280 -0.4592 -1.0448
  173MOL0     O23228   6.175   5.223   8.830  0.4003  0.1469  1.3851
  173MOL0     C23229   6.254   5.328   8.887 -0.0066 -0.0488  1.2547
  173MOL0     C23230   6.395   5.288   8.911 -0.1462  0.0471 -0.1032
  173MOL0     C23231   6.463   5.385   9.011  0.6623 -0.5833  0.3995
  173MOL0     C23232   6.612   5.356   9.036 -0.1255  0.3933  0.3161
  173MOL0     C23233   6.665   5.441   9.160  0.8736  0.0390 -0.2822
  173MOL0     C23234   6.816   5.433   9.182  0.5183 -0.1063  0.3082
  173MOL0     C23235   6.876   5.532   9.271  0.1139  1.2380 -0.3532
  173MOL0     C23236   7.027   5.510   9.307 -0.0277 -0.4199  0.7165
  173MOL0     N23237   7.110   5.528   9.193  0.2278  0.0345  0.3302
  173MOL0     C23238   7.141   5.438   9.090  0.1492  0.0488 -0.3126
  173MOL0     C23239   7.188   5.524   8.992  0.1849 -1.2369  0.4422
  173MOL0     C23240   7.226   5.481   8.856  0.6262  0.6936  0.0769
  173MOL0     C23241   7.099   5.489   8.760  0.6945 -0.7294 -0.1713
  173MOL0     C23242   6.990   5.376   8.761  1.4785 -0.4890 -0.0675
  173MOL0     C23243   6.865   5.412   8.676  0.1953  0.3501 -0.0304
  173MOL0     O23244   6.773   5.300   8.659 -0.2218 -0.4501 -0.0472
  173MOL0     C23245   6.664   5.312   8.575 -1.5270 -0.5632 -0.0328
  173MOL0     C23246   6.634   5.429   8.512 -0.2008 -0.1456  0.4191
  173MOL0     C23247   6.518   5.447   8.443  0.9493  0.3710 -0.2479
  173MOL0     C23248   6.430   5.341   8.423  0.8499  0.8384 -1.2150
  173MOL0     C23249   6.301   5.356   8.338 -1.0925  0.2892 -0.4557
  173MOL0     O23250   6.219   5.251   8.304 -0.4716 -0.2323 -0.0564
  173MOL0     C23251   6.097   5.271   8.237  0.0298  0.0502 -0.5257
  173MOL0     C23252   6.055   5.184   8.132  0.1727  0.0262  0.0651
  173MOL0     C23253   5.915   5.184   8.103 -0.2325  0.3844 -0.4655
  173MOL0     C23254   5.829   5.264   8.171  0.8482 -0.4971 -0.4525
  173MOL0     O23255   5.697   5.262   8.125  0.1987  0.1595  1.2248
  173MOL0     C23256   5.587   5.304   8.204 -0.5002 -0.4395 -0.1542
  173MOL0     C23257   5.465   5.244   8.135 -0.0285 -1.0771 -1.0408
  173MOL0     C23258   5.350   5.306   8.199 -0.0317  0.1704 -0.0477
  173MOL0     C23259   5.218   5.240   8.148 -0.3464  1.1239  0.1181
  173MOL0     C23260   5.108   5.327   8.190 -0.3269  0.8888  0.9355
  173MOL0     C23261   4.978   5.287   8.131  0.3688  0.0889  0.0683
  173MOL0     C23262   4.864   5.361   8.208  0.4850  0.2044 -0.1070
  173MOL0     C23263   4.728   5.336   8.137 -1.3619  0.1231 -0.0852
  173MOL0    Cl23264   4.612   5.430   8.240 -0.6599 -0.4020  1.2581
  173MOL0     C23265   5.869   5.355   8.268  0.3105 -0.2050  0.0681
  173MOL0     C23266   6.001   5.360   8.299  0.6472  0.2488  0.4076
  173MOL0     O23267   6.293   5.470   8.293  0.2058  1.0774 -0.2855
  173MOL0     C23268   6.452   5.221   8.501 -0.6768 -0.0209 -0.3942
  173MOL0     C23269   6.571   5.208   8.577  0.0478  0.3836 -0.6903
  173MOL0     N23270   7.185   5.654   9.036  0.5760 -0.5097 -0.3868
  173MOL0     N23271   7.138   5.658   9.151  0.1895 -0.2557  0.2969
  173MOL0     C23272   5.969   5.365   8.839  0.2815 -0.6412 -0.0363
  173MOL0     C23273   5.827   5.373   8.813 -0.2570  0.2652 -0.0331
  173MOL0     C23274   5.428   5.303   8.643 -0.0247  0.5730  0.0068
  173MOL0     C23275   5.369   5.194   8.714 -0.5813  0.1234 -0.0305
  173MOL0     C23276   5.240   5.168   8.691  0.7132 -0.8951  0.2267
  173MOL0     C23277   5.156   5.256   8.619  0.5292 -0.5729 -0.1663
  173MOL0     O23278   5.025   5.230   8.598 -0.2813 -0.2740 -0.5549
  173MOL0     C23279   4.953   5.217   8.719  0.4182  0.0483 -0.1424
  173MOL0     C23280   4.806   5.231   8.684 -0.5881  0.3418 -0.5071
  173MOL0     C23281   4.728   5.177   8.809 -0.5311  0.2190 -0.2865
  173MOL0     C23282   4.721   5.020   8.813 -0.0790  0.5683  0.3160
  173MOL0     C23283   4.652   4.960   8.934 -0.5954  0.0810  0.4170
  173MOL0     C23284   4.584   4.916   9.025  0.5291 -0.1108 -0.1530
  173MOL0     C23285   5.207   5.368   8.563 -0.0690 -0.1048 -0.2685
  173MOL0     C23286   5.343   5.389   8.566  0.7494 -0.8042 -0.5142
  173MOL0     C23287   5.397   5.499   8.471  0.1818 -0.3738 -0.8366
  173MOL0     H23288   5.774   5.042   8.746  1.0943  0.5128 -2.1916
  173MOL0     H23289   5.988   5.018   8.798 -1.2355  0.5653 -1.1825
  173MOL0     H23290   6.256   5.412   8.816  0.2496  0.1250  1.4657
  173MOL0     H23291   6.193   5.350   8.975 -4.6442  2.1619 -2.0453
  173MOL0     H23292   6.457   5.272   8.822  0.5774 -1.5865  0.6654
  173MOL0     H23293   6.388   5.185   8.945 -3.6396  0.7654  1.7966
  173MOL0     H23294   6.401   5.392   9.101  0.3352 -2.7098  0.3977
  173MOL0     H23295   6.462   5.486   8.970  4.7990  0.1947  1.6959
  173MOL0     H23296   6.614   5.254   9.075  0.4450 -0.3188 -1.4578
  173MOL0     H23297   6.682   5.372   8.954  0.5020 -0.8793  0.5854
  173MOL0     H23298   6.632   5.545   9.166  0.2585 -0.1998  0.7804
  173MOL0     H23299   6.626   5.390   9.249  0.9808 -3.1494 -1.9400
  173MOL0     H23300   6.831   5.327   9.204 -0.4246 -0.1902  0.5773
  173MOL0     H23301   6.862   5.470   9.089  1.7198  1.2970  1.4138
  173MOL0     H23302   6.816   5.517   9.361 -1.1551 -0.9578 -1.4838
  173MOL0     H23303   6.862   5.636   9.239 -0.5193  1.4621  0.6252
  173MOL0     H23304   7.047   5.578   9.390 -0.0451  0.5982 -0.0916
  173MOL0     H23305   7.036   5.408   9.344  0.5410  0.0563  1.9225
  173MOL0     H23306   7.138   5.331   9.076  0.5660 -0.5567  3.3830
  173MOL0     H23307   7.294   5.556   8.814 -0.5730  0.4381 -2.5107
  173MOL0     H23308   7.267   5.379   8.854  1.5345  1.0261  0.9910
  173MOL0     H23309   7.041   5.578   8.787  1.2135 -0.4679  0.0760
  173MOL0     H23310   7.126   5.504   8.655 -0.4832 -1.9500 -0.6899
  173MOL0     H23311   6.957   5.365   8.864  0.2780  1.3599 -0.2082
  173MOL0     H23312   7.038   5.286   8.722 -1.2034 -1.9209 -0.3508
  173MOL0     H23313   6.899   5.443   8.576  4.3643 -0.8102  0.8105
  173MOL0     H23314   6.817   5.499   8.721  2.4359  0.2737  2.7741
  173MOL0     H23315   6.699   5.515   8.507  0.4562 -0.6904 -0.7772
  173MOL0     H23316   6.494   5.538   8.388 -0.8972  1.8012  2.6909
  173MOL0     H23317   6.119   5.112   8.084 -1.5889 -1.2408 -0.4816
  173MOL0     H23318   5.876   5.116   8.028  1.0570  0.6242 -1.3738
  173MOL0     H23319   5.596   5.262   8.304  0.6734 -0.0842 -0.1004
  173MOL0     H23320   5.583   5.411   8.226 -2.9466 -0.9757  2.7088
  173MOL0     H23321   5.475   5.256   8.026  0.7802  0.5548 -0.8233
  173MOL0     H23322   5.460   5.139   8.166 -3.1775 -0.7231  0.0029
  173MOL0     H23323   5.354   5.297   8.308 -1.5373  2.0493  0.2085
  173MOL0     H23324   5.342   5.411   8.169  1.7722  0.4144  0.2320
  173MOL0     H23325   5.208   5.140   8.192 -2.9898  2.3466  2.5588
  173MOL0     H23326   5.224   5.233   8.038  0.3825 -3.3565  0.2319
  173MOL0     H23327   5.140   5.425   8.152  2.0448 -0.9554 -2.3172
  173MOL0     H23328   5.100   5.328   8.299 -0.8569 -0.1140  0.9157
  173MOL0     H23329   4.971   5.315   8.026  2.7822 -0.9006 -0.4112
  173MOL0     H23330   4.960   5.180   8.118 -0.3437 -0.1965  2.8235
  173MOL0     H23331   4.889   5.467   8.212  2.7680 -0.2905  0.0945
  173MOL0     H23332   4.848   5.328   8.311  0.7989 -0.6506 -0.3270
  173MOL0     H23333   4.735   5.385   8.040  1.7225 -1.4902 -0.8092
  173MOL0     H23334   4.700   5.232   8.119 -2.0893  0.0518  1.2563
  173MOL0     H23335   5.798   5.409   8.330 -0.5530 -0.2359 -0.8800
  173MOL0     H23336   6.032   5.416   8.386  2.9038  1.7116 -1.2422
  173MOL0     H23337   6.389   5.133   8.506 -3.7505  1.9543 -1.6503
  173MOL0     H23338   6.598   5.124   8.640  2.0117  1.4859  0.0246
  173MOL0     H23339   6.015   5.460   8.866 -1.5768 -0.7301  4.1479
  173MOL0     H23340   5.767   5.462   8.829 -0.3636  0.6624 -2.3767
  173MOL0     H23341   5.428   5.119   8.766 -2.8964 -1.8627 -0.0476
  173MOL0     H23342   5.199   5.075   8.730 -0.3001  0.2014  1.8932
  173MOL0     H23343   4.985   5.293   8.791 -0.4411 -0.1562  0.4711
  173MOL0     H23344   4.972   5.118   8.762 -3.7404 -1.7189 -1.8397
  173MOL0     H23345   4.771   5.161   8.608  1.1076  0.8394 -1.7991
  173MOL0     H23346   4.791   5.334   8.654  2.4487  1.9760  2.7881
  173MOL0     H23347   4.627   5.212   8.787 -0.7331 -0.0920  0.1441
  173MOL0     H23348   4.748   5.222   8.906 -0.0406 -0.1590 -0.2042
  173MOL0     H23349   4.659   4.987   8.729 -0.0089 -5.0416  2.0701
  173MOL0     H23350   4.818   4.973   8.798 -0.5261  0.5997 -3.5462
  173MOL0     H23351   4.521   4.869   9.099  1.2409  0.4810  0.8519
  173MOL0     H23352   5.138   5.441   8.521 -1.7631 -0.8552  1.0987
  173MOL0     H23353   5.478   5.464   8.408  2.1813  2.4918 -0.0702
  173MOL0     H23354   5.324   5.546   8.404 -1.0376 -1.8262 -0.5786
  173MOL0     H23355   5.439   5.583   8.528 -0.6558 -0.6602  0.2512
  174MOL0     O23356   1.761  10.598   0.408  0.4533 -0.1242 -0.3697
  174MOL0     C23357   1.781  10.520   0.309  0.0254 -0.3348 -0.0827
  174MOL0     O23358   1.907  10.504   0.255 -0.1204  0.4792  1.0643
  174MOL0     C23359   2.011  10.556   0.325  0.0784  0.0133 -0.4652
  174MOL0     C23360   2.100  10.465   0.381 -0.1506  0.1089  0.5005
  174MOL0     C23361   2.218  10.502   0.443 -0.5345  0.1181 -1.5256
  174MOL0     C23362   2.236  10.640   0.472  0.3744  0.3328 -0.2807
  174MOL0     O23363   2.349  10.696   0.530  0.0024  0.3590  1.1686
  174MOL0     C23364   2.445  10.614   0.600  0.2269  0.5713 -0.3429
  174MOL0     C23365   2.554  10.702   0.647  0.0654  1.1770 -0.0925
  174MOL0     C23366   2.646  10.620   0.724  0.0656  0.4788 -0.4337
  174MOL0     C23367   2.777  10.693   0.750 -0.6848 -0.2901  0.1037
  174MOL0     C23368   2.892  10.608   0.820  0.0845  0.3053  0.0759
  174MOL0     C23369   3.022  10.690   0.840  0.7777  1.3436  0.9895
  174MOL0     C23370   3.138  10.597   0.875 -0.3591 -0.0438 -0.1503
  174MOL0     C23371   3.271  10.675   0.878  0.3432  0.0751  0.0978
  174MOL0     N23372   3.382  10.611   0.952  0.1989  0.4175 -0.1992
  174MOL0     C23373   3.488  10.548   0.898 -0.1304  0.5551 -0.0499
  174MOL0     C23374   3.560  10.499   1.001  0.0903 -1.0073 -0.1942
  174MOL0     C23375   3.704  10.452   0.997  0.5599 -0.7961 -0.3798
  174MOL0     C23376   3.729  10.303   0.996 -0.6694 -0.2235 -0.0217
  174MOL0     C23377   3.634  10.230   0.897 -0.0127 -0.3554 -0.0330
  174MOL0     C23378   3.699  10.099   0.841 -1.0273  0.0554 -0.2270
  174MOL0     O23379   3.785  10.143   0.738 -0.2889 -0.1089  0.2558
  174MOL0     C23380   3.896  10.061   0.709 -0.1662  0.2229  0.7359
  174MOL0     C23381   4.005  10.116   0.640 -0.0823  0.1527 -0.1485
  174MOL0     C23382   4.117  10.044   0.618  0.2077  0.6373 -0.1667
  174MOL0     C23383   4.124   9.909   0.656 -0.6117  0.5864  0.3795
  174MOL0     C23384   4.253   9.827   0.639 -0.3565  0.2034  0.4216
  174MOL0     O23385   4.362   9.888   0.580  0.3974 -0.6190  0.6313
  174MOL0     C23386   4.472   9.818   0.538 -0.0813  0.1716  0.6151
  174MOL0     C23387   4.598   9.843   0.605  0.6998  0.2648  0.2305
  174MOL0     C23388   4.718   9.808   0.535 -0.3315 -0.2778 -0.3980
  174MOL0     C23389   4.717   9.736   0.413  0.4358  1.4443 -0.9173
  174MOL0     O23390   4.839   9.706   0.349  0.0113  0.1084  1.0264
  174MOL0     C23391   4.862   9.604   0.248 -0.0166  0.1325  0.1709
  174MOL0     C23392   4.932   9.479   0.297 -0.9776  0.0377  0.4334
  174MOL0     C23393   5.008   9.408   0.182 -0.0715  0.5824 -0.1438
  174MOL0     C23394   5.145   9.482   0.146 -0.0250  0.5346 -0.3136
  174MOL0     C23395   5.213   9.391   0.041  0.4416  0.1201 -0.0185
  174MOL0     C23396   5.279   9.274   0.096 -0.4818  0.1291 -0.4384
  174MOL0     C23397   5.413   9.313   0.150  0.8114  0.0791  0.2908
  174MOL0     C23398   5.493   9.179   0.176 -1.2323 -1.2691 -0.8131
  174MOL0    Cl23399   5.551   9.098   0.023 -0.4473 -0.1818  0.0259
  174MOL0     C23400   4.590   9.705   0.357  0.6934 -0.2649  0.2716
  174MOL0     C23401   4.475   9.745   0.420  0.4188 -0.2835  0.3072
  174MOL0     O23402   4.263   9.715   0.681  0.1069 -0.2172  0.5988
  174MOL0     C23403   4.016   9.854   0.726 -0.0330 -0.6888 -0.0298
  174MOL0     C23404   3.899   9.929   0.750  0.6206  0.3137  0.2416
  174MOL0     N23405   3.489  10.526   1.120 -0.3295 -0.5289 -0.2930
  174MOL0     N23406   3.388  10.600   1.086  0.9568 -0.4159 -0.7128
  174MOL0     C23407   2.146  10.734   0.418 -0.4582  0.6455 -0.5142
  174MOL0     C23408   2.039  10.689   0.338 -0.5540 -0.1921  0.2501
  174MOL0     C23409   1.672  10.456   0.236 -0.0932 -0.5748  0.1403
  174MOL0     C23410   1.549  10.523   0.248  0.8188 -0.6160 -0.1728
  174MOL0     C23411   1.433  10.490   0.157 -0.9733 -0.6469 -0.8234
  174MOL0     C23412   1.451  10.391   0.065 -0.3467 -0.3755  0.0290
  174MOL0     O23413   1.360  10.356  -0.025 -0.5855 -0.6937  0.5649
  174MOL0     C23414   1.217  10.362   0.009 -0.1413  0.4853 -0.0086
  174MOL0     C23415   1.121  10.360  -0.117 -1.1108  0.6212  0.1764
  174MOL0     C23416   0.982  10.344  -0.069  0.1546  0.0068  0.0667
  174MOL0     C23417   0.874  10.361  -0.182  0.1638 -0.2626  0.3095
  174MOL0     C23418   0.742  10.341  -0.118 -0.6529 -0.5511 -0.4872
  174MOL0     C23419   0.634  10.331  -0.069  0.2936  0.3846 -0.0270
  174MOL0     C23420   1.568  10.317   0.067  0.1685 -0.0919 -0.2733
  174MOL0     C23421   1.682  10.342   0.148 -0.5181  0.1969 -0.6288
  174MOL0     C23422   1.796  10.245   0.142  0.0755  0.5996  0.5349
  174MOL0     H23423   2.088  10.360   0.355  0.3980 -0.4628  2.3929
  174MOL0     H23424   2.299  10.432   0.462  0.1109  0.9730 -1.0183
  174MOL0     H23425   2.395  10.561   0.682 -0.4816  1.1205 -0.4188
  174MOL0     H23426   2.485  10.542   0.528  1.3762 -0.9059  1.6495
  174MOL0     H23427   2.516  10.788   0.701 -4.7373 -0.5921 -0.1458
  174MOL0     H23428   2.605  10.738   0.557  1.3544  2.0469  0.9418
  174MOL0     H23429   2.671  10.536   0.660 -0.2626  0.6660 -0.8065
  174MOL0     H23430   2.605  10.599   0.824  1.5517 -0.6440 -0.0207
  174MOL0     H23431   2.814  10.743   0.660  1.0483  2.4635  2.1819
  174MOL0     H23432   2.752  10.776   0.817 -2.4281 -0.0065 -0.8406
  174MOL0     H23433   2.858  10.574   0.918  0.1711  0.3258  0.1134
  174MOL0     H23434   2.915  10.519   0.761  0.7446 -0.5666  1.5995
  174MOL0     H23435   3.042  10.728   0.739  3.6405  0.6508  1.2134
  174MOL0     H23436   3.018  10.773   0.911  0.3298  1.9747  0.2471
  174MOL0     H23437   3.147  10.510   0.810  0.8599 -0.1736  0.1670
  174MOL0     H23438   3.124  10.556   0.976  1.1444  0.0960  0.1378
  174MOL0     H23439   3.298  10.691   0.774 -0.5573  0.8894 -0.0149
  174MOL0     H23440   3.254  10.773   0.922  0.6753 -0.2275  0.9344
  174MOL0     H23441   3.520  10.529   0.797  0.1627 -1.1507  0.3372
  174MOL0     H23442   3.755  10.494   0.910  0.0046  0.2318 -0.2293
  174MOL0     H23443   3.746  10.492   1.090 -0.6008  1.1929 -0.6413
  174MOL0     H23444   3.832  10.295   0.961 -0.7337  3.0698 -1.3460
  174MOL0     H23445   3.719  10.268   1.100 -1.7270 -0.8403 -0.3191
  174MOL0     H23446   3.610  10.294   0.811  1.0323 -1.3534 -1.1054
  174MOL0     H23447   3.540  10.193   0.938  0.7157  1.8755  4.1832
  174MOL0     H23448   3.626  10.028   0.800 -0.7505 -1.1856  1.3487
  174MOL0     H23449   3.749  10.045   0.922 -0.8926  0.9409  0.2960
  174MOL0     H23450   3.997  10.223   0.623  0.7302  0.1649 -0.5043
  174MOL0     H23451   4.203  10.085   0.566  2.1556 -3.3091 -0.4370
  174MOL0     H23452   4.591   9.907   0.692 -4.9738  2.6377 -1.4850
  174MOL0     H23453   4.817   9.835   0.569 -0.1620  2.6177 -2.7569
  174MOL0     H23454   4.773   9.582   0.188 -0.8843 -1.4252  1.9236
  174MOL0     H23455   4.932   9.655   0.180  1.8365  1.0840  2.6465
  174MOL0     H23456   4.992   9.489   0.388  0.4763 -1.4522 -0.3214
  174MOL0     H23457   4.854   9.411   0.334 -1.4395 -0.6820 -1.7290
  174MOL0     H23458   5.038   9.306   0.207 -1.7895 -0.2936 -1.3804
  174MOL0     H23459   4.942   9.403   0.094  0.2092  0.3381 -0.3407
  174MOL0     H23460   5.210   9.503   0.232 -1.5598 -2.7273  1.8720
  174MOL0     H23461   5.119   9.576   0.095 -3.3923  0.2289  0.5323
  174MOL0     H23462   5.289   9.451  -0.011  0.4593  0.5952  0.5505
  174MOL0     H23463   5.138   9.372  -0.036  1.3081  1.7418 -1.3374
  174MOL0     H23464   5.225   9.222   0.176  0.4599  3.7722  2.8831
  174MOL0     H23465   5.306   9.199   0.021  2.4412 -1.4497  1.9781
  174MOL0     H23466   5.392   9.368   0.242  1.4661 -1.9771  1.7470
  174MOL0     H23467   5.473   9.377   0.085  1.3553 -0.5063  0.2121
  174MOL0     H23468   5.586   9.209   0.225 -0.9800  2.2306 -3.0559
  174MOL0     H23469   5.447   9.110   0.247  1.3634 -0.5283  1.8129
  174MOL0     H23470   4.598   9.659   0.258 -0.6434  1.8532 -0.8809
  174MOL0     H23471   4.375   9.728   0.381 -1.8244 -1.2176  5.5885
  174MOL0     H23472   4.017   9.748   0.753 -0.0418 -0.3037  1.5776
  174MOL0     H23473   3.813   9.881   0.795  0.2376  1.8602  1.2133
  174MOL0     H23474   2.177  10.837   0.429  0.9772  0.2597 -0.6968
  174MOL0     H23475   1.973  10.750   0.277  0.6880 -2.0672 -3.1849
  174MOL0     H23476   1.540  10.604   0.320  0.0150  0.4067 -1.3957
  174MOL0     H23477   1.351  10.558   0.139 -1.8039 -1.4730 -0.2186
  174MOL0     H23478   1.203  10.459   0.056 -0.9014 -1.0157  3.1060
  174MOL0     H23479   1.174  10.295   0.083  0.6604 -1.3061 -1.0757
  174MOL0     H23480   1.141  10.277  -0.186  0.6204 -1.2569  2.7381
  174MOL0     H23481   1.132  10.455  -0.169 -0.3403  1.3624  1.6219
  174MOL0     H23482   0.970  10.412   0.015  4.1586 -0.2705  1.0251
  174MOL0     H23483   0.973  10.239  -0.038  1.1921 -0.8647 -2.2948
  174MOL0     H23484   0.880  10.468  -0.205  0.6462 -0.4784 -0.6395
  174MOL0     H23485   0.886  10.294  -0.269  0.6124 -0.9088  0.8577
  174MOL0     H23486   0.540  10.329  -0.017  1.0038 -0.4855  1.2706
  174MOL0     H23487   1.563  10.230   0.002 -2.1024  1.5825 -2.5563
  174MOL0     H23488   1.763  10.147   0.106  0.5466  0.0738  1.4827
  174MOL0     H23489   1.883  10.279   0.084  1.6635 -2.1811  1.0619
  174MOL0     H23490   1.833  10.230   0.244  1.8875 -0.3423 -0.2022
  175MOL0     O23491   2.403   9.145   6.711 -0.8655  0.1151  0.1475
  175MOL0     C23492   2.390   9.233   6.791 -0.0554  0.4491  0.5284
  175MOL0     O23493   2.290   9.321   6.797 -0.5040 -0.5306  0.2487
  175MOL0     C23494   2.172   9.335   6.715  0.1790  0.1048 -0.5195
  175MOL0     C23495   2.072   9.419   6.759  0.4256 -0.1896 -0.1965
  175MOL0     C23496   1.957   9.431   6.678 -0.3143 -0.1207 -0.9007
  175MOL0     C23497   1.941   9.377   6.553  0.2301 -0.4401 -0.1444
  175MOL0     O23498   1.822   9.392   6.493 -0.5927 -0.6765 -0.0719
  175MOL0     C23499   1.817   9.367   6.352  0.4688 -0.0351 -0.8545
  175MOL0     C23500   1.682   9.403   6.292  0.5781 -0.5250  0.0461
  175MOL0     C23501   1.571   9.297   6.314  0.0029  0.7156 -0.4385
  175MOL0     C23502   1.447   9.340   6.248 -0.3441 -0.3752  0.1054
  175MOL0     C23503   1.322   9.268   6.296 -0.1709 -0.0013  0.0084
  175MOL0     C23504   1.208   9.255   6.193  0.1381  0.6568 -0.5695
  175MOL0     C23505   1.106   9.148   6.235 -0.1371  0.4769 -0.9543
  175MOL0     C23506   0.993   9.147   6.129 -0.4740 -0.1521  0.0603
  175MOL0     N23507   1.034   9.095   6.007  0.5767  1.5314  0.0485
  175MOL0     C23508   1.101   8.974   5.976  0.0751 -0.1429 -0.4803
  175MOL0     C23509   1.125   8.989   5.849 -0.0585 -0.1375  0.2557
  175MOL0     C23510   1.201   8.894   5.761  0.5929 -0.3284 -1.4444
  175MOL0     C23511   1.332   8.837   5.813  0.5336  0.1273 -0.5368
  175MOL0     C23512   1.386   8.741   5.707 -0.0729 -0.2800  0.5187
  175MOL0     C23513   1.540   8.710   5.705 -0.1762  0.3108  0.8620
  175MOL0     O23514   1.592   8.674   5.834 -0.0011  0.4230  0.3408
  175MOL0     C23515   1.723   8.695   5.860 -0.9432  0.8034  0.1430
  175MOL0     C23516   1.775   8.666   5.994  0.6291  0.3652  0.3115
  175MOL0     C23517   1.915   8.667   6.019  0.7628  0.0629 -1.2716
  175MOL0     C23518   2.005   8.697   5.925  0.0703  0.2694  0.1103
  175MOL0     C23519   2.159   8.699   5.955 -0.1551  0.4366  0.1200
  175MOL0     O23520   2.238   8.734   5.849  0.9540 -0.1828 -0.2163
  175MOL0     C23521   2.373   8.710   5.859  0.2042 -0.7998 -0.0756
  175MOL0     C23522   2.442   8.647   5.752 -0.7725  0.2245 -0.2921
  175MOL0     C23523   2.580   8.637   5.754  0.1508 -0.0930 -0.0893
  175MOL0     C23524   2.651   8.701   5.861 -0.9202  0.7557 -0.2480
  175MOL0     O23525   2.785   8.706   5.875 -0.5998  0.2904 -0.4675
  175MOL0     C23526   2.866   8.641   5.781 -0.7226  0.0443 -0.0469
  175MOL0     C23527   3.017   8.647   5.819  0.5243  0.3470 -0.1429
  175MOL0     C23528   3.029   8.546   5.933 -0.2386  0.4325 -0.7664
  175MOL0     C23529   3.170   8.542   5.995 -0.3322  0.0557 -0.1082
  175MOL0     C23530   3.177   8.432   6.106 -0.6347 -0.4106 -0.4881
  175MOL0     C23531   3.275   8.458   6.218 -0.0079  0.1016  0.2598
  175MOL0     C23532   3.296   8.331   6.308 -0.1001 -0.3678  1.0011
  175MOL0     C23533   3.390   8.235   6.234 -0.0779 -0.7267 -0.0643
  175MOL0    Cl23534   3.555   8.284   6.246 -0.3276 -0.0419 -0.0996
  175MOL0     C23535   2.584   8.763   5.968 -0.1964 -0.3099 -0.0645
  175MOL0     C23536   2.447   8.774   5.961  0.1567  0.1536  0.3053
  175MOL0     O23537   2.199   8.675   6.071  0.6890 -0.2888  1.2988
  175MOL0     C23538   1.953   8.714   5.792 -0.0039 -0.3915 -0.6834
  175MOL0     C23539   1.817   8.700   5.764 -0.5559 -0.5857 -0.1036
  175MOL0     N23540   1.074   9.102   5.792 -0.0515 -0.6193 -0.5095
  175MOL0     N23541   1.012   9.159   5.894  0.4191 -0.1429  0.0083
  175MOL0     C23542   2.040   9.281   6.510  0.2637  0.2861 -0.6424
  175MOL0     C23543   2.155   9.268   6.592 -0.0802 -0.7903  0.2145
  175MOL0     C23544   2.478   9.232   6.912 -0.8880  0.1821 -0.1062
  175MOL0     C23545   2.608   9.192   6.898 -0.6379  0.0130  0.2122
  175MOL0     C23546   2.699   9.211   7.000 -0.4544 -0.1383 -0.2921
  175MOL0     C23547   2.650   9.261   7.124  0.4498  0.8921  0.4927
  175MOL0     O23548   2.731   9.294   7.230  0.5429 -0.4452 -0.9569
  175MOL0     C23549   2.855   9.214   7.236 -0.1899 -0.1652 -0.1428
  175MOL0     C23550   2.914   9.250   7.373  0.8717  0.4734 -0.3141
  175MOL0     C23551   3.036   9.170   7.410  0.8866  0.0104 -0.3441
  175MOL0     C23552   3.162   9.205   7.325 -0.0766 -0.4993 -0.8149
  175MOL0     C23553   3.194   9.354   7.340  0.2223  0.4406 -0.4192
  175MOL0     C23554   3.239   9.467   7.353 -0.7687 -0.2931  0.2220
  175MOL0     C23555   2.510   9.286   7.146  0.2429 -0.1714  0.5280
  175MOL0     C23556   2.426   9.267   7.039 -0.8213 -0.8548  0.4903
  175MOL0     C23557   2.273   9.279   7.073 -0.1908  0.6642  0.0793
  175MOL0     H23558   2.083   9.474   6.851 -1.3445 -2.8382  1.7538
  175MOL0     H23559   1.870   9.471   6.730  0.8600  1.6966 -0.2070
  175MOL0     H23560   1.896   9.431   6.311  0.0908  0.8264 -0.2479
  175MOL0     H23561   1.832   9.259   6.337 -0.1412 -0.2255 -0.1061
  175MOL0     H23562   1.705   9.409   6.186 -0.2448 -0.4769 -0.1293
  175MOL0     H23563   1.642   9.499   6.324 -0.3068 -1.1330  0.8412
  175MOL0     H23564   1.565   9.288   6.422 -0.2184  2.5270 -0.2635
  175MOL0     H23565   1.597   9.197   6.277  3.3028  1.9305 -1.8644
  175MOL0     H23566   1.437   9.448   6.266  0.0346 -0.2035 -0.6897
  175MOL0     H23567   1.465   9.327   6.141 -1.6017  2.5126 -0.5808
  175MOL0     H23568   1.360   9.169   6.325  1.5431  0.2397 -1.2801
  175MOL0     H23569   1.275   9.315   6.383  2.7432 -1.9711  2.9271
  175MOL0     H23570   1.151   9.347   6.177 -0.4013  0.3907 -0.2116
  175MOL0     H23571   1.257   9.229   6.099  1.4401  0.9540  0.0029
  175MOL0     H23572   1.066   9.175   6.333  1.3353 -0.0990 -0.1625
  175MOL0     H23573   1.156   9.052   6.253 -0.4710  0.5503  0.4642
  175MOL0     H23574   0.905   9.094   6.166 -0.0587 -0.4517  0.6292
  175MOL0     H23575   0.959   9.251   6.119 -2.1792 -0.6778 -0.0400
  175MOL0     H23576   1.135   8.897   6.044  0.4067  0.6278  0.2447
  175MOL0     H23577   1.131   8.811   5.749 -2.0215  1.2940  1.2976
  175MOL0     H23578   1.224   8.944   5.666  0.9502 -1.3971 -1.9419
  175MOL0     H23579   1.410   8.914   5.823  1.3154 -0.1436 -3.6426
  175MOL0     H23580   1.320   8.779   5.905 -0.5376 -2.3622 -2.1317
  175MOL0     H23581   1.377   8.794   5.612  1.5884 -0.2528  0.3467
  175MOL0     H23582   1.334   8.645   5.710 -0.9342  0.1251 -0.8195
  175MOL0     H23583   1.601   8.793   5.667  0.1452 -0.2630  0.1042
  175MOL0     H23584   1.559   8.625   5.639  0.1246  1.6079 -0.7973
  175MOL0     H23585   1.706   8.646   6.076 -0.3632  0.6495 -0.4362
  175MOL0     H23586   1.949   8.651   6.121  2.3859  2.1535 -1.4123
  175MOL0     H23587   2.408   8.619   5.652 -1.4765  1.9601 -0.5624
  175MOL0     H23588   2.622   8.584   5.669 -4.7669 -2.3166 -1.5100
  175MOL0     H23589   2.844   8.535   5.766 -1.2665  0.0517  0.6476
  175MOL0     H23590   2.855   8.694   5.687  2.7003  0.4212 -0.3605
  175MOL0     H23591   3.086   8.607   5.745  0.0433  1.3379 -1.1550
  175MOL0     H23592   3.064   8.742   5.846  2.2911 -0.4572 -0.2923
  175MOL0     H23593   2.965   8.577   6.016  1.6177  1.5946  0.3227
  175MOL0     H23594   2.998   8.449   5.893 -0.9361  1.0191 -1.7021
  175MOL0     H23595   3.191   8.641   6.035  0.6378  0.1956 -0.9330
  175MOL0     H23596   3.244   8.516   5.919  0.6996  0.4141  0.7476
  175MOL0     H23597   3.206   8.342   6.052  2.9268 -0.1759  0.7585
  175MOL0     H23598   3.074   8.425   6.143 -1.5427  1.3035 -2.4611
  175MOL0     H23599   3.373   8.490   6.182 -0.0080  0.8009  0.8652
  175MOL0     H23600   3.233   8.537   6.281 -1.6386  0.5346 -1.2701
  175MOL0     H23601   3.203   8.284   6.339  0.5273 -1.7635  0.8572
  175MOL0     H23602   3.334   8.366   6.405 -4.0068  2.2882  1.7749
  175MOL0     H23603   3.374   8.144   6.292 -0.0355 -1.2796 -0.9005
  175MOL0     H23604   3.358   8.213   6.131  0.1597 -0.1743 -0.2643
  175MOL0     H23605   2.637   8.819   6.044  0.4573  1.0294 -1.4413
  175MOL0     H23606   2.400   8.834   6.039 -0.3610 -0.3059  0.3554
  175MOL0     H23607   2.021   8.743   5.712  1.0005  2.0671  0.9224
  175MOL0     H23608   1.782   8.702   5.661 -0.5986  3.4918 -0.1970
  175MOL0     H23609   2.032   9.226   6.417  0.4875  0.0701 -0.5335
  175MOL0     H23610   2.225   9.202   6.541 -0.1139 -1.0619  0.5155
  175MOL0     H23611   2.649   9.164   6.801  0.8218 -2.0433  1.3496
  175MOL0     H23612   2.801   9.179   6.979 -0.1885 -0.1493  0.9341
  175MOL0     H23613   2.923   9.260   7.164 -0.1808  0.1642  0.0775
  175MOL0     H23614   2.843   9.108   7.211  2.4087 -0.4552 -0.3937
  175MOL0     H23615   2.834   9.220   7.441  0.6477  0.9072 -0.3846
  175MOL0     H23616   2.917   9.359   7.380 -3.6809  1.0415 -3.2288
  175MOL0     H23617   3.008   9.065   7.402  0.0402  0.2847 -1.1815
  175MOL0     H23618   3.060   9.184   7.516  0.0470 -1.6482  0.0849
  175MOL0     H23619   3.252   9.152   7.358  0.8736  1.5623  0.1115
  175MOL0     H23620   3.131   9.184   7.223 -2.6285 -1.6946  0.1154
  175MOL0     H23621   3.278   9.567   7.353 -0.7442 -0.3019  0.2211
  175MOL0     H23622   2.470   9.327   7.238 -1.4489 -1.2821  0.3404
  175MOL0     H23623   2.209   9.232   6.997  0.0263  1.7214 -0.7894
  175MOL0     H23624   2.247   9.223   7.163  0.5929  0.4222  0.1628
  175MOL0     H23625   2.251   9.386   7.083  5.3570  2.0674  0.4801
  176MOL0     O23626   1.170   7.746   9.149  0.7026  0.6011 -0.3932
  176MOL0     C23627   1.137   7.672   9.238 -0.3002  0.3954 -0.2636
  176MOL0     O23628   1.007   7.630   9.260 -0.3756 -0.6825  0.3372
  176MOL0     C23629   0.926   7.664   9.151  0.3037 -0.0992 -0.0041
  176MOL0     C23630   0.933   7.585   9.032 -0.0344 -0.1103  0.4855
  176MOL0     C23631   0.828   7.601   8.939 -0.2413 -0.1057 -0.2097
  176MOL0     C23632   0.739   7.706   8.945  0.0390  0.0251  0.5513
  176MOL0     O23633   0.650   7.743   8.847  0.9289  0.1815 -0.0689
  176MOL0     C23634   0.590   7.638   8.763  0.5171  0.4529  0.1534
  176MOL0     C23635   0.507   7.546   8.839  0.0648  0.4395 -0.9860
  176MOL0     C23636   0.380   7.498   8.767 -0.3438 -0.0369 -0.4179
  176MOL0     C23637   0.290   7.418   8.856  0.2467 -0.1517 -0.3633
  176MOL0     C23638   0.153   7.386   8.795 -0.0497 -0.7969  0.9601
  176MOL0     C23639   0.051   7.325   8.896 -0.0319 -0.5143  0.0606
  176MOL0     C23640  -0.078   7.302   8.831  0.0908  0.3674  0.3733
  176MOL0     C23641  -0.193   7.273   8.923 -0.6987 -0.5401 -0.5178
  176MOL0     N23642  -0.182   7.144   8.990  0.0959  0.3795 -0.1873
  176MOL0     C23643  -0.166   7.024   8.937 -0.2272  0.8938  0.5371
  176MOL0     C23644  -0.165   6.941   9.043 -0.0196  0.0566 -0.4251
  176MOL0     C23645  -0.143   6.787   9.040 -0.5167 -0.2497  0.0989
  176MOL0     C23646  -0.013   6.747   8.966  0.0509  0.4035  0.2961
  176MOL0     C23647   0.020   6.594   8.990 -0.6653  0.2574  0.3672
  176MOL0     C23648   0.167   6.551   8.981 -0.4522 -0.6793  0.3832
  176MOL0     O23649   0.218   6.614   8.860  0.3766  0.2927  0.1781
  176MOL0     C23650   0.348   6.609   8.843 -0.6282 -0.4787 -0.2584
  176MOL0     C23651   0.433   6.505   8.890 -0.1148  0.5121 -0.4191
  176MOL0     C23652   0.564   6.497   8.854 -0.1335 -1.0001 -0.6032
  176MOL0     C23653   0.623   6.606   8.775  0.1019 -0.7029 -1.0576
  176MOL0     C23654   0.773   6.618   8.763 -0.3060 -0.7429  0.0468
  176MOL0     O23655   0.804   6.728   8.689 -0.6305 -0.5250 -0.3020
  176MOL0     C23656   0.935   6.733   8.649  0.2403  0.0266 -0.1972
  176MOL0     C23657   1.006   6.832   8.718 -1.4810  0.5307  0.2468
  176MOL0     C23658   1.146   6.856   8.695 -0.8183  0.1077 -0.4551
  176MOL0     C23659   1.210   6.777   8.609  0.5339 -0.2189  0.4172
  176MOL0     O23660   1.345   6.801   8.587 -0.1713  0.1550 -0.5209
  176MOL0     C23661   1.392   6.805   8.451 -0.3493 -0.3468  0.4399
  176MOL0     C23662   1.502   6.907   8.453 -0.1907 -0.5612  0.5884
  176MOL0     C23663   1.605   6.874   8.560  0.2313  0.1554 -0.8319
  176MOL0     C23664   1.730   6.958   8.543  0.2512 -0.0873  0.4335
  176MOL0     C23665   1.832   6.937   8.655  0.1825 -0.7529 -0.1216
  176MOL0     C23666   1.960   7.016   8.643 -0.0225  0.1843 -0.8367
  176MOL0     C23667   2.067   6.955   8.734  0.7228 -0.1039  0.1334
  176MOL0     C23668   2.183   7.050   8.731  0.9542 -0.4442  0.1124
  176MOL0    Cl23669   2.330   6.974   8.785 -0.0581 -0.1565  0.3131
  176MOL0     C23670   1.142   6.677   8.538  0.1045 -0.1977  0.9781
  176MOL0     C23671   1.004   6.659   8.550 -0.4822  0.1186  0.0005
  176MOL0     O23672   0.842   6.521   8.789 -0.3642 -0.0626  0.2874
  176MOL0     C23673   0.537   6.712   8.735  0.1185  0.3627 -0.7967
  176MOL0     C23674   0.406   6.703   8.768 -0.2811  0.2422  0.3502
  176MOL0     N23675  -0.154   7.018   9.161  0.0509  0.2671  0.5306
  176MOL0     N23676  -0.161   7.138   9.117 -0.1868  0.1999 -0.4557
  176MOL0     C23677   0.730   7.787   9.064  0.4236 -0.0967 -0.3886
  176MOL0     C23678   0.818   7.761   9.176 -0.9304 -0.5104  0.1006
  176MOL0     C23679   1.250   7.615   9.330 -0.6603 -0.6220  0.2811
  176MOL0     C23680   1.210   7.516   9.415 -1.0030  0.2236  0.0409
  176MOL0     C23681   1.302   7.464   9.508 -0.1335  0.3700 -1.1666
  176MOL0     C23682   1.430   7.521   9.528 -0.1227 -0.0650  0.5936
  176MOL0     O23683   1.519   7.482   9.626  0.1172 -0.1789 -0.4882
  176MOL0     C23684   1.468   7.420   9.750 -0.1788 -0.2869 -0.6001
  176MOL0     C23685   1.591   7.405   9.848  0.0249  0.3023  0.2976
  176MOL0     C23686   1.634   7.536   9.900 -0.4634 -0.5018  0.5978
  176MOL0     C23687   1.767   7.534   9.976  0.4717  0.8798  0.7836
  176MOL0     C23688   1.736   7.478  10.110 -0.1788 -0.3452  0.0640
  176MOL0     C23689   1.722   7.430  10.221 -0.5776 -0.5294  0.2211
  176MOL0     C23690   1.471   7.621   9.446  0.0665  0.1599  0.3583
  176MOL0     C23691   1.382   7.681   9.350 -0.0796 -0.3894  0.3379
  176MOL0     C23692   1.430   7.787   9.261 -0.3068 -0.1900 -0.0419
  176MOL0     H23693   1.010   7.509   9.024 -2.7276 -2.8430 -1.7499
  176MOL0     H23694   0.823   7.529   8.858  0.0980 -0.1845 -0.1612
  176MOL0     H23695   0.530   7.685   8.684  0.3533  1.4786  0.8596
  176MOL0     H23696   0.672   7.591   8.707  1.4429  0.6516  1.3083
  176MOL0     H23697   0.478   7.593   8.934  3.1604 -1.2463  0.9970
  176MOL0     H23698   0.569   7.458   8.859 -0.9174 -0.6136 -2.3714
  176MOL0     H23699   0.404   7.428   8.686 -0.2628 -1.0739  0.4715
  176MOL0     H23700   0.329   7.583   8.722  0.7993  0.6528 -0.4446
  176MOL0     H23701   0.342   7.326   8.883  0.8885 -0.6966 -3.1573
  176MOL0     H23702   0.276   7.462   8.955 -0.4564 -2.0371  0.4140
  176MOL0     H23703   0.101   7.477   8.763 -2.2655 -2.3793 -0.2253
  176MOL0     H23704   0.165   7.332   8.700 -0.7869  0.5696  0.0550
  176MOL0     H23705   0.097   7.237   8.941 -1.7869 -1.3943  0.2049
  176MOL0     H23706   0.034   7.401   8.972  1.3036 -1.9212  1.8342
  176MOL0     H23707  -0.067   7.229   8.750  0.5432  1.5278 -0.6463
  176MOL0     H23708  -0.111   7.395   8.783 -1.6622 -0.3172  0.1756
  176MOL0     H23709  -0.202   7.356   8.993  0.9591 -0.9577  0.2342
  176MOL0     H23710  -0.286   7.292   8.868 -0.0226  1.8906 -0.9194
  176MOL0     H23711  -0.172   6.993   8.833  0.0050  0.0183  0.7746
  176MOL0     H23712  -0.136   6.763   9.146  0.2349  2.4558  0.7517
  176MOL0     H23713  -0.227   6.734   8.993  0.5737 -1.6020 -0.3889
  176MOL0     H23714  -0.025   6.750   8.857  2.0333  3.9159  0.0340
  176MOL0     H23715   0.073   6.810   8.989  1.7685 -1.1726 -1.4312
  176MOL0     H23716  -0.043   6.534   8.924  0.3539  0.2572 -0.6298
  176MOL0     H23717  -0.023   6.567   9.088 -2.2980 -2.8974 -1.0526
  176MOL0     H23718   0.172   6.443   8.972 -1.6622 -0.9104  1.9833
  176MOL0     H23719   0.215   6.583   9.074 -1.3457  0.3577  0.5120
  176MOL0     H23720   0.389   6.437   8.962  1.2213  0.3182  0.2457
  176MOL0     H23721   0.633   6.424   8.895  2.1792  1.1612 -0.4035
  176MOL0     H23722   0.958   6.898   8.789  0.0682  2.2980 -0.2759
  176MOL0     H23723   1.211   6.933   8.736  2.1778 -2.3884 -0.0963
  176MOL0     H23724   1.437   6.709   8.425  0.4223 -0.0562  0.6637
  176MOL0     H23725   1.310   6.834   8.384 -2.1218  2.3716  3.4940
  176MOL0     H23726   1.549   6.891   8.356 -0.0530 -0.2246  0.5997
  176MOL0     H23727   1.458   7.007   8.457 -0.8286 -0.8556  1.0180
  176MOL0     H23728   1.565   6.886   8.661 -0.1624  0.5520 -1.0367
  176MOL0     H23729   1.640   6.773   8.536 -2.2081 -0.7552 -0.7836
  176MOL0     H23730   1.700   7.063   8.553 -0.6138 -0.4564  2.2026
  176MOL0     H23731   1.766   6.948   8.441 -2.8351  0.3028 -0.7933
  176MOL0     H23732   1.859   6.831   8.661  0.0943 -0.9057 -1.9280
  176MOL0     H23733   1.793   6.963   8.754  1.2175 -1.5075  0.5099
  176MOL0     H23734   1.990   7.006   8.538 -1.1609  0.5793 -1.2075
  176MOL0     H23735   1.942   7.121   8.668 -0.2367  0.0211 -0.2960
  176MOL0     H23736   2.099   6.858   8.694 -0.7217 -0.7561  0.4870
  176MOL0     H23737   2.015   6.947   8.830  0.6347 -0.9562  0.0213
  176MOL0     H23738   2.193   7.102   8.635  0.6975 -1.0386 -0.2476
  176MOL0     H23739   2.162   7.127   8.806  2.4201  2.3107 -2.1395
  176MOL0     H23740   1.195   6.624   8.460  0.4921  1.3077  0.1781
  176MOL0     H23741   0.950   6.579   8.499 -0.9312  0.5822 -0.2625
  176MOL0     H23742   0.575   6.798   8.681  2.1525  0.7150  1.0436
  176MOL0     H23743   0.343   6.782   8.728 -1.0600  1.1488  3.1489
  176MOL0     H23744   0.652   7.862   9.066 -0.3495 -0.8469  2.3714
  176MOL0     H23745   0.808   7.822   9.265 -3.0027 -1.5398  0.6271
  176MOL0     H23746   1.108   7.480   9.404 -0.7035 -0.3728 -0.8826
  176MOL0     H23747   1.275   7.380   9.571  0.5875  0.0224 -1.3106
  176MOL0     H23748   1.415   7.325   9.741  2.3317 -1.7153 -0.9932
  176MOL0     H23749   1.399   7.495   9.790 -0.5586 -1.3829  0.9137
  176MOL0     H23750   1.672   7.347   9.803  1.4566  1.9115  0.7199
  176MOL0     H23751   1.561   7.351   9.938  0.3148  0.5026  0.5108
  176MOL0     H23752   1.555   7.578   9.963 -2.4153  3.5622 -3.9396
  176MOL0     H23753   1.646   7.604   9.816 -0.1018 -1.4431 -0.1338
  176MOL0     H23754   1.841   7.476   9.920 -0.7097 -0.7365  0.8324
  176MOL0     H23755   1.807   7.636   9.986  0.9828  0.8506 -0.7082
  176MOL0     H23756   1.690   7.390  10.316  0.8419 -3.3046 -0.3599
  176MOL0     H23757   1.571   7.661   9.439 -0.1326  0.6768  0.3621
  176MOL0     H23758   1.530   7.819   9.289 -0.2366  0.3517 -0.8525
  176MOL0     H23759   1.433   7.743   9.161  3.1786  1.7819 -0.9719
  176MOL0     H23760   1.369   7.878   9.268 -3.0130 -1.9044  0.0660
  177MOL0     O23761  11.014   3.515   1.629 -0.8161  0.1918  0.2630
  177MOL0     C23762  10.976   3.402   1.638  0.5751  0.1660 -0.0198
  177MOL0     O23763  11.050   3.300   1.689  0.1806 -0.3737  0.3214
  177MOL0     C23764  11.171   3.317   1.747 -0.1417 -1.0400 -0.3053
  177MOL0     C23765  11.179   3.274   1.881 -0.9877  0.3391 -0.8781
  177MOL0     C23766  11.302   3.285   1.951 -0.1240  0.7722  0.3736
  177MOL0     C23767  11.407   3.360   1.896  0.0379  0.8182  0.0491
  177MOL0     O23768  11.520   3.381   1.980  0.1202 -0.0659 -0.0888
  177MOL0     C23769  11.609   3.494   1.942  0.2862 -0.5089  0.2806
  177MOL0     C23770  11.736   3.490   2.030 -0.9523 -0.6152 -0.2471
  177MOL0     C23771  11.848   3.565   1.954 -0.2556 -0.2539 -0.0292
  177MOL0     C23772  11.958   3.596   2.048 -0.5520 -0.1568 -0.1217
  177MOL0     C23773  12.083   3.646   1.971  0.2637  0.0499 -0.1341
  177MOL0     C23774  12.190   3.542   1.978  0.0052  0.6283 -0.6433
  177MOL0     C23775  12.322   3.598   1.930  0.6836  0.6533  0.0087
  177MOL0     C23776  12.421   3.491   1.917 -1.0280 -0.8531  0.2720
  177MOL0     N23777  12.551   3.551   1.891  0.6291 -0.0288  0.0034
  177MOL0     C23778  12.651   3.550   1.985 -0.2805  0.4080 -0.2317
  177MOL0     C23779  12.752   3.624   1.932  0.6659  0.5923 -0.3350
  177MOL0     C23780  12.872   3.675   2.004  0.1001  0.8015 -1.2910
  177MOL0     C23781  13.000   3.587   1.999  0.6359 -0.1335 -0.3844
  177MOL0     C23782  13.115   3.645   2.092 -0.0914 -0.2530 -0.5004
  177MOL0     C23783  13.259   3.622   2.039 -0.3615 -0.3052  1.0677
  177MOL0     O23784  13.363   3.667   2.138  1.0154 -0.4360  0.3589
  177MOL0     C23785  13.501   3.659   2.109 -0.4444  0.2830 -0.5302
  177MOL0     C23786  13.549   3.618   1.986  0.8048  0.7925 -0.5435
  177MOL0     C23787  13.680   3.582   1.960 -0.0734  0.2317  0.4797
  177MOL0     C23788  13.776   3.616   2.056 -0.1530  0.2886  0.0019
  177MOL0     C23789  13.916   3.602   2.021  0.2139  1.5130  0.6046
  177MOL0     O23790  13.950   3.503   1.919 -0.0263  0.2838  0.2237
  177MOL0     C23791  14.074   3.446   1.909  0.6384 -0.2643  0.1335
  177MOL0     C23792  14.155   3.419   2.024  0.7413  0.0863  0.0573
  177MOL0     C23793  14.280   3.348   2.005  0.6261 -1.0729 -0.0306
  177MOL0     C23794  14.335   3.333   1.879 -0.5405 -0.3202  1.0312
  177MOL0     O23795  14.470   3.291   1.873  0.1658 -0.6028  0.6823
  177MOL0     C23796  14.491   3.166   1.949 -0.0896 -0.8799 -0.2695
  177MOL0     C23797  14.612   3.101   1.885  0.4141  0.0560  0.6471
  177MOL0     C23798  14.646   2.959   1.945 -0.6216 -0.5194  0.2479
  177MOL0     C23799  14.744   2.876   1.856 -0.1172  0.1055  0.3386
  177MOL0     C23800  14.894   2.921   1.847  0.1750  0.1527  0.2756
  177MOL0     C23801  14.960   2.842   1.739 -0.1351 -0.1403 -0.8597
  177MOL0     C23802  15.107   2.870   1.732  0.0208 -0.0749 -0.3594
  177MOL0     C23803  15.149   2.845   1.582 -0.4721 -0.1495 -0.2504
  177MOL0    Cl23804  15.316   2.889   1.542 -0.4022  0.1955 -0.1672
  177MOL0     C23805  14.259   3.356   1.768  0.2055 -0.9160 -0.2524
  177MOL0     C23806  14.127   3.405   1.780 -0.5826 -0.1575 -0.3561
  177MOL0     O23807  13.997   3.667   2.086 -0.2415  0.0783  0.8756
  177MOL0     C23808  13.731   3.658   2.182  0.0585 -0.5699 -0.1820
  177MOL0     C23809  13.596   3.687   2.207  0.2369  0.4469 -0.0328
  177MOL0     N23810  12.710   3.651   1.799  1.1302  0.5390  0.4175
  177MOL0     N23811  12.591   3.600   1.776  0.4652 -0.3267  0.5668
  177MOL0     C23812  11.391   3.411   1.765  0.4267  0.0398 -0.0455
  177MOL0     C23813  11.279   3.386   1.694  0.1841 -0.2068  0.5564
  177MOL0     C23814  10.826   3.393   1.631  0.0937  0.2102  0.1971
  177MOL0     C23815  10.756   3.508   1.586  0.8606 -0.0218  0.5198
  177MOL0     C23816  10.613   3.502   1.576 -0.9084 -0.8655 -0.1264
  177MOL0     C23817  10.543   3.393   1.610 -0.0634 -0.4426  0.6688
  177MOL0     O23818  10.407   3.404   1.598  0.1026 -0.0931 -0.5151
  177MOL0     C23819  10.323   3.294   1.640 -0.8115  0.4148 -0.5044
  177MOL0     C23820  10.176   3.316   1.598 -0.0064  1.0057  0.6183
  177MOL0     C23821  10.132   3.443   1.679  0.3640 -0.7473 -0.0319
  177MOL0     C23822   9.986   3.470   1.678  0.1513  0.4010  0.3369
  177MOL0     C23823   9.898   3.356   1.712  0.4639  0.4578  0.5840
  177MOL0     C23824   9.822   3.271   1.743 -0.0133  0.1834  0.7455
  177MOL0     C23825  10.608   3.277   1.652 -0.5360 -0.8032 -0.7513
  177MOL0     C23826  10.745   3.276   1.670  0.2563  0.4392  1.1368
  177MOL0     C23827  10.804   3.157   1.729 -0.1506  0.6459  0.8238
  177MOL0     H23828  11.098   3.220   1.929 -0.2598 -0.9699 -1.0748
  177MOL0     H23829  11.298   3.248   2.053 -1.7533 -3.6394 -1.0349
  177MOL0     H23830  11.634   3.496   1.836  0.0930 -2.0641  0.1869
  177MOL0     H23831  11.555   3.585   1.970  1.0801  0.3949 -1.0380
  177MOL0     H23832  11.770   3.389   2.054  1.9107 -0.1387 -1.7764
  177MOL0     H23833  11.711   3.545   2.120 -1.1287 -2.4882  0.8986
  177MOL0     H23834  11.803   3.653   1.908  0.1606  1.6916  3.0203
  177MOL0     H23835  11.892   3.506   1.873 -0.4675 -0.8897  0.3173
  177MOL0     H23836  11.926   3.679   2.112  0.6370  0.8883 -0.8204
  177MOL0     H23837  11.983   3.513   2.114  0.9799 -0.7127 -1.3439
  177MOL0     H23838  12.057   3.667   1.867  0.4774  5.3942  0.6345
  177MOL0     H23839  12.114   3.739   2.018  0.5429  0.0493 -0.3179
  177MOL0     H23840  12.203   3.529   2.086 -0.5145  2.1772 -0.3637
  177MOL0     H23841  12.159   3.452   1.926  2.4625  0.0310 -1.2118
  177MOL0     H23842  12.352   3.676   2.001 -0.1117 -1.6337  3.0875
  177MOL0     H23843  12.310   3.648   1.833  0.3345 -0.3499 -0.4814
  177MOL0     H23844  12.436   3.437   2.012 -3.3830 -0.6429  0.8298
  177MOL0     H23845  12.389   3.423   1.838  0.7792  0.0112 -1.2679
  177MOL0     H23846  12.659   3.513   2.086  2.0739  0.1876 -0.4390
  177MOL0     H23847  12.901   3.777   1.977  1.1011  1.8265  2.8113
  177MOL0     H23848  12.852   3.681   2.112  3.4759 -2.8776 -0.1816
  177MOL0     H23849  12.978   3.484   2.029  2.9414  0.0134  2.2757
  177MOL0     H23850  13.041   3.588   1.898  1.8324 -1.5354  0.0488
  177MOL0     H23851  13.105   3.593   2.188 -2.7888 -0.3885 -0.7564
  177MOL0     H23852  13.090   3.746   2.124 -1.4869 -0.6151 -0.3485
  177MOL0     H23853  13.287   3.679   1.950  0.0486 -1.4243  0.4600
  177MOL0     H23854  13.265   3.517   2.010  0.5516 -0.1144  0.5374
  177MOL0     H23855  13.489   3.590   1.899  0.9454 -0.4193 -0.2706
  177MOL0     H23856  13.706   3.550   1.860  0.8078  0.1794  0.7169
  177MOL0     H23857  14.120   3.438   2.125 -0.7833  1.5754 -0.6912
  177MOL0     H23858  14.331   3.320   2.096 -1.0650  0.2052  1.3794
  177MOL0     H23859  14.514   3.205   2.049 -2.2655 -2.3376  0.8829
  177MOL0     H23860  14.416   3.087   1.955 -2.4099  1.2330  0.3710
  177MOL0     H23861  14.591   3.087   1.779 -0.2446  1.4248  0.5731
  177MOL0     H23862  14.700   3.165   1.873  0.3821 -0.1661 -1.0414
  177MOL0     H23863  14.684   2.976   2.047 -2.0906 -0.7640  0.8544
  177MOL0     H23864  14.556   2.899   1.956 -2.1906  1.5846 -0.6237
  177MOL0     H23865  14.693   2.878   1.760 -0.7734 -1.0681  0.6440
  177MOL0     H23866  14.748   2.773   1.894 -0.4314  1.0294  3.0926
  177MOL0     H23867  14.950   2.911   1.940  1.3209  2.3167 -0.1089
  177MOL0     H23868  14.909   3.021   1.804 -0.9323  0.3661  0.3416
  177MOL0     H23869  14.960   2.736   1.767 -0.2581 -0.0481 -0.5071
  177MOL0     H23870  14.907   2.834   1.644 -0.7035  0.1111 -0.5684
  177MOL0     H23871  15.169   2.811   1.800 -1.0225 -3.0716 -1.8339
  177MOL0     H23872  15.137   2.972   1.758  1.0735 -0.7017  0.9787
  177MOL0     H23873  15.136   2.737   1.568 -1.4710  0.1849 -2.2788
  177MOL0     H23874  15.079   2.901   1.520  0.3645  4.4077  2.4288
  177MOL0     H23875  14.313   3.340   1.676 -0.5774 -2.2713 -0.4906
  177MOL0     H23876  14.072   3.414   1.686 -2.4762  0.8402  0.7814
  177MOL0     H23877  13.807   3.669   2.259  0.8468 -0.7642 -0.9185
  177MOL0     H23878  13.557   3.718   2.303 -0.8127 -0.5770 -0.1005
  177MOL0     H23879  11.473   3.467   1.722  2.2344 -0.1288  2.9206
  177MOL0     H23880  11.267   3.438   1.599 -2.0353  0.9050  1.3572
  177MOL0     H23881  10.805   3.602   1.559  1.2342 -0.2829  0.2830
  177MOL0     H23882  10.560   3.595   1.555 -2.4151 -1.4327  0.9728
  177MOL0     H23883  10.332   3.265   1.745  0.2987 -1.6932 -1.1111
  177MOL0     H23884  10.360   3.208   1.583 -2.6553 -1.0686  0.3925
  177MOL0     H23885  10.120   3.225   1.620  1.4133 -0.0717 -0.0236
  177MOL0     H23886  10.162   3.329   1.490 -1.3581  0.4298  0.7102
  177MOL0     H23887  10.181   3.531   1.637  0.4177 -0.7964 -0.0728
  177MOL0     H23888  10.168   3.424   1.781  1.8014 -0.1871 -0.4127
  177MOL0     H23889   9.966   3.551   1.749 -0.0513  1.6183 -1.0586
  177MOL0     H23890   9.952   3.497   1.577 -0.5539  1.5278  0.8508
  177MOL0     H23891   9.751   3.196   1.773 -1.6174  2.2691  2.5235
  177MOL0     H23892  10.548   3.192   1.682 -0.3862 -0.1388  1.6323
  177MOL0     H23893  10.736   3.075   1.754  2.5610 -2.0386  0.0894
  177MOL0     H23894  10.868   3.113   1.652 -1.6795  1.9696 -1.3125
  177MOL0     H23895  10.864   3.186   1.815 -2.0641 -0.2605  2.5533
  178MOL0     O23896   9.868   9.448   9.406 -0.2975 -1.2746  0.0897
  178MOL0     C23897   9.897   9.364   9.321 -0.8444 -0.2706  0.4032
  178MOL0     O23898  10.010   9.355   9.242  0.2209  0.5785 -1.3777
  178MOL0     C23899  10.132   9.408   9.280 -0.4096 -0.2857  1.0074
  178MOL0     C23900  10.246   9.348   9.224 -0.8633 -0.5284 -0.8883
  178MOL0     C23901  10.374   9.381   9.265  0.2070  0.1762  0.5095
  178MOL0     C23902  10.407   9.491   9.346 -0.4350  0.6183 -0.2850
  178MOL0     O23903  10.533   9.533   9.379  0.1884 -0.0178  0.5352
  178MOL0     C23904  10.639   9.455   9.318 -0.4669  0.0538  0.3988
  178MOL0     C23905  10.764   9.495   9.393 -0.7335 -0.2874 -0.6531
  178MOL0     C23906  10.741   9.505   9.543 -0.2178 -0.2645 -0.5859
  178MOL0     C23907  10.885   9.503   9.614 -0.0184  0.4863 -0.2094
  178MOL0     C23908  10.858   9.497   9.765  0.1239 -0.3939  0.3608
  178MOL0     C23909  10.988   9.496   9.854  0.1953  0.1920  0.0341
  178MOL0     C23910  11.067   9.624   9.859 -0.1132 -0.5746 -0.4021
  178MOL0     C23911  11.172   9.625   9.967 -0.8534  1.0799  0.5496
  178MOL0     N23912  11.263   9.743   9.950  0.1545 -0.2137  0.7413
  178MOL0     C23913  11.248   9.872   9.989  0.6817  0.3748 -0.7801
  178MOL0     C23914  11.356   9.943   9.954 -0.8444 -0.1676 -0.2384
  178MOL0     C23915  11.383  10.086   9.992  0.0097  0.2739 -0.2325
  178MOL0     C23916  11.531  10.091  10.055 -0.2331  0.5456  0.2408
  178MOL0     C23917  11.562  10.237  10.080  0.1180 -0.4096  0.5325
  178MOL0     C23918  11.697  10.273  10.139 -0.1569  0.1483 -0.3484
  178MOL0     O23919  11.799  10.243  10.044 -0.1119  0.3155  0.3384
  178MOL0     C23920  11.927  10.263  10.083 -0.2500  0.8540 -0.1435
  178MOL0     C23921  12.018  10.159  10.053 -0.8427  0.8908  0.0515
  178MOL0     C23922  12.150  10.174  10.088  0.1428  1.2250  0.2887
  178MOL0     C23923  12.197  10.279  10.163 -0.8052  0.6620 -0.2892
  178MOL0     C23924  12.332  10.274  10.199  0.2552  0.4189 -0.2568
  178MOL0     O23925  12.384  10.379  10.274 -0.8902  0.0752  0.0302
  178MOL0     C23926  12.517  10.379  10.317 -0.4657 -0.9665 -0.6092
  178MOL0     C23927  12.544  10.451  10.433 -0.2604 -0.1181 -0.2305
  178MOL0     C23928  12.674  10.479  10.477  0.0369  0.1070  0.0195
  178MOL0     C23929  12.786  10.432  10.406 -0.1398 -0.0273  0.5289
  178MOL0     O23930  12.898  10.494  10.451 -0.3315 -0.4448  0.1620
  178MOL0     C23931  13.003  10.527  10.352 -0.7484  0.1788 -0.3372
  178MOL0     C23932  13.137  10.443  10.385  0.4120 -0.2268 -0.3539
  178MOL0     C23933  13.175  10.460  10.532  0.5013 -0.1371  0.1589
  178MOL0     C23934  13.258  10.345  10.589 -0.1801 -1.1257 -0.2378
  178MOL0     C23935  13.297  10.385  10.738  0.1003  0.0656  0.0935
  178MOL0     C23936  13.344  10.265  10.814  0.1936 -0.8339 -1.3887
  178MOL0     C23937  13.271  10.261  10.949  0.3304  0.4705 -0.5037
  178MOL0     C23938  13.301  10.122  11.017  1.3228 -0.9184 -0.1521
  178MOL0    Cl23939  13.237  10.116  11.188 -0.1622  0.0227  0.1134
  178MOL0     C23940  12.768  10.363  10.282 -0.1487 -0.3333  0.3695
  178MOL0     C23941  12.631  10.330  10.239 -0.6362 -0.2029 -0.3015
  178MOL0     O23942  12.394  10.171  10.170 -0.4215  0.2776 -0.0289
  178MOL0     C23943  12.105  10.372  10.209  0.6846  0.0814 -1.2823
  178MOL0     C23944  11.973  10.367  10.166  0.1208 -0.0811  0.3041
  178MOL0     N23945  11.443   9.851   9.887 -0.3177 -0.1793  0.4559
  178MOL0     N23946  11.390   9.735   9.897 -0.4150 -0.1471  0.3089
  178MOL0     C23947  10.291   9.550   9.402 -0.5868 -0.8540  0.3282
  178MOL0     C23948  10.159   9.511   9.372 -0.4647  0.0330 -0.0114
  178MOL0     C23949   9.793   9.267   9.282 -0.1708  0.3556  0.5205
  178MOL0     C23950   9.836   9.142   9.223  0.3898  0.2454  0.4214
  178MOL0     C23951   9.741   9.044   9.186 -0.2190 -0.3094 -0.0379
  178MOL0     C23952   9.599   9.054   9.197 -0.0623 -0.0133  0.5614
  178MOL0     O23953   9.512   8.960   9.156  0.4224 -0.0390 -0.2397
  178MOL0     C23954   9.372   8.982   9.183  0.1515 -0.0087  1.3638
  178MOL0     C23955   9.295   8.856   9.155 -0.6269  1.0744  0.2457
  178MOL0     C23956   9.168   8.873   9.066  0.8349 -0.0980 -1.2367
  178MOL0     C23957   9.058   8.760   9.075 -0.3106  0.6508 -0.1138
  178MOL0     C23958   9.040   8.709   9.210 -0.5062  0.7460  0.3296
  178MOL0     C23959   9.035   8.660   9.317  0.1044 -0.3485  0.1880
  178MOL0     C23960   9.560   9.181   9.252 -0.6874 -0.8711  0.3666
  178MOL0     C23961   9.654   9.278   9.297  0.4556  0.2376 -0.9547
  178MOL0     C23962   9.593   9.382   9.390 -0.6378 -0.7759 -0.1819
  178MOL0     H23963  10.251   9.265   9.154 -0.9175 -1.5453  0.2781
  178MOL0     H23964  10.446   9.317   9.215  1.1543  0.1565  1.8503
  178MOL0     H23965  10.617   9.350   9.336 -0.3882  0.0367  0.3934
  178MOL0     H23966  10.661   9.473   9.212 -0.1356 -0.7573  0.3277
  178MOL0     H23967  10.805   9.587   9.351 -1.6164  0.8559  0.8718
  178MOL0     H23968  10.832   9.410   9.381 -2.2809 -2.1477  2.5926
  178MOL0     H23969  10.680   9.417   9.565 -0.6811 -0.0938 -1.1696
  178MOL0     H23970  10.680   9.594   9.562  0.3158 -0.3575  2.0964
  178MOL0     H23971  10.921   9.402   9.588 -2.1220 -0.4463  0.2990
  178MOL0     H23972  10.952   9.584   9.586  1.3357  0.4015  2.4982
  178MOL0     H23973  10.806   9.590   9.790 -0.7747 -0.7163 -0.2581
  178MOL0     H23974  10.800   9.408   9.787 -0.5231 -0.0795 -0.0391
  178MOL0     H23975  10.957   9.459   9.953 -1.8277 -2.0477 -1.3322
  178MOL0     H23976  11.048   9.414   9.814  1.7565 -0.4971  3.4115
  178MOL0     H23977  10.994   9.702   9.883 -1.4076 -1.8879  0.1238
  178MOL0     H23978  11.113   9.656   9.765 -1.4695 -1.0832 -1.2833
  178MOL0     H23979  11.123   9.615  10.065 -0.6178 -0.3716  0.5443
  178MOL0     H23980  11.235   9.537   9.953 -0.4789  1.7670 -2.8611
  178MOL0     H23981  11.170   9.908  10.055  1.5656  2.8198 -0.9850
  178MOL0     H23982  11.373  10.163   9.916 -2.2865 -1.0048 -1.3429
  178MOL0     H23983  11.311  10.117  10.067 -0.1545 -0.7041  0.0310
  178MOL0     H23984  11.544  10.039  10.150 -0.4092 -0.3329 -0.2110
  178MOL0     H23985  11.595  10.034   9.987  1.2241  0.5250  1.5573
  178MOL0     H23986  11.484  10.275  10.146 -0.3262  4.7635 -2.4304
  178MOL0     H23987  11.550  10.289   9.984  2.9511 -0.2837  0.1627
  178MOL0     H23988  11.717  10.212  10.228 -2.3853  1.0993  0.8857
  178MOL0     H23989  11.690  10.379  10.168  0.5467  0.0065  0.4029
  178MOL0     H23990  12.009  10.062  10.006  3.6044 -0.1179  0.8431
  178MOL0     H23991  12.218  10.093  10.062 -1.2554 -0.6590  2.1432
  178MOL0     H23992  12.466  10.484  10.502  2.7383  1.6454  2.5965
  178MOL0     H23993  12.682  10.535  10.570  0.0186  0.3647 -0.1329
  178MOL0     H23994  12.979  10.502  10.249  3.0440 -1.3906 -1.0359
  178MOL0     H23995  13.023  10.634  10.363  1.8380 -0.1914 -0.7248
  178MOL0     H23996  13.117  10.336  10.375  1.4404 -0.4617  0.0468
  178MOL0     H23997  13.218  10.464  10.315 -0.0156  1.9227 -0.3037
  178MOL0     H23998  13.225  10.556  10.543 -2.5689  1.7047 -0.7245
  178MOL0     H23999  13.082  10.474  10.587  0.8316  0.7277  0.4987
  178MOL0     H24000  13.347  10.334  10.525 -1.3585  0.2311 -2.2250
  178MOL0     H24001  13.213  10.246  10.582 -2.3559 -0.0822 -2.9506
  178MOL0     H24002  13.207  10.426  10.784  0.4041 -1.5928  2.3405
  178MOL0     H24003  13.372  10.464  10.725  0.8573 -0.9260 -2.1065
  178MOL0     H24004  13.317  10.180  10.750 -3.3882 -0.7931 -0.1577
  178MOL0     H24005  13.452  10.272  10.826  0.2600 -3.8235  0.8834
  178MOL0     H24006  13.164  10.266  10.926  0.0677  1.1409  0.7718
  178MOL0     H24007  13.291  10.346  11.015 -0.2935  0.1999  0.0534
  178MOL0     H24008  13.267  10.042  10.951  2.0952 -0.2265 -1.4277
  178MOL0     H24009  13.410  10.111  11.018  1.5108  0.5517  1.9508
  178MOL0     H24010  12.852  10.335  10.218 -0.8473  0.8083 -1.1168
  178MOL0     H24011  12.612  10.275  10.147  3.2457 -0.1674 -1.3437
  178MOL0     H24012  12.139  10.442  10.284  0.9132  0.8238 -2.0610
  178MOL0     H24013  11.905  10.439  10.210  0.9727  0.7231  0.3283
  178MOL0     H24014  10.303   9.639   9.463 -1.5297  1.3773 -2.5527
  178MOL0     H24015  10.075   9.561   9.419 -2.0892 -1.3866 -1.2519
  178MOL0     H24016   9.938   9.129   9.189  0.4993  2.3521 -0.2282
  178MOL0     H24017   9.778   8.954   9.137  0.8577  0.0066  0.1708
  178MOL0     H24018   9.338   9.061   9.116  3.8884  1.6275  1.1557
  178MOL0     H24019   9.348   9.009   9.286 -0.4346  1.9548  0.7524
  178MOL0     H24020   9.258   8.826   9.253  0.9695  2.8953  1.4870
  178MOL0     H24021   9.349   8.770   9.115 -2.0993 -0.0471  0.6085
  178MOL0     H24022   9.190   8.899   8.962  0.9590  2.6262 -0.6020
  178MOL0     H24023   9.125   8.961   9.115  0.8161 -0.3283 -0.8325
  178MOL0     H24024   8.967   8.804   9.033  2.0116  2.9513 -3.2840
  178MOL0     H24025   9.086   8.671   9.018 -0.1441  0.4512  0.2775
  178MOL0     H24026   9.023   8.621   9.416 -0.2314 -0.8540 -0.0502
  178MOL0     H24027   9.459   9.220   9.263  0.4100  2.4323 -0.1424
  178MOL0     H24028   9.612   9.482   9.349 -2.0025 -0.5615 -0.3472
  178MOL0     H24029   9.486   9.364   9.401 -1.1867  1.2158 -1.6733
  178MOL0     H24030   9.640   9.390   9.488 -1.8015 -1.4631  0.4425
  179MOL0     O24031   2.509   7.807   3.971  0.2599 -1.0047  0.1957
  179MOL0     C24032   2.428   7.896   4.010 -0.2095  1.0400 -0.7375
  179MOL0     O24033   2.385   8.000   3.939  0.0052  0.3010 -0.0318
  179MOL0     C24034   2.412   8.005   3.804 -0.3087  0.5353 -0.3696
  179MOL0     C24035   2.443   8.130   3.746  0.3519 -0.5332 -0.0450
  179MOL0     C24036   2.465   8.139   3.610 -0.7400  0.1784 -0.1890
  179MOL0     C24037   2.442   8.035   3.518 -0.0892 -0.2107 -0.3767
  179MOL0     O24038   2.482   8.056   3.393  0.4586 -0.0776  0.0009
  179MOL0     C24039   2.495   7.938   3.314 -0.2543  0.1894  0.5889
  179MOL0     C24040   2.600   7.956   3.204  0.3832  0.4049  0.1607
  179MOL0     C24041   2.727   8.029   3.241 -1.2439  0.8346  0.3119
  179MOL0     C24042   2.790   7.951   3.354  0.0698 -0.2072 -0.1094
  179MOL0     C24043   2.921   8.009   3.406 -0.7447 -0.0637 -0.1566
  179MOL0     C24044   3.031   7.976   3.309 -0.8069 -0.1761  0.3302
  179MOL0     C24045   3.171   8.036   3.355 -0.4329  0.3236  0.0740
  179MOL0     C24046   3.273   7.995   3.253 -0.0378  0.5976  0.7645
  179MOL0     N24047   3.397   8.065   3.287  0.2240 -0.3231  0.2978
  179MOL0     C24048   3.459   8.062   3.409  0.4755  0.3644 -0.6109
  179MOL0     C24049   3.585   8.102   3.385  0.4537  0.6116 -0.5431
  179MOL0     C24050   3.679   8.135   3.499  0.1280 -0.3458 -0.1114
  179MOL0     C24051   3.688   8.292   3.501 -0.4836 -0.2183 -0.1993
  179MOL0     C24052   3.780   8.335   3.613 -0.2170  0.7760  0.3557
  179MOL0     C24053   3.926   8.323   3.578  0.2507 -0.2191 -0.2434
  179MOL0     O24054   4.000   8.339   3.706 -0.1470 -0.0009  0.8577
  179MOL0     C24055   4.114   8.418   3.703 -0.2353 -1.0197 -0.2121
  179MOL0     C24056   4.165   8.494   3.810  0.5664  1.1220  0.2033
  179MOL0     C24057   4.274   8.573   3.804  0.5120 -0.6341 -0.4124
  179MOL0     C24058   4.349   8.582   3.684  0.3724  0.7502  0.2517
  179MOL0     C24059   4.480   8.666   3.666  0.3188  0.1427 -0.0298
  179MOL0     O24060   4.536   8.722   3.771 -0.1152  0.4374  0.8994
  179MOL0     C24061   4.665   8.763   3.776 -0.3436 -0.0867 -0.4667
  179MOL0     C24062   4.702   8.894   3.797  0.0243 -0.2345 -0.9266
  179MOL0     C24063   4.837   8.933   3.825 -0.9827  0.4101 -0.5009
  179MOL0     C24064   4.944   8.841   3.822  0.0807  0.4637  0.1761
  179MOL0     O24065   5.073   8.885   3.825  0.0117  0.2858  0.5127
  179MOL0     C24066   5.169   8.793   3.770  1.0540  0.6147 -0.1339
  179MOL0     C24067   5.304   8.854   3.794  0.4824  0.1516  0.0754
  179MOL0     C24068   5.413   8.759   3.763 -0.8209 -0.0491  0.3587
  179MOL0     C24069   5.541   8.823   3.722  0.6182  0.4370  0.4679
  179MOL0     C24070   5.665   8.725   3.734  0.5646  0.4720  0.7916
  179MOL0     C24071   5.790   8.744   3.633  0.6273  0.4332 -0.0491
  179MOL0     C24072   5.884   8.629   3.641  1.3136  0.7896 -0.7258
  179MOL0     C24073   5.998   8.650   3.540 -0.0189 -0.0590 -0.7008
  179MOL0    Cl24074   6.102   8.787   3.594  0.2033  0.0993 -0.2645
  179MOL0     C24075   4.900   8.709   3.792 -0.2528 -1.1296  0.0189
  179MOL0     C24076   4.765   8.667   3.787 -0.0685 -0.2210 -0.6089
  179MOL0     O24077   4.534   8.665   3.557 -0.5324 -0.1884  0.2960
  179MOL0     C24078   4.317   8.489   3.580  0.0944 -1.3349 -0.1991
  179MOL0     C24079   4.201   8.422   3.589  0.6017  0.1549  0.3216
  179MOL0     N24080   3.601   8.128   3.254  0.0724 -0.2606  0.0753
  179MOL0     N24081   3.494   8.092   3.191  0.8730  0.0944  0.2461
  179MOL0     C24082   2.399   7.913   3.576 -0.1254 -0.1656 -0.3399
  179MOL0     C24083   2.386   7.895   3.713  0.1467 -0.5267 -0.2731
  179MOL0     C24084   2.375   7.876   4.151  0.0560 -1.3367  0.4668
  179MOL0     C24085   2.261   7.948   4.195  0.4018 -0.2129  0.6865
  179MOL0     C24086   2.196   7.918   4.314 -0.7836  0.0814 -0.0007
  179MOL0     C24087   2.256   7.836   4.405  0.2215 -0.7312  0.6069
  179MOL0     O24088   2.193   7.812   4.526 -0.1578  0.4353 -0.0184
  179MOL0     C24089   2.254   7.868   4.643  0.3068  0.5216 -0.3908
  179MOL0     C24090   2.154   7.902   4.750  1.2762 -0.6534 -0.0210
  179MOL0     C24091   2.217   7.997   4.853 -0.0356 -0.3377  1.1130
  179MOL0     C24092   2.269   7.927   4.981 -1.0354  0.2827 -1.0209
  179MOL0     C24093   2.156   7.864   5.051 -0.0657  1.0224  0.4333
  179MOL0     C24094   2.067   7.820   5.121 -0.0884  0.0110  0.0142
  179MOL0     C24095   2.378   7.774   4.376  0.7190  0.4747 -0.1016
  179MOL0     C24096   2.441   7.784   4.244  0.3893 -0.6937 -0.4003
  179MOL0     C24097   2.555   7.695   4.226 -0.3750  0.5022 -0.3665
  179MOL0     H24098   2.452   8.215   3.812 -0.0696  0.0110 -0.6861
  179MOL0     H24099   2.492   8.235   3.568  0.8664  1.0868  2.6653
  179MOL0     H24100   2.524   7.848   3.369  1.1408 -1.8789 -3.2129
  179MOL0     H24101   2.399   7.918   3.265 -0.4135  3.5535 -0.7597
  179MOL0     H24102   2.555   8.016   3.124  0.7605  0.3582 -0.0902
  179MOL0     H24103   2.621   7.858   3.160  0.6832  1.7491 -3.0022
  179MOL0     H24104   2.713   8.129   3.283 -3.1808  0.0946  1.5269
  179MOL0     H24105   2.800   8.030   3.160  1.1025  0.6426  2.3054
  179MOL0     H24106   2.725   7.950   3.442  0.4242  1.7185  0.2171
  179MOL0     H24107   2.805   7.848   3.320  0.1725 -0.3459  0.3387
  179MOL0     H24108   2.923   8.118   3.418  0.6488  0.2055 -2.2759
  179MOL0     H24109   2.945   7.960   3.501  0.4411 -1.6427 -1.2141
  179MOL0     H24110   3.048   7.868   3.309  1.6697  0.1609  0.0119
  179MOL0     H24111   3.004   8.008   3.208  0.9829 -1.0575 -0.4819
  179MOL0     H24112   3.199   7.999   3.454  0.1076  2.1599  0.6344
  179MOL0     H24113   3.166   8.145   3.362  2.6099  0.4113  3.2016
  179MOL0     H24114   3.285   7.886   3.252 -0.1603  0.5770  1.2176
  179MOL0     H24115   3.235   8.031   3.157  0.4920 -0.1850  0.2535
  179MOL0     H24116   3.403   8.040   3.499  0.4935  0.2288 -0.6332
  179MOL0     H24117   3.636   8.101   3.594 -0.0655 -2.2768 -0.8339
  179MOL0     H24118   3.779   8.094   3.478  0.8826  1.1442  0.4543
  179MOL0     H24119   3.721   8.341   3.409 -0.8356  3.4561  1.4678
  179MOL0     H24120   3.592   8.333   3.533 -0.0741  2.0006 -1.6222
  179MOL0     H24121   3.765   8.266   3.696 -2.0744  2.3332  1.3721
  179MOL0     H24122   3.758   8.437   3.644  0.2790  0.7857  0.6959
  179MOL0     H24123   3.962   8.404   3.514  1.5203 -0.0930  0.5876
  179MOL0     H24124   3.954   8.233   3.524 -0.7385 -0.2650 -0.7044
  179MOL0     H24125   4.115   8.489   3.906 -0.8045  1.4338 -0.4775
  179MOL0     H24126   4.313   8.619   3.894  2.5674 -1.6891 -0.7065
  179MOL0     H24127   4.640   8.983   3.804  1.2003  0.6377 -1.3242
  179MOL0     H24128   4.859   9.033   3.861 -0.7264  1.2430 -2.7897
  179MOL0     H24129   5.158   8.703   3.831  1.3866  0.4373 -0.3287
  179MOL0     H24130   5.148   8.766   3.666 -1.0109 -0.7991  0.5962
  179MOL0     H24131   5.306   8.938   3.724 -0.9649 -1.2976 -1.8145
  179MOL0     H24132   5.309   8.889   3.898  0.4023  0.5947 -0.0711
  179MOL0     H24133   5.430   8.699   3.853  3.6669  0.5728  0.1518
  179MOL0     H24134   5.396   8.689   3.681 -1.0605 -1.8374  1.8684
  179MOL0     H24135   5.561   8.923   3.761 -0.7146  1.9433 -2.4342
  179MOL0     H24136   5.531   8.833   3.614 -3.0372 -2.9671  0.2530
  179MOL0     H24137   5.629   8.622   3.730  0.2631  0.4369  3.0908
  179MOL0     H24138   5.704   8.736   3.836  0.9251  3.1414  0.4328
  179MOL0     H24139   5.748   8.756   3.533 -2.8002  0.6355  1.2636
  179MOL0     H24140   5.841   8.839   3.649 -1.8107  1.6941  0.6088
  179MOL0     H24141   5.829   8.536   3.622 -1.1426  1.8450  0.6809
  179MOL0     H24142   5.928   8.617   3.740 -0.3199 -1.4255 -0.1878
  179MOL0     H24143   6.055   8.558   3.543  0.1573  0.0273 -1.2260
  179MOL0     H24144   5.958   8.676   3.441 -1.9988 -0.1966  0.0195
  179MOL0     H24145   4.966   8.625   3.773 -0.1498 -0.9425 -0.4462
  179MOL0     H24146   4.729   8.565   3.775 -0.3511 -0.1611 -0.2868
  179MOL0     H24147   4.388   8.471   3.501  1.0324  0.1609  0.2613
  179MOL0     H24148   4.174   8.356   3.507  1.1144 -0.6986  0.8203
  179MOL0     H24149   2.372   7.830   3.512  1.9352  1.5407 -3.7355
  179MOL0     H24150   2.351   7.799   3.750  1.7129 -0.7840  0.6312
  179MOL0     H24151   2.211   8.020   4.131  0.3139  0.2013  1.2200
  179MOL0     H24152   2.101   7.965   4.339 -0.9429 -0.5855  0.6794
  179MOL0     H24153   2.305   7.959   4.612 -1.7545  1.8392 -0.1206
  179MOL0     H24154   2.327   7.796   4.682  0.3237  0.1300 -1.1264
  179MOL0     H24155   2.123   7.812   4.804  3.0302 -1.3996 -0.1800
  179MOL0     H24156   2.063   7.945   4.706  1.2710 -2.7845 -2.2942
  179MOL0     H24157   2.134   8.057   4.892  1.4563  0.8571  2.5960
  179MOL0     H24158   2.284   8.055   4.790 -1.5539 -0.6910 -0.9161
  179MOL0     H24159   2.351   7.857   4.960 -1.1597 -0.1504 -0.1070
  179MOL0     H24160   2.302   8.004   5.051 -2.8848  3.1708 -3.0906
  179MOL0     H24161   2.000   7.775   5.192  3.6025 -0.9047  3.3064
  179MOL0     H24162   2.422   7.715   4.455  0.3007  1.6216  1.0180
  179MOL0     H24163   2.573   7.644   4.321  1.7542  0.1884 -0.8868
  179MOL0     H24164   2.532   7.624   4.146 -1.5791  0.6848 -0.2063
  179MOL0     H24165   2.646   7.751   4.203  0.4314  0.4779  2.3841
  180MOL0     O24166   4.335   9.165   8.662  0.2762  0.1070 -0.3314
  180MOL0     C24167   4.246   9.113   8.594  1.4722  0.5803 -0.7472
  180MOL0     O24168   4.261   9.014   8.508 -0.2303 -0.8420  0.5923
  180MOL0     C24169   4.389   8.968   8.485  0.4805 -0.5898  0.5396
  180MOL0     C24170   4.450   8.993   8.365 -0.3077 -0.3136 -0.5603
  180MOL0     C24171   4.575   8.934   8.339 -0.0980 -0.0698 -0.3543
  180MOL0     C24172   4.642   8.859   8.437  0.4568  0.4850 -0.5049
  180MOL0     O24173   4.761   8.809   8.384 -0.2645  0.4198 -0.2903
  180MOL0     C24174   4.821   8.695   8.448 -0.0422  0.1405 -0.1984
  180MOL0     C24175   4.918   8.624   8.352  0.3465  0.5212 -0.9151
  180MOL0     C24176   4.846   8.576   8.224  0.1356 -0.4246  0.4819
  180MOL0     C24177   4.878   8.675   8.104 -0.9842  0.0780 -0.2906
  180MOL0     C24178   4.750   8.692   8.017  0.2612  0.3869  0.3787
  180MOL0     C24179   4.776   8.796   7.906  0.3503  0.5844 -0.7947
  180MOL0     C24180   4.662   8.819   7.803 -0.0436 -0.0094  0.4670
  180MOL0     C24181   4.525   8.866   7.868  0.5185  0.6765 -0.1942
  180MOL0     N24182   4.447   8.920   7.756  0.1653 -0.2695 -0.6442
  180MOL0     C24183   4.343   8.860   7.697  0.1525  0.7028 -0.4178
  180MOL0     C24184   4.286   8.956   7.616 -0.3205 -0.1241  0.6136
  180MOL0     C24185   4.156   8.934   7.533  0.3432 -0.5841  0.1477
  180MOL0     C24186   4.055   8.857   7.613  0.4078  0.3575 -0.1617
  180MOL0     C24187   4.007   8.945   7.738 -0.1143  0.6512  0.0683
  180MOL0     C24188   3.926   9.062   7.693  1.0261  0.5017 -0.2730
  180MOL0     O24189   3.810   9.017   7.617 -0.0784 -0.3900  0.3215
  180MOL0     C24190   3.680   9.061   7.622 -0.5428 -0.7599 -0.4203
  180MOL0     C24191   3.638   9.171   7.697  1.0861  0.3924  0.2955
  180MOL0     C24192   3.508   9.194   7.734 -0.0201 -0.1744 -0.3639
  180MOL0     C24193   3.413   9.118   7.672  0.0570 -0.5051  0.2555
  180MOL0     C24194   3.270   9.130   7.712 -0.3916  0.4627 -0.2141
  180MOL0     O24195   3.235   9.250   7.762  0.8358 -0.3131 -0.0120
  180MOL0     C24196   3.108   9.266   7.805 -0.3155  0.2339 -0.4423
  180MOL0     C24197   3.010   9.329   7.729  1.0159 -0.1014  0.4827
  180MOL0     C24198   2.880   9.338   7.775  0.2672 -0.6913  0.4489
  180MOL0     C24199   2.842   9.281   7.901  0.3744 -0.3114 -0.5037
  180MOL0     O24200   2.710   9.284   7.944  0.3920  0.5581  0.0843
  180MOL0     C24201   2.666   9.412   7.984  0.1043 -0.6421 -0.5528
  180MOL0     C24202   2.529   9.400   8.052 -0.3028  0.1620 -0.4944
  180MOL0     C24203   2.466   9.536   8.092  0.5745 -0.8867 -0.3623
  180MOL0     C24204   2.324   9.529   8.168 -1.1055 -0.1959 -0.4134
  180MOL0     C24205   2.206   9.510   8.077  0.4708 -0.3817 -0.5088
  180MOL0     C24206   2.189   9.375   8.011  0.0189 -0.5185 -0.0284
  180MOL0     C24207   2.048   9.349   7.979  0.5920  0.3444  0.0529
  180MOL0     C24208   2.036   9.220   7.906  0.1204 -0.0092  0.0113
  180MOL0    Cl24209   1.873   9.224   7.827 -0.3832 -0.0698  0.3249
  180MOL0     C24210   2.939   9.222   7.975 -0.5024  0.3758 -0.4717
  180MOL0     C24211   3.074   9.224   7.933  0.3128 -0.0617  0.3698
  180MOL0     O24212   3.196   9.031   7.698 -0.3618 -0.7358  0.7620
  180MOL0     C24213   3.455   9.005   7.586 -0.0030 -0.5165 -0.0888
  180MOL0     C24214   3.585   8.979   7.566 -0.1086  0.9954  0.2091
  180MOL0     N24215   4.371   9.065   7.611  0.6832  0.2056  0.4863
  180MOL0     N24216   4.464   9.043   7.697 -0.5641 -0.1807 -0.1643
  180MOL0     C24217   4.581   8.832   8.557 -1.7040  0.0287  0.4373
  180MOL0     C24218   4.456   8.884   8.581  0.0041  0.1414  0.1616
  180MOL0     C24219   4.112   9.152   8.615  0.0941  0.3476 -0.5143
  180MOL0     C24220   4.035   9.147   8.499  0.0347  0.2403 -0.2425
  180MOL0     C24221   3.908   9.200   8.506  0.5048  0.1505  0.0915
  180MOL0     C24222   3.851   9.253   8.626 -0.7015  0.5263  0.0529
  180MOL0     O24223   3.722   9.304   8.620  0.1647  0.4086 -1.0872
  180MOL0     C24224   3.661   9.323   8.750 -0.2668 -0.5708  0.6047
  180MOL0     C24225   3.507   9.315   8.749 -0.1277 -0.0266  0.2736
  180MOL0     C24226   3.447   9.182   8.684 -0.1940  0.1960 -0.8179
  180MOL0     C24227   3.431   9.071   8.792 -0.4642 -1.4026  0.1237
  180MOL0     C24228   3.310   8.994   8.764 -1.0347  0.1617  0.7192
  180MOL0     C24229   3.215   8.923   8.759 -0.1949 -0.4795 -0.2726
  180MOL0     C24230   3.935   9.259   8.741  1.2702  0.0426  0.0401
  180MOL0     C24231   4.067   9.208   8.737 -0.2762  0.8245 -0.4973
  180MOL0     C24232   4.143   9.212   8.868 -0.0810  0.2521 -0.1190
  180MOL0     H24233   4.405   9.055   8.288  1.4660 -0.5113 -1.8189
  180MOL0     H24234   4.627   8.940   8.244  1.0264 -0.1933  0.2246
  180MOL0     H24235   4.873   8.742   8.532  0.8348  0.8562 -1.1118
  180MOL0     H24236   4.754   8.612   8.471  0.0045  0.2951  0.5058
  180MOL0     H24237   4.954   8.535   8.404 -4.1679 -1.6697 -1.1084
  180MOL0     H24238   5.008   8.682   8.329  0.5212  0.5791 -0.1133
  180MOL0     H24239   4.739   8.576   8.244 -0.1675  2.8157 -0.4683
  180MOL0     H24240   4.864   8.475   8.187 -0.7379  0.3459 -2.3358
  180MOL0     H24241   4.913   8.773   8.137  0.5321 -0.5053 -0.1039
  180MOL0     H24242   4.965   8.634   8.053 -0.4609 -0.5268  1.0488
  180MOL0     H24243   4.717   8.596   7.976  0.7460  0.1518  0.5337
  180MOL0     H24244   4.675   8.717   8.092 -1.1914 -2.3094 -0.0353
  180MOL0     H24245   4.790   8.894   7.953  0.9133  0.1059  0.0421
  180MOL0     H24246   4.872   8.774   7.858 -0.7895  1.7526 -3.8503
  180MOL0     H24247   4.650   8.737   7.731  0.8714  0.7190 -0.5535
  180MOL0     H24248   4.695   8.905   7.744  2.1569 -0.4540  0.9326
  180MOL0     H24249   4.481   8.776   7.912  1.6055  1.2181  2.2114
  180MOL0     H24250   4.539   8.941   7.947  0.0878  2.1958 -1.5218
  180MOL0     H24251   4.313   8.757   7.709 -3.0315  1.7135  1.5254
  180MOL0     H24252   4.102   9.026   7.508  0.1297 -0.4219  1.1672
  180MOL0     H24253   4.176   8.879   7.441 -0.6209  0.1751 -0.5458
  180MOL0     H24254   3.967   8.825   7.556  2.4598 -3.0014 -1.7585
  180MOL0     H24255   4.098   8.762   7.644 -3.4742 -1.9328 -1.1868
  180MOL0     H24256   4.088   8.982   7.802 -2.2284  3.2065  1.4522
  180MOL0     H24257   3.942   8.891   7.807 -1.2135  3.7579  1.6791
  180MOL0     H24258   3.991   9.126   7.632  0.5509 -1.2777 -2.7820
  180MOL0     H24259   3.893   9.115   7.783 -1.9568 -2.0732  0.2904
  180MOL0     H24260   3.715   9.239   7.732  0.2636  4.5080 -4.5616
  180MOL0     H24261   3.484   9.281   7.794  1.8589  1.3016 -1.6374
  180MOL0     H24262   3.042   9.374   7.635  0.7063 -1.0809 -0.1140
  180MOL0     H24263   2.801   9.377   7.712  0.0866  0.7293  1.5032
  180MOL0     H24264   2.739   9.457   8.052  0.5247  1.0650 -2.0849
  180MOL0     H24265   2.646   9.466   7.891  0.5327  1.1520  0.3598
  180MOL0     H24266   2.462   9.328   8.003  0.3446 -0.8680  0.1172
  180MOL0     H24267   2.556   9.348   8.144  1.5774 -0.3003 -1.2660
  180MOL0     H24268   2.538   9.596   8.149 -1.8150  0.9662  0.9181
  180MOL0     H24269   2.450   9.588   7.997  0.5096 -0.1512  0.0402
  180MOL0     H24270   2.306   9.625   8.217  1.0567  0.1077 -0.1262
  180MOL0     H24271   2.335   9.451   8.244  0.4146  0.6451  0.2718
  180MOL0     H24272   2.193   9.586   7.999 -3.0085  1.8900  1.9946
  180MOL0     H24273   2.117   9.517   8.140  0.1528  0.5876 -1.0357
  180MOL0     H24274   2.243   9.383   7.916  0.4797 -2.5427  0.0292
  180MOL0     H24275   2.226   9.291   8.071 -1.7185  0.4479  2.6195
  180MOL0     H24276   2.009   9.427   7.913  1.7885 -0.5769 -1.8392
  180MOL0     H24277   1.984   9.343   8.067 -1.2478 -1.6979 -1.3274
  180MOL0     H24278   2.119   9.210   7.834  2.4134  1.6399  2.2570
  180MOL0     H24279   2.036   9.126   7.962 -2.4813  0.1011  0.3244
  180MOL0     H24280   2.915   9.171   8.068  2.4992  0.9300  0.7161
  180MOL0     H24281   3.155   9.172   7.983 -0.1838 -1.3278 -0.0951
  180MOL0     H24282   3.382   8.933   7.547 -2.4753  1.4880  0.5733
  180MOL0     H24283   3.624   8.897   7.507  1.6330  1.8885  0.0455
  180MOL0     H24284   4.639   8.774   8.627  0.7477 -1.6178 -2.7064
  180MOL0     H24285   4.411   8.884   8.680  1.4025 -0.3666  0.8232
  180MOL0     H24286   4.066   9.118   8.399 -2.7018 -1.0054 -0.8194
  180MOL0     H24287   3.842   9.209   8.421  0.9208 -0.5517 -0.3105
  180MOL0     H24288   3.688   9.426   8.773 -0.2073 -0.5897  0.6193
  180MOL0     H24289   3.696   9.253   8.826  1.0623  0.3322  0.8557
  180MOL0     H24290   3.473   9.386   8.673 -2.5915 -0.1914  1.1458
  180MOL0     H24291   3.462   9.339   8.846  0.3623  0.9771  0.2592
  180MOL0     H24292   3.507   9.138   8.604  2.4706 -0.8469  1.5932
  180MOL0     H24293   3.343   9.203   8.655 -0.3258  1.5872  0.5142
  180MOL0     H24294   3.510   8.995   8.797 -0.3791 -1.4240 -1.1475
  180MOL0     H24295   3.418   9.122   8.888 -0.3450  1.0091 -1.0556
  180MOL0     H24296   3.134   8.853   8.754  1.4547 -2.7169  1.7659
  180MOL0     H24297   3.894   9.296   8.834 -0.5143 -0.0596 -0.6606
  180MOL0     H24298   4.073   9.194   8.950 -1.4102  3.0642 -0.5150
  180MOL0     H24299   4.230   9.146   8.871 -0.7465 -0.7543 -1.6857
  180MOL0     H24300   4.182   9.314   8.865  0.5465 -0.0048 -2.4560
  181MOL0     O24301   9.150   2.379   5.320  0.1263  0.4648  0.4453
  181MOL0     C24302   9.094   2.289   5.386 -0.9553  0.0545  0.2580
  181MOL0     O24303   9.119   2.153   5.368 -0.1257  0.1103  0.6105
  181MOL0     C24304   9.225   2.092   5.299  0.3594 -0.2704 -0.4057
  181MOL0     C24305   9.349   2.147   5.272  0.1584  0.2584 -0.2458
  181MOL0     C24306   9.448   2.075   5.198  0.2940  0.0320  0.3003
  181MOL0     C24307   9.426   1.952   5.149 -0.6634 -0.1583  0.3285
  181MOL0     O24308   9.531   1.894   5.081 -0.7082  0.0807  0.1618
  181MOL0     C24309   9.498   1.770   5.007  0.4024 -0.2705 -0.3717
  181MOL0     C24310   9.601   1.716   4.913  0.5947  0.4744  0.0004
  181MOL0     C24311   9.731   1.792   4.941 -0.2820 -0.0719 -0.4271
  181MOL0     C24312   9.835   1.744   4.839 -0.1174  0.2451 -0.2163
  181MOL0     C24313   9.966   1.828   4.838  0.7175 -0.0809  0.1952
  181MOL0     C24314  10.073   1.785   4.741  0.8259  0.5933  0.0090
  181MOL0     C24315  10.192   1.873   4.749  0.1399  0.2608 -0.2466
  181MOL0     C24316  10.283   1.841   4.872  0.0710 -0.0403  0.3943
  181MOL0     N24317  10.398   1.937   4.882 -0.0364 -0.4554  0.2788
  181MOL0     C24318  10.392   2.073   4.879  0.1946 -0.8027 -0.2412
  181MOL0     C24319  10.514   2.117   4.895 -0.5612  0.2632 -0.1299
  181MOL0     C24320  10.552   2.259   4.906 -0.1277  0.5975  0.1463
  181MOL0     C24321  10.685   2.283   4.992  0.2417 -0.7909  0.1239
  181MOL0     C24322  10.720   2.430   5.019 -0.6152  0.1099  0.4213
  181MOL0     C24323  10.858   2.466   4.947 -0.5265 -0.4088 -0.3953
  181MOL0     O24324  10.875   2.607   4.988 -0.2148 -0.0229  0.5445
  181MOL0     C24325  11.000   2.657   4.965 -0.1255  0.3526 -0.6160
  181MOL0     C24326  11.116   2.592   4.915 -0.5267  1.0059 -0.2511
  181MOL0     C24327  11.242   2.658   4.903 -0.1610  0.4999  0.1328
  181MOL0     C24328  11.264   2.788   4.961  0.5351  0.2341 -0.1694
  181MOL0     C24329  11.399   2.847   4.975 -0.3141 -0.2834  0.2436
  181MOL0     O24330  11.501   2.779   4.905  0.5161 -0.2911  1.0610
  181MOL0     C24331  11.631   2.803   4.919 -0.2013 -0.0378  0.4303
  181MOL0     C24332  11.714   2.695   4.946  1.0264 -0.5397 -0.9473
  181MOL0     C24333  11.852   2.716   4.959 -0.8864 -0.2616  0.3498
  181MOL0     C24334  11.906   2.841   4.957  0.6092  0.1579  0.4427
  181MOL0     O24335  12.047   2.857   4.962  0.0946  0.2196 -0.6738
  181MOL0     C24336  12.096   2.950   5.066  0.6781  0.7563 -0.1821
  181MOL0     C24337  12.249   2.935   5.084  0.2590 -0.1180 -0.6480
  181MOL0     C24338  12.327   2.983   4.961 -0.4277 -0.0885 -0.6497
  181MOL0     C24339  12.474   2.971   4.981 -0.0548 -0.8575 -0.5972
  181MOL0     C24340  12.574   3.048   4.892 -0.0444 -0.5676  0.4512
  181MOL0     C24341  12.720   2.999   4.908  0.1431  0.1979 -0.3425
  181MOL0     C24342  12.737   2.873   4.826  0.4841 -0.2730  0.4283
  181MOL0     C24343  12.870   2.808   4.863  0.0639  0.3112  0.3400
  181MOL0    Cl24344  13.008   2.921   4.893  0.1947 -0.0426  0.4913
  181MOL0     C24345  11.824   2.957   4.930 -0.2654 -0.2767  0.1682
  181MOL0     C24346  11.688   2.934   4.913  0.5110 -0.1748 -0.0114
  181MOL0     O24347  11.411   2.947   5.040 -0.9439 -0.7820  0.1577
  181MOL0     C24348  11.147   2.850   5.001 -0.1071  0.1366  0.5977
  181MOL0     C24349  11.015   2.799   4.999 -0.1837  0.7002 -0.4149
  181MOL0     N24350  10.598   2.011   4.906 -0.2320 -0.0225 -1.0484
  181MOL0     N24351  10.531   1.903   4.891  0.2711  0.6952  0.0757
  181MOL0     C24352   9.298   1.891   5.177 -0.5326 -0.3011 -0.9214
  181MOL0     C24353   9.203   1.958   5.259  0.1986 -0.4872 -0.5335
  181MOL0     C24354   8.987   2.324   5.480  0.2567 -0.1764 -0.0433
  181MOL0     C24355   8.953   2.232   5.583  0.4389 -0.2978 -0.2581
  181MOL0     C24356   8.869   2.271   5.689 -0.4569  0.5162  0.1055
  181MOL0     C24357   8.812   2.398   5.687 -0.1054  1.0146 -0.1290
  181MOL0     O24358   8.723   2.441   5.777  0.7440 -0.3878 -0.6343
  181MOL0     C24359   8.754   2.454   5.916  0.4082 -0.7109  0.2190
  181MOL0     C24360   8.816   2.588   5.953  0.0064 -0.3976  0.8737
  181MOL0     C24361   8.956   2.600   5.896 -0.3707 -1.1450  0.3408
  181MOL0     C24362   9.029   2.720   5.960  0.5905 -0.4286  0.3553
  181MOL0     C24363   9.158   2.742   5.904 -0.2294 -0.1694  0.2304
  181MOL0     C24364   9.276   2.753   5.872  0.6543 -1.1186  0.5683
  181MOL0     C24365   8.839   2.484   5.581  0.4940  0.5835  0.6296
  181MOL0     C24366   8.932   2.455   5.483 -0.4448  0.3528 -0.8423
  181MOL0     C24367   8.944   2.560   5.374  0.2112  0.1676 -0.1202
  181MOL0     H24368   9.384   2.242   5.312 -0.1321  0.5106 -0.5882
  181MOL0     H24369   9.548   2.114   5.181 -1.3146  4.7107 -0.1473
  181MOL0     H24370   9.475   1.691   5.079  2.1372 -0.1601  0.3474
  181MOL0     H24371   9.404   1.794   4.955  0.9344 -1.9310 -2.2562
  181MOL0     H24372   9.567   1.725   4.809  1.5402 -0.1544 -0.3732
  181MOL0     H24373   9.615   1.609   4.929 -1.1716  0.4216  1.5202
  181MOL0     H24374   9.759   1.783   5.046  0.0586 -2.2351 -0.6737
  181MOL0     H24375   9.721   1.899   4.919  2.1007 -0.2096 -2.6620
  181MOL0     H24376   9.867   1.642   4.861  1.2119  0.0998 -2.4776
  181MOL0     H24377   9.783   1.749   4.743 -0.1098 -0.4814 -0.2666
  181MOL0     H24378   9.929   1.919   4.790  0.9070 -1.0110 -1.8485
  181MOL0     H24379  10.009   1.866   4.930  0.9261 -1.6862  0.7824
  181MOL0     H24380  10.096   1.679   4.748  2.4627  0.9276  0.1241
  181MOL0     H24381  10.034   1.805   4.640 -1.3956  1.7334  1.0204
  181MOL0     H24382  10.174   1.980   4.739  2.2222  0.6990  0.2171
  181MOL0     H24383  10.245   1.851   4.656 -1.1718 -0.0689 -0.9440
  181MOL0     H24384  10.240   1.839   4.972 -2.6446 -0.9825 -0.6879
  181MOL0     H24385  10.327   1.743   4.848  1.4091  0.1380  1.9523
  181MOL0     H24386  10.304   2.136   4.892  2.0043  1.6101  1.0622
  181MOL0     H24387  10.558   2.301   4.806 -0.0429 -0.4013 -0.2781
  181MOL0     H24388  10.475   2.315   4.960  2.7913  2.3874  2.8718
  181MOL0     H24389  10.660   2.241   5.090 -0.0632  1.5214  1.0788
  181MOL0     H24390  10.762   2.229   4.935  0.6360 -0.0773 -0.0271
  181MOL0     H24391  10.725   2.445   5.127 -4.0229 -0.8014  0.8230
  181MOL0     H24392  10.648   2.496   4.969  2.9762  3.2326 -1.0810
  181MOL0     H24393  10.852   2.452   4.839  1.2918 -1.2234 -0.4192
  181MOL0     H24394  10.939   2.414   4.999  0.4967  1.3065 -0.1812
  181MOL0     H24395  11.109   2.487   4.889  2.0511 -0.1095  2.8063
  181MOL0     H24396  11.319   2.589   4.869 -0.5851  1.5045 -3.2965
  181MOL0     H24397  11.666   2.598   4.958  0.7911 -0.2587  0.6594
  181MOL0     H24398  11.917   2.632   4.981  0.3519  1.3351  3.3139
  181MOL0     H24399  12.076   3.056   5.048  0.4289  1.1257  1.9975
  181MOL0     H24400  12.041   2.926   5.157  0.0118 -1.2273 -1.0550
  181MOL0     H24401  12.275   3.004   5.165  0.8641 -0.0960 -0.8615
  181MOL0     H24402  12.276   2.831   5.105  1.1265 -0.0620 -1.4546
  181MOL0     H24403  12.290   2.934   4.870  3.4857 -1.4680 -1.6992
  181MOL0     H24404  12.310   3.091   4.955  0.5726  0.2215  1.3633
  181MOL0     H24405  12.502   2.866   4.985  1.2966 -0.5976 -2.3108
  181MOL0     H24406  12.501   3.010   5.080 -3.5085  2.6042 -0.7715
  181MOL0     H24407  12.575   3.152   4.926  2.0504 -0.8028  1.2156
  181MOL0     H24408  12.542   3.048   4.788  0.5678 -0.7279  0.2646
  181MOL0     H24409  12.786   3.083   4.882 -2.1213  1.8813 -0.9612
  181MOL0     H24410  12.744   2.986   5.014  0.2949  1.8097 -0.1497
  181MOL0     H24411  12.746   2.906   4.722  0.8008  3.1407  1.4392
  181MOL0     H24412  12.652   2.805   4.837  0.4037  0.0469  2.0752
  181MOL0     H24413  12.859   2.731   4.940 -1.9690 -0.4018 -0.5883
  181MOL0     H24414  12.907   2.749   4.779  0.1856  0.3618  0.3586
  181MOL0     H24415  11.870   3.055   4.923 -1.8720  0.4255 -1.3560
  181MOL0     H24416  11.616   3.012   4.893 -1.0843 -1.7250 -0.6027
  181MOL0     H24417  11.170   2.947   5.043 -3.7429  1.6469 -0.5098
  181MOL0     H24418  10.923   2.847   5.032 -0.4672  0.6708 -1.1254
  181MOL0     H24419   9.272   1.791   5.145 -1.7972  0.4847 -2.5051
  181MOL0     H24420   9.108   1.912   5.287  0.2747 -2.1306 -2.7344
  181MOL0     H24421   8.984   2.128   5.576 -2.1954 -1.1549 -0.5102
  181MOL0     H24422   8.850   2.206   5.774  4.4946 -1.3053  0.0963
  181MOL0     H24423   8.819   2.370   5.943  2.1346  0.9891  1.5918
  181MOL0     H24424   8.659   2.437   5.968 -0.1418 -0.9596 -0.8336
  181MOL0     H24425   8.822   2.606   6.060 -0.8495 -0.4426  0.9337
  181MOL0     H24426   8.753   2.672   5.923  0.4483 -0.7585 -1.2322
  181MOL0     H24427   8.954   2.606   5.787 -1.8399  1.4153  0.4226
  181MOL0     H24428   9.021   2.517   5.924  0.5738 -0.3215  0.6675
  181MOL0     H24429   8.961   2.805   5.945 -1.8880 -2.6326 -2.2438
  181MOL0     H24430   9.049   2.701   6.066  0.6285 -3.7717 -0.1478
  181MOL0     H24431   9.373   2.787   5.842  0.1298 -0.0137  0.0371
  181MOL0     H24432   8.802   2.586   5.584  2.2208  1.2564  0.1916
  181MOL0     H24433   8.860   2.628   5.355  2.2610  2.7263 -0.6847
  181MOL0     H24434   9.039   2.614   5.381  0.1140  0.0555  3.6746
  181MOL0     H24435   8.945   2.495   5.286  1.1266 -2.3631  1.6443
  182MOL0     O24436   1.579   0.161   5.604 -0.0841  0.6884 -0.1844
  182MOL0     C24437   1.493   0.149   5.513 -0.6863  0.0590 -0.5529
  182MOL0     O24438   1.526   0.106   5.389  0.3503 -0.1466  0.9755
  182MOL0     C24439   1.662   0.089   5.362  0.8359 -0.1013  1.7852
  182MOL0     C24440   1.747   0.002   5.428  0.0522  0.3111  0.0217
  182MOL0     C24441   1.878  -0.020   5.380 -0.7945  0.8250 -0.1049
  182MOL0     C24442   1.920   0.035   5.256  0.1507 -0.6053  0.4027
  182MOL0     O24443   2.040   0.004   5.192  1.0072  0.3801 -0.0748
  182MOL0     C24444   2.079  -0.138   5.213  1.1346  0.2188  0.2066
  182MOL0     C24445   2.192  -0.153   5.105  0.8535 -0.8593 -1.0758
  182MOL0     C24446   2.313  -0.081   5.142 -0.0501 -0.2753 -0.3837
  182MOL0     C24447   2.417  -0.092   5.034 -0.1797 -0.3676 -0.1237
  182MOL0     C24448   2.548  -0.045   5.092  0.3786  0.1719  0.0163
  182MOL0     C24449   2.629  -0.137   5.176 -0.4028  1.0156 -0.8024
  182MOL0     C24450   2.782  -0.102   5.171 -0.4538 -0.2971  0.8117
  182MOL0     C24451   2.858  -0.196   5.258 -0.4495 -0.0416 -0.8191
  182MOL0     N24452   3.004  -0.175   5.240  0.2764  0.0124 -0.5514
  182MOL0     C24453   3.074  -0.219   5.128 -0.3485 -0.5677 -0.5809
  182MOL0     C24454   3.201  -0.181   5.149  0.0927 -0.0853  0.6031
  182MOL0     C24455   3.302  -0.213   5.038  0.0974 -0.7810  0.1726
  182MOL0     C24456   3.443  -0.161   5.068  0.8361 -0.2359 -0.6610
  182MOL0     C24457   3.544  -0.248   4.991 -0.3484 -0.1403 -0.3289
  182MOL0     C24458   3.690  -0.189   4.981  0.0761 -0.5136  0.3545
  182MOL0     O24459   3.732  -0.167   4.844 -0.0063  0.2531 -0.4798
  182MOL0     C24460   3.865  -0.123   4.833 -0.5063 -0.1339  0.5142
  182MOL0     C24461   3.954  -0.082   4.934 -0.2277 -0.0328  0.8040
  182MOL0     C24462   4.076  -0.012   4.908  0.7555  0.7319 -0.0627
  182MOL0     C24463   4.126  -0.003   4.772  0.5743  0.0606  0.4803
  182MOL0     C24464   4.257   0.060   4.746 -0.7433  0.3134  0.1142
  182MOL0     O24465   4.329   0.016   4.637  0.6623 -0.0172 -0.1102
  182MOL0     C24466   4.450   0.086   4.604  0.8261 -1.5925 -0.0580
  182MOL0     C24467   4.467   0.152   4.482  0.3047 -0.3592  0.8877
  182MOL0     C24468   4.583   0.215   4.444 -0.8542  0.2504  0.5383
  182MOL0     C24469   4.697   0.197   4.527  0.7365  0.0639  0.6698
  182MOL0     O24470   4.818   0.241   4.490 -0.6877 -0.2692  0.2632
  182MOL0     C24471   4.846   0.382   4.528 -0.0142 -0.0260  1.2995
  182MOL0     C24472   4.993   0.420   4.505  0.4358  0.1654 -0.2425
  182MOL0     C24473   5.032   0.412   4.352 -0.4122  0.0114 -0.5948
  182MOL0     C24474   5.179   0.431   4.321  0.6755  0.2688 -0.1722
  182MOL0     C24475   5.225   0.565   4.360 -0.0887  0.0545  0.2741
  182MOL0     C24476   5.381   0.558   4.353  0.0393 -0.2926 -0.0825
  182MOL0     C24477   5.437   0.698   4.368 -0.0271 -0.7378  0.0045
  182MOL0     C24478   5.589   0.703   4.371 -0.3433  0.3000 -0.4491
  182MOL0    Cl24479   5.647   0.869   4.394  0.8955 -0.4105  0.3358
  182MOL0     C24480   4.684   0.117   4.642  0.1809 -0.3668 -0.1816
  182MOL0     C24481   4.564   0.065   4.673  0.1667  0.1592 -0.9563
  182MOL0     O24482   4.305   0.131   4.835 -0.2802  0.1165 -0.2034
  182MOL0     C24483   4.035  -0.058   4.670  0.0808  0.2056 -0.1082
  182MOL0     C24484   3.908  -0.102   4.700 -0.4230 -0.1013 -0.1106
  182MOL0     N24485   3.206  -0.128   5.277 -0.1110 -0.1226 -0.1510
  182MOL0     N24486   3.091  -0.125   5.331  0.3436  0.1273 -0.5646
  182MOL0     C24487   1.828   0.108   5.180  0.2765 -0.5530  0.5603
  182MOL0     C24488   1.694   0.131   5.230  0.3057  0.1676  0.4978
  182MOL0     C24489   1.350   0.182   5.551  0.2646  0.7298 -0.2718
  182MOL0     C24490   1.255   0.157   5.450  1.1197  0.0640 -0.7355
  182MOL0     C24491   1.114   0.187   5.468 -0.1291 -1.1081 -0.0999
  182MOL0     C24492   1.072   0.248   5.588 -0.0950  0.4505  0.1028
  182MOL0     O24493   0.946   0.294   5.618  0.3183 -0.2963 -0.0144
  182MOL0     C24494   0.837   0.215   5.562  0.3521 -0.7233  0.2478
  182MOL0     C24495   0.697   0.242   5.614 -0.0767 -0.0969 -0.2344
  182MOL0     C24496   0.591   0.174   5.526  0.1380 -0.0174  0.3834
  182MOL0     C24497   0.451   0.211   5.577 -0.8145 -0.4641 -0.9050
  182MOL0     C24498   0.340   0.162   5.493 -0.3498  0.4756  0.5243
  182MOL0     C24499   0.263   0.119   5.410  0.3189  0.2386  0.4050
  182MOL0     C24500   1.164   0.265   5.693 -0.1337 -0.7644 -0.1263
  182MOL0     C24501   1.300   0.228   5.682 -0.3515  0.0299  0.1946
  182MOL0     C24502   1.385   0.254   5.804  0.2187 -0.2199  0.4516
  182MOL0     H24503   1.711  -0.044   5.519  0.5484  0.6421  0.3892
  182MOL0     H24504   1.949  -0.071   5.445 -0.1511  0.0527 -1.3744
  182MOL0     H24505   2.099  -0.172   5.316 -1.6497  0.0724  0.7799
  182MOL0     H24506   2.002  -0.208   5.179  2.5578 -1.7083  0.7174
  182MOL0     H24507   2.154  -0.114   5.010  0.1842 -2.1046 -1.3402
  182MOL0     H24508   2.208  -0.261   5.106  0.2312 -0.9966  1.4061
  182MOL0     H24509   2.347  -0.112   5.241 -1.2169  1.9282  0.7877
  182MOL0     H24510   2.296   0.027   5.151  0.7632 -0.1160 -0.6805
  182MOL0     H24511   2.428  -0.199   5.012  0.4298 -0.1867 -0.7097
  182MOL0     H24512   2.395  -0.044   4.938 -2.9465 -1.8593 -0.3630
  182MOL0     H24513   2.599  -0.018   4.999 -0.6622 -2.8894 -1.5717
  182MOL0     H24514   2.541   0.052   5.142 -0.2076  0.7151 -1.0910
  182MOL0     H24515   2.595  -0.120   5.279 -0.2782 -0.5780 -0.4754
  182MOL0     H24516   2.609  -0.242   5.153 -1.1307  0.6684  1.1390
  182MOL0     H24517   2.792   0.003   5.197 -3.3715  0.4866 -0.8559
  182MOL0     H24518   2.813  -0.111   5.066 -3.2597 -1.8141  0.0041
  182MOL0     H24519   2.821  -0.185   5.361  0.1877 -1.5319 -0.4118
  182MOL0     H24520   2.826  -0.296   5.229  1.7719 -1.3401  0.8908
  182MOL0     H24521   3.039  -0.278   5.044  1.7053 -2.2400 -0.3523
  182MOL0     H24522   3.309  -0.322   5.030 -1.0331 -0.8902  0.4392
  182MOL0     H24523   3.267  -0.166   4.945  1.0059  1.1541  0.7509
  182MOL0     H24524   3.453  -0.056   5.038  1.0624 -0.2457 -0.6177
  182MOL0     H24525   3.454  -0.170   5.176 -1.1430 -3.5539 -0.5947
  182MOL0     H24526   3.507  -0.254   4.888 -0.6059  0.4383 -0.2769
  182MOL0     H24527   3.544  -0.351   5.025 -0.5932  0.7093  2.4881
  182MOL0     H24528   3.754  -0.266   5.024 -0.8761 -1.8954 -0.5962
  182MOL0     H24529   3.696  -0.097   5.039  0.7101 -0.6340  0.4868
  182MOL0     H24530   3.912  -0.094   5.034  2.4391  1.4568  2.2204
  182MOL0     H24531   4.134   0.019   4.995 -0.4489  1.1812  0.6096
  182MOL0     H24532   4.385   0.156   4.410  0.0939  1.7637  1.1770
  182MOL0     H24533   4.587   0.262   4.346 -1.2526  3.9812  2.1407
  182MOL0     H24534   4.781   0.446   4.467 -1.2058 -0.5405  1.9907
  182MOL0     H24535   4.830   0.415   4.631 -0.0984 -0.7805  1.5331
  182MOL0     H24536   5.010   0.521   4.542  0.0753  0.5241 -1.0257
  182MOL0     H24537   5.066   0.351   4.548  1.8876 -0.2231 -3.1155
  182MOL0     H24538   5.008   0.313   4.313  1.0667 -1.0343  1.0079
  182MOL0     H24539   4.975   0.490   4.299 -0.1570 -0.7300 -2.0144
  182MOL0     H24540   5.184   0.417   4.212 -1.7955  1.5753 -0.5139
  182MOL0     H24541   5.239   0.353   4.369  0.4430  0.0995 -0.1583
  182MOL0     H24542   5.195   0.601   4.459  0.8490  2.4075 -0.2285
  182MOL0     H24543   5.188   0.630   4.280  2.6004  1.0105 -0.3014
  182MOL0     H24544   5.419   0.492   4.431 -1.2554 -1.2242 -0.1960
  182MOL0     H24545   5.407   0.520   4.254 -0.9619  0.9477 -0.8461
  182MOL0     H24546   5.404   0.731   4.467 -0.1100 -2.4753  0.5986
  182MOL0     H24547   5.399   0.754   4.282 -1.8779 -2.4595 -0.3755
  182MOL0     H24548   5.631   0.647   4.456  0.9917  3.1565  0.9355
  182MOL0     H24549   5.625   0.666   4.275 -0.0706 -0.9216  0.0963
  182MOL0     H24550   4.775   0.099   4.697  1.0788  2.1028 -0.7208
  182MOL0     H24551   4.555   0.005   4.763 -2.6954  2.7708  0.7011
  182MOL0     H24552   4.060  -0.056   4.564 -1.1112 -1.3656 -0.4505
  182MOL0     H24553   3.838  -0.122   4.620  2.5056  1.2783 -3.2920
  182MOL0     H24554   1.857   0.141   5.080 -0.2852 -1.0932  0.2107
  182MOL0     H24555   1.620   0.178   5.165 -2.6441 -0.4466  3.1434
  182MOL0     H24556   1.289   0.120   5.354  2.4964  2.7813 -1.3966
  182MOL0     H24557   1.046   0.184   5.384  1.2403 -2.1017 -1.2160
  182MOL0     H24558   0.858   0.108   5.573  2.1327 -0.4213  0.0691
  182MOL0     H24559   0.833   0.230   5.454 -1.2963  1.2859  0.5209
  182MOL0     H24560   0.675   0.349   5.615 -0.3278 -0.1322  1.6568
  182MOL0     H24561   0.688   0.197   5.713 -1.4091 -1.7577 -1.0655
  182MOL0     H24562   0.596   0.066   5.510 -5.3334 -0.2270 -2.2625
  182MOL0     H24563   0.593   0.221   5.427  2.3857  2.6774  1.5724
  182MOL0     H24564   0.447   0.175   5.680  3.5440  1.9541  0.3709
  182MOL0     H24565   0.442   0.320   5.571 -1.2169 -0.5647 -2.6451
  182MOL0     H24566   0.202   0.083   5.330 -0.5571 -0.6320  1.4153
  182MOL0     H24567   1.127   0.308   5.785 -0.1212 -0.4892 -0.2492
  182MOL0     H24568   1.452   0.170   5.824 -0.9956 -1.7333 -1.5767
  182MOL0     H24569   1.455   0.336   5.785  0.5859 -0.3569  1.1692
  182MOL0     H24570   1.324   0.276   5.893 -1.9243 -2.8377 -0.2496
  183MOL0     O24571   6.970   4.019   2.942  0.2338 -0.3934 -0.1549
  183MOL0     C24572   6.916   4.026   2.830 -1.3056  0.7738  0.2768
  183MOL0     O24573   6.967   4.104   2.729 -0.2141  0.0164  0.4180
  183MOL0     C24574   7.075   4.184   2.760  0.6523  0.7020  0.6267
  183MOL0     C24575   7.063   4.302   2.822 -0.0344  0.1375 -0.4287
  183MOL0     C24576   7.173   4.386   2.864 -0.1864  0.3229 -0.0255
  183MOL0     C24577   7.302   4.336   2.825 -0.3930  0.3750  0.0677
  183MOL0     O24578   7.407   4.405   2.870 -0.0935  0.4737  0.8989
  183MOL0     C24579   7.546   4.374   2.836 -0.1196 -0.3811  1.0569
  183MOL0     C24580   7.634   4.483   2.900 -0.2463 -0.2351  0.2610
  183MOL0     C24581   7.621   4.621   2.818  1.2290  1.2797  0.1613
  183MOL0     C24582   7.703   4.728   2.868  0.0237  1.1292  0.0416
  183MOL0     C24583   7.856   4.688   2.861  0.6936  0.0935  0.1612
  183MOL0     C24584   7.949   4.793   2.918 -2.0032 -0.2004  0.2550
  183MOL0     C24585   8.096   4.742   2.899  1.2586  0.5200  0.4367
  183MOL0     C24586   8.187   4.850   2.839  0.0778 -0.3687 -0.0914
  183MOL0     N24587   8.325   4.796   2.830 -0.5899  0.6659 -0.5580
  183MOL0     C24588   8.430   4.875   2.806 -0.1492 -0.1519 -0.1022
  183MOL0     C24589   8.515   4.798   2.740  0.6519 -0.6524 -0.2562
  183MOL0     C24590   8.645   4.831   2.683 -0.6244  0.0970 -0.6053
  183MOL0     C24591   8.661   4.947   2.588 -0.4251  0.0609 -0.0641
  183MOL0     C24592   8.812   4.947   2.561 -0.5977 -0.7158  0.7693
  183MOL0     C24593   8.868   5.056   2.468  0.4721  0.5338 -0.3129
  183MOL0     O24594   9.007   5.050   2.465 -0.7024  0.1574 -0.2531
  183MOL0     C24595   9.071   5.033   2.341  0.2483 -0.5351  1.0197
  183MOL0     C24596   9.037   5.102   2.219  0.0573  0.5143 -0.0090
  183MOL0     C24597   9.112   5.084   2.101 -0.4498 -0.4507 -0.4879
  183MOL0     C24598   9.225   5.006   2.101 -0.7375  0.3883 -0.4489
  183MOL0     C24599   9.317   4.993   1.984  0.5084  0.1143 -1.0456
  183MOL0     O24600   9.300   5.080   1.889  0.1800 -0.0453 -0.1315
  183MOL0     C24601   9.359   5.066   1.772  0.0144  0.3028 -0.0525
  183MOL0     C24602   9.484   5.126   1.752 -0.6229  0.2685  0.4047
  183MOL0     C24603   9.560   5.099   1.636  0.4265 -0.0927  0.2341
  183MOL0     C24604   9.509   5.021   1.537 -0.1065 -0.1861 -0.3540
  183MOL0     O24605   9.583   4.994   1.422 -0.2207  0.2492 -0.6583
  183MOL0     C24606   9.714   5.058   1.407 -0.6015  0.0137 -0.1143
  183MOL0     C24607   9.770   5.004   1.276 -0.4829 -0.7340  0.2927
  183MOL0     C24608   9.914   5.045   1.280 -0.1611  0.0077  0.2954
  183MOL0     C24609   9.977   5.010   1.145 -0.5403  0.3149  0.8763
  183MOL0     C24610  10.130   5.026   1.142 -0.0407 -0.0251  0.3465
  183MOL0     C24611  10.191   5.011   0.995  0.6624  0.6959  0.4168
  183MOL0     C24612  10.323   5.073   0.969  0.1143  0.1321  0.3977
  183MOL0     C24613  10.353   5.062   0.823 -0.3354 -0.5223  0.3352
  183MOL0    Cl24614  10.273   5.191   0.752  0.3196 -0.2369 -0.0277
  183MOL0     C24615   9.382   4.962   1.553 -0.6642  0.1469  0.7825
  183MOL0     C24616   9.312   4.978   1.665 -0.1695 -0.2643 -0.9461
  183MOL0     O24617   9.417   4.918   1.998  0.9342  0.1889  0.0214
  183MOL0     C24618   9.250   4.936   2.220  0.9003  0.3584  0.7111
  183MOL0     C24619   9.180   4.956   2.334  0.4397 -0.4992  0.0058
  183MOL0     N24620   8.468   4.673   2.727  0.0493 -0.1799 -0.0766
  183MOL0     N24621   8.352   4.677   2.772  1.0574  0.0855 -0.2021
  183MOL0     C24622   7.319   4.207   2.775 -0.6375  0.0343 -0.4744
  183MOL0     C24623   7.202   4.133   2.738 -0.2579 -0.1109  0.2910
  183MOL0     C24624   6.789   3.946   2.809 -0.0218  0.2882  0.6037
  183MOL0     C24625   6.735   3.875   2.916 -0.3774 -0.1209  0.1802
  183MOL0     C24626   6.615   3.805   2.905 -0.0883  0.6868  0.6683
  183MOL0     C24627   6.550   3.805   2.781  0.9706 -0.1260  0.4037
  183MOL0     O24628   6.433   3.740   2.745  0.7650  0.4010 -0.0146
  183MOL0     C24629   6.341   3.716   2.856 -0.1627  0.0806 -0.1975
  183MOL0     C24630   6.197   3.681   2.797 -0.5879  0.1616 -1.0483
  183MOL0     C24631   6.120   3.801   2.750 -0.6011  0.2243 -0.7790
  183MOL0     C24632   6.010   3.846   2.842 -0.4669  0.4814 -0.3612
  183MOL0     C24633   6.055   3.904   2.964 -0.0428  0.3399 -0.2161
  183MOL0     C24634   6.076   3.941   3.079  0.0593 -0.1127  0.2458
  183MOL0     C24635   6.608   3.870   2.674  0.2811 -0.0755  0.3979
  183MOL0     C24636   6.717   3.946   2.684 -0.2846  0.2027  0.3658
  183MOL0     C24637   6.768   4.014   2.565  0.5133  0.3485 -0.1502
  183MOL0     H24638   6.964   4.339   2.847  0.4452  0.5271  0.9933
  183MOL0     H24639   7.142   4.466   2.929 -0.7431 -0.4453  0.6676
  183MOL0     H24640   7.581   4.280   2.880  0.9034  0.3447  1.8662
  183MOL0     H24641   7.552   4.379   2.727  1.4585  0.3409  1.1454
  183MOL0     H24642   7.734   4.439   2.895  1.4574  3.4721 -3.4246
  183MOL0     H24643   7.591   4.497   3.000 -2.4799  1.2368 -0.8265
  183MOL0     H24644   7.518   4.656   2.821  0.7529  0.3270 -2.2292
  183MOL0     H24645   7.652   4.608   2.714 -1.1436  3.2040 -0.8952
  183MOL0     H24646   7.683   4.814   2.803 -0.6685 -0.9487 -2.6820
  183MOL0     H24647   7.673   4.753   2.970 -1.5740 -0.4089 -0.0023
  183MOL0     H24648   7.876   4.588   2.902  0.2488 -0.6786 -1.3999
  183MOL0     H24649   7.879   4.678   2.754  1.6293 -2.1010  0.5187
  183MOL0     H24650   7.935   4.881   2.855  0.0846  2.0097  2.6380
  183MOL0     H24651   7.920   4.812   3.022 -0.5956 -2.4352  1.1413
  183MOL0     H24652   8.091   4.667   2.819  1.5343  1.4079 -0.4350
  183MOL0     H24653   8.140   4.702   2.991 -0.0734 -0.6923  0.5895
  183MOL0     H24654   8.142   4.878   2.744  2.2632 -2.1721 -1.7814
  183MOL0     H24655   8.195   4.938   2.904 -0.4211  0.0166 -0.5436
  183MOL0     H24656   8.439   4.981   2.829 -0.1605 -0.3096  0.6582
  183MOL0     H24657   8.701   4.862   2.772 -3.0412 -2.7773  2.1373
  183MOL0     H24658   8.689   4.740   2.641  0.3187 -0.0577  0.6397
  183MOL0     H24659   8.605   4.935   2.495 -0.5129  0.3958 -0.0551
  183MOL0     H24660   8.626   5.039   2.635  2.3151  1.8992 -1.3447
  183MOL0     H24661   8.837   4.852   2.514 -1.3245 -0.2158 -0.7109
  183MOL0     H24662   8.875   4.962   2.649 -1.3300  3.9325  0.7831
  183MOL0     H24663   8.839   5.151   2.515 -0.7183 -1.0188  2.3528
  183MOL0     H24664   8.820   5.046   2.370 -2.8907  0.2087  1.1972
  183MOL0     H24665   8.958   5.172   2.197 -0.1310 -0.1805 -1.6851
  183MOL0     H24666   9.089   5.150   2.018  1.1352  1.5142  0.5662
  183MOL0     H24667   9.512   5.191   1.834 -3.0511 -0.6328  2.0492
  183MOL0     H24668   9.649   5.161   1.633  0.7136 -0.3985  1.4549
  183MOL0     H24669   9.707   5.166   1.392  0.3724  0.0881 -0.0815
  183MOL0     H24670   9.781   5.037   1.490  0.6444 -0.9354 -1.3080
  183MOL0     H24671   9.752   4.897   1.275 -0.3446 -0.7592  0.4709
  183MOL0     H24672   9.717   5.046   1.190 -0.6895  0.7910  1.1245
  183MOL0     H24673   9.918   5.152   1.304 -0.8166  0.1239 -0.1013
  183MOL0     H24674   9.977   4.997   1.355 -0.1937 -0.3804  0.0750
  183MOL0     H24675   9.922   5.064   1.069 -1.0358 -0.3692  0.7355
  183MOL0     H24676   9.955   4.906   1.120  0.4080  0.5655 -1.1759
  183MOL0     H24677  10.176   4.962   1.218 -0.0885  0.4645  0.7975
  183MOL0     H24678  10.152   5.129   1.171  2.3696 -0.0593 -1.0797
  183MOL0     H24679  10.174   4.907   0.963 -2.3024  1.7842 -2.1363
  183MOL0     H24680  10.124   5.068   0.930 -0.8874 -1.8423 -0.3512
  183MOL0     H24681  10.395   5.009   1.020 -1.1973 -2.1034 -0.4063
  183MOL0     H24682  10.320   5.175   1.011  1.1763  1.4291 -2.4554
  183MOL0     H24683  10.460   5.068   0.805 -0.3242  0.7012  0.6879
  183MOL0     H24684  10.311   4.968   0.787 -1.2671 -0.4814  1.2728
  183MOL0     H24685   9.343   4.899   1.474 -2.4757 -0.2141  1.8944
  183MOL0     H24686   9.217   4.926   1.673 -0.6736  0.5397 -1.4410
  183MOL0     H24687   9.336   4.874   2.245  0.6899  0.6254  2.2003
  183MOL0     H24688   9.200   4.916   2.433 -1.1116  0.9798  0.9791
  183MOL0     H24689   7.419   4.172   2.750 -0.8877 -1.5765  0.5741
  183MOL0     H24690   7.221   4.034   2.698 -3.8296 -0.0949 -1.8423
  183MOL0     H24691   6.797   3.866   3.004  1.6862  0.9081 -1.0992
  183MOL0     H24692   6.572   3.747   2.987 -0.5504 -0.8363 -0.6072
  183MOL0     H24693   6.347   3.803   2.922  0.7524  0.3182 -0.5807
  183MOL0     H24694   6.386   3.632   2.909 -0.3803 -0.2574 -0.5372
  183MOL0     H24695   6.146   3.617   2.869  2.1352 -1.5381 -0.4806
  183MOL0     H24696   6.212   3.616   2.710  0.3100  0.3204 -1.0220
  183MOL0     H24697   6.083   3.778   2.649  2.2364 -0.1552 -1.8425
  183MOL0     H24698   6.189   3.883   2.731  0.5801 -1.1739 -2.9914
  183MOL0     H24699   5.949   3.924   2.796 -1.5855  1.1046  2.0294
  183MOL0     H24700   5.943   3.761   2.860 -0.9459  1.1964  1.3687
  183MOL0     H24701   6.106   3.978   3.175  0.3586  1.6088 -0.4715
  183MOL0     H24702   6.566   3.858   2.574  2.1846 -1.1208 -0.3277
  183MOL0     H24703   6.780   4.122   2.579 -0.1806  0.4129 -0.0088
  183MOL0     H24704   6.861   3.963   2.540 -1.0789 -0.8802 -4.4424
  183MOL0     H24705   6.702   4.013   2.478  0.4070 -0.2381 -0.0659
  184MOL0     O24706   5.719   4.722   1.324 -0.4823 -0.2105  0.8904
  184MOL0     C24707   5.739   4.613   1.269 -0.0963 -0.1841  0.6194
  184MOL0     O24708   5.851   4.566   1.216 -0.5966 -0.5465 -0.3826
  184MOL0     C24709   5.952   4.658   1.206 -0.2292 -0.0790  0.1898
  184MOL0     C24710   5.962   4.752   1.102  0.2959  0.7073 -0.2851
  184MOL0     C24711   6.073   4.840   1.095  0.6352 -0.1680 -1.0911
  184MOL0     C24712   6.167   4.840   1.201  0.4836 -0.0088  0.2297
  184MOL0     O24713   6.268   4.930   1.182 -0.0370  0.3907  0.4983
  184MOL0     C24714   6.398   4.897   1.223 -0.3681 -0.5659 -0.2474
  184MOL0     C24715   6.499   4.964   1.130  0.2586  0.2212 -0.1277
  184MOL0     C24716   6.632   4.991   1.193 -0.4597  0.2633 -0.4366
  184MOL0     C24717   6.718   4.871   1.243  0.0064  0.5990 -0.1021
  184MOL0     C24718   6.856   4.905   1.290  0.7756  0.1100  0.3457
  184MOL0     C24719   6.943   4.786   1.337  0.9912  0.1973  0.7454
  184MOL0     C24720   7.092   4.813   1.320  0.0672 -0.4680  0.2870
  184MOL0     C24721   7.137   4.901   1.448 -0.9432  0.1278  0.3484
  184MOL0     N24722   7.263   4.959   1.411 -0.4282 -0.1421 -0.3156
  184MOL0     C24723   7.302   5.041   1.303 -0.8253  0.6211  0.4358
  184MOL0     C24724   7.423   5.079   1.339 -0.7067 -0.5631  1.0306
  184MOL0     C24725   7.506   5.156   1.249  0.3603 -0.8979  0.4754
  184MOL0     C24726   7.634   5.196   1.321 -0.1914  0.0647 -0.5428
  184MOL0     C24727   7.718   5.290   1.237  0.2690 -0.6907 -0.1429
  184MOL0     C24728   7.848   5.328   1.311 -0.9260 -0.4579 -0.9650
  184MOL0     O24729   7.918   5.438   1.232  0.4304 -0.1946  0.0012
  184MOL0     C24730   8.040   5.472   1.281  0.1437  0.3993  0.3224
  184MOL0     C24731   8.133   5.518   1.188  0.4744 -0.1624 -0.0481
  184MOL0     C24732   8.259   5.558   1.230 -0.3888  0.1905 -0.0082
  184MOL0     C24733   8.288   5.590   1.368  0.5924 -0.7052  0.2792
  184MOL0     C24734   8.399   5.677   1.404  0.1123 -0.3620  0.3052
  184MOL0     O24735   8.511   5.673   1.329 -0.6147 -0.2458 -0.5814
  184MOL0     C24736   8.624   5.741   1.371 -0.5981  0.6008  0.0162
  184MOL0     C24737   8.698   5.687   1.471 -0.0086 -0.6327 -0.1650
  184MOL0     C24738   8.812   5.750   1.529  0.8901  0.1467  0.2287
  184MOL0     C24739   8.857   5.874   1.470 -0.8318 -0.4305 -0.5131
  184MOL0     O24740   8.962   5.936   1.519  0.1831 -0.2467 -0.3780
  184MOL0     C24741   9.087   5.860   1.499  0.9134  0.2946 -0.4778
  184MOL0     C24742   9.176   5.919   1.393  0.2647 -0.1346 -0.4446
  184MOL0     C24743   9.161   6.074   1.379  1.1628 -0.5162  0.7223
  184MOL0     C24744   9.208   6.157   1.511 -0.0243 -0.7470 -0.3303
  184MOL0     C24745   9.355   6.117   1.550 -0.2636  0.5586 -0.0879
  184MOL0     C24746   9.413   6.211   1.655  0.2136  0.0790 -0.5183
  184MOL0     C24747   9.557   6.163   1.693  0.2078  1.3784 -0.0232
  184MOL0     C24748   9.618   6.259   1.778 -0.7788  0.7159 -0.0826
  184MOL0    Cl24749   9.783   6.200   1.787  0.1965  0.8306 -0.4367
  184MOL0     C24750   8.785   5.923   1.356 -0.3319 -0.6178  0.0815
  184MOL0     C24751   8.673   5.863   1.312  0.0909 -0.5773 -0.6707
  184MOL0     O24752   8.392   5.743   1.504  0.1717 -0.4154 -1.0174
  184MOL0     C24753   8.200   5.532   1.459  0.4223  0.0941  0.0239
  184MOL0     C24754   8.075   5.477   1.419  0.3224  0.1512 -0.6952
  184MOL0     N24755   7.454   5.040   1.464  0.9690 -1.0904  0.1055
  184MOL0     N24756   7.355   4.973   1.513  0.2400 -0.9053  0.5069
  184MOL0     C24757   6.156   4.750   1.304  0.4513  0.1401 -0.6329
  184MOL0     C24758   6.048   4.658   1.311 -0.1451 -0.0192  0.5338
  184MOL0     C24759   5.623   4.524   1.279  0.0772  0.5620  0.0985
  184MOL0     C24760   5.493   4.587   1.252 -0.5620  0.3627  0.5494
  184MOL0     C24761   5.380   4.499   1.255  0.4064  0.0148 -0.1462
  184MOL0     C24762   5.389   4.362   1.280 -0.2460  0.1903 -0.7909
  184MOL0     O24763   5.282   4.272   1.270 -0.9870 -0.7239  0.1204
  184MOL0     C24764   5.149   4.322   1.279  0.3549 -0.0153  0.1898
  184MOL0     C24765   5.057   4.199   1.254 -0.2759 -0.3777  0.5426
  184MOL0     C24766   5.028   4.133   1.385 -0.0399 -0.3381  0.4737
  184MOL0     C24767   4.930   4.015   1.370  0.2043  0.6869 -0.6014
  184MOL0     C24768   4.794   4.036   1.327  0.5496 -0.9126  0.5074
  184MOL0     C24769   4.683   4.086   1.296  0.2595 -0.0295  0.3447
  184MOL0     C24770   5.516   4.318   1.323  0.5677 -0.3881  0.0256
  184MOL0     C24771   5.634   4.392   1.323  1.0135 -0.1308 -0.1104
  184MOL0     C24772   5.753   4.321   1.375 -0.5663 -0.2321 -0.2368
  184MOL0     H24773   5.879   4.751   1.033 -1.0679  0.1558  1.2929
  184MOL0     H24774   6.074   4.915   1.016 -3.3705 -0.0906 -1.2679
  184MOL0     H24775   6.414   4.931   1.326  0.8315  0.1118 -0.6335
  184MOL0     H24776   6.417   4.790   1.218  0.5424 -0.6054  2.2934
  184MOL0     H24777   6.453   5.060   1.102 -0.8001  0.3285  1.8024
  184MOL0     H24778   6.516   4.904   1.040  2.0604 -1.7447  1.4196
  184MOL0     H24779   6.610   5.055   1.279  1.0010  1.1256 -0.6622
  184MOL0     H24780   6.691   5.054   1.125  1.7306 -1.5155 -0.3218
  184MOL0     H24781   6.654   4.827   1.320 -2.4880  1.3544 -1.6075
  184MOL0     H24782   6.729   4.808   1.154 -1.6061  1.1560 -0.7369
  184MOL0     H24783   6.906   4.962   1.211  0.2902  0.0747  0.0085
  184MOL0     H24784   6.845   4.972   1.376 -0.9033  2.7291 -1.7286
  184MOL0     H24785   6.922   4.773   1.444  3.2438 -1.7220  1.0343
  184MOL0     H24786   6.917   4.693   1.285  1.4490 -0.1643  1.1557
  184MOL0     H24787   7.111   4.864   1.225  0.1525  0.9413  1.0380
  184MOL0     H24788   7.145   4.717   1.317  0.5072 -0.2091 -0.3378
  184MOL0     H24789   7.060   4.974   1.476 -1.7429 -0.1801 -0.9789
  184MOL0     H24790   7.150   4.837   1.536  0.4071  2.0872  1.6577
  184MOL0     H24791   7.244   5.057   1.212  0.9673  1.6965 -0.5653
  184MOL0     H24792   7.541   5.076   1.182  1.8606  1.2403 -1.4314
  184MOL0     H24793   7.458   5.238   1.196  1.8788 -1.4416 -1.8921
  184MOL0     H24794   7.610   5.255   1.411  0.0951 -0.6544  0.0110
  184MOL0     H24795   7.681   5.105   1.358  0.2546  0.0821 -1.0643
  184MOL0     H24796   7.659   5.381   1.225  2.7181  1.0183 -0.0135
  184MOL0     H24797   7.742   5.254   1.137 -0.1979 -0.5880 -0.2924
  184MOL0     H24798   7.919   5.245   1.315 -1.4595 -1.0298 -2.5848
  184MOL0     H24799   7.824   5.350   1.415  1.2440  1.1416 -0.7330
  184MOL0     H24800   8.123   5.515   1.080 -0.1997  0.1475  0.0039
  184MOL0     H24801   8.326   5.589   1.150 -3.1700  1.7967 -1.9166
  184MOL0     H24802   8.672   5.587   1.504  1.0804 -1.3961 -1.5234
  184MOL0     H24803   8.863   5.720   1.620 -2.2941 -0.7585  1.8764
  184MOL0     H24804   9.141   5.869   1.594 -0.3038  1.3300  0.1552
  184MOL0     H24805   9.066   5.753   1.485  2.6493  0.0068 -1.0316
  184MOL0     H24806   9.282   5.897   1.403  0.3308 -0.7510 -2.1361
  184MOL0     H24807   9.150   5.879   1.295 -2.5023  1.4101 -0.4629
  184MOL0     H24808   9.223   6.097   1.293 -1.7000 -0.3730 -1.4547
  184MOL0     H24809   9.061   6.108   1.350  1.2467 -1.5274 -0.8812
  184MOL0     H24810   9.151   6.144   1.603  0.6209  0.1966  0.2260
  184MOL0     H24811   9.214   6.263   1.484  0.6471 -0.7993 -0.4149
  184MOL0     H24812   9.417   6.125   1.460 -0.8672  2.5814 -0.3812
  184MOL0     H24813   9.359   6.011   1.576  0.0186  0.2257 -1.3916
  184MOL0     H24814   9.426   6.305   1.601 -1.7972  0.6007 -0.2026
  184MOL0     H24815   9.347   6.224   1.742 -0.7833  2.1688 -1.4994
  184MOL0     H24816   9.622   6.154   1.606 -0.1497  0.9442 -0.2499
  184MOL0     H24817   9.552   6.063   1.737 -0.1744  0.5998 -1.7504
  184MOL0     H24818   9.624   6.356   1.729 -0.7710  0.8134  0.1093
  184MOL0     H24819   9.564   6.259   1.874 -2.4628 -3.6449 -0.8185
  184MOL0     H24820   8.822   6.011   1.303 -0.3985 -0.9164 -0.4683
  184MOL0     H24821   8.619   5.921   1.237  1.0229  0.0712 -0.8560
  184MOL0     H24822   8.225   5.553   1.562  0.7096  1.7194 -0.3438
  184MOL0     H24823   8.007   5.441   1.495  1.3966 -0.4402  0.0200
  184MOL0     H24824   6.235   4.743   1.379 -1.1487  0.7085  1.2070
  184MOL0     H24825   6.040   4.586   1.392 -1.9969  0.0191  0.4103
  184MOL0     H24826   5.486   4.688   1.213  0.0932 -0.3215 -1.5020
  184MOL0     H24827   5.289   4.547   1.220  0.2567 -0.8517 -0.9881
  184MOL0     H24828   5.123   4.393   1.200  0.9214  2.6719  2.2653
  184MOL0     H24829   5.149   4.375   1.375  1.1232  0.7440 -0.2173
  184MOL0     H24830   5.102   4.136   1.178  0.5945  0.8648 -0.0181
  184MOL0     H24831   4.961   4.239   1.219 -0.1608  1.1753  1.8581
  184MOL0     H24832   4.983   4.210   1.448 -1.3328  0.7064 -1.6212
  184MOL0     H24833   5.123   4.100   1.429  0.1460  0.3364  0.5967
  184MOL0     H24834   4.953   3.942   1.291 -2.8534 -0.3726 -0.6351
  184MOL0     H24835   4.924   3.957   1.463 -3.0038  0.1953 -1.0076
  184MOL0     H24836   4.583   4.121   1.282  0.0749  0.2638  2.1371
  184MOL0     H24837   5.536   4.216   1.354  3.7427  0.5226  1.4135
  184MOL0     H24838   5.838   4.391   1.375 -0.1604 -0.7144 -0.2421
  184MOL0     H24839   5.736   4.311   1.483  0.8400 -0.2223  0.0156
  184MOL0     H24840   5.779   4.224   1.331 -1.0459 -1.5001  2.0940
  185MOL0     O24841   0.155   4.888   6.625 -0.2243  0.1161 -0.7918
  185MOL0     C24842   0.118   4.814   6.719 -0.8840 -0.0710 -0.6967
  185MOL0     O24843   0.197   4.762   6.812  0.5124 -0.1580  0.0059
  185MOL0     C24844   0.327   4.809   6.821 -0.0646 -0.5975 -0.2630
  185MOL0     C24845   0.435   4.721   6.810 -0.3159 -0.3693 -0.4562
  185MOL0     C24846   0.568   4.770   6.824  0.8078 -0.5751 -0.4113
  185MOL0     C24847   0.590   4.904   6.853  1.0359 -0.0714  0.0217
  185MOL0     O24848   0.720   4.950   6.843  0.5441 -0.6642 -0.2120
  185MOL0     C24849   0.762   5.080   6.902  0.6373  0.1648  0.3726
  185MOL0     C24850   0.916   5.078   6.905 -0.0968 -0.0288  1.1415
  185MOL0     C24851   0.969   5.215   6.934 -0.4865 -0.9370 -0.1539
  185MOL0     C24852   1.123   5.202   6.953  0.1956 -0.4818  0.2348
  185MOL0     C24853   1.187   5.332   7.006  0.6884  0.5546 -0.5282
  185MOL0     C24854   1.339   5.322   7.021  0.1525  0.2075 -0.4943
  185MOL0     C24855   1.416   5.424   7.116 -0.2202  0.4089 -0.1854
  185MOL0     C24856   1.381   5.407   7.269 -0.1032  0.4307  1.2306
  185MOL0     N24857   1.435   5.509   7.351 -0.4870 -0.3791  0.1299
  185MOL0     C24858   1.568   5.550   7.354 -0.1296 -0.5209 -0.4371
  185MOL0     C24859   1.570   5.661   7.434 -0.2598  0.2268  0.5552
  185MOL0     C24860   1.685   5.748   7.475 -0.5633 -0.1912 -0.6761
  185MOL0     C24861   1.753   5.717   7.604  0.0334 -0.6367 -0.1191
  185MOL0     C24862   1.778   5.564   7.612 -0.3040  0.1089  0.2887
  185MOL0     C24863   1.838   5.501   7.740  0.4583  0.6134  0.0059
  185MOL0     O24864   1.957   5.557   7.773 -0.0864  0.3583  0.4004
  185MOL0     C24865   2.019   5.508   7.886 -0.4491 -0.3604  0.8722
  185MOL0     C24866   2.160   5.531   7.894  0.5112  0.5909  0.7932
  185MOL0     C24867   2.225   5.504   8.006 -0.3191 -0.9854 -0.5479
  185MOL0     C24868   2.162   5.443   8.115 -0.5322  0.2133  0.7905
  185MOL0     C24869   2.239   5.420   8.244 -0.2998  0.0836  0.1853
  185MOL0     O24870   2.373   5.426   8.230 -0.6347  1.2807  0.0390
  185MOL0     C24871   2.454   5.370   8.329 -0.3971 -0.1079  0.2679
  185MOL0     C24872   2.459   5.422   8.462  0.9314  0.3499  0.1157
  185MOL0     C24873   2.538   5.375   8.565  0.2010 -0.1529  0.1370
  185MOL0     C24874   2.641   5.280   8.521  0.4958  0.5931  0.0630
  185MOL0     O24875   2.724   5.224   8.614  0.2745  0.0399 -0.2065
  185MOL0     C24876   2.822   5.124   8.590 -0.9567  0.2300 -0.1013
  185MOL0     C24877   2.894   5.096   8.723  0.3274 -0.3477  0.6905
  185MOL0     C24878   2.801   5.055   8.833  1.2442 -0.2851  0.2735
  185MOL0     C24879   2.880   5.024   8.960 -0.6617 -0.2275  0.3959
  185MOL0     C24880   2.808   4.926   9.068  0.5416 -0.1993  0.1487
  185MOL0     C24881   2.669   4.988   9.136 -0.5435 -0.0801 -0.3790
  185MOL0     C24882   2.605   4.903   9.235 -0.9736 -0.0133 -0.4570
  185MOL0     C24883   2.518   4.809   9.164  0.2147  0.2178  0.1689
  185MOL0    Cl24884   2.449   4.703   9.293  0.0409 -0.1931 -0.1510
  185MOL0     C24885   2.648   5.243   8.383  0.1518  0.1150 -0.8398
  185MOL0     C24886   2.550   5.283   8.295 -1.0360  0.1744  0.4860
  185MOL0     O24887   2.178   5.386   8.345 -0.0894 -0.5721  0.2257
  185MOL0     C24888   2.023   5.419   8.113 -0.2241 -0.2445  0.1862
  185MOL0     C24889   1.950   5.449   7.996 -0.5991  0.5038 -0.2377
  185MOL0     N24890   1.442   5.685   7.473  1.1579 -0.0732 -0.7806
  185MOL0     N24891   1.362   5.597   7.421 -0.4762  0.3089  0.1852
  185MOL0     C24892   0.486   4.993   6.857 -0.6808  0.0880 -0.0584
  185MOL0     C24893   0.352   4.946   6.840 -0.5333 -0.3385 -0.2207
  185MOL0     C24894  -0.030   4.783   6.721 -0.1548  0.9226  0.5841
  185MOL0     C24895  -0.091   4.716   6.616  0.8170  0.3126 -0.3544
  185MOL0     C24896  -0.220   4.664   6.619  0.3370  0.0329 -0.2133
  185MOL0     C24897  -0.295   4.680   6.733 -0.2326 -0.0558  0.0280
  185MOL0     O24898  -0.418   4.618   6.761 -0.8010 -0.3276  0.3462
  185MOL0     C24899  -0.481   4.541   6.660  0.2762  0.3764  0.4538
  185MOL0     C24900  -0.629   4.548   6.669  0.4963  0.4193  0.2599
  185MOL0     C24901  -0.709   4.494   6.548 -0.5931 -0.1934  0.3756
  185MOL0     C24902  -0.859   4.464   6.587  0.5419  0.7305 -0.0602
  185MOL0     C24903  -0.856   4.332   6.652 -0.3953  0.4512  0.1881
  185MOL0     C24904  -0.863   4.224   6.705 -0.7145 -0.4342  0.5160
  185MOL0     C24905  -0.246   4.755   6.841  0.1453  0.5943 -0.3840
  185MOL0     C24906  -0.111   4.795   6.842 -0.5805 -0.1711  0.0951
  185MOL0     C24907  -0.065   4.855   6.969  0.7082 -0.1497 -0.5775
  185MOL0     H24908   0.435   4.619   6.774  2.2866 -0.4895 -0.2523
  185MOL0     H24909   0.657   4.715   6.794  1.0843  1.7499 -4.6187
  185MOL0     H24910   0.729   5.168   6.845 -1.1853 -0.7633 -0.0860
  185MOL0     H24911   0.732   5.079   7.007  2.4168 -1.0709  0.9151
  185MOL0     H24912   0.955   5.058   6.805  0.7171  1.1131  1.2150
  185MOL0     H24913   0.946   4.986   6.956 -1.1884 -2.7473 -2.6678
  185MOL0     H24914   0.928   5.254   7.028 -0.3352 -0.5910 -0.2305
  185MOL0     H24915   0.945   5.280   6.849  0.3661 -0.6140 -0.1574
  185MOL0     H24916   1.150   5.122   7.023  2.0631  1.7749  2.3183
  185MOL0     H24917   1.170   5.178   6.857 -0.2523 -1.7445  0.3099
  185MOL0     H24918   1.162   5.412   6.936 -3.5670  0.3418  0.4687
  185MOL0     H24919   1.137   5.357   7.100  0.0187 -1.2019 -0.3777
  185MOL0     H24920   1.369   5.219   7.044  0.8837  0.0825 -1.9100
  185MOL0     H24921   1.379   5.333   6.920  1.4230 -0.2296 -0.0626
  185MOL0     H24922   1.384   5.526   7.094 -0.0729  0.0817 -2.1436
  185MOL0     H24923   1.520   5.421   7.084 -1.0168 -1.9387 -3.0049
  185MOL0     H24924   1.273   5.416   7.283 -0.5454 -0.5662 -1.0926
  185MOL0     H24925   1.390   5.303   7.301 -2.4645 -0.5212 -0.8502
  185MOL0     H24926   1.649   5.489   7.315  0.2219 -1.2419  1.2971
  185MOL0     H24927   1.765   5.744   7.400 -0.4818 -1.4826 -0.5399
  185MOL0     H24928   1.643   5.849   7.485 -1.0037 -0.4886  0.5676
  185MOL0     H24929   1.853   5.761   7.613  0.2786 -1.4830  1.7594
  185MOL0     H24930   1.686   5.753   7.683 -0.9793  1.5456 -1.8608
  185MOL0     H24931   1.842   5.543   7.525 -2.6539 -3.0582 -0.9018
  185MOL0     H24932   1.685   5.510   7.591  0.0504 -0.0163 -1.0370
  185MOL0     H24933   1.847   5.394   7.721  2.9631  0.6829  0.5384
  185MOL0     H24934   1.764   5.516   7.820 -2.6678 -1.4602 -2.2278
  185MOL0     H24935   2.214   5.578   7.813  0.4175  0.7224  0.8070
  185MOL0     H24936   2.329   5.534   8.014 -1.0106  2.0717 -1.4625
  185MOL0     H24937   2.393   5.507   8.482  0.4920  0.1236 -0.3555
  185MOL0     H24938   2.531   5.405   8.669 -2.0286 -0.1476  0.0455
  185MOL0     H24939   2.768   5.033   8.563 -2.4265  1.0413 -0.0084
  185MOL0     H24940   2.892   5.150   8.510  2.4260 -1.5456  2.0544
  185MOL0     H24941   2.960   5.011   8.705 -2.5796 -2.3567 -1.3608
  185MOL0     H24942   2.950   5.187   8.746  1.5096 -0.1973 -2.3742
  185MOL0     H24943   2.718   5.126   8.839 -1.2611 -2.8403 -1.7687
  185MOL0     H24944   2.748   4.968   8.796 -2.6858  2.2974 -0.8204
  185MOL0     H24945   2.910   5.119   9.007 -1.9626  0.2848  0.2269
  185MOL0     H24946   2.976   4.982   8.929 -0.7624  0.0860 -0.3541
  185MOL0     H24947   2.874   4.907   9.153 -0.3457  2.0057  1.4260
  185MOL0     H24948   2.782   4.829   9.025  2.2327 -2.0478  2.9566
  185MOL0     H24949   2.703   5.079   9.187 -0.4865  0.1884 -0.8800
  185MOL0     H24950   2.609   5.027   9.053  0.8643  1.1502 -0.8725
  185MOL0     H24951   2.551   4.968   9.305 -1.9265  0.0060 -1.1989
  185MOL0     H24952   2.677   4.847   9.295  0.4839  1.3505 -0.8836
  185MOL0     H24953   2.440   4.861   9.108 -0.1923 -0.5632  0.0031
  185MOL0     H24954   2.571   4.738   9.100  0.1753  1.2490 -1.0418
  185MOL0     H24955   2.716   5.162   8.356  3.8250  2.3655  0.9685
  185MOL0     H24956   2.559   5.236   8.198  0.9116  3.2900 -0.9835
  185MOL0     H24957   1.970   5.379   8.199 -0.4032 -0.5133 -0.0455
  185MOL0     H24958   1.848   5.411   7.994  0.6488 -3.2271 -2.6339
  185MOL0     H24959   0.513   5.098   6.862  0.1585 -0.1562  0.7509
  185MOL0     H24960   0.281   5.027   6.832 -1.9535 -1.5275 -0.0618
  185MOL0     H24961  -0.040   4.699   6.522  2.3076 -1.2839  0.6845
  185MOL0     H24962  -0.243   4.605   6.530 -2.0227  2.1977 -1.1854
  185MOL0     H24963  -0.447   4.438   6.665  0.2753  0.4002  0.9969
  185MOL0     H24964  -0.451   4.594   6.569 -1.1303  0.8081  0.2137
  185MOL0     H24965  -0.652   4.655   6.681  1.4216  0.9397 -2.0696
  185MOL0     H24966  -0.646   4.496   6.764  0.3772 -0.2179 -0.1100
  185MOL0     H24967  -0.669   4.398   6.514 -1.1353 -0.1556 -0.3971
  185MOL0     H24968  -0.711   4.563   6.463  1.5430 -1.7014 -1.0014
  185MOL0     H24969  -0.889   4.538   6.661 -0.7631 -1.0745  1.2882
  185MOL0     H24970  -0.930   4.471   6.504 -0.7652 -0.2186  0.9357
  185MOL0     H24971  -0.870   4.131   6.759  3.8102 -1.0809  0.3791
  185MOL0     H24972  -0.313   4.769   6.924  0.1810  1.5672 -0.5127
  185MOL0     H24973  -0.126   4.937   7.007  1.5332  0.4510 -0.5363
  185MOL0     H24974  -0.074   4.773   7.041 -1.2876 -0.0834 -0.6890
  185MOL0     H24975   0.035   4.899   6.962 -1.0111  4.4239  0.1821
  186MOL0     O24976   9.661  10.863   7.615 -0.0557 -0.1188 -0.0702
  186MOL0     C24977   9.612  10.774   7.544 -0.7460  0.0008 -0.5148
  186MOL0     O24978   9.687  10.694   7.469 -0.1789  0.1784 -0.1557
  186MOL0     C24979   9.811  10.743   7.415 -0.1227 -0.3097 -0.1734
  186MOL0     C24980   9.835  10.878   7.392 -0.5559 -0.5358 -0.4880
  186MOL0     C24981   9.941  10.924   7.326 -0.8878 -0.2088  0.2783
  186MOL0     C24982  10.046  10.842   7.291 -0.3766  0.8473  0.4098
  186MOL0     O24983  10.144  10.897   7.216  0.1421  0.0355 -0.0266
  186MOL0     C24984  10.277  10.838   7.217 -0.2507  0.4391 -0.1959
  186MOL0     C24985  10.387  10.940   7.183 -0.1519 -0.9110  0.5475
  186MOL0     C24986  10.369  11.003   7.040 -0.1626  0.1917 -0.6132
  186MOL0     C24987  10.485  11.098   7.026 -0.2110  0.2677  0.2998
  186MOL0     C24988  10.456  11.205   6.912 -0.0866 -1.3126 -0.3318
  186MOL0     C24989  10.473  11.156   6.774 -0.6709  0.4527 -0.6273
  186MOL0     C24990  10.451  11.267   6.677  0.2267 -0.8429 -0.6890
  186MOL0     C24991  10.461  11.217   6.532 -0.6803 -0.0821  0.5066
  186MOL0     N24992  10.603  11.209   6.485  0.2209  0.1713  0.7795
  186MOL0     C24993  10.683  11.101   6.497 -0.1411  1.0837 -0.4211
  186MOL0     C24994  10.785  11.116   6.407 -0.3297 -0.2109 -0.6957
  186MOL0     C24995  10.889  11.010   6.381 -0.2606  0.1969 -0.6572
  186MOL0     C24996  11.031  11.045   6.438 -0.2514  0.3812 -0.2164
  186MOL0     C24997  11.042  11.002   6.589 -0.9304  0.3918  0.5257
  186MOL0     C24998  11.190  10.967   6.629  0.4528  0.0111  0.2083
  186MOL0     O24999  11.266  11.085   6.634  0.0805 -0.1017 -0.5411
  186MOL0     C25000  11.402  11.076   6.681  0.4135 -0.6302 -0.0149
  186MOL0     C25001  11.458  11.181   6.750 -0.3875  0.2695  0.6918
  186MOL0     C25002  11.578  11.164   6.824  0.5441 -0.4449  0.0470
  186MOL0     C25003  11.654  11.047   6.802  0.2559 -0.7857 -0.4359
  186MOL0     C25004  11.788  11.031   6.869  0.4076 -0.5107  0.4423
  186MOL0     O25005  11.830  11.114   6.969 -0.2989  0.7142 -0.2237
  186MOL0     C25006  11.957  11.111   7.013 -0.3661  0.3725  0.0841
  186MOL0     C25007  12.074  11.100   6.937 -0.4100  0.6425 -0.2022
  186MOL0     C25008  12.199  11.099   6.999 -0.1411 -0.5414  0.2077
  186MOL0     C25009  12.200  11.100   7.137 -0.2152  0.2222 -0.1416
  186MOL0     O25010  12.327  11.092   7.183 -0.2071 -0.6973  0.6713
  186MOL0     C25011  12.366  11.124   7.318  0.2197 -0.1406 -1.0569
  186MOL0     C25012  12.515  11.116   7.333 -0.3355  0.8339  0.3561
  186MOL0     C25013  12.553  11.126   7.488 -0.2580  0.4088  0.2498
  186MOL0     C25014  12.699  11.135   7.518 -0.2896 -0.1001  0.0774
  186MOL0     C25015  12.779  11.004   7.506 -0.4052 -0.7285 -0.3411
  186MOL0     C25016  12.921  11.026   7.465 -0.4251  0.1325 -0.1177
  186MOL0     C25017  12.995  10.883   7.451  0.0560 -0.3657  0.3707
  186MOL0     C25018  13.149  10.892   7.424 -0.0102  0.0676 -0.6949
  186MOL0    Cl25019  13.195  11.011   7.300  0.1329 -0.2520  0.2389
  186MOL0     C25020  12.090  11.124   7.213  1.2206 -0.2814 -0.1890
  186MOL0     C25021  11.968  11.137   7.151 -0.2924  0.4728  0.4530
  186MOL0     O25022  11.855  10.938   6.825 -0.8453 -0.0592 -0.5127
  186MOL0     C25023  11.607  10.950   6.719 -0.1997  0.2651 -0.3764
  186MOL0     C25024  11.480  10.960   6.666 -0.4075  0.3269  0.1910
  186MOL0     N25025  10.756  11.229   6.333 -0.4103 -0.0597  0.3836
  186MOL0     N25026  10.646  11.279   6.379  0.2194  0.1455 -0.0722
  186MOL0     C25027  10.034  10.706   7.314  0.3753  0.4612  0.3113
  186MOL0     C25028   9.913  10.660   7.375 -0.3657  0.1554  0.6933
  186MOL0     C25029   9.481  10.728   7.574  0.4155 -0.1830  0.2028
  186MOL0     C25030   9.448  10.589   7.553  1.0798  0.2638 -0.8282
  186MOL0     C25031   9.322  10.548   7.599 -0.5181  0.5107 -0.6073
  186MOL0     C25032   9.230  10.621   7.665 -0.1697  0.6111 -0.2351
  186MOL0     O25033   9.109  10.581   7.712  0.5629 -0.5103  0.2932
  186MOL0     C25034   9.095  10.442   7.720  0.1372 -0.2273  0.4009
  186MOL0     C25035   8.972  10.415   7.814 -0.1474  0.2553 -0.5151
  186MOL0     C25036   8.995  10.455   7.965 -0.5622 -0.0416 -0.5645
  186MOL0     C25037   8.867  10.492   8.042 -0.8006  1.0500 -0.5644
  186MOL0     C25038   8.768  10.375   8.037  0.2202 -0.5436  0.0230
  186MOL0     C25039   8.706  10.272   8.036  0.2546  0.3544 -0.3472
  186MOL0     C25040   9.265  10.753   7.670  0.8152 -0.2168  0.2893
  186MOL0     C25041   9.377  10.813   7.628 -1.0713 -0.0890 -0.6870
  186MOL0     C25042   9.390  10.961   7.627 -0.3913 -0.4988 -0.3249
  186MOL0     H25043   9.773  10.959   7.430  1.7864  0.8306  0.6192
  186MOL0     H25044   9.951  11.031   7.311  1.1833 -0.2816  0.7827
  186MOL0     H25045  10.301  10.802   7.318 -1.6373 -0.7820 -0.2650
  186MOL0     H25046  10.268  10.745   7.161 -0.2938  0.3278 -0.0086
  186MOL0     H25047  10.478  10.880   7.175  0.0898 -0.6088  0.9735
  186MOL0     H25048  10.398  11.006   7.269  2.3100  1.1614 -1.2135
  186MOL0     H25049  10.274  11.055   7.044 -0.2811 -0.1004  1.5386
  186MOL0     H25050  10.367  10.928   6.960  0.7552  0.8062 -1.2280
  186MOL0     H25051  10.505  11.155   7.118  1.1688 -0.3480  0.3966
  186MOL0     H25052  10.580  11.049   7.005  0.4838  0.5076  2.6100
  186MOL0     H25053  10.360  11.257   6.925  0.0482 -0.8324 -1.2427
  186MOL0     H25054  10.517  11.294   6.924  0.3866 -1.5611 -0.8989
  186MOL0     H25055  10.577  11.124   6.770 -1.4627 -2.3482 -0.6968
  186MOL0     H25056  10.409  11.068   6.759  1.2957 -1.7579  2.7792
  186MOL0     H25057  10.519  11.349   6.703  0.5723 -1.0313 -0.9975
  186MOL0     H25058  10.343  11.280   6.685 -0.3717 -5.3057  2.2728
  186MOL0     H25059  10.405  11.124   6.521 -0.2858 -0.4418  1.4368
  186MOL0     H25060  10.409  11.279   6.459 -0.5196 -0.9930 -0.4162
  186MOL0     H25061  10.671  11.015   6.562  3.3734  2.1254  1.9436
  186MOL0     H25062  10.860  10.912   6.420  2.0626 -0.0560  0.6164
  186MOL0     H25063  10.886  11.012   6.272 -1.9740  0.4977 -0.6390
  186MOL0     H25064  11.109  10.991   6.383 -0.9620 -0.2716 -0.5986
  186MOL0     H25065  11.052  11.152   6.437  1.7530  0.0295 -1.1671
  186MOL0     H25066  10.997  10.904   6.605 -2.3179  1.1743  1.8075
  186MOL0     H25067  10.994  11.077   6.654  1.4011  2.0258  0.4999
  186MOL0     H25068  11.235  10.900   6.556 -1.5098  1.7377 -2.8394
  186MOL0     H25069  11.189  10.920   6.727 -0.1679 -1.5879 -0.5396
  186MOL0     H25070  11.397  11.271   6.751  0.8097  1.1152  0.3723
  186MOL0     H25071  11.614  11.239   6.895 -0.6264  0.5837 -0.4164
  186MOL0     H25072  12.078  11.085   6.830  0.8205 -0.3502 -0.0429
  186MOL0     H25073  12.291  11.091   6.942  0.2023 -0.5612  0.7511
  186MOL0     H25074  12.322  11.215   7.360  0.0104 -0.5669 -0.3338
  186MOL0     H25075  12.327  11.042   7.380 -0.5922 -0.3433 -1.8105
  186MOL0     H25076  12.560  11.024   7.295  0.0390  0.5745  1.3957
  186MOL0     H25077  12.555  11.199   7.274 -1.4250  1.2248  0.1369
  186MOL0     H25078  12.507  11.217   7.529 -1.8495 -0.0770 -0.3861
  186MOL0     H25079  12.511  11.042   7.544  0.9747 -0.8425 -0.6461
  186MOL0     H25080  12.703  11.191   7.613  0.5026  1.0952 -0.6327
  186MOL0     H25081  12.740  11.207   7.447  0.6837 -0.4272  0.2900
  186MOL0     H25082  12.735  10.947   7.424 -3.6643 -1.1971  1.5754
  186MOL0     H25083  12.770  10.947   7.600 -0.5514 -1.2131 -0.6440
  186MOL0     H25084  12.916  11.069   7.364  1.1789  0.0317 -0.2736
  186MOL0     H25085  12.987  11.093   7.521  2.7351 -0.0840 -3.2381
  186MOL0     H25086  12.949  10.826   7.370  4.4457  0.8696 -3.4095
  186MOL0     H25087  12.961  10.830   7.541 -3.2166  2.4821  1.0121
  186MOL0     H25088  13.216  10.909   7.508  0.2596  0.6686 -1.0218
  186MOL0     H25089  13.185  10.801   7.376 -1.6409 -1.4942  0.9151
  186MOL0     H25090  12.103  11.135   7.320 -0.7318  1.0467 -0.0234
  186MOL0     H25091  11.880  11.157   7.211  0.0458  2.9835  0.2423
  186MOL0     H25092  11.664  10.858   6.711  3.1651  1.8625  2.3713
  186MOL0     H25093  11.435  10.876   6.614  1.5030  0.3238 -1.5667
  186MOL0     H25094  10.105  10.626   7.299  0.1850 -0.1697  2.3783
  186MOL0     H25095   9.909  10.553   7.394  0.9114  0.4027  2.6363
  186MOL0     H25096   9.520  10.514   7.522 -0.2481 -2.4677  2.0895
  186MOL0     H25097   9.293  10.444   7.590  0.0045  0.0542  2.0506
  186MOL0     H25098   9.180  10.398   7.772  1.8969 -0.6794 -2.6151
  186MOL0     H25099   9.078  10.394   7.623  0.8647 -1.4221  0.8523
  186MOL0     H25100   8.944  10.310   7.811  1.7335 -0.2679 -0.8736
  186MOL0     H25101   8.888  10.469   7.769  1.1823  2.0632 -0.9418
  186MOL0     H25102   9.065  10.538   7.976 -0.7239 -0.2407  3.3491
  186MOL0     H25103   9.040  10.371   8.018  1.9953  1.9596  0.6774
  186MOL0     H25104   8.897  10.510   8.145  1.4460  1.1211 -1.1865
  186MOL0     H25105   8.821  10.584   8.002 -0.7738 -0.1251 -3.5705
  186MOL0     H25106   8.640  10.188   8.029  1.7217 -0.8432 -0.1895
  186MOL0     H25107   9.190  10.815   7.719 -0.6796 -2.2093  0.6494
  186MOL0     H25108   9.421  10.993   7.527  1.6248  0.2014  0.4781
  186MOL0     H25109   9.300  11.014   7.661 -0.3275 -0.0700 -0.8128
  186MOL0     H25110   9.471  10.995   7.692  0.2340 -1.0651 -0.7926
  187MOL0     O25111   0.270   5.291   9.472 -0.6613  0.3674 -0.1189
  187MOL0     C25112   0.199   5.383   9.524 -0.2594  0.8634 -0.0386
  187MOL0     O25113   0.164   5.493   9.461 -0.0598 -0.3070 -0.1167
  187MOL0     C25114   0.195   5.508   9.328  0.2392  0.0500  0.4313
  187MOL0     C25115   0.328   5.531   9.289 -0.4244  1.3740 -1.0415
  187MOL0     C25116   0.351   5.568   9.160 -0.4798 -0.0243  0.4733
  187MOL0     C25117   0.246   5.606   9.070 -0.8104  0.3004  0.1154
  187MOL0     O25118   0.265   5.648   8.938  0.2245  0.4071  0.2316
  187MOL0     C25119   0.387   5.617   8.869  0.6931  0.6601 -0.2713
  187MOL0     C25120   0.375   5.656   8.728 -0.4312  0.2221 -0.5008
  187MOL0     C25121   0.250   5.607   8.662 -0.4912 -0.3717  0.2426
  187MOL0     C25122   0.223   5.463   8.684  0.3695  0.6110 -0.2645
  187MOL0     C25123   0.129   5.405   8.577  0.3079 -0.4563 -0.7080
  187MOL0     C25124   0.108   5.250   8.594  0.4191 -0.0991  0.2737
  187MOL0     C25125   0.001   5.203   8.493  0.8734 -0.4879  0.1559
  187MOL0     C25126   0.049   5.210   8.353 -0.4111 -0.7338 -0.2865
  187MOL0     N25127   0.180   5.158   8.305 -0.2527 -0.4531 -0.7244
  187MOL0     C25128   0.231   5.036   8.329  0.5545 -0.4494 -0.0592
  187MOL0     C25129   0.332   5.029   8.243 -0.5110 -0.0541  0.0087
  187MOL0     C25130   0.427   4.910   8.219 -0.1965  0.4362 -0.1106
  187MOL0     C25131   0.559   4.946   8.285 -0.1014  0.9023 -0.0097
  187MOL0     C25132   0.658   4.826   8.281  0.7494  0.1273  0.7486
  187MOL0     C25133   0.789   4.857   8.332 -0.2671 -0.2522 -0.5409
  187MOL0     O25134   0.857   4.965   8.273  0.5461  0.6906  0.4326
  187MOL0     C25135   0.996   4.958   8.265 -0.5401 -1.1789 -0.1701
  187MOL0     C25136   1.075   4.919   8.368 -0.0425  0.4389 -0.7974
  187MOL0     C25137   1.212   4.927   8.364  0.5178  0.0528 -0.0514
  187MOL0     C25138   1.269   4.967   8.248  0.3437  1.0483  0.0380
  187MOL0     C25139   1.418   4.970   8.234 -0.1986  0.8783  0.1560
  187MOL0     O25140   1.496   4.944   8.346 -0.1780 -1.2797  0.0222
  187MOL0     C25141   1.630   4.951   8.330  0.0066 -0.1113  1.0050
  187MOL0     C25142   1.694   4.855   8.246  0.2343 -0.2378 -0.7960
  187MOL0     C25143   1.836   4.860   8.254  0.1011 -0.6385 -0.3679
  187MOL0     C25144   1.908   4.962   8.325  0.6116  0.1760  0.1102
  187MOL0     O25145   2.048   4.957   8.335  0.3208 -0.7909 -0.6357
  187MOL0     C25146   2.115   5.053   8.415  0.6371 -0.2008  0.5478
  187MOL0     C25147   2.265   5.039   8.417  0.5519  0.5734 -0.4868
  187MOL0     C25148   2.312   4.935   8.525 -0.5015 -0.3060  0.7428
  187MOL0     C25149   2.460   4.940   8.544 -0.1338 -0.1163  0.1382
  187MOL0     C25150   2.526   4.829   8.622  0.4026  0.4960  0.1509
  187MOL0     C25151   2.542   4.694   8.545  1.9835 -0.5804  0.3109
  187MOL0     C25152   2.590   4.586   8.651 -0.1656  0.3296  1.5424
  187MOL0     C25153   2.741   4.570   8.633 -0.5944 -0.2080 -0.0836
  187MOL0    Cl25154   2.794   4.449   8.750  0.3296  0.2312 -0.2108
  187MOL0     C25155   1.836   5.047   8.409  0.2246  0.7190 -0.0464
  187MOL0     C25156   1.696   5.048   8.406 -0.1413 -0.5350 -0.0143
  187MOL0     O25157   1.457   4.992   8.122  0.3531  0.3986  0.6719
  187MOL0     C25158   1.195   5.014   8.141  0.0833 -0.1977  0.7958
  187MOL0     C25159   1.058   5.012   8.147  0.1792 -0.3435  0.1995
  187MOL0     N25160   0.343   5.148   8.177  0.3853  0.0225  0.2361
  187MOL0     N25161   0.252   5.230   8.218  0.5086 -0.3829  0.1829
  187MOL0     C25162   0.109   5.582   9.108 -0.0900 -0.4365  0.1912
  187MOL0     C25163   0.084   5.534   9.239 -1.4532 -0.1986 -0.0843
  187MOL0     C25164   0.166   5.374   9.670 -0.7678 -0.1662  0.2483
  187MOL0     C25165   0.265   5.315   9.746 -1.2360 -0.2814 -0.4545
  187MOL0     C25166   0.264   5.304   9.875  0.3765  0.2732  0.1361
  187MOL0     C25167   0.153   5.358   9.943  0.1278  0.2749  0.5732
  187MOL0     O25168   0.152   5.344  10.078 -0.2122  0.5994  0.2072
  187MOL0     C25169   0.094   5.461  10.142 -0.4462  2.1264 -0.6284
  187MOL0     C25170   0.155   5.479  10.274 -0.0859 -0.8731  0.4194
  187MOL0     C25171   0.280   5.571  10.269  0.8903  0.5637  0.2743
  187MOL0     C25172   0.257   5.708  10.331 -0.3079 -0.4118  0.5037
  187MOL0     C25173   0.171   5.803  10.253 -0.7021  0.0407 -0.5397
  187MOL0     C25174   0.106   5.879  10.189  0.5591  0.7821  1.0871
  187MOL0     C25175   0.045   5.409   9.868 -0.1136  0.4191 -0.3150
  187MOL0     C25176   0.049   5.411   9.730  0.1589 -0.1424 -0.6390
  187MOL0     C25177  -0.080   5.446   9.652  0.1747  0.1166 -0.4253
  187MOL0     H25178   0.412   5.515   9.355  0.4399 -1.2081 -2.6245
  187MOL0     H25179   0.452   5.596   9.131  0.4612 -0.2818  3.2219
  187MOL0     H25180   0.467   5.681   8.909  1.5086 -0.3195 -0.3165
  187MOL0     H25181   0.418   5.513   8.879 -1.2444  0.1450  1.1092
  187MOL0     H25182   0.460   5.600   8.688 -0.0987  0.6838 -0.4577
  187MOL0     H25183   0.391   5.764   8.717 -0.4845  0.6753  2.8520
  187MOL0     H25184   0.260   5.628   8.555 -1.5728  1.8736  0.5174
  187MOL0     H25185   0.168   5.670   8.698  0.6997  1.1295  0.4484
  187MOL0     H25186   0.319   5.411   8.683  2.2387  3.6194  2.9167
  187MOL0     H25187   0.182   5.450   8.785 -2.8018 -4.4401 -1.7882
  187MOL0     H25188   0.041   5.469   8.590  0.8595  0.4216 -1.1936
  187MOL0     H25189   0.163   5.420   8.475 -0.3518  0.0526 -0.8582
  187MOL0     H25190   0.199   5.200   8.560  1.2656  1.9738 -0.6386
  187MOL0     H25191   0.082   5.227   8.698 -1.1093  2.7503  0.6255
  187MOL0     H25192  -0.086   5.268   8.509 -0.0830 -1.6162 -0.3359
  187MOL0     H25193  -0.030   5.100   8.509  2.4168 -1.0164 -0.0926
  187MOL0     H25194  -0.026   5.149   8.302 -0.5299 -1.2417  0.4703
  187MOL0     H25195   0.036   5.313   8.318  1.8452  0.7630  2.7801
  187MOL0     H25196   0.181   4.955   8.381 -0.1907 -0.4450 -0.7523
  187MOL0     H25197   0.384   4.816   8.254 -1.6566  0.9406 -0.4819
  187MOL0     H25198   0.439   4.908   8.110 -0.5377 -0.2101 -0.1460
  187MOL0     H25199   0.609   5.026   8.231 -1.6818  0.3316 -2.4870
  187MOL0     H25200   0.535   4.970   8.389  2.1185 -0.3122  0.8487
  187MOL0     H25201   0.669   4.781   8.182  0.7295 -2.3328  1.7849
  187MOL0     H25202   0.626   4.744   8.347  0.5987 -0.2474  0.2127
  187MOL0     H25203   0.850   4.766   8.343 -0.0026  0.0262  0.4376
  187MOL0     H25204   0.772   4.884   8.437 -0.6138 -0.4204 -0.5513
  187MOL0     H25205   1.030   4.883   8.460  0.0997  1.1752 -0.4378
  187MOL0     H25206   1.278   4.901   8.446 -2.6795  0.6467  2.9498
  187MOL0     H25207   1.629   4.780   8.201 -0.7740  1.1450 -1.7513
  187MOL0     H25208   1.891   4.777   8.210  0.0868 -1.3300  0.8684
  187MOL0     H25209   2.083   5.151   8.377  1.9061  0.6284  1.5043
  187MOL0     H25210   2.079   5.049   8.518 -3.0945 -0.5712 -0.6101
  187MOL0     H25211   2.308   4.999   8.324  0.3406 -1.5627  0.2896
  187MOL0     H25212   2.311   5.136   8.443  0.8465  0.2148  0.3679
  187MOL0     H25213   2.258   4.939   8.620  0.3733 -2.7082  1.4254
  187MOL0     H25214   2.285   4.836   8.488 -0.9246 -0.1187  0.5445
  187MOL0     H25215   2.468   5.033   8.601 -0.1543 -1.2554  2.1157
  187MOL0     H25216   2.508   4.960   8.448 -1.5362  1.2967 -0.2991
  187MOL0     H25217   2.472   4.807   8.714  0.0826  1.3451  0.1682
  187MOL0     H25218   2.627   4.858   8.654  0.0575 -0.5020  2.3336
  187MOL0     H25219   2.444   4.653   8.521  0.8005  1.5451  1.2381
  187MOL0     H25220   2.607   4.714   8.459  1.9811  2.1032  0.8514
  187MOL0     H25221   2.535   4.493   8.636 -1.2974  1.2525 -0.4891
  187MOL0     H25222   2.557   4.616   8.751 -4.2612 -0.2647  0.5395
  187MOL0     H25223   2.760   4.533   8.531  1.7601 -0.2453  0.3022
  187MOL0     H25224   2.796   4.662   8.654 -0.2054 -0.3551 -0.4311
  187MOL0     H25225   1.894   5.125   8.458  0.9872  0.0031  0.2192
  187MOL0     H25226   1.631   5.120   8.454  1.6944  0.2285  1.4916
  187MOL0     H25227   1.239   5.060   8.053 -1.5330  0.1867  0.1603
  187MOL0     H25228   0.991   5.051   8.072 -0.1082 -1.8208 -0.3396
  187MOL0     H25229   0.045   5.618   9.027  1.9058  2.2828 -0.3561
  187MOL0     H25230  -0.017   5.518   9.273 -2.2024  0.4818 -1.8669
  187MOL0     H25231   0.360   5.300   9.696  0.1004  1.6473  1.3435
  187MOL0     H25232   0.348   5.275   9.938 -0.6127  0.3245  1.5141
  187MOL0     H25233  -0.010   5.434  10.163  0.7444 -1.9030  0.9325
  187MOL0     H25234   0.096   5.553  10.083  3.4583  1.5010 -1.7120
  187MOL0     H25235   0.190   5.385  10.317  1.2152  0.3956  2.2643
  187MOL0     H25236   0.077   5.521  10.338 -1.4849 -0.2649 -1.5779
  187MOL0     H25237   0.312   5.592  10.167 -1.7615 -0.3292 -0.8294
  187MOL0     H25238   0.368   5.533  10.322 -0.8224 -0.9457  2.2532
  187MOL0     H25239   0.213   5.698  10.431 -1.9056 -1.0715 -0.2380
  187MOL0     H25240   0.356   5.754  10.334  0.1937 -1.4498  0.3466
  187MOL0     H25241   0.053   5.952  10.132  1.5206  0.9873  0.4271
  187MOL0     H25242  -0.043   5.447   9.919  0.6545  1.7595  0.0412
  187MOL0     H25243  -0.158   5.471   9.725  0.5520 -0.5480  0.2199
  187MOL0     H25244  -0.049   5.522   9.580  3.3083 -0.2214  0.4346
  187MOL0     H25245  -0.106   5.357   9.594  1.5487 -1.5162  1.3423
  188MOL0     O25246   6.862   5.710  10.257 -0.2350 -0.4877 -0.0142
  188MOL0     C25247   6.754   5.724  10.324  0.1874  1.2254 -0.5905
  188MOL0     O25248   6.697   5.834  10.373  0.4056  0.2340  0.4953
  188MOL0     C25249   6.766   5.950  10.376 -0.0514 -0.9332 -0.3725
  188MOL0     C25250   6.891   5.969  10.428  0.5752  0.8179  0.5262
  188MOL0     C25251   6.940   6.099  10.426 -0.0692 -0.3944  0.5694
  188MOL0     C25252   6.871   6.205  10.377  1.0988  0.4574  0.5358
  188MOL0     O25253   6.927   6.330  10.377 -0.3887 -0.1163  0.2511
  188MOL0     C25254   6.938   6.395  10.246  0.0603 -0.3685  0.0206
  188MOL0     C25255   6.970   6.540  10.268  0.9651 -0.0501  0.6115
  188MOL0     C25256   7.114   6.563  10.306 -0.0876 -0.0043  0.5695
  188MOL0     C25257   7.105   6.704  10.360 -0.2317  0.0823 -0.0630
  188MOL0     C25258   7.232   6.780  10.383  1.0072  1.1028 -0.5857
  188MOL0     C25259   7.193   6.906  10.477 -0.4047  0.8226  0.6535
  188MOL0     C25260   7.322   6.996  10.490  0.1732 -0.1152  0.7861
  188MOL0     C25261   7.387   6.977  10.626  0.7525  0.2209 -0.1545
  188MOL0     N25262   7.480   7.082  10.658 -0.0444 -0.2090  0.6119
  188MOL0     C25263   7.442   7.190  10.734 -0.5793  0.1673  0.1259
  188MOL0     C25264   7.545   7.280  10.726  0.6955  0.3151 -0.5393
  188MOL0     C25265   7.534   7.416  10.786  0.3082  0.4357 -0.0183
  188MOL0     C25266   7.663   7.488  10.811  0.6213 -0.4498  0.5055
  188MOL0     C25267   7.756   7.422  10.905 -1.2267 -0.2346 -0.3149
  188MOL0     C25268   7.890   7.485  10.925  0.3561 -0.1575 -0.0961
  188MOL0     O25269   7.972   7.470  10.807 -0.4320  0.2967  0.1481
  188MOL0     C25270   8.088   7.540  10.794 -0.4636  1.1738  0.3155
  188MOL0     C25271   8.156   7.558  10.676  0.0116 -0.2523 -0.3338
  188MOL0     C25272   8.277   7.623  10.661 -0.1056  0.1220  1.4495
  188MOL0     C25273   8.349   7.666  10.780 -0.1352  1.2704 -0.3143
  188MOL0     C25274   8.479   7.731  10.778  0.7764  0.1881 -0.1015
  188MOL0     O25275   8.533   7.779  10.895 -0.0848  0.0728  0.1168
  188MOL0     C25276   8.668   7.805  10.895  0.1540  0.0944 -0.8071
  188MOL0     C25277   8.742   7.687  10.925  0.2609  0.0794  0.3233
  188MOL0     C25278   8.879   7.702  10.940 -0.5683  0.2610 -0.4069
  188MOL0     C25279   8.946   7.822  10.919  1.0028 -1.0014 -0.1741
  188MOL0     O25280   9.079   7.822  10.931  0.3986  1.0612 -0.4134
  188MOL0     C25281   9.152   7.930  10.872  0.9416  0.9758  0.0448
  188MOL0     C25282   9.149   7.940  10.720  0.2524 -0.7414 -0.7883
  188MOL0     C25283   9.297   7.936  10.670 -0.4899  0.3482  0.2634
  188MOL0     C25284   9.314   7.925  10.524  0.9902 -0.2739  0.0123
  188MOL0     C25285   9.448   7.878  10.463  0.3015 -0.1105  0.0820
  188MOL0     C25286   9.569   7.969  10.501  0.1378 -0.9763 -0.6111
  188MOL0     C25287   9.562   8.109  10.441  0.6832 -0.3580 -0.3594
  188MOL0     C25288   9.693   8.184  10.451  0.0338 -0.1327  0.1420
  188MOL0    Cl25289   9.724   8.238  10.617  0.3484 -0.4756  0.0543
  188MOL0     C25290   8.869   7.937  10.892 -1.1792 -0.5208 -0.2956
  188MOL0     C25291   8.732   7.923  10.868 -1.2298 -0.4052 -0.0972
  188MOL0     O25292   8.534   7.746  10.667  0.2788  1.0923 -0.6045
  188MOL0     C25293   8.283   7.639  10.900  0.1739  0.2944 -0.8482
  188MOL0     C25294   8.160   7.572  10.906  0.4465 -1.2450  0.4169
  188MOL0     N25295   7.645   7.219  10.671 -1.1097  0.2185  0.4341
  188MOL0     N25296   7.610   7.103  10.623  0.4753 -0.8274 -0.3443
  188MOL0     C25297   6.739   6.187  10.331 -0.2344 -0.2531 -0.3366
  188MOL0     C25298   6.685   6.056  10.329  0.1580  0.9494  0.1250
  188MOL0     C25299   6.685   5.595  10.367 -0.7840  0.1879 -0.6308
  188MOL0     C25300   6.655   5.567  10.508 -0.3671  0.2028  1.1274
  188MOL0     C25301   6.606   5.443  10.549  0.2703 -0.0117 -0.0128
  188MOL0     C25302   6.549   5.362  10.454  0.1802  0.9317  0.5493
  188MOL0     O25303   6.485   5.254  10.509  0.3057  0.1472 -0.5596
  188MOL0     C25304   6.390   5.176  10.437  0.0293 -0.5097 -0.1633
  188MOL0     C25305   6.296   5.118  10.532 -0.5358 -0.3967 -0.3971
  188MOL0     C25306   6.224   4.998  10.479  0.8358 -1.2786  0.0654
  188MOL0     C25307   6.108   5.039  10.385  0.2833 -0.2497  0.8470
  188MOL0     C25308   6.057   4.923  10.308  0.1107 -0.6180  0.2417
  188MOL0     C25309   6.017   4.829  10.243  1.6367 -0.2642  0.1246
  188MOL0     C25310   6.574   5.377  10.317  0.3375 -0.6558  0.4653
  188MOL0     C25311   6.651   5.487  10.273 -0.1024 -0.1542 -0.2589
  188MOL0     C25312   6.670   5.498  10.123  0.0268  0.0443  0.2358
  188MOL0     H25313   6.948   5.888  10.472 -0.9679 -0.1990  0.7348
  188MOL0     H25314   7.040   6.114  10.464  0.1331  1.9094 -0.7118
  188MOL0     H25315   7.022   6.356  10.187  0.3031 -1.1061  0.8373
  188MOL0     H25316   6.845   6.382  10.191  0.4266 -1.1157 -0.4410
  188MOL0     H25317   6.894   6.582  10.333 -0.8790  1.3314 -2.2401
  188MOL0     H25318   6.953   6.588  10.170 -0.3400  0.5023  1.0863
  188MOL0     H25319   7.167   6.545  10.212 -0.3266  0.7595  0.2800
  188MOL0     H25320   7.156   6.490  10.376 -4.1318  0.6679  4.1143
  188MOL0     H25321   7.038   6.764  10.297 -2.4462 -1.2371  0.9440
  188MOL0     H25322   7.053   6.693  10.455  0.2456 -0.7751  0.1106
  188MOL0     H25323   7.314   6.723  10.429  0.9679  0.5569 -1.1808
  188MOL0     H25324   7.269   6.812  10.285  0.0835 -0.6700 -1.5674
  188MOL0     H25325   7.113   6.945  10.414  1.1236 -1.1951 -2.8402
  188MOL0     H25326   7.150   6.875  10.573  1.0262  1.0951  1.4140
  188MOL0     H25327   7.298   7.102  10.478  4.1374  0.7687 -0.8907
  188MOL0     H25328   7.382   6.962  10.405 -1.7595 -0.4985 -0.4766
  188MOL0     H25329   7.313   6.980  10.706  1.5968 -2.0633  0.8072
  188MOL0     H25330   7.430   6.877  10.615 -2.6689 -1.1419 -2.7033
  188MOL0     H25331   7.345   7.217  10.774  0.6616  3.6628  1.1581
  188MOL0     H25332   7.475   7.479  10.719  0.8113 -0.1765 -1.0498
  188MOL0     H25333   7.481   7.416  10.882  0.4293  0.3750  0.0497
  188MOL0     H25334   7.712   7.506  10.715 -0.3245 -0.2984  0.0434
  188MOL0     H25335   7.644   7.590  10.848  0.9890 -0.0910 -0.2752
  188MOL0     H25336   7.778   7.322  10.867  1.3218  0.2057 -0.1855
  188MOL0     H25337   7.704   7.416  11.001  0.4949  1.9287  0.8567
  188MOL0     H25338   7.942   7.427  11.002 -1.2815 -1.5602  0.0015
  188MOL0     H25339   7.877   7.583  10.974  0.4484 -0.7752  1.2123
  188MOL0     H25340   8.106   7.547  10.580  0.1427  1.0905 -0.5750
  188MOL0     H25341   8.303   7.645  10.558 -1.3513 -0.1485  1.0540
  188MOL0     H25342   8.698   7.588  10.934  1.3806 -0.6787 -1.9246
  188MOL0     H25343   8.940   7.614  10.955 -2.2243 -1.3492 -2.5479
  188MOL0     H25344   9.113   8.023  10.916 -3.5357 -1.5727  2.1471
  188MOL0     H25345   9.253   7.904  10.905  0.0698  0.7759  2.7612
  188MOL0     H25346   9.097   7.855  10.674 -1.7980  0.4475 -0.7701
  188MOL0     H25347   9.110   8.039  10.696  0.8800  0.8582  3.8696
  188MOL0     H25348   9.366   8.012  10.708 -0.1827  0.8860 -1.3065
  188MOL0     H25349   9.330   7.839  10.708  0.0384 -0.5898 -2.3925
  188MOL0     H25350   9.295   8.024  10.482  2.7317 -0.7802 -2.0999
  188MOL0     H25351   9.240   7.855  10.484  1.1060 -0.0982 -0.5025
  188MOL0     H25352   9.436   7.888  10.355 -1.7173  0.9207  0.3454
  188MOL0     H25353   9.466   7.774  10.495 -0.5859 -0.0870  0.7119
  188MOL0     H25354   9.575   7.981  10.609 -0.1320  0.5952 -0.7439
  188MOL0     H25355   9.663   7.927  10.465  0.1080 -0.0443 -1.8443
  188MOL0     H25356   9.487   8.166  10.495 -1.6931 -0.2262 -3.5511
  188MOL0     H25357   9.535   8.116  10.335 -1.7680 -0.2897  0.2214
  188MOL0     H25358   9.774   8.116  10.421 -2.0917 -3.2542  0.9995
  188MOL0     H25359   9.680   8.269  10.383 -1.2435 -1.4505 -1.3560
  188MOL0     H25360   8.904   8.040  10.890 -0.4693 -0.7241  0.5210
  188MOL0     H25361   8.674   8.009  10.836 -0.5162  0.4790  0.9182
  188MOL0     H25362   8.319   7.670  10.997  1.3728  2.4531 -1.9138
  188MOL0     H25363   8.121   7.543  11.004 -0.3535 -0.8973  0.2055
  188MOL0     H25364   6.675   6.272  10.310 -2.5163 -0.9647  2.9266
  188MOL0     H25365   6.582   6.042  10.299 -0.7758  0.0316  3.3694
  188MOL0     H25366   6.668   5.645  10.583  0.2322  0.5695  0.6570
  188MOL0     H25367   6.590   5.430  10.655 -2.6671  1.6767 -0.1557
  188MOL0     H25368   6.449   5.096  10.391  2.3340 -1.9362  4.5851
  188MOL0     H25369   6.327   5.238  10.373 -0.5192 -0.1112  0.7499
  188MOL0     H25370   6.224   5.187  10.577 -1.4564 -0.9994 -0.8955
  188MOL0     H25371   6.356   5.076  10.613 -0.8773 -1.8329 -0.8408
  188MOL0     H25372   6.183   4.956  10.572 -1.3675  1.6783  0.5747
  188MOL0     H25373   6.287   4.927  10.425  2.4842  1.3795 -1.6825
  188MOL0     H25374   6.026   5.080  10.444 -0.3207  1.5821 -1.1651
  188MOL0     H25375   6.131   5.119  10.315 -1.6362 -0.7610 -0.4509
  188MOL0     H25376   5.978   4.739  10.201 -0.1055 -0.6392  2.3408
  188MOL0     H25377   6.533   5.312  10.241  2.6485  0.2494 -1.7059
  188MOL0     H25378   6.601   5.576  10.091  1.1954  1.6133  1.3663
  188MOL0     H25379   6.774   5.521  10.098 -0.5774  0.8479 -1.6780
  188MOL0     H25380   6.646   5.405  10.070  1.3963  0.2621 -0.8332
  189MOL0     O25381   9.653   1.579   9.936  0.0340  0.5023  0.5972
  189MOL0     C25382   9.583   1.480   9.917  0.1393 -0.4868 -0.7463
  189MOL0     O25383   9.618   1.367   9.846 -0.5049  0.4350 -0.1828
  189MOL0     C25384   9.750   1.346   9.820  0.5144 -0.2210 -0.6388
  189MOL0     C25385   9.809   1.227   9.858  0.3287  0.1189 -0.1278
  189MOL0     C25386   9.938   1.203   9.822  0.9682  0.6536  0.2024
  189MOL0     C25387  10.013   1.281   9.732 -0.0030  0.2118 -0.3240
  189MOL0     O25388  10.144   1.234   9.710 -0.1959 -0.0758 -0.1994
  189MOL0     C25389  10.219   1.326   9.629 -0.0601 -0.2468  0.0084
  189MOL0     C25390  10.287   1.433   9.718  0.5209  0.2271  0.1365
  189MOL0     C25391  10.394   1.380   9.823  0.9718 -0.4679  0.2711
  189MOL0     C25392  10.459   1.500   9.903  0.4926  0.0266  1.3322
  189MOL0     C25393  10.610   1.517   9.885 -0.0807 -0.2085 -0.0206
  189MOL0     C25394  10.695   1.409   9.953 -0.3869 -0.0595  0.2500
  189MOL0     C25395  10.843   1.414   9.907 -0.7999  0.4650 -0.4587
  189MOL0     C25396  10.909   1.550   9.957  0.2866  0.5808  0.4496
  189MOL0     N25397  11.060   1.556   9.939  0.4087  0.1662 -0.3231
  189MOL0     C25398  11.156   1.585  10.027  0.3617  0.4505 -0.7281
  189MOL0     C25399  11.274   1.587   9.955 -0.8984 -0.5552  0.1133
  189MOL0     C25400  11.414   1.609  10.029  0.4351  0.8734  0.4367
  189MOL0     C25401  11.427   1.756  10.089 -0.1838  0.0123 -0.0636
  189MOL0     C25402  11.420   1.867   9.977  0.7138 -0.9835 -0.4675
  189MOL0     C25403  11.540   1.955   9.973  0.1253  0.2948  0.1886
  189MOL0     O25404  11.536   2.028  10.093  0.6407  0.2292  0.2697
  189MOL0     C25405  11.647   2.035  10.175  0.0056  0.6253 -0.2134
  189MOL0     C25406  11.768   2.032  10.118 -0.5034 -0.4786 -0.0630
  189MOL0     C25407  11.885   2.057  10.197 -0.4810 -0.3159 -0.0433
  189MOL0     C25408  11.880   2.050  10.329  0.6292 -1.1020 -0.0138
  189MOL0     C25409  12.006   2.044  10.405  0.3871  0.7700  1.3789
  189MOL0     O25410  12.119   2.016  10.339 -0.2479  0.2567 -0.3394
  189MOL0     C25411  12.239   1.997  10.413  0.1030 -0.3620  0.6005
  189MOL0     C25412  12.253   1.897  10.510  0.2345  0.3044  0.1791
  189MOL0     C25413  12.373   1.872  10.574 -0.6659  0.0925 -0.1356
  189MOL0     C25414  12.487   1.955  10.551 -0.5536  0.2444 -0.2603
  189MOL0     O25415  12.611   1.907  10.602 -0.4330 -0.6683 -0.2197
  189MOL0     C25416  12.716   2.006  10.604 -0.3208 -0.0902 -0.0225
  189MOL0     C25417  12.848   1.941  10.654  0.1485  0.4520  0.7929
  189MOL0     C25418  12.968   2.037  10.638 -0.4582  0.4155  0.1144
  189MOL0     C25419  13.101   1.984  10.699  0.8996 -0.3519  0.2049
  189MOL0     C25420  13.213   2.070  10.647 -0.2039 -0.6392 -0.5002
  189MOL0     C25421  13.346   2.034  10.717 -0.1052  0.5240  0.3891
  189MOL0     C25422  13.380   2.108  10.840  0.8075  0.0021 -0.0694
  189MOL0     C25423  13.438   2.021  10.946 -0.2095 -0.7981 -0.0616
  189MOL0    Cl25424  13.584   1.953  10.868  0.2362  0.1055 -0.2312
  189MOL0     C25425  12.469   2.062  10.463  0.6540 -1.0299  0.6773
  189MOL0     C25426  12.349   2.079  10.387 -0.8890 -0.5561  0.1450
  189MOL0     O25427  11.993   2.046  10.526  0.0572 -0.0470 -0.3118
  189MOL0     C25428  11.758   2.054  10.390  0.0226  0.0804 -0.5253
  189MOL0     C25429  11.638   2.046  10.316 -1.0622  0.6839  0.3384
  189MOL0     N25430  11.240   1.595   9.818  0.2852  0.1253 -0.1281
  189MOL0     N25431  11.113   1.567   9.809 -0.2454 -0.0604  0.0043
  189MOL0     C25432   9.946   1.396   9.686 -0.2579 -0.1118 -0.3293
  189MOL0     C25433   9.818   1.419   9.725 -0.1719 -0.2597  0.3462
  189MOL0     C25434   9.449   1.460   9.988  0.1888 -0.9573  0.2258
  189MOL0     C25435   9.367   1.351   9.946  1.2960 -0.0387 -0.3963
  189MOL0     C25436   9.242   1.330  10.007 -0.2965  1.3200 -0.4101
  189MOL0     C25437   9.206   1.400  10.122 -0.1849  0.3883 -0.6033
  189MOL0     O25438   9.088   1.350  10.188 -0.0792  0.0826 -0.1002
  189MOL0     C25439   9.051   1.397  10.326 -0.3245 -0.0256  0.1821
  189MOL0     C25440   8.904   1.354  10.358 -0.7294  0.5509 -0.5450
  189MOL0     C25441   8.864   1.407  10.494  0.1210 -0.0014 -0.2725
  189MOL0     C25442   8.714   1.388  10.530 -0.1292  0.0259  0.1812
  189MOL0     C25443   8.702   1.249  10.585 -0.2117 -0.6721  0.0460
  189MOL0     C25444   8.697   1.134  10.627  0.3963  0.2283  0.9926
  189MOL0     C25445   9.279   1.521  10.150  0.6349 -0.4401  0.2051
  189MOL0     C25446   9.398   1.555  10.078  0.8736  0.5012  0.3705
  189MOL0     C25447   9.452   1.693  10.109 -0.0181  0.4437 -0.0914
  189MOL0     H25448   9.748   1.160   9.916  0.9319 -0.5574 -0.2518
  189MOL0     H25449   9.986   1.111   9.851 -2.3422 -1.7929 -1.3522
  189MOL0     H25450  10.292   1.274   9.567 -0.1424  2.3825 -2.5201
  189MOL0     H25451  10.162   1.382   9.554 -2.2273  0.2576  1.9108
  189MOL0     H25452  10.212   1.494   9.769  0.2298 -0.9471  1.1331
  189MOL0     H25453  10.334   1.507   9.652  1.0646 -0.6617 -0.4832
  189MOL0     H25454  10.481   1.343   9.768  1.1486  2.1670 -1.4127
  189MOL0     H25455  10.353   1.301   9.887 -2.8282  1.7490  0.8961
  189MOL0     H25456  10.399   1.587   9.875  0.3131 -0.0742  1.4020
  189MOL0     H25457  10.429   1.483  10.007  0.7085 -0.2416  1.3504
  189MOL0     H25458  10.638   1.531   9.780  0.1833  1.5095  0.2480
  189MOL0     H25459  10.624   1.616   9.930  4.8724 -0.3863 -0.6078
  189MOL0     H25460  10.703   1.415  10.062  2.2923 -0.8062  0.1764
  189MOL0     H25461  10.669   1.305   9.930  2.3912 -0.7543 -0.1150
  189MOL0     H25462  10.850   1.411   9.798 -1.0596 -2.0063 -0.4625
  189MOL0     H25463  10.897   1.326   9.942  2.0587  2.3206  0.0771
  189MOL0     H25464  10.877   1.626   9.884  2.8476  1.7643  0.4549
  189MOL0     H25465  10.874   1.565  10.059  0.3159 -2.1236  0.9137
  189MOL0     H25466  11.135   1.580  10.133 -1.4060 -2.3195 -1.0984
  189MOL0     H25467  11.425   1.539  10.112  0.6653  1.2778  0.7443
  189MOL0     H25468  11.492   1.580   9.958 -0.4660 -2.3630  0.6018
  189MOL0     H25469  11.347   1.779  10.160 -1.3590  1.2657 -1.7254
  189MOL0     H25470  11.523   1.756  10.142  0.3928 -5.3198 -0.5043
  189MOL0     H25471  11.334   1.932   9.996  0.6756 -0.9214 -0.8410
  189MOL0     H25472  11.408   1.814   9.882 -3.5400 -0.8077 -0.1995
  189MOL0     H25473  11.518   2.023   9.890 -1.1181 -1.2573 -0.8077
  189MOL0     H25474  11.638   1.909   9.956 -0.1124 -0.4053  0.6652
  189MOL0     H25475  11.791   2.011  10.014 -1.8806 -1.6514 -0.1563
  189MOL0     H25476  11.984   2.062  10.152 -1.4359  1.5885 -2.1791
  189MOL0     H25477  12.173   1.827  10.528 -0.1547  0.7624  0.2506
  189MOL0     H25478  12.395   1.793  10.645  1.7017  0.6243 -0.1834
  189MOL0     H25479  12.734   2.042  10.502  0.9681 -1.7237 -0.4119
  189MOL0     H25480  12.697   2.090  10.672 -0.1262 -1.3459  1.6198
  189MOL0     H25481  12.833   1.914  10.759 -1.8070  0.5896  0.5786
  189MOL0     H25482  12.871   1.847  10.602 -3.1061 -0.3514  0.6149
  189MOL0     H25483  12.984   2.066  10.534 -2.4453  1.3698  0.0219
  189MOL0     H25484  12.937   2.125  10.695 -0.1087  0.1575  0.7155
  189MOL0     H25485  13.109   1.877  10.679 -0.6257 -0.2925 -0.9435
  189MOL0     H25486  13.105   1.988  10.808  0.6717 -1.3365  0.2602
  189MOL0     H25487  13.185   2.173  10.675 -0.1374 -1.4982  3.2152
  189MOL0     H25488  13.218   2.053  10.539  0.4507 -1.6487 -0.3234
  189MOL0     H25489  13.340   1.926  10.735  0.6219  0.8370  2.8369
  189MOL0     H25490  13.422   2.035  10.638 -0.2748  0.7390  0.2294
  189MOL0     H25491  13.291   2.160  10.878  1.6064  0.7351  0.8506
  189MOL0     H25492  13.439   2.190  10.797  0.2269 -0.1921 -1.2701
  189MOL0     H25493  13.477   2.079  11.030  2.2594 -0.8640 -1.0880
  189MOL0     H25494  13.364   1.952  10.987 -3.0195  1.4121 -1.0580
  189MOL0     H25495  12.548   2.129  10.431 -1.1269  1.5782  1.4262
  189MOL0     H25496  12.344   2.155  10.309  2.3829 -1.3997 -1.0939
  189MOL0     H25497  11.743   2.038  10.496 -1.0481  2.5282 -0.2314
  189MOL0     H25498  11.543   2.045  10.368 -0.5277 -2.2615  1.5133
  189MOL0     H25499   9.992   1.463   9.613  0.0654 -1.2188 -1.1654
  189MOL0     H25500   9.751   1.492   9.680 -1.2150 -0.0007  2.2012
  189MOL0     H25501   9.399   1.279   9.871 -0.2603 -3.9597  2.3532
  189MOL0     H25502   9.181   1.242   9.989 -0.1164  1.7217 -3.5665
  189MOL0     H25503   9.043   1.505  10.340 -1.9316 -0.3571  2.4054
  189MOL0     H25504   9.127   1.355  10.393 -0.7770  1.7464  1.9164
  189MOL0     H25505   8.916   1.246  10.360  2.1113  0.8006 -0.5713
  189MOL0     H25506   8.835   1.383  10.278 -0.7984 -2.7867 -1.8505
  189MOL0     H25507   8.889   1.513  10.507 -1.0726  0.1367  1.1837
  189MOL0     H25508   8.926   1.359  10.571 -0.2808 -0.2958 -0.1315
  189MOL0     H25509   8.677   1.456  10.607  2.9049  3.4861 -1.0950
  189MOL0     H25510   8.658   1.383  10.436  1.8650 -0.2617 -1.0455
  189MOL0     H25511   8.705   1.028  10.644  0.3446 -0.4363 -2.3674
  189MOL0     H25512   9.246   1.584  10.232 -4.6782 -2.8867  0.3513
  189MOL0     H25513   9.538   1.672  10.174 -1.2680 -3.1815  0.6625
  189MOL0     H25514   9.483   1.741  10.016  0.1602  1.0045  0.2556
  189MOL0     H25515   9.382   1.761  10.158  1.5428  1.7308  0.4535
  190MOL0     O25516   7.442   4.348   5.488 -0.3035  0.3037  0.2511
  190MOL0     C25517   7.438   4.460   5.540 -0.8292  0.5111  0.0631
  190MOL0     O25518   7.530   4.500   5.633  0.1872 -0.7061 -0.1026
  190MOL0     C25519   7.625   4.411   5.676 -0.7646 -0.7697  0.8661
  190MOL0     C25520   7.749   4.390   5.606 -0.5453 -0.0255  0.3572
  190MOL0     C25521   7.845   4.306   5.664 -1.6223 -0.0620  0.3620
  190MOL0     C25522   7.825   4.235   5.778  0.3822  0.3469  0.2058
  190MOL0     O25523   7.934   4.164   5.809 -0.9309 -0.5511 -0.1436
  190MOL0     C25524   7.922   4.057   5.902  0.6352 -0.5173  1.0018
  190MOL0     C25525   8.005   3.936   5.860 -0.1633 -0.2766 -0.1825
  190MOL0     C25526   8.158   3.937   5.904 -0.2325  0.0704  0.1985
  190MOL0     C25527   8.189   3.889   6.046  0.5548 -0.4472  0.0608
  190MOL0     C25528   8.329   3.862   6.083 -0.0902  0.1108  0.2246
  190MOL0     C25529   8.435   3.970   6.060  0.0666 -0.4627  0.4117
  190MOL0     C25530   8.580   3.926   6.061 -0.2435  0.2513  0.2249
  190MOL0     C25531   8.688   4.035   6.056  0.0505  0.1296  0.4072
  190MOL0     N25532   8.826   3.972   6.056  1.0372 -0.5449  0.1553
  190MOL0     C25533   8.885   3.912   6.163 -0.4480  0.3925 -0.4741
  190MOL0     C25534   9.008   3.875   6.109  0.0810 -0.5721 -0.7222
  190MOL0     C25535   9.114   3.809   6.193 -0.5739  0.1844 -1.0080
  190MOL0     C25536   9.065   3.744   6.328 -0.6117  0.7446 -0.6620
  190MOL0     C25537   9.001   3.610   6.303  0.3075  0.2511 -0.1740
  190MOL0     C25538   9.115   3.504   6.328  0.5159 -0.1980  0.1793
  190MOL0     O25539   9.107   3.398   6.232 -0.4664 -0.5461  0.2323
  190MOL0     C25540   9.014   3.300   6.223  0.7710  0.3712 -0.7887
  190MOL0     C25541   8.920   3.271   6.326 -0.0377  0.1918 -0.0899
  190MOL0     C25542   8.832   3.167   6.320 -0.2319  0.7175  0.3389
  190MOL0     C25543   8.835   3.083   6.203 -0.0801  0.1997 -0.4540
  190MOL0     C25544   8.730   2.977   6.191  0.1885  0.0720  0.1648
  190MOL0     O25545   8.602   3.004   6.257  0.4522  0.1302 -0.4010
  190MOL0     C25546   8.481   2.921   6.256 -0.2345 -0.4824 -0.1914
  190MOL0     C25547   8.477   2.782   6.229 -1.6365 -0.7932 -0.1854
  190MOL0     C25548   8.361   2.702   6.224 -0.5146  0.0624  0.1891
  190MOL0     C25549   8.238   2.774   6.240 -0.5712  0.3789 -0.1559
  190MOL0     O25550   8.109   2.720   6.244 -0.9791 -0.4503 -0.2084
  190MOL0     C25551   8.083   2.604   6.158 -0.5065  0.5670 -0.7820
  190MOL0     C25552   7.935   2.588   6.153 -0.1596 -0.2895 -1.0537
  190MOL0     C25553   7.881   2.506   6.036 -0.3368  0.2595 -0.1303
  190MOL0     C25554   7.729   2.469   6.045 -0.1495  0.3154 -0.1390
  190MOL0     C25555   7.688   2.344   5.966 -0.0492 -0.8176  0.5520
  190MOL0     C25556   7.703   2.353   5.810  0.4679  0.1863 -0.2485
  190MOL0     C25557   7.654   2.219   5.750  0.2099  0.2634  0.3910
  190MOL0     C25558   7.664   2.224   5.594 -0.1817  0.6046 -0.0147
  190MOL0    Cl25559   7.839   2.237   5.542  0.1580 -0.1137  0.2922
  190MOL0     C25560   8.242   2.912   6.265  0.6009  0.3313 -0.6224
  190MOL0     C25561   8.356   2.988   6.256  1.2613  0.1897 -0.2605
  190MOL0     O25562   8.755   2.868   6.141  0.0014 -0.6220  0.0531
  190MOL0     C25563   8.932   3.097   6.107 -0.5844 -0.3744  0.1682
  190MOL0     C25564   9.022   3.211   6.114 -0.3395 -0.0025 -0.4471
  190MOL0     N25565   9.007   3.898   5.972  0.1497  0.9007 -0.1936
  190MOL0     N25566   8.906   3.966   5.944  0.2190  0.8700 -0.3951
  190MOL0     C25567   7.700   4.251   5.847  0.2111  0.1418  0.1958
  190MOL0     C25568   7.609   4.349   5.799 -0.0953 -0.8445  0.2466
  190MOL0     C25569   7.328   4.548   5.515 -0.4219 -0.3185  1.2364
  190MOL0     C25570   7.198   4.496   5.483  0.5319  0.0871 -0.1671
  190MOL0     C25571   7.083   4.570   5.471  0.1097 -0.9359  0.4315
  190MOL0     C25572   7.087   4.710   5.497 -1.1751  0.2015  0.1438
  190MOL0     O25573   6.981   4.793   5.485 -0.2770 -0.0714  0.5735
  190MOL0     C25574   6.841   4.736   5.485  0.6934 -0.2924  0.3077
  190MOL0     C25575   6.760   4.845   5.560 -0.7725 -0.9631  0.3506
  190MOL0     C25576   6.624   4.797   5.596  0.8326 -0.4006  0.4776
  190MOL0     C25577   6.519   4.828   5.477  0.6536  0.1602  0.3078
  190MOL0     C25578   6.381   4.823   5.534  0.3761 -0.1439  0.8472
  190MOL0     C25579   6.267   4.833   5.579  1.2490  0.2309 -0.7661
  190MOL0     C25580   7.209   4.763   5.531 -0.4207 -0.6294 -0.2460
  190MOL0     C25581   7.329   4.689   5.538 -0.4034 -0.1271 -0.6413
  190MOL0     C25582   7.461   4.770   5.567  0.9083  0.5041  0.7942
  190MOL0     H25583   7.767   4.446   5.515 -0.1481 -1.8158 -0.7260
  190MOL0     H25584   7.943   4.296   5.619 -1.1798 -0.2420  1.3311
  190MOL0     H25585   7.942   4.098   6.001 -0.9388  0.0402  1.1267
  190MOL0     H25586   7.821   4.018   5.921  1.4067 -2.4355  1.4173
  190MOL0     H25587   7.980   3.922   5.755 -2.8241 -2.1680  0.5804
  190MOL0     H25588   7.962   3.847   5.907  0.2768  0.1109  1.0065
  190MOL0     H25589   8.193   4.039   5.885 -0.0326 -0.1298 -0.5647
  190MOL0     H25590   8.209   3.868   5.835  0.5433  0.3049  0.5234
  190MOL0     H25591   8.156   3.961   6.121  2.7327 -0.1120  0.7566
  190MOL0     H25592   8.134   3.796   6.063  0.4356 -0.6168 -1.1514
  190MOL0     H25593   8.327   3.829   6.188 -1.8131  0.3627  0.2988
  190MOL0     H25594   8.349   3.775   6.021 -0.3735 -1.0029  1.6471
  190MOL0     H25595   8.419   4.022   5.965  1.1319  3.1358  2.0610
  190MOL0     H25596   8.411   4.041   6.140  2.6471  2.1865 -0.9707
  190MOL0     H25597   8.603   3.854   5.982 -1.0985 -2.0759  2.0098
  190MOL0     H25598   8.585   3.881   6.160 -1.5039 -1.5040 -0.4545
  190MOL0     H25599   8.674   4.093   5.964  2.6689 -1.1860 -0.9342
  190MOL0     H25600   8.685   4.101   6.143 -1.3348 -1.5058  1.6704
  190MOL0     H25601   8.841   3.892   6.260 -1.3983 -3.5309 -1.5305
  190MOL0     H25602   9.186   3.745   6.144  0.7321  1.3297 -0.6500
  190MOL0     H25603   9.169   3.895   6.232 -0.2190 -1.2727  2.0378
  190MOL0     H25604   9.147   3.725   6.397  0.0772  0.1473 -1.6193
  190MOL0     H25605   8.996   3.812   6.380 -0.6495  1.6159 -1.8057
  190MOL0     H25606   8.973   3.608   6.197 -2.0566 -0.6204  0.4043
  190MOL0     H25607   8.906   3.589   6.353  1.6490  0.5918  2.7121
  190MOL0     H25608   9.116   3.480   6.434 -0.5916  0.5008  0.3621
  190MOL0     H25609   9.211   3.554   6.309  0.2443  0.1445 -0.3098
  190MOL0     H25610   8.936   3.329   6.417  1.2099 -0.3391  0.0529
  190MOL0     H25611   8.758   3.140   6.395 -0.2329 -2.2160 -0.5781
  190MOL0     H25612   8.568   2.725   6.212 -1.0289  0.8520 -2.9337
  190MOL0     H25613   8.366   2.594   6.209 -2.3653 -0.2742  1.5956
  190MOL0     H25614   8.133   2.620   6.062  0.8655  1.3481  0.0211
  190MOL0     H25615   8.125   2.519   6.213 -1.4313  0.9322  0.5525
  190MOL0     H25616   7.902   2.551   6.251  1.6700 -2.9884 -1.3508
  190MOL0     H25617   7.897   2.688   6.130 -0.1403  0.3208  1.3515
  190MOL0     H25618   7.920   2.554   5.945  1.5175  1.8691  1.4293
  190MOL0     H25619   7.937   2.412   6.038  0.0340  0.4792 -0.1493
  190MOL0     H25620   7.669   2.558   6.023  0.3711  0.8950  0.7357
  190MOL0     H25621   7.715   2.451   6.152 -0.9976 -1.3996 -0.4921
  190MOL0     H25622   7.584   2.322   5.993 -0.7727  1.5585 -0.0873
  190MOL0     H25623   7.742   2.256   6.002 -2.1999 -3.4341 -2.1509
  190MOL0     H25624   7.648   2.437   5.767  2.8338  0.7900 -2.3526
  190MOL0     H25625   7.804   2.367   5.771  1.0524  2.1133  1.7437
  190MOL0     H25626   7.547   2.204   5.771 -0.2598  1.8994 -0.6232
  190MOL0     H25627   7.720   2.135   5.775  0.4019  0.1658 -0.4019
  190MOL0     H25628   7.612   2.137   5.551 -0.9084  0.9141  0.2228
  190MOL0     H25629   7.611   2.307   5.546 -0.1456  0.0583 -1.0365
  190MOL0     H25630   8.152   2.972   6.276  0.4246 -0.1068  0.4606
  190MOL0     H25631   8.351   3.097   6.258 -1.0164  0.1449  0.9995
  190MOL0     H25632   8.938   3.025   6.026  1.1883 -0.5840  0.4409
  190MOL0     H25633   9.094   3.229   6.034  1.5359  2.7209  1.6808
  190MOL0     H25634   7.681   4.198   5.940 -3.1709 -0.6609 -0.8100
  190MOL0     H25635   7.518   4.369   5.855  0.7199 -0.3456  1.4321
  190MOL0     H25636   7.190   4.388   5.468  1.4823  0.0136 -0.1949
  190MOL0     H25637   6.993   4.517   5.441  0.3016 -1.4762  0.8016
  190MOL0     H25638   6.834   4.644   5.543  0.8836 -0.9424 -0.6905
  190MOL0     H25639   6.805   4.733   5.382 -2.6004  2.2963  1.1844
  190MOL0     H25640   6.759   4.932   5.493  2.3868  0.2435  1.6663
  190MOL0     H25641   6.823   4.858   5.649  1.9062 -1.9084 -1.3020
  190MOL0     H25642   6.591   4.841   5.690  1.4519 -0.8789  0.9282
  190MOL0     H25643   6.617   4.688   5.606  2.0415 -0.9482 -3.1617
  190MOL0     H25644   6.544   4.924   5.430 -0.3265 -0.5899 -1.8675
  190MOL0     H25645   6.527   4.753   5.398  0.7216  2.7588 -2.3154
  190MOL0     H25646   6.178   4.860   5.632  0.7867  0.4297 -1.6142
  190MOL0     H25647   7.211   4.870   5.547 -0.4469 -0.5219 -0.9306
  190MOL0     H25648   7.457   4.867   5.516  0.1285 -0.9523 -2.1094
  190MOL0     H25649   7.483   4.780   5.674  1.5126  0.9244  0.6363
  190MOL0     H25650   7.547   4.717   5.523  1.4139 -0.0359  2.3552
  191MOL0     O25651   7.863   3.664   2.536  0.2555  0.4272 -0.4591
  191MOL0     C25652   7.773   3.745   2.533  0.2542  1.0225 -0.7711
  191MOL0     O25653   7.777   3.876   2.595  0.1764 -0.1677  0.1795
  191MOL0     C25654   7.887   3.947   2.652 -0.2736  0.3295  0.5567
  191MOL0     C25655   8.015   3.890   2.671  0.2304 -0.2310  0.6269
  191MOL0     C25656   8.105   3.962   2.747  0.6260  0.5777  0.3116
  191MOL0     C25657   8.085   4.092   2.797 -0.2348 -0.5054  0.4752
  191MOL0     O25658   8.175   4.170   2.856 -0.0421 -0.4392  0.2499
  191MOL0     C25659   8.310   4.123   2.868  0.8029 -0.4118  0.3804
  191MOL0     C25660   8.394   4.240   2.904 -0.0664 -1.1222 -0.4633
  191MOL0     C25661   8.548   4.218   2.925  0.0166 -0.4682  0.5228
  191MOL0     C25662   8.635   4.337   2.913 -0.1089 -0.7815  0.1702
  191MOL0     C25663   8.780   4.292   2.944  0.0379 -0.5348  1.0598
  191MOL0     C25664   8.792   4.276   3.101  0.0142  0.7219 -0.3333
  191MOL0     C25665   8.931   4.245   3.141  0.3550  0.1811 -0.3388
  191MOL0     C25666   8.944   4.241   3.295  0.2735 -0.3049 -0.1678
  191MOL0     N25667   9.082   4.285   3.351  0.1228  0.0398  0.4125
  191MOL0     C25668   9.149   4.401   3.315 -0.5261 -0.7767 -0.5095
  191MOL0     C25669   9.274   4.392   3.373 -0.5679  0.8567 -0.3107
  191MOL0     C25670   9.391   4.486   3.371 -0.4695 -0.2198 -0.5619
  191MOL0     C25671   9.405   4.534   3.515 -0.1792 -0.2871  0.2021
  191MOL0     C25672   9.520   4.626   3.561  0.4075 -0.0211 -0.0456
  191MOL0     C25673   9.526   4.639   3.713  0.5144 -0.2557 -0.6218
  191MOL0     O25674   9.566   4.519   3.778  0.0046 -0.1212  0.0112
  191MOL0     C25675   9.702   4.497   3.811  1.5840  0.4178  0.1640
  191MOL0     C25676   9.808   4.556   3.736 -0.4221  0.2044  0.1270
  191MOL0     C25677   9.945   4.533   3.768 -0.6415  0.8901 -0.3651
  191MOL0     C25678   9.978   4.433   3.863  0.3425 -0.4666  0.6411
  191MOL0     C25679  10.119   4.419   3.899  0.4980 -0.2767 -0.2013
  191MOL0     O25680  10.208   4.486   3.829  0.1701  0.6222 -0.1669
  191MOL0     C25681  10.335   4.439   3.811  1.0118 -0.8802 -0.2606
  191MOL0     C25682  10.433   4.543   3.820  0.1114 -0.3187  0.0335
  191MOL0     C25683  10.569   4.515   3.815  0.4040  0.8347 -0.4236
  191MOL0     C25684  10.618   4.383   3.815  0.5496 -1.1326  0.1917
  191MOL0     O25685  10.757   4.370   3.827  0.4125  0.3020 -0.5073
  191MOL0     C25686  10.803   4.334   3.694 -0.1844 -0.2923  0.7772
  191MOL0     C25687  10.953   4.339   3.686 -0.0682 -0.1052 -0.4640
  191MOL0     C25688  11.002   4.320   3.539  0.3812 -0.1097  0.6079
  191MOL0     C25689  11.154   4.295   3.543 -0.5248 -0.4438  0.6477
  191MOL0     C25690  11.223   4.323   3.401  0.0264  0.3489 -0.7846
  191MOL0     C25691  11.366   4.277   3.406 -0.2701 -0.3661 -0.3114
  191MOL0     C25692  11.453   4.353   3.303  0.1461 -0.0345  0.1838
  191MOL0     C25693  11.600   4.317   3.298  0.8496 -0.2693  0.7744
  191MOL0    Cl25694  11.692   4.330   3.461  0.0547 -0.0582  0.4948
  191MOL0     C25695  10.521   4.275   3.808 -0.2166  0.1204  0.2190
  191MOL0     C25696  10.380   4.309   3.795  1.0221  0.5659 -0.0094
  191MOL0     O25697  10.142   4.357   4.001  0.3583  0.5717  0.0224
  191MOL0     C25698   9.876   4.372   3.926  0.0626  0.0924  0.3840
  191MOL0     C25699   9.738   4.400   3.898 -0.1348  0.3277  0.2653
  191MOL0     N25700   9.281   4.267   3.439 -1.1483 -0.6658  1.1642
  191MOL0     N25701   9.162   4.202   3.435  0.1901 -0.6318  0.4145
  191MOL0     C25702   7.952   4.146   2.782 -0.1081  0.2403 -0.5821
  191MOL0     C25703   7.852   4.065   2.727  0.4030 -0.0967 -0.0051
  191MOL0     C25704   7.646   3.711   2.467  0.7186  0.6379  0.3411
  191MOL0     C25705   7.638   3.584   2.397 -0.0028 -0.5906  0.0368
  191MOL0     C25706   7.528   3.548   2.321 -0.3759  0.9234 -0.5786
  191MOL0     C25707   7.411   3.620   2.338 -1.3254  0.6695  0.9266
  191MOL0     O25708   7.289   3.590   2.284  0.2335  0.0057  0.3756
  191MOL0     C25709   7.256   3.478   2.203 -0.2680  0.4878  1.5118
  191MOL0     C25710   7.100   3.487   2.177  0.5136 -0.4982 -0.9884
  191MOL0     C25711   7.006   3.455   2.294  0.6749  0.1063 -0.0968
  191MOL0     C25712   7.028   3.522   2.425  0.9540 -0.3009 -0.4339
  191MOL0     C25713   6.922   3.482   2.523 -0.3520  0.4165 -0.1947
  191MOL0     C25714   6.827   3.442   2.589 -0.2096 -0.3970  0.7488
  191MOL0     C25715   7.411   3.730   2.420  0.1241 -0.0878 -0.6772
  191MOL0     C25716   7.528   3.781   2.485  0.6171 -0.0606 -0.0351
  191MOL0     C25717   7.494   3.894   2.579  0.6369 -0.4077  0.1799
  191MOL0     H25718   8.030   3.789   2.635 -1.9521 -0.7084  0.9142
  191MOL0     H25719   8.205   3.919   2.750  1.1026  1.4694 -1.4753
  191MOL0     H25720   8.323   4.044   2.943 -1.1581 -0.2319  0.9647
  191MOL0     H25721   8.333   4.085   2.768  1.4377  1.2501 -0.1410
  191MOL0     H25722   8.350   4.275   2.997 -0.3013 -0.3496 -0.8540
  191MOL0     H25723   8.384   4.321   2.830  0.1979 -0.4291  0.2393
  191MOL0     H25724   8.582   4.154   2.843  1.5248  1.3828 -0.3926
  191MOL0     H25725   8.554   4.168   3.022  0.8182 -2.4686 -0.4994
  191MOL0     H25726   8.632   4.369   2.809  2.4887 -0.5638  0.1133
  191MOL0     H25727   8.599   4.421   2.973  1.3317 -1.5211  2.1948
  191MOL0     H25728   8.802   4.192   2.906  0.5312  1.4807 -4.9509
  191MOL0     H25729   8.853   4.357   2.897  0.2895 -0.6626  1.2659
  191MOL0     H25730   8.746   4.357   3.159  2.6190  1.9845  0.1119
  191MOL0     H25731   8.744   4.182   3.130  3.5274 -0.7160  1.4742
  191MOL0     H25732   9.002   4.324   3.115 -1.7383  2.5397  0.6609
  191MOL0     H25733   8.966   4.147   3.105 -0.2488 -0.1087 -0.1413
  191MOL0     H25734   8.872   4.313   3.334  1.3803  1.5001 -1.2908
  191MOL0     H25735   8.898   4.147   3.328  0.4904 -0.0128  1.0217
  191MOL0     H25736   9.105   4.485   3.264 -0.9332 -0.5792  0.1613
  191MOL0     H25737   9.477   4.423   3.349  0.2115  0.3643  0.3557
  191MOL0     H25738   9.375   4.568   3.300  0.5800  0.8008  0.3261
  191MOL0     H25739   9.313   4.586   3.546 -1.0969  0.3964 -3.2715
  191MOL0     H25740   9.402   4.449   3.584  0.1540  0.3381  0.9939
  191MOL0     H25741   9.512   4.728   3.521 -2.1701  0.6977  2.0329
  191MOL0     H25742   9.615   4.585   3.524  0.6254  0.4313  0.0042
  191MOL0     H25743   9.424   4.671   3.737  1.7747  2.7602  1.3066
  191MOL0     H25744   9.592   4.721   3.744  0.2494 -0.0971 -0.4671
  191MOL0     H25745   9.801   4.626   3.653  1.3816 -2.5315 -2.5468
  191MOL0     H25746  10.033   4.586   3.732  0.9196  1.0157  3.2422
  191MOL0     H25747  10.401   4.646   3.812  0.8165 -0.1461 -0.6750
  191MOL0     H25748  10.639   4.598   3.823  1.0629  0.2131  0.5039
  191MOL0     H25749  10.777   4.230   3.673  0.7842 -0.4146  0.1435
  191MOL0     H25750  10.761   4.402   3.619  0.1094 -0.5954  0.3353
  191MOL0     H25751  10.987   4.439   3.714  2.8119 -0.7194 -1.4210
  191MOL0     H25752  10.991   4.272   3.764 -0.6392  0.2156  0.0920
  191MOL0     H25753  10.956   4.232   3.494  0.8138  0.3914 -0.8556
  191MOL0     H25754  10.982   4.403   3.472 -0.6062 -0.6526  0.2145
  191MOL0     H25755  11.156   4.188   3.564 -1.7432 -0.3442  1.3363
  191MOL0     H25756  11.202   4.353   3.622 -1.7712  2.0298 -0.3114
  191MOL0     H25757  11.208   4.429   3.380  0.6415  0.1823 -2.1568
  191MOL0     H25758  11.173   4.268   3.321 -0.6476 -2.3174  1.2939
  191MOL0     H25759  11.406   4.288   3.507 -0.1017 -1.4605 -0.2460
  191MOL0     H25760  11.362   4.171   3.381  2.6486 -0.7064  0.2571
  191MOL0     H25761  11.447   4.461   3.321 -0.8431 -0.4720  2.8800
  191MOL0     H25762  11.415   4.328   3.204 -2.3745  0.2478  1.0106
  191MOL0     H25763  11.602   4.216   3.256 -0.2301 -0.6241  1.5503
  191MOL0     H25764  11.646   4.389   3.229  0.6414  0.6873  1.5999
  191MOL0     H25765  10.558   4.173   3.807  1.2015  0.6205 -0.1486
  191MOL0     H25766  10.309   4.228   3.791  2.5943 -0.8723  0.1663
  191MOL0     H25767   9.904   4.300   4.003 -1.1541 -0.3052  0.4793
  191MOL0     H25768   9.667   4.345   3.959  0.3588  0.2869  0.8205
  191MOL0     H25769   7.929   4.243   2.824 -0.8261  0.1255 -0.6962
  191MOL0     H25770   7.749   4.099   2.729  0.5202  0.3753 -1.2630
  191MOL0     H25771   7.721   3.514   2.398 -2.3689 -3.6069  0.1146
  191MOL0     H25772   7.525   3.465   2.252 -2.1349  0.8622 -0.4776
  191MOL0     H25773   7.287   3.386   2.253 -2.2791 -0.4585  1.1293
  191MOL0     H25774   7.308   3.487   2.107  0.1490 -1.2211  1.5435
  191MOL0     H25775   7.072   3.427   2.091  2.3288  1.8251 -3.3620
  191MOL0     H25776   7.071   3.585   2.137 -0.5353 -0.9429 -1.3609
  191MOL0     H25777   7.000   3.348   2.315  1.2418  0.3438  1.4030
  191MOL0     H25778   6.904   3.487   2.272  1.6230  2.8762 -0.8983
  191MOL0     H25779   7.128   3.500   2.462  0.9837  2.1310  1.1565
  191MOL0     H25780   7.010   3.629   2.411 -2.8427 -0.5626  1.1279
  191MOL0     H25781   6.742   3.401   2.640 -1.1144  2.3854  1.6927
  191MOL0     H25782   7.315   3.773   2.446  0.1422 -0.7500  0.5653
  191MOL0     H25783   7.545   3.986   2.549  0.6108 -0.7951 -1.1233
  191MOL0     H25784   7.388   3.918   2.589  0.8812  0.3685  1.0939
  191MOL0     H25785   7.528   3.864   2.679 -0.0229 -2.6560 -0.2212
  192MOL0     O25786   5.411   0.720  10.723  0.2158  0.2369 -0.8640
  192MOL0     C25787   5.319   0.637  10.715 -0.3780  0.5727 -0.1011
  192MOL0     O25788   5.319   0.513  10.765  0.1445 -0.0259 -0.0449
  192MOL0     C25789   5.425   0.463  10.835 -0.0941  0.1257  0.0698
  192MOL0     C25790   5.547   0.451  10.765 -0.1732  0.4555 -0.7528
  192MOL0     C25791   5.657   0.404  10.843  0.6868 -0.4123  0.8237
  192MOL0     C25792   5.640   0.352  10.968 -0.5173 -0.4821 -0.0064
  192MOL0     O25793   5.740   0.289  11.034  0.2263 -0.2453 -0.2921
  192MOL0     C25794   5.865   0.349  11.022  0.1765  0.1833  0.5983
  192MOL0     C25795   5.959   0.285  11.115  0.3930 -0.1053  0.3151
  192MOL0     C25796   6.102   0.331  11.104 -0.1060  0.2627  0.3822
  192MOL0     C25797   6.176   0.318  10.959 -0.2781 -0.0367 -0.2376
  192MOL0     C25798   6.322   0.368  10.959  0.3537 -0.2454  0.2596
  192MOL0     C25799   6.397   0.314  11.079 -0.1051  0.0022  0.1939
  192MOL0     C25800   6.536   0.364  11.064 -0.1844 -0.0496 -0.0215
  192MOL0     C25801   6.618   0.318  11.189 -0.4530 -0.0172  0.2434
  192MOL0     N25802   6.757   0.346  11.174  0.0320  0.0877 -0.2284
  192MOL0     C25803   6.809   0.473  11.137 -0.1592  0.1199 -1.0471
  192MOL0     C25804   6.942   0.462  11.166  0.6153 -0.2535  0.6103
  192MOL0     C25805   7.049   0.575  11.154  0.1576  0.0906  0.5692
  192MOL0     C25806   7.139   0.554  11.034 -0.1841  0.4894  0.6664
  192MOL0     C25807   7.273   0.484  11.070 -0.7826  0.2433  1.2080
  192MOL0     C25808   7.357   0.467  10.948 -0.1702  0.2746 -0.2299
  192MOL0     O25809   7.499   0.435  10.974  0.5830  0.3537 -0.0305
  192MOL0     C25810   7.586   0.472  10.875  0.3533  0.2817  0.0271
  192MOL0     C25811   7.673   0.582  10.887  0.1089  1.1726  0.2934
  192MOL0     C25812   7.770   0.612  10.794  0.7770 -0.0857 -0.0619
  192MOL0     C25813   7.773   0.541  10.673 -0.3182  0.0634 -0.5426
  192MOL0     C25814   7.882   0.562  10.581 -0.1605 -0.9050 -0.7649
  192MOL0     O25815   7.984   0.628  10.627 -0.5041 -0.5799  0.1563
  192MOL0     C25816   8.098   0.654  10.555 -0.5097  0.3984  1.0017
  192MOL0     C25817   8.170   0.559  10.477 -0.5856  0.4386 -0.7532
  192MOL0     C25818   8.295   0.598  10.422 -0.4694 -0.4795 -0.2275
  192MOL0     C25819   8.346   0.728  10.433 -0.1455 -0.3550 -0.2478
  192MOL0     O25820   8.465   0.744  10.362  0.1081  0.0999 -0.1665
  192MOL0     C25821   8.486   0.863  10.290  0.1684  0.5196 -0.9637
  192MOL0     C25822   8.629   0.847  10.241  0.2006  0.2638 -0.2910
  192MOL0     C25823   8.656   0.964  10.149 -0.1917  0.4218  0.3616
  192MOL0     C25824   8.805   0.945  10.099  0.3791  0.5213  0.4157
  192MOL0     C25825   8.853   1.073  10.035  0.2296  1.2138  0.3327
  192MOL0     C25826   8.770   1.106   9.911 -0.3172 -0.2901 -0.3341
  192MOL0     C25827   8.855   1.195   9.817  0.3485  0.2862  0.2057
  192MOL0     C25828   8.866   1.336   9.877 -0.4244  0.4148  0.1087
  192MOL0    Cl25829   8.719   1.416   9.901  0.0311  0.0467 -0.2563
  192MOL0     C25830   8.272   0.826  10.505  0.3029  0.2742  0.0835
  192MOL0     C25831   8.148   0.784  10.565  0.4622 -0.5370 -0.8371
  192MOL0     O25832   7.872   0.525  10.466  0.2019 -0.3751  0.2241
  192MOL0     C25833   7.671   0.444  10.646 -0.3915 -0.4262  1.3189
  192MOL0     C25834   7.584   0.409  10.745  0.0389 -0.1902  1.5415
  192MOL0     N25835   6.959   0.339  11.217 -0.2926 -0.1373 -1.0061
  192MOL0     N25836   6.858   0.273  11.220  0.2431  0.9540 -0.2457
  192MOL0     C25837   5.515   0.371  11.036  0.3195  0.3435  0.7419
  192MOL0     C25838   5.408   0.412  10.960  0.6363  0.1845 -0.7216
  192MOL0     C25839   5.185   0.670  10.655  0.4755  0.5393 -0.2337
  192MOL0     C25840   5.067   0.598  10.686 -0.3273  0.8287  0.1074
  192MOL0     C25841   4.935   0.631  10.639 -0.2001  0.3888  0.3920
  192MOL0     C25842   4.915   0.743  10.555 -0.4452 -0.6376 -0.4457
  192MOL0     O25843   4.788   0.790  10.506 -0.5777  0.8024  0.8162
  192MOL0     C25844   4.709   0.676  10.447 -0.2664 -0.2856  0.2201
  192MOL0     C25845   4.765   0.641  10.307 -0.3590  0.0434 -0.7871
  192MOL0     C25846   4.677   0.533  10.242 -0.1905  0.7403  0.6924
  192MOL0     C25847   4.554   0.588  10.176 -0.3838  0.0710 -0.4657
  192MOL0     C25848   4.440   0.502  10.196  1.4432 -0.2686  0.6311
  192MOL0     C25849   4.349   0.426  10.203 -0.2103  0.1791 -0.5661
  192MOL0     C25850   5.034   0.808  10.507  1.2206  0.1939 -0.0643
  192MOL0     C25851   5.161   0.766  10.558 -0.3775 -1.0035  0.6443
  192MOL0     C25852   5.278   0.838  10.482 -0.3899 -0.1616 -0.9574
  192MOL0     H25853   5.580   0.472  10.664  2.4995 -0.8303 -0.2492
  192MOL0     H25854   5.751   0.405  10.789 -0.2372 -2.1772 -0.9385
  192MOL0     H25855   5.908   0.326  10.924  1.0384  0.4041  0.9105
  192MOL0     H25856   5.865   0.458  11.032 -4.6119  0.3601  0.6106
  192MOL0     H25857   5.956   0.178  11.094 -1.6667  0.0492 -0.3227
  192MOL0     H25858   5.930   0.300  11.220  3.6600  1.6330  1.1160
  192MOL0     H25859   6.160   0.263  11.167  0.1640  1.1853  1.1458
  192MOL0     H25860   6.108   0.431  11.149  0.0920  0.2212  0.4512
  192MOL0     H25861   6.184   0.212  10.935 -0.2649 -0.4516  1.4626
  192MOL0     H25862   6.118   0.373  10.885  1.8816  0.6428 -1.5215
  192MOL0     H25863   6.373   0.335  10.868  1.3755 -1.2793  1.1775
  192MOL0     H25864   6.322   0.477  10.958 -1.6772 -0.1893  0.7384
  192MOL0     H25865   6.356   0.360  11.170 -3.1050  0.1987 -1.1196
  192MOL0     H25866   6.392   0.205  11.089  0.1279 -0.1957 -1.5982
  192MOL0     H25867   6.541   0.472  11.048 -0.2472  0.0913  0.8611
  192MOL0     H25868   6.595   0.320  10.983 -1.3597 -2.0646  0.1433
  192MOL0     H25869   6.583   0.383  11.270 -1.7476  0.1136 -0.4092
  192MOL0     H25870   6.596   0.214  11.214 -3.3383  0.8909  1.9502
  192MOL0     H25871   6.739   0.549  11.104 -2.6446 -1.4082  0.3569
  192MOL0     H25872   7.002   0.670  11.127  2.4260  0.8899 -0.8200
  192MOL0     H25873   7.100   0.585  11.250  1.2807  1.1239 -0.0958
  192MOL0     H25874   7.093   0.504  10.949 -1.9000  1.4348  1.0066
  192MOL0     H25875   7.170   0.653  10.999  0.3119  0.1045 -0.0009
  192MOL0     H25876   7.276   0.382  11.108  2.7065 -0.3174 -0.1704
  192MOL0     H25877   7.332   0.543  11.141  0.7766  0.3920 -0.1528
  192MOL0     H25878   7.350   0.558  10.889  0.2015  0.1976 -0.3916
  192MOL0     H25879   7.323   0.383  10.887  2.0579 -1.5486  0.8892
  192MOL0     H25880   7.674   0.628  10.985 -1.6258  0.2660  0.7729
  192MOL0     H25881   7.843   0.690  10.810 -1.1665  1.7687  0.2705
  192MOL0     H25882   8.137   0.456  10.479  0.4387  0.1066  0.8068
  192MOL0     H25883   8.360   0.521  10.381  0.0380 -1.6966  2.5985
  192MOL0     H25884   8.421   0.870  10.202 -1.4923 -0.1799  0.1696
  192MOL0     H25885   8.476   0.951  10.354 -0.4362  1.1680 -1.9304
  192MOL0     H25886   8.703   0.849  10.321  1.7057  0.0992 -1.6284
  192MOL0     H25887   8.641   0.758  10.179  0.7957 -0.4697  0.8352
  192MOL0     H25888   8.594   0.964  10.059  1.3997 -0.7438 -0.7980
  192MOL0     H25889   8.649   1.053  10.212  0.7615 -0.6250  2.0363
  192MOL0     H25890   8.811   0.862  10.027  0.3478  0.1553  0.8329
  192MOL0     H25891   8.859   0.914  10.188  0.0397 -0.0838  0.4149
  192MOL0     H25892   8.957   1.053  10.006 -0.7947 -2.5836 -1.3575
  192MOL0     H25893   8.857   1.158  10.103  0.6031  1.7136 -0.3014
  192MOL0     H25894   8.733   1.016   9.861 -0.4963 -2.0930  2.7942
  192MOL0     H25895   8.676   1.153   9.944 -0.0578  0.1566 -0.2265
  192MOL0     H25896   8.812   1.208   9.718  2.0231  2.3994 -0.3264
  192MOL0     H25897   8.953   1.152   9.793 -0.2489 -1.5261  0.8426
  192MOL0     H25898   8.922   1.325   9.971 -1.9516 -1.3465  0.8640
  192MOL0     H25899   8.938   1.392   9.816 -0.5807  1.2847  0.6997
  192MOL0     H25900   8.313   0.923  10.530 -0.4762  1.2164 -2.0770
  192MOL0     H25901   8.091   0.855  10.625  1.8589 -1.6783  2.0294
  192MOL0     H25902   7.662   0.405  10.545  0.2371  0.2970  0.9770
  192MOL0     H25903   7.512   0.330  10.726 -0.6579  0.6214  0.7639
  192MOL0     H25904   5.510   0.343  11.141  1.9687  2.0045  1.3135
  192MOL0     H25905   5.310   0.410  11.008  1.6828 -0.8385  1.4992
  192MOL0     H25906   5.068   0.511  10.752 -2.0753  0.6629 -0.0270
  192MOL0     H25907   4.847   0.581  10.679  0.3868 -1.3747 -0.3967
  192MOL0     H25908   4.608   0.715  10.436 -0.4920 -0.8050  0.4539
  192MOL0     H25909   4.705   0.579  10.497  0.0251  0.0915  0.9920
  192MOL0     H25910   4.867   0.602  10.312 -0.1014  0.8814  2.8234
  192MOL0     H25911   4.769   0.732  10.247  0.1935  0.0758 -0.7011
  192MOL0     H25912   4.662   0.462  10.324  1.0496  1.9827  2.0792
  192MOL0     H25913   4.738   0.490  10.163  0.0048  1.4218  0.4618
  192MOL0     H25914   4.525   0.679  10.230  0.7410 -0.5678  1.2959
  192MOL0     H25915   4.569   0.606  10.069 -3.0113 -0.1438 -0.9551
  192MOL0     H25916   4.271   0.352  10.207 -1.3830  1.2890 -1.9066
  192MOL0     H25917   5.014   0.890  10.439 -0.0929  1.0890  1.3238
  192MOL0     H25918   5.351   0.763  10.449  2.7285  0.1482  4.1279
  192MOL0     H25919   5.247   0.904  10.401 -1.9441  1.8652  1.1838
  192MOL0     H25920   5.338   0.895  10.553  1.7081 -3.7716  0.4991
  193MOL0     O25921   5.838   6.743   8.473 -0.6237 -0.0070 -0.2758
  193MOL0     C25922   5.754   6.704   8.553 -0.1232 -0.0819 -0.5996
  193MOL0     O25923   5.777   6.644   8.672  0.1288 -0.4373  0.5354
  193MOL0     C25924   5.898   6.643   8.740 -0.2690 -0.2319 -0.1213
  193MOL0     C25925   5.920   6.531   8.828  0.9122 -0.1198 -1.5005
  193MOL0     C25926   6.047   6.513   8.882  0.6888  0.8963 -0.1483
  193MOL0     C25927   6.149   6.598   8.859 -0.3470 -0.1020  0.1294
  193MOL0     O25928   6.265   6.558   8.911 -0.0448 -0.7034 -0.4441
  193MOL0     C25929   6.358   6.667   8.954 -0.3611 -0.3027  1.2070
  193MOL0     C25930   6.492   6.618   9.013  0.3590  0.5331 -0.2099
  193MOL0     C25931   6.593   6.733   9.025 -0.0281 -0.6919 -0.1762
  193MOL0     C25932   6.726   6.681   9.066 -0.1824  0.2726 -0.6650
  193MOL0     C25933   6.826   6.801   9.085 -0.5779 -0.0464 -0.1277
  193MOL0     C25934   6.969   6.756   9.104 -0.4440  0.4866  0.2139
  193MOL0     C25935   7.051   6.835   9.201  0.5394  0.0921  0.0843
  193MOL0     C25936   7.168   6.743   9.226  0.2651 -0.1440  0.4029
  193MOL0     N25937   7.282   6.814   9.285  0.6461  0.2293 -0.1631
  193MOL0     C25938   7.287   6.857   9.420  0.0186  0.3235  0.0247
  193MOL0     C25939   7.417   6.911   9.439  0.3756 -0.1116  0.6800
  193MOL0     C25940   7.463   6.976   9.564 -0.3808 -0.4784 -0.4425
  193MOL0     C25941   7.417   7.122   9.565 -1.4174  0.3221  0.5516
  193MOL0     C25942   7.267   7.145   9.571  1.6372  0.3235 -0.9044
  193MOL0     C25943   7.202   7.107   9.705  0.8016 -0.7305 -0.3544
  193MOL0     O25944   7.074   7.170   9.710  1.2500  0.2370 -0.1603
  193MOL0     C25945   6.964   7.107   9.663  0.2394 -0.1061 -0.1956
  193MOL0     C25946   6.957   6.972   9.626 -0.1561  0.2252  0.3555
  193MOL0     C25947   6.833   6.917   9.586 -0.0833 -0.1216 -1.3119
  193MOL0     C25948   6.716   6.995   9.578  0.2952 -0.3786  0.4383
  193MOL0     C25949   6.582   6.935   9.547 -0.6679 -0.4548 -0.4328
  193MOL0     O25950   6.577   6.800   9.564 -0.2925  0.0783  0.2187
  193MOL0     C25951   6.468   6.727   9.517  0.2993 -0.1611 -0.1758
  193MOL0     C25952   6.434   6.618   9.589 -0.2273 -0.0164  0.2550
  193MOL0     C25953   6.325   6.542   9.551  0.5524  0.2320 -0.3925
  193MOL0     C25954   6.233   6.572   9.444 -0.0290 -0.3877 -0.5902
  193MOL0     O25955   6.130   6.485   9.422 -0.0091  0.5394 -0.5302
  193MOL0     C25956   6.066   6.478   9.289 -0.2348 -0.8586 -1.2215
  193MOL0     C25957   5.954   6.585   9.284 -0.1646 -0.2436  0.6813
  193MOL0     C25958   5.860   6.567   9.160 -0.6352  0.4223  0.0890
  193MOL0     C25959   5.718   6.606   9.188 -0.1788  0.1597 -0.5190
  193MOL0     C25960   5.626   6.592   9.071 -0.3068 -0.1322  0.1410
  193MOL0     C25961   5.498   6.689   9.049 -0.0881 -0.2195 -0.7802
  193MOL0     C25962   5.388   6.630   8.959  0.7508 -0.0716  0.1803
  193MOL0     C25963   5.270   6.725   8.917  0.5791 -0.0255  0.0872
  193MOL0    Cl25964   5.138   6.634   8.832 -0.1237  0.4667 -0.0250
  193MOL0     C25965   6.279   6.684   9.364 -0.6172 -0.2907  0.2337
  193MOL0     C25966   6.394   6.755   9.399  0.2151  1.5181  0.2786
  193MOL0     O25967   6.490   7.007   9.505  0.6533 -0.8383  0.1655
  193MOL0     C25968   6.729   7.133   9.611  0.1178  0.1928  0.0276
  193MOL0     C25969   6.844   7.187   9.663 -0.5112 -0.0082  0.4064
  193MOL0     N25970   7.476   6.900   9.309  0.4868  0.0617 -0.9459
  193MOL0     N25971   7.399   6.842   9.226  0.0676  0.1139  0.7065
  193MOL0     C25972   6.123   6.718   8.788  0.0871 -0.0053  0.3454
  193MOL0     C25973   6.003   6.736   8.728  0.5146 -0.1141 -0.0022
  193MOL0     C25974   5.611   6.716   8.503 -0.0333  0.9970 -0.0244
  193MOL0     C25975   5.516   6.656   8.585  0.1128 -0.2384  0.2201
  193MOL0     C25976   5.382   6.670   8.564 -0.4894  0.0545 -1.1807
  193MOL0     C25977   5.335   6.746   8.455 -0.0902 -0.0606 -0.3334
  193MOL0     O25978   5.202   6.759   8.433  0.2278 -0.8352 -0.0738
  193MOL0     C25979   5.137   6.647   8.374  1.0120 -0.0736  0.1964
  193MOL0     C25980   4.993   6.672   8.411  1.1347 -0.5867 -0.5784
  193MOL0     C25981   4.966   6.649   8.558 -0.6457 -0.4284 -0.2376
  193MOL0     C25982   4.813   6.678   8.576 -0.4894  0.2656 -0.0726
  193MOL0     C25983   4.780   6.635   8.716 -0.2304 -0.3264  0.1749
  193MOL0     C25984   4.741   6.581   8.825  0.2027  0.0563 -0.0986
  193MOL0     C25985   5.424   6.810   8.374  0.1536  0.3772 -0.1933
  193MOL0     C25986   5.563   6.789   8.388 -0.6344 -0.2966  0.2012
  193MOL0     C25987   5.652   6.871   8.296 -0.4300  1.0256  0.2404
  193MOL0     H25988   5.846   6.456   8.855  0.8228  0.6222  0.5198
  193MOL0     H25989   6.059   6.417   8.930 -0.2199  0.6546 -0.3943
  193MOL0     H25990   6.386   6.713   8.859 -0.5271  0.5995  1.5829
  193MOL0     H25991   6.320   6.738   9.028  1.2850  2.9895 -0.8909
  193MOL0     H25992   6.525   6.539   8.946  2.6742  0.6753  0.6883
  193MOL0     H25993   6.475   6.575   9.112  0.6713 -1.6465 -1.0460
  193MOL0     H25994   6.558   6.808   9.096 -1.0899 -1.3507  0.0082
  193MOL0     H25995   6.603   6.782   8.927  0.4960 -1.2471 -0.4136
  193MOL0     H25996   6.722   6.623   9.159 -0.3266 -0.0297 -0.8561
  193MOL0     H25997   6.768   6.607   8.996  2.4367 -0.0778  1.1446
  193MOL0     H25998   6.817   6.864   8.996  1.7015  0.0448 -0.3396
  193MOL0     H25999   6.794   6.855   9.175  2.4525 -1.6513  2.0982
  193MOL0     H26000   6.962   6.648   9.117 -0.3558  0.1541 -2.0568
  193MOL0     H26001   7.017   6.759   9.006 -0.1456 -3.3267  0.0857
  193MOL0     H26002   7.002   6.853   9.297  1.6034 -1.3032  0.9328
  193MOL0     H26003   7.075   6.930   9.153  1.2449  0.1414  0.5182
  193MOL0     H26004   7.143   6.657   9.288  1.7235 -0.0142  1.2354
  193MOL0     H26005   7.220   6.710   9.136  1.3916 -0.8951  1.2917
  193MOL0     H26006   7.206   6.835   9.489 -0.9260 -2.0283 -1.6663
  193MOL0     H26007   7.432   6.925   9.656 -1.5281 -0.7811 -0.9775
  193MOL0     H26008   7.572   6.982   9.564 -0.3964 -0.0244  0.2460
  193MOL0     H26009   7.471   7.183   9.639  1.6811 -1.3527 -0.1453
  193MOL0     H26010   7.461   7.164   9.475  4.3648 -2.2419  1.6823
  193MOL0     H26011   7.220   7.091   9.489  0.9894 -3.3788  1.6766
  193MOL0     H26012   7.251   7.253   9.561  2.0615  0.6159  1.1415
  193MOL0     H26013   7.276   7.160   9.766 -0.9089 -0.4052  1.5450
  193MOL0     H26014   7.197   7.000   9.727  0.7054 -0.3218  1.8157
  193MOL0     H26015   7.046   6.912   9.613 -0.4066 -0.3321  1.1366
  193MOL0     H26016   6.829   6.812   9.558 -0.3102 -1.5069  3.0605
  193MOL0     H26017   6.494   6.599   9.678  1.0284  2.4301  0.0424
  193MOL0     H26018   6.301   6.446   9.596  1.1116  0.4079  0.2992
  193MOL0     H26019   6.135   6.499   9.206  0.8487 -1.9067 -0.6127
  193MOL0     H26020   6.032   6.376   9.271 -1.6817 -0.8184  0.9805
  193MOL0     H26021   5.891   6.568   9.372 -0.8438 -2.3046 -0.1511
  193MOL0     H26022   5.987   6.689   9.281 -1.2461  0.0954 -0.3509
  193MOL0     H26023   5.895   6.630   9.078  0.4278  1.3666  1.2463
  193MOL0     H26024   5.865   6.463   9.126 -0.9702  0.4844 -0.1656
  193MOL0     H26025   5.703   6.708   9.223 -1.1072 -0.4542  1.0177
  193MOL0     H26026   5.689   6.547   9.276  0.0913  1.7199  0.6451
  193MOL0     H26027   5.591   6.489   9.073 -1.4428  0.2267 -0.0670
  193MOL0     H26028   5.680   6.600   8.976 -0.5709 -2.3275 -0.2489
  193MOL0     H26029   5.462   6.702   9.152  1.6860  0.8612 -0.2546
  193MOL0     H26030   5.524   6.792   9.022 -0.8370  0.1899 -0.0149
  193MOL0     H26031   5.341   6.540   9.001  0.0478 -0.0156 -0.4820
  193MOL0     H26032   5.444   6.603   8.869 -0.4224  2.8053 -1.5307
  193MOL0     H26033   5.230   6.776   9.005 -0.4066 -2.9666  1.4846
  193MOL0     H26034   5.306   6.799   8.844 -0.6944  1.2642  0.7297
  193MOL0     H26035   6.221   6.716   9.279 -1.8264  0.0892  1.1678
  193MOL0     H26036   6.420   6.838   9.334  0.6284  1.6244  0.5744
  193MOL0     H26037   6.647   7.204   9.613 -0.0699  0.0498  3.2771
  193MOL0     H26038   6.840   7.292   9.688  3.4382  0.6809 -1.1042
  193MOL0     H26039   6.202   6.789   8.764  0.2439 -0.6071 -1.0454
  193MOL0     H26040   5.997   6.819   8.659  0.2995  0.6637  0.9211
  193MOL0     H26041   5.558   6.590   8.661 -1.0261 -0.0748  1.0254
  193MOL0     H26042   5.311   6.624   8.631  0.9022  0.1714  0.4687
  193MOL0     H26043   5.168   6.551   8.416 -2.2716 -1.1416  0.4388
  193MOL0     H26044   5.158   6.646   8.266 -1.0837 -2.1971 -0.2636
  193MOL0     H26045   4.933   6.596   8.359  0.8286 -1.5124  1.0465
  193MOL0     H26046   4.956   6.770   8.381 -2.9258 -1.6986  0.2071
  193MOL0     H26047   5.028   6.719   8.616 -0.9338 -0.3785  0.0121
  193MOL0     H26048   5.004   6.550   8.584  0.3732  0.2581  1.0109
  193MOL0     H26049   4.790   6.782   8.553  2.6485  1.1385  0.3498
  193MOL0     H26050   4.751   6.618   8.508 -0.4335  0.8512 -0.6582
  193MOL0     H26051   4.713   6.526   8.912 -1.3057 -0.0055 -0.5915
  193MOL0     H26052   5.372   6.865   8.296  1.0034 -0.6808 -1.5524
  193MOL0     H26053   5.729   6.801   8.262 -2.5570 -1.3383 -0.0447
  193MOL0     H26054   5.598   6.901   8.206 -1.3506  0.7107  0.6729
  193MOL0     H26055   5.682   6.947   8.369 -0.2365  0.1902  1.0625
  194MOL0     O26056   2.396   2.408   7.350 -0.1335  0.1054  0.1786
  194MOL0     C26057   2.327   2.405   7.244 -0.1381 -0.8908  0.3935
  194MOL0     O26058   2.378   2.408   7.116 -0.5113 -0.2338  0.0736
  194MOL0     C26059   2.493   2.337   7.084 -0.4570 -0.0810 -0.5399
  194MOL0     C26060   2.550   2.361   6.959 -0.4569  0.2673  0.1955
  194MOL0     C26061   2.680   2.320   6.940  0.2609  0.0729  0.5647
  194MOL0     C26062   2.760   2.253   7.041  0.5524  0.5740  0.7720
  194MOL0     O26063   2.888   2.203   7.025  0.5827  0.2863  0.1620
  194MOL0     C26064   2.924   2.164   6.888 -0.1220 -0.0867  0.6302
  194MOL0     C26065   3.046   2.060   6.885 -0.5221 -0.3444  0.1279
  194MOL0     C26066   3.188   2.120   6.895 -0.0742 -0.2319 -0.7881
  194MOL0     C26067   3.276   2.003   6.915  0.3925  0.3091 -0.2691
  194MOL0     C26068   3.415   2.042   6.931 -0.1102 -0.6994 -0.4679
  194MOL0     C26069   3.512   1.928   6.902  0.3407  0.2617  0.2705
  194MOL0     C26070   3.653   1.962   6.876 -0.9021 -0.7674 -0.4908
  194MOL0     C26071   3.719   2.036   6.994  0.0641  0.3223  0.0998
  194MOL0     N26072   3.863   2.044   6.992 -0.0898 -0.1263 -0.4299
  194MOL0     C26073   3.954   2.072   6.888  0.5115 -0.7519  0.2159
  194MOL0     C26074   4.072   2.086   6.946 -0.2295  0.2830 -0.2559
  194MOL0     C26075   4.190   2.136   6.878 -0.8489 -0.2134 -1.0124
  194MOL0     C26076   4.276   2.037   6.804 -0.3677  0.0141 -0.2115
  194MOL0     C26077   4.417   2.091   6.761  0.3312  0.6852 -0.0689
  194MOL0     C26078   4.539   2.052   6.845 -0.4360 -0.2152 -0.1251
  194MOL0     O26079   4.652   2.128   6.800 -0.4298  0.4341 -0.1443
  194MOL0     C26080   4.776   2.105   6.851  0.2780  0.4829 -1.0418
  194MOL0     C26081   4.877   2.190   6.806 -0.5593 -0.4108 -0.1330
  194MOL0     C26082   5.010   2.183   6.850  0.2137 -0.4337  0.3643
  194MOL0     C26083   5.045   2.081   6.937 -0.5876  0.2309 -0.2566
  194MOL0     C26084   5.184   2.078   6.979 -0.0809  0.2707 -0.1539
  194MOL0     O26085   5.278   2.157   6.923  0.3490  0.0507 -0.0295
  194MOL0     C26086   5.409   2.131   6.960 -0.1613  0.1067  0.5719
  194MOL0     C26087   5.499   2.083   6.863 -0.0170  1.1880 -0.2356
  194MOL0     C26088   5.629   2.052   6.894  0.2060  0.4777 -0.5713
  194MOL0     C26089   5.687   2.074   7.024  0.5336  0.3780 -0.2991
  194MOL0     O26090   5.809   2.051   7.063  0.0932  0.2346  0.1028
  194MOL0     C26091   5.890   1.971   6.979 -0.0206 -0.4086 -0.4639
  194MOL0     C26092   6.030   1.940   7.053 -0.5471 -0.2012 -0.2810
  194MOL0     C26093   6.107   1.839   6.965 -0.1571  0.7590 -0.0169
  194MOL0     C26094   6.233   1.808   7.044  0.1608 -0.1588 -0.0552
  194MOL0     C26095   6.315   1.698   6.982  0.0287  0.8587 -0.4646
  194MOL0     C26096   6.463   1.707   7.037 -0.7224  0.3056  0.5825
  194MOL0     C26097   6.562   1.616   6.953  0.0479  0.8124 -0.5589
  194MOL0     C26098   6.710   1.614   6.992  0.5019  0.3067  0.6889
  194MOL0    Cl26099   6.756   1.491   7.118  0.7518 -0.3493 -0.1838
  194MOL0     C26100   5.602   2.130   7.118  0.9678 -0.5391 -0.8393
  194MOL0     C26101   5.468   2.152   7.089  0.9399  0.3152 -0.0427
  194MOL0     O26102   5.208   1.996   7.067 -0.4636  0.1401 -0.1050
  194MOL0     C26103   4.944   1.993   6.987  0.2459  0.0285  0.1938
  194MOL0     C26104   4.803   2.002   6.949 -0.0585 -0.6245  0.4101
  194MOL0     N26105   4.061   2.070   7.083 -0.3084  0.1466 -0.1773
  194MOL0     N26106   3.942   2.037   7.111  1.2000  0.2121  0.2714
  194MOL0     C26107   2.694   2.226   7.158  0.1118 -0.4554 -0.2156
  194MOL0     C26108   2.558   2.256   7.173  0.2704  0.3065  0.6526
  194MOL0     C26109   2.179   2.426   7.255  0.1016  0.1676  0.0655
  194MOL0     C26110   2.105   2.445   7.134 -0.0434 -0.1915 -0.1656
  194MOL0     C26111   1.972   2.459   7.132 -0.5561  0.1420  0.2202
  194MOL0     C26112   1.896   2.430   7.255  0.4809 -0.0817  0.0795
  194MOL0     O26113   1.761   2.441   7.269  0.1869 -0.2366  0.1350
  194MOL0     C26114   1.686   2.437   7.149 -0.0077  0.1361  0.4237
  194MOL0     C26115   1.689   2.293   7.089  0.2511  0.0224  0.4538
  194MOL0     C26116   1.653   2.191   7.204  0.4485  0.0435 -0.1192
  194MOL0     C26117   1.633   2.040   7.161  0.1760  0.3719  0.1647
  194MOL0     C26118   1.764   1.983   7.109 -0.8881 -0.0652  0.1915
  194MOL0     C26119   1.871   1.933   7.077  0.4269 -1.2230  0.8458
  194MOL0     C26120   1.965   2.399   7.368  0.2401 -0.2606  0.3005
  194MOL0     C26121   2.108   2.392   7.373  0.5316 -0.0591  0.1077
  194MOL0     C26122   2.163   2.340   7.506  0.4577  0.9858  0.2149
  194MOL0     H26123   2.509   2.438   6.894 -3.1920 -0.1368  1.2881
  194MOL0     H26124   2.722   2.337   6.841 -1.9929  2.4893 -0.0801
  194MOL0     H26125   2.840   2.126   6.828  1.2192  3.3698 -3.9860
  194MOL0     H26126   2.954   2.257   6.839  1.5667 -1.3254 -0.7988
  194MOL0     H26127   3.044   2.003   6.792  0.4438  1.0360 -0.7866
  194MOL0     H26128   3.025   1.996   6.971  1.8960 -0.4858  0.6737
  194MOL0     H26129   3.186   2.180   6.986 -0.7378 -2.3750  0.6952
  194MOL0     H26130   3.217   2.189   6.815  2.9119  0.9411  1.1523
  194MOL0     H26131   3.227   1.955   7.000 -3.1308  0.5502 -1.9992
  194MOL0     H26132   3.271   1.948   6.821 -2.9324  1.8021 -1.1393
  194MOL0     H26133   3.454   2.122   6.867  0.0795 -0.6551 -0.2962
  194MOL0     H26134   3.424   2.075   7.035  1.0353  2.9116 -1.5735
  194MOL0     H26135   3.509   1.863   6.989 -1.0164  0.9355  0.7558
  194MOL0     H26136   3.471   1.872   6.817 -0.0891  2.8811 -1.3694
  194MOL0     H26137   3.651   2.020   6.783 -3.3484 -0.9779 -0.6511
  194MOL0     H26138   3.703   1.866   6.863 -2.3351 -1.5269 -0.5773
  194MOL0     H26139   3.669   2.133   7.003 -0.7292 -0.0578 -0.0866
  194MOL0     H26140   3.695   1.970   7.078 -1.9568 -0.6464 -1.1448
  194MOL0     H26141   3.917   2.083   6.787 -4.9777 -3.4133  1.5265
  194MOL0     H26142   4.153   2.208   6.804 -0.5769  1.5975  0.5352
  194MOL0     H26143   4.258   2.193   6.941  0.5472 -0.8998 -1.8627
  194MOL0     H26144   4.274   1.937   6.849 -0.2901  0.1138  0.0108
  194MOL0     H26145   4.223   2.014   6.711 -1.0237 -1.0224  0.3935
  194MOL0     H26146   4.414   2.200   6.751 -2.4100  0.9600  2.2419
  194MOL0     H26147   4.443   2.046   6.665  1.7974 -0.2095  0.7061
  194MOL0     H26148   4.568   1.948   6.829  0.3172  0.2393 -2.0498
  194MOL0     H26149   4.522   2.078   6.950  2.3154  0.1774  0.2932
  194MOL0     H26150   4.841   2.257   6.729  0.1045 -2.9447 -2.8377
  194MOL0     H26151   5.072   2.254   6.797 -1.3674  0.7602  0.0532
  194MOL0     H26152   5.466   2.047   6.766  2.0109 -2.4272  0.2492
  194MOL0     H26153   5.689   2.013   6.812  0.0216 -1.0828 -0.0019
  194MOL0     H26154   5.841   1.877   6.954 -0.9782 -0.2422  0.6971
  194MOL0     H26155   5.925   2.037   6.899  2.9227  1.8110  2.3824
  194MOL0     H26156   6.095   2.028   7.052  0.1078 -0.6695 -1.1741
  194MOL0     H26157   6.011   1.904   7.154  1.9066 -1.4208 -0.1896
  194MOL0     H26158   6.050   1.746   6.956  2.4442 -1.0184  0.4879
  194MOL0     H26159   6.136   1.883   6.869  3.3766  1.3563  1.1660
  194MOL0     H26160   6.210   1.769   7.143 -2.4969  1.7039  0.1803
  194MOL0     H26161   6.277   1.908   7.057  0.1933 -0.3723  1.6933
  194MOL0     H26162   6.323   1.709   6.874 -3.8422 -0.7303 -1.0603
  194MOL0     H26163   6.269   1.601   7.004  2.1684  0.0308  0.6773
  194MOL0     H26164   6.504   1.806   7.017 -0.9191  0.2678 -0.0108
  194MOL0     H26165   6.474   1.681   7.143 -1.8477  0.0209  0.6423
  194MOL0     H26166   6.550   1.643   6.848 -1.2769 -2.1364 -1.2759
  194MOL0     H26167   6.527   1.513   6.970  0.4865  1.1789  3.7290
  194MOL0     H26168   6.772   1.599   6.903 -0.1408 -0.5860  0.3745
  194MOL0     H26169   6.733   1.720   7.009  0.3186  0.6458 -1.0003
  194MOL0     H26170   5.648   2.130   7.217  1.4571 -1.6960 -1.0522
  194MOL0     H26171   5.409   2.193   7.170  1.8800  3.0051 -0.5955
  194MOL0     H26172   4.968   1.925   7.069 -1.4827  1.9490  2.4540
  194MOL0     H26173   4.728   1.944   7.001  2.1300 -3.1568  0.9370
  194MOL0     H26174   2.758   2.167   7.223  0.1234  0.9931  1.1462
  194MOL0     H26175   2.509   2.225   7.265 -0.3646  2.0768  0.9459
  194MOL0     H26176   2.169   2.458   7.047 -0.5810 -0.4492 -0.6076
  194MOL0     H26177   1.923   2.492   7.041  3.7346  1.6262 -1.8375
  194MOL0     H26178   1.718   2.511   7.075  0.1251 -1.7663 -1.5404
  194MOL0     H26179   1.583   2.448   7.184 -0.1776  1.3852 -0.4000
  194MOL0     H26180   1.789   2.275   7.049 -0.0611  0.9932 -0.8124
  194MOL0     H26181   1.612   2.280   7.014 -1.6160  3.3162  1.5834
  194MOL0     H26182   1.562   2.225   7.253  1.3512  0.4388  1.3486
  194MOL0     H26183   1.727   2.179   7.284 -0.3543 -3.3984  0.2472
  194MOL0     H26184   1.599   1.984   7.249  1.0684  1.5719  1.3148
  194MOL0     H26185   1.560   2.031   7.081 -0.7728 -0.5896  1.1083
  194MOL0     H26186   1.967   1.889   7.055  3.6341  3.8789  2.7770
  194MOL0     H26187   1.906   2.383   7.458 -0.6328  0.9064 -0.0373
  194MOL0     H26188   2.081   2.302   7.567  0.2743  1.7969  0.4878
  194MOL0     H26189   2.245   2.268   7.498 -0.3448  0.2491 -1.8408
  194MOL0     H26190   2.208   2.420   7.566  3.3571  0.4655 -1.0688
  195MOL0     O26191   0.920  11.113   5.068 -0.4849 -0.3235  0.3087
  195MOL0     C26192   0.832  11.139   5.156 -0.4688  0.3430  0.6318
  195MOL0     O26193   0.829  11.101   5.284  0.1681  0.4178  0.1276
  195MOL0     C26194   0.935  11.035   5.330 -0.7216  0.2147 -0.1130
  195MOL0     C26195   1.063  11.092   5.359  0.3689  0.0809 -0.7860
  195MOL0     C26196   1.155  11.018   5.429 -0.5313 -1.0673 -0.8589
  195MOL0     C26197   1.137  10.881   5.453  0.1385 -0.1994  0.4357
  195MOL0     O26198   1.244  10.824   5.511  0.1226 -0.0021  0.4088
  195MOL0     C26199   1.239  10.706   5.588  0.4005  1.1284 -0.4105
  195MOL0     C26200   1.337  10.613   5.507  0.4923 -0.3640 -0.4055
  195MOL0     C26201   1.321  10.460   5.521  0.3011  0.6834 -0.4712
  195MOL0     C26202   1.382  10.408   5.654 -0.4833 -0.2696 -0.4370
  195MOL0     C26203   1.534  10.419   5.669  0.5507 -0.4132  0.0824
  195MOL0     C26204   1.587  10.358   5.795 -0.2767 -0.0175 -0.1378
  195MOL0     C26205   1.745  10.362   5.802 -1.0161  0.3981 -0.2794
  195MOL0     C26206   1.809  10.269   5.909  0.2868 -0.0553  0.3238
  195MOL0     N26207   1.766  10.299   6.044  0.3177  0.4281 -0.5378
  195MOL0     C26208   1.694  10.221   6.133  0.6966 -0.0893 -0.0685
  195MOL0     C26209   1.668  10.295   6.247  0.1183 -0.4603 -0.1406
  195MOL0     C26210   1.577  10.242   6.357 -0.3438  0.4161 -0.2822
  195MOL0     C26211   1.437  10.192   6.305 -0.1783 -0.1726  0.0546
  195MOL0     C26212   1.360  10.323   6.268  0.0275 -1.1373  0.1701
  195MOL0     C26213   1.209  10.292   6.271 -0.4239 -0.2287 -0.6456
  195MOL0     O26214   1.192  10.191   6.180  0.4918  0.0470 -0.1419
  195MOL0     C26215   1.070  10.124   6.180  0.2376  0.1532 -0.1504
  195MOL0     C26216   1.030  10.047   6.071  0.0522  0.3729  0.2162
  195MOL0     C26217   0.920   9.968   6.072  1.4249 -0.8934  0.6006
  195MOL0     C26218   0.837   9.967   6.187 -0.0763  0.6211  0.3124
  195MOL0     C26219   0.719   9.880   6.194 -0.3010 -0.2144 -0.4063
  195MOL0     O26220   0.626   9.892   6.107  0.0119 -0.5285  0.4039
  195MOL0     C26221   0.529   9.800   6.094  1.1935 -0.1228 -0.1073
  195MOL0     C26222   0.406   9.846   6.056  0.4580  0.5568 -0.4576
  195MOL0     C26223   0.299   9.754   6.047 -1.0323 -0.9717  0.4563
  195MOL0     C26224   0.316   9.616   6.044  0.1283  0.1127 -0.4466
  195MOL0     O26225   0.210   9.538   6.011 -0.2019 -0.1191 -0.5019
  195MOL0     C26226   0.212   9.404   6.067 -0.1708  0.2940 -0.2078
  195MOL0     C26227   0.069   9.344   6.056 -0.2435  0.2911  0.2831
  195MOL0     C26228   0.037   9.294   5.911  0.4698  0.7231  0.0493
  195MOL0     C26229  -0.081   9.194   5.914  0.4025 -0.6271 -0.0073
  195MOL0     C26230  -0.208   9.241   5.981  0.6185 -0.0251 -0.0896
  195MOL0     C26231  -0.262   9.371   5.938  1.1484  0.4432 -0.5062
  195MOL0     C26232  -0.380   9.421   6.028  0.8639 -0.4096  1.3614
  195MOL0     C26233  -0.515   9.368   5.985 -0.7046  0.6689  0.0977
  195MOL0    Cl26234  -0.545   9.453   5.832  0.2034 -0.0644 -0.1374
  195MOL0     C26235   0.444   9.571   6.075  0.3073 -0.5359 -0.7935
  195MOL0     C26236   0.547   9.660   6.106  1.0204  0.0396 -0.0643
  195MOL0     O26237   0.724   9.799   6.290  0.4841 -0.6074 -0.2729
  195MOL0     C26238   0.870  10.042   6.290  0.0625 -0.0456 -0.6014
  195MOL0     C26239   0.977  10.126   6.288 -0.8768 -0.5085  0.5244
  195MOL0     N26240   1.720  10.420   6.217 -0.3377  1.1891  0.7307
  195MOL0     N26241   1.783  10.418   6.098 -0.2423  0.0041  0.3977
  195MOL0     C26242   1.021  10.815   5.414 -0.8897  0.1357  0.2700
  195MOL0     C26243   0.916  10.898   5.364  0.1819 -0.5841  0.2059
  195MOL0     C26244   0.701  11.194   5.104  0.8890  0.0362  1.0872
  195MOL0     C26245   0.582  11.165   5.177  0.3630 -0.5354  0.0889
  195MOL0     C26246   0.458  11.215   5.139 -0.0092  0.4776  1.4238
  195MOL0     C26247   0.444  11.272   5.014 -0.3560 -0.2130  0.7842
  195MOL0     O26248   0.325  11.311   4.971 -0.5836  0.8253  0.4061
  195MOL0     C26249   0.288  11.263   4.840  0.2930 -1.0539  0.5811
  195MOL0     C26250   0.169  11.171   4.846 -0.8921 -0.3237 -0.5614
  195MOL0     C26251   0.042  11.227   4.915  0.8998 -0.5126 -0.7284
  195MOL0     C26252  -0.092  11.178   4.856 -0.0773 -0.5299  0.1594
  195MOL0     C26253  -0.103  11.242   4.723  0.3590 -0.2809 -0.1962
  195MOL0     C26254  -0.115  11.299   4.614  0.3987 -0.3481  0.3375
  195MOL0     C26255   0.563  11.319   4.943 -1.6523  0.4714 -0.3239
  195MOL0     C26256   0.699  11.285   4.989  1.3923 -0.1632 -0.7655
  195MOL0     C26257   0.810  11.352   4.930  0.0329 -0.2099  0.0901
  195MOL0     H26258   1.077  11.199   5.346  0.7742  0.1502  0.1360
  195MOL0     H26259   1.244  11.065   5.467 -2.1445  1.3560  0.1572
  195MOL0     H26260   1.278  10.724   5.689 -0.9800  3.1354 -0.1714
  195MOL0     H26261   1.141  10.659   5.602  0.2583  1.6934  0.5333
  195MOL0     H26262   1.442  10.640   5.526 -0.0458  1.4137  0.2370
  195MOL0     H26263   1.315  10.645   5.405 -0.0612  0.2571 -0.0973
  195MOL0     H26264   1.379  10.406   5.446 -0.9162 -0.4667 -0.6183
  195MOL0     H26265   1.216  10.430   5.509  1.1764 -2.1641 -1.9390
  195MOL0     H26266   1.338  10.466   5.737 -1.8950  0.4424 -1.6388
  195MOL0     H26267   1.355  10.302   5.659 -0.8177 -0.1931 -0.5826
  195MOL0     H26268   1.579  10.369   5.583  0.3149  1.7781 -1.4042
  195MOL0     H26269   1.571  10.522   5.674  0.2355 -0.3511  2.7161
  195MOL0     H26270   1.546  10.405   5.884 -2.2411  1.2399 -1.6242
  195MOL0     H26271   1.556  10.253   5.789  1.4940 -0.6303  0.6319
  195MOL0     H26272   1.766  10.468   5.821 -0.7434  1.0490 -3.6803
  195MOL0     H26273   1.782  10.333   5.704 -2.6159 -1.1012 -0.4701
  195MOL0     H26274   1.774  10.170   5.880  0.6381 -0.6039  1.6863
  195MOL0     H26275   1.918  10.281   5.906  0.3186 -0.1828 -3.0996
  195MOL0     H26276   1.655  10.120   6.120  0.1209 -0.0230  1.0948
  195MOL0     H26277   1.620  10.152   6.402  2.7343  1.1342 -1.5724
  195MOL0     H26278   1.571  10.319   6.434  2.3363 -1.7106  2.3028
  195MOL0     H26279   1.443  10.130   6.216 -2.1793 -4.0999  2.3868
  195MOL0     H26280   1.396  10.136   6.389  0.9590  1.9222  2.1374
  195MOL0     H26281   1.390  10.361   6.170 -0.4616 -2.9301 -0.7133
  195MOL0     H26282   1.374  10.399   6.345 -3.3206  1.3118 -1.3585
  195MOL0     H26283   1.141  10.374   6.248  0.1449  0.1062 -1.1268
  195MOL0     H26284   1.192  10.251   6.371 -1.4161 -1.8807 -1.4547
  195MOL0     H26285   1.102  10.037   5.990  1.3862  1.6785  1.1716
  195MOL0     H26286   0.898   9.918   5.979  0.9003  1.1178 -0.4157
  195MOL0     H26287   0.398   9.954   6.049  1.7481  0.8591  1.7817
  195MOL0     H26288   0.196   9.788   6.045 -0.7415 -0.0853 -0.6413
  195MOL0     H26289   0.290   9.340   6.024 -1.0232 -0.6313 -0.4033
  195MOL0     H26290   0.233   9.412   6.175  2.2028  0.5534 -0.6255
  195MOL0     H26291   0.059   9.260   6.126 -0.5215  1.8681  2.1945
  195MOL0     H26292   0.001   9.422   6.089  2.6076  1.9084  2.7428
  195MOL0     H26293   0.016   9.383   5.851  0.4523  0.6353 -0.0752
  195MOL0     H26294   0.124   9.239   5.872  1.0335  0.7789  1.2109
  195MOL0     H26295  -0.048   9.107   5.971  2.3664 -0.4680 -0.8097
  195MOL0     H26296  -0.105   9.162   5.812 -2.4737 -0.3509  0.5113
  195MOL0     H26297  -0.199   9.228   6.090 -1.5327  0.8487  0.2367
  195MOL0     H26298  -0.283   9.166   5.955  1.1391 -0.7799  0.5219
  195MOL0     H26299  -0.178   9.442   5.934 -0.5479  2.4865 -1.9613
  195MOL0     H26300  -0.296   9.363   5.835 -2.3475  0.3489  0.5161
  195MOL0     H26301  -0.383   9.530   6.016 -0.0979 -0.3633  1.9441
  195MOL0     H26302  -0.373   9.402   6.135 -4.1480  1.8075  2.3598
  195MOL0     H26303  -0.517   9.261   5.963 -1.5342  1.2066 -2.9801
  195MOL0     H26304  -0.591   9.395   6.059 -0.4815 -0.3041  0.7003
  195MOL0     H26305   0.481   9.471   6.094  2.3157  0.0257 -1.5377
  195MOL0     H26306   0.646   9.619   6.124  1.7273  2.1739  1.2829
  195MOL0     H26307   0.817  10.035   6.385  0.0465  0.7753 -0.5386
  195MOL0     H26308   0.994  10.194   6.371 -3.8574  0.5250  0.4028
  195MOL0     H26309   1.021  10.706   5.415 -2.4066 -0.0105 -2.8831
  195MOL0     H26310   0.819  10.854   5.345  0.2545 -1.1601  1.1011
  195MOL0     H26311   0.596  11.089   5.253 -1.3205 -1.7502 -0.7538
  195MOL0     H26312   0.386  11.190   5.216 -0.5623 -1.1980  0.4066
  195MOL0     H26313   0.366  11.208   4.788 -1.4869 -0.8905 -2.5276
  195MOL0     H26314   0.263  11.345   4.772 -1.2516  0.6042  2.9756
  195MOL0     H26315   0.216  11.091   4.904  0.6149  2.0941  1.7932
  195MOL0     H26316   0.149  11.147   4.741 -0.8214  2.7242 -1.3856
  195MOL0     H26317   0.060  11.335   4.912  1.8797 -0.6641 -2.8347
  195MOL0     H26318   0.048  11.200   5.021 -3.5633  2.0862  0.4499
  195MOL0     H26319  -0.108  11.071   4.843 -1.6956 -0.2007 -0.8159
  195MOL0     H26320  -0.179  11.201   4.917 -0.7687  1.3482 -1.4317
  195MOL0     H26321  -0.119  11.344   4.517  2.2962  2.0386  1.2702
  195MOL0     H26322   0.545  11.381   4.856 -3.3079 -1.9716 -1.8357
  195MOL0     H26323   0.799  11.329   4.824  1.2468 -3.6756  0.5869
  195MOL0     H26324   0.805  11.460   4.949  2.0396 -0.3623  1.8578
  195MOL0     H26325   0.909  11.315   4.957 -0.0819 -0.2670  0.4513
  196MOL0     O26326   5.233  10.581  10.091  0.4295 -0.5906 -0.6226
  196MOL0     C26327   5.213  10.698  10.120  0.0270  0.5416  0.3668
  196MOL0     O26328   5.292  10.770  10.202  0.5492  0.0415  0.1921
  196MOL0     C26329   5.418  10.736  10.229 -0.1273  0.0241 -1.2658
  196MOL0     C26330   5.517  10.831  10.195 -0.3801  0.3077 -0.6105
  196MOL0     C26331   5.650  10.800  10.225 -0.1312  0.3033 -0.3754
  196MOL0     C26332   5.686  10.675  10.273 -0.2513  1.1938 -0.2051
  196MOL0     O26333   5.813  10.640  10.306 -0.2772 -0.0619 -0.7445
  196MOL0     C26334   5.927  10.681  10.217  0.3764  0.0688 -0.3296
  196MOL0     C26335   5.981  10.547  10.159 -0.2538 -0.4173  0.4981
  196MOL0     C26336   6.083  10.581  10.042  0.0340 -0.1756 -0.2786
  196MOL0     C26337   6.021  10.564   9.908 -0.7123  1.1300  0.2113
  196MOL0     C26338   6.102  10.587   9.787 -0.1450 -0.0831  0.5247
  196MOL0     C26339   6.010  10.564   9.665 -0.2645 -0.3221 -0.2956
  196MOL0     C26340   6.075  10.577   9.529 -0.7908 -0.3953 -0.3623
  196MOL0     C26341   6.195  10.490   9.510  0.8165  0.4475  0.3299
  196MOL0     N26342   6.150  10.351   9.505 -0.5474  0.0276  0.1774
  196MOL0     C26343   6.178  10.266   9.607  0.2616 -0.3167  0.0081
  196MOL0     C26344   6.141  10.142   9.562 -0.1377  0.1657 -0.2236
  196MOL0     C26345   6.130  10.018   9.644 -0.2500  0.0329  0.0556
  196MOL0     C26346   6.192   9.901   9.566  0.4327 -0.2196 -0.6547
  196MOL0     C26347   6.203   9.777   9.652 -0.3635  0.4921 -0.3311
  196MOL0     C26348   6.335   9.768   9.723 -0.2276  0.3832  0.5473
  196MOL0     O26349   6.452   9.767   9.636 -0.6095  0.1021 -0.7175
  196MOL0     C26350   6.571   9.821   9.673 -0.5297 -0.1689  0.4212
  196MOL0     C26351   6.677   9.820   9.577  1.5033 -0.8347  0.0298
  196MOL0     C26352   6.799   9.881   9.608 -0.7932 -0.7524 -0.0141
  196MOL0     C26353   6.832   9.937   9.733  0.3933 -0.1982  0.4482
  196MOL0     C26354   6.957  10.009   9.765  0.6408 -0.2290 -0.5511
  196MOL0     O26355   7.038  10.042   9.657  0.5942 -0.0001 -0.6675
  196MOL0     C26356   7.175  10.088   9.670  1.0768  1.1033  1.0877
  196MOL0     C26357   7.245  10.075   9.791 -0.6156 -0.1498 -0.2639
  196MOL0     C26358   7.379  10.116   9.794  0.1022  0.3261 -0.5420
  196MOL0     C26359   7.450  10.155   9.684  0.2560  0.0754  0.2607
  196MOL0     O26360   7.584  10.194   9.709 -0.3344  0.0624 -0.2690
  196MOL0     C26361   7.667  10.193   9.591 -0.9262 -0.1157  0.7747
  196MOL0     C26362   7.805  10.239   9.626  0.2971 -0.1231 -0.7115
  196MOL0     C26363   7.886  10.312   9.512  0.2349  0.0065 -0.4065
  196MOL0     C26364   7.828  10.451   9.479 -0.5199 -0.3562  1.0811
  196MOL0     C26365   7.906  10.524   9.364 -0.0279  0.3169 -0.1619
  196MOL0     C26366   7.880  10.466   9.227  0.5045  0.0290 -0.2665
  196MOL0     C26367   7.992  10.489   9.120 -0.0125  0.1122 -0.4970
  196MOL0     C26368   7.932  10.508   8.978 -0.5099 -0.6131  0.4539
  196MOL0    Cl26369   7.841  10.365   8.944  0.2473  0.3658  0.3817
  196MOL0     C26370   7.383  10.165   9.560 -0.6928  0.0602  0.2112
  196MOL0     C26371   7.246  10.126   9.553 -0.7031  0.1876 -0.3522
  196MOL0     O26372   6.978  10.046   9.880 -0.3670  0.2435 -0.5858
  196MOL0     C26373   6.734   9.918   9.832  0.5736 -0.1066 -0.4902
  196MOL0     C26374   6.610   9.869   9.800  0.5894 -0.6396  0.3398
  196MOL0     N26375   6.087  10.156   9.441  0.5581 -0.4751  0.1478
  196MOL0     N26376   6.103  10.277   9.401  0.9845 -0.1176  0.8356
  196MOL0     C26377   5.590  10.576  10.306 -0.3808  0.6520 -0.1048
  196MOL0     C26378   5.454  10.611  10.290  0.3176 -0.2068 -0.0159
  196MOL0     C26379   5.105  10.763  10.056  1.2050  0.2062  1.1302
  196MOL0     C26380   5.100  10.904  10.064 -0.7082  0.5578  0.5225
  196MOL0     C26381   4.996  10.985   9.997  0.1590  0.3042 -0.6551
  196MOL0     C26382   4.906  10.923   9.915 -1.3418  0.1856  0.4246
  196MOL0     O26383   4.826  11.004   9.842 -0.0088 -0.7871  0.0447
  196MOL0     C26384   4.739  10.964   9.736  0.7395 -0.2741 -0.4993
  196MOL0     C26385   4.673  11.090   9.666  0.4154 -0.1356 -0.5190
  196MOL0     C26386   4.780  11.134   9.574 -0.4042  0.3545  0.5781
  196MOL0     C26387   4.738  11.249   9.483  0.2691 -0.2010 -0.3914
  196MOL0     C26388   4.592  11.248   9.457 -0.7638 -0.4355 -0.3019
  196MOL0     C26389   4.475  11.269   9.437 -0.6103 -0.9436 -0.3003
  196MOL0     C26390   4.907  10.782   9.892  0.3431 -0.0719  0.1819
  196MOL0     C26391   5.003  10.704   9.965 -0.0602  0.3015  0.2898
  196MOL0     C26392   5.000  10.553   9.946  0.2672 -0.0025 -0.3750
  196MOL0     H26393   5.493  10.932  10.163 -0.1094  0.4910 -0.2420
  196MOL0     H26394   5.718  10.880  10.198  0.4121 -0.5090 -1.4420
  196MOL0     H26395   5.905  10.753  10.138  0.2871 -1.5933 -1.8925
  196MOL0     H26396   6.011  10.720  10.274  0.2998  0.1639 -0.2807
  196MOL0     H26397   5.897  10.487  10.122  0.1565 -0.4945 -0.3390
  196MOL0     H26398   6.033  10.487  10.234  2.7337  1.8568  0.4129
  196MOL0     H26399   6.157  10.501  10.030 -1.0466 -0.9818 -1.9355
  196MOL0     H26400   6.128  10.680  10.052 -0.0614 -0.2060  0.5270
  196MOL0     H26401   5.963  10.472   9.899 -1.3319  1.4185  1.0986
  196MOL0     H26402   5.947  10.642   9.890  0.2922  1.7387 -1.5501
  196MOL0     H26403   6.151  10.684   9.797  1.0622 -0.4654 -1.1532
  196MOL0     H26404   6.192  10.523   9.783 -0.2844 -0.2254 -0.7230
  196MOL0     H26405   5.962  10.467   9.679 -0.1733 -0.3038  0.1834
  196MOL0     H26406   5.927  10.635   9.665  0.2304  0.3086  1.3092
  196MOL0     H26407   6.120  10.677   9.522  4.2441 -2.2647  0.9904
  196MOL0     H26408   6.005  10.575   9.445 -2.0994  0.8072  0.6416
  196MOL0     H26409   6.249  10.525   9.421  0.8413  4.9646  1.8722
  196MOL0     H26410   6.266  10.492   9.593  0.1164 -2.7667  1.1513
  196MOL0     H26411   6.221  10.281   9.706  0.1499  0.4834 -0.0545
  196MOL0     H26412   6.179  10.029   9.742  0.6733 -3.0999  0.0491
  196MOL0     H26413   6.023  10.001   9.664 -0.5216 -1.5149 -2.3431
  196MOL0     H26414   6.116   9.878   9.491 -0.0136 -1.4475  0.1344
  196MOL0     H26415   6.287   9.921   9.515 -0.0859 -1.4822 -2.2084
  196MOL0     H26416   6.195   9.691   9.585  0.6852  0.4229 -0.3793
  196MOL0     H26417   6.130   9.773   9.734  0.5986 -0.4262  0.5139
  196MOL0     H26418   6.336   9.688   9.798  2.4319  2.2611  2.6803
  196MOL0     H26419   6.340   9.853   9.792  0.3168  0.4303  0.4525
  196MOL0     H26420   6.654   9.777   9.480 -0.4383 -2.5143  1.1422
  196MOL0     H26421   6.867   9.902   9.526  0.1464  2.2037  1.3919
  196MOL0     H26422   7.195  10.045   9.882 -0.9515  1.0783 -0.0333
  196MOL0     H26423   7.431  10.105   9.888 -1.1019  0.2088  0.1309
  196MOL0     H26424   7.677  10.091   9.554  0.0207  0.2056  0.1106
  196MOL0     H26425   7.624  10.258   9.514 -0.5358 -2.4685 -1.5357
  196MOL0     H26426   7.798  10.312   9.708  0.0096 -0.8396 -0.0895
  196MOL0     H26427   7.864  10.151   9.650 -2.4145 -2.7349 -2.8881
  196MOL0     H26428   7.987  10.327   9.552 -0.2850 -0.6651  1.2739
  196MOL0     H26429   7.898  10.247   9.425 -1.2794  0.5407 -1.0487
  196MOL0     H26430   7.839  10.512   9.569  0.8398  1.1064 -0.0144
  196MOL0     H26431   7.722  10.457   9.452 -0.3770 -0.9555  0.3271
  196MOL0     H26432   8.011  10.525   9.393 -0.4452  0.2744  1.4570
  196MOL0     H26433   7.894  10.632   9.369  0.5896  0.4524 -1.2079
  196MOL0     H26434   7.865  10.358   9.239  1.1348  0.1110  1.5654
  196MOL0     H26435   7.787  10.509   9.190  0.7999  0.9601  0.0432
  196MOL0     H26436   8.057  10.401   9.117 -1.5005 -1.0728  0.5571
  196MOL0     H26437   8.058  10.573   9.142 -2.3016  2.3563 -1.6963
  196MOL0     H26438   7.862  10.591   8.979  1.2042  0.8835  1.1216
  196MOL0     H26439   8.007  10.535   8.904 -1.1629  1.3539  0.4654
  196MOL0     H26440   7.447  10.178   9.472 -1.4509  0.7371 -0.2492
  196MOL0     H26441   7.196  10.114   9.458 -0.0720 -2.9416 -0.3953
  196MOL0     H26442   6.764   9.955   9.929 -1.2251 -0.0897  0.1069
  196MOL0     H26443   6.539   9.874   9.881  0.6870 -0.7124  0.4306
  196MOL0     H26444   5.617  10.485  10.359  0.8846  2.2733  2.2097
  196MOL0     H26445   5.383  10.534  10.315 -3.0675  2.8391  0.5810
  196MOL0     H26446   5.174  10.951  10.128  0.6449 -1.8218  0.7867
  196MOL0     H26447   4.987  11.091  10.018  0.1751  0.0969  0.4194
  196MOL0     H26448   4.660  10.906   9.785  0.5625  1.1364  0.9701
  196MOL0     H26449   4.791  10.906   9.659  0.5601 -0.7740 -0.2506
  196MOL0     H26450   4.637  11.170   9.732 -2.1014 -1.4744 -0.1152
  196MOL0     H26451   4.580  11.057   9.618  0.7496 -0.4527 -0.9497
  196MOL0     H26452   4.790  11.050   9.504  0.0918 -1.0169  2.2127
  196MOL0     H26453   4.873  11.144   9.631 -1.6218 -0.2107  2.7370
  196MOL0     H26454   4.775  11.342   9.525 -0.9659  0.3004 -0.3601
  196MOL0     H26455   4.795  11.241   9.390 -0.3707 -2.0173 -0.6874
  196MOL0     H26456   4.374  11.303   9.425 -0.7257 -1.1271  0.1171
  196MOL0     H26457   4.835  10.739   9.824  0.4573  0.3912 -0.2342
  196MOL0     H26458   4.998  10.497  10.039 -0.5245 -0.1807 -0.4902
  196MOL0     H26459   4.907  10.519   9.899  0.3882  0.8124 -1.2380
  196MOL0     H26460   5.088  10.532   9.884  0.0722  1.4973 -1.2215
  197MOL0     O26461   3.278   9.752   3.775 -0.3839  0.0078  0.3406
  197MOL0     C26462   3.349   9.650   3.762 -0.2896  0.0147  0.6337
  197MOL0     O26463   3.478   9.625   3.800 -0.2295 -0.6053  0.1748
  197MOL0     C26464   3.559   9.733   3.829 -0.1161 -0.0952 -0.2176
  197MOL0     C26465   3.663   9.708   3.917 -0.7691 -0.1580 -0.7514
  197MOL0     C26466   3.744   9.821   3.969  0.7461 -0.2946 -0.1019
  197MOL0     C26467   3.720   9.951   3.919  0.6148 -0.9498 -0.5127
  197MOL0     O26468   3.792  10.070   3.942  0.4362 -0.4261 -0.4361
  197MOL0     C26469   3.913  10.047   4.008  0.5722 -0.4084 -0.2234
  197MOL0     C26470   4.000  10.177   3.988  1.0969  0.0138  0.3844
  197MOL0     C26471   4.150  10.158   4.003 -0.3669  0.0129  0.1827
  197MOL0     C26472   4.202  10.135   4.149 -0.1344  0.1276 -0.2633
  197MOL0     C26473   4.353  10.160   4.161 -0.3704  0.0515 -0.2563
  197MOL0     C26474   4.444  10.053   4.091 -0.3516 -0.3965  0.5444
  197MOL0     C26475   4.596  10.094   4.086 -0.0244  0.3805 -0.4132
  197MOL0     C26476   4.653  10.085   4.228 -0.0907 -0.3008  1.2130
  197MOL0     N26477   4.802  10.092   4.219 -0.2213 -0.4922  0.7660
  197MOL0     C26478   4.870  10.205   4.247  0.2378  0.4712 -0.2144
  197MOL0     C26479   5.002  10.176   4.237 -0.3950 -0.6639 -0.2781
  197MOL0     C26480   5.122  10.271   4.237 -0.2377  0.3310 -0.4063
  197MOL0     C26481   5.249  10.212   4.294 -0.7896  0.2051  1.1368
  197MOL0     C26482   5.324  10.096   4.211  0.1762 -0.7269 -1.2266
  197MOL0     C26483   5.364  10.142   4.072 -0.3847  0.0745  0.7507
  197MOL0     O26484   5.461  10.246   4.086 -0.5483  0.6303  0.7474
  197MOL0     C26485   5.594  10.204   4.116 -0.1592 -0.2159 -0.2870
  197MOL0     C26486   5.664  10.078   4.089 -0.1095 -0.5193  0.6704
  197MOL0     C26487   5.804  10.058   4.119  0.0477 -0.2683 -1.0829
  197MOL0     C26488   5.875  10.162   4.180 -0.0783 -0.1630  0.3846
  197MOL0     C26489   6.016  10.150   4.209 -0.3319 -0.5572  1.6082
  197MOL0     O26490   6.080  10.036   4.172  0.6195 -0.6878 -0.7547
  197MOL0     C26491   6.219  10.021   4.166 -0.2818  0.0484  0.2614
  197MOL0     C26492   6.303  10.129   4.145  0.7063  0.1055 -0.0792
  197MOL0     C26493   6.445  10.098   4.138  0.0242  0.1154  0.0231
  197MOL0     C26494   6.502   9.968   4.155 -0.3360 -0.4999  0.4506
  197MOL0     O26495   6.638   9.951   4.158 -0.3015  0.2007  0.3394
  197MOL0     C26496   6.723  10.053   4.119  0.5517  0.5532  0.1006
  197MOL0     C26497   6.867  10.003   4.113 -0.2786 -0.0481 -0.0196
  197MOL0     C26498   6.927   9.959   4.252  0.8318  0.4408 -0.6978
  197MOL0     C26499   7.074   9.920   4.248 -0.4861  0.4538 -0.0134
  197MOL0     C26500   7.136   9.911   4.390  0.8944 -0.1201 -0.1674
  197MOL0     C26501   7.280   9.867   4.386 -0.5088 -1.0814 -0.4534
  197MOL0     C26502   7.369   9.917   4.514 -0.4373 -0.1417 -0.1537
  197MOL0     C26503   7.513   9.885   4.491  0.1142 -0.5190  0.1266
  197MOL0    Cl26504   7.641  10.007   4.550 -0.1516 -0.1778 -0.2245
  197MOL0     C26505   6.403   9.861   4.162 -0.8148 -0.1459 -0.0279
  197MOL0     C26506   6.268   9.888   4.162 -0.5818 -0.3150 -0.3701
  197MOL0     O26507   6.067  10.248   4.269 -0.7455  1.0124  0.0804
  197MOL0     C26508   5.797  10.279   4.218 -0.5596  0.2861 -0.4260
  197MOL0     C26509   5.662  10.292   4.196 -0.8068 -0.7403  0.3258
  197MOL0     N26510   5.005  10.050   4.182  0.3193  0.0416  0.8544
  197MOL0     N26511   4.889  10.001   4.177 -0.1703  0.3731  0.1694
  197MOL0     C26512   3.616   9.967   3.829  0.4159  0.3862  0.7859
  197MOL0     C26513   3.543   9.859   3.777  0.0625 -0.1002 -0.4915
  197MOL0     C26514   3.275   9.539   3.692  0.5134 -0.8436  0.6382
  197MOL0     C26515   3.353   9.424   3.671 -0.4714  1.1338 -0.0892
  197MOL0     C26516   3.302   9.304   3.625  0.6530 -0.1821 -0.6940
  197MOL0     C26517   3.172   9.292   3.583  0.1332 -0.2848 -0.3418
  197MOL0     O26518   3.121   9.178   3.521  0.4504 -0.0955  0.5654
  197MOL0     C26519   2.980   9.165   3.508  0.5529 -0.0275 -0.2697
  197MOL0     C26520   2.940   9.016   3.527 -0.2566  0.1497  0.1841
  197MOL0     C26521   2.832   8.972   3.424  0.6274 -0.0075 -0.1635
  197MOL0     C26522   2.729   8.862   3.464  0.5710 -0.8329  0.4107
  197MOL0     C26523   2.645   8.905   3.573  0.1523  0.4483 -0.5953
  197MOL0     C26524   2.572   8.941   3.664 -0.3584 -0.2555 -0.2911
  197MOL0     C26525   3.101   9.416   3.588 -0.4612 -0.3318 -0.0564
  197MOL0     C26526   3.150   9.543   3.630 -0.1813  0.8720  0.3826
  197MOL0     C26527   3.064   9.668   3.615  0.3705 -0.2634  0.5804
  197MOL0     H26528   3.685   9.611   3.959  1.2851  0.8110  0.6189
  197MOL0     H26529   3.824   9.804   4.040  0.7644  1.3468  0.3251
  197MOL0     H26530   3.896  10.030   4.115 -2.8468 -0.9320 -0.7419
  197MOL0     H26531   3.960   9.955   3.973 -0.0291 -1.3527  1.3288
  197MOL0     H26532   3.950  10.238   4.064 -1.7326 -0.1090 -1.2099
  197MOL0     H26533   3.977  10.223   3.891 -1.6997 -0.2712  0.8066
  197MOL0     H26534   4.199  10.252   3.976 -1.5881  1.3162  2.2285
  197MOL0     H26535   4.181  10.081   3.933 -0.5462  0.4016 -0.3273
  197MOL0     H26536   4.143  10.199   4.215 -1.7957 -2.2234  0.6944
  197MOL0     H26537   4.191  10.034   4.192 -0.5524  0.4142  0.3155
  197MOL0     H26538   4.381  10.260   4.125  1.5859 -0.5158 -0.4591
  197MOL0     H26539   4.378  10.157   4.267  1.6437  0.3928 -0.6828
  197MOL0     H26540   4.438   9.964   4.154  0.3327 -0.2011  0.8926
  197MOL0     H26541   4.407  10.041   3.988  2.3496  1.3738 -0.7576
  197MOL0     H26542   4.609  10.193   4.041  2.1729 -0.9777 -3.0803
  197MOL0     H26543   4.650  10.025   4.020  0.0396 -0.2312  0.2725
  197MOL0     H26544   4.608  10.164   4.289 -5.1739 -2.2608  0.4731
  197MOL0     H26545   4.628   9.987   4.268  1.0305 -1.3529 -0.5743
  197MOL0     H26546   4.836  10.306   4.264  2.4653  1.7590 -2.6741
  197MOL0     H26547   5.135  10.304   4.133 -3.1071  0.6753 -0.7191
  197MOL0     H26548   5.099  10.361   4.294  2.0334  1.9181 -1.7885
  197MOL0     H26549   5.321  10.294   4.304  0.1326 -0.1971 -1.4843
  197MOL0     H26550   5.225  10.174   4.394 -3.3429 -0.2114  0.4254
  197MOL0     H26551   5.252  10.014   4.203 -0.7745 -0.4262  2.4587
  197MOL0     H26552   5.409  10.056   4.268  0.6858 -0.4365 -1.7674
  197MOL0     H26553   5.282  10.186   4.014 -0.1597  0.2104  0.5313
  197MOL0     H26554   5.400  10.055   4.015 -0.0764  0.2210  0.7188
  197MOL0     H26555   5.613  10.005   4.027  0.9953 -2.1016  1.5714
  197MOL0     H26556   5.859   9.968   4.094 -0.0411 -0.5554 -0.2791
  197MOL0     H26557   6.281  10.235   4.144  0.2247  0.1169  2.7854
  197MOL0     H26558   6.509  10.186   4.136 -2.0925  1.8267  1.8223
  197MOL0     H26559   6.695  10.084   4.018  1.7759 -0.8032 -0.6940
  197MOL0     H26560   6.713  10.127   4.199  2.5985 -2.2995  3.2949
  197MOL0     H26561   6.867   9.927   4.035  1.8546 -1.7500  1.5063
  197MOL0     H26562   6.936  10.077   4.072  1.7371 -1.6211  0.4084
  197MOL0     H26563   6.912  10.045   4.320 -1.5383  0.6456 -1.3706
  197MOL0     H26564   6.871   9.872   4.288  1.5750  0.0497 -0.4806
  197MOL0     H26565   7.126  10.001   4.196  2.8689 -0.2333  1.9524
  197MOL0     H26566   7.078   9.827   4.191  1.0172  1.0471 -0.9365
  197MOL0     H26567   7.070   9.834   4.432 -1.0383  0.9494 -1.1237
  197MOL0     H26568   7.123  10.001   4.451  2.0456 -1.0165  1.4786
  197MOL0     H26569   7.293   9.759   4.374  0.0092 -1.2566  1.4165
  197MOL0     H26570   7.331   9.921   4.305  2.0642  2.0273  2.8960
  197MOL0     H26571   7.321   9.860   4.594 -0.4155 -3.8684 -2.5836
  197MOL0     H26572   7.366  10.026   4.521  1.8202 -0.0511  0.2813
  197MOL0     H26573   7.538   9.789   4.536  1.3796  0.2983  1.2716
  197MOL0     H26574   7.525   9.869   4.384 -1.7761  1.3546 -0.4227
  197MOL0     H26575   6.438   9.759   4.149  0.8475  0.4327 -0.3611
  197MOL0     H26576   6.197   9.806   4.164  0.1205 -0.9378 -0.5263
  197MOL0     H26577   5.850  10.354   4.276  2.6436 -0.8296 -1.7024
  197MOL0     H26578   5.609  10.380   4.231 -0.5321  0.6718 -2.4744
  197MOL0     H26579   3.593  10.067   3.792 -0.7181  0.0356  0.5217
  197MOL0     H26580   3.460   9.867   3.707 -1.7254 -3.6358  0.9676
  197MOL0     H26581   3.449   9.404   3.717 -1.6769  0.6759  2.4053
  197MOL0     H26582   3.363   9.214   3.625 -1.9794 -2.2047  2.5318
  197MOL0     H26583   2.967   9.206   3.407 -0.0547  0.0884 -0.1493
  197MOL0     H26584   2.930   9.224   3.585  1.4537  3.2633 -2.0367
  197MOL0     H26585   2.903   9.008   3.629  1.0210 -2.1006  0.5287
  197MOL0     H26586   3.030   8.956   3.512 -2.2786 -3.3217  0.8638
  197MOL0     H26587   2.882   8.931   3.335 -1.9195 -2.1304 -0.7715
  197MOL0     H26588   2.762   9.049   3.389 -1.6748 -0.8036  2.3530
  197MOL0     H26589   2.666   8.833   3.379 -1.2671  0.8475  1.1364
  197MOL0     H26590   2.792   8.776   3.489  0.3733 -1.4244 -1.0112
  197MOL0     H26591   2.519   8.976   3.750 -0.6208  0.9511 -0.9317
  197MOL0     H26592   3.003   9.414   3.542 -0.9806  0.3565  0.9876
  197MOL0     H26593   3.000   9.663   3.526  2.8364  1.0727 -1.4463
  197MOL0     H26594   3.003   9.678   3.705  1.8984 -1.2874  1.7902
  197MOL0     H26595   3.115   9.765   3.604 -0.7926  0.2099 -0.9206
  198MOL0     O26596  11.256   3.253   6.828 -0.0923  0.0878 -0.7049
  198MOL0     C26597  11.260   3.168   6.736  0.0963  0.0670 -0.3333
  198MOL0     O26598  11.375   3.124   6.673 -0.2945  0.2039  0.3941
  198MOL0     C26599  11.501   3.195   6.678  0.8769 -0.0461 -0.2679
  198MOL0     C26600  11.503   3.339   6.676 -0.4867 -0.1440  0.0540
  198MOL0     C26601  11.631   3.399   6.678 -0.6266  0.1152  0.4901
  198MOL0     C26602  11.749   3.321   6.658 -0.1262  0.0613  0.1917
  198MOL0     O26603  11.874   3.382   6.645 -0.4395 -0.0941 -0.9453
  198MOL0     C26604  11.933   3.382   6.782 -0.0587 -0.9304 -0.5163
  198MOL0     C26605  12.050   3.483   6.794  1.6543  0.3236 -0.1517
  198MOL0     C26606  12.172   3.450   6.711  0.3967  1.0566 -0.0320
  198MOL0     C26607  12.280   3.549   6.751  0.5503 -0.0674 -0.1367
  198MOL0     C26608  12.399   3.556   6.656 -0.5517 -0.6931  0.8606
  198MOL0     C26609  12.476   3.427   6.677  0.2219  0.2057 -0.1185
  198MOL0     C26610  12.600   3.420   6.590  0.0134  0.3490 -0.3306
  198MOL0     C26611  12.733   3.478   6.650  0.4115 -0.4156 -0.5129
  198MOL0     N26612  12.842   3.459   6.560 -0.4503 -0.5305  0.2234
  198MOL0     C26613  12.864   3.344   6.486 -0.7571 -0.7068 -0.0213
  198MOL0     C26614  12.993   3.362   6.445  0.5307 -0.5007 -0.2665
  198MOL0     C26615  13.079   3.273   6.356 -0.5018 -0.1869 -1.0190
  198MOL0     C26616  13.081   3.315   6.217  0.4767 -0.5155  0.2972
  198MOL0     C26617  13.189   3.256   6.128  0.5113 -0.1515 -0.7251
  198MOL0     C26618  13.319   3.344   6.123  0.3930 -0.0459 -0.6186
  198MOL0     O26619  13.405   3.275   6.035 -0.4488  0.2539 -0.2650
  198MOL0     C26620  13.519   3.338   5.999 -0.2384 -0.6400  0.2665
  198MOL0     C26621  13.599   3.260   5.917  0.3448 -0.4157  0.0601
  198MOL0     C26622  13.718   3.312   5.864  1.0678 -0.4309  0.0499
  198MOL0     C26623  13.761   3.441   5.905  0.3974 -0.3823  0.4389
  198MOL0     C26624  13.876   3.508   5.849  0.1821  0.0880  0.0314
  198MOL0     O26625  13.899   3.640   5.863 -0.2165 -1.0091 -0.1751
  198MOL0     C26626  14.016   3.689   5.811 -0.7972  0.5321 -0.1436
  198MOL0     C26627  14.140   3.656   5.872 -0.5039 -0.1323 -0.0589
  198MOL0     C26628  14.258   3.701   5.814 -0.0518 -0.0241  0.3393
  198MOL0     C26629  14.255   3.771   5.696  0.3076  0.0061 -0.3506
  198MOL0     O26630  14.376   3.778   5.638  0.1948  0.1930 -0.1626
  198MOL0     C26631  14.403   3.898   5.561 -0.1444  0.3451  0.3403
  198MOL0     C26632  14.456   4.022   5.633 -0.4723  0.2027  0.0121
  198MOL0     C26633  14.424   4.146   5.547 -0.2331  0.2003 -0.4386
  198MOL0     C26634  14.313   4.233   5.609  1.4672 -0.1949  0.1463
  198MOL0     C26635  14.296   4.361   5.527  0.0895  0.3422 -0.0083
  198MOL0     C26636  14.206   4.468   5.587 -0.1106  0.1383 -0.3689
  198MOL0     C26637  14.052   4.424   5.586 -0.5753  0.1655  0.2328
  198MOL0     C26638  13.957   4.509   5.669  0.2837  0.5827  0.1369
  198MOL0    Cl26639  13.949   4.673   5.606 -0.1113  0.1079  0.1368
  198MOL0     C26640  14.130   3.812   5.643  0.0076  0.8753 -0.2995
  198MOL0     C26641  14.012   3.771   5.701  0.2332  0.9308 -0.4098
  198MOL0     O26642  13.928   3.435   5.763  0.0119  0.1857 -0.0043
  198MOL0     C26643  13.680   3.513   5.992 -0.4251 -0.2951 -0.4495
  198MOL0     C26644  13.557   3.471   6.024 -0.3263  0.2515 -0.3059
  198MOL0     N26645  13.040   3.483   6.491 -0.1711  0.1967 -0.3420
  198MOL0     N26646  12.953   3.534   6.555 -0.3093 -0.1185 -0.0129
  198MOL0     C26647  11.739   3.185   6.629  0.6829  1.3758  0.2197
  198MOL0     C26648  11.619   3.123   6.640  0.4837 -0.6286 -0.8505
  198MOL0     C26649  11.141   3.103   6.678  0.3807 -0.0321 -0.0090
  198MOL0     C26650  11.156   3.002   6.577  0.7033 -1.0466 -0.4221
  198MOL0     C26651  11.050   2.936   6.527 -0.0490 -0.1358  0.3829
  198MOL0     C26652  10.919   2.963   6.558 -0.0465 -0.6534  0.5001
  198MOL0     O26653  10.820   2.885   6.492  0.4837  0.2168  0.5011
  198MOL0     C26654  10.689   2.877   6.557  0.3928  0.5839 -0.1706
  198MOL0     C26655  10.600   2.766   6.499 -0.2704 -0.4879 -0.1851
  198MOL0     C26656  10.570   2.788   6.356 -0.7964  0.5704 -0.1795
  198MOL0     C26657  10.458   2.694   6.301  0.0743 -0.3334 -0.0378
  198MOL0     C26658  10.492   2.549   6.306  0.3539  0.5274 -0.6418
  198MOL0     C26659  10.513   2.427   6.311  0.5127 -0.4752  0.4357
  198MOL0     C26660  10.892   3.071   6.653 -0.9573  0.3638  0.6796
  198MOL0     C26661  11.006   3.134   6.719  0.1413 -0.4056  0.4185
  198MOL0     C26662  10.970   3.252   6.807  0.1683 -0.4364 -0.5288
  198MOL0     H26663  11.411   3.395   6.690 -0.2836 -0.1168  1.4387
  198MOL0     H26664  11.646   3.507   6.681 -3.0117  0.5776 -1.3049
  198MOL0     H26665  11.856   3.417   6.851  1.7727  3.0806 -0.2182
  198MOL0     H26666  11.968   3.279   6.798  2.9780 -0.1360 -1.4448
  198MOL0     H26667  12.070   3.477   6.902  1.2423 -0.9893 -0.1253
  198MOL0     H26668  12.010   3.580   6.763  0.9714 -0.0830 -0.5587
  198MOL0     H26669  12.149   3.456   6.605 -1.3271 -0.2940  0.2210
  198MOL0     H26670  12.200   3.345   6.726  1.2960  0.7617 -3.1917
  198MOL0     H26671  12.234   3.648   6.756  1.1824  0.2701 -0.8457
  198MOL0     H26672  12.331   3.531   6.846  1.3467  1.2329 -0.2872
  198MOL0     H26673  12.356   3.562   6.555  1.4897  0.1380 -0.0131
  198MOL0     H26674  12.463   3.643   6.675  0.2260 -1.2494  0.8518
  198MOL0     H26675  12.508   3.430   6.782  1.0738  2.4096 -0.3839
  198MOL0     H26676  12.411   3.342   6.653  1.8865 -1.0301 -0.4185
  198MOL0     H26677  12.567   3.454   6.491 -2.0331  0.3297  0.2981
  198MOL0     H26678  12.610   3.311   6.587 -1.9872 -0.0706  2.9330
  198MOL0     H26679  12.733   3.586   6.670 -1.2906 -0.5180  0.2099
  198MOL0     H26680  12.750   3.426   6.745 -0.1128 -1.0949 -0.7875
  198MOL0     H26681  12.793   3.266   6.458 -0.1532 -0.7975 -1.3721
  198MOL0     H26682  13.184   3.284   6.386 -0.7200  0.7735 -0.5772
  198MOL0     H26683  13.049   3.168   6.363 -3.4297  0.6823  1.7682
  198MOL0     H26684  12.982   3.281   6.184  0.4986 -1.1358  0.8609
  198MOL0     H26685  13.072   3.424   6.206  1.0004 -0.5264 -0.2731
  198MOL0     H26686  13.148   3.234   6.030 -0.1376 -1.1063 -0.2516
  198MOL0     H26687  13.203   3.155   6.169  0.7658  0.0768 -0.2300
  198MOL0     H26688  13.360   3.353   6.224 -0.4060  0.6212 -0.3371
  198MOL0     H26689  13.299   3.445   6.087  3.2727  0.3653 -1.2703
  198MOL0     H26690  13.559   3.165   5.883 -1.6577  0.6384 -0.6840
  198MOL0     H26691  13.778   3.250   5.799  0.4802 -0.7386 -0.2020
  198MOL0     H26692  14.138   3.602   5.966 -0.6254  0.6593  0.4055
  198MOL0     H26693  14.351   3.662   5.853 -1.4785 -1.5519  2.4331
  198MOL0     H26694  14.473   3.861   5.486 -2.3853 -0.1293 -1.6302
  198MOL0     H26695  14.310   3.924   5.510 -1.2247 -0.4024  1.8213
  198MOL0     H26696  14.409   4.035   5.731  0.1534 -1.0081  0.4827
  198MOL0     H26697  14.563   4.026   5.652 -0.1148 -1.9172 -1.3276
  198MOL0     H26698  14.510   4.214   5.541  0.1279 -0.0156  1.5848
  198MOL0     H26699  14.399   4.119   5.444  0.8616  0.7403 -0.8708
  198MOL0     H26700  14.340   4.256   5.712 -2.7319 -0.8119  1.5662
  198MOL0     H26701  14.222   4.173   5.619  1.3670  0.2508  2.1755
  198MOL0     H26702  14.256   4.332   5.429  1.6942 -0.0369 -0.5867
  198MOL0     H26703  14.392   4.412   5.516 -0.0647  1.2204  2.2498
  198MOL0     H26704  14.244   4.466   5.689  2.5376 -3.0456 -1.2336
  198MOL0     H26705  14.215   4.568   5.544 -0.5646  0.3646  0.0466
  198MOL0     H26706  14.042   4.321   5.619 -2.5771  1.0120  2.5328
  198MOL0     H26707  14.015   4.420   5.483  0.0085 -1.3215  0.0545
  198MOL0     H26708  13.856   4.469   5.663  1.1698 -2.2904  2.2838
  198MOL0     H26709  13.972   4.509   5.777 -0.9853 -0.7376  0.3299
  198MOL0     H26710  14.125   3.869   5.551 -0.2037 -0.5723 -1.2169
  198MOL0     H26711  13.918   3.781   5.647  0.4476 -1.3997 -1.3467
  198MOL0     H26712  13.710   3.615   6.014 -1.2070  0.3713 -2.2883
  198MOL0     H26713  13.485   3.528   6.081 -1.7427 -0.4501 -1.3364
  198MOL0     H26714  11.823   3.120   6.606  1.0171  2.6056 -2.3832
  198MOL0     H26715  11.616   3.014   6.637  0.5628 -1.0455  4.5358
  198MOL0     H26716  11.252   2.978   6.531  1.0499 -0.2746 -0.1269
  198MOL0     H26717  11.056   2.862   6.448 -3.6094 -0.5323  0.3153
  198MOL0     H26718  10.633   2.971   6.559 -2.8301 -1.2025  0.0516
  198MOL0     H26719  10.692   2.861   6.665  0.4881  1.8164  0.0240
  198MOL0     H26720  10.509   2.762   6.560 -0.0007  0.6020  0.3169
  198MOL0     H26721  10.653   2.671   6.509  2.1235  0.8467  0.5507
  198MOL0     H26722  10.663   2.766   6.302  0.9985  0.4781  2.7565
  198MOL0     H26723  10.547   2.894   6.343 -0.0839  1.0331  1.9437
  198MOL0     H26724  10.368   2.720   6.357  0.5429 -0.9510  1.0267
  198MOL0     H26725  10.448   2.710   6.193  1.0165 -2.6790 -0.5282
  198MOL0     H26726  10.519   2.320   6.308 -0.6883 -0.7156  3.3165
  198MOL0     H26727  10.789   3.094   6.681 -1.5291 -0.8758 -0.2818
  198MOL0     H26728  11.017   3.244   6.906 -0.7357  0.8993  0.0494
  198MOL0     H26729  11.003   3.349   6.769 -1.1254  1.1500  2.0554
  198MOL0     H26730  10.864   3.263   6.833  0.2818 -0.3799 -0.0710
  199MOL0     O26731  10.798   8.488  11.288 -0.0950 -0.2195  0.4400
  199MOL0     C26732  10.843   8.427  11.190 -0.1069  0.3437 -0.4211
  199MOL0     O26733  10.818   8.465  11.061  0.2523 -0.4039  0.6574
  199MOL0     C26734  10.734   8.574  11.047  0.5418  0.2008 -0.6548
  199MOL0     C26735  10.596   8.571  11.079 -0.8833  0.0425 -0.5907
  199MOL0     C26736  10.526   8.685  11.058 -0.8642  0.2786 -0.1410
  199MOL0     C26737  10.585   8.805  11.022 -0.7776  0.3880  0.0050
  199MOL0     O26738  10.534   8.932  11.026 -0.0163 -0.3128 -0.3299
  199MOL0     C26739  10.422   8.959  11.109 -0.7682 -0.5211 -0.4303
  199MOL0     C26740  10.364   9.094  11.087 -0.4675 -0.1164  0.2488
  199MOL0     C26741  10.284   9.156  11.204  0.5809 -0.1904  0.0168
  199MOL0     C26742  10.222   9.294  11.196  0.0279 -0.2880  0.1904
  199MOL0     C26743  10.131   9.335  11.316  0.0420 -0.1049 -0.5660
  199MOL0     C26744  10.074   9.482  11.311  0.0038  0.2385 -0.6566
  199MOL0     C26745   9.979   9.512  11.196  0.2305 -0.7520  0.1955
  199MOL0     C26746   9.909   9.654  11.187  0.0799 -0.5223  0.0826
  199MOL0     N26747  10.005   9.758  11.153  0.6942  0.1826  0.1751
  199MOL0     C26748  10.076   9.827  11.250 -0.1476  0.2583 -0.0373
  199MOL0     C26749  10.168   9.903  11.180  0.0844  0.7602 -1.1155
  199MOL0     C26750  10.283   9.975  11.229 -0.0318  0.1605 -0.6966
  199MOL0     C26751  10.243  10.123  11.237 -0.6928 -0.9068 -0.6145
  199MOL0     C26752  10.363  10.211  11.287 -0.2621  0.5380  0.9724
  199MOL0     C26753  10.401  10.315  11.183  0.3989 -0.4779  0.3113
  199MOL0     O26754  10.486  10.419  11.236 -0.1660  0.5198  0.3922
  199MOL0     C26755  10.610  10.390  11.290  0.1260  0.8955 -0.0591
  199MOL0     C26756  10.688  10.270  11.262  0.0623 -1.1431 -0.2169
  199MOL0     C26757  10.819  10.257  11.328 -0.0480 -0.2681  0.2577
  199MOL0     C26758  10.874  10.362  11.403 -0.3790 -0.6324  0.7959
  199MOL0     C26759  10.995  10.344  11.485 -0.4887  0.0901 -0.7668
  199MOL0     O26760  11.025  10.439  11.579 -0.2841 -0.1470  0.4820
  199MOL0     C26761  11.159  10.472  11.604  0.2900  0.0417 -0.2879
  199MOL0     C26762  11.213  10.455  11.740 -0.7130 -0.2991 -0.4276
  199MOL0     C26763  11.346  10.487  11.766  0.2345 -0.3038  0.1322
  199MOL0     C26764  11.426  10.544  11.665  0.3015  0.0383  0.0950
  199MOL0     O26765  11.556  10.593  11.687  0.6615  0.4094 -0.3529
  199MOL0     C26766  11.634  10.510  11.772  0.0972  0.5253 -0.8247
  199MOL0     C26767  11.781  10.532  11.747  0.0597 -0.0153 -0.7812
  199MOL0     C26768  11.831  10.492  11.611  0.1025 -0.1168 -0.1654
  199MOL0     C26769  11.976  10.544  11.582  0.3827  0.1354  0.1025
  199MOL0     C26770  12.081  10.515  11.694 -0.0755 -0.0645 -0.0751
  199MOL0     C26771  12.220  10.568  11.666  0.6631 -1.2995 -0.0934
  199MOL0     C26772  12.316  10.546  11.778  0.4218 -0.7385 -0.1121
  199MOL0     C26773  12.465  10.592  11.750  0.0302  1.0187  0.3201
  199MOL0    Cl26774  12.580  10.526  11.858  0.1234 -0.1169  0.1987
  199MOL0     C26775  11.373  10.556  11.537  0.2624  0.2022  0.2807
  199MOL0     C26776  11.241  10.530  11.511  0.0781 -0.1207 -0.3200
  199MOL0     O26777  11.067  10.249  11.461  0.0852  0.4051 -0.0516
  199MOL0     C26778  10.798  10.486  11.406 -0.6083 -0.6540 -1.3856
  199MOL0     C26779  10.670  10.493  11.354  0.1011 -0.0349 -0.0978
  199MOL0     N26780  10.139   9.893  11.045 -0.5400 -0.0980  0.5874
  199MOL0     N26781  10.046   9.804  11.030  0.3532  0.3851  0.4012
  199MOL0     C26782  10.720   8.806  10.973  0.2031 -0.3000 -0.3021
  199MOL0     C26783  10.792   8.685  10.988 -0.5792  0.5362 -0.2570
  199MOL0     C26784  10.933   8.313  11.214  0.7694  0.9659  0.0954
  199MOL0     C26785  10.960   8.279  11.349  0.6137 -0.2792  0.8467
  199MOL0     C26786  11.032   8.169  11.374  0.7945  0.0941  0.4259
  199MOL0     C26787  11.095   8.088  11.287  0.4298 -0.7558  0.2242
  199MOL0     O26788  11.171   7.978  11.324  0.2559 -0.5528  0.3782
  199MOL0     C26789  11.202   7.961  11.458 -1.3488 -0.7945  0.7086
  199MOL0     C26790  11.345   7.907  11.477  1.0280 -0.9765  0.2985
  199MOL0     C26791  11.443   8.028  11.483 -0.4996 -1.4489 -0.3243
  199MOL0     C26792  11.589   7.986  11.511 -0.1943  0.5348  0.1157
  199MOL0     C26793  11.676   8.101  11.516  0.2251 -0.2917 -0.4587
  199MOL0     C26794  11.752   8.189  11.517  0.5348 -1.0392 -0.0733
  199MOL0     C26795  11.076   8.119  11.158  0.8088 -0.5690  0.0911
  199MOL0     C26796  10.990   8.223  11.113 -0.5158  0.1442 -0.5551
  199MOL0     C26797  10.975   8.226  10.964 -0.0756  0.5741 -0.1213
  199MOL0     H26798  10.548   8.476  11.102 -1.2318  0.6818  1.6155
  199MOL0     H26799  10.422   8.676  11.088 -0.9167  0.7084 -0.1851
  199MOL0     H26800  10.341   8.887  11.097 -0.2940 -0.7923 -2.4084
  199MOL0     H26801  10.461   8.959  11.211  0.5255 -0.1776 -0.9089
  199MOL0     H26802  10.295   9.091  11.002  2.4994 -0.3439 -2.3494
  199MOL0     H26803  10.450   9.157  11.060 -1.2182  0.2200 -1.4868
  199MOL0     H26804  10.351   9.162  11.290 -0.5034 -0.6061  0.9208
  199MOL0     H26805  10.209   9.088  11.245 -0.6252  1.8171  1.3477
  199MOL0     H26806  10.303   9.366  11.205 -0.0135 -0.2023 -0.1258
  199MOL0     H26807  10.161   9.303  11.105  0.8586 -3.1530 -0.7447
  199MOL0     H26808  10.054   9.257  11.324 -1.0192  1.0990  2.7689
  199MOL0     H26809  10.187   9.318  11.408  1.4764 -0.6005 -1.4912
  199MOL0     H26810  10.032   9.490  11.412  0.9966  0.1647 -0.2278
  199MOL0     H26811  10.155   9.556  11.310  0.3235 -0.0824 -2.3808
  199MOL0     H26812   9.900   9.436  11.195 -0.9654  0.4329 -1.3419
  199MOL0     H26813  10.040   9.493  11.107 -2.2018  1.4278 -2.1092
  199MOL0     H26814   9.833   9.662  11.109  0.5521  0.8118 -0.2679
  199MOL0     H26815   9.864   9.675  11.285  2.0286 -1.5057  1.2532
  199MOL0     H26816  10.065   9.814  11.357 -1.8555  0.3801 -0.1824
  199MOL0     H26817  10.322   9.948  11.328 -0.5584  2.4214  0.1957
  199MOL0     H26818  10.368   9.962  11.161  1.1433  0.1143  0.7239
  199MOL0     H26819  10.216  10.159  11.137  2.8513 -1.9858 -2.1262
  199MOL0     H26820  10.156  10.125  11.303  0.2243  1.9745  0.6451
  199MOL0     H26821  10.448  10.146  11.310  1.9555  1.9231 -2.4623
  199MOL0     H26822  10.342  10.272  11.375 -2.0407  1.5631 -0.0886
  199MOL0     H26823  10.307  10.362  11.155 -0.3710 -3.3367 -2.5016
  199MOL0     H26824  10.444  10.270  11.093 -2.2283 -1.2429 -0.6390
  199MOL0     H26825  10.642  10.198  11.196 -1.5998 -0.0960 -0.2640
  199MOL0     H26826  10.877  10.170  11.300  1.9558  1.0844 -0.0523
  199MOL0     H26827  11.159  10.414  11.825  0.5166  0.9927  1.0287
  199MOL0     H26828  11.380  10.459  11.865  0.9566 -2.1484 -0.6018
  199MOL0     H26829  11.599  10.521  11.875  0.4724 -1.7901 -0.3952
  199MOL0     H26830  11.626  10.402  11.754  0.5357 -0.0641  1.9734
  199MOL0     H26831  11.814  10.636  11.752  2.9233 -0.8597 -0.3515
  199MOL0     H26832  11.831  10.479  11.828 -0.2214  1.4516  0.3925
  199MOL0     H26833  11.829  10.383  11.604  0.1158 -0.0978 -0.4827
  199MOL0     H26834  11.757  10.522  11.536 -0.7154  2.5318  1.5361
  199MOL0     H26835  11.970  10.652  11.566  0.4658  0.1796  0.3724
  199MOL0     H26836  12.003  10.498  11.486  2.8797  1.4504  0.0932
  199MOL0     H26837  12.085  10.408  11.716 -0.2641 -0.2658 -0.9623
  199MOL0     H26838  12.044  10.570  11.781 -0.5372  0.9355 -0.8722
  199MOL0     H26839  12.248  10.512  11.577 -1.2260 -0.2640 -1.4134
  199MOL0     H26840  12.219  10.672  11.633  2.7420 -1.3531 -0.4668
  199MOL0     H26841  12.333  10.441  11.802  1.6349 -1.5277 -3.8295
  199MOL0     H26842  12.280  10.602  11.865  0.5504  2.0834 -1.7457
  199MOL0     H26843  12.473  10.561  11.645  0.1301 -0.8821  0.8440
  199MOL0     H26844  12.486  10.699  11.755 -2.2006  1.4676  1.6349
  199MOL0     H26845  11.437  10.587  11.455  1.9685  0.0515  1.5187
  199MOL0     H26846  11.217  10.559  11.410 -2.4226  1.5508  0.6534
  199MOL0     H26847  10.839  10.564  11.469 -0.1325 -1.7381 -0.3016
  199MOL0     H26848  10.613  10.584  11.366  0.3204  0.1103 -0.1488
  199MOL0     H26849  10.774   8.894  10.939 -1.2423  0.3056 -1.1384
  199MOL0     H26850  10.899   8.691  10.970 -0.4673  2.3995  0.7191
  199MOL0     H26851  10.913   8.340  11.425 -0.1830  0.7220 -0.4236
  199MOL0     H26852  11.043   8.153  11.481  0.1543  0.8676  0.6250
  199MOL0     H26853  11.140   7.886  11.508  0.1509 -2.2612  0.4682
  199MOL0     H26854  11.205   8.056  11.512  1.4294 -0.8274  0.7489
  199MOL0     H26855  11.370   7.834  11.400  1.9409 -0.9495  0.5471
  199MOL0     H26856  11.352   7.858  11.574  0.1866  0.5098  1.1452
  199MOL0     H26857  11.407   8.084  11.569  0.7766  0.9872 -1.3050
  199MOL0     H26858  11.438   8.084  11.389  0.2063 -2.4918 -1.0138
  199MOL0     H26859  11.592   7.931  11.605  3.4192 -3.0897 -1.8129
  199MOL0     H26860  11.627   7.921  11.432 -0.2201 -0.2870  0.7685
  199MOL0     H26861  11.829   8.263  11.509 -0.9811  0.3876 -2.6058
  199MOL0     H26862  11.115   8.060  11.075  1.2701  1.0243 -0.8582
  199MOL0     H26863  10.984   8.124  10.926 -0.3597  0.9241 -1.1652
  199MOL0     H26864  10.880   8.271  10.934  0.7773  1.0116 -2.3662
  199MOL0     H26865  11.055   8.285  10.917 -0.7330  2.1292  0.6341
  200MOL0     O26866   7.508  10.645   0.483 -0.0281  0.2355 -0.6130
  200MOL0     C26867   7.469  10.576   0.574 -0.3454 -0.5802  0.4413
  200MOL0     O26868   7.563  10.507   0.662  0.5516  0.0913 -0.2536
  200MOL0     C26869   7.698  10.518   0.652  0.0674  0.2476  0.5979
  200MOL0     C26870   7.775  10.558   0.764 -0.5873 -0.1915  0.1148
  200MOL0     C26871   7.917  10.552   0.759 -0.1210  0.3919  0.1550
  200MOL0     C26872   7.978  10.522   0.643  0.6072  0.0422 -0.2326
  200MOL0     O26873   8.116  10.518   0.649 -0.3450  0.2595 -0.5186
  200MOL0     C26874   8.185  10.497   0.526  0.1241  0.0962  0.0872
  200MOL0     C26875   8.336  10.490   0.537  0.2608 -0.3220  0.1097
  200MOL0     C26876   8.399  10.626   0.586  0.2550 -0.3278 -0.0413
  200MOL0     C26877   8.552  10.608   0.614  0.2310  0.3555 -0.3289
  200MOL0     C26878   8.622  10.740   0.642  0.4531 -0.6823  0.0527
  200MOL0     C26879   8.765  10.722   0.701 -0.2367 -0.2880  0.0061
  200MOL0     C26880   8.863  10.669   0.584  0.4079 -0.1845 -0.9657
  200MOL0     C26881   9.012  10.667   0.629  0.3796  0.2748  0.0849
  200MOL0     N26882   9.101  10.644   0.511  0.5253 -0.1668 -0.6786
  200MOL0     C26883   9.139  10.753   0.435 -0.5125  0.1202  0.8840
  200MOL0     C26884   9.182  10.703   0.312  0.2179 -0.1146  0.7905
  200MOL0     C26885   9.256  10.778   0.192 -0.2239  0.2221 -1.0802
  200MOL0     C26886   9.400  10.794   0.234  0.5909 -0.4556 -0.0638
  200MOL0     C26887   9.491  10.886   0.148 -0.4736  0.1359 -0.0201
  200MOL0     C26888   9.485  10.863  -0.003  0.3400 -0.0204 -0.6947
  200MOL0     O26889   9.517  10.724  -0.020 -0.4841 -0.2963  0.1026
  200MOL0     C26890   9.645  10.689  -0.058 -0.6232 -0.6899 -0.1178
  200MOL0     C26891   9.754  10.778  -0.046  0.1695 -0.1672 -0.2714
  200MOL0     C26892   9.877  10.735  -0.094  0.5214  0.4033 -0.0890
  200MOL0     C26893   9.911  10.603  -0.131 -0.4525 -0.3627  0.5702
  200MOL0     C26894  10.055  10.577  -0.173  0.3442  0.1229  0.3095
  200MOL0     O26895  10.138  10.679  -0.175 -0.2240 -0.2033  0.7467
  200MOL0     C26896  10.271  10.675  -0.219 -0.4232  1.2982 -0.3408
  200MOL0     C26897  10.370  10.768  -0.183 -0.4140  0.1737 -0.2802
  200MOL0     C26898  10.505  10.770  -0.230 -0.4377 -0.1755  1.1996
  200MOL0     C26899  10.547  10.673  -0.315  0.8971  0.0424 -0.2436
  200MOL0     O26900  10.672  10.680  -0.370 -0.9778 -0.2971 -0.1009
  200MOL0     C26901  10.784  10.671  -0.271  0.6909 -0.2944  0.3666
  200MOL0     C26902  10.887  10.572  -0.312 -0.3389 -0.3527  0.9302
  200MOL0     C26903  11.003  10.560  -0.209  1.4404  0.4295  1.0578
  200MOL0     C26904  11.104  10.463  -0.261  0.3113  0.4830  0.4458
  200MOL0     C26905  11.210  10.447  -0.159  0.2754  0.0208  0.1960
  200MOL0     C26906  11.327  10.369  -0.218  0.0468  0.8706 -0.7460
  200MOL0     C26907  11.445  10.348  -0.121 -0.6184  0.3234  0.1832
  200MOL0     C26908  11.583  10.318  -0.189 -0.0635 -0.1081  1.3621
  200MOL0    Cl26909  11.648  10.469  -0.257  0.0814  0.0043 -0.0153
  200MOL0     C26910  10.457  10.567  -0.352 -0.8039 -0.2622 -0.9635
  200MOL0     C26911  10.322  10.574  -0.303 -0.7978  0.5276 -0.1681
  200MOL0     O26912  10.085  10.460  -0.186 -0.0316  0.5253  0.0312
  200MOL0     C26913   9.805  10.519  -0.140  0.2994  0.0968  0.1524
  200MOL0     C26914   9.674  10.556  -0.100 -0.7272 -0.0885  0.3659
  200MOL0     N26915   9.165  10.563   0.321 -0.2189 -0.6230  0.1349
  200MOL0     N26916   9.127  10.527   0.447  0.0091  0.2670  0.3215
  200MOL0     C26917   7.904  10.498   0.529  0.8720 -0.1204 -0.2975
  200MOL0     C26918   7.764  10.494   0.532  0.4296  1.0029  0.9976
  200MOL0     C26919   7.326  10.581   0.624 -0.1102 -0.5442  0.2006
  200MOL0     C26920   7.294  10.520   0.753 -0.2316  0.3771 -0.5729
  200MOL0     C26921   7.161  10.507   0.787  0.3988  0.8681 -0.8801
  200MOL0     C26922   7.058  10.558   0.702 -0.7444 -0.3179  0.0470
  200MOL0     O26923   6.933  10.547   0.739 -0.3447 -0.5462 -0.3070
  200MOL0     C26924   6.876  10.426   0.695  0.5518  0.2054  0.4433
  200MOL0     C26925   6.747  10.393   0.779 -0.7863 -0.0031 -0.3786
  200MOL0     C26926   6.654  10.282   0.730 -0.1969 -0.1239  0.2686
  200MOL0     C26927   6.534  10.267   0.827 -0.2754  0.4366 -0.1499
  200MOL0     C26928   6.436  10.375   0.807 -0.0482 -0.3256 -0.0798
  200MOL0     C26929   6.364  10.470   0.814  0.2722 -0.1082  0.5310
  200MOL0     C26930   7.083  10.630   0.583 -0.0804 -0.4136 -0.1459
  200MOL0     C26931   7.224  10.646   0.548 -0.0357 -0.9345  0.3924
  200MOL0     C26932   7.243  10.740   0.431  0.2592  1.2924 -0.5623
  200MOL0     H26933   7.724  10.572   0.859  0.3400 -1.8600  0.9031
  200MOL0     H26934   7.980  10.586   0.841 -0.7799 -0.3878  0.9993
  200MOL0     H26935   8.158  10.397   0.491 -0.2482  0.1189  0.2986
  200MOL0     H26936   8.161  10.578   0.458 -1.0953 -0.6850 -0.4528
  200MOL0     H26937   8.371  10.481   0.434 -0.0742  1.9536 -0.2646
  200MOL0     H26938   8.385  10.411   0.594 -0.9320 -0.4828  0.9524
  200MOL0     H26939   8.355  10.653   0.683  0.2580 -0.6480  0.0491
  200MOL0     H26940   8.371  10.708   0.519  1.9368  1.1922  1.0004
  200MOL0     H26941   8.557  10.546   0.704 -2.5644  2.2174  1.2768
  200MOL0     H26942   8.594  10.551   0.531 -1.7633  0.4003 -1.4404
  200MOL0     H26943   8.624  10.802   0.552  2.1119 -0.9624 -0.1357
  200MOL0     H26944   8.565  10.794   0.719 -1.9649 -1.1813 -1.2848
  200MOL0     H26945   8.799  10.815   0.747 -0.3266 -0.9034  1.3561
  200MOL0     H26946   8.762  10.646   0.780  2.2911  0.3916  0.8353
  200MOL0     H26947   8.853  10.739   0.501 -0.6196  0.7407 -0.0831
  200MOL0     H26948   8.824  10.569   0.561  0.0411 -0.8521  2.0816
  200MOL0     H26949   9.037  10.761   0.679  0.1275 -0.3122  1.3622
  200MOL0     H26950   9.028  10.585   0.700  1.9038 -0.5932 -1.1923
  200MOL0     H26951   9.139  10.859   0.458 -1.2324  0.3623 -0.1793
  200MOL0     H26952   9.260  10.719   0.101  2.5392  0.3249 -1.1040
  200MOL0     H26953   9.206  10.875   0.180  0.4177  0.7015 -0.0858
  200MOL0     H26954   9.396  10.831   0.337 -0.5402 -2.2483  0.5868
  200MOL0     H26955   9.449  10.696   0.238 -2.6847 -2.4322 -2.4803
  200MOL0     H26956   9.589  10.882   0.196 -0.9695  1.6353  1.2051
  200MOL0     H26957   9.459  10.987   0.174 -1.8353 -1.0180  3.4843
  200MOL0     H26958   9.550  10.939  -0.046  0.0440  0.7302  0.1559
  200MOL0     H26959   9.384  10.879  -0.042  1.1836  2.8324 -1.9411
  200MOL0     H26960   9.735  10.877  -0.004 -1.3775 -0.2134 -0.7725
  200MOL0     H26961   9.958  10.807  -0.084  2.2466 -1.2652 -1.1958
  200MOL0     H26962  10.351  10.835  -0.100  1.8681  1.6348 -0.8486
  200MOL0     H26963  10.588  10.837  -0.209 -1.6176  1.9984 -0.6761
  200MOL0     H26964  10.824  10.773  -0.272  2.1896 -0.8518 -0.7504
  200MOL0     H26965  10.757  10.650  -0.167  0.6563 -0.7268  0.2717
  200MOL0     H26966  10.844  10.473  -0.332  1.1946 -1.1220  1.2989
  200MOL0     H26967  10.933  10.615  -0.402  1.3005 -1.0359  1.4043
  200MOL0     H26968  11.052  10.658  -0.199  1.0715  0.6044  1.1647
  200MOL0     H26969  10.963  10.532  -0.111 -1.2922  1.6107  0.3930
  200MOL0     H26970  11.148  10.497  -0.355 -0.0704  0.0301  0.1005
  200MOL0     H26971  11.064  10.362  -0.266  4.5958 -1.4452  0.3705
  200MOL0     H26972  11.166  10.400  -0.071  1.4290  0.3989  0.9904
  200MOL0     H26973  11.249  10.543  -0.125  1.9181 -0.3256 -0.5689
  200MOL0     H26974  11.288  10.280  -0.269  1.2776 -0.5980  0.7424
  200MOL0     H26975  11.373  10.430  -0.296 -2.8039  2.1188 -1.5871
  200MOL0     H26976  11.415  10.277  -0.044  2.4954 -0.3583  0.8973
  200MOL0     H26977  11.470  10.439  -0.065  2.5961 -0.4222  0.1403
  200MOL0     H26978  11.650  10.270  -0.117 -1.0068 -0.2652  2.1393
  200MOL0     H26979  11.580  10.241  -0.267 -1.8907  0.5274  0.7624
  200MOL0     H26980  10.492  10.493  -0.424 -1.4963 -1.4528 -0.1159
  200MOL0     H26981  10.261  10.492  -0.339 -0.2093 -0.4243  0.9404
  200MOL0     H26982   9.815  10.422  -0.187  1.0508  0.0717  0.3610
  200MOL0     H26983   9.591  10.486  -0.102 -0.6334 -0.3220  2.4580
  200MOL0     H26984   7.957  10.474   0.437  2.0071 -1.8512  0.7414
  200MOL0     H26985   7.718  10.462   0.439  1.0837  0.5438  0.8270
  200MOL0     H26986   7.367  10.468   0.814 -0.9859 -0.3882 -0.2978
  200MOL0     H26987   7.129  10.455   0.877 -2.0966  1.4171 -1.3901
  200MOL0     H26988   6.948  10.344   0.684  1.6348  1.4100 -2.1415
  200MOL0     H26989   6.843  10.445   0.593 -2.0758  0.5755  1.2794
  200MOL0     H26990   6.690  10.487   0.780  0.6567  0.9046 -0.3470
  200MOL0     H26991   6.785  10.395   0.881  2.4377  4.4496 -1.3561
  200MOL0     H26992   6.714  10.191   0.726  1.6994  1.1123 -2.4766
  200MOL0     H26993   6.612  10.310   0.633 -0.0147  1.4939  0.6170
  200MOL0     H26994   6.495  10.165   0.815 -2.6160  1.0715  1.3808
  200MOL0     H26995   6.570  10.279   0.929  2.7795 -1.8120 -0.8116
  200MOL0     H26996   6.307  10.557   0.841 -0.2469  0.3966 -1.8919
  200MOL0     H26997   6.999  10.678   0.535  0.5498 -1.0109 -1.8940
  200MOL0     H26998   7.226  10.681   0.340 -2.3256  2.6356 -1.0584
  200MOL0     H26999   7.157  10.809   0.431 -0.9824 -0.1861 -1.0077
  200MOL0     H27000   7.335  10.796   0.415  0.2051  1.6394  0.3096
  201MOL0     O27001   5.020   2.637   3.429  0.0734 -0.6339  0.3384
  201MOL0     C27002   4.950   2.575   3.501 -0.2947  0.6266 -0.4680
  201MOL0     O27003   5.005   2.484   3.598  0.5120  0.2632 -0.0706
  201MOL0     C27004   5.134   2.436   3.585 -0.5530 -0.0651  0.3011
  201MOL0     C27005   5.236   2.509   3.640  0.5343  0.0099  0.0094
  201MOL0     C27006   5.370   2.464   3.628 -0.0824  0.0841  0.4245
  201MOL0     C27007   5.393   2.337   3.574 -0.6039 -0.4150 -0.7884
  201MOL0     O27008   5.525   2.303   3.562  0.0691 -0.0781  0.3757
  201MOL0     C27009   5.558   2.196   3.471 -0.4509  0.2423  0.6379
  201MOL0     C27010   5.712   2.189   3.452 -0.0319  0.1302 -0.1596
  201MOL0     C27011   5.776   2.104   3.555  0.2745  0.7032 -0.5624
  201MOL0     C27012   5.808   2.189   3.683 -0.4506  0.0387  0.0389
  201MOL0     C27013   5.902   2.115   3.783 -0.3172 -0.0952 -0.5880
  201MOL0     C27014   5.841   1.988   3.854 -0.2161 -0.5154  0.1762
  201MOL0     C27015   5.933   1.941   3.968  0.5923  0.1539  0.0188
  201MOL0     C27016   5.936   2.034   4.082 -0.2029 -1.1254  0.5248
  201MOL0     N27017   5.980   1.957   4.197 -0.0738 -0.8758  0.0132
  201MOL0     C27018   6.116   1.941   4.229 -0.1305  0.5461 -0.6090
  201MOL0     C27019   6.112   1.866   4.353  0.2099  0.6347 -0.4055
  201MOL0     C27020   6.239   1.833   4.424 -0.0987  0.1449 -1.5260
  201MOL0     C27021   6.283   1.948   4.520  0.7535  0.2860 -0.6014
  201MOL0     C27022   6.408   1.906   4.597 -0.5464 -0.0445 -0.6596
  201MOL0     C27023   6.385   1.801   4.701  0.0763  0.3144  0.2229
  201MOL0     O27024   6.445   1.834   4.830 -0.0880  0.0761  0.3085
  201MOL0     C27025   6.583   1.817   4.835  0.3997 -0.4827 -0.3456
  201MOL0     C27026   6.663   1.776   4.723  0.3170  0.1919  0.2887
  201MOL0     C27027   6.799   1.776   4.736  0.7705  0.3999 -0.2490
  201MOL0     C27028   6.857   1.808   4.860 -0.2588 -0.4943 -0.1159
  201MOL0     C27029   7.008   1.791   4.863 -0.5578 -0.6561  0.0021
  201MOL0     O27030   7.067   1.791   4.736  0.0221  0.1521 -0.3941
  201MOL0     C27031   7.196   1.767   4.712  0.1259 -0.0921  0.0307
  201MOL0     C27032   7.294   1.839   4.787  0.1021  0.0936  0.5928
  201MOL0     C27033   7.430   1.818   4.755 -0.1766 -0.2203 -0.2441
  201MOL0     C27034   7.478   1.724   4.667  0.8540  0.6910  0.2697
  201MOL0     O27035   7.606   1.692   4.653 -0.5282  0.1095  0.1300
  201MOL0     C27036   7.691   1.802   4.652 -0.2869  0.4510  0.4083
  201MOL0     C27037   7.821   1.778   4.585 -0.5338  0.2487  0.8396
  201MOL0     C27038   7.898   1.912   4.575  0.8134 -0.5945  0.3926
  201MOL0     C27039   8.039   1.875   4.545 -0.7037 -0.2783  0.1035
  201MOL0     C27040   8.124   1.996   4.504 -0.3833 -1.4899 -0.9853
  201MOL0     C27041   8.277   1.958   4.496  0.2972  0.7663 -0.0845
  201MOL0     C27042   8.375   2.071   4.494 -0.6946 -0.1433 -0.7955
  201MOL0     C27043   8.383   2.146   4.360  0.4985 -0.4436 -0.2800
  201MOL0    Cl27044   8.492   2.070   4.227  0.2135  0.0707 -0.0944
  201MOL0     C27045   7.384   1.650   4.603  0.1420 -0.9855 -0.9894
  201MOL0     C27046   7.248   1.675   4.619 -0.2251 -0.5197  0.0805
  201MOL0     O27047   7.066   1.788   4.973  0.7257 -0.4423  0.0203
  201MOL0     C27048   6.778   1.837   4.976  0.0930 -0.1292 -0.2602
  201MOL0     C27049   6.638   1.834   4.961  1.0270  0.2748 -0.6486
  201MOL0     N27050   5.981   1.849   4.389  0.3896 -0.0822  0.2406
  201MOL0     N27051   5.908   1.907   4.296 -0.2785 -0.5733 -0.5436
  201MOL0     C27052   5.286   2.259   3.526 -0.1147 -0.4118 -0.4170
  201MOL0     C27053   5.157   2.305   3.537  0.6486  0.0552  0.5061
  201MOL0     C27054   4.799   2.592   3.503 -0.5697 -0.2334 -0.6693
  201MOL0     C27055   4.730   2.530   3.609  0.1475 -0.9882 -0.5950
  201MOL0     C27056   4.591   2.551   3.621  0.1434  0.8905  0.1654
  201MOL0     C27057   4.510   2.616   3.520 -1.1635 -1.0275  0.2152
  201MOL0     O27058   4.379   2.645   3.528  0.0231  0.1304  0.8677
  201MOL0     C27059   4.303   2.626   3.651  0.5013  0.2939 -0.2765
  201MOL0     C27060   4.156   2.669   3.622  0.1462  0.2644  0.1211
  201MOL0     C27061   4.085   2.566   3.526  0.6281 -0.1793 -0.2469
  201MOL0     C27062   3.944   2.619   3.474  0.6510 -0.1933  0.5652
  201MOL0     C27063   3.835   2.607   3.578 -0.6957  0.0112  0.2317
  201MOL0     C27064   3.756   2.591   3.665 -0.3900  0.0108 -0.3038
  201MOL0     C27065   4.582   2.679   3.422  0.3161  0.3016  0.5862
  201MOL0     C27066   4.723   2.660   3.402  0.3376  0.6244 -0.5498
  201MOL0     C27067   4.785   2.736   3.286 -0.2547  0.3753  0.1519
  201MOL0     H27068   5.221   2.609   3.680  1.6656  0.0797  0.3013
  201MOL0     H27069   5.454   2.520   3.668  1.4424 -2.2902  0.7086
  201MOL0     H27070   5.513   2.100   3.500 -0.7880  0.1027 -0.3012
  201MOL0     H27071   5.523   2.221   3.370  2.5934  0.9124 -0.3629
  201MOL0     H27072   5.742   2.294   3.443 -0.2455  0.1030 -1.3490
  201MOL0     H27073   5.729   2.140   3.356 -3.3649 -0.5036 -0.5181
  201MOL0     H27074   5.869   2.060   3.517  0.5151  0.3918  0.3370
  201MOL0     H27075   5.713   2.021   3.589  0.3835 -0.4183 -2.9341
  201MOL0     H27076   5.865   2.278   3.653  1.9408 -1.9200 -1.6888
  201MOL0     H27077   5.717   2.215   3.738 -0.9885  0.4900 -1.0366
  201MOL0     H27078   5.996   2.093   3.731  0.9468  1.8358  0.7435
  201MOL0     H27079   5.927   2.184   3.864  1.1520  0.7253 -1.6912
  201MOL0     H27080   5.740   2.017   3.884 -0.6552  1.3416 -2.7350
  201MOL0     H27081   5.834   1.906   3.783  3.1218  1.2201 -2.4369
  201MOL0     H27082   6.036   1.927   3.935  0.4954  0.3422 -0.3692
  201MOL0     H27083   5.895   1.843   3.996 -0.3623  0.0211 -1.6162
  201MOL0     H27084   6.005   2.117   4.067  0.7292 -1.9333  0.2165
  201MOL0     H27085   5.832   2.062   4.100 -1.0334 -2.6211 -1.5248
  201MOL0     H27086   6.201   1.977   4.171 -1.2837  0.4129 -2.4623
  201MOL0     H27087   6.209   1.742   4.476 -2.2934  0.4251 -2.2242
  201MOL0     H27088   6.321   1.811   4.354  0.5616 -1.7693 -0.2286
  201MOL0     H27089   6.308   2.034   4.458  0.9251  0.4414 -0.3195
  201MOL0     H27090   6.199   1.969   4.588  0.3630 -1.5029 -0.4688
  201MOL0     H27091   6.439   1.997   4.648  2.4183 -1.2599 -0.1123
  201MOL0     H27092   6.493   1.867   4.540  0.1778  1.4948 -0.6750
  201MOL0     H27093   6.417   1.707   4.655  0.3989  1.4170 -1.9457
  201MOL0     H27094   6.277   1.791   4.713  0.1837 -0.9479  0.2540
  201MOL0     H27095   6.625   1.746   4.626 -0.1766 -1.6148  1.0083
  201MOL0     H27096   6.848   1.750   4.642  0.7819  0.6110 -0.3013
  201MOL0     H27097   7.270   1.907   4.868 -0.3468  0.9463 -0.2325
  201MOL0     H27098   7.502   1.867   4.819 -1.2927 -0.8818  1.6038
  201MOL0     H27099   7.642   1.886   4.602 -1.0077 -0.2167 -0.0469
  201MOL0     H27100   7.710   1.832   4.755  0.6914 -1.4420  0.8324
  201MOL0     H27101   7.880   1.703   4.638 -0.1870  0.6067  0.9649
  201MOL0     H27102   7.794   1.734   4.488  1.4786 -1.3784  0.9480
  201MOL0     H27103   7.841   1.963   4.497 -1.8313  0.7809  3.0004
  201MOL0     H27104   7.899   1.972   4.667 -1.0019 -1.7441  1.2329
  201MOL0     H27105   8.042   1.798   4.467 -3.6233  1.2685 -1.7491
  201MOL0     H27106   8.100   1.823   4.620 -3.2897 -2.4786  0.8708
  201MOL0     H27107   8.111   2.068   4.585  2.5986 -0.7522 -1.0256
  201MOL0     H27108   8.084   2.043   4.414  0.6736 -0.3355 -0.8848
  201MOL0     H27109   8.306   1.902   4.586  0.4514  1.7757  0.5144
  201MOL0     H27110   8.280   1.898   4.405 -3.0730 -1.0860  0.8725
  201MOL0     H27111   8.474   2.031   4.517 -0.4712  1.5756  1.5483
  201MOL0     H27112   8.348   2.141   4.573  0.9818 -0.4259  0.0641
  201MOL0     H27113   8.280   2.165   4.328 -0.2887  2.3357  3.1766
  201MOL0     H27114   8.434   2.243   4.367  2.4635 -1.1530 -3.2535
  201MOL0     H27115   7.414   1.569   4.537  0.5760  0.7700 -3.0645
  201MOL0     H27116   7.173   1.615   4.568 -1.7701  3.3327 -2.6385
  201MOL0     H27117   6.827   1.840   5.074 -0.0838 -0.4163 -0.1637
  201MOL0     H27118   6.567   1.842   5.042 -0.3352 -0.1916 -1.7546
  201MOL0     H27119   5.304   2.160   3.486  4.2800 -0.0723  0.1864
  201MOL0     H27120   5.074   2.245   3.502  0.8400  0.2220 -0.2516
  201MOL0     H27121   4.771   2.475   3.693  0.1726 -0.6101 -0.3522
  201MOL0     H27122   4.536   2.504   3.702  0.0996 -0.6480 -0.7230
  201MOL0     H27123   4.348   2.695   3.723  0.9422  2.9606 -2.9051
  201MOL0     H27124   4.309   2.528   3.698  1.0557  0.1858 -0.5632
  201MOL0     H27125   4.150   2.768   3.577 -3.8019  0.4963  0.7492
  201MOL0     H27126   4.086   2.658   3.706 -0.0580 -2.2626 -0.2885
  201MOL0     H27127   4.069   2.463   3.561  1.8499 -0.0847  0.6522
  201MOL0     H27128   4.156   2.563   3.443 -0.6326  1.1369 -1.4487
  201MOL0     H27129   3.962   2.718   3.432  1.8441 -1.1700 -1.4147
  201MOL0     H27130   3.913   2.554   3.391 -0.2942  0.1453  0.6428
  201MOL0     H27131   3.676   2.589   3.737 -0.8911  1.1940 -0.8078
  201MOL0     H27132   4.523   2.736   3.352 -0.0029 -1.3444 -0.5365
  201MOL0     H27133   4.832   2.663   3.218 -1.6154  0.2247 -0.6634
  201MOL0     H27134   4.709   2.790   3.229 -2.0941  0.8645  2.9149
  201MOL0     H27135   4.855   2.811   3.323 -0.6213 -0.0568  1.7777
  202MOL0     O27136   8.331   9.693   5.244  1.2415  0.6952  0.1330
  202MOL0     C27137   8.304   9.810   5.267 -0.1939  0.4870  0.3017
  202MOL0     O27138   8.352   9.924   5.201  0.4080  0.3337  0.1405
  202MOL0     C27139   8.445   9.924   5.095 -0.3669 -0.0039  0.3963
  202MOL0     C27140   8.567   9.987   5.116  0.0434  0.7988 -0.2046
  202MOL0     C27141   8.667   9.987   5.017  0.9642 -0.0623  0.2912
  202MOL0     C27142   8.640   9.921   4.896 -0.3214  0.0701 -1.4185
  202MOL0     O27143   8.737   9.918   4.796 -0.2939  0.9691 -0.1508
  202MOL0     C27144   8.716   9.864   4.665 -0.5044 -0.3630  0.1481
  202MOL0     C27145   8.827   9.914   4.569 -0.6119  1.2429  0.3413
  202MOL0     C27146   8.970   9.888   4.624 -0.6600  0.1252 -0.3741
  202MOL0     C27147   9.027   9.750   4.598  0.4969 -0.5243  1.1692
  202MOL0     C27148   9.161   9.710   4.657 -1.4300 -0.5471 -0.0094
  202MOL0     C27149   9.199   9.748   4.800 -0.0146 -0.4586  0.5136
  202MOL0     C27150   9.342   9.731   4.852 -0.4585 -0.3515  0.6385
  202MOL0     C27151   9.455   9.798   4.757  0.0471 -0.0153 -0.1644
  202MOL0     N27152   9.582   9.806   4.823  0.3653 -0.1072  0.2055
  202MOL0     C27153   9.659   9.922   4.827 -0.2843 -0.6857  0.2680
  202MOL0     C27154   9.771   9.881   4.899 -0.2264  0.6790 -0.9812
  202MOL0     C27155   9.895   9.958   4.927 -0.2432  0.1658 -0.0032
  202MOL0     C27156  10.018   9.876   4.969  0.7691 -0.5616 -0.0973
  202MOL0     C27157  10.006   9.839   5.118  0.3801  0.5894 -0.3473
  202MOL0     C27158  10.147   9.778   5.160  0.1982 -0.0981 -0.3291
  202MOL0     O27159  10.183   9.693   5.051 -0.1530  0.3108 -0.3140
  202MOL0     C27160  10.320   9.669   5.030  0.7819  0.6652 -0.2224
  202MOL0     C27161  10.422   9.705   5.121  0.2378 -0.2703  0.5531
  202MOL0     C27162  10.556   9.668   5.098  0.3748 -0.5842  0.2332
  202MOL0     C27163  10.588   9.595   4.979 -0.4042  0.2264 -0.6562
  202MOL0     C27164  10.727   9.552   4.949 -0.6947 -0.2400  1.1257
  202MOL0     O27165  10.744   9.470   4.845 -0.0623 -0.4518 -0.2894
  202MOL0     C27166  10.852   9.385   4.841  0.1897  0.1411  0.9362
  202MOL0     C27167  10.840   9.260   4.891 -0.3938  0.1253  0.1164
  202MOL0     C27168  10.948   9.173   4.880 -0.0020 -0.1015 -0.5332
  202MOL0     C27169  11.076   9.216   4.822  0.4781 -0.8058 -0.7755
  202MOL0     O27170  11.190   9.137   4.806  0.4511  0.9473 -0.6410
  202MOL0     C27171  11.216   9.060   4.927 -0.2329  0.3976 -0.4260
  202MOL0     C27172  11.365   8.999   4.918  0.9614 -0.2665 -0.0513
  202MOL0     C27173  11.463   9.079   5.006 -0.0292  0.0405 -0.7203
  202MOL0     C27174  11.605   9.037   4.993 -0.2940 -0.0552 -0.1831
  202MOL0     C27175  11.688   9.119   5.095 -0.2060 -0.6393 -0.1586
  202MOL0     C27176  11.837   9.092   5.123 -0.2349  1.1043  0.0581
  202MOL0     C27177  11.857   8.966   5.211 -0.2456  0.2897  0.0211
  202MOL0     C27178  11.999   8.944   5.247 -0.4583 -0.2176 -0.3569
  202MOL0    Cl27179  12.100   8.865   5.120 -0.1995 -0.1114  0.1299
  202MOL0     C27180  11.087   9.345   4.778  0.6811 -0.5924  0.5584
  202MOL0     C27181  10.978   9.432   4.789  0.2843  0.5732  0.0161
  202MOL0     O27182  10.822   9.601   5.024 -0.0593  0.3861  0.2284
  202MOL0     C27183  10.488   9.568   4.886 -0.3271  0.6124  0.3875
  202MOL0     C27184  10.360   9.598   4.914  0.2752 -0.8822  0.1617
  202MOL0     N27185   9.762   9.741   4.919 -0.3427 -0.0536 -0.1603
  202MOL0     N27186   9.636   9.699   4.891 -0.2934 -0.2457  0.6472
  202MOL0     C27187   8.518   9.849   4.874  0.2231  0.3351 -0.0109
  202MOL0     C27188   8.420   9.861   4.969  0.2942  0.1944 -0.8390
  202MOL0     C27189   8.204   9.840   5.363 -0.0943  0.3356 -0.6164
  202MOL0     C27190   8.244   9.914   5.474 -0.4595 -0.8048 -1.0809
  202MOL0     C27191   8.146   9.941   5.569  0.6420 -0.5569 -0.1484
  202MOL0     C27192   8.014   9.900   5.561  1.1267  0.4820  0.8270
  202MOL0     O27193   7.926   9.937   5.651 -0.2641  0.2722  0.2747
  202MOL0     C27194   7.832   9.834   5.700  0.4108  0.4536  0.1091
  202MOL0     C27195   7.794   9.861   5.844 -0.2359 -0.5052 -0.3940
  202MOL0     C27196   7.683   9.962   5.867  0.1439 -0.2702 -0.4645
  202MOL0     C27197   7.621   9.949   6.004 -0.2326 -1.0432 -0.6780
  202MOL0     C27198   7.517  10.044   6.042 -0.1392 -0.5823  0.9207
  202MOL0     C27199   7.437  10.140   6.058 -0.0366  0.1086  0.1781
  202MOL0     C27200   7.974   9.823   5.444  0.3888 -0.4163 -0.1523
  202MOL0     C27201   8.069   9.797   5.342 -0.8789  0.4860  0.0706
  202MOL0     C27202   8.036   9.749   5.202  0.6172  0.5322  0.3476
  202MOL0     H27203   8.577  10.037   5.212 -0.7881  1.5926 -0.5210
  202MOL0     H27204   8.756  10.048   5.029  0.1118  1.1602  0.5647
  202MOL0     H27205   8.730   9.756   4.665 -2.5137 -0.7740  3.4293
  202MOL0     H27206   8.619   9.888   4.621 -0.5189 -1.3070 -0.3427
  202MOL0     H27207   8.810  10.019   4.546  0.6145  1.5260  0.6939
  202MOL0     H27208   8.809   9.857   4.477 -3.5269  1.0361  0.9152
  202MOL0     H27209   8.972   9.907   4.731  0.0452  0.3685 -0.4277
  202MOL0     H27210   9.024   9.967   4.571  0.6746  1.7020  3.0770
  202MOL0     H27211   8.951   9.692   4.651 -3.0494  1.4422 -1.3590
  202MOL0     H27212   9.004   9.727   4.494 -1.1159 -0.0004  1.3849
  202MOL0     H27213   9.171   9.601   4.665 -2.6491 -0.7436 -0.8744
  202MOL0     H27214   9.241   9.753   4.596 -1.1247 -1.1582 -0.0527
  202MOL0     H27215   9.191   9.857   4.808  2.9260 -0.0953 -0.5600
  202MOL0     H27216   9.127   9.698   4.867 -1.1384  1.3797  0.7413
  202MOL0     H27217   9.369   9.626   4.864  0.0419 -0.6795 -2.4182
  202MOL0     H27218   9.368   9.783   4.945  1.4643  3.4696 -1.7680
  202MOL0     H27219   9.473   9.730   4.673 -0.3637  0.0176 -0.2805
  202MOL0     H27220   9.431   9.901   4.728 -2.9859 -0.2721  1.0194
  202MOL0     H27221   9.644  10.017   4.776 -0.5513  1.0608  3.3290
  202MOL0     H27222   9.917  10.027   4.845 -1.0618  1.6890  1.0180
  202MOL0     H27223   9.874  10.028   5.008  0.6072 -0.1919  0.5386
  202MOL0     H27224  10.011   9.788   4.904  1.1202 -0.0304 -0.8718
  202MOL0     H27225  10.111   9.928   4.945  0.2364  0.9670  0.9839
  202MOL0     H27226   9.919   9.775   5.134  0.7190  0.3001  0.3394
  202MOL0     H27227   9.978   9.930   5.173 -0.9204  0.0033  0.0123
  202MOL0     H27228  10.141   9.724   5.255  1.5063  1.3791  0.6352
  202MOL0     H27229  10.216   9.861   5.176  0.0398 -0.1266  0.5337
  202MOL0     H27230  10.402   9.762   5.211 -2.8571 -1.8578  1.0199
  202MOL0     H27231  10.626   9.706   5.172 -0.6931  2.5793 -0.2043
  202MOL0     H27232  10.744   9.229   4.931 -2.4030  0.6164 -3.8586
  202MOL0     H27233  10.928   9.069   4.904 -2.0561  0.4935  0.6172
  202MOL0     H27234  11.216   9.133   5.009 -0.1864  0.3316 -0.3676
  202MOL0     H27235  11.144   8.982   4.954 -0.8285  0.4220 -1.8491
  202MOL0     H27236  11.354   8.897   4.955  0.3817  0.5157  2.1029
  202MOL0     H27237  11.398   8.999   4.814  1.7648 -0.4844  0.2041
  202MOL0     H27238  11.455   9.187   4.991  1.1101  0.5601  1.8135
  202MOL0     H27239  11.425   9.064   5.108 -0.4836 -3.3012 -1.2840
  202MOL0     H27240  11.641   9.060   4.893 -4.1872  0.5170 -1.6313
  202MOL0     H27241  11.615   8.929   5.004 -2.4276 -0.5508 -2.2525
  202MOL0     H27242  11.644   9.121   5.195 -0.8563 -0.3829 -0.4422
  202MOL0     H27243  11.684   9.224   5.065 -1.8226 -0.2511  1.2435
  202MOL0     H27244  11.894   9.082   5.031  1.6431 -0.6075  1.3214
  202MOL0     H27245  11.879   9.177   5.177 -0.8258  1.9063 -0.7123
  202MOL0     H27246  11.821   8.870   5.171 -1.5699 -0.0218  1.8161
  202MOL0     H27247  11.799   8.971   5.304 -1.6192  0.6482 -0.8154
  202MOL0     H27248  12.050   9.036   5.277  3.2479 -2.0314 -0.4539
  202MOL0     H27249  12.002   8.867   5.325 -0.0810 -2.8339 -2.7599
  202MOL0     H27250  11.183   9.378   4.741 -0.8644  2.0825 -1.4101
  202MOL0     H27251  11.003   9.535   4.765  0.4130  0.5865  0.2057
  202MOL0     H27252  10.513   9.509   4.798  1.5840 -2.4465  2.7718
  202MOL0     H27253  10.288   9.568   4.839  0.8325 -1.3870 -0.1764
  202MOL0     H27254   8.520   9.787   4.785 -1.1983  2.3444 -1.5344
  202MOL0     H27255   8.325   9.813   4.949  0.6340 -0.5450 -0.6862
  202MOL0     H27256   8.345   9.951   5.488  0.9974 -4.9496  1.0605
  202MOL0     H27257   8.179   9.987   5.662 -0.0543  1.1533 -0.7108
  202MOL0     H27258   7.873   9.734   5.684  1.2002  1.0701 -2.2967
  202MOL0     H27259   7.745   9.845   5.634  0.3519  2.6014  0.4699
  202MOL0     H27260   7.878   9.895   5.906 -1.2672  0.7743  0.3423
  202MOL0     H27261   7.758   9.766   5.885  0.5718 -1.2529 -1.3419
  202MOL0     H27262   7.603   9.947   5.794 -0.8706 -0.7402  0.7084
  202MOL0     H27263   7.721  10.064   5.850  0.1820  0.0109  1.1065
  202MOL0     H27264   7.583   9.846   6.003  0.1954 -1.2291  0.4233
  202MOL0     H27265   7.700   9.951   6.080 -1.1119  1.2343  0.2521
  202MOL0     H27266   7.377  10.228   6.069  0.6937  0.8614 -1.4491
  202MOL0     H27267   7.872   9.796   5.420 -0.0404 -0.1090  1.2264
  202MOL0     H27268   7.938   9.788   5.172  0.2521  0.7925  1.7918
  202MOL0     H27269   8.107   9.770   5.121  0.4097  2.6718  0.6588
  202MOL0     H27270   8.025   9.641   5.199  3.5642  0.1583 -0.0158
  203MOL0     O27271   4.519   2.770   6.458  0.2802  0.1362 -0.3679
  203MOL0     C27272   4.570   2.714   6.361 -0.3909  0.2050  0.4629
  203MOL0     O27273   4.684   2.652   6.357 -0.3249  0.6513  0.2125
  203MOL0     C27274   4.771   2.674   6.461  0.0181 -0.9377 -0.3007
  203MOL0     C27275   4.840   2.568   6.518  0.0038  0.2245 -0.1812
  203MOL0     C27276   4.931   2.587   6.611  0.0647  1.7666 -0.1881
  203MOL0     C27277   4.984   2.711   6.647  0.6284 -0.3955 -0.4491
  203MOL0     O27278   5.089   2.730   6.740  0.6157 -0.8610  0.5057
  203MOL0     C27279   5.068   2.674   6.869 -0.3069  0.1445 -0.4698
  203MOL0     C27280   5.177   2.573   6.891 -0.1949 -0.3336  0.6657
  203MOL0     C27281   5.321   2.634   6.887 -0.8777  0.0529  0.3531
  203MOL0     C27282   5.429   2.521   6.894 -0.4636  0.2869  0.3530
  203MOL0     C27283   5.582   2.565   6.897  0.7621  0.1182 -0.2875
  203MOL0     C27284   5.674   2.444   6.860  0.9024 -0.0743 -0.8191
  203MOL0     C27285   5.826   2.452   6.903  0.8171  0.0349 -0.4853
  203MOL0     C27286   5.917   2.357   6.828 -0.2895 -0.5012  0.7167
  203MOL0     N27287   6.052   2.377   6.877  0.5159 -0.5195 -0.0714
  203MOL0     C27288   6.148   2.464   6.832 -0.6728 -0.7616  0.4046
  203MOL0     C27289   6.244   2.458   6.929  0.9570 -1.3585 -0.5537
  203MOL0     C27290   6.375   2.533   6.938 -0.3579 -0.1525 -0.6397
  203MOL0     C27291   6.481   2.461   6.854  0.1634  0.3805 -0.4024
  203MOL0     C27292   6.622   2.520   6.856  0.0200  0.2096  0.2601
  203MOL0     C27293   6.722   2.430   6.785  0.3869  0.1470 -0.6729
  203MOL0     O27294   6.862   2.450   6.823  0.3187 -0.2709  0.4001
  203MOL0     C27295   6.951   2.362   6.764 -0.1581  0.4293 -0.1683
  203MOL0     C27296   7.081   2.353   6.812  0.1158  0.1176  0.0333
  203MOL0     C27297   7.173   2.270   6.755 -0.1343 -1.0991 -0.5263
  203MOL0     C27298   7.156   2.201   6.631  0.9952  0.1462 -0.6634
  203MOL0     C27299   7.264   2.146   6.553  0.0239  0.0936  0.6424
  203MOL0     O27300   7.219   2.082   6.433  1.0155 -0.6596 -0.1281
  203MOL0     C27301   7.322   2.034   6.354  0.1935  0.0135 -0.5182
  203MOL0     C27302   7.338   1.896   6.320  0.1627 -0.9495  0.1684
  203MOL0     C27303   7.455   1.854   6.258 -0.6432 -0.3126 -0.5411
  203MOL0     C27304   7.550   1.943   6.213 -0.3349 -0.0949  0.7242
  203MOL0     O27305   7.665   1.873   6.166  0.1382 -0.4345 -0.1684
  203MOL0     C27306   7.769   1.960   6.123  0.3219  0.3971 -0.4897
  203MOL0     C27307   7.903   1.887   6.101 -0.0270  0.4359 -0.0200
  203MOL0     C27308   8.011   1.981   6.057 -0.7280 -0.0724  0.5779
  203MOL0     C27309   8.016   1.987   5.898  0.3692 -0.2291  0.4895
  203MOL0     C27310   8.128   2.081   5.830  0.8594 -0.3603  0.0183
  203MOL0     C27311   8.150   2.022   5.687  0.2121  0.9456 -0.7801
  203MOL0     C27312   8.249   2.117   5.624  0.0658 -0.3691 -0.2707
  203MOL0     C27313   8.399   2.082   5.651  0.5162 -0.1534  0.2047
  203MOL0    Cl27314   8.423   1.934   5.557 -0.3186 -0.0552 -0.0457
  203MOL0     C27315   7.539   2.079   6.252  0.1680  0.5011 -1.1334
  203MOL0     C27316   7.430   2.122   6.315 -0.8392 -0.0787  0.2340
  203MOL0     O27317   7.379   2.153   6.597 -0.9308  0.1628  0.1598
  203MOL0     C27318   7.023   2.207   6.581  0.3338 -0.5931  0.8858
  203MOL0     C27319   6.926   2.282   6.649 -0.0829  0.3723 -0.0117
  203MOL0     N27320   6.198   2.375   7.035  0.2580 -0.1513  0.8153
  203MOL0     N27321   6.084   2.333   7.005  0.3774 -0.0579  0.5950
  203MOL0     C27322   4.924   2.819   6.590 -0.0609  0.1262 -0.5043
  203MOL0     C27323   4.808   2.800   6.510  0.3082 -0.0383  0.4594
  203MOL0     C27324   4.477   2.696   6.243 -0.3360 -0.2871  0.8103
  203MOL0     C27325   4.521   2.612   6.138 -0.2737 -1.1149 -0.0014
  203MOL0     C27326   4.445   2.601   6.023  0.2258  0.2640  0.6725
  203MOL0     C27327   4.325   2.671   6.006  0.0189  0.6386 -0.7370
  203MOL0     O27328   4.254   2.672   5.890 -0.0623 -0.5699  0.0327
  203MOL0     C27329   4.243   2.546   5.824 -0.7142 -0.4589 -0.1223
  203MOL0     C27330   4.136   2.567   5.719  0.3806  0.1528  0.3510
  203MOL0     C27331   3.995   2.579   5.771 -0.3940  0.8464 -1.3168
  203MOL0     C27332   3.888   2.613   5.667 -0.6133  0.5159 -0.1832
  203MOL0     C27333   3.892   2.750   5.608  0.2424 -0.4621 -0.2230
  203MOL0     C27334   3.878   2.870   5.577  0.9826  1.0148  0.1109
  203MOL0     C27335   4.278   2.745   6.120  0.7093  0.0306  0.6332
  203MOL0     C27336   4.350   2.759   6.234  0.2439 -0.0805  1.0594
  203MOL0     C27337   4.279   2.855   6.329  0.5385  0.0944 -0.2852
  203MOL0     H27338   4.813   2.467   6.491  1.9325  0.2801 -2.6109
  203MOL0     H27339   4.974   2.501   6.661  1.7797  0.6854 -3.3142
  203MOL0     H27340   5.080   2.751   6.947  0.0909  0.7443 -1.1104
  203MOL0     H27341   4.967   2.637   6.887 -0.4027  0.8227  0.5114
  203MOL0     H27342   5.169   2.509   6.803 -1.7479  3.6185 -2.4001
  203MOL0     H27343   5.162   2.507   6.977 -0.8621 -1.9625 -0.6573
  203MOL0     H27344   5.337   2.700   6.972 -0.0740 -0.3825  0.5424
  203MOL0     H27345   5.328   2.693   6.795 -2.7049  1.3854  0.9996
  203MOL0     H27346   5.412   2.456   6.980  0.9603 -0.2197  0.2697
  203MOL0     H27347   5.423   2.452   6.809  3.1101 -0.4864  0.5643
  203MOL0     H27348   5.590   2.640   6.818 -0.3134  1.0903  0.4781
  203MOL0     H27349   5.607   2.621   6.988 -2.0219  1.0226  0.0252
  203MOL0     H27350   5.638   2.350   6.902  1.5587  0.3615  0.8184
  203MOL0     H27351   5.673   2.422   6.753  2.6116  1.1937 -1.1493
  203MOL0     H27352   5.828   2.437   7.011 -1.6807  0.6121 -0.3017
  203MOL0     H27353   5.849   2.558   6.886 -2.0384  0.7007 -0.7230
  203MOL0     H27354   5.886   2.256   6.852 -0.6832  0.1682  3.3079
  203MOL0     H27355   5.918   2.377   6.720  2.6633 -1.7302  0.3977
  203MOL0     H27356   6.155   2.526   6.744  0.1574 -0.7575  0.4696
  203MOL0     H27357   6.346   2.631   6.899 -2.1167  0.0500  0.9996
  203MOL0     H27358   6.393   2.532   7.046 -0.8512 -1.2745 -0.5486
  203MOL0     H27359   6.497   2.361   6.895  3.2660  2.6266  4.9846
  203MOL0     H27360   6.442   2.459   6.752  1.7069  0.0750 -1.0048
  203MOL0     H27361   6.653   2.540   6.959  1.2712  1.3225 -0.2964
  203MOL0     H27362   6.623   2.613   6.798  1.0094  1.1280  1.6662
  203MOL0     H27363   6.714   2.442   6.677  3.4720 -2.3100 -1.3256
  203MOL0     H27364   6.700   2.323   6.796 -0.8915  0.5856  1.7180
  203MOL0     H27365   7.111   2.410   6.899  1.5257  0.3708 -0.6009
  203MOL0     H27366   7.273   2.283   6.795 -1.4925  2.6360  2.2402
  203MOL0     H27367   7.254   1.832   6.347 -1.1767  0.5686 -0.2772
  203MOL0     H27368   7.461   1.752   6.222 -0.2145 -0.4753 -0.0163
  203MOL0     H27369   7.738   2.012   6.033 -0.3745  2.0826  0.6745
  203MOL0     H27370   7.792   2.032   6.202  3.9820 -0.6211 -0.4089
  203MOL0     H27371   7.936   1.821   6.182  0.8575 -0.3500 -0.9895
  203MOL0     H27372   7.882   1.819   6.018 -2.3285 -0.5452  1.2596
  203MOL0     H27373   7.992   2.075   6.110  1.3249 -0.2630  1.7544
  203MOL0     H27374   8.109   1.952   6.096 -0.1787  1.0443  0.0962
  203MOL0     H27375   7.921   2.002   5.846  0.8669 -2.0966 -1.0693
  203MOL0     H27376   8.051   1.887   5.871 -2.6320 -1.9378  2.3797
  203MOL0     H27377   8.225   2.091   5.879  1.3567 -1.2209 -0.7537
  203MOL0     H27378   8.082   2.180   5.823 -0.5361 -0.9671  0.3161
  203MOL0     H27379   8.176   1.916   5.692 -4.0116 -0.2599 -0.5495
  203MOL0     H27380   8.051   2.033   5.643 -0.5915  0.2743  0.7875
  203MOL0     H27381   8.234   2.221   5.657 -1.3407 -0.6749  0.1309
  203MOL0     H27382   8.231   2.127   5.517 -0.3761 -0.9641 -0.2587
  203MOL0     H27383   8.474   2.159   5.628 -2.5147  3.1469  0.5243
  203MOL0     H27384   8.413   2.075   5.759  0.5866  2.1788  0.4036
  203MOL0     H27385   7.616   2.152   6.230  4.1455 -1.9482  2.9466
  203MOL0     H27386   7.428   2.226   6.346 -0.2616 -0.4952  1.8092
  203MOL0     H27387   7.003   2.147   6.494  1.1868 -1.0557  0.9940
  203MOL0     H27388   6.833   2.268   6.595  2.2107 -3.5467 -3.5518
  203MOL0     H27389   4.963   2.919   6.607  2.7579 -0.4948 -2.6734
  203MOL0     H27390   4.739   2.879   6.483  0.0895 -1.0656 -2.3540
  203MOL0     H27391   4.610   2.551   6.149 -1.9312 -3.6427  0.1448
  203MOL0     H27392   4.497   2.539   5.951  4.7634  3.7007  0.4668
  203MOL0     H27393   4.245   2.461   5.892 -0.5373  0.3880  0.9699
  203MOL0     H27394   4.336   2.541   5.767 -0.2922 -2.5769  0.6813
  203MOL0     H27395   4.153   2.484   5.649 -0.4571  2.1289 -2.3868
  203MOL0     H27396   4.164   2.660   5.669  0.6811  1.1230  2.2699
  203MOL0     H27397   3.995   2.655   5.849 -0.5152 -0.0097 -0.4583
  203MOL0     H27398   3.974   2.486   5.825  0.4146  2.1435  1.4566
  203MOL0     H27399   3.908   2.536   5.592  2.0765 -1.3601  2.2416
  203MOL0     H27400   3.788   2.586   5.702 -0.4430 -1.4152 -1.0545
  203MOL0     H27401   3.856   2.972   5.553  2.5748  0.7422 -3.1797
  203MOL0     H27402   4.196   2.812   6.099 -0.2474 -1.5953 -1.1269
  203MOL0     H27403   4.288   2.822   6.433 -0.4921  1.5035  0.2768
  203MOL0     H27404   4.322   2.955   6.320  1.9267 -0.5346 -0.9963
  203MOL0     H27405   4.172   2.852   6.307  0.4085 -2.6520  0.3230
  204MOL0     O27406  10.039   2.351   7.627 -0.0679 -0.2479  0.5092
  204MOL0     C27407   9.966   2.304   7.533 -0.8050  0.0726 -0.2509
  204MOL0     O27408   9.995   2.302   7.399 -0.0633  0.6642 -0.0770
  204MOL0     C27409  10.092   2.392   7.370  0.3714 -0.0800 -0.2540
  204MOL0     C27410  10.212   2.351   7.311  0.2759 -0.5278 -0.1832
  204MOL0     C27411  10.302   2.452   7.260  0.1305  0.3714 -0.6494
  204MOL0     C27412  10.283   2.589   7.279 -0.2568 -0.6520  0.3040
  204MOL0     O27413  10.373   2.679   7.216  0.1264  0.1318  0.3797
  204MOL0     C27414  10.327   2.802   7.156  0.2662  0.5037  0.6382
  204MOL0     C27415  10.365   2.910   7.249  0.5746  0.4271  0.4434
  204MOL0     C27416  10.514   2.908   7.285  0.1366  0.0011 -0.1830
  204MOL0     C27417  10.538   2.991   7.416 -0.2872 -0.3883  0.2517
  204MOL0     C27418  10.682   3.040   7.415 -0.0895  0.5432 -0.0178
  204MOL0     C27419  10.708   3.125   7.539  0.6149 -0.1253  0.1862
  204MOL0     C27420  10.863   3.154   7.569 -0.3993  0.6371  0.0990
  204MOL0     C27421  10.935   3.042   7.654  0.2891 -0.7795 -0.0834
  204MOL0     N27422  11.075   3.042   7.669  0.2603 -0.1278  0.1505
  204MOL0     C27423  11.162   3.070   7.571  0.5489  1.3835  0.1104
  204MOL0     C27424  11.281   3.081   7.626  0.5171 -0.3441  0.1597
  204MOL0     C27425  11.409   3.100   7.552 -0.5514 -0.0181  0.0783
  204MOL0     C27426  11.529   3.135   7.642  0.2962  1.1274 -1.0322
  204MOL0     C27427  11.640   3.182   7.563  0.3505 -0.0054  1.2577
  204MOL0     C27428  11.766   3.198   7.659  0.6314 -0.5157  0.5386
  204MOL0     O27429  11.844   3.301   7.604 -0.3058 -0.3550 -0.4601
  204MOL0     C27430  11.975   3.293   7.597  0.0772  0.1713 -0.2076
  204MOL0     C27431  12.040   3.414   7.611 -0.2607 -1.1683  1.1605
  204MOL0     C27432  12.174   3.430   7.574  0.0214  0.2118 -0.6002
  204MOL0     C27433  12.254   3.314   7.546  0.0522 -0.0448 -0.4412
  204MOL0     C27434  12.404   3.322   7.525  0.4629 -0.5941 -0.2421
  204MOL0     O27435  12.476   3.206   7.501  0.2558  0.2723  0.5026
  204MOL0     C27436  12.614   3.227   7.508  0.3684 -0.0751  0.4612
  204MOL0     C27437  12.692   3.203   7.392 -1.0046 -0.7961 -0.1805
  204MOL0     C27438  12.830   3.226   7.397 -0.0875  0.1694  0.0900
  204MOL0     C27439  12.894   3.254   7.517 -0.4199 -0.5939 -0.5177
  204MOL0     O27440  13.031   3.261   7.516 -0.3358  0.6695  0.1091
  204MOL0     C27441  13.105   3.365   7.582 -0.5265  0.2095 -0.0167
  204MOL0     C27442  13.092   3.495   7.496 -0.4497 -0.8901  0.7101
  204MOL0     C27443  13.170   3.620   7.549 -0.0248 -0.2119 -0.0676
  204MOL0     C27444  13.315   3.598   7.521 -1.0905  0.5526  0.0056
  204MOL0     C27445  13.397   3.722   7.561  1.8132  0.1850  0.1528
  204MOL0     C27446  13.544   3.692   7.508 -0.3173 -0.2149  0.2392
  204MOL0     C27447  13.642   3.809   7.532  0.3282 -0.7123 -0.1264
  204MOL0     C27448  13.789   3.766   7.504  0.8548 -0.0861 -0.1840
  204MOL0    Cl27449  13.893   3.901   7.545 -0.3558  0.3793 -0.2612
  204MOL0     C27450  12.817   3.260   7.637 -0.7014  0.1397  0.9417
  204MOL0     C27451  12.678   3.256   7.628 -0.2516  0.1585 -0.1311
  204MOL0     O27452  12.442   3.440   7.511  0.2433 -0.8933 -0.0191
  204MOL0     C27453  12.190   3.190   7.547 -0.3385  0.2049  0.0583
  204MOL0     C27454  12.051   3.177   7.561  0.4954 -0.5598 -0.3061
  204MOL0     N27455  11.275   3.073   7.763  0.7821  0.6489 -0.2832
  204MOL0     N27456  11.147   3.040   7.787 -1.1298 -0.5069  0.6884
  204MOL0     C27457  10.173   2.628   7.350  0.6094 -0.0003  1.2076
  204MOL0     C27458  10.068   2.537   7.387 -1.0355  0.5787  0.3363
  204MOL0     C27459   9.827   2.280   7.573 -0.7405  0.0564 -0.4646
  204MOL0     C27460   9.721   2.331   7.495  0.0473 -0.5460  0.2279
  204MOL0     C27461   9.587   2.341   7.537  0.2296  0.1809 -0.3389
  204MOL0     C27462   9.547   2.297   7.663  0.4261  0.0349  0.2983
  204MOL0     O27463   9.420   2.310   7.715  0.0792  0.5255 -0.1575
  204MOL0     C27464   9.322   2.383   7.650  0.2385 -0.5980  0.4763
  204MOL0     C27465   9.203   2.395   7.736  0.7144  0.4563  1.3856
  204MOL0     C27466   9.106   2.279   7.711 -0.1964  0.1209 -0.3489
  204MOL0     C27467   8.976   2.323   7.779 -0.0226 -0.1471  0.0446
  204MOL0     C27468   8.863   2.238   7.744 -0.2357 -0.3537 -0.4731
  204MOL0     C27469   8.777   2.159   7.709 -0.4299  0.9855 -0.6900
  204MOL0     C27470   9.652   2.234   7.738  0.3315 -0.6947  0.4332
  204MOL0     C27471   9.787   2.223   7.697  0.2154  0.5013  0.3044
  204MOL0     C27472   9.878   2.141   7.779 -0.5795 -0.3388  0.6297
  204MOL0     H27473  10.233   2.246   7.295  1.8934 -0.1585 -0.6822
  204MOL0     H27474  10.387   2.419   7.202 -0.0232 -1.7089  0.2201
  204MOL0     H27475  10.389   2.818   7.067 -1.9222 -2.1135 -1.5447
  204MOL0     H27476  10.225   2.802   7.116  0.2041  0.5157  0.7944
  204MOL0     H27477  10.314   2.907   7.346  1.9192  2.0052  1.2547
  204MOL0     H27478  10.326   3.003   7.207 -0.4189 -0.6161 -1.0618
  204MOL0     H27479  10.563   2.936   7.191 -0.8662 -0.6630 -0.9249
  204MOL0     H27480  10.552   2.809   7.308 -2.8243 -1.5119 -1.1896
  204MOL0     H27481  10.470   3.076   7.409  0.7310  0.3952 -0.4978
  204MOL0     H27482  10.521   2.925   7.501  1.6315  0.0704  1.0499
  204MOL0     H27483  10.751   2.955   7.408 -2.3136 -1.2730 -1.0772
  204MOL0     H27484  10.695   3.103   7.326 -1.2980  0.3536 -0.3473
  204MOL0     H27485  10.666   3.225   7.524  0.6684 -0.3139 -1.2993
  204MOL0     H27486  10.652   3.088   7.626 -2.8359 -0.0135 -1.7879
  204MOL0     H27487  10.881   3.247   7.623  1.5923 -0.7997  2.0966
  204MOL0     H27488  10.918   3.159   7.474 -0.4834 -0.2291 -0.0072
  204MOL0     H27489  10.900   3.064   7.755  3.8086 -0.7985  1.3062
  204MOL0     H27490  10.896   2.941   7.638 -3.0892  0.4671 -0.5041
  204MOL0     H27491  11.133   3.061   7.466 -5.1571 -0.6212  1.5198
  204MOL0     H27492  11.434   3.001   7.514  0.7782 -0.1062  1.1049
  204MOL0     H27493  11.399   3.172   7.469  1.4961  0.4895  0.2260
  204MOL0     H27494  11.499   3.206   7.720  2.4196 -0.3449  1.2656
  204MOL0     H27495  11.565   3.044   7.690  0.1477  0.3027 -2.4378
  204MOL0     H27496  11.611   3.280   7.523  0.0406 -0.7447 -0.4243
  204MOL0     H27497  11.664   3.119   7.477 -4.6627  1.3560 -1.5475
  204MOL0     H27498  11.818   3.105   7.681  2.4491 -0.2375 -2.0969
  204MOL0     H27499  11.729   3.231   7.757 -0.5858 -0.8816  0.2243
  204MOL0     H27500  11.986   3.504   7.638  0.8598 -0.4159  0.9225
  204MOL0     H27501  12.220   3.527   7.586 -2.0952  1.2919 -0.9420
  204MOL0     H27502  12.633   3.172   7.306 -2.7639  1.5424  0.0951
  204MOL0     H27503  12.893   3.200   7.313  3.0088  1.5093  1.8234
  204MOL0     H27504  13.062   3.378   7.682 -0.3967  0.2704  0.0317
  204MOL0     H27505  13.207   3.328   7.597 -0.8783 -1.0978 -0.7205
  204MOL0     H27506  13.138   3.480   7.398  1.2858 -0.3143  1.3982
  204MOL0     H27507  12.986   3.525   7.488 -0.2775 -0.1599  1.0766
  204MOL0     H27508  13.137   3.709   7.494 -1.8693  0.4147  1.9240
  204MOL0     H27509  13.148   3.633   7.655  1.7790 -2.9617  0.7764
  204MOL0     H27510  13.320   3.581   7.413 -3.1475  0.3717 -0.0923
  204MOL0     H27511  13.360   3.517   7.579  1.2618  3.8626  3.2255
  204MOL0     H27512  13.400   3.733   7.670  4.5343 -1.2319  0.3071
  204MOL0     H27513  13.346   3.800   7.503  0.0414 -0.4649  0.7539
  204MOL0     H27514  13.590   3.601   7.550  1.3821 -0.6285 -2.2578
  204MOL0     H27515  13.537   3.677   7.399 -0.7450  2.7107 -0.2072
  204MOL0     H27516  13.630   3.852   7.632  0.2442 -2.4985  0.6595
  204MOL0     H27517  13.611   3.888   7.462  0.7717  0.1050  0.5724
  204MOL0     H27518  13.799   3.672   7.560 -3.1999 -1.1689 -0.9598
  204MOL0     H27519  13.803   3.738   7.399 -2.2719 -4.8158  0.3356
  204MOL0     H27520  12.861   3.279   7.734 -4.1441  0.6772  2.5617
  204MOL0     H27521  12.621   3.279   7.718  0.1479  1.3154 -0.1534
  204MOL0     H27522  12.248   3.101   7.531  0.8125  1.1032 -0.9394
  204MOL0     H27523  12.015   3.076   7.547 -1.5112  0.2332 -1.1193
  204MOL0     H27524  10.152   2.734   7.349 -1.4581 -0.3207 -1.7630
  204MOL0     H27525   9.975   2.559   7.439 -4.4477 -1.2585 -4.2149
  204MOL0     H27526   9.746   2.372   7.397  3.1519 -0.0284  1.1118
  204MOL0     H27527   9.516   2.387   7.469 -2.5731 -0.8943  1.7020
  204MOL0     H27528   9.302   2.336   7.553  1.3829  0.0847 -0.1179
  204MOL0     H27529   9.357   2.484   7.626  0.2048 -0.6989 -0.0028
  204MOL0     H27530   9.157   2.491   7.710 -0.1871  0.5640  3.2173
  204MOL0     H27531   9.231   2.408   7.841 -0.5564 -1.2346  1.9871
  204MOL0     H27532   9.148   2.191   7.760  0.5294  0.8501  0.3658
  204MOL0     H27533   9.092   2.274   7.602 -1.4232 -0.1142 -0.2037
  204MOL0     H27534   8.991   2.321   7.887  2.1875  4.2344  0.0202
  204MOL0     H27535   8.948   2.422   7.741 -0.0595 -1.5628 -4.1722
  204MOL0     H27536   8.684   2.109   7.691 -0.0442  0.6663 -1.9412
  204MOL0     H27537   9.633   2.200   7.839 -1.1800 -2.2926 -0.3396
  204MOL0     H27538   9.848   2.133   7.884 -1.7444  1.3287  0.4629
  204MOL0     H27539   9.881   2.041   7.735 -2.5739  0.0446 -0.4974
  204MOL0     H27540   9.981   2.180   7.780 -1.1345  1.2276  0.1583
  205MOL0     O27541   7.397  10.837   1.287 -0.2679  0.2918  0.0743
  205MOL0     C27542   7.356  10.723   1.259 -0.2404 -0.3795 -0.3358
  205MOL0     O27543   7.430  10.609   1.255 -0.4495  0.3395  0.5654
  205MOL0     C27544   7.569  10.600   1.262  0.8722 -0.0419  0.9288
  205MOL0     C27545   7.642  10.598   1.140 -0.6291  0.0795  0.7683
  205MOL0     C27546   7.777  10.584   1.141 -1.3676 -0.2984 -0.5106
  205MOL0     C27547   7.847  10.576   1.257 -0.8175  0.1703 -0.6140
  205MOL0     O27548   7.984  10.560   1.260 -0.2944  0.1577 -0.0198
  205MOL0     C27549   8.067  10.583   1.141 -0.1011 -0.1845 -0.7233
  205MOL0     C27550   8.209  10.540   1.186 -0.1520 -0.1674  0.4547
  205MOL0     C27551   8.313  10.560   1.075 -1.4046 -0.3605  0.5912
  205MOL0     C27552   8.406  10.672   1.116  0.4942 -0.1832  0.4993
  205MOL0     C27553   8.513  10.721   1.026  0.2279  0.8922  0.2985
  205MOL0     C27554   8.581  10.834   1.103 -0.6277  0.2564  0.3715
  205MOL0     C27555   8.704  10.888   1.028 -0.2959  0.7262  0.0290
  205MOL0     C27556   8.818  10.784   1.039 -0.3298  0.0662 -0.2035
  205MOL0     N27557   8.863  10.783   1.181  0.2651 -0.5341  0.0073
  205MOL0     C27558   8.846  10.676   1.268  0.3197 -0.7170  0.1532
  205MOL0     C27559   8.891  10.718   1.395  0.8829  0.3699 -0.0730
  205MOL0     C27560   8.884  10.635   1.529 -0.4249 -0.2807 -0.0302
  205MOL0     C27561   8.744  10.601   1.565 -0.3600  0.4094  0.0614
  205MOL0     C27562   8.638  10.709   1.586 -0.2706 -0.2891  0.3764
  205MOL0     C27563   8.495  10.664   1.577 -0.5762  0.8125  0.7608
  205MOL0     O27564   8.460  10.578   1.682 -0.3671  0.0689  0.1095
  205MOL0     C27565   8.327  10.591   1.714 -0.3491 -0.0740 -0.0415
  205MOL0     C27566   8.292  10.584   1.851 -0.4617 -0.5829 -0.1699
  205MOL0     C27567   8.158  10.586   1.889 -0.1733 -0.6083 -0.4774
  205MOL0     C27568   8.055  10.596   1.790 -0.3004 -0.2482 -0.0654
  205MOL0     C27569   7.915  10.591   1.832 -0.1530  0.9327  0.5050
  205MOL0     O27570   7.890  10.608   1.964 -0.7403 -0.0095 -0.2252
  205MOL0     C27571   7.766  10.626   2.018  0.2603 -0.0814  0.5234
  205MOL0     C27572   7.750  10.700   2.135 -0.5684 -0.9051  0.4020
  205MOL0     C27573   7.623  10.694   2.206  0.3467 -0.4042  0.1429
  205MOL0     C27574   7.504  10.650   2.140  0.0498  0.5879  0.1516
  205MOL0     O27575   7.387  10.649   2.209  0.5751  0.3038  0.2468
  205MOL0     C27576   7.273  10.575   2.165  1.2492  0.5971  1.3325
  205MOL0     C27577   7.197  10.648   2.050 -0.0827 -0.3418 -0.1252
  205MOL0     C27578   7.055  10.599   2.036  0.5258  0.3970  0.3096
  205MOL0     C27579   6.950  10.676   2.114  0.4427 -0.0871 -0.8649
  205MOL0     C27580   6.812  10.603   2.095  1.0384 -0.0198  0.3942
  205MOL0     C27581   6.786  10.481   2.201  0.6677 -0.0203  0.6119
  205MOL0     C27582   6.639  10.419   2.199 -0.0756  0.3787  0.5258
  205MOL0     C27583   6.535  10.521   2.247  0.0824 -0.1152 -0.1593
  205MOL0    Cl27584   6.586  10.574   2.408  0.0315 -0.3745  0.3450
  205MOL0     C27585   7.518  10.580   2.016 -0.1353 -0.7023 -0.2936
  205MOL0     C27586   7.647  10.567   1.966 -1.3757 -0.8241 -0.3616
  205MOL0     O27587   7.831  10.590   1.738 -0.1852 -0.0830  0.1710
  205MOL0     C27588   8.094  10.585   1.654 -0.2819  0.4727 -0.4630
  205MOL0     C27589   8.227  10.584   1.615  0.5958  0.1000 -0.8875
  205MOL0     N27590   8.933  10.850   1.378  0.0612  0.2254 -0.1023
  205MOL0     N27591   8.906  10.888   1.256  0.7480  0.0351  0.5878
  205MOL0     C27592   7.775  10.573   1.382 -0.6011  0.5762  0.1613
  205MOL0     C27593   7.638  10.573   1.379  0.8761 -0.2344  0.2047
  205MOL0     C27594   7.214  10.709   1.217 -0.6006  0.6444  0.2668
  205MOL0     C27595   7.177  10.595   1.146  0.0987 -0.2368  0.5640
  205MOL0     C27596   7.043  10.564   1.116  0.1033  0.2668  0.2291
  205MOL0     C27597   6.941  10.650   1.157  0.0681 -0.6058 -0.1910
  205MOL0     O27598   6.812  10.617   1.142 -0.2735 -0.1066  0.3760
  205MOL0     C27599   6.712  10.716   1.154 -0.2157 -0.9225 -0.1856
  205MOL0     C27600   6.574  10.678   1.098  0.0938 -0.3522 -0.6544
  205MOL0     C27601   6.515  10.550   1.159 -0.4046 -0.0164 -0.1809
  205MOL0     C27602   6.539  10.527   1.306  0.0155  0.0309  0.6389
  205MOL0     C27603   6.444  10.424   1.346  1.0922 -0.0973  0.4135
  205MOL0     C27604   6.370  10.335   1.381  0.3619  0.8412 -0.5624
  205MOL0     C27605   6.976  10.770   1.228  0.5561  0.7916  0.6558
  205MOL0     C27606   7.111  10.803   1.251  0.3763 -0.6946 -0.8255
  205MOL0     C27607   7.122  10.935   1.320 -1.1043  0.1431  0.5550
  205MOL0     H27608   7.582  10.608   1.051 -0.1367 -1.9240  0.1566
  205MOL0     H27609   7.828  10.577   1.046  0.7303 -0.7415  0.5995
  205MOL0     H27610   8.055  10.520   1.052  2.0041 -1.3708 -0.2474
  205MOL0     H27611   8.050  10.687   1.112  0.2204  0.2089  0.4427
  205MOL0     H27612   8.213  10.433   1.209 -0.7393 -0.2106  0.3667
  205MOL0     H27613   8.226  10.607   1.271 -0.5162  1.8493 -1.0017
  205MOL0     H27614   8.268  10.605   0.986 -1.1758 -3.4118 -1.2255
  205MOL0     H27615   8.373  10.473   1.047  1.8825  1.1852  2.2115
  205MOL0     H27616   8.347  10.761   1.140  0.5535  0.3972 -1.3212
  205MOL0     H27617   8.455  10.624   1.201 -0.6070 -0.5017  0.9676
  205MOL0     H27618   8.575  10.632   1.009  0.8327  1.0536  1.5486
  205MOL0     H27619   8.470  10.754   0.931  0.4517 -1.1250 -0.5581
  205MOL0     H27620   8.504  10.910   1.118 -1.0269 -0.5997  3.2421
  205MOL0     H27621   8.613  10.804   1.203  1.2647  2.3144  0.4747
  205MOL0     H27622   8.735  10.979   1.080 -2.2821  1.2682  0.3540
  205MOL0     H27623   8.674  10.921   0.928  0.6792  1.5323 -0.0199
  205MOL0     H27624   8.781  10.683   1.018 -2.5949 -0.3708  4.5110
  205MOL0     H27625   8.898  10.813   0.970  0.2436 -0.2726  0.3053
  205MOL0     H27626   8.803  10.578   1.249 -0.6784 -0.3479  0.4405
  205MOL0     H27627   8.935  10.545   1.495 -0.0462 -0.0964  0.0437
  205MOL0     H27628   8.939  10.688   1.607 -0.9131  2.3632 -1.3491
  205MOL0     H27629   8.704  10.538   1.485 -0.0886 -0.9828  0.9824
  205MOL0     H27630   8.745  10.546   1.660 -2.4690  1.5534  0.8182
  205MOL0     H27631   8.660  10.787   1.512  0.9718 -0.6832  0.3106
  205MOL0     H27632   8.659  10.737   1.690 -0.4330 -4.4194  1.6735
  205MOL0     H27633   8.484  10.619   1.478  0.3298  1.1973  0.4699
  205MOL0     H27634   8.439  10.757   1.573  1.2122  1.9820  1.5399
  205MOL0     H27635   8.376  10.577   1.919 -1.9019  0.3472  1.8008
  205MOL0     H27636   8.136  10.592   1.995 -4.5479  0.4538 -1.2656
  205MOL0     H27637   7.836  10.738   2.188 -1.4495 -1.7951  2.5656
  205MOL0     H27638   7.607  10.727   2.308 -3.9982  0.4062 -0.5830
  205MOL0     H27639   7.304  10.471   2.150 -0.4302  0.2052  0.1949
  205MOL0     H27640   7.200  10.568   2.246  0.6248 -0.2691  0.7235
  205MOL0     H27641   7.201  10.754   2.077  1.7180 -0.2135 -0.7545
  205MOL0     H27642   7.245  10.641   1.952  0.0386  0.9395 -0.1770
  205MOL0     H27643   7.032  10.586   1.930 -3.1179  0.7068  0.9169
  205MOL0     H27644   7.056  10.501   2.084  0.3630 -0.3092 -1.0595
  205MOL0     H27645   6.934  10.779   2.079 -0.6215  0.3881  0.8935
  205MOL0     H27646   6.973  10.689   2.220  2.3768  1.2347 -1.3884
  205MOL0     H27647   6.819  10.568   1.992 -1.0964 -0.8796  0.4866
  205MOL0     H27648   6.735  10.678   2.079  2.5115  0.8799 -3.9945
  205MOL0     H27649   6.862  10.406   2.179 -0.3741 -0.4567 -1.7831
  205MOL0     H27650   6.806  10.521   2.301  0.4173 -1.1502  1.1192
  205MOL0     H27651   6.637  10.329   2.260 -2.1575  2.1128  3.2945
  205MOL0     H27652   6.614  10.398   2.095  3.9699 -1.2951 -0.2743
  205MOL0     H27653   6.521  10.607   2.181  1.8356  1.9504  1.9681
  205MOL0     H27654   6.438  10.472   2.260  0.8722 -1.2280  2.1246
  205MOL0     H27655   7.442  10.530   1.957 -1.2586 -0.5524  0.9820
  205MOL0     H27656   7.669  10.500   1.884  0.4303  0.2737 -0.8148
  205MOL0     H27657   8.015  10.591   1.580 -0.6011 -0.7785 -0.2398
  205MOL0     H27658   8.260  10.576   1.512 -1.3291 -0.9522 -1.4874
  205MOL0     H27659   7.830  10.558   1.474 -0.5172  2.5945  0.4870
  205MOL0     H27660   7.580  10.559   1.470  0.2487  1.2079  0.0580
  205MOL0     H27661   7.252  10.529   1.105 -0.6610 -1.3458  0.9013
  205MOL0     H27662   7.009  10.469   1.076 -0.2925  0.9775 -1.1971
  205MOL0     H27663   6.752  10.801   1.099 -0.0933 -0.0410  1.2103
  205MOL0     H27664   6.701  10.755   1.256  0.8669  3.0054 -1.3955
  205MOL0     H27665   6.582  10.654   0.992  1.5782 -3.2721  0.0137
  205MOL0     H27666   6.506  10.763   1.105  1.8585  0.9584  2.2991
  205MOL0     H27667   6.572  10.471   1.108  1.0458  0.1287  1.1241
  205MOL0     H27668   6.412  10.531   1.128 -0.2948 -3.6395  1.2148
  205MOL0     H27669   6.647  10.511   1.314  0.1813  0.8578  0.1478
  205MOL0     H27670   6.522  10.615   1.368  1.9420  1.5411 -0.8509
  205MOL0     H27671   6.301  10.264   1.420 -1.3315  2.6671 -0.0771
  205MOL0     H27672   6.901  10.841   1.262  0.2025  1.9951 -2.3347
  205MOL0     H27673   7.037  10.962   1.383 -0.3421  0.1098  1.6235
  205MOL0     H27674   7.211  10.954   1.382 -0.1964  2.3264 -1.2647
  205MOL0     H27675   7.123  11.013   1.243  0.6408  0.4004  0.7936
  206MOL0     O27676   1.904   0.760   6.462 -0.3285 -0.5244 -0.0340
  206MOL0     C27677   1.855   0.879   6.480  0.1109  0.6615  0.1786
  206MOL0     O27678   1.918   0.986   6.549 -0.1498 -0.1572  0.1682
  206MOL0     C27679   2.055   0.988   6.572 -0.4644  0.7792  0.1620
  206MOL0     C27680   2.139   1.083   6.517  0.2620 -0.5493 -0.4483
  206MOL0     C27681   2.280   1.081   6.533  0.1752  0.5178 -0.6784
  206MOL0     C27682   2.346   0.973   6.592 -0.3360  0.2391 -0.7088
  206MOL0     O27683   2.486   0.979   6.590  0.4100  0.1157 -0.1095
  206MOL0     C27684   2.550   0.901   6.693 -0.3826  1.0571 -0.2117
  206MOL0     C27685   2.706   0.923   6.695  0.3503  0.1838 -0.1026
  206MOL0     C27686   2.777   0.830   6.795 -0.1040  0.3103 -0.0173
  206MOL0     C27687   2.925   0.809   6.762 -0.6177 -0.3364 -0.5671
  206MOL0     C27688   2.996   0.743   6.875  1.2629 -0.3650 -0.4017
  206MOL0     C27689   3.149   0.725   6.852 -0.5199 -0.1853 -0.1158
  206MOL0     C27690   3.181   0.609   6.757 -0.3180  0.4240 -0.1293
  206MOL0     C27691   3.326   0.603   6.713  0.1602 -0.0979 -0.0161
  206MOL0     N27692   3.427   0.577   6.820 -0.2882 -1.2762 -0.2656
  206MOL0     C27693   3.484   0.669   6.899 -0.1506 -0.1143 -0.4367
  206MOL0     C27694   3.602   0.613   6.934  0.3548 -0.3717 -0.0800
  206MOL0     C27695   3.721   0.676   7.012  0.3462  0.3560 -0.4502
  206MOL0     C27696   3.789   0.777   6.923 -1.0519 -0.2277 -0.2341
  206MOL0     C27697   3.910   0.843   6.990  0.0359  0.2706  0.7409
  206MOL0     C27698   3.943   0.973   6.915 -0.4471 -0.3336 -0.3640
  206MOL0     O27699   3.956   0.953   6.773  0.4868 -0.0969 -0.3685
  206MOL0     C27700   4.067   0.900   6.723  0.8093  0.1305  0.9395
  206MOL0     C27701   4.204   0.920   6.775  0.2546  0.7578 -0.7261
  206MOL0     C27702   4.310   0.858   6.715  0.0702  0.7664  0.2073
  206MOL0     C27703   4.292   0.777   6.606  0.6711  0.3788 -0.7000
  206MOL0     C27704   4.402   0.706   6.542 -1.2494  0.3597  0.7098
  206MOL0     O27705   4.527   0.730   6.600  0.8555  0.4266  0.1421
  206MOL0     C27706   4.651   0.690   6.542  0.8888 -0.4826  0.3964
  206MOL0     C27707   4.753   0.682   6.629 -0.2380  0.7592 -0.5384
  206MOL0     C27708   4.882   0.645   6.584  0.9110 -1.3750  0.9603
  206MOL0     C27709   4.906   0.609   6.449 -0.2907  0.5247  0.9838
  206MOL0     O27710   5.035   0.569   6.409  0.0880 -0.1574 -0.3304
  206MOL0     C27711   5.145   0.650   6.458  0.0525  0.1000  0.2604
  206MOL0     C27712   5.264   0.636   6.363  0.2237 -0.2400  0.6352
  206MOL0     C27713   5.333   0.765   6.329 -1.0538 -0.4397  0.8570
  206MOL0     C27714   5.456   0.742   6.243 -0.3275  0.0068  0.0497
  206MOL0     C27715   5.516   0.869   6.184  0.0147 -0.1348 -0.4969
  206MOL0     C27716   5.655   0.841   6.133  0.4468 -0.3885 -0.1027
  206MOL0     C27717   5.703   0.943   6.032 -0.4842 -0.3979  0.9422
  206MOL0     C27718   5.851   0.927   5.988 -0.4995 -0.6620  0.5223
  206MOL0    Cl27719   5.876   0.773   5.902 -0.1063  0.0082 -0.3304
  206MOL0     C27720   4.803   0.629   6.359  0.0622  0.5359  0.3431
  206MOL0     C27721   4.677   0.659   6.406  0.1987  0.6601 -0.9509
  206MOL0     O27722   4.375   0.620   6.454 -0.5738  0.4068 -0.6463
  206MOL0     C27723   4.167   0.761   6.552  1.1716 -0.2051  0.5056
  206MOL0     C27724   4.055   0.824   6.613  0.5216 -0.1231  0.4197
  206MOL0     N27725   3.616   0.485   6.885 -0.1828  0.1420 -0.7275
  206MOL0     N27726   3.503   0.464   6.819  0.1735  0.5842 -0.4336
  206MOL0     C27727   2.261   0.870   6.644  0.2441  0.6175  0.3795
  206MOL0     C27728   2.121   0.886   6.642 -0.6347  0.2227  0.1088
  206MOL0     C27729   1.718   0.911   6.433  0.9293 -0.5349 -0.8407
  206MOL0     C27730   1.659   1.036   6.469 -0.2068 -0.2264 -0.9228
  206MOL0     C27731   1.531   1.073   6.445  0.5258  0.1156 -0.7715
  206MOL0     C27732   1.445   0.992   6.380 -0.0338  0.3243  0.9263
  206MOL0     O27733   1.321   1.047   6.345  0.4017 -0.0230 -0.1725
  206MOL0     C27734   1.211   0.956   6.325  0.2206  0.4484  0.1968
  206MOL0     C27735   1.093   1.032   6.263  0.3031 -0.3820  0.0688
  206MOL0     C27736   1.122   1.075   6.117  0.1863  0.1583  0.4553
  206MOL0     C27737   1.002   1.125   6.049  0.4970 -0.3566  0.3506
  206MOL0     C27738   0.888   1.041   6.016 -0.0326  0.6049 -0.1628
  206MOL0     C27739   0.796   0.971   5.983 -0.4889 -0.7899 -0.1215
  206MOL0     C27740   1.500   0.865   6.343  0.2316  0.7670 -0.0317
  206MOL0     C27741   1.628   0.820   6.370  0.1890 -1.2440  0.3381
  206MOL0     C27742   1.666   0.679   6.337  0.3793 -0.4026  0.2674
  206MOL0     H27743   2.098   1.173   6.471 -0.3168  0.7145  2.3466
  206MOL0     H27744   2.346   1.153   6.486  1.2768 -0.6560 -0.9799
  206MOL0     H27745   2.515   0.932   6.792  1.8395  1.6843  0.4316
  206MOL0     H27746   2.523   0.797   6.671 -0.8148  0.8853  1.0467
  206MOL0     H27747   2.745   1.023   6.714 -0.9143  0.4576  1.1943
  206MOL0     H27748   2.739   0.895   6.594  1.0905  0.5288  0.0346
  206MOL0     H27749   2.729   0.732   6.807  1.0695 -0.7275 -2.8104
  206MOL0     H27750   2.780   0.870   6.896 -1.4094 -2.4535  1.2193
  206MOL0     H27751   2.951   0.757   6.669  2.2028  0.5788 -0.3864
  206MOL0     H27752   2.967   0.909   6.751 -1.0421  0.0823  1.3045
  206MOL0     H27753   2.983   0.801   6.966 -0.9162  1.9483 -2.0346
  206MOL0     H27754   2.943   0.649   6.892 -1.7757  1.1912 -0.5557
  206MOL0     H27755   3.197   0.820   6.824  3.1611 -1.7301  0.3089
  206MOL0     H27756   3.205   0.708   6.944  0.5522  0.6625 -0.5833
  206MOL0     H27757   3.116   0.599   6.670  1.1307 -1.4358 -1.0795
  206MOL0     H27758   3.165   0.511   6.803  1.2261 -0.2839 -1.0361
  206MOL0     H27759   3.346   0.522   6.643  0.0898 -0.7245  0.6808
  206MOL0     H27760   3.348   0.695   6.657  0.2645 -0.7707 -1.1126
  206MOL0     H27761   3.437   0.765   6.922 -3.8859 -1.5973 -1.1249
  206MOL0     H27762   3.690   0.727   7.103 -3.0507 -1.0483 -0.6604
  206MOL0     H27763   3.786   0.594   7.045  2.3733  2.2566  0.4789
  206MOL0     H27764   3.840   0.718   6.846  1.5213 -1.8599  2.4713
  206MOL0     H27765   3.726   0.859   6.890 -0.8519  0.3383  0.7336
  206MOL0     H27766   3.997   0.777   7.001 -1.0816 -1.6806 -1.2779
  206MOL0     H27767   3.874   0.867   7.091 -1.2632  0.9381  0.1410
  206MOL0     H27768   4.036   1.010   6.958 -2.0477  1.6285  1.6698
  206MOL0     H27769   3.862   1.044   6.938  1.1682  0.4663  3.9095
  206MOL0     H27770   4.225   0.979   6.864 -2.1021 -1.1925  1.2755
  206MOL0     H27771   4.407   0.857   6.764 -0.8931  2.6997  2.3661
  206MOL0     H27772   4.738   0.719   6.730  1.9425  1.1488 -0.3075
  206MOL0     H27773   4.964   0.644   6.655  3.2235  1.5007 -1.4030
  206MOL0     H27774   5.124   0.756   6.479  3.1180  1.0100 -0.7461
  206MOL0     H27775   5.174   0.609   6.555  0.5351 -0.5084 -0.1376
  206MOL0     H27776   5.334   0.569   6.414 -0.6328 -0.3358  1.7437
  206MOL0     H27777   5.217   0.588   6.277  2.1297  2.1852 -1.9082
  206MOL0     H27778   5.268   0.842   6.286  1.8179  0.7235 -1.7389
  206MOL0     H27779   5.380   0.801   6.421 -1.5264 -1.1724  1.4087
  206MOL0     H27780   5.422   0.688   6.153 -2.8303 -0.6003  1.2694
  206MOL0     H27781   5.527   0.684   6.302  0.0065  1.5295  1.1902
  206MOL0     H27782   5.504   0.943   6.263  0.5465 -1.2494  0.6672
  206MOL0     H27783   5.459   0.907   6.099 -0.1923 -0.7841 -0.6540
  206MOL0     H27784   5.727   0.832   6.214  1.3424 -2.8644 -1.0786
  206MOL0     H27785   5.658   0.744   6.084  0.9932 -0.5767  0.2928
  206MOL0     H27786   5.690   1.036   6.088 -0.9581 -0.8095  1.5332
  206MOL0     H27787   5.637   0.932   5.945 -0.3317 -1.5479  0.9588
  206MOL0     H27788   5.878   1.014   5.927  0.1159 -2.5180 -2.0172
  206MOL0     H27789   5.918   0.911   6.073  0.4388  1.1806  0.1986
  206MOL0     H27790   4.821   0.611   6.253  1.1139 -1.1842  0.7641
  206MOL0     H27791   4.597   0.658   6.333  0.6433  0.8007 -1.4510
  206MOL0     H27792   4.151   0.705   6.460  0.6226 -0.4781  0.7624
  206MOL0     H27793   3.959   0.798   6.570  1.8544 -0.1803 -2.8633
  206MOL0     H27794   2.306   0.784   6.692  2.4090 -0.0471 -2.5526
  206MOL0     H27795   2.065   0.806   6.690  1.9170 -0.9688  1.2982
  206MOL0     H27796   1.720   1.112   6.516  2.4470 -1.5204 -2.0515
  206MOL0     H27797   1.492   1.172   6.466  1.6375  0.6088 -0.9844
  206MOL0     H27798   1.182   0.911   6.420 -1.7418  0.1164 -0.5149
  206MOL0     H27799   1.230   0.884   6.245 -1.4106  0.4329 -0.2129
  206MOL0     H27800   1.095   1.117   6.332 -0.5940 -3.0935  3.7987
  206MOL0     H27801   0.996   0.982   6.274  0.1721 -0.1433  0.0097
  206MOL0     H27802   1.166   0.992   6.061  2.3958 -0.8441  3.4369
  206MOL0     H27803   1.192   1.158   6.129 -2.4526  2.4249  1.2726
  206MOL0     H27804   0.964   1.219   6.089 -0.0099  0.1638 -1.2801
  206MOL0     H27805   1.037   1.152   5.949 -0.7128 -0.5129 -0.1370
  206MOL0     H27806   0.720   0.909   5.942 -0.3910 -1.4902  0.7299
  206MOL0     H27807   1.439   0.789   6.294  2.1474 -0.8427 -0.0709
  206MOL0     H27808   1.739   0.684   6.256 -0.7498  2.5855 -0.7338
  206MOL0     H27809   1.711   0.616   6.413 -0.3609 -1.4168 -0.1196
  206MOL0     H27810   1.583   0.632   6.283 -0.2389  2.1905 -1.2297
  207MOL0     O27811  11.226   0.928   1.400 -0.7546  0.2367 -0.4199
  207MOL0     C27812  11.151   0.838   1.430 -0.7802  0.9048  0.5843
  207MOL0     O27813  11.190   0.721   1.483 -0.7258  0.1529 -0.1066
  207MOL0     C27814  11.319   0.699   1.513  0.6161  1.1028  0.0094
  207MOL0     C27815  11.397   0.788   1.592 -0.4522  0.6168 -0.1774
  207MOL0     C27816  11.530   0.748   1.628 -0.3146 -0.1726 -0.1244
  207MOL0     C27817  11.583   0.622   1.587 -0.1155  0.1214 -0.2391
  207MOL0     O27818  11.709   0.577   1.627 -0.1139  0.5203 -1.0760
  207MOL0     C27819  11.816   0.664   1.617 -0.0225 -0.2928  0.1183
  207MOL0     C27820  11.938   0.618   1.693  0.0256 -1.0489  0.0213
  207MOL0     C27821  12.071   0.697   1.662  0.1655  0.1676 -0.4242
  207MOL0     C27822  12.180   0.629   1.729 -0.5233  0.1025 -0.3388
  207MOL0     C27823  12.329   0.680   1.711  0.1278  0.6380  0.4238
  207MOL0     C27824  12.427   0.587   1.783  0.2605  0.4818 -0.5847
  207MOL0     C27825  12.573   0.624   1.791  0.1449 -0.2059 -0.2047
  207MOL0     C27826  12.644   0.516   1.878 -0.4075 -0.3419  0.2026
  207MOL0     N27827  12.785   0.552   1.898  0.1723 -1.0589 -0.5819
  207MOL0     C27828  12.827   0.606   2.016  0.0255 -0.0034 -0.2657
  207MOL0     C27829  12.952   0.647   1.986  0.6650 -0.3836  0.6695
  207MOL0     C27830  13.020   0.739   2.079 -0.4431  0.5756  0.4511
  207MOL0     C27831  13.109   0.663   2.185  1.2587 -0.1840  0.4543
  207MOL0     C27832  13.221   0.575   2.138  0.6201 -0.3469 -0.5127
  207MOL0     C27833  13.312   0.636   2.031 -0.4764 -0.0340 -1.0249
  207MOL0     O27834  13.383   0.751   2.084 -0.7371 -0.0409  0.2323
  207MOL0     C27835  13.497   0.783   2.014  0.1525 -0.0155  0.2955
  207MOL0     C27836  13.547   0.738   1.891  0.0554  0.0415 -0.4332
  207MOL0     C27837  13.672   0.787   1.836  0.2346 -0.2405 -1.0594
  207MOL0     C27838  13.739   0.899   1.894  0.6208 -0.0732  0.9616
  207MOL0     C27839  13.861   0.952   1.829 -0.3520  0.3681  0.1482
  207MOL0     O27840  13.903   1.074   1.862 -0.9747 -0.9657 -0.2304
  207MOL0     C27841  14.018   1.142   1.825 -0.3231  0.5907 -0.3220
  207MOL0     C27842  14.131   1.070   1.775 -0.0081 -0.0788  0.3310
  207MOL0     C27843  14.238   1.138   1.725 -0.5082  0.1615  1.2470
  207MOL0     C27844  14.241   1.274   1.730 -0.2809 -0.4861  0.0209
  207MOL0     O27845  14.345   1.339   1.674 -0.6671  0.1006  0.2022
  207MOL0     C27846  14.394   1.458   1.746  0.0056 -0.8517  0.5664
  207MOL0     C27847  14.494   1.531   1.648  0.4438 -0.5985  0.8694
  207MOL0     C27848  14.632   1.565   1.716  0.3267 -0.6122  0.1805
  207MOL0     C27849  14.749   1.595   1.621 -0.2303 -0.7409 -1.0420
  207MOL0     C27850  14.863   1.650   1.699 -0.3321  0.1546  0.7915
  207MOL0     C27851  14.982   1.680   1.602 -0.2012 -0.0913 -0.4952
  207MOL0     C27852  15.036   1.800   1.655 -0.9221 -0.6917 -0.5884
  207MOL0     C27853  15.165   1.835   1.579 -1.0847 -0.0116 -0.4974
  207MOL0    Cl27854  15.301   1.721   1.628 -0.0128 -0.0528  0.0073
  207MOL0     C27855  14.123   1.347   1.773 -0.2731 -0.3523  0.0718
  207MOL0     C27856  14.018   1.277   1.830  1.3537  0.6376  1.2638
  207MOL0     O27857  13.921   0.879   1.755  0.1399 -0.3265  0.2794
  207MOL0     C27858  13.680   0.945   2.011  0.8748  0.0693  0.0071
  207MOL0     C27859  13.570   0.887   2.074 -0.0059 -0.2006  0.7165
  207MOL0     N27860  12.991   0.606   1.857 -0.1795  0.1601  0.3965
  207MOL0     N27861  12.886   0.550   1.805  0.2893  0.4378 -0.4039
  207MOL0     C27862  11.500   0.536   1.512  0.6612  0.4769  0.0516
  207MOL0     C27863  11.367   0.571   1.477  0.5051 -0.7426 -0.2577
  207MOL0     C27864  11.008   0.852   1.391  0.2599  0.1178 -0.6946
  207MOL0     C27865  10.921   0.741   1.409  0.5231 -0.0322  0.2540
  207MOL0     C27866  10.790   0.754   1.368 -0.6985  0.0695  0.2701
  207MOL0     C27867  10.736   0.872   1.324  0.9799  0.1751  0.3890
  207MOL0     O27868  10.604   0.883   1.291 -0.5526  0.9679 -0.4994
  207MOL0     C27869  10.571   0.839   1.154  0.2647 -0.2817 -0.1545
  207MOL0     C27870  10.543   0.967   1.076  0.2074  0.3220 -0.0163
  207MOL0     C27871  10.510   0.933   0.925 -0.0141 -0.3685 -0.7416
  207MOL0     C27872  10.492   1.049   0.840  1.0427  0.4365  0.1785
  207MOL0     C27873  10.419   1.161   0.907 -0.6050 -0.6854  0.3513
  207MOL0     C27874  10.359   1.257   0.951  0.1376  0.0181 -0.8127
  207MOL0     C27875  10.815   0.985   1.313 -0.6527  0.6854 -0.0089
  207MOL0     C27876  10.949   0.973   1.350  0.2010 -0.6047  0.0849
  207MOL0     C27877  11.038   1.107   1.339 -0.5121  0.1126 -0.1606
  207MOL0     H27878  11.349   0.876   1.633 -0.6093  0.3066  0.3176
  207MOL0     H27879  11.586   0.828   1.676 -1.6492  0.4916  0.3747
  207MOL0     H27880  11.846   0.672   1.512 -0.3626  0.1457  0.0508
  207MOL0     H27881  11.786   0.762   1.655  1.2724  0.0156  0.3821
  207MOL0     H27882  11.953   0.515   1.659  0.2572 -0.3286 -2.2262
  207MOL0     H27883  11.913   0.615   1.799 -0.8702  0.2069 -0.1292
  207MOL0     H27884  12.074   0.802   1.691  1.3508  0.4855 -1.5875
  207MOL0     H27885  12.095   0.688   1.555  2.9282  1.2039  0.0424
  207MOL0     H27886  12.159   0.643   1.835 -2.3125  2.0320 -0.8758
  207MOL0     H27887  12.172   0.524   1.700  0.1371  0.4086 -1.7149
  207MOL0     H27888  12.361   0.686   1.607 -1.0663  0.3015  0.0182
  207MOL0     H27889  12.338   0.780   1.755 -1.0507  0.8136  0.2905
  207MOL0     H27890  12.398   0.579   1.889  1.3205  1.0269 -0.2343
  207MOL0     H27891  12.417   0.490   1.733  0.7303  0.3110 -0.3573
  207MOL0     H27892  12.585   0.720   1.842 -1.1956  0.4608 -1.0902
  207MOL0     H27893  12.609   0.624   1.687  0.0527 -3.0256 -0.2910
  207MOL0     H27894  12.604   0.514   1.980 -1.5954 -1.4609 -0.2562
  207MOL0     H27895  12.637   0.414   1.839  0.0965 -1.2405  2.3044
  207MOL0     H27896  12.780   0.638   2.109  1.8191  1.9712  0.0355
  207MOL0     H27897  13.079   0.798   2.008 -0.5878 -2.0708 -2.0585
  207MOL0     H27898  12.950   0.811   2.123  0.4881  2.0349 -0.3647
  207MOL0     H27899  13.152   0.741   2.249 -0.2997 -0.4562  1.9441
  207MOL0     H27900  13.041   0.607   2.250 -1.9819  0.7626 -1.8479
  207MOL0     H27901  13.178   0.482   2.099  0.2059 -0.1565 -0.5213
  207MOL0     H27902  13.285   0.557   2.224  1.5852  1.7050 -0.7494
  207MOL0     H27903  13.247   0.678   1.954 -0.5074  1.0302 -0.4366
  207MOL0     H27904  13.379   0.561   1.987 -1.7782  0.2720 -3.7337
  207MOL0     H27905  13.501   0.650   1.848 -0.0925 -1.7938  3.1031
  207MOL0     H27906  13.707   0.747   1.741 -2.2155 -0.7060 -1.8449
  207MOL0     H27907  14.146   0.963   1.766  0.3766 -0.1037  1.1684
  207MOL0     H27908  14.327   1.086   1.692 -2.8355 -0.8720 -4.5523
  207MOL0     H27909  14.316   1.526   1.782  1.5672  0.7946  1.0155
  207MOL0     H27910  14.453   1.413   1.826  2.8708 -1.6008 -1.7727
  207MOL0     H27911  14.514   1.463   1.565  3.3541 -0.1262  1.0759
  207MOL0     H27912  14.444   1.622   1.613  0.7575 -1.1378 -1.0952
  207MOL0     H27913  14.623   1.647   1.788 -0.5177  0.1338 -0.7426
  207MOL0     H27914  14.664   1.477   1.772  1.7520  0.0652  0.4714
  207MOL0     H27915  14.723   1.674   1.549  3.1887  0.5204 -1.0363
  207MOL0     H27916  14.784   1.505   1.569 -0.4940 -1.1143 -0.5803
  207MOL0     H27917  14.897   1.576   1.772  2.0928  1.0989  0.7216
  207MOL0     H27918  14.839   1.740   1.756  0.9113  1.8189 -1.1693
  207MOL0     H27919  15.057   1.601   1.603  1.1182  1.1281  0.0208
  207MOL0     H27920  14.951   1.703   1.500  0.3634  1.3608 -0.3711
  207MOL0     H27921  15.049   1.795   1.764 -0.8445 -1.4627 -0.6320
  207MOL0     H27922  14.965   1.877   1.624 -0.5841 -0.0889  0.0924
  207MOL0     H27923  15.144   1.830   1.471 -0.3185 -0.9802 -0.6162
  207MOL0     H27924  15.205   1.936   1.593  0.5682 -0.3004 -2.5904
  207MOL0     H27925  14.117   1.455   1.770  1.6495 -0.1723  0.9243
  207MOL0     H27926  13.935   1.333   1.872  0.7869 -0.6439  1.8932
  207MOL0     H27927  13.721   1.030   2.065 -3.4325  2.7570 -0.3927
  207MOL0     H27928  13.534   0.926   2.168  0.7679 -1.6174  1.6344
  207MOL0     H27929  11.535   0.436   1.489 -3.3573 -0.6248 -2.2414
  207MOL0     H27930  11.296   0.504   1.429 -2.1717  0.5807  1.6384
  207MOL0     H27931  10.938   0.642   1.452  0.0499 -0.4252 -0.4331
  207MOL0     H27932  10.726   0.667   1.376 -2.7228  1.2037 -2.2637
  207MOL0     H27933  10.485   0.771   1.162 -1.8067  2.2757  0.5537
  207MOL0     H27934  10.653   0.791   1.100  0.7406  2.8646 -2.5160
  207MOL0     H27935  10.633   1.029   1.086 -0.0270  0.6684 -0.0136
  207MOL0     H27936  10.457   1.015   1.123 -0.4656 -1.9599  1.2161
  207MOL0     H27937  10.424   0.866   0.915  0.1152 -0.9122  1.2091
  207MOL0     H27938  10.584   0.870   0.876  0.4992 -1.1442  0.9306
  207MOL0     H27939  10.592   1.078   0.807  0.9844  0.1472 -0.2549
  207MOL0     H27940  10.435   1.017   0.752  0.6721 -2.9189  1.5100
  207MOL0     H27941  10.311   1.339   1.001 -0.1802 -0.7487  0.1725
  207MOL0     H27942  10.775   1.077   1.270  0.8740  0.9356 -0.9782
  207MOL0     H27943  11.097   1.121   1.430 -2.3281 -0.5212  1.1807
  207MOL0     H27944  11.109   1.097   1.257  0.5800 -0.4969  0.8293
  207MOL0     H27945  10.972   1.194   1.330  1.0309  1.3020 -0.4446
  208MOL0     O27946  10.514   5.247   5.106  0.2722 -0.5240 -0.2010
  208MOL0     C27947  10.509   5.344   5.030 -0.1774  1.0441 -0.3337
  208MOL0     O27948  10.606   5.380   4.938  0.6527  0.1558  0.2609
  208MOL0     C27949  10.716   5.297   4.921 -0.2718  0.1250 -0.0158
  208MOL0     C27950  10.728   5.153   4.931  0.1501 -0.0380 -0.2869
  208MOL0     C27951  10.854   5.090   4.904  0.1071  0.0248 -0.5702
  208MOL0     C27952  10.964   5.162   4.855 -0.4808  1.1146 -0.0965
  208MOL0     O27953  11.081   5.085   4.848 -0.2601 -0.0302 -0.5374
  208MOL0     C27954  11.192   5.157   4.794 -0.0019  0.0295 -0.0196
  208MOL0     C27955  11.293   5.058   4.756 -0.4270  0.1654 -0.1954
  208MOL0     C27956  11.402   5.126   4.671  0.3941  0.2091 -0.0723
  208MOL0     C27957  11.520   5.028   4.649  0.3871 -0.1343  0.2804
  208MOL0     C27958  11.611   5.084   4.540  0.4107  0.0843 -0.1919
  208MOL0     C27959  11.715   4.981   4.502 -0.3704 -0.0332  0.8200
  208MOL0     C27960  11.771   5.036   4.368 -0.5008  0.3377 -0.4344
  208MOL0     C27961  11.860   4.933   4.290 -0.7162  0.1049  0.7815
  208MOL0     N27962  11.963   4.870   4.366 -0.7297  0.6367 -0.0573
  208MOL0     C27963  12.047   4.922   4.463 -0.1262 -0.0889 -0.4437
  208MOL0     C27964  12.088   4.821   4.545 -0.2046  0.3377  0.9361
  208MOL0     C27965  12.180   4.823   4.657 -0.0520  0.2137  0.6452
  208MOL0     C27966  12.326   4.817   4.620  0.3908 -0.0507 -0.0954
  208MOL0     C27967  12.427   4.765   4.733 -0.9844 -0.1935  0.0787
  208MOL0     C27968  12.575   4.797   4.707 -0.1696 -0.0179 -0.6986
  208MOL0     O27969  12.640   4.832   4.831  0.2412  0.8141  0.0426
  208MOL0     C27970  12.775   4.829   4.847 -0.1673  1.0259  0.5278
  208MOL0     C27971  12.829   4.906   4.946 -0.4631  0.2146 -0.3014
  208MOL0     C27972  12.963   4.887   4.988  0.5073  0.0725 -0.5220
  208MOL0     C27973  13.051   4.796   4.910  0.1651 -0.2148 -0.2144
  208MOL0     C27974  13.192   4.773   4.940  0.1195 -0.4049 -0.5165
  208MOL0     O27975  13.264   4.731   4.831 -0.7976 -0.0934 -0.3581
  208MOL0     C27976  13.398   4.741   4.822  0.2350 -0.9965 -0.7195
  208MOL0     C27977  13.491   4.710   4.926  0.8408 -0.1019  0.2953
  208MOL0     C27978  13.626   4.722   4.912 -0.4676  0.4443 -0.7789
  208MOL0     C27979  13.678   4.766   4.792 -0.4295  0.2924 -0.2557
  208MOL0     O27980  13.816   4.771   4.785  0.2975  0.3716  0.0649
  208MOL0     C27981  13.880   4.653   4.732  0.8377  0.5270 -0.6422
  208MOL0     C27982  13.969   4.579   4.830  0.1801 -0.1576  0.5157
  208MOL0     C27983  14.079   4.492   4.770 -0.2451 -0.3293 -0.3581
  208MOL0     C27984  14.175   4.438   4.876  0.7889 -0.0985  0.5934
  208MOL0     C27985  14.271   4.346   4.806 -0.5542  0.2147  0.3049
  208MOL0     C27986  14.392   4.346   4.890 -0.6496  0.8494 -0.5599
  208MOL0     C27987  14.501   4.256   4.818 -0.3937  0.0323  0.1239
  208MOL0     C27988  14.643   4.248   4.891 -0.2358  0.0876 -0.1393
  208MOL0    Cl27989  14.723   4.402   4.932  0.1775 -0.3721 -0.4396
  208MOL0     C27990  13.590   4.792   4.682 -0.0158 -0.0729 -0.0691
  208MOL0     C27991  13.450   4.782   4.697 -0.4459 -0.1025 -0.4566
  208MOL0     O27992  13.242   4.829   5.037 -0.0653 -0.1498 -1.2576
  208MOL0     C27993  12.992   4.730   4.803  0.3535 -0.4826  1.2147
  208MOL0     C27994  12.858   4.751   4.763 -0.5799 -0.8168 -0.0598
  208MOL0     N27995  12.027   4.706   4.492 -0.1426 -0.1668  0.7875
  208MOL0     N27996  11.952   4.736   4.391 -0.1152  0.2629  0.0331
  208MOL0     C27997  10.957   5.299   4.843 -0.3675 -0.6783 -0.4098
  208MOL0     C27998  10.833   5.361   4.875  0.2752  0.0354 -0.9929
  208MOL0     C27999  10.390   5.440   5.041  0.4009  0.8043  0.8258
  208MOL0     C28000  10.410   5.578   5.036 -0.2506  0.3223  0.2242
  208MOL0     C28001  10.307   5.666   5.051  0.2476 -0.7669  0.4088
  208MOL0     C28002  10.173   5.618   5.068  0.6215  0.3490  0.1909
  208MOL0     O28003  10.077   5.701   5.103 -0.0096  0.6024 -0.2448
  208MOL0     C28004   9.955   5.658   5.168 -0.4740  0.4094 -0.3340
  208MOL0     C28005   9.909   5.771   5.263 -0.3829 -0.3373  0.7922
  208MOL0     C28006   9.765   5.739   5.318 -0.7530 -0.3305  0.3189
  208MOL0     C28007   9.651   5.805   5.235 -0.2340 -0.8297  0.5151
  208MOL0     C28008   9.516   5.774   5.275 -0.9686  0.2265  0.2009
  208MOL0     C28009   9.407   5.747   5.328 -0.0688 -0.5016  0.8247
  208MOL0     C28010  10.149   5.484   5.057 -0.2830  1.1640 -0.3800
  208MOL0     C28011  10.256   5.391   5.046 -1.0291 -1.3889  0.3985
  208MOL0     C28012  10.231   5.246   5.025  0.1855  0.9897 -0.7226
  208MOL0     H28013  10.639   5.097   4.956 -0.6027  1.2592  0.0608
  208MOL0     H28014  10.867   4.983   4.909 -0.5189 -0.1064 -1.4292
  208MOL0     H28015  11.172   5.224   4.710  0.7997  0.5689  0.2050
  208MOL0     H28016  11.226   5.228   4.870 -0.9304  0.6187 -0.1497
  208MOL0     H28017  11.256   4.976   4.694  2.0239 -0.9285 -0.3509
  208MOL0     H28018  11.334   5.013   4.847 -0.9493 -1.9895 -0.9728
  208MOL0     H28019  11.433   5.214   4.729 -1.5942  0.0889  1.2572
  208MOL0     H28020  11.358   5.168   4.581 -1.3330  0.3140  0.7849
  208MOL0     H28021  11.578   5.016   4.741 -0.4605 -2.1211  0.5877
  208MOL0     H28022  11.487   4.928   4.623  1.3703 -0.3778 -0.1027
  208MOL0     H28023  11.548   5.098   4.452  0.2498 -1.3373 -0.3265
  208MOL0     H28024  11.658   5.181   4.559  1.9783 -0.4496 -1.2368
  208MOL0     H28025  11.784   4.960   4.584 -0.7629  0.0424  1.1782
  208MOL0     H28026  11.669   4.883   4.487 -1.0229  0.3256  0.4171
  208MOL0     H28027  11.838   5.120   4.391  3.1558 -1.9126 -1.9119
  208MOL0     H28028  11.688   5.074   4.308 -1.6400  2.8395  2.3985
  208MOL0     H28029  11.804   4.863   4.227  1.2284  0.9541 -2.1048
  208MOL0     H28030  11.917   4.980   4.209 -1.6895 -0.5439 -0.3086
  208MOL0     H28031  12.077   5.023   4.486  0.1803 -0.3743  0.4479
  208MOL0     H28032  12.149   4.905   4.722 -1.0378 -0.9418  1.7010
  208MOL0     H28033  12.150   4.730   4.708  1.3036  0.2791  1.6174
  208MOL0     H28034  12.333   4.756   4.530  0.6430  0.3466 -0.3473
  208MOL0     H28035  12.348   4.917   4.581  2.0884 -0.7695 -1.1254
  208MOL0     H28036  12.416   4.656   4.730  2.9694 -0.8270  2.3299
  208MOL0     H28037  12.406   4.802   4.834 -0.8658 -0.6890  0.2876
  208MOL0     H28038  12.591   4.881   4.639  0.8984  0.1710 -0.2366
  208MOL0     H28039  12.618   4.703   4.671 -1.5219 -0.9224 -0.0254
  208MOL0     H28040  12.760   4.960   5.010  0.3703 -2.4197  3.0261
  208MOL0     H28041  12.992   4.943   5.076  1.8186 -0.7527 -0.4031
  208MOL0     H28042  13.460   4.681   5.026  1.4021  3.3540  1.6449
  208MOL0     H28043  13.688   4.698   4.998 -0.0084  2.5958 -0.4359
  208MOL0     H28044  13.812   4.583   4.682 -1.7340  4.0623 -2.4847
  208MOL0     H28045  13.950   4.693   4.658 -0.8172  1.3596 -1.8022
  208MOL0     H28046  14.005   4.659   4.895 -1.5399  0.4244  0.7979
  208MOL0     H28047  13.908   4.513   4.891  0.9719 -2.8785 -1.4370
  208MOL0     H28048  14.023   4.412   4.720 -0.2070  0.0957 -1.0958
  208MOL0     H28049  14.130   4.544   4.688 -0.5534  0.2414 -0.1915
  208MOL0     H28050  14.121   4.398   4.963 -0.5800 -1.6817 -0.9090
  208MOL0     H28051  14.224   4.532   4.904 -1.4655  0.7397  2.0994
  208MOL0     H28052  14.291   4.381   4.704 -0.5184  2.0982  0.9322
  208MOL0     H28053  14.230   4.245   4.799  0.4210 -0.2634  1.3058
  208MOL0     H28054  14.430   4.448   4.898  4.5082 -0.6690 -1.5074
  208MOL0     H28055  14.376   4.319   4.995  1.1034  1.9100  0.0275
  208MOL0     H28056  14.529   4.305   4.724  1.7356 -1.5027 -0.1285
  208MOL0     H28057  14.470   4.154   4.792  3.5754 -1.4999  0.5397
  208MOL0     H28058  14.633   4.186   4.980  1.2858  2.3995  1.7525
  208MOL0     H28059  14.706   4.205   4.813 -0.8758 -0.2576 -0.4777
  208MOL0     H28060  13.623   4.827   4.585  3.0914 -0.0575  0.9058
  208MOL0     H28061  13.377   4.802   4.620 -0.5811 -3.2115 -1.2662
  208MOL0     H28062  13.060   4.673   4.740  0.2894  2.1885 -1.4708
  208MOL0     H28063  12.833   4.702   4.670  0.7191 -1.2028 -0.2289
  208MOL0     H28064  11.041   5.360   4.811 -0.2603 -1.7173 -2.2235
  208MOL0     H28065  10.819   5.467   4.856 -3.0010 -0.0017  0.5845
  208MOL0     H28066  10.511   5.618   5.031  0.6951 -1.8574  0.9618
  208MOL0     H28067  10.336   5.769   5.071 -0.9690 -0.4840  0.7979
  208MOL0     H28068   9.962   5.575   5.239 -5.2469  0.6057  0.7570
  208MOL0     H28069   9.890   5.632   5.084  1.2285 -0.4335 -1.4318
  208MOL0     H28070   9.915   5.862   5.203 -0.5050 -2.0766 -2.0745
  208MOL0     H28071   9.979   5.793   5.344 -0.6088  1.1460  0.6196
  208MOL0     H28072   9.760   5.771   5.423 -0.2314 -0.9283  0.5327
  208MOL0     H28073   9.761   5.630   5.322  0.3265 -0.3472  1.9241
  208MOL0     H28074   9.673   5.912   5.240 -1.2993 -0.2735 -3.2764
  208MOL0     H28075   9.659   5.787   5.127 -3.1444 -0.1833  0.1153
  208MOL0     H28076   9.318   5.717   5.380 -0.6909  1.5566  1.0426
  208MOL0     H28077  10.045   5.453   5.060  0.1687 -0.4438  2.8141
  208MOL0     H28078  10.125   5.219   5.028  0.7745 -1.7457 -1.9771
  208MOL0     H28079  10.280   5.217   4.931  2.2013 -0.5619  0.7201
  208MOL0     H28080  10.282   5.181   5.096  1.2461  1.1376 -1.3273
  209MOL0     O28081   0.927   9.720   5.563  0.5661 -0.9742 -0.1986
  209MOL0     C28082   0.899   9.600   5.577 -0.1168 -0.1979 -0.2511
  209MOL0     O28083   0.955   9.509   5.669  0.4237  0.4418 -0.4238
  209MOL0     C28084   1.013   9.548   5.789  0.1083  0.6024  0.4565
  209MOL0     C28085   1.148   9.525   5.811 -0.6492  0.4133 -0.0208
  209MOL0     C28086   1.218   9.563   5.926 -0.2830 -0.5754  0.7389
  209MOL0     C28087   1.150   9.619   6.027 -0.4258  0.2987 -0.1230
  209MOL0     O28088   1.228   9.658   6.140 -0.3933 -0.6753 -0.4299
  209MOL0     C28089   1.193   9.733   6.254  0.6705 -0.3489 -1.0167
  209MOL0     C28090   1.298   9.836   6.268 -0.4203  0.6296  0.0448
  209MOL0     C28091   1.415   9.781   6.342  0.4842 -0.1882 -0.6324
  209MOL0     C28092   1.537   9.876   6.355 -0.0127  0.6569 -0.0310
  209MOL0     C28093   1.676   9.809   6.385  0.4712  0.6535 -0.7741
  209MOL0     C28094   1.798   9.906   6.386  0.1889 -0.2241  0.4384
  209MOL0     C28095   1.927   9.830   6.337 -0.1003  0.1062  0.6155
  209MOL0     C28096   1.968   9.722   6.435 -0.8860  0.7508 -0.3718
  209MOL0     N28097   2.059   9.789   6.534  0.0395  0.1636  0.2478
  209MOL0     C28098   2.185   9.744   6.564 -0.0945 -0.9062 -1.1837
  209MOL0     C28099   2.233   9.818   6.673  0.3350  0.6095  0.5658
  209MOL0     C28100   2.359   9.817   6.754  0.4187 -0.1575  0.1681
  209MOL0     C28101   2.483   9.868   6.678 -0.0489 -0.0371 -0.6021
  209MOL0     C28102   2.607   9.891   6.755 -0.1955  0.2261 -0.2147
  209MOL0     C28103   2.711   9.926   6.646 -0.9344 -0.0292  0.2909
  209MOL0     O28104   2.773   9.800   6.596  0.2702  0.7553 -0.0559
  209MOL0     C28105   2.903   9.792   6.548  0.1839 -0.1743  0.6569
  209MOL0     C28106   2.976   9.901   6.491 -0.4322 -0.1107  0.3178
  209MOL0     C28107   3.114   9.892   6.479  0.6104 -0.3043 -0.1952
  209MOL0     C28108   3.182   9.771   6.523 -0.0312 -0.1712 -0.3986
  209MOL0     C28109   3.330   9.769   6.512  0.4782  0.2523 -0.2184
  209MOL0     O28110   3.386   9.842   6.418  0.9761 -0.3074 -0.2874
  209MOL0     C28111   3.524   9.815   6.383 -0.1088 -0.5282  0.1517
  209MOL0     C28112   3.590   9.690   6.406 -1.1000 -0.0107 -0.1619
  209MOL0     C28113   3.725   9.688   6.363  0.1029  0.2485 -0.2791
  209MOL0     C28114   3.783   9.794   6.300 -0.2940 -0.3226  0.7202
  209MOL0     O28115   3.917   9.789   6.259  1.1887  0.8343 -0.4150
  209MOL0     C28116   4.019   9.769   6.352 -1.0261  0.2863 -0.2108
  209MOL0     C28117   4.146   9.836   6.316 -0.4589 -0.0818  0.6200
  209MOL0     C28118   4.273   9.799   6.385  0.5208 -0.2237 -0.3006
  209MOL0     C28119   4.381   9.897   6.336 -0.0796 -0.6472 -0.3677
  209MOL0     C28120   4.524   9.841   6.390  0.2616 -0.1963  0.6686
  209MOL0     C28121   4.628   9.958   6.391 -0.3131  0.6186 -0.5008
  209MOL0     C28122   4.761   9.907   6.453  0.5383 -0.3170  0.2119
  209MOL0     C28123   4.871  10.002   6.408  0.1161 -0.9019 -0.8566
  209MOL0    Cl28124   5.018   9.934   6.478 -0.1755 -0.2792 -0.2574
  209MOL0     C28125   3.724   9.919   6.276  0.0254 -0.0511 -0.2243
  209MOL0     C28126   3.590   9.923   6.323  0.7954 -0.0542  0.1828
  209MOL0     O28127   3.384   9.692   6.594  0.2439  0.1804 -0.1764
  209MOL0     C28128   3.109   9.666   6.576  0.0713 -0.3983  0.4475
  209MOL0     C28129   2.975   9.677   6.590  0.0019 -0.5600 -0.1028
  209MOL0     N28130   2.129   9.900   6.709 -0.0091  0.1330 -0.1281
  209MOL0     N28131   2.032   9.891   6.626 -0.0463  0.3066  0.9466
  209MOL0     C28132   1.006   9.638   6.009 -0.7106  0.1331 -1.2081
  209MOL0     C28133   0.940   9.602   5.892 -1.3370  0.6126  0.4667
  209MOL0     C28134   0.787   9.554   5.482 -0.9058 -1.0960 -0.8033
  209MOL0     C28135   0.719   9.655   5.404 -0.6746 -0.1735 -0.1100
  209MOL0     C28136   0.628   9.623   5.300 -0.5077 -0.3777 -0.5043
  209MOL0     C28137   0.591   9.490   5.291 -0.1190 -0.5178  0.1338
  209MOL0     O28138   0.484   9.455   5.209  0.4499  0.2178 -0.4184
  209MOL0     C28139   0.390   9.559   5.163  0.2736  0.0216 -0.0139
  209MOL0     C28140   0.283   9.502   5.072 -0.4615 -0.7577  0.1516
  209MOL0     C28141   0.199   9.609   5.012 -0.2819  0.6286 -0.7346
  209MOL0     C28142   0.105   9.553   4.911  0.3258  0.4990  0.5601
  209MOL0     C28143   0.006   9.656   4.883 -0.5387  0.3390 -0.3835
  209MOL0     C28144  -0.080   9.733   4.870  0.1785  0.0752 -0.5723
  209MOL0     C28145   0.649   9.393   5.367  0.2199 -0.2262 -0.2201
  209MOL0     C28146   0.748   9.423   5.457  0.1642 -0.3583 -1.0970
  209MOL0     C28147   0.812   9.303   5.539  0.7900  1.2277 -0.1963
  209MOL0     H28148   1.219   9.471   5.749 -0.2842 -1.0104  1.5581
  209MOL0     H28149   1.322   9.533   5.932  0.8635  3.0313  1.8835
  209MOL0     H28150   1.096   9.781   6.244  0.7604  0.6838  2.0444
  209MOL0     H28151   1.183   9.664   6.338 -1.8253  2.9622  1.6656
  209MOL0     H28152   1.252   9.921   6.320 -1.7911  0.1168 -0.2932
  209MOL0     H28153   1.334   9.857   6.166 -1.0790 -0.3065 -0.3896
  209MOL0     H28154   1.458   9.688   6.305  0.7481 -1.0402  1.6704
  209MOL0     H28155   1.378   9.758   6.443  1.0676 -1.9706 -0.8004
  209MOL0     H28156   1.542   9.945   6.271  1.7654  0.0921 -0.4225
  209MOL0     H28157   1.512   9.936   6.443 -2.3894 -0.3432  0.0673
  209MOL0     H28158   1.678   9.752   6.479  0.0718  1.0487 -0.5260
  209MOL0     H28159   1.698   9.746   6.298  0.3613  0.1152 -0.4227
  209MOL0     H28160   1.774   9.982   6.311  1.6188 -1.9844 -2.0048
  209MOL0     H28161   1.809   9.950   6.485 -2.4802  0.1106  0.6468
  209MOL0     H28162   2.013   9.892   6.309  0.2103 -0.4516  0.3279
  209MOL0     H28163   1.897   9.789   6.241  1.2674  0.8202 -0.1418
  209MOL0     H28164   1.891   9.681   6.501  2.4610 -2.8612  1.7664
  209MOL0     H28165   2.019   9.637   6.388  2.4197  2.2136  0.3130
  209MOL0     H28166   2.241   9.658   6.528 -1.9204 -3.5266  1.6757
  209MOL0     H28167   2.342   9.879   6.843 -1.6432 -1.2497  0.5964
  209MOL0     H28168   2.369   9.713   6.786 -1.2159 -0.7265 -1.0085
  209MOL0     H28169   2.502   9.800   6.595 -1.4006  0.6618 -1.5156
  209MOL0     H28170   2.466   9.967   6.636 -1.5618 -1.2769 -3.0938
  209MOL0     H28171   2.625   9.796   6.806  3.0045 -0.4194 -2.2326
  209MOL0     H28172   2.607   9.980   6.819  2.3146  1.0285 -1.1752
  209MOL0     H28173   2.784   9.988   6.698 -0.0507 -0.1761 -0.7517
  209MOL0     H28174   2.665   9.973   6.559 -0.4561 -0.6440 -0.3111
  209MOL0     H28175   2.911   9.985   6.469 -2.9151 -1.4616  2.0198
  209MOL0     H28176   3.161   9.981   6.438  0.3598  0.2718  0.7325
  209MOL0     H28177   3.552   9.598   6.448  0.6619 -0.5096  0.4541
  209MOL0     H28178   3.769   9.589   6.360  0.2075  0.3014 -3.0866
  209MOL0     H28179   3.978   9.813   6.443 -0.1551  0.2278  0.2184
  209MOL0     H28180   4.052   9.666   6.369 -0.5025  0.5048  0.1070
  209MOL0     H28181   4.163   9.836   6.208 -3.5948  1.3566  0.0141
  209MOL0     H28182   4.134   9.940   6.347  1.5605  0.3588  0.0883
  209MOL0     H28183   4.258   9.816   6.492 -2.2701 -1.7485 -0.3445
  209MOL0     H28184   4.293   9.692   6.374 -1.9927 -0.8311  0.3880
  209MOL0     H28185   4.369  10.000   6.371 -1.4146 -1.3970  1.5204
  209MOL0     H28186   4.387   9.887   6.227  2.2576  0.5224 -0.4071
  209MOL0     H28187   4.561   9.749   6.341 -0.9218 -0.6514  0.6084
  209MOL0     H28188   4.498   9.818   6.493 -1.5991 -0.8970  0.0883
  209MOL0     H28189   4.658   9.993   6.292  1.9956 -2.3865 -1.0110
  209MOL0     H28190   4.594  10.043   6.452  1.4758  2.2106 -1.6120
  209MOL0     H28191   4.781   9.808   6.409  0.2129 -0.0903 -0.4654
  209MOL0     H28192   4.762   9.901   6.562  0.2436 -0.9284  0.1865
  209MOL0     H28193   4.876  10.004   6.298  2.0881 -1.2893 -0.8154
  209MOL0     H28194   4.845  10.101   6.446 -2.9320 -0.1592 -4.3730
  209MOL0     H28195   3.777   9.995   6.219  0.8093 -1.2125 -1.0844
  209MOL0     H28196   3.535  10.015   6.310 -2.3631 -1.9184 -0.8700
  209MOL0     H28197   3.156   9.576   6.614 -0.7328 -1.0935 -0.1563
  209MOL0     H28198   2.918   9.594   6.629 -1.0314 -0.7285 -1.8494
  209MOL0     H28199   0.949   9.682   6.090  0.6073  3.6456 -2.0120
  209MOL0     H28200   0.832   9.600   5.899 -1.3959 -1.5959 -0.2429
  209MOL0     H28201   0.736   9.762   5.418 -3.0094  0.3178 -0.6720
  209MOL0     H28202   0.581   9.703   5.244 -3.7069  0.8125  3.3979
  209MOL0     H28203   0.441   9.634   5.101  0.1583 -0.7127 -1.0194
  209MOL0     H28204   0.347   9.612   5.248  1.2676 -0.1353  0.5960
  209MOL0     H28205   0.214   9.437   5.127 -1.1964  0.6688  0.9672
  209MOL0     H28206   0.334   9.448   4.992  0.7105  2.7660 -1.6275
  209MOL0     H28207   0.256   9.689   4.964  2.0776  0.0144  0.8588
  209MOL0     H28208   0.142   9.643   5.099  1.8811 -1.6887  1.7739
  209MOL0     H28209   0.155   9.531   4.816 -1.3709 -0.3759 -0.1782
  209MOL0     H28210   0.067   9.456   4.945  1.8954  0.0443  1.1464
  209MOL0     H28211  -0.151   9.813   4.865  0.6441  0.5148 -0.3023
  209MOL0     H28212   0.614   9.292   5.350 -1.0332  0.8180 -5.4881
  209MOL0     H28213   0.921   9.301   5.545  0.7269 -1.6098  2.4877
  209MOL0     H28214   0.788   9.320   5.644 -0.8526  1.1246 -0.5338
  209MOL0     H28215   0.776   9.203   5.514  4.4071 -0.4659  0.7873
  210MOL0     O28216   9.740   2.675   3.275  0.7839 -0.7984  0.0087
  210MOL0     C28217   9.729   2.800   3.283 -0.5747  0.2648 -0.0123
  210MOL0     O28218   9.817   2.885   3.335  0.6436 -0.3323 -0.3086
  210MOL0     C28219   9.920   2.861   3.420  0.3330  1.0308  0.3262
  210MOL0     C28220   9.947   2.733   3.472 -1.2081  1.3000 -0.2195
  210MOL0     C28221  10.059   2.709   3.540 -0.8315 -0.6973 -0.3375
  210MOL0     C28222  10.154   2.806   3.562 -0.1834 -0.3944 -0.4262
  210MOL0     O28223  10.265   2.766   3.639  0.2281  0.8451  0.1258
  210MOL0     C28224  10.395   2.781   3.573  0.6603 -0.8890  0.5783
  210MOL0     C28225  10.464   2.648   3.567 -0.3712 -0.1350 -0.3092
  210MOL0     C28226  10.398   2.552   3.465  0.4507  0.0461  0.6081
  210MOL0     C28227  10.477   2.424   3.431 -0.0040  0.3986 -1.4117
  210MOL0     C28228  10.539   2.360   3.554 -0.4879  0.2390 -0.1414
  210MOL0     C28229  10.597   2.227   3.508  0.0560  0.1752  0.3760
  210MOL0     C28230  10.685   2.168   3.624  0.1969 -1.2352 -0.4372
  210MOL0     C28231  10.766   2.042   3.577 -0.1335 -0.2334 -0.5008
  210MOL0     N28232  10.777   1.942   3.680 -0.1938  0.1545  0.4242
  210MOL0     C28233  10.675   1.896   3.758  0.0974  0.5432  0.7214
  210MOL0     C28234  10.729   1.804   3.843 -0.8235 -0.6584 -1.0843
  210MOL0     C28235  10.661   1.714   3.946  0.1473 -0.3081  0.1315
  210MOL0     C28236  10.757   1.624   4.021 -0.5127 -0.7223  0.4002
  210MOL0     C28237  10.689   1.548   4.137 -0.4526  0.0515  0.2866
  210MOL0     C28238  10.775   1.432   4.194 -0.0751  0.0117 -1.1641
  210MOL0     O28239  10.805   1.338   4.096  0.0091  0.0028  0.0298
  210MOL0     C28240  10.919   1.256   4.113  0.0397 -0.6328  0.4638
  210MOL0     C28241  10.965   1.204   4.240 -0.8136  0.0364  0.7903
  210MOL0     C28242  11.077   1.118   4.250 -0.4086 -1.0185  0.9394
  210MOL0     C28243  11.154   1.076   4.138 -0.3776 -0.8245 -0.3523
  210MOL0     C28244  11.278   0.990   4.151  1.5460  0.0149  0.1801
  210MOL0     O28245  11.333   0.970   4.276  0.8589  1.3841 -0.1662
  210MOL0     C28246  11.463   0.914   4.282 -1.1058  1.0427  0.2437
  210MOL0     C28247  11.564   0.950   4.193 -0.2091 -0.4604 -0.5986
  210MOL0     C28248  11.695   0.904   4.205  0.2840  0.2573 -0.6035
  210MOL0     C28249  11.736   0.806   4.304  0.0279  0.0349 -1.3239
  210MOL0     O28250  11.872   0.789   4.320 -0.2298 -0.2783  0.2810
  210MOL0     C28251  11.945   0.762   4.442  0.3105  0.7661 -1.0156
  210MOL0     C28252  12.089   0.789   4.428 -0.4371  0.8939  0.0539
  210MOL0     C28253  12.151   0.678   4.340  0.4347  0.2630 -0.6309
  210MOL0     C28254  12.304   0.692   4.335  0.3780 -0.8139  0.3040
  210MOL0     C28255  12.350   0.596   4.225  0.3450 -0.1998 -0.9107
  210MOL0     C28256  12.505   0.608   4.204  0.4343  1.0477  0.2406
  210MOL0     C28257  12.558   0.520   4.098  0.1917  0.5886 -0.5447
  210MOL0     C28258  12.698   0.492   4.099 -0.4161  0.0600  0.4359
  210MOL0    Cl28259  12.777   0.626   4.030  0.1002  0.0736  0.4025
  210MOL0     C28260  11.629   0.763   4.390 -1.0111  0.5556  0.3252
  210MOL0     C28261  11.498   0.809   4.374 -0.8054 -0.6385 -1.0544
  210MOL0     O28262  11.324   0.949   4.046  0.1867 -0.6642  0.3255
  210MOL0     C28263  11.103   1.124   4.013 -0.6756  0.6883  0.5194
  210MOL0     C28264  10.990   1.207   4.001 -0.2752  0.8763 -0.1157
  210MOL0     N28265  10.868   1.819   3.829  0.2978  0.4532  0.3728
  210MOL0     N28266  10.899   1.890   3.722  0.0119 -0.1255 -0.0592
  210MOL0     C28267  10.128   2.938   3.521 -0.8344 -0.0186 -0.2538
  210MOL0     C28268  10.017   2.962   3.436  0.1631  0.1288 -0.6171
  210MOL0     C28269   9.597   2.847   3.233  0.1715 -0.4184  0.8423
  210MOL0     C28270   9.540   2.779   3.123 -0.1632 -0.5623 -0.0404
  210MOL0     C28271   9.421   2.828   3.060 -0.0401  0.5150  0.5674
  210MOL0     C28272   9.377   2.956   3.087 -0.5587 -0.7583 -0.5118
  210MOL0     O28273   9.278   3.033   3.024  0.4026 -0.4815 -0.0236
  210MOL0     C28274   9.199   2.983   2.913  0.3826 -0.3390 -0.6797
  210MOL0     C28275   9.278   2.991   2.782  0.1768 -0.5086 -0.6475
  210MOL0     C28276   9.337   3.141   2.761 -0.3527  0.5419 -0.0075
  210MOL0     C28277   9.484   3.159   2.810  0.3134 -1.2143  0.1002
  210MOL0     C28278   9.554   3.254   2.733  0.2372 -0.8402 -0.8436
  210MOL0     C28279   9.622   3.331   2.661  0.0877  0.0730 -0.0851
  210MOL0     C28280   9.430   3.015   3.201  0.1007 -0.2030 -0.0165
  210MOL0     C28281   9.543   2.968   3.271 -0.4772 -0.9616 -0.6547
  210MOL0     C28282   9.597   3.048   3.390  0.0763 -0.7160 -0.3280
  210MOL0     H28283   9.886   2.643   3.466  0.6603 -0.0925  0.5699
  210MOL0     H28284  10.093   2.608   3.561 -2.2019 -0.8816  1.2246
  210MOL0     H28285  10.370   2.817   3.472  0.8309 -0.4480  0.6933
  210MOL0     H28286  10.455   2.858   3.621  1.1552 -0.1724 -1.1218
  210MOL0     H28287  10.469   2.604   3.668 -1.1323  0.5470  0.0399
  210MOL0     H28288  10.568   2.662   3.534 -0.2073 -1.9044 -0.6179
  210MOL0     H28289  10.388   2.599   3.367  1.0247 -0.1938  0.4317
  210MOL0     H28290  10.304   2.521   3.512  0.2800 -1.4466 -0.6427
  210MOL0     H28291  10.406   2.352   3.389 -2.7464  1.8347  0.3932
  210MOL0     H28292  10.561   2.441   3.364  0.7488 -1.7243 -1.0845
  210MOL0     H28293  10.628   2.416   3.584  1.0968 -2.9200  1.5166
  210MOL0     H28294  10.474   2.347   3.641  2.1239 -1.4781  1.6700
  210MOL0     H28295  10.519   2.155   3.485  0.2592 -0.5802  1.9338
  210MOL0     H28296  10.663   2.235   3.421  0.9970 -1.0955  0.9484
  210MOL0     H28297  10.618   2.150   3.708 -1.7378 -1.2366 -1.9132
  210MOL0     H28298  10.765   2.234   3.657  0.2932 -0.8622 -1.3859
  210MOL0     H28299  10.727   1.996   3.486 -0.1212 -0.5324 -0.3595
  210MOL0     H28300  10.859   2.094   3.552  0.2600 -0.8378 -0.3183
  210MOL0     H28301  10.576   1.934   3.735  1.8660  5.4234  0.0503
  210MOL0     H28302  10.596   1.769   4.015 -1.4212 -0.5736 -1.0931
  210MOL0     H28303  10.588   1.647   3.901 -0.5864 -1.6682  3.1409
  210MOL0     H28304  10.813   1.559   3.954  2.5851  0.7550  1.3684
  210MOL0     H28305  10.829   1.693   4.065 -3.0521  2.2795  0.1697
  210MOL0     H28306  10.601   1.498   4.095 -0.6434 -0.1321  0.8965
  210MOL0     H28307  10.665   1.620   4.215  0.6804  0.4415  0.2996
  210MOL0     H28308  10.720   1.389   4.278  0.5784 -2.5442 -1.9654
  210MOL0     H28309  10.859   1.487   4.239 -0.0633  0.4185 -1.6696
  210MOL0     H28310  10.902   1.226   4.326 -0.7622  2.2098  0.3368
  210MOL0     H28311  11.105   1.099   4.353  0.3642  1.7798  1.3205
  210MOL0     H28312  11.552   1.029   4.118  0.7882  0.5781  0.2964
  210MOL0     H28313  11.759   0.951   4.131 -0.2265  0.8594 -0.6728
  210MOL0     H28314  11.900   0.824   4.520  1.0610 -1.2397  1.1179
  210MOL0     H28315  11.927   0.663   4.484 -1.1336  1.4573  0.0821
  210MOL0     H28316  12.094   0.887   4.379 -0.4277  0.6533 -0.4334
  210MOL0     H28317  12.141   0.795   4.524 -1.5607 -1.0564  0.8362
  210MOL0     H28318  12.128   0.581   4.385  0.6341  0.5327  0.0638
  210MOL0     H28319  12.110   0.670   4.239  0.4879  1.0919 -0.7182
  210MOL0     H28320  12.361   0.668   4.426  0.4151  1.9397  1.0773
  210MOL0     H28321  12.322   0.791   4.295 -0.2762 -1.0074 -0.4937
  210MOL0     H28322  12.287   0.611   4.137  0.3873 -0.7846 -1.0442
  210MOL0     H28323  12.322   0.497   4.263 -0.9293  0.5989  0.3636
  210MOL0     H28324  12.537   0.710   4.185  0.6019  0.8715 -0.4386
  210MOL0     H28325  12.550   0.575   4.299 -1.1953 -0.9559  0.3985
  210MOL0     H28326  12.532   0.565   4.002  0.2711  1.0525 -0.3492
  210MOL0     H28327  12.509   0.422   4.093  2.1127 -0.4512 -0.1347
  210MOL0     H28328  12.735   0.485   4.202  0.6469  0.4682  0.0936
  210MOL0     H28329  12.723   0.403   4.041  2.2007 -0.0694  1.6286
  210MOL0     H28330  11.643   0.700   4.477 -0.7046  1.1559  0.7179
  210MOL0     H28331  11.425   0.773   4.446  0.4806 -0.4809  0.3900
  210MOL0     H28332  11.160   1.097   3.925 -0.5862  1.2937  0.3862
  210MOL0     H28333  10.964   1.256   3.908  0.3419  1.6801  0.1244
  210MOL0     H28334  10.197   3.020   3.541 -2.1935  1.2617 -0.6853
  210MOL0     H28335  10.019   3.068   3.411  1.3869 -0.0259 -1.2514
  210MOL0     H28336   9.590   2.689   3.091 -0.1485 -0.1750 -1.1322
  210MOL0     H28337   9.373   2.765   2.986  0.7316  1.5197 -0.8356
  210MOL0     H28338   9.109   3.045   2.907 -0.3882 -1.4793 -1.1173
  210MOL0     H28339   9.165   2.882   2.938  1.3977 -0.3760  0.6718
  210MOL0     H28340   9.208   2.981   2.699 -2.4474  2.5667  0.9432
  210MOL0     H28341   9.353   2.912   2.773 -0.5947 -1.3949  0.4051
  210MOL0     H28342   9.264   3.213   2.798 -3.9343 -1.3082 -2.8901
  210MOL0     H28343   9.335   3.155   2.653  0.2598 -1.2889 -0.2917
  210MOL0     H28344   9.495   3.194   2.914  3.0055  0.3443 -0.5890
  210MOL0     H28345   9.525   3.057   2.809  0.3501 -1.2208  1.0839
  210MOL0     H28346   9.665   3.417   2.614 -0.5707  0.4645  0.0111
  210MOL0     H28347   9.383   3.103   3.243 -0.2549  0.6819 -2.0991
  210MOL0     H28348   9.682   3.110   3.363 -0.7004  0.8649  0.6965
  210MOL0     H28349   9.508   3.098   3.430 -1.0282 -1.6131 -1.5426
  210MOL0     H28350   9.629   2.992   3.479 -0.0556  0.0068  0.1819
  211MOL0     O28351   2.447   7.011   7.671 -0.2769 -0.1854 -0.0694
  211MOL0     C28352   2.399   7.098   7.738  0.4365 -1.0241 -0.5361
  211MOL0     O28353   2.476   7.205   7.788  0.2086 -0.2760  0.5320
  211MOL0     C28354   2.611   7.200   7.783 -0.9262  0.2354  0.0979
  211MOL0     C28355   2.686   7.087   7.821  0.0649  0.6883  0.0677
  211MOL0     C28356   2.829   7.092   7.826 -0.4147 -0.5884 -0.9275
  211MOL0     C28357   2.899   7.208   7.784  0.2596 -0.6883  0.4030
  211MOL0     O28358   3.030   7.222   7.808 -0.8396 -0.2400 -0.3925
  211MOL0     C28359   3.107   7.275   7.699  0.1273 -0.6391 -0.1518
  211MOL0     C28360   3.260   7.255   7.717  0.1434  0.0168 -0.6618
  211MOL0     C28361   3.299   7.115   7.689 -0.2369 -0.6270  1.1820
  211MOL0     C28362   3.450   7.099   7.712  0.3244 -0.6163  0.7134
  211MOL0     C28363   3.511   6.965   7.686 -0.2853  0.3992  0.0025
  211MOL0     C28364   3.646   6.953   7.758  0.0913 -0.1654  0.3925
  211MOL0     C28365   3.699   6.811   7.762 -0.2820  0.6843 -0.0013
  211MOL0     C28366   3.833   6.826   7.836  0.3039 -0.2796  0.5580
  211MOL0     N28367   3.898   6.697   7.834  0.1643  0.5824 -0.0536
  211MOL0     C28368   3.964   6.656   7.718  0.2002  0.4144 -0.2040
  211MOL0     C28369   4.030   6.547   7.763  0.0436  0.8867  0.1041
  211MOL0     C28370   4.116   6.459   7.671 -0.2295  0.3011 -0.2664
  211MOL0     C28371   4.236   6.419   7.751 -0.5289  0.9196  0.0663
  211MOL0     C28372   4.354   6.514   7.730  0.2122 -0.1896  0.2726
  211MOL0     C28373   4.422   6.510   7.596 -0.1319  0.6249  0.1008
  211MOL0     O28374   4.456   6.367   7.575 -0.5215 -0.5412 -0.4768
  211MOL0     C28375   4.563   6.347   7.490 -0.5888  0.0015  0.5420
  211MOL0     C28376   4.573   6.214   7.442 -0.5894  0.3327 -0.1946
  211MOL0     C28377   4.689   6.174   7.366 -0.3686  0.1906  1.2125
  211MOL0     C28378   4.780   6.269   7.317 -0.0911 -0.4054 -0.3741
  211MOL0     C28379   4.895   6.235   7.226  1.0482 -0.0313 -0.2313
  211MOL0     O28380   4.911   6.108   7.201  0.3511 -0.0819  0.6054
  211MOL0     C28381   5.034   6.071   7.141  0.4749  0.0550  0.6720
  211MOL0     C28382   5.094   5.963   7.194 -0.0575  0.8225  1.0094
  211MOL0     C28383   5.209   5.909   7.134  0.0571 -0.1696 -0.2526
  211MOL0     C28384   5.258   5.964   7.016 -0.2020  0.4433 -0.3734
  211MOL0     O28385   5.374   5.920   6.949  0.2406 -0.5155 -0.5828
  211MOL0     C28386   5.419   5.787   6.981 -0.3947 -0.6542  0.2653
  211MOL0     C28387   5.553   5.761   6.911  0.4309 -0.1392  0.8574
  211MOL0     C28388   5.546   5.785   6.759 -0.2373 -0.4176  0.5533
  211MOL0     C28389   5.682   5.776   6.679 -0.6673 -0.5941 -1.1722
  211MOL0     C28390   5.674   5.822   6.528  0.2993  0.5784 -0.5798
  211MOL0     C28391   5.627   5.702   6.440  0.2111 -0.6480 -0.5172
  211MOL0     C28392   5.645   5.721   6.288 -0.6235 -0.8031 -0.0431
  211MOL0     C28393   5.551   5.632   6.205 -0.3244 -0.2007 -0.8589
  211MOL0    Cl28394   5.626   5.473   6.207 -0.4684  0.4465  0.2205
  211MOL0     C28395   5.198   6.081   6.964  0.7821  0.4139  0.1502
  211MOL0     C28396   5.075   6.125   7.018  0.4837 -0.3131 -0.4335
  211MOL0     O28397   4.953   6.330   7.175  0.2329  0.0858 -0.5731
  211MOL0     C28398   4.759   6.401   7.354 -1.2576  0.1039 -0.3696
  211MOL0     C28399   4.655   6.442   7.439  0.1133  0.3240  0.2492
  211MOL0     N28400   4.005   6.524   7.895 -0.0450  0.5259  0.1082
  211MOL0     N28401   3.915   6.614   7.942  0.1398  0.0973 -0.1779
  211MOL0     C28402   2.828   7.324   7.746  0.1012  0.1161  0.1388
  211MOL0     C28403   2.685   7.320   7.742 -0.2291  0.4275 -0.3121
  211MOL0     C28404   2.251   7.122   7.753 -0.5658  0.4582  0.2626
  211MOL0     C28405   2.199   7.252   7.728 -0.1532 -0.2650 -1.1150
  211MOL0     C28406   2.065   7.273   7.737 -0.1644  0.0324  0.6960
  211MOL0     C28407   1.974   7.183   7.763 -0.3016  0.2976 -0.9988
  211MOL0     O28408   1.840   7.216   7.753 -0.8482 -0.2167 -0.2255
  211MOL0     C28409   1.744   7.140   7.822  0.7643  0.2999 -0.4921
  211MOL0     C28410   1.607   7.210   7.823 -0.6406  0.3078 -0.2292
  211MOL0     C28411   1.613   7.364   7.836 -0.1322  0.3535 -0.5249
  211MOL0     C28412   1.484   7.430   7.804 -0.0814  0.7791 -0.2879
  211MOL0     C28413   1.498   7.575   7.839  0.1550  0.0044  0.3407
  211MOL0     C28414   1.504   7.688   7.878 -0.2189  0.5498 -0.3594
  211MOL0     C28415   2.017   7.045   7.777  0.2519 -0.8832 -0.0251
  211MOL0     C28416   2.157   7.018   7.765 -0.5460  0.6698 -1.3683
  211MOL0     C28417   2.205   6.879   7.785  0.1135 -0.2300  0.5316
  211MOL0     H28418   2.640   6.997   7.864  1.3732  0.1639  0.4091
  211MOL0     H28419   2.896   7.014   7.860  3.3199  1.8326 -2.0109
  211MOL0     H28420   3.073   7.228   7.607 -2.6941 -1.0898  1.0285
  211MOL0     H28421   3.079   7.379   7.682  1.6053  0.1401  1.7490
  211MOL0     H28422   3.280   7.282   7.821  0.7794  2.6651 -1.3939
  211MOL0     H28423   3.313   7.317   7.645  1.9725 -1.4423 -0.6290
  211MOL0     H28424   3.286   7.112   7.580  2.3825 -1.1993  0.8286
  211MOL0     H28425   3.249   7.038   7.749 -0.2825 -1.3229  0.2724
  211MOL0     H28426   3.503   7.175   7.655  0.6263  0.0407  1.8417
  211MOL0     H28427   3.470   7.112   7.819  0.1153 -0.0959  0.6881
  211MOL0     H28428   3.451   6.878   7.715  3.9634 -2.9051 -0.0448
  211MOL0     H28429   3.529   6.956   7.578  0.1932  1.4830 -0.0167
  211MOL0     H28430   3.720   7.011   7.702 -0.3353  0.0067  0.0007
  211MOL0     H28431   3.632   6.996   7.858  0.7757 -1.7218  1.1919
  211MOL0     H28432   3.709   6.771   7.661 -1.0702  1.4116 -0.3879
  211MOL0     H28433   3.634   6.746   7.821 -0.0718  0.2397 -0.2595
  211MOL0     H28434   3.898   6.893   7.778  0.5631  1.7308  2.9973
  211MOL0     H28435   3.815   6.864   7.937 -0.7570 -1.0240  0.6588
  211MOL0     H28436   3.967   6.707   7.622  1.4683  1.1917  0.2173
  211MOL0     H28437   4.063   6.373   7.629 -3.4277  2.3437 -0.7490
  211MOL0     H28438   4.147   6.517   7.584 -1.5063 -1.4998 -2.0165
  211MOL0     H28439   4.219   6.401   7.857 -0.4848 -2.5280 -0.4223
  211MOL0     H28440   4.270   6.323   7.713  2.5335  2.3178 -1.0630
  211MOL0     H28441   4.436   6.485   7.796  0.7019  0.4428 -0.0557
  211MOL0     H28442   4.322   6.616   7.754  0.3228  0.6859 -2.9380
  211MOL0     H28443   4.506   6.580   7.596 -0.6471  1.2456  0.4552
  211MOL0     H28444   4.348   6.529   7.518  0.6363 -1.7987 -1.3302
  211MOL0     H28445   4.502   6.142   7.481 -0.7550  0.5275 -0.1367
  211MOL0     H28446   4.705   6.074   7.326  2.1249  1.4764 -1.3135
  211MOL0     H28447   5.062   5.913   7.285  0.3102  2.8612  2.3312
  211MOL0     H28448   5.245   5.825   7.191  0.4541 -1.1160 -1.8223
  211MOL0     H28449   5.424   5.782   7.090 -0.9207  3.0665  0.5855
  211MOL0     H28450   5.338   5.721   6.948 -1.2193  0.7320 -0.6018
  211MOL0     H28451   5.638   5.820   6.946 -0.8945  1.3360  1.7477
  211MOL0     H28452   5.576   5.657   6.935  0.0228 -0.5969 -0.5955
  211MOL0     H28453   5.479   5.717   6.706 -1.1385  2.8811 -2.9809
  211MOL0     H28454   5.501   5.881   6.736  0.9600  0.0192 -0.1013
  211MOL0     H28455   5.727   5.678   6.697 -0.0861  0.2075  2.6005
  211MOL0     H28456   5.753   5.840   6.734 -0.7153 -0.6981 -0.9872
  211MOL0     H28457   5.779   5.840   6.503  0.6977 -1.2936 -0.4283
  211MOL0     H28458   5.609   5.909   6.518 -1.8109 -0.4410  2.6415
  211MOL0     H28459   5.678   5.608   6.464  0.2942 -0.7391 -1.0408
  211MOL0     H28460   5.525   5.684   6.476  1.5273 -2.4552  2.7922
  211MOL0     H28461   5.750   5.702   6.265 -1.2327 -3.3304 -1.0614
  211MOL0     H28462   5.633   5.826   6.259  0.0322 -1.0710 -1.3560
  211MOL0     H28463   5.458   5.631   6.263  1.0588 -0.0195  1.4753
  211MOL0     H28464   5.533   5.672   6.105 -0.4082  1.6081 -0.1572
  211MOL0     H28465   5.241   6.118   6.871 -2.3784  3.1074 -0.4070
  211MOL0     H28466   5.008   6.198   6.976  0.2695 -0.3420 -0.1451
  211MOL0     H28467   4.829   6.476   7.319 -1.4983 -0.3417 -1.8628
  211MOL0     H28468   4.649   6.545   7.472  0.0995  1.3329 -2.5806
  211MOL0     H28469   2.885   7.415   7.728  0.2229 -0.2280 -1.3426
  211MOL0     H28470   2.641   7.413   7.709 -0.2201  0.2134 -0.9358
  211MOL0     H28471   2.261   7.339   7.708  0.7134 -0.3055  1.1042
  211MOL0     H28472   2.026   7.374   7.723  1.3842  0.6472  0.6217
  211MOL0     H28473   1.773   7.121   7.926 -1.3315  3.2504  0.7654
  211MOL0     H28474   1.733   7.045   7.769  1.2079 -0.3605  0.5731
  211MOL0     H28475   1.557   7.176   7.915  0.1210  0.9854  0.4565
  211MOL0     H28476   1.565   7.189   7.725  1.0791 -2.2505 -0.5064
  211MOL0     H28477   1.701   7.403   7.785 -0.0424  0.2592 -0.4425
  211MOL0     H28478   1.635   7.377   7.942 -2.2649 -2.4595  0.3719
  211MOL0     H28479   1.455   7.415   7.700 -3.1278 -0.0461  0.5908
  211MOL0     H28480   1.411   7.392   7.876 -0.0512  1.1549 -0.0567
  211MOL0     H28481   1.503   7.787   7.918  1.0066  1.0262 -1.4044
  211MOL0     H28482   1.947   6.965   7.798 -1.2897  0.3006 -0.4742
  211MOL0     H28483   2.262   6.847   7.698 -0.0947  0.3404  0.1759
  211MOL0     H28484   2.272   6.889   7.871 -2.0375  2.4343  2.0669
  211MOL0     H28485   2.118   6.816   7.802  0.0116 -0.4685 -0.7971
  212MOL0     O28486   3.520   1.013   4.304  1.2534  0.2410  0.3791
  212MOL0     C28487   3.479   0.896   4.307 -0.5490  0.1200 -0.1117
  212MOL0     O28488   3.554   0.789   4.259  0.1933  0.2178  0.8904
  212MOL0     C28489   3.677   0.814   4.208  0.1881 -0.2998 -0.4354
  212MOL0     C28490   3.771   0.885   4.277 -0.1487  0.2280  0.6542
  212MOL0     C28491   3.908   0.896   4.238  0.4464  0.4115 -0.8559
  212MOL0     C28492   3.955   0.823   4.122  0.3404 -0.6174 -0.2858
  212MOL0     O28493   4.077   0.839   4.064 -0.6327 -0.4374 -0.7468
  212MOL0     C28494   4.175   0.914   4.131 -0.1085 -0.1826 -0.0594
  212MOL0     C28495   4.310   0.907   4.068  0.0651  0.4566  0.4016
  212MOL0     C28496   4.416   0.968   4.141 -0.7320 -0.2241  0.8235
  212MOL0     C28497   4.551   0.900   4.104  0.2161  0.3928  0.7554
  212MOL0     C28498   4.661   1.002   4.110 -0.3344  0.4990 -0.0738
  212MOL0     C28499   4.786   0.937   4.052  0.9980 -0.4676  0.4248
  212MOL0     C28500   4.892   1.043   4.033  0.1012  0.0059  0.3380
  212MOL0     C28501   5.028   0.997   3.990 -0.0441  0.1951  0.3892
  212MOL0     N28502   5.105   1.121   3.955 -0.1690 -0.0348  0.1048
  212MOL0     C28503   5.186   1.182   4.040 -0.3801  0.1949  0.1451
  212MOL0     C28504   5.207   1.298   3.981  0.3459 -0.7020 -0.1792
  212MOL0     C28505   5.287   1.410   4.039  0.0932  0.0352  0.4528
  212MOL0     C28506   5.435   1.370   4.064 -0.4216 -0.2959  0.3984
  212MOL0     C28507   5.505   1.352   3.922 -0.2229 -0.0309 -0.2458
  212MOL0     C28508   5.647   1.322   3.944 -0.7788  0.3798  0.7390
  212MOL0     O28509   5.721   1.426   4.020 -0.3041 -0.3517  0.8906
  212MOL0     C28510   5.851   1.407   4.065  0.1703  0.6022  0.5143
  212MOL0     C28511   5.906   1.511   4.150  0.2453  0.4410 -0.4918
  212MOL0     C28512   6.031   1.499   4.201 -0.9886 -0.6721  0.5516
  212MOL0     C28513   6.109   1.382   4.177 -0.5116  0.1710  0.0322
  212MOL0     C28514   6.241   1.366   4.245 -0.9768 -0.4024  0.4804
  212MOL0     O28515   6.272   1.455   4.343 -0.1762  0.0211  0.2569
  212MOL0     C28516   6.401   1.456   4.386  0.1783  1.4724  0.2949
  212MOL0     C28517   6.442   1.356   4.481 -0.0546 -0.5738  0.5128
  212MOL0     C28518   6.573   1.363   4.530 -0.4699 -0.4920  0.5385
  212MOL0     C28519   6.662   1.468   4.484  0.1495  0.3755  0.8027
  212MOL0     O28520   6.792   1.479   4.515  0.1704  0.1417  0.3754
  212MOL0     C28521   6.835   1.396   4.627 -0.3607 -0.1018  0.5193
  212MOL0     C28522   6.980   1.433   4.660 -0.4581  0.2766  0.4724
  212MOL0     C28523   7.055   1.347   4.771 -0.2936  0.3988  0.1015
  212MOL0     C28524   7.024   1.410   4.915  0.3073 -0.5950  0.3065
  212MOL0     C28525   7.096   1.344   5.031 -0.0792  0.5025 -0.5091
  212MOL0     C28526   7.234   1.401   5.055  0.5934 -0.0455  0.0031
  212MOL0     C28527   7.322   1.317   5.150  0.0304  0.3418  0.0241
  212MOL0     C28528   7.428   1.225   5.103 -0.2769 -0.4213  0.0415
  212MOL0    Cl28529   7.571   1.334   5.059  0.1340  0.2582  0.5301
  212MOL0     C28530   6.612   1.572   4.401 -0.7491  0.2101 -0.8777
  212MOL0     C28531   6.488   1.560   4.344 -1.0657 -0.0817  1.0157
  212MOL0     O28532   6.308   1.266   4.214  0.1063  0.1072 -0.2716
  212MOL0     C28533   6.057   1.280   4.091  0.5893 -1.3125  0.5039
  212MOL0     C28534   5.931   1.295   4.032  0.3201 -0.2154  0.2217
  212MOL0     N28535   5.133   1.314   3.867 -0.3190  0.1710  0.0527
  212MOL0     N28536   5.069   1.201   3.845  0.4141 -0.6074 -0.3469
  212MOL0     C28537   3.860   0.747   4.049 -0.2068  0.2992  0.0527
  212MOL0     C28538   3.727   0.736   4.095 -0.1801  0.1378 -0.4085
  212MOL0     C28539   3.349   0.886   4.382  0.1872  1.0676 -0.2600
  212MOL0     C28540   3.314   0.976   4.491 -0.1304 -0.5047 -0.6540
  212MOL0     C28541   3.193   0.971   4.548 -0.6491  0.6192 -0.3764
  212MOL0     C28542   3.102   0.874   4.523  0.5443 -0.2436 -0.9467
  212MOL0     O28543   2.995   0.853   4.607  1.0824  0.0407 -0.3768
  212MOL0     C28544   2.881   0.924   4.573  0.0721  0.0923  0.0998
  212MOL0     C28545   2.793   0.922   4.693  0.4594  0.2143 -0.8030
  212MOL0     C28546   2.639   0.943   4.667  0.2522 -0.7059 -0.1473
  212MOL0     C28547   2.556   0.929   4.793 -0.5883 -0.2959  0.1035
  212MOL0     C28548   2.415   0.902   4.761 -0.5420  0.0779 -0.3381
  212MOL0     C28549   2.298   0.885   4.758  0.4360  0.0748  0.6194
  212MOL0     C28550   3.135   0.779   4.430  0.1789  0.5709  0.2669
  212MOL0     C28551   3.253   0.787   4.351 -0.3174  0.4358 -0.3191
  212MOL0     C28552   3.281   0.678   4.244 -0.2470 -0.5308 -0.6004
  212MOL0     H28553   3.741   0.938   4.366 -0.3114  1.3451 -0.0405
  212MOL0     H28554   3.981   0.961   4.286  0.4443 -0.4065  0.3100
  212MOL0     H28555   4.142   1.018   4.119  2.8956  0.6351 -2.3651
  212MOL0     H28556   4.183   0.895   4.239  0.8026 -1.4699 -0.3341
  212MOL0     H28557   4.308   0.947   3.966  2.1707  1.5915  0.7426
  212MOL0     H28558   4.332   0.800   4.063 -2.3020 -0.0349 -0.3685
  212MOL0     H28559   4.400   0.948   4.248  0.3514 -2.3653  0.6471
  212MOL0     H28560   4.415   1.076   4.126 -2.2325 -0.3945 -0.4616
  212MOL0     H28561   4.569   0.821   4.177  2.0431 -0.2963 -0.3886
  212MOL0     H28562   4.544   0.856   4.004 -1.2098 -2.2978  1.9097
  212MOL0     H28563   4.634   1.097   4.063  2.2014  1.1719 -0.3470
  212MOL0     H28564   4.668   1.014   4.219  2.0478 -0.7260 -0.0236
  212MOL0     H28565   4.825   0.856   4.116  1.2393 -2.3029 -1.9058
  212MOL0     H28566   4.763   0.896   3.953  0.7354  1.7493 -0.4868
  212MOL0     H28567   4.901   1.091   4.131  2.1455  4.5453 -1.7991
  212MOL0     H28568   4.852   1.118   3.964  0.2400  0.8085  1.1165
  212MOL0     H28569   5.076   0.944   4.073 -1.3497  1.0195  1.7236
  212MOL0     H28570   5.027   0.929   3.905  0.6637  0.4864  0.1364
  212MOL0     H28571   5.221   1.157   4.139 -1.0321 -1.6367 -0.0628
  212MOL0     H28572   5.290   1.492   3.966  2.3379 -1.9608 -1.8817
  212MOL0     H28573   5.236   1.440   4.131 -4.2892  1.3597 -2.1490
  212MOL0     H28574   5.481   1.456   4.113 -0.4192  1.0879 -1.9384
  212MOL0     H28575   5.435   1.279   4.126  1.6034 -0.3766  0.3559
  212MOL0     H28576   5.494   1.442   3.860  0.3125  0.1735 -0.0485
  212MOL0     H28577   5.449   1.268   3.880  1.8286 -1.6753  0.1626
  212MOL0     H28578   5.689   1.309   3.844 -2.0590  0.3861  0.1813
  212MOL0     H28579   5.655   1.225   3.993 -3.7244 -0.8940 -1.0362
  212MOL0     H28580   5.842   1.593   4.182 -2.2115 -2.0199  1.4762
  212MOL0     H28581   6.071   1.576   4.267  0.7396 -0.0842 -1.1128
  212MOL0     H28582   6.375   1.277   4.514  1.3360 -1.3819  1.4966
  212MOL0     H28583   6.609   1.282   4.593  1.4959  0.9572  1.3732
  212MOL0     H28584   6.768   1.407   4.713 -1.1626  0.3400 -0.1496
  212MOL0     H28585   6.843   1.295   4.586  0.3868  0.2369 -0.2180
  212MOL0     H28586   7.039   1.439   4.568 -0.5626 -0.2973  0.3576
  212MOL0     H28587   6.963   1.527   4.712 -1.9999 -0.3065  1.0879
  212MOL0     H28588   7.021   1.243   4.770  1.3055 -0.2533  2.8412
  212MOL0     H28589   7.162   1.335   4.754 -0.8338 -1.9709 -2.5026
  212MOL0     H28590   6.916   1.398   4.923  0.4816 -1.8345  1.0678
  212MOL0     H28591   7.037   1.519   4.914 -3.7036  0.1330 -3.2788
  212MOL0     H28592   7.094   1.237   5.009  1.1029  0.1412  0.9077
  212MOL0     H28593   7.045   1.354   5.127  2.2217 -0.7963  0.9587
  212MOL0     H28594   7.285   1.415   4.960 -2.9342  0.1896 -2.0435
  212MOL0     H28595   7.219   1.505   5.085 -2.9275  0.0249 -1.4984
  212MOL0     H28596   7.250   1.248   5.196  1.9244 -1.6096  0.2334
  212MOL0     H28597   7.362   1.378   5.232  0.0235  0.8176 -0.3211
  212MOL0     H28598   7.469   1.148   5.169  2.0354 -1.2898 -2.2090
  212MOL0     H28599   7.397   1.175   5.010  2.4230 -0.3139 -1.0157
  212MOL0     H28600   6.686   1.650   4.389 -2.7937  2.7509  1.6679
  212MOL0     H28601   6.446   1.642   4.287  1.3738  0.2378 -0.4510
  212MOL0     H28602   6.120   1.197   4.058 -1.6985 -3.0457  0.2366
  212MOL0     H28603   5.892   1.215   3.970 -1.1391  0.4709  0.2068
  212MOL0     H28604   3.900   0.674   3.979  0.8506 -0.0854  1.0434
  212MOL0     H28605   3.657   0.667   4.050 -0.7295  1.6545 -1.9592
  212MOL0     H28606   3.377   1.064   4.497  0.5131 -0.6864 -3.5231
  212MOL0     H28607   3.158   1.040   4.624 -2.4975 -0.6969  0.0178
  212MOL0     H28608   2.829   0.878   4.488 -1.6854  2.4127 -0.1878
  212MOL0     H28609   2.901   1.028   4.546  1.5252 -0.4370 -0.9897
  212MOL0     H28610   2.829   0.994   4.767 -0.7178  0.9535 -0.9164
  212MOL0     H28611   2.800   0.823   4.738  3.1468  0.2611 -0.9909
  212MOL0     H28612   2.598   0.881   4.587 -0.7611  0.9837 -1.0002
  212MOL0     H28613   2.634   1.046   4.631  1.2651 -0.6907 -0.2571
  212MOL0     H28614   2.605   0.850   4.851  1.4061  0.0329 -1.0269
  212MOL0     H28615   2.569   1.021   4.851  0.3849 -0.6846  0.5208
  212MOL0     H28616   2.191   0.881   4.746  0.3421 -3.5078  1.3745
  212MOL0     H28617   3.068   0.697   4.406  1.4341 -1.1192  2.2136
  212MOL0     H28618   3.184   0.629   4.230 -3.5928  4.2841  2.6439
  212MOL0     H28619   3.308   0.725   4.149 -2.4471  1.7314 -0.2008
  212MOL0     H28620   3.369   0.619   4.271  2.3782  1.4263 -4.0672
  213MOL0     O28621   6.733   3.573   4.365 -0.0884  0.1958  0.1596
  213MOL0     C28622   6.728   3.478   4.288 -0.3265  0.1465 -0.2025
  213MOL0     O28623   6.814   3.361   4.292  0.1973 -0.4946  0.0185
  213MOL0     C28624   6.932   3.370   4.350 -0.1732  0.1488 -0.5548
  213MOL0     C28625   6.928   3.381   4.486  0.4170 -0.0767 -0.4473
  213MOL0     C28626   7.045   3.379   4.559  0.0789  0.2148  0.8162
  213MOL0     C28627   7.168   3.343   4.499 -0.4719 -0.8490 -0.4741
  213MOL0     O28628   7.270   3.315   4.584  0.3130 -0.1274 -0.5491
  213MOL0     C28629   7.399   3.303   4.523 -0.4669  0.2809  0.5576
  213MOL0     C28630   7.491   3.261   4.636 -0.5308 -0.1092 -0.0554
  213MOL0     C28631   7.608   3.175   4.598 -0.5063 -0.2717 -0.3019
  213MOL0     C28632   7.725   3.181   4.697 -0.1714  0.5401  0.2024
  213MOL0     C28633   7.819   3.067   4.679  0.4627 -0.3050 -0.2557
  213MOL0     C28634   7.953   3.082   4.769  0.0266  0.4838 -0.4164
  213MOL0     C28635   8.043   2.966   4.733  0.3146 -0.8727  0.2619
  213MOL0     C28636   8.183   2.974   4.796 -0.0432 -0.0800  0.7092
  213MOL0     N28637   8.274   2.910   4.701 -0.0537  0.1239  0.2225
  213MOL0     C28638   8.380   2.989   4.643  0.0563  0.6476  0.0947
  213MOL0     C28639   8.468   2.903   4.598  0.6701 -0.2011 -0.2974
  213MOL0     C28640   8.598   2.946   4.536 -0.3144  0.7318  0.9143
  213MOL0     C28641   8.569   3.017   4.398 -0.3547 -0.2465 -1.0045
  213MOL0     C28642   8.696   3.071   4.337  0.4406  0.1080 -0.0014
  213MOL0     C28643   8.821   2.981   4.340  1.1112 -0.0988 -0.6663
  213MOL0     O28644   8.794   2.855   4.286  0.4405  0.0715 -0.4368
  213MOL0     C28645   8.893   2.785   4.220  0.5806  0.4481 -0.0592
  213MOL0     C28646   9.030   2.812   4.226 -0.5847 -1.1566 -0.4423
  213MOL0     C28647   9.122   2.731   4.165 -0.6409 -0.1981  0.5607
  213MOL0     C28648   9.082   2.613   4.086 -0.2434  0.2184 -0.1708
  213MOL0     C28649   9.168   2.512   4.028 -0.2576 -0.1552 -0.2734
  213MOL0     O28650   9.113   2.394   3.977 -0.8517  0.4812 -0.3358
  213MOL0     C28651   9.185   2.277   3.947 -0.2217 -0.0080  1.1133
  213MOL0     C28652   9.130   2.157   3.979 -0.0857  0.7167 -0.4457
  213MOL0     C28653   9.197   2.037   3.947 -0.0331  0.0012 -0.1706
  213MOL0     C28654   9.320   2.041   3.882  0.4988 -0.4244 -0.9988
  213MOL0     O28655   9.390   1.932   3.850  0.9208  0.7919 -0.1489
  213MOL0     C28656   9.418   1.844   3.955  0.1352 -0.3674 -0.6058
  213MOL0     C28657   9.552   1.767   3.924  0.1119  0.2674 -0.6199
  213MOL0     C28658   9.675   1.848   3.944 -0.5029  0.6299 -0.7112
  213MOL0     C28659   9.800   1.781   3.885 -0.0300 -0.0863 -0.5210
  213MOL0     C28660   9.927   1.861   3.909  0.2748 -0.5537 -0.5652
  213MOL0     C28661  10.065   1.794   3.882 -0.0923 -0.6921 -0.0172
  213MOL0     C28662  10.077   1.774   3.727  0.3506  0.4215  0.3085
  213MOL0     C28663  10.191   1.668   3.692 -1.0822 -0.7062 -0.2491
  213MOL0    Cl28664  10.359   1.749   3.709 -0.2151  0.0051 -0.0809
  213MOL0     C28665   9.364   2.162   3.829 -0.3720  0.8364 -1.0275
  213MOL0     C28666   9.304   2.282   3.864  0.2702 -0.9073 -0.2876
  213MOL0     O28667   9.287   2.547   4.037  1.1568  0.3980 -0.6492
  213MOL0     C28668   8.945   2.592   4.082  0.1313  0.8194 -0.0766
  213MOL0     C28669   8.862   2.671   4.153  0.2130 -0.2673 -0.0198
  213MOL0     N28670   8.431   2.778   4.639  0.0260 -0.8808  0.3066
  213MOL0     N28671   8.314   2.777   4.690 -0.6348  0.8658 -1.5136
  213MOL0     C28672   7.166   3.346   4.360 -0.2193  0.6643 -0.7889
  213MOL0     C28673   7.047   3.362   4.287  0.7820  0.9307  0.5428
  213MOL0     C28674   6.637   3.480   4.175  0.6766 -0.2213  0.4973
  213MOL0     C28675   6.501   3.520   4.204  0.3620 -0.2337  0.3262
  213MOL0     C28676   6.412   3.540   4.093 -0.8154  0.6576  0.3003
  213MOL0     C28677   6.450   3.510   3.958  0.8164 -0.7413  0.4539
  213MOL0     O28678   6.357   3.545   3.862  0.0601 -0.0233  0.6520
  213MOL0     C28679   6.395   3.649   3.774  0.0745 -0.8877  1.0030
  213MOL0     C28680   6.280   3.705   3.690 -0.5558 -0.4939  0.1541
  213MOL0     C28681   6.172   3.795   3.765 -0.0296 -0.4931  0.1410
  213MOL0     C28682   6.237   3.912   3.839  0.3606 -0.2116  0.5628
  213MOL0     C28683   6.128   3.988   3.897 -0.0692 -0.0829  0.2124
  213MOL0     C28684   6.028   4.039   3.939 -0.3548 -0.5726  0.1909
  213MOL0     C28685   6.580   3.476   3.938  0.2335 -0.6194  0.6332
  213MOL0     C28686   6.674   3.455   4.043  0.1626  0.5294  0.2217
  213MOL0     C28687   6.813   3.425   4.004 -0.4724 -0.7966 -0.6209
  213MOL0     H28688   6.835   3.394   4.541  0.6789  2.8999 -0.5520
  213MOL0     H28689   7.053   3.390   4.666 -2.1989  0.8269  0.9796
  213MOL0     H28690   7.404   3.223   4.448  1.2677 -1.0528  1.9951
  213MOL0     H28691   7.433   3.392   4.470  1.0365 -0.7132 -0.2270
  213MOL0     H28692   7.431   3.198   4.702  0.6725  0.3050  1.5031
  213MOL0     H28693   7.520   3.345   4.701  2.8958 -1.1052 -0.1110
  213MOL0     H28694   7.647   3.199   4.499 -0.1040 -0.7321 -0.2627
  213MOL0     H28695   7.570   3.072   4.597 -0.0538 -0.4373 -1.4363
  213MOL0     H28696   7.778   3.276   4.687 -1.0641  0.8373 -2.6204
  213MOL0     H28697   7.692   3.175   4.801 -1.2879 -2.9513 -0.1959
  213MOL0     H28698   7.770   2.970   4.695  3.2673 -1.8483 -0.4369
  213MOL0     H28699   7.836   3.063   4.571 -3.4394 -1.3667 -1.0063
  213MOL0     H28700   7.988   3.181   4.736 -2.1775  1.6682  0.5846
  213MOL0     H28701   7.934   3.075   4.877  1.3630  1.6001 -0.0808
  213MOL0     H28702   8.039   2.959   4.624 -3.2398 -1.7015  0.3413
  213MOL0     H28703   7.993   2.871   4.757  1.0687 -0.8006  2.3334
  213MOL0     H28704   8.218   3.075   4.816  0.4247 -0.2011  0.5152
  213MOL0     H28705   8.187   2.909   4.885 -2.6034 -0.5400  0.5589
  213MOL0     H28706   8.384   3.096   4.630 -3.1826  0.6845 -1.5692
  213MOL0     H28707   8.661   3.014   4.594  0.1818  1.4004 -0.3573
  213MOL0     H28708   8.662   2.859   4.526  1.2376  1.7447  1.6723
  213MOL0     H28709   8.514   2.942   4.340  0.5447 -1.6880 -0.0756
  213MOL0     H28710   8.507   3.103   4.425 -1.3370 -1.5081  0.9879
  213MOL0     H28711   8.714   3.164   4.392 -1.4782  0.4682  0.0760
  213MOL0     H28712   8.680   3.087   4.230 -1.3193 -0.5826  0.1280
  213MOL0     H28713   8.862   2.968   4.440 -0.4897 -0.5267 -0.0274
  213MOL0     H28714   8.893   3.031   4.274  1.7170 -1.6288 -1.2154
  213MOL0     H28715   9.065   2.901   4.277  0.2057 -1.0600 -1.1463
  213MOL0     H28716   9.226   2.753   4.184  0.0194  2.6258 -4.5568
  213MOL0     H28717   9.035   2.147   4.030  0.8279 -1.6997  0.9626
  213MOL0     H28718   9.160   1.941   3.982 -0.5308  0.7144  1.3835
  213MOL0     H28719   9.411   1.900   4.049 -0.2026 -3.1530  1.1436
  213MOL0     H28720   9.336   1.772   3.949 -2.7054  2.4814  1.0792
  213MOL0     H28721   9.561   1.676   3.984  0.5616 -1.3861 -3.0467
  213MOL0     H28722   9.543   1.729   3.821  1.1156 -2.1337  0.0913
  213MOL0     H28723   9.664   1.949   3.905  1.1116  0.4747 -1.6429
  213MOL0     H28724   9.684   1.852   4.053 -2.6938  0.0081 -0.4472
  213MOL0     H28725   9.793   1.780   3.776  1.4081  0.9343 -0.6460
  213MOL0     H28726   9.810   1.680   3.925  0.0885 -0.0635 -0.4956
  213MOL0     H28727   9.938   1.878   4.017  0.7116  0.8071 -0.8031
  213MOL0     H28728   9.920   1.956   3.854 -4.6167 -0.5840 -0.4064
  213MOL0     H28729  10.149   1.856   3.913  0.5185 -1.2342 -0.5558
  213MOL0     H28730  10.069   1.695   3.929  0.9606 -0.4342  0.4507
  213MOL0     H28731  10.087   1.871   3.677  1.3604 -1.0121 -2.4517
  213MOL0     H28732   9.987   1.730   3.683 -0.2187  1.5335  0.3079
  213MOL0     H28733  10.191   1.582   3.759 -1.9629 -0.1799  0.4668
  213MOL0     H28734  10.175   1.640   3.588  0.0024 -2.4348  0.0190
  213MOL0     H28735   9.452   2.160   3.765  0.4343 -0.4497  0.0503
  213MOL0     H28736   9.344   2.379   3.836  0.6278  0.6170  4.6111
  213MOL0     H28737   8.909   2.500   4.036  1.1992 -0.8843  2.3090
  213MOL0     H28738   8.761   2.630   4.154  0.3874 -0.9018 -2.5214
  213MOL0     H28739   7.261   3.328   4.309  0.1511 -2.4580  0.7536
  213MOL0     H28740   7.033   3.360   4.180 -2.2171 -1.1492  0.8581
  213MOL0     H28741   6.460   3.543   4.301  0.5622 -0.0823  0.3762
  213MOL0     H28742   6.314   3.578   4.120 -2.4792 -0.7681 -3.1155
  213MOL0     H28743   6.476   3.620   3.706 -0.1470 -0.6441  0.6362
  213MOL0     H28744   6.442   3.730   3.831  0.3321  1.4937 -2.3439
  213MOL0     H28745   6.227   3.621   3.645 -0.9008  0.0118 -0.3907
  213MOL0     H28746   6.329   3.763   3.612  3.0805 -1.0002  1.8474
  213MOL0     H28747   6.125   3.729   3.838 -1.5529 -1.0734 -1.3083
  213MOL0     H28748   6.101   3.828   3.689 -0.1022 -0.7809  0.0817
  213MOL0     H28749   6.310   3.882   3.914  1.7932 -0.2004 -0.7766
  213MOL0     H28750   6.283   3.965   3.755 -0.1887  0.1834  0.5048
  213MOL0     H28751   5.939   4.096   3.957  1.9147  2.6833  2.2560
  213MOL0     H28752   6.594   3.456   3.832 -0.1529 -0.1484  0.4900
  213MOL0     H28753   6.887   3.475   4.067 -0.3134 -1.0825 -0.5758
  213MOL0     H28754   6.831   3.317   4.002 -0.6379 -0.8560  0.4746
  213MOL0     H28755   6.828   3.465   3.903  2.8565  0.2412  0.1683
  214MOL0     O28756   1.441  11.199  10.493  0.6110  0.1187 -0.6442
  214MOL0     C28757   1.373  11.109  10.546  0.3397 -0.8114 -0.9874
  214MOL0     O28758   1.420  11.011  10.626 -0.0238  0.9269  0.3022
  214MOL0     C28759   1.560  11.001  10.652  1.0981 -0.5111  0.5452
  214MOL0     C28760   1.636  11.106  10.691 -0.3973  0.0006  0.0526
  214MOL0     C28761   1.765  11.077  10.740 -0.6325 -0.3018  0.0988
  214MOL0     C28762   1.823  10.957  10.720 -0.6911  0.3797  0.5123
  214MOL0     O28763   1.952  10.940  10.761  0.1343  0.5101 -0.2378
  214MOL0     C28764   2.035  10.865  10.678  0.2425 -0.1586  0.1168
  214MOL0     C28765   2.174  10.925  10.678  0.0911  0.2183 -0.2154
  214MOL0     C28766   2.251  10.942  10.802 -0.9423 -0.1166  0.6620
  214MOL0     C28767   2.377  11.032  10.790 -0.0326 -0.3549 -0.1942
  214MOL0     C28768   2.466  11.060  10.918  0.7647 -1.4499 -0.4406
  214MOL0     C28769   2.494  10.933  10.998  0.0192 -0.0838 -0.6282
  214MOL0     C28770   2.623  10.955  11.085  0.9156 -0.7049 -0.2531
  214MOL0     C28771   2.658  10.847  11.194  0.6946 -0.3536 -0.4217
  214MOL0     N28772   2.767  10.890  11.284  0.0197  0.3780  0.1234
  214MOL0     C28773   2.895  10.835  11.282 -0.5214 -0.2900  0.1098
  214MOL0     C28774   2.952  10.872  11.401  0.6459  0.5420  0.2531
  214MOL0     C28775   3.102  10.842  11.445 -0.1709  0.4892  0.1620
  214MOL0     C28776   3.106  10.783  11.589 -0.0473  0.9491 -0.3447
  214MOL0     C28777   3.202  10.666  11.607 -0.0111  0.0348 -0.1302
  214MOL0     C28778   3.198  10.621  11.756 -0.6554 -0.2590 -0.6535
  214MOL0     O28779   3.299  10.519  11.781 -0.3656  0.8086  0.2428
  214MOL0     C28780   3.431  10.550  11.823  0.1087 -0.0664  0.3990
  214MOL0     C28781   3.505  10.438  11.859 -0.2561 -0.7983  0.4761
  214MOL0     C28782   3.644  10.435  11.882 -0.7952 -0.3321 -0.0242
  214MOL0     C28783   3.707  10.560  11.886 -0.8682 -0.2501  0.4637
  214MOL0     C28784   3.850  10.573  11.908 -0.4724 -0.3178 -0.1298
  214MOL0     O28785   3.902  10.483  11.988 -0.0663  0.7856  0.1405
  214MOL0     C28786   4.037  10.466  11.988 -0.0419  0.3131  0.1365
  214MOL0     C28787   4.119  10.467  11.873 -0.9767 -0.4283  0.1274
  214MOL0     C28788   4.262  10.441  11.873  0.3331  0.9992 -0.1601
  214MOL0     C28789   4.322  10.404  11.997  0.3782  0.2595 -0.4358
  214MOL0     O28790   4.459  10.380  11.999 -0.4265 -0.2604 -0.1345
  214MOL0     C28791   4.531  10.379  11.872  0.2239  0.4196 -0.2373
  214MOL0     C28792   4.679  10.346  11.892  0.5268  0.1576 -0.2888
  214MOL0     C28793   4.694  10.195  11.917 -0.9618  0.0090 -1.4144
  214MOL0     C28794   4.828  10.149  11.978  0.6266  0.3346 -0.6049
  214MOL0     C28795   4.948  10.221  11.919 -0.2049  0.8747  0.0367
  214MOL0     C28796   5.073  10.184  12.001  0.3999 -0.6452 -0.4451
  214MOL0     C28797   5.182  10.288  12.004 -0.6080  1.2585 -0.2386
  214MOL0     C28798   5.299  10.252  12.096 -0.8489  0.2068  0.2954
  214MOL0    Cl28799   5.449  10.341  12.066 -0.6139 -0.0171  0.4163
  214MOL0     C28800   4.249  10.423  12.118  0.5759  0.0583 -0.0336
  214MOL0     C28801   4.107  10.441  12.113  0.3123 -0.0678  0.3097
  214MOL0     O28802   3.904  10.672  11.864 -1.1183  0.1025  0.0805
  214MOL0     C28803   3.634  10.680  11.860 -0.5253  0.1584  0.4301
  214MOL0     C28804   3.500  10.678  11.827  1.1198  0.7959  0.6088
  214MOL0     N28805   2.859  10.949  11.469 -0.1395 -0.0471 -0.0281
  214MOL0     N28806   2.747  10.957  11.406 -0.2968 -0.0883  0.4170
  214MOL0     C28807   1.746  10.850  10.670  0.2150 -0.4402  0.1873
  214MOL0     C28808   1.613  10.874  10.640 -0.0856 -0.2756  0.4807
  214MOL0     C28809   1.224  11.120  10.544  0.0898 -0.1884 -0.6751
  214MOL0     C28810   1.150  11.181  10.648  0.2648  0.6296  0.1462
  214MOL0     C28811   1.013  11.214  10.628  0.5543 -0.0431  0.4374
  214MOL0     C28812   0.947  11.169  10.509 -0.4328 -0.8774  0.6451
  214MOL0     O28813   0.817  11.211  10.506  0.6820 -0.4693  0.0180
  214MOL0     C28814   0.750  11.174  10.385  0.0833 -0.8363  0.1360
  214MOL0     C28815   0.599  11.192  10.385 -1.6561 -0.4050 -0.4492
  214MOL0     C28816   0.561  11.338  10.390  0.4145  0.5624 -0.1208
  214MOL0     C28817   0.419  11.361  10.345 -0.6862 -0.5722 -0.2115
  214MOL0     C28818   0.318  11.306  10.440  0.1307 -0.1226 -0.5124
  214MOL0     C28819   0.227  11.255  10.508  0.1014 -0.0537  0.1442
  214MOL0     C28820   1.023  11.113  10.406 -0.8513 -0.4455 -0.0057
  214MOL0     C28821   1.162  11.082  10.427 -0.0498 -0.1683  0.1407
  214MOL0     C28822   1.242  11.024  10.312  0.3486 -0.2573 -0.0843
  214MOL0     H28823   1.590  11.204  10.699  0.2591  0.2049  1.7653
  214MOL0     H28824   1.823  11.164  10.770 -0.6269 -0.2163 -0.1557
  214MOL0     H28825   2.046  10.762  10.715 -2.0249 -0.1734  0.8903
  214MOL0     H28826   2.000  10.852  10.575 -1.1605  1.5992  0.3221
  214MOL0     H28827   2.173  11.028  10.642  0.5678  0.1796 -0.3405
  214MOL0     H28828   2.230  10.862  10.609  1.0845  0.1702  0.6110
  214MOL0     H28829   2.273  10.845  10.847  0.3335  0.1182  0.5593
  214MOL0     H28830   2.178  10.989  10.870  0.5191  1.9962  0.8509
  214MOL0     H28831   2.438  10.980  10.715  0.3278  0.6397 -0.6085
  214MOL0     H28832   2.345  11.126  10.744  2.3146  0.7787  0.3507
  214MOL0     H28833   2.556  11.105  10.877  0.8339 -0.7590  0.4433
  214MOL0     H28834   2.414  11.126  10.987  0.2705 -1.4764 -0.7839
  214MOL0     H28835   2.416  10.922  11.073  1.0012 -0.2616  0.4030
  214MOL0     H28836   2.493  10.846  10.932 -4.3167 -0.0174 -0.9223
  214MOL0     H28837   2.605  11.050  11.137 -0.2134 -0.2390 -1.4468
  214MOL0     H28838   2.714  10.965  11.024  0.4438  0.2909 -0.8244
  214MOL0     H28839   2.572  10.842  11.262  0.1160 -1.3893 -1.1897
  214MOL0     H28840   2.679  10.748  11.153  0.1843 -0.2783 -0.8898
  214MOL0     H28841   2.950  10.772  11.213 -0.5701  1.9443 -2.0768
  214MOL0     H28842   3.140  10.773  11.368  2.5711  3.4497 -1.3528
  214MOL0     H28843   3.167  10.928  11.433 -1.3981  1.4059 -0.1408
  214MOL0     H28844   3.140  10.868  11.648 -1.1301  1.9553 -1.1005
  214MOL0     H28845   3.007  10.763  11.630  0.2332 -2.2799 -0.9408
  214MOL0     H28846   3.304  10.694  11.580  1.3333 -3.9371  0.1352
  214MOL0     H28847   3.175  10.571  11.559  2.4061  0.1781 -1.9409
  214MOL0     H28848   3.100  10.585  11.787 -0.5233 -0.4508 -0.4506
  214MOL0     H28849   3.223  10.709  11.817  2.3159 -0.3805 -1.5103
  214MOL0     H28850   3.457  10.341  11.857 -1.1308 -0.3570 -0.2436
  214MOL0     H28851   3.696  10.341  11.898 -0.6869 -0.3654 -0.5292
  214MOL0     H28852   4.068  10.480  11.778 -1.5426 -1.5908  0.2559
  214MOL0     H28853   4.308  10.462  11.777  2.8320  0.0119  0.7198
  214MOL0     H28854   4.492  10.306  11.800  4.4512 -3.0599  0.6468
  214MOL0     H28855   4.518  10.483  11.838  0.3360  0.4371 -0.2254
  214MOL0     H28856   4.741  10.386  11.812  0.7983  1.9319  0.7562
  214MOL0     H28857   4.714  10.412  11.971  1.7145 -0.4302 -0.3087
  214MOL0     H28858   4.614  10.175  11.989  0.7051  0.1532  0.5763
  214MOL0     H28859   4.666  10.147  11.822 -0.8084  0.3447 -1.6318
  214MOL0     H28860   4.830  10.042  11.956 -0.3485  0.4549 -1.3379
  214MOL0     H28861   4.826  10.153  12.087 -2.5172 -2.5053 -0.3942
  214MOL0     H28862   4.941  10.330  11.922 -2.7861  0.7402  1.8329
  214MOL0     H28863   4.955  10.197  11.812  0.0559  2.7095 -0.3998
  214MOL0     H28864   5.042  10.154  12.101 -2.2676 -0.3703 -1.1117
  214MOL0     H28865   5.106  10.087  11.964  0.3895 -0.7755 -0.1135
  214MOL0     H28866   5.157  10.392  12.029  0.0777  1.6406 -1.0753
  214MOL0     H28867   5.214  10.289  11.900 -1.1899 -1.0158 -0.4863
  214MOL0     H28868   5.260  10.250  12.198 -0.0001 -0.4354  0.6165
  214MOL0     H28869   5.322  10.149  12.068  0.8732  0.8629 -0.8638
  214MOL0     H28870   4.282  10.389  12.216 -1.5340 -1.3416  0.2475
  214MOL0     H28871   4.061  10.432  12.211  1.8170  1.8854  1.2433
  214MOL0     H28872   3.682  10.777  11.862 -3.9222  1.9820  0.8163
  214MOL0     H28873   3.455  10.768  11.787 -0.3869 -1.3983 -3.1905
  214MOL0     H28874   1.793  10.753  10.660  1.2626  0.0297  0.4442
  214MOL0     H28875   1.560  10.788  10.602  0.0564 -0.1921  0.0830
  214MOL0     H28876   1.193  11.212  10.743  0.0931 -0.2867  0.5371
  214MOL0     H28877   0.948  11.266  10.698  1.7158  2.1647 -0.0621
  214MOL0     H28878   0.768  11.067  10.376  3.0435 -0.4444  0.4865
  214MOL0     H28879   0.797  11.219  10.297  1.0521 -0.7086  0.7064
  214MOL0     H28880   0.551  11.144  10.471 -1.2297 -1.3345 -0.7109
  214MOL0     H28881   0.559  11.154  10.291 -1.2999 -2.5327  0.1879
  214MOL0     H28882   0.642  11.388  10.336  0.9702 -0.1885 -0.0017
  214MOL0     H28883   0.573  11.371  10.494 -0.7997 -0.4274  0.3550
  214MOL0     H28884   0.392  11.467  10.336  1.4718  0.5530  3.8707
  214MOL0     H28885   0.399  11.313  10.249 -0.2308 -0.2249 -0.4847
  214MOL0     H28886   0.147  11.193  10.544  0.2776  0.5744  1.7297
  214MOL0     H28887   0.992  11.084  10.306 -0.8526 -1.5942  0.3194
  214MOL0     H28888   1.186  10.984  10.226  0.7560  0.4190 -0.6737
  214MOL0     H28889   1.326  11.089  10.286 -0.6075  0.5387 -1.3404
  214MOL0     H28890   1.283  10.934  10.358  0.3803 -1.1874 -1.8708
  215MOL0     O28891   4.548   1.045   7.565 -0.9326 -0.1265  0.0315
  215MOL0     C28892   4.438   1.076   7.609  0.1639 -0.4894  0.6188
  215MOL0     O28893   4.377   1.002   7.715  0.0201 -0.1958 -1.0640
  215MOL0     C28894   4.450   0.911   7.782 -0.0709 -0.0715 -0.0284
  215MOL0     C28895   4.553   0.949   7.870  0.7655 -0.4555 -0.1132
  215MOL0     C28896   4.620   0.853   7.932 -0.2670 -0.2768 -0.0055
  215MOL0     C28897   4.596   0.717   7.913  0.7462  0.8862  0.6934
  215MOL0     O28898   4.653   0.620   7.995  0.0998 -0.2385  0.5198
  215MOL0     C28899   4.685   0.495   7.938 -0.1773  0.0178  0.0771
  215MOL0     C28900   4.812   0.448   8.024  0.4350 -0.1160 -0.6463
  215MOL0     C28901   4.778   0.434   8.177  0.0322  0.5977  0.2222
  215MOL0     C28902   4.903   0.388   8.253  0.6851  0.8538  0.2803
  215MOL0     C28903   4.877   0.260   8.328  0.4489 -0.6139 -0.5070
  215MOL0     C28904   4.896   0.137   8.240  0.1407  0.6173  0.0976
  215MOL0     C28905   4.876   0.016   8.339  0.0773  0.4124 -0.6319
  215MOL0     C28906   4.923  -0.114   8.267 -0.8995 -0.1740 -0.6626
  215MOL0     N28907   5.062  -0.085   8.220  0.1223 -0.5078 -0.0739
  215MOL0     C28908   5.164  -0.048   8.302 -0.4358  0.3972 -0.7115
  215MOL0     C28909   5.269  -0.030   8.224 -1.3139  0.7049  0.5556
  215MOL0     C28910   5.400   0.044   8.262  0.4543  0.1014 -0.1351
  215MOL0     C28911   5.508   0.014   8.165  0.4374  0.4547  0.4926
  215MOL0     C28912   5.635   0.087   8.217 -0.1016 -0.3201 -0.3174
  215MOL0     C28913   5.773   0.061   8.149 -1.1872 -0.4386  0.5952
  215MOL0     O28914   5.771  -0.079   8.135  0.3738  0.2389  0.2447
  215MOL0     C28915   5.883  -0.145   8.100  1.2467  0.5240 -0.0875
  215MOL0     C28916   6.008  -0.106   8.146 -0.3374  0.0536  0.1717
  215MOL0     C28917   6.122  -0.176   8.105 -0.2347 -0.5927  0.1819
  215MOL0     C28918   6.113  -0.273   8.006  0.0816 -0.6242 -0.3984
  215MOL0     C28919   6.238  -0.334   7.971  0.6812  0.3855 -0.3639
  215MOL0     O28920   6.347  -0.337   8.056 -0.2429 -0.1549 -0.3113
  215MOL0     C28921   6.476  -0.359   8.009 -0.1569  0.0052  0.1708
  215MOL0     C28922   6.514  -0.317   7.881  0.0062 -1.8582 -0.6723
  215MOL0     C28923   6.641  -0.330   7.835 -0.2304 -0.1518  0.2056
  215MOL0     C28924   6.745  -0.390   7.920 -0.3631  0.1067 -0.6502
  215MOL0     O28925   6.874  -0.411   7.881  0.3224  0.2776  0.3447
  215MOL0     C28926   6.898  -0.464   7.753 -0.9475 -0.2570 -0.1770
  215MOL0     C28927   7.046  -0.511   7.740  0.5337 -0.4875 -0.8104
  215MOL0     C28928   7.124  -0.389   7.757 -0.4118  0.3327  0.5811
  215MOL0     C28929   7.272  -0.422   7.739 -0.1696 -0.0956  0.0111
  215MOL0     C28930   7.371  -0.305   7.705  0.4776  0.0904 -0.1111
  215MOL0     C28931   7.506  -0.361   7.657  0.3957  0.0910  0.1203
  215MOL0     C28932   7.597  -0.237   7.617  0.0147 -0.7427 -0.2700
  215MOL0     C28933   7.745  -0.276   7.611  0.0142 -0.6041  0.4337
  215MOL0    Cl28934   7.795  -0.348   7.776  0.3164  0.3442  0.0411
  215MOL0     C28935   6.705  -0.434   8.048 -0.1431 -0.2762 -0.2181
  215MOL0     C28936   6.568  -0.424   8.089 -0.3649  0.3917  0.2019
  215MOL0     O28937   6.236  -0.378   7.858  0.1264 -0.4057  0.1195
  215MOL0     C28938   5.986  -0.323   7.964 -0.6743  0.8570  0.2676
  215MOL0     C28939   5.869  -0.252   8.006  0.4234  0.6909  0.0388
  215MOL0     N28940   5.230  -0.063   8.095 -0.2248  0.2505 -0.3786
  215MOL0     N28941   5.103  -0.094   8.090 -0.1108 -0.0684  0.7371
  215MOL0     C28942   4.497   0.684   7.821 -0.8475  0.3381  0.9608
  215MOL0     C28943   4.425   0.783   7.756 -0.5642  0.0240  0.3104
  215MOL0     C28944   4.362   1.185   7.544  0.9734  0.7737  0.4525
  215MOL0     C28945   4.222   1.194   7.580 -0.2828 -0.5598  0.5753
  215MOL0     C28946   4.134   1.297   7.535 -1.0929  0.3800 -0.5741
  215MOL0     C28947   4.188   1.392   7.442  0.0872 -0.5378  0.0529
  215MOL0     O28948   4.121   1.502   7.391  0.5188  0.3157 -0.0849
  215MOL0     C28949   3.982   1.520   7.419  0.1672 -0.4782 -0.5281
  215MOL0     C28950   3.932   1.660   7.377  1.1064 -0.5801  0.9365
  215MOL0     C28951   3.792   1.696   7.431  0.5021 -0.4429  1.3361
  215MOL0     C28952   3.725   1.819   7.360  0.7201 -0.3076 -0.2715
  215MOL0     C28953   3.575   1.818   7.349  0.2027 -0.0608 -0.0980
  215MOL0     C28954   3.457   1.800   7.329 -0.9259 -0.1993  0.0723
  215MOL0     C28955   4.320   1.384   7.403  0.1243 -0.2140  0.2121
  215MOL0     C28956   4.409   1.285   7.449  0.0958 -0.3913  0.2074
  215MOL0     C28957   4.556   1.299   7.404  0.0919  0.0612  0.2325
  215MOL0     H28958   4.569   1.054   7.894  2.4871 -0.1620 -2.2100
  215MOL0     H28959   4.705   0.884   7.991  0.0799 -1.3688  0.0891
  215MOL0     H28960   4.605   0.421   7.951  0.0516 -0.0964  0.8624
  215MOL0     H28961   4.703   0.504   7.830  3.1657 -1.3862  0.3893
  215MOL0     H28962   4.888   0.525   8.007  2.3448 -1.4457  1.3115
  215MOL0     H28963   4.851   0.355   7.983  1.9323  0.9039 -1.6439
  215MOL0     H28964   4.691   0.367   8.174  1.1757 -0.9194 -0.6459
  215MOL0     H28965   4.752   0.533   8.216 -0.2750  1.0382 -1.0551
  215MOL0     H28966   4.981   0.366   8.180 -0.6389 -1.1220 -0.6318
  215MOL0     H28967   4.931   0.472   8.318 -2.4040  1.0329  1.5519
  215MOL0     H28968   4.941   0.241   8.415  0.5386 -2.7186 -0.9811
  215MOL0     H28969   4.776   0.268   8.368 -0.4609 -0.0610 -2.7314
  215MOL0     H28970   4.821   0.139   8.161  2.4185  2.5005 -2.1892
  215MOL0     H28971   5.002   0.144   8.213  0.7377  0.4778  2.2269
  215MOL0     H28972   4.768   0.008   8.357 -0.0808  0.6631 -1.3936
  215MOL0     H28973   4.931   0.029   8.432 -1.5891  1.7657  0.2069
  215MOL0     H28974   4.933  -0.195   8.341  2.4309  2.0501  1.6218
  215MOL0     H28975   4.852  -0.134   8.187 -2.5555  2.0553  0.1574
  215MOL0     H28976   5.169  -0.025   8.408  0.7412  0.9682 -0.8778
  215MOL0     H28977   5.373   0.150   8.260  1.3471  0.3704 -3.3130
  215MOL0     H28978   5.446   0.014   8.356  4.1138  0.1359 -1.7323
  215MOL0     H28979   5.524  -0.094   8.156 -1.1981 -0.0450  2.5189
  215MOL0     H28980   5.466   0.054   8.072 -2.6559  0.5996  1.8246
  215MOL0     H28981   5.644   0.049   8.319 -1.5229 -0.0667 -0.0792
  215MOL0     H28982   5.627   0.195   8.223 -1.7144 -0.4931  2.0365
  215MOL0     H28983   5.854   0.098   8.212 -0.9014  2.9382 -1.5178
  215MOL0     H28984   5.788   0.108   8.051 -0.3851  0.1855  1.0108
  215MOL0     H28985   6.022  -0.034   8.225  2.0144 -0.0204 -0.0968
  215MOL0     H28986   6.216  -0.137   8.143 -0.3577  1.2116 -1.2329
  215MOL0     H28987   6.442  -0.266   7.817 -1.3197 -2.3891  0.3365
  215MOL0     H28988   6.659  -0.289   7.736  0.9928 -0.8667  0.1198
  215MOL0     H28989   6.839  -0.555   7.738 -0.2333 -0.9687  1.1310
  215MOL0     H28990   6.878  -0.389   7.677 -1.4441  1.0175  1.1756
  215MOL0     H28991   7.079  -0.566   7.829  0.0222  4.4741  2.8709
  215MOL0     H28992   7.067  -0.568   7.650  0.1761  1.9980 -2.5558
  215MOL0     H28993   7.103  -0.328   7.669 -1.6167 -0.0361  0.5925
  215MOL0     H28994   7.105  -0.342   7.854  1.2558 -0.7394  1.4722
  215MOL0     H28995   7.290  -0.482   7.649  3.2874 -0.3660  0.7307
  215MOL0     H28996   7.315  -0.467   7.829 -1.3828 -0.3076  0.5045
  215MOL0     H28997   7.368  -0.237   7.791  0.2999 -0.1193  0.0491
  215MOL0     H28998   7.328  -0.257   7.617 -1.7575  0.5093  1.1247
  215MOL0     H28999   7.553  -0.425   7.732  1.1595 -1.7049 -1.7774
  215MOL0     H29000   7.498  -0.429   7.571 -1.4342  0.8795 -0.3731
  215MOL0     H29001   7.590  -0.154   7.687  1.8165  2.3825 -3.4658
  215MOL0     H29002   7.552  -0.208   7.522 -0.1162  1.3907  0.3930
  215MOL0     H29003   7.769  -0.337   7.523  0.1065  1.5879 -1.1695
  215MOL0     H29004   7.791  -0.177   7.603 -0.9671 -0.1511  0.1574
  215MOL0     H29005   6.774  -0.472   8.123  0.4365 -2.8734 -1.9390
  215MOL0     H29006   6.544  -0.458   8.190 -1.3065  3.1424  0.9923
  215MOL0     H29007   5.977  -0.413   7.904  4.6387  0.3167 -0.1359
  215MOL0     H29008   5.773  -0.291   7.976 -0.2677  2.2738  0.1127
  215MOL0     H29009   4.465   0.580   7.813 -0.6060  0.3189  0.1408
  215MOL0     H29010   4.341   0.755   7.692 -0.8928  1.8858 -0.1171
  215MOL0     H29011   4.180   1.104   7.625  0.2240 -1.9463 -1.5798
  215MOL0     H29012   4.028   1.302   7.557 -0.8952 -1.3785  0.9888
  215MOL0     H29013   3.960   1.508   7.525  1.6235  1.2087  0.0144
  215MOL0     H29014   3.922   1.452   7.358 -2.2202  1.4482 -0.4716
  215MOL0     H29015   3.931   1.685   7.270 -0.6503 -0.5999  0.9240
  215MOL0     H29016   3.995   1.735   7.425  0.6668  1.0154 -0.8707
  215MOL0     H29017   3.796   1.706   7.539 -0.8786 -1.8925  1.5526
  215MOL0     H29018   3.720   1.616   7.415 -0.5712  1.0327 -2.3818
  215MOL0     H29019   3.747   1.911   7.416  2.8666 -0.3608 -0.9477
  215MOL0     H29020   3.771   1.830   7.262  3.8905 -1.7613  0.9032
  215MOL0     H29021   3.350   1.796   7.324 -1.0237  0.7304  0.9730
  215MOL0     H29022   4.356   1.459   7.333 -1.1911  0.2254 -0.0177
  215MOL0     H29023   4.565   1.205   7.347 -2.3741  0.1370 -0.3734
  215MOL0     H29024   4.571   1.384   7.337 -0.0026 -1.8000 -2.3181
  215MOL0     H29025   4.633   1.307   7.482  0.0869  0.5901  0.1833
  216MOL0     O29026   0.477  11.104   5.767  0.2169  0.1390 -0.0660
  216MOL0     C29027   0.584  11.088   5.710  0.2808  0.7679 -0.3061
  216MOL0     O29028   0.601  11.025   5.584  0.1195  0.2170 -0.3507
  216MOL0     C29029   0.492  10.996   5.508 -0.1918  0.8373  0.2676
  216MOL0     C29030   0.374  11.074   5.498 -0.5052 -0.1602 -0.0307
  216MOL0     C29031   0.269  11.038   5.419  0.4495 -0.6594  0.5738
  216MOL0     C29032   0.283  10.933   5.329  0.1989  0.0605  0.4081
  216MOL0     O29033   0.192  10.898   5.229 -0.3745 -0.5225  0.1904
  216MOL0     C29034   0.055  10.956   5.237  0.2161 -0.0240 -0.5532
  216MOL0     C29035  -0.034  10.888   5.136  0.5714 -0.3683  0.4049
  216MOL0     C29036  -0.179  10.916   5.180  0.6728 -0.3472 -0.2865
  216MOL0     C29037  -0.278  10.859   5.079  0.1774 -0.1869  0.2690
  216MOL0     C29038  -0.413  10.885   5.134  0.9788  0.4917  0.2019
  216MOL0     C29039  -0.508  10.829   5.034 -0.2888  0.8252  0.2767
  216MOL0     C29040  -0.647  10.835   5.101 -0.0314  0.4058 -0.3336
  216MOL0     C29041  -0.759  10.806   4.993 -0.2901  0.5416  0.1933
  216MOL0     N29042  -0.893  10.784   5.041  0.9952  0.4661 -0.4518
  216MOL0     C29043  -1.011  10.833   4.988 -0.7191 -0.8790  0.2138
  216MOL0     C29044  -1.107  10.777   5.054 -0.4121  0.5094 -0.9949
  216MOL0     C29045  -1.259  10.805   5.032 -0.0305  0.4857 -1.2994
  216MOL0     C29046  -1.320  10.707   4.936 -0.5739 -0.1452  0.1268
  216MOL0     C29047  -1.327  10.557   4.993 -0.1401  0.2848  0.0074
  216MOL0     C29048  -1.343  10.444   4.881  0.3082 -0.7695  0.4468
  216MOL0     O29049  -1.364  10.309   4.946 -0.2806  0.4041  0.1307
  216MOL0     C29050  -1.260  10.263   5.014 -0.1072 -0.0207 -0.5824
  216MOL0     C29051  -1.152  10.213   4.951 -0.1787 -0.6545  0.7372
  216MOL0     C29052  -1.041  10.176   5.016 -0.5728  0.9661  0.2422
  216MOL0     C29053  -1.040  10.165   5.155  0.3282 -0.0376  0.8491
  216MOL0     C29054  -0.914  10.107   5.214  0.5993  0.3399 -1.0230
  216MOL0     O29055  -0.917  10.070   5.347 -0.5636  0.6603 -0.2989
  216MOL0     C29056  -0.812   9.993   5.403  0.5946 -0.9185 -0.4271
  216MOL0     C29057  -0.842   9.867   5.457  0.0069  0.1305 -0.5079
  216MOL0     C29058  -0.746   9.792   5.521  0.2539 -0.8519  0.1044
  216MOL0     C29059  -0.614   9.847   5.540  0.1361  0.3401 -0.0009
  216MOL0     O29060  -0.535   9.785   5.634 -0.2285  0.4905 -0.9454
  216MOL0     C29061  -0.390   9.814   5.620 -0.3789  0.1813  0.1631
  216MOL0     C29062  -0.327   9.705   5.710 -0.9094  0.3828 -0.2390
  216MOL0     C29063  -0.173   9.701   5.722 -0.2548 -0.2756  0.8703
  216MOL0     C29064  -0.123   9.845   5.738  0.4716 -0.2250  0.1995
  216MOL0     C29065   0.018   9.845   5.789 -0.1585 -0.1674 -0.3503
  216MOL0     C29066   0.091   9.982   5.765  0.1194 -0.2171  0.7478
  216MOL0     C29067   0.027  10.098   5.849  0.6908  0.0659 -0.1666
  216MOL0     C29068   0.110  10.220   5.854  0.5600 -0.9466  0.4422
  216MOL0    Cl29069   0.106  10.304   5.692 -0.5882  0.0366  0.0807
  216MOL0     C29070  -0.577   9.963   5.466 -0.8815 -0.7746 -0.8497
  216MOL0     C29071  -0.673  10.036   5.401  0.9084 -0.7628  0.3118
  216MOL0     O29072  -0.813  10.082   5.144  0.2263 -0.1270  0.0948
  216MOL0     C29073  -1.154  10.196   5.230 -0.0893  0.9477  0.2040
  216MOL0     C29074  -1.260  10.253   5.159  0.1607  0.1251 -0.4664
  216MOL0     N29075  -1.059  10.688   5.145  0.0422 -0.3669  0.2001
  216MOL0     N29076  -0.931  10.692   5.138 -0.4673 -0.0653  0.2204
  216MOL0     C29077   0.396  10.851   5.331 -0.0250 -0.2339  0.0993
  216MOL0     C29078   0.500  10.886   5.425  0.4446 -0.3868 -0.2228
  216MOL0     C29079   0.713  11.115   5.787 -0.5583 -0.4924 -0.0816
  216MOL0     C29080   0.828  11.129   5.699 -0.7460  0.1090  0.1401
  216MOL0     C29081   0.955  11.147   5.756 -0.5785  0.5912 -0.1383
  216MOL0     C29082   0.968  11.167   5.897  0.9787  0.7994 -0.4417
  216MOL0     O29083   1.085  11.197   5.959 -0.2654  0.6079  0.0984
  216MOL0     C29084   1.183  11.257   5.874  0.8676 -0.0146  0.2058
  216MOL0     C29085   1.267  11.131   5.841 -0.1160 -0.1803 -0.6914
  216MOL0     C29086   1.349  11.179   5.718  0.5333 -1.3225 -0.6874
  216MOL0     C29087   1.451  11.071   5.695 -0.3082  0.5463 -0.5436
  216MOL0     C29088   1.567  11.067   5.788 -0.0522  0.5111  0.2335
  216MOL0     C29089   1.664  11.068   5.863  0.0689 -0.4456 -0.9202
  216MOL0     C29090   0.857  11.169   5.973  0.0904  0.0857  0.4820
  216MOL0     C29091   0.730  11.144   5.923  0.1831  0.0220  0.0703
  216MOL0     C29092   0.620  11.163   6.019  0.6230 -0.2895  0.2627
  216MOL0     H29093   0.366  11.165   5.557  1.8364 -0.7234  1.2702
  216MOL0     H29094   0.183  11.104   5.420  1.6748  0.9954  0.2704
  216MOL0     H29095   0.006  10.931   5.331 -0.4875  1.9658 -0.3389
  216MOL0     H29096   0.060  11.065   5.227 -1.7791  0.3236  1.5414
  216MOL0     H29097  -0.023  10.779   5.131 -0.6856 -0.4448 -1.1533
  216MOL0     H29098  -0.011  10.930   5.038 -0.0896 -0.7144  0.1006
  216MOL0     H29099  -0.194  11.024   5.192  0.0553 -0.2005 -2.0612
  216MOL0     H29100  -0.197  10.874   5.279 -2.3740  3.2648  0.9752
  216MOL0     H29101  -0.262  10.911   4.985  1.4538 -0.9653  0.0376
  216MOL0     H29102  -0.253  10.753   5.063 -0.9075 -0.8777  2.5759
  216MOL0     H29103  -0.430  10.841   5.233  1.1732  0.5697  0.2722
  216MOL0     H29104  -0.423  10.993   5.146 -2.5072  0.4010 -0.9313
  216MOL0     H29105  -0.505  10.882   4.938  0.1632  0.0955 -0.1248
  216MOL0     H29106  -0.489  10.725   5.004 -0.9752  1.1173 -1.3068
  216MOL0     H29107  -0.672  10.935   5.136  0.6884  0.6223 -0.4147
  216MOL0     H29108  -0.654  10.751   5.171 -3.1218 -0.7122 -1.8016
  216MOL0     H29109  -0.772  10.898   4.936 -1.4527  1.2471  1.5477
  216MOL0     H29110  -0.731  10.723   4.928 -2.4809  0.1174 -0.2826
  216MOL0     H29111  -1.025  10.911   4.914 -1.6454 -1.2348  0.0116
  216MOL0     H29112  -1.303  10.794   5.132  0.4678 -0.4825 -1.1775
  216MOL0     H29113  -1.272  10.909   5.002 -1.5790  0.5869 -0.3671
  216MOL0     H29114  -1.419  10.746   4.912 -1.2312  1.6534  4.7375
  216MOL0     H29115  -1.258  10.708   4.846 -2.4552  1.8756 -1.2448
  216MOL0     H29116  -1.415  10.561   5.059 -0.0912  2.6185  0.0285
  216MOL0     H29117  -1.243  10.538   5.060 -0.1986  4.0108  1.3998
  216MOL0     H29118  -1.260  10.456   4.811 -0.9166 -0.2229 -0.9728
  216MOL0     H29119  -1.433  10.472   4.826 -1.1580  0.8461  3.4050
  216MOL0     H29120  -1.147  10.209   4.843  0.2031  0.5434  0.6983
  216MOL0     H29121  -0.958  10.135   4.959 -0.4300 -1.6538  2.1122
  216MOL0     H29122  -0.941   9.822   5.448 -0.0653 -0.5282  2.4911
  216MOL0     H29123  -0.777   9.705   5.578 -0.6362 -0.8117 -0.2933
  216MOL0     H29124  -0.353   9.805   5.518 -1.2728 -0.3210 -0.1332
  216MOL0     H29125  -0.374   9.915   5.658  1.4075 -0.5526  1.4991
  216MOL0     H29126  -0.371   9.712   5.810 -0.6043 -1.1820  0.0414
  216MOL0     H29127  -0.357   9.611   5.662  1.2604  0.1067 -1.1855
  216MOL0     H29128  -0.160   9.646   5.816 -1.4288  0.7583  1.6697
  216MOL0     H29129  -0.129   9.644   5.639 -1.8054 -3.0657  1.8203
  216MOL0     H29130  -0.172   9.907   5.814  2.4584  2.4678 -0.5650
  216MOL0     H29131  -0.136   9.894   5.642 -4.6390 -1.8874 -0.2489
  216MOL0     H29132   0.080   9.766   5.745  0.5626  0.6487 -0.8493
  216MOL0     H29133   0.021   9.840   5.899  1.3172  2.3271 -0.1827
  216MOL0     H29134   0.200   9.975   5.779  0.5259 -1.1343 -2.0980
  216MOL0     H29135   0.076  10.009   5.660  0.3305 -0.9373  0.5276
  216MOL0     H29136   0.012  10.054   5.948  1.1997 -0.9467 -0.5335
  216MOL0     H29137  -0.074  10.120   5.811  0.0757 -0.5590  1.0566
  216MOL0     H29138   0.067  10.288   5.928 -2.3270 -1.6404 -0.4432
  216MOL0     H29139   0.215  10.200   5.876  0.6004  0.1095  1.2906
  216MOL0     H29140  -0.472   9.991   5.469 -1.3175  0.9883 -0.9143
  216MOL0     H29141  -0.637  10.130   5.358  0.6657  0.6722  3.0225
  216MOL0     H29142  -1.145  10.172   5.336 -2.3015 -1.1380  0.0111
  216MOL0     H29143  -1.352  10.280   5.211 -0.5480 -0.5768 -1.3313
  216MOL0     H29144   0.411  10.765   5.267  1.6212 -2.7395  3.5465
  216MOL0     H29145   0.595  10.833   5.426  0.0867 -1.0375 -0.2035
  216MOL0     H29146   0.818  11.124   5.591 -3.9287  2.6753  0.1343
  216MOL0     H29147   1.039  11.144   5.687 -0.6769 -2.1065 -0.2677
  216MOL0     H29148   1.251  11.324   5.927 -0.4771  0.1921  1.7891
  216MOL0     H29149   1.141  11.304   5.784  0.4857 -0.9680 -0.1318
  216MOL0     H29150   1.208  11.040   5.825  0.7342 -0.9168  0.2387
  216MOL0     H29151   1.330  11.095   5.923 -1.9755 -3.6510 -0.5931
  216MOL0     H29152   1.402  11.270   5.744  0.9613 -1.6262 -0.4909
  216MOL0     H29153   1.279  11.203   5.637  1.2750  0.3923 -0.8613
  216MOL0     H29154   1.402  10.973   5.696  0.2009  0.2878 -0.8608
  216MOL0     H29155   1.496  11.078   5.596 -2.4499 -0.0139 -1.6283
  216MOL0     H29156   1.749  11.070   5.929  0.0059 -1.2042 -0.8131
  216MOL0     H29157   0.866  11.197   6.078  0.3804 -1.0380  0.7620
  216MOL0     H29158   0.654  11.169   6.123 -0.3708  0.7345  0.5548
  216MOL0     H29159   0.578  11.260   5.989  3.0572  0.2368 -1.8996
  216MOL0     H29160   0.550  11.080   6.010  2.6793 -2.1642  0.7308
  217MOL0     O29161   1.664   3.581   4.032  0.1018 -0.2763  0.6072
  217MOL0     C29162   1.614   3.531   4.130 -0.2011  0.0407  1.0300
  217MOL0     O29163   1.682   3.520   4.243  0.0983  0.3460 -0.6542
  217MOL0     C29164   1.818   3.545   4.239 -0.4135  0.0604  0.6050
  217MOL0     C29165   1.873   3.666   4.183  0.0607  0.7374 -0.3880
  217MOL0     C29166   2.007   3.684   4.183 -1.0573  0.6182  0.0963
  217MOL0     C29167   2.095   3.594   4.247 -0.3098  0.1848  0.2857
  217MOL0     O29168   2.235   3.620   4.239  0.7203  0.4862  0.5858
  217MOL0     C29169   2.318   3.532   4.322  0.8331 -0.0635 -0.6163
  217MOL0     C29170   2.454   3.600   4.324 -0.3152  0.5447 -0.4996
  217MOL0     C29171   2.558   3.508   4.375 -0.1127 -0.3346  0.7959
  217MOL0     C29172   2.682   3.590   4.394  0.2522  0.2063 -1.0902
  217MOL0     C29173   2.807   3.524   4.461 -0.2318 -1.1843 -0.3544
  217MOL0     C29174   2.921   3.617   4.465 -0.3019 -0.7204  0.1374
  217MOL0     C29175   3.040   3.549   4.537 -0.3871 -0.4768 -0.6842
  217MOL0     C29176   3.128   3.457   4.448  0.0719 -0.6690 -1.1842
  217MOL0     N29177   3.219   3.539   4.360  0.2487  0.8393  1.0716
  217MOL0     C29178   3.328   3.616   4.387  0.5946  0.1575  0.3330
  217MOL0     C29179   3.377   3.672   4.270  0.1450  1.0348 -0.2795
  217MOL0     C29180   3.501   3.748   4.234  0.4191 -1.0868  0.0215
  217MOL0     C29181   3.464   3.890   4.196  0.5530 -0.0405 -0.7864
  217MOL0     C29182   3.589   3.977   4.191  0.8789  0.1291 -1.2136
  217MOL0     C29183   3.553   4.125   4.206  0.1091  0.5508  0.2814
  217MOL0     O29184   3.669   4.201   4.239 -0.1763 -1.3570  0.3359
  217MOL0     C29185   3.697   4.236   4.363 -0.1965 -0.0348 -0.7668
  217MOL0     C29186   3.635   4.180   4.478 -0.0475 -0.0059 -0.8770
  217MOL0     C29187   3.668   4.211   4.605  0.9392  0.0211 -1.2514
  217MOL0     C29188   3.776   4.303   4.627  0.2549  0.0485  0.3394
  217MOL0     C29189   3.806   4.341   4.769 -0.2142 -0.4323 -0.6424
  217MOL0     O29190   3.746   4.267   4.866 -0.0130 -0.6758 -0.0275
  217MOL0     C29191   3.824   4.265   4.985 -0.4752 -0.6741 -0.1347
  217MOL0     C29192   3.765   4.303   5.107  0.8092 -0.4111  0.1803
  217MOL0     C29193   3.831   4.301   5.232 -0.6674 -0.7166  0.2187
  217MOL0     C29194   3.964   4.275   5.235 -0.1391  0.3660 -0.0211
  217MOL0     O29195   4.035   4.263   5.353  0.0357 -0.1957  0.5168
  217MOL0     C29196   3.958   4.270   5.470 -0.0311  0.4397  0.4138
  217MOL0     C29197   4.046   4.248   5.594 -0.5156  0.3908  0.1311
  217MOL0     C29198   4.151   4.366   5.601 -0.0810  0.7347 -0.3114
  217MOL0     C29199   4.199   4.388   5.739 -0.2279 -0.6993  0.6764
  217MOL0     C29200   4.314   4.491   5.749 -0.2361 -0.1846 -0.1675
  217MOL0     C29201   4.347   4.506   5.893  0.7087  0.8978  0.5993
  217MOL0     C29202   4.467   4.598   5.921  0.1199  0.1939 -0.7749
  217MOL0     C29203   4.559   4.543   6.040  0.1035 -0.1867  0.1475
  217MOL0    Cl29204   4.458   4.535   6.188  0.4972  0.2425  0.6824
  217MOL0     C29205   4.027   4.241   5.113 -1.1487  0.4067  0.0024
  217MOL0     C29206   3.957   4.235   4.988  0.5070  0.6926 -0.4625
  217MOL0     O29207   3.887   4.431   4.789  0.1204  0.3188 -0.2432
  217MOL0     C29208   3.836   4.372   4.520 -0.0742  0.2044  0.1699
  217MOL0     C29209   3.807   4.320   4.387 -0.7006 -0.2559  0.3230
  217MOL0     N29210   3.282   3.633   4.176 -0.0981 -0.6642 -1.3684
  217MOL0     N29211   3.193   3.558   4.226  0.8205 -0.3277 -0.8805
  217MOL0     C29212   2.038   3.480   4.314 -0.3207  0.6188 -0.4097
  217MOL0     C29213   1.901   3.453   4.306  0.4028  0.1629 -0.0129
  217MOL0     C29214   1.468   3.486   4.136  0.2546  0.5714 -0.5383
  217MOL0     C29215   1.422   3.389   4.243 -0.0678 -0.7044 -0.2998
  217MOL0     C29216   1.283   3.361   4.250  0.4666  0.9147  0.4205
  217MOL0     C29217   1.196   3.399   4.147 -0.1235  0.6852  0.3591
  217MOL0     O29218   1.058   3.366   4.162  0.0122  1.0766  0.1990
  217MOL0     C29219   0.954   3.445   4.113  0.2453 -0.2592  0.3174
  217MOL0     C29220   0.912   3.563   4.191  0.4514  0.0144  0.4406
  217MOL0     C29221   1.028   3.658   4.221  0.6063 -0.9603  0.0134
  217MOL0     C29222   1.000   3.776   4.321 -0.1716  0.2828  0.5427
  217MOL0     C29223   0.909   3.871   4.255  0.2020 -0.2113  0.2621
  217MOL0     C29224   0.833   3.942   4.189 -1.0026 -0.5806 -0.5284
  217MOL0     C29225   1.247   3.476   4.041  0.7221 -1.1810 -0.3794
  217MOL0     C29226   1.380   3.522   4.036 -0.2983 -0.1586 -0.4333
  217MOL0     C29227   1.422   3.618   3.923 -0.2948 -0.2297  0.8536
  217MOL0     H29228   1.806   3.739   4.139  0.7893  1.5004 -0.2582
  217MOL0     H29229   2.053   3.771   4.137 -2.3148  0.0830 -2.3345
  217MOL0     H29230   2.284   3.528   4.426 -0.9282  1.3854 -1.0796
  217MOL0     H29231   2.332   3.432   4.280  2.0265 -2.5552  4.8502
  217MOL0     H29232   2.448   3.690   4.385  0.1997 -0.2359  0.7405
  217MOL0     H29233   2.476   3.628   4.220 -1.7006 -4.7180 -2.5392
  217MOL0     H29234   2.566   3.433   4.295 -0.4268  0.9751 -0.5078
  217MOL0     H29235   2.536   3.471   4.475 -2.3103 -0.0979  0.4598
  217MOL0     H29236   2.723   3.635   4.304 -0.6969  1.4775 -0.9160
  217MOL0     H29237   2.658   3.667   4.469  0.1572 -2.7828  2.2059
  217MOL0     H29238   2.777   3.487   4.560 -0.1623 -0.4268 -0.0425
  217MOL0     H29239   2.842   3.438   4.402  0.0072 -0.1397 -1.7772
  217MOL0     H29240   2.959   3.647   4.367  1.6058 -1.3422  0.6326
  217MOL0     H29241   2.904   3.712   4.516  0.9065  0.8440 -2.1789
  217MOL0     H29242   3.005   3.492   4.624 -0.2523 -0.1624 -0.4210
  217MOL0     H29243   3.095   3.628   4.589  1.3086 -3.0765  1.7984
  217MOL0     H29244   3.188   3.410   4.527  1.6458  2.8975 -0.0586
  217MOL0     H29245   3.072   3.375   4.402  2.9140 -2.9578 -0.8681
  217MOL0     H29246   3.381   3.635   4.480  0.4119  0.2161  0.4237
  217MOL0     H29247   3.557   3.745   4.328 -1.2490 -0.1769  1.0987
  217MOL0     H29248   3.555   3.702   4.151  0.6893  0.1484 -0.5160
  217MOL0     H29249   3.396   3.894   4.111 -2.9288  2.3257  1.8166
  217MOL0     H29250   3.410   3.927   4.284  3.3432  1.1860  0.5462
  217MOL0     H29251   3.631   3.974   4.090  0.4740 -0.9847 -1.3596
  217MOL0     H29252   3.660   3.941   4.266  1.7446  0.7935 -1.6894
  217MOL0     H29253   3.481   4.135   4.288 -0.1708  0.4281  0.0506
  217MOL0     H29254   3.507   4.172   4.119 -4.1164 -4.2736 -0.5879
  217MOL0     H29255   3.553   4.110   4.470 -0.7193  0.5414  0.7962
  217MOL0     H29256   3.616   4.156   4.683  0.5970  0.0172 -1.4814
  217MOL0     H29257   3.662   4.338   5.113  1.7491  2.3940  2.2118
  217MOL0     H29258   3.765   4.336   5.311  0.5925  0.9141  0.6060
  217MOL0     H29259   3.915   4.370   5.478  1.4786  1.5568 -3.2723
  217MOL0     H29260   3.881   4.192   5.464  0.8994 -0.5274  0.6392
  217MOL0     H29261   3.977   4.246   5.679 -1.6053  0.5589 -0.7299
  217MOL0     H29262   4.095   4.150   5.590  1.4101  1.2958  0.7289
  217MOL0     H29263   4.239   4.351   5.538  2.1093  2.9372  1.9774
  217MOL0     H29264   4.109   4.462   5.569  0.5769  0.8307 -0.9170
  217MOL0     H29265   4.225   4.291   5.784  0.8516 -1.0688 -0.6975
  217MOL0     H29266   4.112   4.417   5.800  1.3937  2.0927  1.8260
  217MOL0     H29267   4.277   4.588   5.712  1.1413  0.1552 -0.7064
  217MOL0     H29268   4.403   4.464   5.691 -0.1720 -0.4185  0.0394
  217MOL0     H29269   4.261   4.542   5.950  1.3621 -0.3563  2.4639
  217MOL0     H29270   4.375   4.409   5.936  0.5963  1.5245  2.1465
  217MOL0     H29271   4.430   4.698   5.943  0.4179  0.1063  0.1815
  217MOL0     H29272   4.534   4.612   5.836 -1.0746  1.7001 -1.5033
  217MOL0     H29273   4.607   4.447   6.016  1.4518  0.4025  0.4215
  217MOL0     H29274   4.637   4.615   6.065  0.2246  0.1157 -1.0586
  217MOL0     H29275   4.136   4.236   5.111 -1.0733  1.8715 -0.2574
  217MOL0     H29276   3.998   4.207   4.892  0.6995  1.4323 -0.6023
  217MOL0     H29277   3.908   4.451   4.540 -1.8413  1.7752  0.5305
  217MOL0     H29278   3.851   4.355   4.294 -0.3351 -0.0607  0.5661
  217MOL0     H29279   2.094   3.413   4.378  1.2018  2.6803  0.5511
  217MOL0     H29280   1.850   3.376   4.362  2.4284 -3.0880 -2.2675
  217MOL0     H29281   1.501   3.349   4.306  1.6459  3.1194  0.2750
  217MOL0     H29282   1.242   3.315   4.339 -2.0629  3.2266  0.5525
  217MOL0     H29283   0.864   3.386   4.097  0.6875 -0.2971 -2.3369
  217MOL0     H29284   0.980   3.486   4.015 -2.3504  1.3266  0.2000
  217MOL0     H29285   0.861   3.533   4.283  0.6338  0.4748  0.6961
  217MOL0     H29286   0.835   3.617   4.136  0.1645  0.5109  1.3037
  217MOL0     H29287   1.060   3.695   4.123 -2.1802 -2.2162 -1.4752
  217MOL0     H29288   1.115   3.609   4.264  2.3898  1.5213 -0.5377
  217MOL0     H29289   0.958   3.728   4.410 -2.2338 -1.2750 -1.1755
  217MOL0     H29290   1.093   3.825   4.353  0.9296 -1.9025  0.9082
  217MOL0     H29291   0.784   4.015   4.127  2.1237  0.0223 -2.5293
  217MOL0     H29292   1.176   3.524   3.974  1.9322  1.2220 -0.0476
  217MOL0     H29293   1.478   3.569   3.842 -1.6622  1.9149 -1.5195
  217MOL0     H29294   1.332   3.661   3.879 -0.8586 -0.7877  1.4402
  217MOL0     H29295   1.475   3.703   3.966  0.6569 -0.6213  0.4830
  218MOL0     O29296   4.622   1.867   4.736 -0.7075  0.0425 -0.1716
  218MOL0     C29297   4.516   1.817   4.745 -0.0151  0.2749  0.1684
  218MOL0     O29298   4.446   1.819   4.859  0.4172  0.2124  0.3717
  218MOL0     C29299   4.489   1.868   4.973 -0.3736  0.4842 -0.2781
  218MOL0     C29300   4.408   1.952   5.043  0.2619 -0.1037 -0.1690
  218MOL0     C29301   4.440   2.012   5.162 -0.5565 -0.2214  0.0120
  218MOL0     C29302   4.556   1.969   5.217  0.5510  0.1606 -0.0960
  218MOL0     O29303   4.580   2.009   5.348  0.2643  0.7948  0.4359
  218MOL0     C29304   4.712   2.037   5.387 -2.0413  0.3286  0.2552
  218MOL0     C29305   4.701   2.174   5.452  0.1005  0.1857 -0.4427
  218MOL0     C29306   4.830   2.235   5.485 -0.3458 -0.5695  0.1112
  218MOL0     C29307   4.815   2.384   5.503 -0.2516 -0.0632 -0.3790
  218MOL0     C29308   4.948   2.456   5.555 -0.7616  0.5711 -0.4486
  218MOL0     C29309   4.925   2.604   5.571  0.8907  0.0467 -0.4447
  218MOL0     C29310   5.041   2.684   5.650  0.3357  0.4042  0.6405
  218MOL0     C29311   5.009   2.736   5.789 -0.5056 -0.1603  0.6634
  218MOL0     N29312   5.002   2.628   5.892  0.1847 -0.8092 -0.3116
  218MOL0     C29313   5.116   2.576   5.957  0.5072  0.5559 -0.1766
  218MOL0     C29314   5.069   2.527   6.074  0.1743  0.9360 -0.6243
  218MOL0     C29315   5.152   2.475   6.196 -0.2523  0.1986  0.1693
  218MOL0     C29316   5.243   2.581   6.257 -0.1462 -0.3597  0.0669
  218MOL0     C29317   5.162   2.706   6.304 -0.3939 -0.1815  0.0472
  218MOL0     C29318   5.241   2.803   6.386  0.0422 -0.6244 -0.3592
  218MOL0     O29319   5.367   2.829   6.326 -0.2288  0.4446 -0.1689
  218MOL0     C29320   5.484   2.816   6.403  0.8690  0.1303  0.5952
  218MOL0     C29321   5.510   2.706   6.489  0.2942  0.3055 -1.0216
  218MOL0     C29322   5.634   2.703   6.546 -0.0861 -0.6042  0.1772
  218MOL0     C29323   5.737   2.792   6.515 -0.6736  0.3325  0.5774
  218MOL0     C29324   5.870   2.783   6.573 -0.6744  0.0516  0.2484
  218MOL0     O29325   5.943   2.898   6.566 -0.6759 -0.2139  1.0165
  218MOL0     C29326   6.064   2.897   6.637  0.2372 -0.2326  0.3147
  218MOL0     C29327   6.078   2.852   6.770  0.0787  0.2421  0.5851
  218MOL0     C29328   6.204   2.861   6.836  0.5072  0.5010  0.3743
  218MOL0     C29329   6.322   2.913   6.782 -0.3737 -0.4897 -0.2965
  218MOL0     O29330   6.442   2.914   6.849  0.0508  1.1919  0.5422
  218MOL0     C29331   6.557   2.949   6.779 -0.3078  0.4767 -0.1519
  218MOL0     C29332   6.681   2.939   6.866 -0.3954 -0.1563 -0.3104
  218MOL0     C29333   6.684   3.040   6.984 -0.6535 -0.3490 -0.3233
  218MOL0     C29334   6.826   3.044   7.038  0.9106 -1.7730 -0.9535
  218MOL0     C29335   6.808   3.106   7.185 -0.7655  0.4185 -0.8743
  218MOL0     C29336   6.786   3.263   7.179  0.5784 -0.0181  0.0058
  218MOL0     C29337   6.773   3.307   7.322 -0.5640 -0.8307  0.5075
  218MOL0     C29338   6.769   3.462   7.329  0.4313  0.1954 -0.2062
  218MOL0    Cl29339   6.929   3.545   7.337 -0.1692 -0.5671 -0.1702
  218MOL0     C29340   6.305   2.956   6.648 -0.2428 -0.0962  0.3363
  218MOL0     C29341   6.175   2.949   6.579  0.0026 -0.5754 -0.1087
  218MOL0     O29342   5.910   2.679   6.626  0.8111  0.7429  0.0528
  218MOL0     C29343   5.710   2.891   6.421 -0.1502 -0.1134  0.0085
  218MOL0     C29344   5.578   2.912   6.371 -0.6358 -0.2357  0.0591
  218MOL0     N29345   4.931   2.561   6.080  0.6019  0.6747 -0.0829
  218MOL0     N29346   4.894   2.626   5.982  0.1285  0.9640  0.8459
  218MOL0     C29347   4.652   1.888   5.146  1.3586  0.0329 -0.1977
  218MOL0     C29348   4.620   1.843   5.022  0.2833 -0.3596  0.3207
  218MOL0     C29349   4.472   1.726   4.632 -0.1855 -0.1549  0.3798
  218MOL0     C29350   4.344   1.674   4.646  0.4829 -0.2368  0.1728
  218MOL0     C29351   4.290   1.590   4.539  0.1519  0.5161 -1.5349
  218MOL0     C29352   4.367   1.552   4.429  0.2054  0.6231  0.5788
  218MOL0     O29353   4.330   1.466   4.330  0.1252  0.2200 -0.0987
  218MOL0     C29354   4.224   1.383   4.358  0.0635 -0.1389 -0.7009
  218MOL0     C29355   4.186   1.312   4.221  0.3942 -0.8194 -0.8774
  218MOL0     C29356   4.124   1.412   4.119  0.7946 -0.2222 -0.5182
  218MOL0     C29357   4.105   1.354   3.981 -0.5743 -0.8114  0.2107
  218MOL0     C29358   4.028   1.232   3.967 -0.2333  0.5908 -0.4216
  218MOL0     C29359   3.949   1.138   3.974  0.0423 -0.2128  0.4872
  218MOL0     C29360   4.497   1.606   4.414 -0.5576 -0.2694  1.0836
  218MOL0     C29361   4.547   1.697   4.513 -0.9795  0.8905  0.0044
  218MOL0     C29362   4.682   1.752   4.487  0.3606  0.2378  0.4223
  218MOL0     H29363   4.309   1.955   5.000  0.8649  0.6821 -1.5517
  218MOL0     H29364   4.367   2.065   5.223  1.7146  0.9845  1.8481
  218MOL0     H29365   4.741   1.953   5.451 -2.3445 -0.3820 -0.5194
  218MOL0     H29366   4.777   2.041   5.300  1.0558  0.0862  2.4029
  218MOL0     H29367   4.633   2.155   5.535  0.0142  0.4148 -0.4615
  218MOL0     H29368   4.645   2.241   5.387 -1.3226  1.3570  1.8599
  218MOL0     H29369   4.907   2.200   5.416 -1.8102 -1.6991 -1.0201
  218MOL0     H29370   4.857   2.195   5.584 -1.1973  0.6441  0.8620
  218MOL0     H29371   4.788   2.430   5.407 -1.2692  1.7795  0.7299
  218MOL0     H29372   4.727   2.404   5.565 -0.8692  0.7515 -1.4657
  218MOL0     H29373   4.976   2.417   5.653  0.3777 -0.7443 -1.2725
  218MOL0     H29374   5.028   2.431   5.485  1.1584 -3.0549  2.6893
  218MOL0     H29375   4.914   2.651   5.473  3.1803  0.4691 -0.5487
  218MOL0     H29376   4.839   2.617   5.638  2.8744  0.5365  2.2016
  218MOL0     H29377   5.068   2.767   5.584 -0.9014 -1.4249 -2.3317
  218MOL0     H29378   5.132   2.625   5.666  1.4853  1.5878 -1.1816
  218MOL0     H29379   5.087   2.809   5.812 -1.1927  0.8650 -0.1405
  218MOL0     H29380   4.919   2.798   5.793  1.0515  2.4071 -0.6206
  218MOL0     H29381   5.218   2.581   5.921  0.3427  0.1197 -0.7128
  218MOL0     H29382   5.077   2.438   6.267  0.6021 -1.2227  0.3739
  218MOL0     H29383   5.214   2.391   6.163 -0.7335  0.2063 -0.7848
  218MOL0     H29384   5.295   2.537   6.343 -2.7871 -0.3475  1.8160
  218MOL0     H29385   5.321   2.604   6.185 -0.1604 -1.9894 -0.5156
  218MOL0     H29386   5.067   2.685   6.355 -1.4181 -0.2584 -1.7905
  218MOL0     H29387   5.141   2.760   6.211  2.8608  0.3522 -0.4787
  218MOL0     H29388   5.238   2.770   6.490  2.3702  1.5105  0.4773
  218MOL0     H29389   5.186   2.897   6.394 -1.9038 -1.7493  0.2883
  218MOL0     H29390   5.425   2.647   6.523 -1.4288  1.4698 -3.1039
  218MOL0     H29391   5.651   2.626   6.621 -0.6730 -0.9302 -0.0171
  218MOL0     H29392   5.996   2.798   6.816 -2.0246  3.2020  0.5944
  218MOL0     H29393   6.205   2.806   6.929  2.9848  0.1352  0.2032
  218MOL0     H29394   6.572   2.892   6.687 -1.8916  1.7435 -1.2776
  218MOL0     H29395   6.547   3.052   6.743  0.2889  1.3400  1.9982
  218MOL0     H29396   6.694   2.836   6.900 -1.7446 -0.0302  0.6994
  218MOL0     H29397   6.764   2.962   6.799 -0.4565 -1.5675 -0.9181
  218MOL0     H29398   6.649   3.139   6.956 -0.7175  0.1341  1.3776
  218MOL0     H29399   6.618   3.000   7.062 -1.0782  0.7105 -0.1213
  218MOL0     H29400   6.895   3.109   6.984  1.4300 -1.6033 -0.1145
  218MOL0     H29401   6.871   2.945   7.042  1.6768 -1.4507 -1.4038
  218MOL0     H29402   6.896   3.088   7.248 -0.1356  1.1055 -1.5390
  218MOL0     H29403   6.729   3.046   7.230  0.6620 -0.2288  0.9069
  218MOL0     H29404   6.871   3.311   7.129 -0.9504  0.9533 -1.7702
  218MOL0     H29405   6.687   3.284   7.137  0.1902  0.2225  1.0216
  218MOL0     H29406   6.854   3.268   7.384 -0.7553  0.7942  1.8418
  218MOL0     H29407   6.679   3.266   7.359 -1.6661  1.4147  0.3626
  218MOL0     H29408   6.701   3.502   7.253 -0.8260 -1.6413 -0.1095
  218MOL0     H29409   6.718   3.500   7.418  0.9588  2.0181 -0.6322
  218MOL0     H29410   6.379   3.003   6.585 -0.7662 -0.9863 -0.9960
  218MOL0     H29411   6.174   2.986   6.477 -0.9677  0.1336  0.1349
  218MOL0     H29412   5.792   2.943   6.373 -0.8871 -1.2799 -2.7101
  218MOL0     H29413   5.553   2.980   6.290 -0.1949  0.4727  0.5089
  218MOL0     H29414   4.744   1.855   5.195  1.2103  1.6802  1.3146
  218MOL0     H29415   4.695   1.791   4.962  1.1496  0.2686  0.8343
  218MOL0     H29416   4.284   1.689   4.735 -1.4981  1.9978 -1.4031
  218MOL0     H29417   4.190   1.555   4.563  0.9737 -0.2718  1.0036
  218MOL0     H29418   4.138   1.438   4.396  1.5890  2.5518 -0.8836
  218MOL0     H29419   4.261   1.310   4.430  0.2468 -0.4510 -1.1084
  218MOL0     H29420   4.113   1.233   4.240 -0.2027 -0.9439 -3.3158
  218MOL0     H29421   4.270   1.275   4.162  1.9242  0.9637  0.0810
  218MOL0     H29422   4.180   1.505   4.109  1.4655 -0.2898  2.0443
  218MOL0     H29423   4.025   1.432   4.160  0.2630 -0.4232 -1.6407
  218MOL0     H29424   4.068   1.431   3.913 -2.2358 -2.4603 -0.8324
  218MOL0     H29425   4.199   1.318   3.936 -2.6932 -1.6958 -4.0779
  218MOL0     H29426   3.885   1.052   3.973  0.3420 -0.4481  0.8803
  218MOL0     H29427   4.547   1.594   4.319  0.3114 -1.8999  1.6994
  218MOL0     H29428   4.745   1.729   4.574  1.8489  0.3488 -0.5820
  218MOL0     H29429   4.721   1.708   4.395 -0.4855  1.6922 -0.6556
  218MOL0     H29430   4.669   1.858   4.462 -3.3102 -0.2294 -0.1446
  219MOL0     O29431   9.711   9.250   6.994 -0.4442  0.6716 -0.0685
  219MOL0     C29432   9.774   9.169   7.059 -0.0257  0.3841  0.1343
  219MOL0     O29433   9.879   9.093   7.010 -0.2104 -0.3394  0.1013
  219MOL0     C29434   9.912   9.114   6.881 -0.8610  0.6100  0.6314
  219MOL0     C29435   9.957   9.231   6.827 -0.1530  0.1476 -0.7460
  219MOL0     C29436   9.984   9.247   6.695  1.1420 -0.2159  0.2666
  219MOL0     C29437   9.974   9.138   6.601 -0.4337 -0.3931 -0.9051
  219MOL0     O29438  10.004   9.138   6.467  0.2854 -0.1542  0.0901
  219MOL0     C29439  10.039   9.256   6.414  0.2579 -0.4551 -0.1997
  219MOL0     C29440  10.043   9.260   6.264  0.7070  0.0262 -0.0746
  219MOL0     C29441  10.051   9.402   6.209 -0.1669  0.5415  0.0879
  219MOL0     C29442  10.188   9.437   6.163  0.0568 -0.1029 -0.1938
  219MOL0     C29443  10.276   9.487   6.271 -0.2657  0.0200 -0.9287
  219MOL0     C29444  10.413   9.524   6.228 -0.0887  0.7784  0.5825
  219MOL0     C29445  10.499   9.553   6.342  0.5353 -0.1877 -0.9855
  219MOL0     C29446  10.635   9.585   6.312 -0.2150  0.5046  0.4683
  219MOL0     N29447  10.732   9.624   6.428 -0.3395 -0.7613 -0.4302
  219MOL0     C29448  10.836   9.713   6.412  0.5540  0.2584  0.0450
  219MOL0     C29449  10.925   9.683   6.509  0.0693  1.0671 -0.3660
  219MOL0     C29450  11.053   9.763   6.538  0.3317  0.0483 -0.5704
  219MOL0     C29451  11.138   9.801   6.413 -0.5329 -0.1501  0.4535
  219MOL0     C29452  11.194   9.675   6.335  0.5579 -0.1368  0.3785
  219MOL0     C29453  11.273   9.574   6.420 -1.2007 -0.0946 -0.2615
  219MOL0     O29454  11.392   9.638   6.476  0.0686 -0.1288 -0.5160
  219MOL0     C29455  11.460   9.584   6.575  0.5302 -0.2691  0.9218
  219MOL0     C29456  11.599   9.592   6.562  0.4939 -0.2982 -0.1372
  219MOL0     C29457  11.673   9.547   6.667  0.2291 -0.0196 -0.3343
  219MOL0     C29458  11.615   9.496   6.787  0.3755 -0.4586 -0.6856
  219MOL0     C29459  11.705   9.417   6.885  1.4386 -0.8302 -0.1234
  219MOL0     O29460  11.841   9.438   6.864  0.6887 -0.3854  0.2662
  219MOL0     C29461  11.940   9.402   6.956  0.4670 -0.5548  0.6710
  219MOL0     C29462  12.069   9.458   6.931  0.2982 -0.7539 -1.1560
  219MOL0     C29463  12.187   9.406   6.990 -0.5669  0.0112  0.7286
  219MOL0     C29464  12.180   9.308   7.088 -0.3489 -0.4171 -0.0834
  219MOL0     O29465  12.288   9.241   7.138  0.2947 -0.7176  0.4519
  219MOL0     C29466  12.420   9.257   7.100  0.3033 -0.6017  0.0406
  219MOL0     C29467  12.512   9.363   7.158 -0.1839 -0.0324  0.1917
  219MOL0     C29468  12.514   9.369   7.309  0.2488 -1.2758  0.2854
  219MOL0     C29469  12.593   9.493   7.360  0.6241 -0.8467  0.5492
  219MOL0     C29470  12.742   9.500   7.333  0.0605 -0.7150 -0.1684
  219MOL0     C29471  12.826   9.393   7.401  0.7372  0.0981  1.0489
  219MOL0     C29472  12.831   9.419   7.549  0.4477 -0.6171  0.3742
  219MOL0     C29473  12.979   9.426   7.610 -1.0668  0.2755  0.4332
  219MOL0    Cl29474  13.053   9.553   7.518  0.1284 -0.1196 -0.1475
  219MOL0     C29475  12.055   9.239   7.102  0.0482  0.4740 -0.3674
  219MOL0     C29476  11.943   9.290   7.044  0.0702  0.4240 -0.4831
  219MOL0     O29477  11.652   9.384   6.989  0.0681  0.4448  0.3402
  219MOL0     C29478  11.481   9.500   6.797  0.1548 -1.5603  0.8375
  219MOL0     C29479  11.404   9.549   6.696  0.0636  0.0193 -0.1769
  219MOL0     N29480  10.878   9.581   6.590  0.0573 -0.4799 -0.3931
  219MOL0     N29481  10.762   9.547   6.537  0.4589  0.6624 -0.1546
  219MOL0     C29482   9.945   9.016   6.659 -0.5536  0.1863  0.1291
  219MOL0     C29483   9.918   9.003   6.796 -0.1776 -0.4835 -0.6048
  219MOL0     C29484   9.729   9.132   7.195  0.7046  0.2280 -0.8144
  219MOL0     C29485   9.784   9.016   7.261  0.2971 -0.1280  0.2281
  219MOL0     C29486   9.736   8.965   7.385 -1.2182  0.3696  0.2284
  219MOL0     C29487   9.632   9.038   7.449  0.0997  0.4652 -0.3064
  219MOL0     O29488   9.574   8.995   7.566  1.0227 -0.0444  0.3618
  219MOL0     C29489   9.613   8.867   7.619  0.2517  0.0495  0.4834
  219MOL0     C29490   9.528   8.830   7.740 -0.4357 -0.3477  0.0550
  219MOL0     C29491   9.573   8.893   7.872  0.0718  0.9255 -0.0133
  219MOL0     C29492   9.616   8.790   7.976  0.2250 -0.3641  1.0291
  219MOL0     C29493   9.656   8.847   8.100  0.5027 -0.1402 -0.4467
  219MOL0     C29494   9.679   8.906   8.206  0.8544  0.3024 -0.3552
  219MOL0     C29495   9.586   9.158   7.391  0.0323 -0.5467  0.3370
  219MOL0     C29496   9.629   9.201   7.267 -0.2366 -1.3437 -0.7268
  219MOL0     C29497   9.555   9.330   7.215 -0.1104 -0.0694 -0.4979
  219MOL0     H29498   9.948   9.317   6.893 -2.4371 -0.8606  0.3958
  219MOL0     H29499  10.007   9.347   6.659  0.0492 -0.3294 -0.8016
  219MOL0     H29500   9.958   9.327   6.433 -0.4482 -1.1975 -0.3853
  219MOL0     H29501  10.135   9.288   6.454  0.3177 -0.7998 -0.0669
  219MOL0     H29502   9.952   9.207   6.233  1.3747 -0.7199 -0.8252
  219MOL0     H29503  10.129   9.200   6.231  0.0069 -1.3065  0.4589
  219MOL0     H29504  10.019   9.481   6.278  1.6997  1.3563  0.0742
  219MOL0     H29505   9.979   9.401   6.126 -1.5019  1.2427  1.1872
  219MOL0     H29506  10.234   9.348   6.118  1.7189 -0.1071  1.4060
  219MOL0     H29507  10.177   9.517   6.089  3.3373  1.8343  1.2005
  219MOL0     H29508  10.230   9.572   6.323 -0.3373 -0.0575 -0.8651
  219MOL0     H29509  10.284   9.412   6.350  2.1799  1.8061  0.6627
  219MOL0     H29510  10.459   9.447   6.165  0.0096  1.8732 -0.7420
  219MOL0     H29511  10.400   9.611   6.163 -1.4188 -1.5287 -2.5221
  219MOL0     H29512  10.492   9.471   6.414 -1.9200  0.4220 -0.4109
  219MOL0     H29513  10.454   9.639   6.394  2.3001  0.3800 -0.3021
  219MOL0     H29514  10.671   9.494   6.263 -1.6208 -0.3679  0.9683
  219MOL0     H29515  10.641   9.666   6.240 -1.3932 -0.0795 -0.3184
  219MOL0     H29516  10.854   9.780   6.329  2.6495 -1.5348 -1.0419
  219MOL0     H29517  11.016   9.853   6.588  0.6942  0.4701 -1.0496
  219MOL0     H29518  11.113   9.709   6.611  3.9978 -1.1759 -4.1082
  219MOL0     H29519  11.078   9.868   6.351  1.9679  0.1560 -1.7929
  219MOL0     H29520  11.228   9.856   6.443  0.7872 -1.8695 -0.1971
  219MOL0     H29521  11.260   9.712   6.256  0.5836  0.1502  0.5338
  219MOL0     H29522  11.099   9.633   6.299 -0.4850  0.5943  2.1641
  219MOL0     H29523  11.314   9.498   6.352  0.7793  1.2008 -0.5786
  219MOL0     H29524  11.227   9.519   6.502  0.1661  1.9213  1.9732
  219MOL0     H29525  11.646   9.642   6.477  1.5665 -0.1904  0.5093
  219MOL0     H29526  11.780   9.552   6.656  0.3837 -0.9088  0.5824
  219MOL0     H29527  12.074   9.543   6.862 -0.3392  1.7993  1.7337
  219MOL0     H29528  12.274   9.452   6.944 -2.6744  0.6189 -3.0597
  219MOL0     H29529  12.459   9.162   7.137 -1.9651 -1.8780 -0.6673
  219MOL0     H29530  12.424   9.259   6.991 -0.8614 -1.1659 -0.0350
  219MOL0     H29531  12.613   9.355   7.116 -0.2646 -0.3651  0.0570
  219MOL0     H29532  12.469   9.457   7.122 -3.1215 -0.9250  1.1349
  219MOL0     H29533  12.409   9.384   7.334 -0.4169  0.9993 -3.1491
  219MOL0     H29534  12.564   9.277   7.339 -0.3260 -1.0756  1.9704
  219MOL0     H29535  12.574   9.521   7.465  1.4911  1.2592  0.2038
  219MOL0     H29536  12.535   9.578   7.322 -0.9944 -2.5927 -1.1427
  219MOL0     H29537  12.774   9.598   7.369 -2.5219 -0.1649  0.8551
  219MOL0     H29538  12.767   9.490   7.227  1.9504 -0.5975  0.2301
  219MOL0     H29539  12.791   9.290   7.384 -0.9016  0.2415  3.0948
  219MOL0     H29540  12.921   9.403   7.348 -0.7601  0.6065 -1.7425
  219MOL0     H29541  12.776   9.339   7.600 -0.0523  0.4327  1.5323
  219MOL0     H29542  12.780   9.512   7.576  1.3539  0.1333 -0.4087
  219MOL0     H29543  12.964   9.452   7.715 -1.8487 -2.5968  1.1167
  219MOL0     H29544  13.024   9.328   7.596  0.2494  0.8814  0.2866
  219MOL0     H29545  12.047   9.147   7.160  0.9577  1.0812  0.7858
  219MOL0     H29546  11.852   9.233   7.057 -0.5955  0.9015 -2.6759
  219MOL0     H29547  11.423   9.472   6.885  1.5335  0.3376  2.4416
  219MOL0     H29548  11.299   9.559   6.719 -0.0610 -0.0869 -0.6913
  219MOL0     H29549   9.944   8.932   6.590 -1.9074  0.5588 -0.3462
  219MOL0     H29550   9.908   8.904   6.838 -1.2784 -0.6042 -1.1215
  219MOL0     H29551   9.867   8.965   7.212  0.0325 -1.6475  1.3216
  219MOL0     H29552   9.783   8.878   7.428 -1.8272  0.0716  0.3029
  219MOL0     H29553   9.719   8.860   7.644 -0.2642 -1.0545  2.5438
  219MOL0     H29554   9.605   8.792   7.540  0.3628 -0.0249  0.5439
  219MOL0     H29555   9.535   8.721   7.750 -0.8235 -0.2710  1.4473
  219MOL0     H29556   9.424   8.860   7.731  0.0698  3.8365  4.1075
  219MOL0     H29557   9.484   8.949   7.899 -0.2408  1.0111 -1.1682
  219MOL0     H29558   9.655   8.965   7.863  1.0139 -0.0407  0.4646
  219MOL0     H29559   9.529   8.728   7.998 -2.2465  3.0614  1.7165
  219MOL0     H29560   9.695   8.726   7.936 -1.2026 -0.7347 -1.3661
  219MOL0     H29561   9.672   8.961   8.298  1.0515 -1.6884  0.9062
  219MOL0     H29562   9.516   9.218   7.448  2.7144  0.7302  2.5009
  219MOL0     H29563   9.622   9.413   7.189 -2.7657  2.0774 -0.9838
  219MOL0     H29564   9.496   9.303   7.127  0.4838  0.1666 -0.9774
  219MOL0     H29565   9.487   9.374   7.288  0.4063  1.9580 -1.1674
  220MOL0     O29566   0.027   3.452   5.159 -0.2418  0.2329 -0.8053
  220MOL0     C29567   0.050   3.483   5.044 -0.3746 -0.0044  0.6812
  220MOL0     O29568   0.163   3.452   4.974  0.2378  0.0244  1.2940
  220MOL0     C29569   0.270   3.404   5.041 -0.0894 -0.3357 -1.4611
  220MOL0     C29570   0.358   3.502   5.092  0.2744 -0.1905 -0.5357
  220MOL0     C29571   0.459   3.463   5.174 -0.2586  0.0141 -0.6969
  220MOL0     C29572   0.485   3.328   5.197  0.5019 -0.0018 -0.2795
  220MOL0     O29573   0.581   3.278   5.287  0.2929  0.2236  0.5187
  220MOL0     C29574   0.642   3.373   5.375  0.7467 -0.2815  0.2165
  220MOL0     C29575   0.706   3.297   5.489  0.0869  0.1496 -0.2044
  220MOL0     C29576   0.852   3.253   5.457  0.1237  0.6733 -0.2003
  220MOL0     C29577   0.944   3.239   5.582  0.4241  0.0449  0.2883
  220MOL0     C29578   1.071   3.174   5.544  0.0883 -0.4332  0.6255
  220MOL0     C29579   1.060   3.027   5.497 -0.1872 -0.2807  0.3300
  220MOL0     C29580   1.200   2.970   5.452 -0.5377 -0.3480 -0.1890
  220MOL0     C29581   1.190   2.822   5.406 -0.1693 -0.0136  0.1352
  220MOL0     N29582   1.324   2.763   5.404 -0.8817  0.4124 -0.0542
  220MOL0     C29583   1.413   2.788   5.297  0.7638 -0.2698  0.5670
  220MOL0     C29584   1.527   2.746   5.346 -0.2287  1.3255 -0.4952
  220MOL0     C29585   1.658   2.734   5.270  0.2504 -0.4634 -0.6560
  220MOL0     C29586   1.764   2.839   5.322  0.0204 -0.5243  0.7361
  220MOL0     C29587   1.896   2.815   5.258 -0.7191 -0.1198 -0.7187
  220MOL0     C29588   1.987   2.939   5.283 -0.1354  0.6295  0.3305
  220MOL0     O29589   2.113   2.939   5.214 -0.0647 -0.0117  0.4776
  220MOL0     C29590   2.221   2.864   5.258 -0.1794 -0.3297  0.4363
  220MOL0     C29591   2.327   2.843   5.172 -0.8642  1.1169 -0.1839
  220MOL0     C29592   2.441   2.769   5.213 -0.0332  0.1628  0.4707
  220MOL0     C29593   2.459   2.729   5.344 -0.6636 -0.0241 -0.0101
  220MOL0     C29594   2.592   2.679   5.387  0.4900  0.6348  0.2782
  220MOL0     O29595   2.703   2.705   5.307  0.0865  0.6872 -0.7337
  220MOL0     C29596   2.830   2.656   5.347 -0.3801 -0.1078 -0.1163
  220MOL0     C29597   2.937   2.719   5.283  0.7479  0.2683  0.6676
  220MOL0     C29598   3.069   2.679   5.297 -0.7828 -0.3900 -0.0613
  220MOL0     C29599   3.101   2.572   5.384  0.1900 -0.0966  1.1685
  220MOL0     O29600   3.237   2.550   5.397 -0.0150  0.2806 -0.2364
  220MOL0     C29601   3.273   2.436   5.472 -0.2042 -0.3120 -0.0004
  220MOL0     C29602   3.427   2.450   5.508  0.7959 -0.5443  0.2346
  220MOL0     C29603   3.506   2.439   5.381  0.2692 -0.1813  0.0633
  220MOL0     C29604   3.663   2.454   5.408  0.7638  0.9657 -0.5499
  220MOL0     C29605   3.749   2.388   5.300 -0.3514 -0.4015 -0.2334
  220MOL0     C29606   3.901   2.398   5.328 -0.6058 -0.5254  0.1388
  220MOL0     C29607   3.975   2.301   5.236  0.3713  0.4046 -0.1759
  220MOL0     C29608   4.119   2.318   5.251  0.1818 -0.1060 -0.2151
  220MOL0    Cl29609   4.162   2.298   5.421 -0.1496 -0.1946  0.3561
  220MOL0     C29610   2.993   2.498   5.447  0.3581 -0.3711  0.0058
  220MOL0     C29611   2.862   2.540   5.431  0.6485  0.6083  0.1502
  220MOL0     O29612   2.591   2.607   5.495  0.1322  0.1472 -0.0551
  220MOL0     C29613   2.351   2.735   5.428  0.6769 -0.3559  0.0905
  220MOL0     C29614   2.233   2.796   5.382 -0.0977 -0.7440  0.3475
  220MOL0     N29615   1.520   2.712   5.480 -0.2992  0.4195 -0.1121
  220MOL0     N29616   1.400   2.734   5.512 -0.1540  0.0613  0.8338
  220MOL0     C29617   0.403   3.227   5.146 -0.5173 -0.2231 -0.3659
  220MOL0     C29618   0.299   3.267   5.059 -0.1081 -0.1806  0.6584
  220MOL0     C29619  -0.049   3.582   4.978  0.2223  0.2423  0.3226
  220MOL0     C29620  -0.006   3.683   4.898 -0.2384  0.5799  0.4529
  220MOL0     C29621  -0.084   3.784   4.841 -0.1927  0.0893  0.0199
  220MOL0     C29622  -0.223   3.781   4.868  0.0604  0.6821 -0.2737
  220MOL0     O29623  -0.288   3.876   4.798  0.7452  0.2158 -0.5700
  220MOL0     C29624  -0.415   3.913   4.848 -0.0241  0.1554  0.3989
  220MOL0     C29625  -0.468   4.031   4.764 -0.7365 -0.8902 -0.2483
  220MOL0     C29626  -0.622   4.040   4.778  0.1830  0.5938  1.3596
  220MOL0     C29627  -0.703   3.939   4.686 -0.6525  0.1120 -0.3408
  220MOL0     C29628  -0.848   3.955   4.694  0.5700 -0.7661  0.5521
  220MOL0     C29629  -0.970   3.974   4.688 -0.7849 -0.3391 -0.1862
  220MOL0     C29630  -0.270   3.685   4.950  0.0395 -0.2386  0.4610
  220MOL0     C29631  -0.187   3.586   5.008 -0.0780  0.7818 -0.4439
  220MOL0     C29632  -0.254   3.476   5.093 -0.1599 -0.8175 -0.4873
  220MOL0     H29633   0.338   3.608   5.074 -4.1672 -1.1831 -2.9300
  220MOL0     H29634   0.520   3.543   5.215 -2.8030  2.9160 -2.1460
  220MOL0     H29635   0.708   3.429   5.308 -2.1007  0.9895 -1.7136
  220MOL0     H29636   0.568   3.442   5.416 -1.7285 -1.5654 -1.8092
  220MOL0     H29637   0.635   3.220   5.523 -1.7853  1.4427 -1.0003
  220MOL0     H29638   0.710   3.370   5.570 -0.2787 -1.5163  1.3850
  220MOL0     H29639   0.899   3.323   5.388 -0.5675  0.4914 -0.8634
  220MOL0     H29640   0.841   3.154   5.412  0.8919  0.5193 -0.0604
  220MOL0     H29641   0.973   3.333   5.630  2.6612  0.7300 -2.1887
  220MOL0     H29642   0.897   3.173   5.655  1.6082  2.6579  3.6876
  220MOL0     H29643   1.110   3.232   5.460  1.2388 -2.4882 -0.3475
  220MOL0     H29644   1.126   3.198   5.635 -0.3720  0.2189  0.7366
  220MOL0     H29645   1.022   2.960   5.575  1.6848 -1.2585  0.4629
  220MOL0     H29646   0.992   3.017   5.413 -1.2166  1.5919  0.8889
  220MOL0     H29647   1.268   2.967   5.538  0.6476 -3.5450 -1.0759
  220MOL0     H29648   1.238   3.038   5.376 -2.9076  0.7785 -0.4599
  220MOL0     H29649   1.137   2.760   5.479  0.3347 -4.0009 -2.5586
  220MOL0     H29650   1.139   2.811   5.309  0.8283  1.5418 -0.6077
  220MOL0     H29651   1.394   2.821   5.195 -2.0777  0.0404  1.1109
  220MOL0     H29652   1.696   2.634   5.293  0.5955 -0.0492  0.6623
  220MOL0     H29653   1.647   2.743   5.161 -0.0507 -1.4321 -0.7116
  220MOL0     H29654   1.717   2.936   5.299 -3.3117 -1.5321  2.6475
  220MOL0     H29655   1.783   2.843   5.429 -2.8359  0.0254  1.2957
  220MOL0     H29656   1.878   2.791   5.153 -1.6001  0.4248 -0.7081
  220MOL0     H29657   1.956   2.732   5.297  0.9274  1.4463  0.2348
  220MOL0     H29658   1.999   2.954   5.391 -5.2302 -0.8603  1.3392
  220MOL0     H29659   1.934   3.025   5.241 -1.8286 -1.0186 -1.0081
  220MOL0     H29660   2.312   2.863   5.066 -1.8161 -2.4592 -0.8643
  220MOL0     H29661   2.523   2.773   5.142  0.5753  1.3819  1.2078
  220MOL0     H29662   2.918   2.792   5.205  0.5970 -2.2582 -1.7902
  220MOL0     H29663   3.152   2.733   5.251 -1.1307  2.4842  2.3955
  220MOL0     H29664   3.216   2.440   5.566 -3.9673 -1.7555 -1.9892
  220MOL0     H29665   3.250   2.338   5.428  0.0505 -1.0288  1.3885
  220MOL0     H29666   3.450   2.552   5.541  0.1028  0.7281 -2.8299
  220MOL0     H29667   3.454   2.373   5.580 -0.4530 -1.7645 -0.5516
  220MOL0     H29668   3.495   2.341   5.333 -1.4129  0.3283 -0.6727
  220MOL0     H29669   3.468   2.507   5.305  3.0225 -1.2133 -2.4243
  220MOL0     H29670   3.697   2.416   5.504  1.3506 -1.1056 -1.5140
  220MOL0     H29671   3.674   2.563   5.407  0.1026  1.0439 -0.0386
  220MOL0     H29672   3.725   2.435   5.205  1.9201  1.7326  0.1206
  220MOL0     H29673   3.723   2.282   5.296  0.4172 -0.5494 -2.3140
  220MOL0     H29674   3.927   2.504   5.322 -0.4707 -0.5338  0.5326
  220MOL0     H29675   3.919   2.368   5.432  1.4019  1.0632  0.3160
  220MOL0     H29676   3.949   2.315   5.131 -1.2347  0.7735  0.2433
  220MOL0     H29677   3.959   2.198   5.270  1.6248 -0.1853 -1.2997
  220MOL0     H29678   4.166   2.242   5.189 -0.5434  0.3817 -1.3919
  220MOL0     H29679   4.148   2.417   5.214 -0.9154 -0.0003 -0.8180
  220MOL0     H29680   3.010   2.420   5.520 -0.1816 -1.4211 -0.9593
  220MOL0     H29681   2.781   2.484   5.477 -2.6939  3.0111 -2.2704
  220MOL0     H29682   2.354   2.695   5.529 -1.2410 -1.2118 -0.1456
  220MOL0     H29683   2.159   2.806   5.461  0.0744  4.0254  0.1782
  220MOL0     H29684   0.423   3.122   5.163 -2.5807 -0.8035 -1.1914
  220MOL0     H29685   0.245   3.190   5.006  1.4644 -1.0326  0.2261
  220MOL0     H29686   0.098   3.694   4.870  0.3039  0.2646  2.2401
  220MOL0     H29687  -0.042   3.852   4.767  1.7582 -1.2581 -0.1933
  220MOL0     H29688  -0.415   3.935   4.956 -2.0434 -2.6617  1.0873
  220MOL0     H29689  -0.476   3.823   4.832 -1.0206  0.2916  2.9335
  220MOL0     H29690  -0.434   4.022   4.661  1.4932 -1.5309  0.4825
  220MOL0     H29691  -0.419   4.123   4.796 -1.6706 -0.6388  0.4923
  220MOL0     H29692  -0.652   4.141   4.748 -0.8448  0.7578  2.8806
  220MOL0     H29693  -0.651   4.014   4.880 -0.6234 -2.3520  0.4711
  220MOL0     H29694  -0.654   3.938   4.588 -1.4417  2.7400 -0.8415
  220MOL0     H29695  -0.689   3.840   4.730  0.6007  0.4757  0.1046
  220MOL0     H29696  -1.076   3.983   4.699 -0.7070 -0.6469  1.0169
  220MOL0     H29697  -0.377   3.698   4.966  0.0899  0.2366  0.4320
  220MOL0     H29698  -0.258   3.382   5.038  0.0578 -0.4117 -1.2160
  220MOL0     H29699  -0.211   3.455   5.191 -0.6855  0.9718  0.1693
  220MOL0     H29700  -0.358   3.504   5.110  1.0392  1.6571  4.9411
  221MOL0     O29701   3.651   2.823   8.122 -0.0693 -1.2797 -0.0027
  221MOL0     C29702   3.664   2.724   8.190 -0.1314  0.0419  0.5756
  221MOL0     O29703   3.788   2.665   8.215  0.0075  0.7212  0.7922
  221MOL0     C29704   3.885   2.666   8.118 -1.1628 -0.5484  0.1033
  221MOL0     C29705   3.858   2.666   7.976 -0.1119  0.7126  0.6110
  221MOL0     C29706   3.968   2.658   7.884 -0.2762 -0.0270 -0.4397
  221MOL0     C29707   4.097   2.650   7.929 -0.7132 -0.1764  0.5758
  221MOL0     O29708   4.203   2.627   7.851  0.1232 -0.1439 -0.1706
  221MOL0     C29709   4.187   2.606   7.708 -0.3949 -0.0019 -0.0304
  221MOL0     C29710   4.323   2.599   7.639  1.4906  0.6924 -0.0607
  221MOL0     C29711   4.402   2.483   7.701  0.1211 -1.0627 -0.0586
  221MOL0     C29712   4.545   2.523   7.674  0.1802 -0.1280  1.1054
  221MOL0     C29713   4.638   2.417   7.718 -0.6263  0.4889  0.2129
  221MOL0     C29714   4.681   2.326   7.600 -0.4930  0.1735 -0.0730
  221MOL0     C29715   4.799   2.238   7.649 -0.3370  0.0509 -0.1280
  221MOL0     C29716   4.861   2.145   7.535 -0.2212 -0.4584 -0.5673
  221MOL0     N29717   4.985   2.080   7.578  0.0165  1.0398 -0.2539
  221MOL0     C29718   5.012   1.989   7.686  0.8707  0.3179  0.6425
  221MOL0     C29719   5.147   1.975   7.691  0.0919 -0.0970 -0.6061
  221MOL0     C29720   5.234   1.927   7.800  0.2974 -0.1892 -0.6227
  221MOL0     C29721   5.360   1.872   7.741  0.0763  0.4054  0.1317
  221MOL0     C29722   5.445   1.795   7.850 -0.1705  1.0095  0.1223
  221MOL0     C29723   5.584   1.757   7.798  0.5784 -0.3423 -0.8188
  221MOL0     O29724   5.666   1.873   7.769 -0.8557  1.0435  0.5882
  221MOL0     C29725   5.792   1.850   7.713 -0.1031 -0.4827 -0.6372
  221MOL0     C29726   5.849   1.952   7.639 -0.9561 -0.1258 -0.6764
  221MOL0     C29727   5.981   1.942   7.596 -0.6255  0.6060 -0.0972
  221MOL0     C29728   6.065   1.834   7.620  0.0843 -0.3873 -0.7202
  221MOL0     C29729   6.205   1.827   7.565  0.6165  0.7025  0.1149
  221MOL0     O29730   6.256   1.930   7.485  0.1944  0.1080 -0.1911
  221MOL0     C29731   6.392   1.937   7.477  0.7213 -0.1726  0.9249
  221MOL0     C29732   6.455   1.921   7.355  0.7041  0.2607  0.4154
  221MOL0     C29733   6.590   1.932   7.344 -0.4591  0.2865 -0.5451
  221MOL0     C29734   6.676   1.943   7.458 -0.2043 -0.3270  0.3076
  221MOL0     O29735   6.809   1.945   7.432  0.3345 -0.1677  0.1751
  221MOL0     C29736   6.902   1.946   7.544  0.5195  0.3330 -0.1488
  221MOL0     C29737   7.035   1.898   7.493  0.5462 -0.1928  0.2079
  221MOL0     C29738   7.139   1.896   7.604 -0.6387 -0.1622  0.6805
  221MOL0     C29739   7.281   1.916   7.551  0.4215 -0.3385  0.0829
  221MOL0     C29740   7.327   2.055   7.556 -0.6121 -0.0079 -0.4301
  221MOL0     C29741   7.237   2.153   7.493 -0.0658 -0.9123  0.0312
  221MOL0     C29742   7.311   2.280   7.508 -0.3195 -0.1099 -0.1471
  221MOL0     C29743   7.261   2.393   7.423  0.3046 -0.5411 -1.0269
  221MOL0    Cl29744   7.142   2.497   7.516 -0.3390 -0.0700 -0.3241
  221MOL0     C29745   6.612   1.944   7.583 -0.4570 -0.7963  0.1166
  221MOL0     C29746   6.469   1.947   7.593 -0.0442 -0.6905  0.0338
  221MOL0     O29747   6.266   1.722   7.590 -0.2276 -0.6567 -0.4614
  221MOL0     C29748   6.005   1.731   7.695  0.1293  0.0695 -0.1587
  221MOL0     C29749   5.870   1.740   7.741 -0.4689  0.1423 -0.0129
  221MOL0     N29750   5.191   2.065   7.601  0.1043  0.0367  0.3868
  221MOL0     N29751   5.103   2.115   7.525 -0.0592  0.2789 -0.4998
  221MOL0     C29752   4.124   2.659   8.065  0.8333  0.2797  0.1077
  221MOL0     C29753   4.024   2.656   8.154  1.2161  0.4921  0.1114
  221MOL0     C29754   3.548   2.685   8.266 -0.2518 -0.7205 -0.8750
  221MOL0     C29755   3.574   2.617   8.384  0.4077 -0.5290  0.3442
  221MOL0     C29756   3.466   2.568   8.462 -0.4615 -0.1030  0.2090
  221MOL0     C29757   3.335   2.602   8.436 -0.4110 -0.4538 -0.4100
  221MOL0     O29758   3.231   2.580   8.511 -0.0107 -0.2229 -0.4418
  221MOL0     C29759   3.239   2.515   8.640  0.3579 -0.7799 -0.4765
  221MOL0     C29760   3.198   2.376   8.602 -0.2106 -0.4173  0.3091
  221MOL0     C29761   3.048   2.361   8.572 -0.0891  0.4301 -0.5782
  221MOL0     C29762   3.025   2.255   8.471  0.0294  0.0122 -0.1035
  221MOL0     C29763   2.879   2.260   8.429  0.0362  0.1859  1.0230
  221MOL0     C29764   2.760   2.280   8.401  1.0591  0.1577 -0.2480
  221MOL0     C29765   3.309   2.671   8.323  0.5348  0.3604 -0.3091
  221MOL0     C29766   3.410   2.706   8.234 -0.3062  1.2238 -0.1718
  221MOL0     C29767   3.364   2.764   8.103 -0.1779 -0.4240 -0.2270
  221MOL0     H29768   3.756   2.657   7.941  0.5699 -1.0544 -1.1116
  221MOL0     H29769   3.934   2.636   7.783 -2.2697  0.1627  0.1502
  221MOL0     H29770   4.125   2.516   7.700 -3.2701  1.9047 -0.9432
  221MOL0     H29771   4.124   2.679   7.656 -1.8422 -1.9875 -1.2498
  221MOL0     H29772   4.367   2.697   7.658  1.3581  0.5334  1.1305
  221MOL0     H29773   4.313   2.580   7.531 -0.3761 -0.4966  0.2834
  221MOL0     H29774   4.386   2.383   7.660 -0.1810 -1.8673  1.8893
  221MOL0     H29775   4.382   2.476   7.808 -0.2762  0.0487 -0.0497
  221MOL0     H29776   4.550   2.539   7.566 -1.3922 -0.2671  0.9948
  221MOL0     H29777   4.572   2.617   7.724  0.4905  1.7746 -2.3213
  221MOL0     H29778   4.731   2.473   7.734  0.3668 -0.9161 -0.4658
  221MOL0     H29779   4.614   2.367   7.812  4.9108  0.6005  2.0455
  221MOL0     H29780   4.595   2.264   7.573  1.6137 -2.0540 -2.1410
  221MOL0     H29781   4.714   2.396   7.522  1.0299  0.8177  1.0959
  221MOL0     H29782   4.765   2.183   7.737 -0.1690  0.2151  0.0396
  221MOL0     H29783   4.881   2.305   7.676  1.3074  0.2851 -4.7203
  221MOL0     H29784   4.786   2.072   7.503 -1.0346 -0.1391  0.5355
  221MOL0     H29785   4.886   2.214   7.454  0.6231  1.2995  1.1235
  221MOL0     H29786   4.939   1.937   7.747 -0.5582  0.5445 -0.8059
  221MOL0     H29787   5.252   2.012   7.866 -2.0821 -0.1008  0.0210
  221MOL0     H29788   5.190   1.850   7.864  1.4862 -2.3220 -2.2376
  221MOL0     H29789   5.325   1.807   7.661  1.7109 -0.1113 -0.1905
  221MOL0     H29790   5.423   1.950   7.697 -2.9789  3.3044  0.3924
  221MOL0     H29791   5.384   1.706   7.869 -0.0988  0.9504  0.0751
  221MOL0     H29792   5.457   1.843   7.948 -0.9429  2.7034 -0.5740
  221MOL0     H29793   5.571   1.692   7.711  1.5795 -0.8477 -0.6081
  221MOL0     H29794   5.625   1.704   7.885  0.1691  1.1298  0.2973
  221MOL0     H29795   5.797   2.045   7.620  1.0125  1.1037 -0.2703
  221MOL0     H29796   6.011   2.029   7.538 -2.2716 -0.2695 -2.4072
  221MOL0     H29797   6.401   1.924   7.261 -0.5846  0.6041  1.1520
  221MOL0     H29798   6.641   1.920   7.249  1.3890  1.2551  0.2674
  221MOL0     H29799   6.920   2.049   7.576  1.0851  0.6044 -1.2893
  221MOL0     H29800   6.860   1.881   7.622 -0.1900 -0.9791 -1.5616
  221MOL0     H29801   7.029   1.797   7.451  1.2241 -0.7639  1.4256
  221MOL0     H29802   7.055   1.972   7.415 -1.1789  2.1642  1.8402
  221MOL0     H29803   7.116   1.970   7.681 -1.8349  2.8355 -2.2903
  221MOL0     H29804   7.133   1.798   7.653 -0.3602 -0.3373  0.3683
  221MOL0     H29805   7.289   1.872   7.451 -1.5317 -0.0772 -0.2259
  221MOL0     H29806   7.347   1.853   7.611  1.5461  1.0016  0.2941
  221MOL0     H29807   7.419   2.052   7.497 -2.2112 -0.8467 -3.0627
  221MOL0     H29808   7.351   2.092   7.656  1.5850 -0.4230 -0.7557
  221MOL0     H29809   7.215   2.121   7.391 -1.1576  1.3481 -0.5036
  221MOL0     H29810   7.140   2.167   7.541 -1.2067  2.3512 -2.7605
  221MOL0     H29811   7.415   2.260   7.479  0.0533  2.5877 -0.9601
  221MOL0     H29812   7.304   2.307   7.613 -0.6182 -0.7989  0.0140
  221MOL0     H29813   7.346   2.454   7.391  0.6192 -0.2239  0.3645
  221MOL0     H29814   7.227   2.356   7.326  3.5317 -1.4229 -1.9583
  221MOL0     H29815   6.669   1.952   7.675  2.5749  1.2506 -1.7500
  221MOL0     H29816   6.422   1.958   7.690  1.0208  1.5888  0.3664
  221MOL0     H29817   6.070   1.646   7.717 -1.7091 -1.7739 -1.4409
  221MOL0     H29818   5.831   1.659   7.801 -0.6981  1.1707  1.2921
  221MOL0     H29819   4.222   2.656   8.111 -0.4308  0.6801  3.0251
  221MOL0     H29820   4.049   2.638   8.258  0.5774 -4.1733 -0.3201
  221MOL0     H29821   3.677   2.595   8.411  0.9000 -0.7933 -1.6272
  221MOL0     H29822   3.492   2.504   8.545  0.6039  2.4637  1.9669
  221MOL0     H29823   3.171   2.562   8.712  1.0082 -0.0966 -0.2969
  221MOL0     H29824   3.337   2.527   8.686 -0.6602  2.1704  1.1994
  221MOL0     H29825   3.215   2.301   8.681 -1.1852  0.7764  1.7185
  221MOL0     H29826   3.256   2.353   8.512 -0.3549  1.1628 -0.2191
  221MOL0     H29827   3.008   2.457   8.537 -1.2696  1.7721  3.7484
  221MOL0     H29828   2.997   2.347   8.668 -0.4165  2.1337 -0.4639
  221MOL0     H29829   3.088   2.287   8.387 -1.2556 -0.0640 -1.1441
  221MOL0     H29830   3.059   2.155   8.500 -1.5210 -0.1057  1.4454
  221MOL0     H29831   2.653   2.288   8.405  0.7977 -0.5033 -3.4751
  221MOL0     H29832   3.201   2.675   8.310  0.6355  0.5819 -1.1589
  221MOL0     H29833   3.410   2.861   8.080  0.0966 -0.7395 -1.0386
  221MOL0     H29834   3.384   2.693   8.023 -0.9596  0.0526 -0.8658
  221MOL0     H29835   3.258   2.792   8.095  0.5441  2.8226  0.0817
  222MOL0     O29836   6.823   5.268   0.959 -0.4619  0.1029 -0.5048
  222MOL0     C29837   6.816   5.183   0.870  0.2365 -0.1447 -0.2864
  222MOL0     O29838   6.722   5.179   0.772  0.1551  0.3618  0.4464
  222MOL0     C29839   6.629   5.275   0.785  1.3656 -1.0023  0.5511
  222MOL0     C29840   6.515   5.244   0.851 -0.6412 -0.8504  0.5155
  222MOL0     C29841   6.421   5.342   0.884 -0.2671  0.3837  1.4326
  222MOL0     C29842   6.424   5.460   0.814  0.9545  0.3947 -1.1032
  222MOL0     O29843   6.320   5.553   0.834 -0.2314 -0.2194  0.2640
  222MOL0     C29844   6.353   5.657   0.934 -0.0147  0.4451  0.0888
  222MOL0     C29845   6.223   5.732   0.974  0.9497 -0.1464  0.2003
  222MOL0     C29846   6.153   5.648   1.076 -0.4614  0.4345  0.6110
  222MOL0     C29847   6.051   5.731   1.169  0.0123 -0.0509 -0.7059
  222MOL0     C29848   5.910   5.764   1.115 -0.0354  0.6649  0.4428
  222MOL0     C29849   5.902   5.904   1.056  0.0031 -0.0532  0.7375
  222MOL0     C29850   5.761   5.955   1.022  0.2058  0.2612  0.8679
  222MOL0     C29851   5.697   6.002   1.149  0.1947 -0.7101 -0.3116
  222MOL0     N29852   5.598   6.107   1.121 -0.9077  0.5831  0.3061
  222MOL0     C29853   5.477   6.082   1.072  0.4997 -0.7125  0.0647
  222MOL0     C29854   5.416   6.202   1.061 -0.9629  0.0574 -0.8568
  222MOL0     C29855   5.277   6.217   0.994  0.5336 -0.0461 -0.2776
  222MOL0     C29856   5.270   6.327   0.888 -0.1699 -0.3059  0.2748
  222MOL0     C29857   5.348   6.280   0.764  0.1626  0.3817 -0.3076
  222MOL0     C29858   5.394   6.399   0.673 -0.3485 -0.4270 -0.7867
  222MOL0     O29859   5.464   6.352   0.558  0.6784  0.0071 -0.2488
  222MOL0     C29860   5.599   6.312   0.572  0.0688 -0.5566  0.9734
  222MOL0     C29861   5.669   6.278   0.447  0.2505  0.4163 -0.9647
  222MOL0     C29862   5.803   6.270   0.439  0.0847 -0.1387 -0.3350
  222MOL0     C29863   5.880   6.279   0.549  0.3616  0.8563  0.3146
  222MOL0     C29864   6.020   6.231   0.538 -0.4195  0.3525  0.7370
  222MOL0     O29865   6.093   6.248   0.651 -0.5005  0.5661  0.8051
  222MOL0     C29866   6.208   6.165   0.673 -0.2782 -0.0154 -0.3756
  222MOL0     C29867   6.327   6.234   0.685 -0.2802 -0.5997  0.4595
  222MOL0     C29868   6.445   6.161   0.704  0.2486  0.3065  0.1753
  222MOL0     C29869   6.445   6.021   0.718  1.2860 -0.1442  0.5520
  222MOL0     O29870   6.551   5.945   0.740  0.1513  0.6608 -0.1505
  222MOL0     C29871   6.682   6.002   0.726  0.3589 -0.1412 -0.5111
  222MOL0     C29872   6.794   5.915   0.680  0.1837  0.0998 -0.0063
  222MOL0     C29873   6.802   5.785   0.762 -0.3908 -0.1483  0.5960
  222MOL0     C29874   6.942   5.781   0.831 -0.1636  0.4675  0.8857
  222MOL0     C29875   6.983   5.642   0.851 -0.4324 -0.0364  0.0412
  222MOL0     C29876   7.118   5.615   0.919 -0.2110  0.0575 -0.2200
  222MOL0     C29877   7.124   5.649   1.070 -0.3098  0.7595 -0.2100
  222MOL0     C29878   7.259   5.662   1.134  0.5054 -0.2895  0.3027
  222MOL0    Cl29879   7.332   5.510   1.169 -0.0075  0.0486  0.0695
  222MOL0     C29880   6.320   5.954   0.712  0.0543 -0.5712 -0.0319
  222MOL0     C29881   6.205   6.023   0.687  0.1379 -0.0760  0.3061
  222MOL0     O29882   6.055   6.173   0.432  0.6003  0.0819  0.4192
  222MOL0     C29883   5.822   6.307   0.671 -0.0531  0.4650  0.4647
  222MOL0     C29884   5.684   6.309   0.684 -0.3940 -0.1395  0.6831
  222MOL0     N29885   5.511   6.301   1.085  0.2211 -0.2183 -0.6469
  222MOL0     N29886   5.614   6.242   1.124 -0.0198  0.3050 -0.3188
  222MOL0     C29887   6.537   5.490   0.740 -0.0168 -0.1626 -0.2873
  222MOL0     C29888   6.644   5.403   0.728 -0.4951 -0.3593 -0.7048
  222MOL0     C29889   6.920   5.080   0.868  0.5641 -0.7008 -0.2282
  222MOL0     C29890   6.875   4.946   0.869 -0.2213  0.2823  0.0970
  222MOL0     C29891   6.972   4.853   0.902  0.1464 -0.1391  0.9221
  222MOL0     C29892   7.100   4.882   0.920  0.7948 -0.2855 -0.5282
  222MOL0     O29893   7.167   4.782   0.978  0.4000  0.2480 -0.4588
  222MOL0     C29894   7.304   4.755   0.945  0.0555  0.5997 -1.0398
  222MOL0     C29895   7.386   4.727   1.067 -0.0496 -0.4603 -0.2814
  222MOL0     C29896   7.539   4.727   1.043 -0.1253  0.6910 -0.4140
  222MOL0     C29897   7.619   4.682   1.178  0.2457  0.4096 -0.1892
  222MOL0     C29898   7.760   4.677   1.149 -0.0052  0.0092 -0.6318
  222MOL0     C29899   7.878   4.682   1.114 -0.9157 -1.4504  0.5748
  222MOL0     C29900   7.141   5.010   0.908 -1.1799 -0.5003 -0.3641
  222MOL0     C29901   7.055   5.113   0.887  1.4193 -0.0253 -0.0065
  222MOL0     C29902   7.109   5.252   0.881 -0.3711  0.4512 -0.9243
  222MOL0     H29903   6.502   5.142   0.886 -2.2485 -0.9904 -0.3926
  222MOL0     H29904   6.343   5.323   0.958 -1.6695 -0.1629 -0.1215
  222MOL0     H29905   6.400   5.621   1.026 -1.2115  0.4983  0.7356
  222MOL0     H29906   6.423   5.717   0.875  1.4573 -1.5334 -0.3080
  222MOL0     H29907   6.163   5.749   0.884  1.2297 -0.3940 -0.0343
  222MOL0     H29908   6.253   5.829   1.014  0.9853 -0.3693  0.7237
  222MOL0     H29909   6.225   5.601   1.143 -1.7236  0.2231  1.8570
  222MOL0     H29910   6.100   5.568   1.024  1.9522  0.7613 -2.7114
  222MOL0     H29911   6.033   5.675   1.261 -2.2462 -0.0212 -1.0786
  222MOL0     H29912   6.094   5.828   1.197 -2.4326  0.5403  1.2634
  222MOL0     H29913   5.888   5.684   1.043 -2.2515 -0.7981  2.5764
  222MOL0     H29914   5.848   5.758   1.205 -0.9351 -2.4444 -0.2701
  222MOL0     H29915   5.961   5.972   1.120  0.2624 -1.4964  2.0965
  222MOL0     H29916   5.961   5.914   0.964 -0.6775 -1.8801  0.0557
  222MOL0     H29917   5.696   5.886   0.967 -0.8866  0.1087  2.3139
  222MOL0     H29918   5.772   6.040   0.953 -1.9642 -1.9877 -2.5609
  222MOL0     H29919   5.642   5.928   1.207  0.3849 -0.0971  0.6698
  222MOL0     H29920   5.769   6.047   1.218 -0.8268 -0.3324  0.5169
  222MOL0     H29921   5.430   5.985   1.061  2.8932 -1.9364 -0.0594
  222MOL0     H29922   5.251   6.120   0.950 -1.3401  0.4323 -0.3093
  222MOL0     H29923   5.199   6.240   1.067 -0.8328  1.0312 -1.9695
  222MOL0     H29924   5.170   6.356   0.855  1.1084  1.5034 -2.4392
  222MOL0     H29925   5.305   6.419   0.936 -0.3013  0.7696 -1.5885
  222MOL0     H29926   5.291   6.205   0.708 -0.0141 -0.3747  0.8696
  222MOL0     H29927   5.440   6.234   0.801 -2.3060 -3.7255  1.4071
  222MOL0     H29928   5.466   6.464   0.723  1.6874 -3.3645  0.3893
  222MOL0     H29929   5.299   6.439   0.636 -1.2391 -1.3015  0.4591
  222MOL0     H29930   5.618   6.275   0.351 -1.3337  2.6805 -0.2974
  222MOL0     H29931   5.845   6.244   0.343 -1.4410 -1.5449 -0.6694
  222MOL0     H29932   6.326   6.342   0.679 -1.8949 -0.6695 -2.5396
  222MOL0     H29933   6.540   6.211   0.723  0.6299 -0.2316 -0.2659
  222MOL0     H29934   6.685   6.078   0.647  1.1554 -0.0191 -0.3685
  222MOL0     H29935   6.707   6.041   0.824 -2.1298 -0.6383  0.4058
  222MOL0     H29936   6.787   5.895   0.572 -1.8671  0.7956 -0.0536
  222MOL0     H29937   6.880   5.980   0.700  0.2173  0.3392 -0.8642
  222MOL0     H29938   6.720   5.778   0.834 -0.7828  1.4576  0.3422
  222MOL0     H29939   6.788   5.704   0.690  1.0105 -0.9425  1.1813
  222MOL0     H29940   6.935   5.831   0.928 -1.1917  4.7501 -1.1492
  222MOL0     H29941   7.019   5.833   0.775  0.4640 -2.3436 -1.0858
  222MOL0     H29942   6.993   5.601   0.750 -0.1520  0.6887 -0.2254
  222MOL0     H29943   6.897   5.592   0.899 -0.5467 -1.9497 -2.0025
  222MOL0     H29944   7.149   5.511   0.908  0.6111  0.0437  1.8336
  222MOL0     H29945   7.186   5.684   0.867 -0.7502  0.7294 -0.0567
  222MOL0     H29946   7.074   5.572   1.129  2.7269 -0.9548  0.3061
  222MOL0     H29947   7.063   5.739   1.082 -0.6383  0.5565 -0.3427
  222MOL0     H29948   7.331   5.712   1.069  3.0752 -3.1599  0.6834
  222MOL0     H29949   7.254   5.726   1.223 -1.7236  0.2720 -0.1741
  222MOL0     H29950   6.319   5.846   0.724  0.0028 -1.0112 -3.0511
  222MOL0     H29951   6.116   5.960   0.676  0.4316 -0.0371 -4.1154
  222MOL0     H29952   5.884   6.318   0.760  2.9968  0.3041 -1.5015
  222MOL0     H29953   5.649   6.312   0.787  0.5702 -1.7958  1.1032
  222MOL0     H29954   6.547   5.590   0.699  2.2096  1.6941  4.0949
  222MOL0     H29955   6.736   5.430   0.677 -0.5845 -0.3560 -0.8661
  222MOL0     H29956   6.776   4.906   0.849  0.2782 -0.4175 -1.0553
  222MOL0     H29957   6.936   4.753   0.923  2.0732 -0.9403  0.5800
  222MOL0     H29958   7.352   4.841   0.898  1.2106 -1.0469 -3.0280
  222MOL0     H29959   7.304   4.674   0.872 -0.5777  0.3038 -0.7189
  222MOL0     H29960   7.353   4.627   1.099 -0.0824 -0.0166  1.1644
  222MOL0     H29961   7.368   4.792   1.154 -0.2505 -1.5493  0.5108
  222MOL0     H29962   7.558   4.832   1.023 -1.1371  0.8054 -0.7923
  222MOL0     H29963   7.569   4.650   0.971 -2.1406 -0.7554  0.2026
  222MOL0     H29964   7.598   4.744   1.265  2.8368  1.1307  0.0141
  222MOL0     H29965   7.584   4.580   1.197  0.5503  0.5193  1.0010
  222MOL0     H29966   7.978   4.698   1.080 -1.9784  3.8950 -1.0383
  222MOL0     H29967   7.244   5.028   0.935 -0.7795 -0.8549 -1.6130
  222MOL0     H29968   7.089   5.293   0.981 -0.5929 -1.5732 -0.0878
  222MOL0     H29969   7.218   5.250   0.876 -0.2963  1.0791  0.1907
  222MOL0     H29970   7.064   5.323   0.811  1.4889  1.8600 -0.7648
  223MOL0     O29971  11.149  10.241   1.001 -0.2781 -0.8219 -0.6549
  223MOL0     C29972  11.043  10.257   1.069  0.9076 -0.1664 -0.1378
  223MOL0     O29973  11.037  10.250   1.200 -0.1728  0.3671  0.4162
  223MOL0     C29974  11.149  10.232   1.274 -0.1616 -0.0286  0.0776
  223MOL0     C29975  11.219  10.348   1.327  0.0945  0.7038 -0.2853
  223MOL0     C29976  11.331  10.333   1.402 -0.3541  0.1035 -0.4772
  223MOL0     C29977  11.392  10.211   1.414 -0.1324 -0.0071 -0.1777
  223MOL0     O29978  11.521  10.182   1.461  0.0456  0.0658 -0.3561
  223MOL0     C29979  11.571  10.286   1.553 -1.1444 -0.0408 -0.9227
  223MOL0     C29980  11.707  10.245   1.618  0.9635 -0.0430 -0.4094
  223MOL0     C29981  11.750  10.329   1.724 -0.4143  0.1612  0.6387
  223MOL0     C29982  11.803  10.459   1.662 -1.1591  0.5106 -0.2376
  223MOL0     C29983  11.855  10.539   1.776  0.5487  0.8970 -0.8614
  223MOL0     C29984  11.896  10.684   1.737  0.6837  0.0863  0.2275
  223MOL0     C29985  11.948  10.750   1.862 -0.5825  0.3756  0.0921
  223MOL0     C29986  11.997  10.893   1.826  0.2785 -0.0446 -0.7998
  223MOL0     N29987  12.037  10.961   1.951  0.4331  0.4236  0.7351
  223MOL0     C29988  11.953  11.016   2.048 -0.3748  0.1194 -0.4863
  223MOL0     C29989  12.037  11.056   2.147  0.1661  0.5369 -0.6597
  223MOL0     C29990  11.996  11.139   2.269  0.2028  1.1715 -0.1105
  223MOL0     C29991  11.854  11.200   2.270 -1.0806 -0.3884  1.0366
  223MOL0     C29992  11.836  11.315   2.170 -0.0864 -1.1675  0.1820
  223MOL0     C29993  11.702  11.374   2.198  0.7324 -0.0578  0.5997
  223MOL0     O29994  11.595  11.289   2.139  0.2912  0.0112 -0.1939
  223MOL0     C29995  11.467  11.340   2.124 -0.4037 -0.9114  0.0799
  223MOL0     C29996  11.362  11.251   2.110 -0.0806  0.1948  0.5949
  223MOL0     C29997  11.232  11.297   2.099  0.3116 -0.8810  0.3140
  223MOL0     C29998  11.197  11.438   2.091 -0.0994  0.1291  0.3152
  223MOL0     C29999  11.062  11.476   2.091  0.5826 -0.6231 -0.1630
  223MOL0     O30000  11.035  11.579   2.174  0.4144 -0.0289  0.4866
  223MOL0     C30001  10.915  11.643   2.162 -1.3654 -0.6465 -0.3573
  223MOL0     C30002  10.830  11.637   2.050  0.1258 -1.4078  0.0432
  223MOL0     C30003  10.720  11.718   2.038 -0.7473  0.7182 -0.2035
  223MOL0     C30004  10.690  11.810   2.135 -0.0154  1.1275 -1.4659
  223MOL0     O30005  10.603  11.904   2.105  0.3699  0.7190 -0.2998
  223MOL0     C30006  10.630  12.029   2.157 -0.1874 -0.2493  0.4970
  223MOL0     C30007  10.547  12.063   2.273  0.5607 -0.3174 -0.9513
  223MOL0     C30008  10.405  12.014   2.264  0.9341 -1.2688  0.4829
  223MOL0     C30009  10.324  12.097   2.156  0.5770  0.8185 -0.2655
  223MOL0     C30010  10.181  12.031   2.147 -0.7765 -0.2616 -0.3399
  223MOL0     C30011  10.082  12.135   2.119 -0.1234 -1.1990 -0.1583
  223MOL0     C30012   9.938  12.085   2.133  0.1311 -0.1226 -1.3966
  223MOL0     C30013   9.839  12.202   2.114 -0.1757 -0.1663 -0.4319
  223MOL0    Cl30014   9.828  12.264   1.944  0.2305  0.3826 -0.3322
  223MOL0     C30015  10.780  11.812   2.248 -0.1233  0.4900 -0.4398
  223MOL0     C30016  10.881  11.726   2.266 -0.8520  0.5503  0.1430
  223MOL0     O30017  10.977  11.407   2.030 -0.4113  0.2058 -0.0573
  223MOL0     C30018  11.307  11.526   2.092  0.4651 -0.3049  0.3767
  223MOL0     C30019  11.433  11.478   2.110  0.3464  0.3707  0.2432
  223MOL0     N30020  12.171  11.018   2.110  0.2232  0.1788  0.2880
  223MOL0     N30021  12.159  10.945   2.007  0.4093 -0.4305  0.4178
  223MOL0     C30022  11.339  10.092   1.361  0.6668 -0.1949  0.5735
  223MOL0     C30023  11.210  10.100   1.293  0.2613 -0.6734 -0.3045
  223MOL0     C30024  10.929  10.309   0.989  0.3997  0.3074  0.0721
  223MOL0     C30025  10.853  10.414   1.056  1.4263 -0.5527  0.0055
  223MOL0     C30026  10.737  10.470   0.997  1.2770 -0.1888  0.0228
  223MOL0     C30027  10.691  10.430   0.868 -0.4397 -0.9916 -0.1535
  223MOL0     O30028  10.584  10.484   0.807  0.0280  0.5568 -0.3486
  223MOL0     C30029  10.519  10.606   0.858 -0.3298 -0.8867 -0.0431
  223MOL0     C30030  10.415  10.678   0.771 -0.2251 -0.1600  0.1074
  223MOL0     C30031  10.338  10.791   0.832  0.4176 -0.3139 -0.8389
  223MOL0     C30032  10.264  10.883   0.740  0.6258  0.3475  0.2777
  223MOL0     C30033  10.184  10.970   0.828 -0.2291  0.0205  0.1296
  223MOL0     C30034  10.124  11.046   0.904  0.0121 -0.0346 -0.0350
  223MOL0     C30035  10.774  10.334   0.803  0.5538  0.1048  0.3581
  223MOL0     C30036  10.892  10.283   0.850 -0.2068  0.1533 -0.7270
  223MOL0     C30037  10.981  10.198   0.761 -0.1428  0.2635  0.0727
  223MOL0     H30038  11.169  10.442   1.307 -0.1364  1.0892  1.9183
  223MOL0     H30039  11.373  10.421   1.451  0.6072  1.2235 -3.1228
  223MOL0     H30040  11.595  10.380   1.503 -0.2088  1.0968  1.4852
  223MOL0     H30041  11.501  10.307   1.635 -1.7238  0.6901 -1.5937
  223MOL0     H30042  11.783  10.240   1.540  0.6890  0.0525 -0.6869
  223MOL0     H30043  11.686  10.146   1.659 -1.7567  0.4943 -0.2800
  223MOL0     H30044  11.825  10.272   1.778 -0.9981 -1.1619  0.1093
  223MOL0     H30045  11.672  10.347   1.799 -0.8000  3.0779 -0.3339
  223MOL0     H30046  11.885  10.442   1.591 -3.5439 -2.1981 -2.6008
  223MOL0     H30047  11.733  10.515   1.600 -1.2900 -1.9330 -2.4983
  223MOL0     H30048  11.767  10.550   1.840  0.5275 -1.9433 -0.2552
  223MOL0     H30049  11.935  10.494   1.836 -0.5196 -0.0097 -0.0838
  223MOL0     H30050  11.975  10.687   1.661 -2.0154 -0.1983 -2.8394
  223MOL0     H30051  11.809  10.741   1.703  0.6889 -0.5963 -0.9718
  223MOL0     H30052  12.031  10.687   1.896 -0.4170 -0.9685 -2.5802
  223MOL0     H30053  11.871  10.766   1.938  0.1959 -0.5555  1.1338
  223MOL0     H30054  12.076  10.881   1.751  1.0291 -1.5468  0.1691
  223MOL0     H30055  11.921  10.959   1.785  1.0037  0.2900 -1.6288
  223MOL0     H30056  11.846  11.033   2.046 -0.3157  0.4651 -0.7619
  223MOL0     H30057  11.995  11.063   2.347 -0.0082  0.1354 -1.0963
  223MOL0     H30058  12.067  11.222   2.281  1.1935  1.0618 -3.8046
  223MOL0     H30059  11.795  11.109   2.258  0.9897 -1.7252  0.5203
  223MOL0     H30060  11.844  11.241   2.372 -1.2510  0.2936  0.7556
  223MOL0     H30061  11.844  11.281   2.067  1.6380 -0.5909  0.0881
  223MOL0     H30062  11.918  11.385   2.189 -0.0949 -1.3344  0.8718
  223MOL0     H30063  11.717  11.469   2.146 -0.4214  1.4109  2.7999
  223MOL0     H30064  11.686  11.399   2.303  1.8471  2.4025  0.2504
  223MOL0     H30065  11.388  11.146   2.122  0.9940  0.4564  0.6254
  223MOL0     H30066  11.150  11.226   2.109  2.5355 -3.6078  0.3994
  223MOL0     H30067  10.851  11.577   1.962 -0.4859  0.5524 -1.5379
  223MOL0     H30068  10.680  11.725   1.937  1.5746  2.4366 -1.1131
  223MOL0     H30069  10.734  12.055   2.174  0.2105  0.5802 -2.5774
  223MOL0     H30070  10.601  12.095   2.075  2.0174 -1.8489 -1.6928
  223MOL0     H30071  10.588  12.023   2.366  2.4009  0.5890 -1.3207
  223MOL0     H30072  10.558  12.172   2.277  1.8474 -0.4356  2.7532
  223MOL0     H30073  10.421  11.909   2.242  2.0168 -0.4605 -3.2565
  223MOL0     H30074  10.358  12.040   2.360  1.1177 -0.4723  0.3685
  223MOL0     H30075  10.365  12.111   2.056  1.1139 -0.6719 -0.2728
  223MOL0     H30076  10.311  12.195   2.204 -1.6009  0.2707  0.4016
  223MOL0     H30077  10.169  11.980   2.242  3.3633 -2.0334 -0.5762
  223MOL0     H30078  10.182  11.954   2.070  0.9138 -0.0017 -0.6150
  223MOL0     H30079  10.086  12.219   2.189 -5.7069  0.8516 -1.7275
  223MOL0     H30080  10.097  12.175   2.018 -0.1949 -0.3463  0.1592
  223MOL0     H30081   9.916  12.051   2.235 -3.0954  3.0815 -0.7828
  223MOL0     H30082   9.912  12.003   2.066 -0.7456 -1.2991  0.2995
  223MOL0     H30083   9.737  12.166   2.128 -1.5158  2.4910 -2.4670
  223MOL0     H30084   9.854  12.281   2.188  0.3556  1.0267 -1.7664
  223MOL0     H30085  10.764  11.885   2.326 -0.3367 -0.8386  0.8035
  223MOL0     H30086  10.939  11.731   2.357  0.9680 -5.1246 -0.2913
  223MOL0     H30087  11.294  11.634   2.092 -0.5535 -0.4142 -0.2006
  223MOL0     H30088  11.516  11.548   2.109  0.1729  0.5711 -0.2553
  223MOL0     H30089  11.392   9.997   1.360  0.7069 -0.2206 -1.9516
  223MOL0     H30090  11.163  10.005   1.266  1.3741 -0.9787 -1.2478
  223MOL0     H30091  10.884  10.445   1.155  1.5890  1.2850 -0.5870
  223MOL0     H30092  10.673  10.532   1.059  0.6809  0.9416 -1.6647
  223MOL0     H30093  10.586  10.689   0.884  0.6351 -1.5066 -0.4723
  223MOL0     H30094  10.461  10.584   0.948  0.8540 -1.0738  0.7028
  223MOL0     H30095  10.348  10.601   0.732  2.0486 -1.5365 -1.3047
  223MOL0     H30096  10.462  10.714   0.679  0.2433 -0.1232  0.3599
  223MOL0     H30097  10.412  10.845   0.891  0.0505 -1.3826  0.6489
  223MOL0     H30098  10.261  10.760   0.903  1.2923 -2.1717 -0.6574
  223MOL0     H30099  10.335  10.948   0.688 -0.1540  1.9966  1.1935
  223MOL0     H30100  10.198  10.830   0.671  0.5821  1.3738 -0.4957
  223MOL0     H30101  10.074  11.117   0.967 -0.5690  0.6571 -1.2495
  223MOL0     H30102  10.735  10.298   0.708 -1.2294  2.0454  0.2868
  223MOL0     H30103  11.029  10.114   0.812  2.6586  1.6394 -0.1089
  223MOL0     H30104  10.936  10.160   0.669 -0.4042 -2.3549  1.1776
  223MOL0     H30105  11.062  10.262   0.727  0.0297 -0.7872 -1.6023
  224MOL0     O30106   2.479   6.455   9.648  0.3182 -1.0845  0.2326
  224MOL0     C30107   2.452   6.361   9.725  0.7400  0.2708 -0.0673
  224MOL0     O30108   2.532   6.318   9.830  0.0040  0.3445  1.0476
  224MOL0     C30109   2.662   6.367   9.831 -0.2924  0.4255 -0.7717
  224MOL0     C30110   2.694   6.494   9.881  0.4689  0.4998 -0.3028
  224MOL0     C30111   2.822   6.536   9.882 -0.2771 -0.4470 -0.3115
  224MOL0     C30112   2.924   6.456   9.835 -0.1714  0.3606 -0.0366
  224MOL0     O30113   3.051   6.496   9.853 -0.1822  0.0966 -0.5327
  224MOL0     C30114   3.149   6.468   9.755  0.3954 -0.9446 -0.7115
  224MOL0     C30115   3.280   6.527   9.808 -0.1748 -0.0767  0.3022
  224MOL0     C30116   3.405   6.530   9.709 -0.4752  0.8959 -0.4258
  224MOL0     C30117   3.513   6.420   9.750 -0.1324 -0.7940  0.1324
  224MOL0     C30118   3.635   6.433   9.665 -0.3034  0.0985 -0.1849
  224MOL0     C30119   3.692   6.569   9.642  0.1010  0.0663 -0.2916
  224MOL0     C30120   3.826   6.563   9.563  0.1087 -0.0252  0.5014
  224MOL0     C30121   3.941   6.518   9.652 -0.0136  0.2862 -0.0776
  224MOL0     N30122   4.054   6.475   9.558 -0.3233 -0.2279 -0.3710
  224MOL0     C30123   4.163   6.554   9.534 -0.2381 -0.4847  1.0198
  224MOL0     C30124   4.252   6.468   9.474 -0.2000 -1.4402  0.7439
  224MOL0     C30125   4.390   6.528   9.426  0.1732 -0.3196 -0.4874
  224MOL0     C30126   4.513   6.502   9.519  0.7413  0.1496  0.2813
  224MOL0     C30127   4.644   6.543   9.448  0.8721 -0.0458  0.0265
  224MOL0     C30128   4.779   6.535   9.527  0.1191 -0.2368 -0.3135
  224MOL0     O30129   4.885   6.545   9.435 -0.0718  0.0837  0.2360
  224MOL0     C30130   5.016   6.557   9.477  0.2939  0.2484  0.2344
  224MOL0     C30131   5.062   6.555   9.611  0.5766 -0.2041 -0.1287
  224MOL0     C30132   5.198   6.584   9.640 -0.4288  0.4319 -0.7650
  224MOL0     C30133   5.291   6.588   9.543 -0.8438  0.1879 -0.5372
  224MOL0     C30134   5.438   6.609   9.571 -0.3762 -0.7601  0.2968
  224MOL0     O30135   5.474   6.633   9.704  0.0194 -0.4841 -0.3306
  224MOL0     C30136   5.606   6.661   9.731 -0.1981  0.9480 -0.0356
  224MOL0     C30137   5.670   6.588   9.840 -0.7470 -0.0655  0.3748
  224MOL0     C30138   5.808   6.605   9.869  0.2206  0.0140  0.2877
  224MOL0     C30139   5.889   6.688   9.791  0.9897  0.6517  1.1515
  224MOL0     O30140   6.013   6.717   9.833 -0.7233 -0.0029  0.1800
  224MOL0     C30141   6.057   6.848   9.803  0.8187 -0.9588 -0.3294
  224MOL0     C30142   6.160   6.894   9.902 -0.9250  0.7233 -0.0099
  224MOL0     C30143   6.208   7.032   9.857 -0.4151  0.2672 -0.0808
  224MOL0     C30144   6.337   7.091   9.925  0.5348 -0.0205 -0.5541
  224MOL0     C30145   6.406   7.203   9.832 -0.2221  0.1227 -0.4012
  224MOL0     C30146   6.498   7.289   9.921 -0.6853 -0.2393  0.5741
  224MOL0     C30147   6.535   7.419   9.849  0.2612 -0.1461 -0.4003
  224MOL0     C30148   6.626   7.495   9.940  0.5765 -0.2649 -0.3529
  224MOL0    Cl30149   6.790   7.423   9.957  0.0258  0.6623 -0.0153
  224MOL0     C30150   5.829   6.746   9.680  0.5672 -0.0540  0.4935
  224MOL0     C30151   5.693   6.749   9.656  0.4822 -0.2477  0.2201
  224MOL0     O30152   5.515   6.609   9.475  0.2857 -0.1462 -0.4798
  224MOL0     C30153   5.248   6.587   9.410  1.1487 -0.6747  0.2160
  224MOL0     C30154   5.113   6.578   9.377  0.6636  0.0492  0.5403
  224MOL0     N30155   4.201   6.340   9.479  0.1402  0.2567  0.2471
  224MOL0     N30156   4.081   6.345   9.534 -0.5315 -0.4793  0.8526
  224MOL0     C30157   2.895   6.323   9.783 -0.2992 -0.2199  0.1842
  224MOL0     C30158   2.762   6.284   9.790 -0.8390 -0.1443 -0.4191
  224MOL0     C30159   2.327   6.283   9.706 -0.1950 -0.6909 -0.7166
  224MOL0     C30160   2.318   6.163   9.771  0.6859 -0.6626  0.3718
  224MOL0     C30161   2.209   6.080   9.760  0.4512 -0.2094 -0.7489
  224MOL0     C30162   2.102   6.116   9.678 -0.0204 -0.2359  0.4315
  224MOL0     O30163   1.992   6.027   9.663 -0.3784 -0.2581 -0.4952
  224MOL0     C30164   1.886   6.051   9.564 -0.1260  0.3892  0.2435
  224MOL0     C30165   1.950   6.024   9.424  0.4493 -0.5275 -0.0265
  224MOL0     C30166   1.844   6.021   9.314  0.2370  0.4107  0.2053
  224MOL0     C30167   1.777   6.151   9.282 -0.2835  0.0944 -0.2141
  224MOL0     C30168   1.865   6.266   9.252  0.8275 -0.5597 -0.1672
  224MOL0     C30169   1.946   6.347   9.232 -0.3474 -1.1025  0.4071
  224MOL0     C30170   2.105   6.241   9.615 -0.3531 -0.0869 -0.1343
  224MOL0     C30171   2.214   6.324   9.623 -0.0409 -0.3561 -0.2305
  224MOL0     C30172   2.200   6.452   9.552  0.2553 -0.2845  0.5059
  224MOL0     H30173   2.612   6.548   9.928 -1.6642 -1.3594 -1.6419
  224MOL0     H30174   2.851   6.625   9.936  1.1674  1.6551 -4.2372
  224MOL0     H30175   3.148   6.360   9.738 -0.0048 -1.1448  0.5283
  224MOL0     H30176   3.122   6.520   9.663 -0.3679 -0.7305 -0.3725
  224MOL0     H30177   3.307   6.486   9.906  0.5001 -0.1024  0.1106
  224MOL0     H30178   3.263   6.631   9.838  1.4726 -0.1292  1.5356
  224MOL0     H30179   3.445   6.631   9.719  1.4716  0.1399 -0.0103
  224MOL0     H30180   3.368   6.518   9.606 -1.4307  3.0702 -0.3791
  224MOL0     H30181   3.538   6.452   9.852  3.4505  1.1482 -1.1485
  224MOL0     H30182   3.477   6.317   9.752  1.2924 -1.4554 -2.5197
  224MOL0     H30183   3.715   6.373   9.710  1.6004  2.4302 -0.2489
  224MOL0     H30184   3.611   6.384   9.570 -2.5344 -1.9782  1.3302
  224MOL0     H30185   3.619   6.617   9.576  1.7291 -1.0569 -3.0644
  224MOL0     H30186   3.701   6.621   9.739  0.8649  1.5789 -1.1324
  224MOL0     H30187   3.851   6.666   9.535 -1.0772 -0.2477 -1.5861
  224MOL0     H30188   3.818   6.495   9.478 -0.5372  0.8913 -0.1946
  224MOL0     H30189   3.976   6.599   9.717 -1.0794 -1.2357  2.4877
  224MOL0     H30190   3.907   6.434   9.711 -1.6450  0.1737 -1.1260
  224MOL0     H30191   4.163   6.662   9.522  0.5691 -0.8192 -4.6448
  224MOL0     H30192   4.404   6.480   9.329  0.9056 -0.8730 -0.1223
  224MOL0     H30193   4.382   6.636   9.408 -0.5849 -0.2778  0.0649
  224MOL0     H30194   4.494   6.557   9.611 -0.3796  2.3575 -1.2004
  224MOL0     H30195   4.505   6.394   9.536 -4.1450  0.2964  0.1927
  224MOL0     H30196   4.631   6.639   9.396 -1.8908 -1.5172 -2.2534
  224MOL0     H30197   4.663   6.473   9.367 -0.4458  0.9450 -1.2008
  224MOL0     H30198   4.796   6.437   9.572  1.5593  0.9978  2.0342
  224MOL0     H30199   4.773   6.612   9.605 -0.2693 -0.2354 -0.3393
  224MOL0     H30200   4.991   6.530   9.689  0.6282 -2.3903 -0.7097
  224MOL0     H30201   5.213   6.597   9.747 -2.7650 -0.4842 -0.2683
  224MOL0     H30202   5.603   6.526   9.899 -0.4375 -1.6389 -0.8657
  224MOL0     H30203   5.846   6.545   9.951 -1.7112 -2.5682 -0.5859
  224MOL0     H30204   6.118   6.836   9.713 -0.7754 -0.1576 -1.5600
  224MOL0     H30205   5.986   6.931   9.793  2.5534  0.5992 -0.3320
  224MOL0     H30206   6.118   6.873  10.001 -0.9639  0.1705 -0.1381
  224MOL0     H30207   6.240   6.821   9.884 -1.9997 -0.4836 -0.0379
  224MOL0     H30208   6.214   7.035   9.748 -1.1775 -0.8470 -0.1657
  224MOL0     H30209   6.126   7.096   9.891  1.2066  1.0868  2.6060
  224MOL0     H30210   6.405   7.008   9.946  0.3038 -0.8141 -2.7375
  224MOL0     H30211   6.299   7.137  10.017 -0.8006  1.0307 -1.5728
  224MOL0     H30212   6.333   7.273   9.790 -1.7647 -0.1107  1.7496
  224MOL0     H30213   6.466   7.151   9.756 -1.1940 -1.1671 -0.3271
  224MOL0     H30214   6.452   7.310  10.018 -0.7915  0.0111  0.4725
  224MOL0     H30215   6.597   7.245   9.932  1.1655  3.2899 -0.5198
  224MOL0     H30216   6.449   7.486   9.854  0.0087 -0.4121 -1.1039
  224MOL0     H30217   6.565   7.403   9.745  0.7744  0.3252 -0.3301
  224MOL0     H30218   6.655   7.594   9.902  1.2896 -1.5021 -3.2917
  224MOL0     H30219   6.572   7.503  10.035 -0.0125  1.8679 -0.8049
  224MOL0     H30220   5.896   6.793   9.609  0.9945  0.8385  1.4539
  224MOL0     H30221   5.643   6.803   9.575 -2.6257 -0.5633  1.7594
  224MOL0     H30222   5.326   6.599   9.336 -1.0567  4.2577 -1.7622
  224MOL0     H30223   5.085   6.580   9.272  0.7354  0.6725  0.5282
  224MOL0     H30224   2.964   6.247   9.747 -0.1794 -0.5137  1.0058
  224MOL0     H30225   2.742   6.192   9.735  1.9968 -1.5028  0.6296
  224MOL0     H30226   2.406   6.115   9.813  0.1708 -1.7767  0.2256
  224MOL0     H30227   2.200   5.979   9.799 -1.7993 -0.9886 -2.9724
  224MOL0     H30228   1.837   6.149   9.574  0.2170  0.4583  1.3013
  224MOL0     H30229   1.817   5.968   9.576 -0.7549  0.5121 -1.9887
  224MOL0     H30230   1.994   5.924   9.438  0.8269 -0.6977 -2.0597
  224MOL0     H30231   2.029   6.093   9.392 -0.0461  1.1300  2.1497
  224MOL0     H30232   1.770   5.949   9.350 -0.5967  0.6621 -0.9498
  224MOL0     H30233   1.889   5.976   9.226  1.0295  2.1193 -0.3015
  224MOL0     H30234   1.721   6.144   9.189 -0.5247  1.7310 -0.2075
  224MOL0     H30235   1.698   6.165   9.357 -1.5802  3.4884 -2.0189
  224MOL0     H30236   2.013   6.427   9.210 -1.1395 -0.4821  0.2279
  224MOL0     H30237   2.022   6.274   9.553 -2.7188 -3.3471  1.0157
  224MOL0     H30238   2.103   6.472   9.507  0.4866 -3.6810 -1.8615
  224MOL0     H30239   2.229   6.531   9.622 -1.4621  0.3538  0.5272
  224MOL0     H30240   2.273   6.459   9.471 -1.1544  0.4813 -0.7394
  225MOL0     O30241   4.785   8.919  10.340 -0.0887  0.6131 -0.0380
  225MOL0     C30242   4.735   8.870  10.439  0.2412  0.2024  0.3404
  225MOL0     O30243   4.789   8.864  10.568 -0.1580  0.3477  0.0090
  225MOL0     C30244   4.918   8.919  10.579  0.3564  0.8299  0.7551
  225MOL0     C30245   5.028   8.834  10.574  0.0152  0.0176 -0.5564
  225MOL0     C30246   5.158   8.890  10.573  0.9151  0.8551  0.0649
  225MOL0     C30247   5.172   9.031  10.599  0.0427  0.0372 -0.8242
  225MOL0     O30248   5.304   9.072  10.602  0.4996  0.2974  0.6468
  225MOL0     C30249   5.343   9.204  10.574  0.3189 -0.1884  0.1746
  225MOL0     C30250   5.489   9.207  10.561 -0.3246 -0.3231  0.1481
  225MOL0     C30251   5.531   9.114  10.448 -0.0123 -0.0056 -1.4650
  225MOL0     C30252   5.644   9.167  10.364 -0.4321  0.6832 -0.7412
  225MOL0     C30253   5.664   9.073  10.247 -0.3009 -0.5054 -0.1227
  225MOL0     C30254   5.801   9.105  10.193  0.3242 -1.1167 -0.4425
  225MOL0     C30255   5.846   8.989  10.102 -0.3105  0.0556 -0.0256
  225MOL0     C30256   5.754   8.959   9.989 -0.1897  1.2673 -0.1579
  225MOL0     N30257   5.834   8.872   9.902  0.1663  0.4688  0.3607
  225MOL0     C30258   5.909   8.915   9.794  0.0146  0.2421 -0.7998
  225MOL0     C30259   5.963   8.804   9.748 -0.4847  0.1941 -0.8198
  225MOL0     C30260   6.059   8.801   9.629 -0.2786 -0.1480  0.1471
  225MOL0     C30261   6.204   8.757   9.669 -0.3372 -0.4455 -0.7429
  225MOL0     C30262   6.317   8.846   9.609 -0.4308 -0.1177 -0.3254
  225MOL0     C30263   6.308   8.979   9.680 -0.5059  0.3566  0.7538
  225MOL0     O30264   6.333   8.970   9.827 -0.3354  0.0891 -0.5024
  225MOL0     C30265   6.453   8.993   9.878 -1.3685  0.1206 -0.1688
  225MOL0     C30266   6.570   9.042   9.808 -0.6064 -0.1108 -0.2297
  225MOL0     C30267   6.684   9.055   9.880 -0.5904  0.2920 -0.5312
  225MOL0     C30268   6.700   9.024  10.012  0.5726  0.0265 -0.5514
  225MOL0     C30269   6.825   9.017  10.080 -0.0079  0.0143  0.8069
  225MOL0     O30270   6.931   9.084  10.033 -0.3364 -0.6148 -0.0782
  225MOL0     C30271   7.046   9.080  10.111  0.3273 -0.7142 -0.6798
  225MOL0     C30272   7.080   9.189  10.193 -0.1323 -0.1017 -0.1271
  225MOL0     C30273   7.196   9.189  10.271  0.4882  0.6647  0.0147
  225MOL0     C30274   7.276   9.068  10.271  0.7487  0.0164  0.4079
  225MOL0     O30275   7.398   9.047  10.338 -0.1449 -0.4692  0.0409
  225MOL0     C30276   7.475   9.162  10.387  0.2217  0.1324 -0.5294
  225MOL0     C30277   7.608   9.103  10.445  0.1937 -0.8785 -0.9419
  225MOL0     C30278   7.703   9.063  10.332  0.0487 -0.0087  0.0627
  225MOL0     C30279   7.827   8.995  10.398 -0.2679 -0.2641  0.5335
  225MOL0     C30280   7.915   8.938  10.282 -0.6589  0.2925 -1.0664
  225MOL0     C30281   7.998   9.050  10.219  0.0506  0.6660  0.0719
  225MOL0     C30282   8.060   9.000  10.079 -0.0376  0.2461 -0.5820
  225MOL0     C30283   8.163   9.087  10.023 -0.6556 -0.4375 -0.2058
  225MOL0    Cl30284   8.327   9.091  10.098 -0.0394 -0.5614  0.4477
  225MOL0     C30285   7.242   8.955  10.193  0.4264 -0.7108  0.3468
  225MOL0     C30286   7.126   8.964  10.120  0.5554  0.2768  0.2087
  225MOL0     O30287   6.821   8.967  10.192 -0.0296 -0.1089  0.5041
  225MOL0     C30288   6.582   8.999  10.083 -0.2480  0.3074 -0.0422
  225MOL0     C30289   6.462   8.985  10.017  0.2073  1.1476  0.2325
  225MOL0     N30290   5.911   8.697   9.818 -0.4944  1.0539  0.4438
  225MOL0     N30291   5.835   8.737   9.916 -0.7082 -0.0262  0.1158
  225MOL0     C30292   5.061   9.106  10.624  0.0573 -0.6859  0.3964
  225MOL0     C30293   4.928   9.057  10.612 -1.0922  0.2709  0.4469
  225MOL0     C30294   4.594   8.820  10.429 -0.1646 -0.4576  0.5073
  225MOL0     C30295   4.514   8.787  10.542 -0.6719 -0.2931 -0.6115
  225MOL0     C30296   4.388   8.739  10.544  0.5604  0.5230 -0.2258
  225MOL0     C30297   4.322   8.724  10.427 -0.3085 -0.2238  1.0399
  225MOL0     O30298   4.198   8.669  10.428  0.1529 -0.0802  0.0614
  225MOL0     C30299   4.090   8.706  10.343 -0.9212  0.3115 -0.7140
  225MOL0     C30300   3.951   8.669  10.406  0.1317  0.5199 -0.8255
  225MOL0     C30301   3.953   8.717  10.556 -0.5789  0.0740 -0.0986
  225MOL0     C30302   3.815   8.721  10.608  0.7667  0.2900 -0.0465
  225MOL0     C30303   3.768   8.599  10.679 -0.0256  0.3793  0.8157
  225MOL0     C30304   3.732   8.517  10.757 -0.9013  0.7397 -0.6621
  225MOL0     C30305   4.390   8.746  10.307  0.3972 -0.3271  0.5255
  225MOL0     C30306   4.529   8.786  10.300  0.2257  0.9253 -0.1925
  225MOL0     C30307   4.596   8.783  10.168  0.8889  0.5803 -0.2927
  225MOL0     H30308   5.022   8.727  10.556 -0.0609 -0.1443  0.3881
  225MOL0     H30309   5.246   8.827  10.564  2.0810  2.6592 -2.6025
  225MOL0     H30310   5.300   9.232  10.477  2.5480 -0.4643 -0.9419
  225MOL0     H30311   5.307   9.271  10.652  0.1350  0.3324 -0.3501
  225MOL0     H30312   5.543   9.189  10.654  0.0907 -4.0915 -0.6729
  225MOL0     H30313   5.523   9.306  10.527  1.3754 -1.1923 -0.8310
  225MOL0     H30314   5.448   9.088  10.383  0.2651  0.6010 -2.0777
  225MOL0     H30315   5.547   9.014  10.489 -1.6550 -0.1556 -1.1221
  225MOL0     H30316   5.630   9.269  10.326  0.2528  2.0721  2.4137
  225MOL0     H30317   5.728   9.165  10.434 -1.5859 -0.5649  0.6764
  225MOL0     H30318   5.670   8.970  10.282  0.4098 -0.6095 -0.5117
  225MOL0     H30319   5.583   9.087  10.175 -1.0876 -0.5895  0.7415
  225MOL0     H30320   5.792   9.198  10.136  3.8437  0.4299  1.1808
  225MOL0     H30321   5.864   9.123  10.281 -0.8239 -2.5451  0.7342
  225MOL0     H30322   5.852   8.912  10.179 -2.3167  1.8143  2.0040
  225MOL0     H30323   5.945   9.018  10.065 -0.1739 -0.5904 -0.1844
  225MOL0     H30324   5.667   8.905  10.026  0.0267  0.0198 -1.4063
  225MOL0     H30325   5.710   9.048   9.944  0.9013  2.3746  0.8661
  225MOL0     H30326   5.949   9.012   9.766 -0.2474  0.7268  0.4295
  225MOL0     H30327   6.032   8.728   9.552  1.9009  0.4277 -1.2302
  225MOL0     H30328   6.047   8.893   9.572 -2.7826 -1.5067 -1.7321
  225MOL0     H30329   6.205   8.759   9.779 -0.9854 -0.1559 -0.7383
  225MOL0     H30330   6.222   8.654   9.634  0.4630  0.3824 -2.9373
  225MOL0     H30331   6.306   8.866   9.502  3.1940  3.7148 -0.2897
  225MOL0     H30332   6.408   8.786   9.618 -0.1965  0.4282  1.1672
  225MOL0     H30333   6.207   9.017   9.664 -0.0447  1.6888  0.8729
  225MOL0     H30334   6.373   9.054   9.634  0.6951 -0.1118  1.6312
  225MOL0     H30335   6.580   9.060   9.701  0.3840  0.2294 -0.0883
  225MOL0     H30336   6.773   9.091   9.829  0.1160  0.9791  1.1173
  225MOL0     H30337   7.030   9.284  10.180  1.7389  0.8298 -0.7210
  225MOL0     H30338   7.217   9.280  10.327  2.0722 -0.0672  0.6774
  225MOL0     H30339   7.500   9.227  10.303  0.1348 -3.3224 -3.4791
  225MOL0     H30340   7.420   9.221  10.460 -0.6559  0.0303 -1.0913
  225MOL0     H30341   7.654   9.183  10.503  0.7964 -2.5076  0.9633
  225MOL0     H30342   7.593   9.033  10.528  1.4528 -2.3266 -1.8754
  225MOL0     H30343   7.651   8.987  10.273  0.2664 -1.7907  2.0348
  225MOL0     H30344   7.727   9.152  10.275 -0.9965  1.1677  1.3893
  225MOL0     H30345   7.794   8.922  10.472  1.1299 -1.4531  0.0430
  225MOL0     H30346   7.881   9.063  10.465 -3.6198  2.6940  0.5123
  225MOL0     H30347   7.858   8.890  10.202  0.2698 -0.7382 -1.1313
  225MOL0     H30348   7.981   8.865  10.330 -2.8184 -1.1968 -0.1884
  225MOL0     H30349   7.928   9.132  10.198  0.5884  1.1586  0.1906
  225MOL0     H30350   8.074   9.087  10.288  0.5350  1.1222 -0.6921
  225MOL0     H30351   7.978   9.005  10.008  2.4101 -2.1156 -3.8900
  225MOL0     H30352   8.090   8.896  10.095 -4.0594 -0.7328  2.1010
  225MOL0     H30353   8.163   9.064   9.916  0.6895 -1.7770  0.0516
  225MOL0     H30354   8.125   9.189  10.016 -0.4749 -0.4440 -1.5585
  225MOL0     H30355   7.304   8.866  10.193 -0.2795 -1.2088  0.4114
  225MOL0     H30356   7.093   8.889  10.049 -2.5921  0.6018  1.1617
  225MOL0     H30357   6.583   8.989  10.191  1.3497  3.0878  0.2986
  225MOL0     H30358   6.374   8.964  10.076 -1.0971 -2.0244 -2.4908
  225MOL0     H30359   5.061   9.208  10.662  1.1118 -0.3069 -0.5741
  225MOL0     H30360   4.846   9.128  10.623  0.1304  2.2411 -2.0322
  225MOL0     H30361   4.560   8.808  10.638  0.8470 -0.5639 -1.2463
  225MOL0     H30362   4.342   8.717  10.639  0.6919  1.2774  0.0155
  225MOL0     H30363   4.091   8.655  10.246 -0.0149  0.8681 -1.0149
  225MOL0     H30364   4.101   8.814  10.339 -2.1265  0.4113 -1.6882
  225MOL0     H30365   3.937   8.560  10.401  3.7460 -0.1203  0.4050
  225MOL0     H30366   3.865   8.720  10.360 -0.9599  0.1708  0.7619
  225MOL0     H30367   3.999   8.816  10.564 -0.4959 -0.0823  1.9550
  225MOL0     H30368   4.015   8.641  10.603 -0.0799  0.8130  0.4629
  225MOL0     H30369   3.813   8.804  10.680 -1.9415 -1.5187  2.1939
  225MOL0     H30370   3.743   8.738  10.527  3.0384 -0.1635 -2.2946
  225MOL0     H30371   3.716   8.443  10.833 -0.7514  1.7126  0.3314
  225MOL0     H30372   4.337   8.728  10.214  0.6492 -1.3530  0.5748
  225MOL0     H30373   4.642   8.878  10.138 -0.0529  1.0442 -0.3038
  225MOL0     H30374   4.678   8.712  10.179  1.5687  1.2530 -0.9136
  225MOL0     H30375   4.525   8.743  10.095 -2.0171  3.0976  0.9087
  226MOL0     O30376   4.273   3.105   8.706 -0.4154 -0.1103  0.1190
  226MOL0     C30377   4.196   3.011   8.735 -1.2751 -0.1592  0.6599
  226MOL0     O30378   4.242   2.895   8.798  0.2472 -0.1808 -0.2151
  226MOL0     C30379   4.380   2.865   8.802  0.2036  0.3996  0.5148
  226MOL0     C30380   4.428   2.808   8.918 -0.1743  0.2290  0.3610
  226MOL0     C30381   4.567   2.771   8.923  0.5400 -0.4087  0.4996
  226MOL0     C30382   4.663   2.814   8.835 -0.3228  0.2961  0.1001
  226MOL0     O30383   4.797   2.782   8.854  0.2831  0.2515  0.9817
  226MOL0     C30384   4.850   2.769   8.992  0.0861  0.0136  0.9727
  226MOL0     C30385   4.999   2.732   8.970 -0.6310  0.8884 -0.5486
  226MOL0     C30386   5.084   2.720   9.101 -0.2975  0.6352 -0.4646
  226MOL0     C30387   5.227   2.686   9.071  0.5889 -0.1136 -0.3641
  226MOL0     C30388   5.308   2.643   9.197 -0.1403  0.2817  0.2556
  226MOL0     C30389   5.464   2.646   9.168 -0.0303  0.2055 -0.3308
  226MOL0     C30390   5.531   2.595   9.286 -0.2755  0.5868  0.9824
  226MOL0     C30391   5.681   2.626   9.289 -0.9931  0.9784  0.9161
  226MOL0     N30392   5.729   2.585   9.420  0.1740 -0.6347  0.0308
  226MOL0     C30393   5.792   2.677   9.498 -0.5261 -0.2038 -0.1367
  226MOL0     C30394   5.843   2.610   9.605  0.3456 -0.5411 -0.4235
  226MOL0     C30395   5.935   2.679   9.701 -0.5610  0.3012  0.3275
  226MOL0     C30396   6.066   2.720   9.629  0.2628 -0.0773  0.5557
  226MOL0     C30397   6.175   2.743   9.733 -1.4231  0.2540 -0.7064
  226MOL0     C30398   6.280   2.848   9.691  0.6076 -0.6278 -1.1927
  226MOL0     O30399   6.378   2.770   9.618 -0.0908  0.0373 -0.7348
  226MOL0     C30400   6.480   2.836   9.555 -0.3364  0.0618 -0.0927
  226MOL0     C30401   6.518   2.972   9.569 -0.1936 -1.0235  0.3606
  226MOL0     C30402   6.628   3.029   9.509 -0.0146  0.4554 -0.8551
  226MOL0     C30403   6.708   2.949   9.417 -0.3345 -0.6731 -0.5009
  226MOL0     C30404   6.838   2.996   9.361  0.3618  0.4375  0.3367
  226MOL0     O30405   6.901   2.916   9.268 -0.9205  0.3738 -0.6388
  226MOL0     C30406   7.002   2.974   9.197  0.5213 -0.2028  0.3516
  226MOL0     C30407   7.007   2.985   9.060  0.8076 -0.2761  0.0927
  226MOL0     C30408   7.112   3.055   8.998 -0.0246  0.1832  0.5510
  226MOL0     C30409   7.223   3.100   9.073 -0.7198 -0.3118  0.6886
  226MOL0     O30410   7.332   3.173   9.017  0.8937  0.1433 -0.1129
  226MOL0     C30411   7.330   3.217   8.879  0.5907  0.4490 -0.7370
  226MOL0     C30412   7.237   3.337   8.866  0.7415  0.3766 -1.0302
  226MOL0     C30413   7.231   3.380   8.722  0.5643  0.4514  0.5649
  226MOL0     C30414   7.085   3.392   8.672  0.3056 -0.1717  0.4365
  226MOL0     C30415   7.015   3.265   8.630  0.9812 -0.7524  0.4428
  226MOL0     C30416   6.891   3.281   8.541  0.3278 -0.9044  0.9174
  226MOL0     C30417   6.904   3.381   8.427 -0.1945 -0.0761  0.0642
  226MOL0     C30418   6.785   3.388   8.323  0.2286 -0.1351  0.1850
  226MOL0    Cl30419   6.635   3.446   8.404  0.0672  0.1596  0.2357
  226MOL0     C30420   7.229   3.059   9.207  0.7365  0.3966 -0.1174
  226MOL0     C30421   7.117   3.003   9.274 -0.2336 -0.9000 -0.2000
  226MOL0     O30422   6.881   3.105   9.407 -0.0968  0.1358  0.3270
  226MOL0     C30423   6.658   2.825   9.387  0.6236  0.0612 -0.3003
  226MOL0     C30424   6.555   2.762   9.460 -0.0459  0.1855 -0.6124
  226MOL0     N30425   5.796   2.487   9.596 -0.2804 -0.3607  0.5903
  226MOL0     N30426   5.737   2.465   9.487  0.5091 -0.1436  0.0304
  226MOL0     C30427   4.612   2.867   8.714 -0.2785 -0.7698  0.2437
  226MOL0     C30428   4.472   2.889   8.691  0.2398 -0.1792 -0.5222
  226MOL0     C30429   4.061   3.053   8.754  0.5769 -0.3159  0.1576
  226MOL0     C30430   3.984   3.004   8.865  0.8772 -0.4282  0.4718
  226MOL0     C30431   3.850   3.042   8.877  0.2276  0.5139 -0.2405
  226MOL0     C30432   3.789   3.128   8.784  0.3020 -0.2682  0.5125
  226MOL0     O30433   3.663   3.191   8.795 -0.2054  0.0884 -0.6214
  226MOL0     C30434   3.597   3.163   8.917 -0.7476  0.0211  0.4055
  226MOL0     C30435   3.502   3.273   8.949  0.6308 -0.3326 -0.1585
  226MOL0     C30436   3.387   3.223   9.039 -0.5827 -0.3562 -0.2758
  226MOL0     C30437   3.275   3.331   9.070  0.8867 -0.4263  0.1443
  226MOL0     C30438   3.317   3.432   9.168  0.0098  0.1329  0.4297
  226MOL0     C30439   3.350   3.535   9.227  0.0298 -0.3447  0.0409
  226MOL0     C30440   3.855   3.165   8.667  0.2266 -0.2821 -0.3290
  226MOL0     C30441   3.994   3.130   8.651  0.3970  0.3510 -0.1917
  226MOL0     C30442   4.056   3.184   8.519 -0.2612 -0.3831 -0.2468
  226MOL0     H30443   4.376   2.778   9.008  3.0239 -1.5039  1.8258
  226MOL0     H30444   4.595   2.719   9.014  0.0859 -0.1225  0.8040
  226MOL0     H30445   4.836   2.866   9.040  1.6389  2.3844 -2.8602
  226MOL0     H30446   4.808   2.687   9.051 -2.2202  0.4012 -0.0359
  226MOL0     H30447   5.046   2.811   8.912  0.1931  0.6527 -0.2130
  226MOL0     H30448   4.997   2.642   8.908 -1.3337  0.9817 -0.6756
  226MOL0     H30449   5.039   2.650   9.171 -1.5400 -0.5296 -2.3442
  226MOL0     H30450   5.088   2.817   9.152  1.6398 -0.1577  1.0161
  226MOL0     H30451   5.233   2.606   8.997 -0.2037  0.4690 -1.0718
  226MOL0     H30452   5.268   2.779   9.030  1.8370 -0.4217  0.1502
  226MOL0     H30453   5.278   2.708   9.280 -0.4994 -0.0109  0.3583
  226MOL0     H30454   5.287   2.542   9.231  0.9265 -0.3705 -0.9224
  226MOL0     H30455   5.497   2.601   9.074  0.8286 -0.3170  0.2073
  226MOL0     H30456   5.505   2.747   9.158  2.9977 -0.8470  0.6195
  226MOL0     H30457   5.507   2.489   9.298  1.7869 -0.2576 -1.5075
  226MOL0     H30458   5.470   2.636   9.367 -4.1218 -2.5410 -0.0018
  226MOL0     H30459   5.734   2.569   9.213 -2.2540 -0.9299  1.4044
  226MOL0     H30460   5.701   2.733   9.277  1.0380  0.8123  2.3438
  226MOL0     H30461   5.812   2.782   9.476 -1.5283 -0.3944 -2.2173
  226MOL0     H30462   5.878   2.745   9.766 -1.0647 -1.9303  2.3122
  226MOL0     H30463   5.962   2.604   9.776 -0.2324  3.9790  4.2701
  226MOL0     H30464   6.091   2.640   9.559 -0.0366 -1.0349  1.5124
  226MOL0     H30465   6.055   2.817   9.580 -3.0146  0.1181  1.4095
  226MOL0     H30466   6.232   2.650   9.735  0.3038  1.2657  1.0705
  226MOL0     H30467   6.139   2.758   9.835 -0.3741 -3.1446  0.2850
  226MOL0     H30468   6.330   2.889   9.779  0.2066 -0.0777 -1.2166
  226MOL0     H30469   6.224   2.927   9.639  3.1042  1.8381 -0.3812
  226MOL0     H30470   6.447   3.041   9.613  2.4073  2.9110 -1.0817
  226MOL0     H30471   6.663   3.130   9.528  0.3858 -0.0523  1.3807
  226MOL0     H30472   6.930   2.944   8.995 -0.4906  1.9544  0.1173
  226MOL0     H30473   7.105   3.067   8.890 -0.8310 -2.5654  0.2276
  226MOL0     H30474   7.429   3.246   8.843  0.3991  1.2514 -0.6346
  226MOL0     H30475   7.298   3.131   8.820  0.9606 -0.1946 -0.0186
  226MOL0     H30476   7.138   3.305   8.899  1.2051 -1.8813 -1.6599
  226MOL0     H30477   7.273   3.416   8.933  0.5932 -0.2658 -0.1739
  226MOL0     H30478   7.284   3.475   8.727  1.2140  0.1264  0.0689
  226MOL0     H30479   7.272   3.309   8.650 -1.4973 -0.1274 -0.1227
  226MOL0     H30480   7.101   3.443   8.576  0.1816 -1.1152 -0.0956
  226MOL0     H30481   7.022   3.453   8.737 -2.1358 -1.9782 -0.0838
  226MOL0     H30482   6.980   3.207   8.716 -2.0224  2.3192  1.4727
  226MOL0     H30483   7.094   3.211   8.576 -0.1952 -1.8357 -0.2441
  226MOL0     H30484   6.883   3.177   8.506  0.9972 -0.4411 -0.7111
  226MOL0     H30485   6.805   3.308   8.603 -0.0987 -1.3094  0.5149
  226MOL0     H30486   7.002   3.384   8.378  1.3444  3.5064  2.8080
  226MOL0     H30487   6.912   3.479   8.475  2.3870 -0.7511  1.2040
  226MOL0     H30488   6.808   3.455   8.240 -2.2721  1.7254  0.9080
  226MOL0     H30489   6.781   3.285   8.284 -1.9276 -0.5178  1.3033
  226MOL0     H30490   7.315   3.086   9.267  0.0283 -1.0267  1.6209
  226MOL0     H30491   7.124   2.985   9.381 -0.4680 -0.3514 -0.0923
  226MOL0     H30492   6.708   2.780   9.302  1.8611  3.7673 -1.7231
  226MOL0     H30493   6.507   2.669   9.433 -2.0774  0.1304  2.6368
  226MOL0     H30494   4.688   2.902   8.645 -0.0441  2.1825  1.8427
  226MOL0     H30495   4.443   2.931   8.595 -0.3512  1.8437  0.4947
  226MOL0     H30496   4.019   2.940   8.944 -2.3566 -0.6838  1.8776
  226MOL0     H30497   3.790   3.000   8.957  0.8201 -0.7528 -0.4334
  226MOL0     H30498   3.664   3.159   9.004  1.0127 -0.9360 -0.9378
  226MOL0     H30499   3.550   3.065   8.910  0.3575 -0.7791  2.7854
  226MOL0     H30500   3.448   3.308   8.860 -3.7935 -0.4396  2.2064
  226MOL0     H30501   3.546   3.365   8.989  1.0762 -0.0639 -1.2314
  226MOL0     H30502   3.429   3.188   9.133  1.1810 -2.3743 -1.7171
  226MOL0     H30503   3.344   3.135   8.991 -0.6936 -0.9527  0.8927
  226MOL0     H30504   3.243   3.366   8.972  1.3038 -2.4958 -0.7822
  226MOL0     H30505   3.187   3.278   9.108 -1.2815  3.1765  0.5602
  226MOL0     H30506   3.345   3.620   9.291  0.2012  1.1944 -1.8787
  226MOL0     H30507   3.797   3.227   8.601 -1.1496 -0.8816  0.2738
  226MOL0     H30508   3.974   3.196   8.448 -0.1987  1.7442 -0.0103
  226MOL0     H30509   4.093   3.285   8.538  0.7382 -0.3923 -1.9316
  226MOL0     H30510   4.138   3.117   8.490  1.1293 -0.2989  3.0614
  227MOL0     O30511   3.446   0.666   7.583 -0.4473 -0.2758  0.0923
  227MOL0     C30512   3.505   0.731   7.497 -0.9440 -0.8953  0.0204
  227MOL0     O30513   3.643   0.714   7.465  0.2725 -0.1767  0.1943
  227MOL0     C30514   3.701   0.592   7.493  0.2031 -1.1986  0.0096
  227MOL0     C30515   3.783   0.531   7.387  0.3421  0.1996  0.0022
  227MOL0     C30516   3.835   0.406   7.403  0.0685  0.5478 -0.4920
  227MOL0     C30517   3.807   0.332   7.517  0.0848 -0.1905  0.3364
  227MOL0     O30518   3.839   0.197   7.517 -0.2440 -0.4317  0.2037
  227MOL0     C30519   3.788   0.124   7.623 -0.1849  0.9208  0.0104
  227MOL0     C30520   3.800  -0.022   7.612 -0.2976  0.6343  0.9809
  227MOL0     C30521   3.931  -0.066   7.550 -0.0558  0.0694  0.1996
  227MOL0     C30522   3.927  -0.218   7.561  0.0115 -0.1133 -0.1326
  227MOL0     C30523   4.039  -0.295   7.482 -1.1888  0.2988 -0.2691
  227MOL0     C30524   4.031  -0.274   7.333 -0.3468 -0.6336  0.0160
  227MOL0     C30525   4.139  -0.351   7.255  0.4368 -0.4923 -0.2738
  227MOL0     C30526   4.168  -0.287   7.121  0.3183  0.2749  0.5928
  227MOL0     N30527   4.285  -0.185   7.119  0.1518  0.3394  0.6616
  227MOL0     C30528   4.409  -0.198   7.181 -0.8686  0.2565 -0.1771
  227MOL0     C30529   4.467  -0.084   7.181 -0.4020  0.5200  1.0392
  227MOL0     C30530   4.598  -0.055   7.239  0.4151  0.1758  0.1423
  227MOL0     C30531   4.626   0.099   7.237 -0.9464 -0.6826 -0.5609
  227MOL0     C30532   4.732   0.152   7.343 -0.6163  0.3201  1.1126
  227MOL0     C30533   4.803   0.272   7.288 -0.6466  0.0659  0.7384
  227MOL0     O30534   4.887   0.327   7.387  0.0482  0.7646  0.0142
  227MOL0     C30535   5.021   0.351   7.360 -0.1906 -0.1838 -1.1003
  227MOL0     C30536   5.115   0.288   7.438 -0.1507  0.0156  0.1044
  227MOL0     C30537   5.251   0.295   7.421 -0.2663  0.1648  0.4201
  227MOL0     C30538   5.300   0.394   7.328 -0.2515 -0.0337 -0.1748
  227MOL0     C30539   5.442   0.417   7.332 -0.4606 -0.2902 -0.1571
  227MOL0     O30540   5.517   0.343   7.417 -0.0801  0.0237  0.0683
  227MOL0     C30541   5.657   0.354   7.418  0.2101  0.3034  0.6472
  227MOL0     C30542   5.728   0.235   7.412  0.0315 -0.1387  0.7281
  227MOL0     C30543   5.867   0.241   7.436  0.6746  0.6252 -0.8115
  227MOL0     C30544   5.931   0.367   7.463  0.1045 -0.5622  1.4204
  227MOL0     O30545   6.067   0.353   7.485  0.4408 -0.4566 -0.2546
  227MOL0     C30546   6.143   0.462   7.533 -0.3904 -0.0773  0.2006
  227MOL0     C30547   6.211   0.529   7.411 -0.8896 -0.3049 -0.1946
  227MOL0     C30548   6.372   0.514   7.408  0.1603 -0.3799  0.4563
  227MOL0     C30549   6.443   0.552   7.535 -0.4297 -0.2994 -0.1640
  227MOL0     C30550   6.545   0.456   7.594 -0.0480  0.2666  0.6873
  227MOL0     C30551   6.675   0.454   7.510  0.5159 -0.4397  0.0599
  227MOL0     C30552   6.804   0.514   7.580 -0.4758  0.1677 -0.3792
  227MOL0     C30553   6.922   0.488   7.488  0.1496  0.0327  0.6147
  227MOL0    Cl30554   7.075   0.542   7.565 -0.1182  0.2977 -0.1856
  227MOL0     C30555   5.860   0.487   7.461  0.3568 -0.6778  0.2103
  227MOL0     C30556   5.721   0.482   7.443 -0.0916  0.1886 -0.1866
  227MOL0     O30557   5.483   0.505   7.253  0.4329  0.7708  0.3647
  227MOL0     C30558   5.214   0.470   7.257 -0.0282 -0.3248 -1.0425
  227MOL0     C30559   5.072   0.451   7.268  1.3942  0.2926  0.3962
  227MOL0     N30560   4.392  -0.006   7.096  0.5497 -0.4619 -0.3060
  227MOL0     N30561   4.278  -0.059   7.071  0.2001  0.6889  0.6206
  227MOL0     C30562   3.742   0.392   7.628 -0.1117 -0.2302 -0.8549
  227MOL0     C30563   3.686   0.516   7.612  0.3053 -0.0808 -0.4821
  227MOL0     C30564   3.429   0.811   7.408  1.0795 -0.0294  1.0004
  227MOL0     C30565   3.505   0.858   7.294  0.0155  0.8576  0.2946
  227MOL0     C30566   3.441   0.919   7.178  0.4761  0.2767 -0.1924
  227MOL0     C30567   3.301   0.946   7.185 -0.2967 -0.8222 -0.0505
  227MOL0     O30568   3.222   1.011   7.094  0.2804  0.4260 -0.4618
  227MOL0     C30569   3.276   1.062   6.973 -0.8898  0.3418 -0.0334
  227MOL0     C30570   3.183   1.163   6.904  0.8706  1.0717  0.0392
  227MOL0     C30571   3.256   1.236   6.782  0.6589  0.2436  0.2505
  227MOL0     C30572   3.255   1.155   6.657 -0.6986  1.2520 -0.7694
  227MOL0     C30573   3.111   1.147   6.601  0.3277  0.5136 -0.8205
  227MOL0     C30574   3.010   1.138   6.529 -0.7334  0.0039 -0.1808
  227MOL0     C30575   3.231   0.914   7.299 -0.7676 -0.0811  0.0192
  227MOL0     C30576   3.287   0.842   7.407  0.0239 -0.3146 -0.3839
  227MOL0     C30577   3.195   0.796   7.509  0.3098  0.5373  0.3226
  227MOL0     H30578   3.790   0.578   7.289 -0.7474 -1.6039 -1.0200
  227MOL0     H30579   3.887   0.353   7.324  2.0797  1.8166 -0.0912
  227MOL0     H30580   3.830   0.147   7.721 -0.5884  0.7941  0.2181
  227MOL0     H30581   3.679   0.138   7.625 -0.3119 -0.0906  1.6194
  227MOL0     H30582   3.724  -0.057   7.542  0.9259  1.0556 -0.6497
  227MOL0     H30583   3.792  -0.075   7.707  1.0043  0.4285  0.9927
  227MOL0     H30584   4.017  -0.036   7.611 -0.1325 -0.5376  0.6239
  227MOL0     H30585   3.938  -0.032   7.446  0.7330 -4.1430 -1.3648
  227MOL0     H30586   3.945  -0.243   7.666 -1.7205  1.9586  0.7513
  227MOL0     H30587   3.833  -0.261   7.524 -1.0696  4.3458 -3.4751
  227MOL0     H30588   4.143  -0.273   7.508 -0.4438 -2.1807 -0.8846
  227MOL0     H30589   4.029  -0.404   7.494  0.7070 -0.1641 -2.3669
  227MOL0     H30590   3.931  -0.292   7.295 -0.7829  1.3807  0.1171
  227MOL0     H30591   4.061  -0.170   7.316  1.4244 -1.3545 -1.8171
  227MOL0     H30592   4.099  -0.452   7.242 -0.9279  0.0367 -0.3204
  227MOL0     H30593   4.234  -0.359   7.309  0.2951  0.6703  0.1676
  227MOL0     H30594   4.211  -0.367   7.060  0.2282  2.2732 -2.3005
  227MOL0     H30595   4.076  -0.247   7.078  0.1907 -1.0436 -0.4206
  227MOL0     H30596   4.456  -0.286   7.224  1.0465  2.5344  2.8202
  227MOL0     H30597   4.599  -0.104   7.337 -1.7458 -1.7124 -0.6808
  227MOL0     H30598   4.673  -0.110   7.181  0.4418  1.3433 -0.9914
  227MOL0     H30599   4.649   0.143   7.140 -0.8325  2.5530  0.8105
  227MOL0     H30600   4.533   0.147   7.268  1.4523  2.2515  2.9266
  227MOL0     H30601   4.810   0.076   7.353 -0.7734  0.2983  2.2194
  227MOL0     H30602   4.680   0.173   7.437 -0.9244  0.2091  0.9681
  227MOL0     H30603   4.725   0.344   7.260 -0.5922 -0.8420 -1.9881
  227MOL0     H30604   4.852   0.234   7.198  2.4901  1.8252  1.5455
  227MOL0     H30605   5.083   0.216   7.513 -3.0216  1.9800  0.9195
  227MOL0     H30606   5.305   0.225   7.484 -2.3597 -0.7071  1.3635
  227MOL0     H30607   5.677   0.140   7.399  4.5897 -2.7936  0.0448
  227MOL0     H30608   5.929   0.152   7.428  2.2885  1.2561  2.7484
  227MOL0     H30609   6.080   0.534   7.587  0.5280  0.2625  0.8265
  227MOL0     H30610   6.219   0.422   7.600  3.5353  3.9400 -1.3912
  227MOL0     H30611   6.159   0.495   7.321  1.1149 -0.7747 -1.2197
  227MOL0     H30612   6.192   0.635   7.428  0.0985 -0.4911  2.6004
  227MOL0     H30613   6.403   0.410   7.397  0.7795 -0.1610  0.0911
  227MOL0     H30614   6.417   0.572   7.327 -0.8511 -1.1494 -0.6879
  227MOL0     H30615   6.370   0.578   7.612 -2.3304  1.1146 -2.3331
  227MOL0     H30616   6.490   0.650   7.521 -0.8400 -0.2666 -1.4030
  227MOL0     H30617   6.489   0.363   7.600 -0.9690  0.8181  0.8755
  227MOL0     H30618   6.569   0.501   7.691 -2.2396 -0.8364  1.8070
  227MOL0     H30619   6.687   0.350   7.479 -0.9191 -0.4475 -0.5521
  227MOL0     H30620   6.659   0.507   7.415 -0.3090 -1.6622 -0.5125
  227MOL0     H30621   6.820   0.465   7.677 -0.0976 -0.6723 -0.8539
  227MOL0     H30622   6.787   0.615   7.620  1.4513 -0.9546  3.8118
  227MOL0     H30623   6.922   0.379   7.478  0.2117  0.1148 -0.3220
  227MOL0     H30624   6.897   0.529   7.390 -2.0512  0.2857  1.2309
  227MOL0     H30625   5.911   0.581   7.478  0.2041 -0.3010 -1.3024
  227MOL0     H30626   5.668   0.576   7.448 -0.4119 -0.0131  0.1995
  227MOL0     H30627   5.252   0.553   7.199 -1.3596  1.8024  1.0025
  227MOL0     H30628   5.000   0.519   7.224 -0.0121 -1.4673 -0.1051
  227MOL0     H30629   3.721   0.344   7.723 -1.3680  1.0383 -0.4538
  227MOL0     H30630   3.630   0.557   7.696  1.9331 -0.6252  0.9452
  227MOL0     H30631   3.612   0.840   7.291 -0.3572 -1.5315 -0.8340
  227MOL0     H30632   3.514   0.945   7.102  0.8516  1.4144  0.5294
  227MOL0     H30633   3.305   0.971   6.920 -4.0196 -2.1130  2.0562
  227MOL0     H30634   3.368   1.119   6.983  0.4136 -1.1904 -2.3253
  227MOL0     H30635   3.148   1.237   6.977  0.3706  0.9333 -0.0563
  227MOL0     H30636   3.096   1.102   6.877  2.2857 -0.9903 -0.1427
  227MOL0     H30637   3.359   1.264   6.806  2.0240 -3.3665 -0.6637
  227MOL0     H30638   3.192   1.322   6.762 -0.7141 -0.5998  0.7976
  227MOL0     H30639   3.331   1.190   6.586  2.2375 -0.9443  1.0358
  227MOL0     H30640   3.288   1.054   6.683 -5.6588 -1.0601 -2.2954
  227MOL0     H30641   2.931   1.122   6.459 -0.3141  0.0519 -0.6695
  227MOL0     H30642   3.124   0.927   7.291 -0.9165  0.4319  2.2305
  227MOL0     H30643   3.229   0.819   7.611 -1.6696  0.7955  0.9721
  227MOL0     H30644   3.098   0.846   7.500  0.5552  0.8428 -0.6301
  227MOL0     H30645   3.179   0.691   7.483  2.4233 -0.0909  1.3603
  228MOL0     O30646   3.183   5.637   1.859 -0.6743 -0.2415  0.5673
  228MOL0     C30647   3.103   5.684   1.778  0.5251 -0.3502 -0.2744
  228MOL0     O30648   3.102   5.815   1.742  0.0095 -0.1192  0.2359
  228MOL0     C30649   3.218   5.884   1.736 -0.1504  0.1879  0.2897
  228MOL0     C30650   3.263   5.926   1.614 -0.1359  0.5714 -0.1514
  228MOL0     C30651   3.383   5.999   1.599  0.5876 -0.0293  0.1970
  228MOL0     C30652   3.452   6.035   1.713  0.2606  0.1831 -0.0283
  228MOL0     O30653   3.562   6.114   1.689 -0.3415 -0.1187 -0.2234
  228MOL0     C30654   3.613   6.190   1.798  0.0745  0.0706  0.0034
  228MOL0     C30655   3.692   6.315   1.754 -0.1498  0.2474  0.4174
  228MOL0     C30656   3.835   6.324   1.814  0.7850  0.5314 -0.2627
  228MOL0     C30657   3.916   6.447   1.774  1.1094  0.5569  0.6038
  228MOL0     C30658   4.049   6.462   1.852  0.1236 -0.4971  0.3387
  228MOL0     C30659   4.132   6.593   1.814  0.8514 -0.0331 -0.3577
  228MOL0     C30660   4.253   6.614   1.907 -0.9751 -0.2713  0.0379
  228MOL0     C30661   4.321   6.743   1.880  0.0654  0.0308  0.6975
  228MOL0     N30662   4.445   6.777   1.954  0.2652  0.0445  0.9868
  228MOL0     C30663   4.574   6.775   1.898 -1.3063 -0.3245  0.3889
  228MOL0     C30664   4.653   6.837   1.992  0.5302 -0.2437 -0.4038
  228MOL0     C30665   4.793   6.862   1.975 -0.5509  0.4708 -0.4349
  228MOL0     C30666   4.889   6.744   1.999 -1.0033  0.4462 -1.0583
  228MOL0     C30667   4.879   6.701   2.149  0.6612  0.0499  0.4078
  228MOL0     C30668   4.960   6.570   2.170  0.2508  0.9465 -0.7012
  228MOL0     O30669   4.921   6.521   2.294  0.0563  0.0713  0.0561
  228MOL0     C30670   5.000   6.561   2.402  0.6018 -0.8680 -0.5899
  228MOL0     C30671   5.112   6.650   2.394  0.7906 -0.7143 -0.0861
  228MOL0     C30672   5.193   6.686   2.502 -0.5085  0.2463 -0.2575
  228MOL0     C30673   5.171   6.636   2.630  1.2917 -0.5506 -0.7311
  228MOL0     C30674   5.260   6.669   2.743  0.1770  1.1143  0.0179
  228MOL0     O30675   5.373   6.734   2.716 -0.3413  0.1597 -0.0880
  228MOL0     C30676   5.478   6.769   2.794  0.0335 -0.1942 -0.3574
  228MOL0     C30677   5.467   6.785   2.931  0.1341 -0.5869 -0.0148
  228MOL0     C30678   5.582   6.824   3.001  0.0230  0.1430  0.5654
  228MOL0     C30679   5.702   6.849   2.937  0.3617  0.2989  0.8171
  228MOL0     O30680   5.825   6.872   3.000  0.4392  0.3731 -0.2257
  228MOL0     C30681   5.947   6.892   2.927  0.1992 -0.2274 -1.0294
  228MOL0     C30682   6.058   6.901   3.025  0.2725 -0.6400  0.2367
  228MOL0     C30683   6.192   6.866   2.956 -1.3655  0.0384 -0.1706
  228MOL0     C30684   6.310   6.865   3.054  0.4902 -0.0114  0.1819
  228MOL0     C30685   6.430   6.816   2.975  0.6757 -0.9667 -0.5999
  228MOL0     C30686   6.569   6.825   3.040  1.0838 -0.4137 -0.6906
  228MOL0     C30687   6.682   6.789   2.944  0.4201 -0.3660  0.7615
  228MOL0     C30688   6.693   6.876   2.812 -0.3747  0.3509  0.7462
  228MOL0    Cl30689   6.762   7.035   2.852 -0.4095  0.0906 -0.2520
  228MOL0     C30690   5.701   6.841   2.795 -0.4292 -0.2622 -0.0710
  228MOL0     C30691   5.594   6.804   2.727  1.0370  0.5786 -0.3289
  228MOL0     O30692   5.228   6.627   2.851 -0.2616  0.2752 -0.7924
  228MOL0     C30693   5.058   6.555   2.635 -0.3115  1.1050  0.6122
  228MOL0     C30694   4.977   6.516   2.532 -0.2942 -0.6905 -0.5622
  228MOL0     N30695   4.562   6.888   2.087 -0.6605 -0.0349  0.5128
  228MOL0     N30696   4.451   6.839   2.072 -0.2795 -0.0144 -0.2897
  228MOL0     C30697   3.401   5.997   1.844 -0.1366 -0.5043 -0.2085
  228MOL0     C30698   3.282   5.929   1.850 -0.4661  0.0285  0.0585
  228MOL0     C30699   2.995   5.599   1.723  0.8215 -0.1647 -0.1291
  228MOL0     C30700   2.970   5.595   1.586  0.0629 -0.1257 -0.5096
  228MOL0     C30701   2.868   5.521   1.527  0.2990 -0.0670 -0.5990
  228MOL0     C30702   2.796   5.430   1.615  0.7531  0.5090 -0.4875
  228MOL0     O30703   2.698   5.336   1.567 -0.2819  0.0388  0.5744
  228MOL0     C30704   2.690   5.321   1.425  0.3514  0.9131 -0.1503
  228MOL0     C30705   2.591   5.209   1.393 -0.4558 -0.2301 -0.5228
  228MOL0     C30706   2.613   5.085   1.493 -0.0204  0.0195  0.3232
  228MOL0     C30707   2.539   4.959   1.439 -0.3808 -0.0419  0.1843
  228MOL0     C30708   2.403   4.970   1.478 -0.1670 -0.1049  0.3462
  228MOL0     C30709   2.283   4.965   1.510  0.3158  0.2924  0.4720
  228MOL0     C30710   2.812   5.441   1.752  0.3671 -0.1509  0.1690
  228MOL0     C30711   2.906   5.526   1.807  0.0244 -0.1475  0.4236
  228MOL0     C30712   2.925   5.531   1.956  0.5952  0.2500 -0.3919
  228MOL0     H30713   3.198   5.904   1.530 -0.3503 -0.2538  0.2219
  228MOL0     H30714   3.425   6.036   1.506 -0.6980 -2.0284 -1.2555
  228MOL0     H30715   3.532   6.234   1.856 -0.1780 -0.5423  0.1187
  228MOL0     H30716   3.679   6.128   1.859 -0.2692 -0.3075 -0.0082
  228MOL0     H30717   3.632   6.402   1.782  0.1828  0.5758  0.1042
  228MOL0     H30718   3.701   6.309   1.645  0.7512  1.3053  0.4246
  228MOL0     H30719   3.892   6.237   1.779 -0.4810 -0.2382 -0.4538
  228MOL0     H30720   3.824   6.304   1.921  2.7910 -1.0415 -0.2853
  228MOL0     H30721   3.953   6.427   1.673 -1.9590  2.6869 -1.0954
  228MOL0     H30722   3.854   6.537   1.774 -1.6434 -1.2325  0.8511
  228MOL0     H30723   4.032   6.451   1.960 -1.4796 -0.2460  0.1400
  228MOL0     H30724   4.108   6.376   1.821 -1.7322 -0.6680 -3.1367
  228MOL0     H30725   4.153   6.593   1.706 -0.8268  0.5842 -0.7049
  228MOL0     H30726   4.068   6.681   1.822  1.2644  0.1696  0.9627
  228MOL0     H30727   4.319   6.528   1.894  1.5644  1.8974 -3.0530
  228MOL0     H30728   4.220   6.613   2.012  0.3050  0.9103  0.4778
  228MOL0     H30729   4.343   6.755   1.773 -0.2792 -2.6170  0.2509
  228MOL0     H30730   4.257   6.825   1.913  0.0648  0.9632 -1.4308
  228MOL0     H30731   4.628   6.728   1.817  3.4576  0.7867  2.5533
  228MOL0     H30732   4.805   6.883   1.868  0.6379 -3.6395 -1.3045
  228MOL0     H30733   4.822   6.943   2.042 -1.1521 -0.1666  0.6211
  228MOL0     H30734   4.835   6.667   1.943 -2.0767  0.7848 -0.5353
  228MOL0     H30735   4.992   6.763   1.967 -0.6782  1.3253  0.4216
  228MOL0     H30736   4.773   6.682   2.165  0.5345 -1.6268 -1.9029
  228MOL0     H30737   4.917   6.784   2.209 -2.1424  3.1435 -1.8012
  228MOL0     H30738   5.067   6.579   2.152  0.5695 -0.2168  0.4443
  228MOL0     H30739   4.928   6.495   2.098  3.9501  1.3349 -2.9659
  228MOL0     H30740   5.132   6.712   2.307  2.1402 -0.6150  0.2798
  228MOL0     H30741   5.273   6.756   2.483 -0.9784  0.9134  0.1537
  228MOL0     H30742   5.378   6.753   2.985  1.1335 -3.5381  0.0402
  228MOL0     H30743   5.580   6.813   3.109 -2.4757  0.0464  0.5660
  228MOL0     H30744   5.963   6.806   2.862 -1.2057  0.4418 -2.3449
  228MOL0     H30745   5.945   6.982   2.864 -1.2890  0.4873 -0.0228
  228MOL0     H30746   6.067   6.997   3.075 -0.0672 -0.0824 -0.7450
  228MOL0     H30747   6.041   6.829   3.106 -0.1524  1.4401  2.0742
  228MOL0     H30748   6.180   6.766   2.914 -0.2246 -0.4413  0.6004
  228MOL0     H30749   6.208   6.919   2.862 -0.8110  0.6500  0.2578
  228MOL0     H30750   6.289   6.799   3.139  0.2973  2.3128  2.0242
  228MOL0     H30751   6.324   6.964   3.098  1.2410 -1.0227  2.3725
  228MOL0     H30752   6.434   6.885   2.891  1.4406  0.3671  0.4836
  228MOL0     H30753   6.411   6.713   2.942 -1.4867 -1.0167  0.6220
  228MOL0     H30754   6.594   6.921   3.086 -2.2623  0.2120  0.0519
  228MOL0     H30755   6.567   6.748   3.117  2.0316 -0.9791 -1.2094
  228MOL0     H30756   6.662   6.686   2.914 -0.3528 -0.5842  1.9568
  228MOL0     H30757   6.780   6.787   2.993  1.8267 -4.2802 -1.7378
  228MOL0     H30758   6.776   6.829   2.759 -0.3957  0.6744  0.4238
  228MOL0     H30759   6.599   6.874   2.756  1.6050  0.4098 -2.8948
  228MOL0     H30760   5.796   6.862   2.747  0.6253 -1.5359  1.3744
  228MOL0     H30761   5.589   6.804   2.618 -0.3154 -2.9794 -0.3923
  228MOL0     H30762   5.025   6.519   2.732  0.2546 -0.1382  0.3583
  228MOL0     H30763   4.902   6.441   2.553 -1.5009  0.5051 -0.4954
  228MOL0     H30764   3.449   6.027   1.936  1.3702 -0.2353 -1.0402
  228MOL0     H30765   3.249   5.897   1.949 -1.6024 -1.6226 -0.7951
  228MOL0     H30766   3.049   5.633   1.522  1.7659  1.5486  2.3385
  228MOL0     H30767   2.855   5.518   1.419  1.7037  0.7659 -0.8105
  228MOL0     H30768   2.788   5.299   1.380 -0.3042 -0.1728 -1.1025
  228MOL0     H30769   2.643   5.407   1.377  2.3222  1.8097 -0.6110
  228MOL0     H30770   2.604   5.172   1.291 -1.8785 -2.7755  0.1292
  228MOL0     H30771   2.490   5.250   1.388  0.0818  1.2214 -0.0330
  228MOL0     H30772   2.584   5.103   1.596  0.6027 -3.4672  1.2418
  228MOL0     H30773   2.721   5.076   1.483  0.3546  1.4509  2.5210
  228MOL0     H30774   2.551   4.950   1.331  0.6452 -0.5656  0.3250
  228MOL0     H30775   2.588   4.871   1.482  0.0307  1.2889  2.6490
  228MOL0     H30776   2.179   4.959   1.537 -1.1959 -1.8431 -4.5339
  228MOL0     H30777   2.744   5.389   1.819 -0.3256  0.4810 -0.0336
  228MOL0     H30778   3.019   5.479   1.978  0.8503  1.2816  1.0894
  228MOL0     H30779   2.942   5.632   1.994  1.8184  0.3909 -1.2338
  228MOL0     H30780   2.837   5.491   2.007  0.1037  1.5704 -0.1763
  229MOL0     O30781   4.890   4.652   2.417  0.1037 -0.3754 -0.0551
  229MOL0     C30782   4.864   4.706   2.522  0.4436  0.3295 -0.0777
  229MOL0     O30783   4.956   4.749   2.613 -0.7542 -0.3387 -0.3459
  229MOL0     C30784   5.089   4.787   2.570  0.6952  0.1359  0.0823
  229MOL0     C30785   5.196   4.793   2.665  0.2433  0.3199 -0.1797
  229MOL0     C30786   5.324   4.823   2.623 -0.0252  0.4227  0.3993
  229MOL0     C30787   5.347   4.869   2.494  1.1288  0.3129 -0.1467
  229MOL0     O30788   5.468   4.909   2.458 -0.4710 -0.0609 -0.2816
  229MOL0     C30789   5.514   4.845   2.333 -0.2515 -0.0393  0.9652
  229MOL0     C30790   5.581   4.955   2.242 -0.1522  0.4589 -0.7786
  229MOL0     C30791   5.667   4.899   2.126  0.3745  0.1094  0.4089
  229MOL0     C30792   5.756   5.011   2.067  0.0797 -0.3678  0.0317
  229MOL0     C30793   5.873   4.929   2.004 -0.4545 -0.6122  0.3659
  229MOL0     C30794   6.002   4.937   2.090 -1.1852 -0.5223  0.4189
  229MOL0     C30795   6.109   4.850   2.023 -0.1162 -0.4202  0.3490
  229MOL0     C30796   6.168   4.929   1.909 -0.2536  0.4233  0.4826
  229MOL0     N30797   6.240   4.854   1.810  0.4264  0.3265 -0.4029
  229MOL0     C30798   6.382   4.841   1.811  0.9000 -0.5489 -0.4135
  229MOL0     C30799   6.410   4.781   1.694  0.3510 -0.1955 -0.7350
  229MOL0     C30800   6.551   4.771   1.632  0.7683  0.4596  0.4652
  229MOL0     C30801   6.568   4.654   1.536 -0.1635  0.3328 -0.6114
  229MOL0     C30802   6.574   4.514   1.622 -0.8212  0.6563  0.2431
  229MOL0     C30803   6.697   4.423   1.604 -0.2324 -0.1774  0.5658
  229MOL0     O30804   6.797   4.491   1.689  0.2345 -0.0541  0.4677
  229MOL0     C30805   6.925   4.494   1.647  0.2224  0.4389  0.0955
  229MOL0     C30806   7.016   4.545   1.742  0.5200 -0.0145 -0.8408
  229MOL0     C30807   7.156   4.564   1.712 -0.0350 -1.0671  0.1700
  229MOL0     C30808   7.214   4.533   1.583  1.1380  0.2883 -0.3092
  229MOL0     C30809   7.354   4.557   1.543  0.1826  0.5851 -0.4431
  229MOL0     O30810   7.434   4.614   1.635 -0.6249 -0.9476 -0.3777
  229MOL0     C30811   7.566   4.621   1.602  0.4323 -0.2179  0.1793
  229MOL0     C30812   7.653   4.516   1.632  0.7672 -0.1775  0.5668
  229MOL0     C30813   7.786   4.521   1.591 -0.0267 -0.6166 -0.0832
  229MOL0     C30814   7.836   4.629   1.527  1.0086 -0.9128  0.3701
  229MOL0     O30815   7.972   4.641   1.501 -0.4365  0.3661 -0.4587
  229MOL0     C30816   8.060   4.589   1.605 -0.6049  0.5016 -0.1275
  229MOL0     C30817   8.209   4.635   1.605 -0.2779  0.4384 -0.2829
  229MOL0     C30818   8.276   4.615   1.472 -1.1846 -0.7274  0.0049
  229MOL0     C30819   8.240   4.721   1.354 -0.0480  1.1194  0.0050
  229MOL0     C30820   8.327   4.719   1.236 -0.3567  0.5130  0.4846
  229MOL0     C30821   8.468   4.780   1.247  0.2335 -0.6011  0.7919
  229MOL0     C30822   8.539   4.772   1.107 -0.0239 -0.3970 -0.0876
  229MOL0     C30823   8.683   4.825   1.099 -1.1914  0.0690  0.5797
  229MOL0    Cl30824   8.704   4.983   1.179  0.0367  0.1065  0.1767
  229MOL0     C30825   7.754   4.743   1.509 -1.2159  1.1302 -0.1679
  229MOL0     C30826   7.620   4.738   1.549 -0.5094  0.0261 -0.0438
  229MOL0     O30827   7.375   4.530   1.429 -0.5016 -0.4263  0.5832
  229MOL0     C30828   7.122   4.463   1.504  0.4772  0.2586  0.7320
  229MOL0     C30829   6.983   4.443   1.532 -0.0329  0.8317  0.5177
  229MOL0     N30830   6.293   4.772   1.627 -0.0589  0.0165 -0.2914
  229MOL0     N30831   6.191   4.799   1.692  0.4643  0.1030 -0.2037
  229MOL0     C30832   5.245   4.861   2.402 -0.5915  0.2991 -0.3722
  229MOL0     C30833   5.115   4.825   2.441 -0.9065 -0.5781  0.2873
  229MOL0     C30834   4.719   4.724   2.559 -0.3622 -0.3574  0.2765
  229MOL0     C30835   4.631   4.608   2.543 -0.1303  0.1596 -0.1302
  229MOL0     C30836   4.502   4.620   2.594  0.7069  0.1279  0.7146
  229MOL0     C30837   4.451   4.739   2.664  0.1701 -0.0276  0.5987
  229MOL0     O30838   4.337   4.727   2.734  0.3680 -0.4471 -0.2442
  229MOL0     C30839   4.322   4.800   2.855  0.0675 -0.4922 -0.2146
  229MOL0     C30840   4.241   4.724   2.962  0.3658 -1.1431 -0.3374
  229MOL0     C30841   4.113   4.668   2.899 -0.2397  0.1059 -0.7173
  229MOL0     C30842   4.019   4.638   3.008  0.3093  0.3265 -0.4372
  229MOL0     C30843   3.908   4.555   2.963  0.2851  0.2808 -0.6030
  229MOL0     C30844   3.813   4.487   2.928  0.5241  0.5035 -0.2795
  229MOL0     C30845   4.536   4.855   2.653  0.0757  0.2152 -0.2435
  229MOL0     C30846   4.669   4.841   2.615 -0.2552 -0.1503 -0.5257
  229MOL0     C30847   4.756   4.969   2.630  0.3264 -0.6580 -0.1769
  229MOL0     H30848   5.181   4.767   2.769  1.1816 -1.3285 -0.4265
  229MOL0     H30849   5.408   4.821   2.691  1.3691 -2.5509 -1.1884
  229MOL0     H30850   5.583   4.764   2.360 -1.2368 -0.3213  2.8816
  229MOL0     H30851   5.447   4.798   2.260  1.5646 -1.3025  0.0520
  229MOL0     H30852   5.637   5.023   2.307 -1.2254 -0.8024  1.5779
  229MOL0     H30853   5.494   5.006   2.199  0.8806  0.8978 -2.4402
  229MOL0     H30854   5.598   4.872   2.045 -0.9321  0.8943  1.2126
  229MOL0     H30855   5.731   4.821   2.168 -0.0424  1.4212  3.8168
  229MOL0     H30856   5.704   5.076   1.997  1.0434  0.1337 -0.2304
  229MOL0     H30857   5.791   5.078   2.146  0.1189 -1.2949  0.8277
  229MOL0     H30858   5.837   4.827   1.989  2.0968 -1.8969  2.1978
  229MOL0     H30859   5.889   4.980   1.909 -0.6100 -0.0663  0.6337
  229MOL0     H30860   6.033   5.041   2.098  1.2907 -1.1979  0.3348
  229MOL0     H30861   5.983   4.901   2.191 -1.7743 -1.2922  0.0483
  229MOL0     H30862   6.067   4.754   1.991 -0.6896 -0.3321  0.8174
  229MOL0     H30863   6.184   4.837   2.102 -0.1560  1.2680  0.6994
  229MOL0     H30864   6.090   4.989   1.861  0.5470  0.1436 -1.2564
  229MOL0     H30865   6.243   4.998   1.949  0.2949 -0.3701  0.8413
  229MOL0     H30866   6.453   4.877   1.885 -0.5668 -1.4277  1.5373
  229MOL0     H30867   6.570   4.864   1.579 -1.5569  0.9537  0.4031
  229MOL0     H30868   6.621   4.758   1.715  0.8766  0.5649  0.3903
  229MOL0     H30869   6.487   4.641   1.464  0.5987 -2.4389 -1.1042
  229MOL0     H30870   6.660   4.675   1.481  0.2408 -1.5138 -0.6952
  229MOL0     H30871   6.493   4.452   1.581  2.3847 -2.5905 -1.7785
  229MOL0     H30872   6.577   4.525   1.730  1.9050  1.4967  0.1507
  229MOL0     H30873   6.723   4.407   1.499 -0.6269 -2.3370  0.7613
  229MOL0     H30874   6.688   4.322   1.645 -0.0072 -1.0832 -1.4627
  229MOL0     H30875   6.985   4.605   1.827  2.3501  0.4101 -0.4220
  229MOL0     H30876   7.229   4.600   1.784 -0.0767 -0.9726  0.1645
  229MOL0     H30877   7.600   4.435   1.682 -0.1196 -1.3019 -2.0213
  229MOL0     H30878   7.851   4.436   1.611 -0.6525 -0.5218  2.7954
  229MOL0     H30879   8.016   4.597   1.705  2.4051 -0.9913  1.4536
  229MOL0     H30880   8.072   4.481   1.594 -3.6605  0.0555  0.1212
  229MOL0     H30881   8.204   4.739   1.637 -0.5905  0.2480  0.3024
  229MOL0     H30882   8.260   4.568   1.676  0.7331  1.8536  0.3915
  229MOL0     H30883   8.382   4.628   1.495 -1.5446  0.8769  0.9001
  229MOL0     H30884   8.263   4.511   1.441  1.2304 -1.6598  1.7928
  229MOL0     H30885   8.248   4.824   1.390  3.9884  0.3997  1.7859
  229MOL0     H30886   8.139   4.707   1.317  1.4027  0.6253 -4.3738
  229MOL0     H30887   8.276   4.780   1.161 -0.7436 -0.5553 -0.1465
  229MOL0     H30888   8.349   4.617   1.201 -1.6865 -0.4612  2.3033
  229MOL0     H30889   8.480   4.886   1.268 -1.3403 -0.0559 -0.7974
  229MOL0     H30890   8.524   4.712   1.313  1.1048 -2.4799 -1.7042
  229MOL0     H30891   8.484   4.840   1.042  0.0651  2.9014  2.9747
  229MOL0     H30892   8.530   4.668   1.074  1.2182 -0.8547  0.9425
  229MOL0     H30893   8.747   4.752   1.149 -1.8116 -0.5328  0.5121
  229MOL0     H30894   8.702   4.839   0.992 -1.0225 -1.0030  0.4649
  229MOL0     H30895   7.807   4.830   1.470  1.8983  0.3571  1.9514
  229MOL0     H30896   7.556   4.825   1.540  1.1160  1.1407 -1.5689
  229MOL0     H30897   7.163   4.421   1.413  2.9766  1.2817  1.3118
  229MOL0     H30898   6.919   4.390   1.463  0.1642 -0.9603  1.6504
  229MOL0     H30899   5.259   4.893   2.299 -1.3612  2.0630  0.0276
  229MOL0     H30900   5.038   4.829   2.365 -1.0297 -1.8983  0.3171
  229MOL0     H30901   4.669   4.515   2.499  1.1826  0.8087 -0.4218
  229MOL0     H30902   4.452   4.524   2.604 -0.8022  1.0232  2.4019
  229MOL0     H30903   4.270   4.889   2.816  0.0647  0.1550  1.2059
  229MOL0     H30904   4.425   4.817   2.888  1.0840 -1.5175 -2.5858
  229MOL0     H30905   4.218   4.788   3.047 -0.2716 -0.5431 -0.9548
  229MOL0     H30906   4.293   4.635   2.999 -2.3308 -2.2324  1.1085
  229MOL0     H30907   4.130   4.580   2.837 -0.6978 -2.0191  2.0015
  229MOL0     H30908   4.060   4.745   2.841  0.2935  0.0298 -1.3157
  229MOL0     H30909   4.077   4.592   3.088 -0.3199  1.2570  0.5889
  229MOL0     H30910   3.964   4.728   3.039  1.2373  1.2350 -1.3305
  229MOL0     H30911   3.736   4.429   2.882 -0.9241 -0.1491  2.7133
  229MOL0     H30912   4.499   4.949   2.691 -2.9634 -0.0222 -2.3435
  229MOL0     H30913   4.802   4.971   2.729  1.4570 -3.0149 -0.5718
  229MOL0     H30914   4.834   4.973   2.554 -0.2593 -2.1124 -0.8944
  229MOL0     H30915   4.695   5.059   2.617  1.7218  0.0277 -2.7438
  230MOL0     O30916   1.703  11.214   6.988 -0.0803 -0.7650  0.0354
  230MOL0     C30917   1.695  11.149   6.881  0.5260 -0.7132 -0.3101
  230MOL0     O30918   1.798  11.123   6.793  1.2194  0.4097 -0.1260
  230MOL0     C30919   1.928  11.134   6.823  0.2005  0.2555  0.1437
  230MOL0     C30920   1.982  11.125   6.960  0.1293  0.5736  0.0653
  230MOL0     C30921   2.121  11.124   6.983  0.5695  0.3440 -0.1390
  230MOL0     C30922   2.202  11.152   6.872  0.1643  0.5721  0.6304
  230MOL0     O30923   2.330  11.146   6.896 -0.1414 -0.2929 -0.4460
  230MOL0     C30924   2.428  11.212   6.817 -0.8741 -0.3753  0.1494
  230MOL0     C30925   2.533  11.297   6.888 -0.0674 -0.3717 -0.2005
  230MOL0     C30926   2.581  11.233   7.017 -0.2876 -0.6504  0.5540
  230MOL0     C30927   2.671  11.107   6.996  0.2364 -0.6225  0.0185
  230MOL0     C30928   2.741  11.050   7.121  0.2377 -0.2393  0.0170
  230MOL0     C30929   2.827  10.933   7.080  0.9239  0.6403 -0.7091
  230MOL0     C30930   2.887  10.868   7.205 -0.1500  0.5559  0.3652
  230MOL0     C30931   2.999  10.770   7.169  0.8081  0.1866 -0.0590
  230MOL0     N30932   3.118  10.806   7.250 -0.1641 -0.0795  0.6726
  230MOL0     C30933   3.237  10.861   7.201  0.6078  0.0175  0.8311
  230MOL0     C30934   3.323  10.835   7.300  0.0821 -0.6595 -0.3383
  230MOL0     C30935   3.471  10.848   7.301  0.5128 -0.3001 -0.0052
  230MOL0     C30936   3.536  10.731   7.366 -0.3650 -0.4782  0.0962
  230MOL0     C30937   3.689  10.747   7.365  0.1408  0.5924 -0.4217
  230MOL0     C30938   3.757  10.624   7.426 -1.0619 -0.3773  0.2814
  230MOL0     O30939   3.888  10.671   7.479  0.0515 -0.5095  0.3367
  230MOL0     C30940   3.978  10.575   7.522  0.1128  0.2279  0.5614
  230MOL0     C30941   4.117  10.600   7.504 -1.1923  0.6045  0.2428
  230MOL0     C30942   4.217  10.508   7.536 -0.1620 -1.0523 -0.0550
  230MOL0     C30943   4.177  10.381   7.584 -0.8901  0.0415  0.5979
  230MOL0     C30944   4.270  10.280   7.653 -0.1708 -0.0946 -0.4236
  230MOL0     O30945   4.391  10.332   7.684  0.0799 -0.6871 -0.2606
  230MOL0     C30946   4.510  10.254   7.697 -0.3363  0.7877 -0.6742
  230MOL0     C30947   4.635  10.304   7.665  0.7741  0.5547 -0.1019
  230MOL0     C30948   4.748  10.234   7.695  0.9463  0.4115 -0.2659
  230MOL0     C30949   4.740  10.116   7.765 -0.1449 -0.3109  1.3313
  230MOL0     O30950   4.863  10.056   7.799  0.2773 -0.2229 -0.2597
  230MOL0     C30951   4.868   9.922   7.853  0.0723 -0.0907 -1.1646
  230MOL0     C30952   5.007   9.902   7.893  0.2074  1.3982 -0.5559
  230MOL0     C30953   5.093   9.893   7.769  0.1136  0.6572 -0.0081
  230MOL0     C30954   5.247   9.920   7.808  0.7094  0.0697  0.0340
  230MOL0     C30955   5.350   9.889   7.698  0.9065 -0.0082 -0.5862
  230MOL0     C30956   5.490   9.918   7.747 -0.2300  0.0058 -0.1481
  230MOL0     C30957   5.601   9.892   7.647 -0.3626 -0.5483  0.5386
  230MOL0     C30958   5.729   9.958   7.682 -0.4130  0.1961 -0.3805
  230MOL0    Cl30959   5.806   9.884   7.829  0.2993 -0.2118  0.0408
  230MOL0     C30960   4.614  10.055   7.805 -1.0161 -0.0552 -0.3435
  230MOL0     C30961   4.505  10.132   7.772  0.5104  0.5284 -0.5332
  230MOL0     O30962   4.242  10.159   7.665 -0.6062  0.2598  0.3470
  230MOL0     C30963   4.044  10.349   7.591  0.4274  0.0912  0.1257
  230MOL0     C30964   3.945  10.441   7.554 -0.5792  0.4204  0.2552
  230MOL0     N30965   3.260  10.779   7.403  0.1532  0.6222  0.4860
  230MOL0     N30966   3.138  10.755   7.374 -0.5371  0.1312 -0.1483
  230MOL0     C30967   2.149  11.154   6.740  0.1344  0.0686  0.5096
  230MOL0     C30968   2.009  11.147   6.714 -1.7104  0.1968  0.6358
  230MOL0     C30969   1.569  11.087   6.832 -0.6522 -0.5498  0.8842
  230MOL0     C30970   1.555  11.054   6.695  0.6803  0.8416  0.9701
  230MOL0     C30971   1.448  10.979   6.647  0.4224 -0.4326  0.7924
  230MOL0     C30972   1.337  10.955   6.719 -0.2653 -0.8661 -0.2758
  230MOL0     O30973   1.235  10.881   6.665  0.7094 -0.1212  0.5517
  230MOL0     C30974   1.097  10.907   6.715 -0.4599 -0.1813  0.1542
  230MOL0     C30975   0.978  10.860   6.639 -0.4570 -0.2346 -0.0318
  230MOL0     C30976   0.972  10.911   6.500  0.9403 -0.8243 -0.7089
  230MOL0     C30977   0.912  11.056   6.486 -0.0248 -0.1467 -0.1041
  230MOL0     C30978   0.771  11.069   6.510 -0.3927 -0.8705 -0.0116
  230MOL0     C30979   0.653  11.081   6.546 -0.1343 -0.2777 -0.7211
  230MOL0     C30980   1.340  11.003   6.853  0.5150  1.0000  0.3548
  230MOL0     C30981   1.454  11.058   6.906  0.1255  0.1819 -0.5417
  230MOL0     C30982   1.442  11.092   7.053 -1.1866  0.5805  0.3619
  230MOL0     H30983   1.909  11.106   7.038 -1.4002 -1.0330 -1.6698
  230MOL0     H30984   2.157  11.101   7.082  2.1800 -1.6005 -1.0921
  230MOL0     H30985   2.480  11.129   6.769  1.0987  0.5758  0.5385
  230MOL0     H30986   2.386  11.281   6.743  0.4427  0.6233  0.2976
  230MOL0     H30987   2.488  11.392   6.919  0.5067 -0.2473  0.2916
  230MOL0     H30988   2.621  11.309   6.824  0.6332  1.4911  1.0128
  230MOL0     H30989   2.500  11.207   7.086  0.1757  0.5524  1.5690
  230MOL0     H30990   2.637  11.310   7.069 -0.6387 -0.9237  1.3581
  230MOL0     H30991   2.606  11.029   6.955 -1.2416  0.7184 -0.3175
  230MOL0     H30992   2.751  11.139   6.928  0.9592 -0.6442  0.8388
  230MOL0     H30993   2.807  11.122   7.170  0.4210  0.0511 -0.6461
  230MOL0     H30994   2.659  11.024   7.190  0.3346 -2.6267 -0.6586
  230MOL0     H30995   2.763  10.855   7.038  0.1849 -0.4318  2.2272
  230MOL0     H30996   2.914  10.962   7.019  3.3678 -1.1254  1.7416
  230MOL0     H30997   2.804  10.819   7.257  1.8543 -3.4358  0.1778
  230MOL0     H30998   2.930  10.948   7.267  3.8590 -1.2732  0.2606
  230MOL0     H30999   2.972  10.667   7.193  0.0359  0.4363  0.1990
  230MOL0     H31000   3.030  10.776   7.065  2.8654  3.0242  0.5862
  230MOL0     H31001   3.256  10.898   7.101  0.0766  1.8641  1.3765
  230MOL0     H31002   3.514  10.855   7.201 -1.4447 -1.4339 -0.9703
  230MOL0     H31003   3.493  10.932   7.368 -0.1291 -1.0671  1.2177
  230MOL0     H31004   3.503  10.721   7.469 -1.3188  3.4630  0.3225
  230MOL0     H31005   3.512  10.646   7.302  0.6361 -0.1939 -0.6894
  230MOL0     H31006   3.706  10.833   7.431 -3.3403 -1.0873  3.0823
  230MOL0     H31007   3.725  10.767   7.263  0.8722  0.2322 -0.2409
  230MOL0     H31008   3.766  10.534   7.365  0.1171  0.4806 -0.8629
  230MOL0     H31009   3.697  10.600   7.514 -1.3752  2.0724  0.7950
  230MOL0     H31010   4.153  10.697   7.472  1.6464 -0.5515 -0.3337
  230MOL0     H31011   4.322  10.532   7.522 -0.3527 -1.5007 -2.7219
  230MOL0     H31012   4.638  10.397   7.608 -2.0651  2.3413  2.3246
  230MOL0     H31013   4.850  10.270   7.682  0.7801  0.3973 -1.7059
  230MOL0     H31014   4.815   9.905   7.947  0.4721 -0.9033 -1.0763
  230MOL0     H31015   4.823   9.851   7.782 -2.3778  0.9790 -0.7938
  230MOL0     H31016   5.039   9.988   7.952  0.7374 -0.2489  1.6912
  230MOL0     H31017   5.009   9.813   7.956  0.1596  0.6669 -1.5619
  230MOL0     H31018   5.088   9.793   7.725  2.0098  0.4983  0.0522
  230MOL0     H31019   5.050   9.956   7.691  1.2772 -2.0141 -3.0261
  230MOL0     H31020   5.266   9.855   7.893  2.0464 -1.6945 -1.5194
  230MOL0     H31021   5.257  10.024   7.839  1.4060  1.0630 -3.0838
  230MOL0     H31022   5.333   9.943   7.604  0.1890  1.5401  0.4051
  230MOL0     H31023   5.349   9.782   7.674 -2.5110  0.0124 -0.9094
  230MOL0     H31024   5.486  10.022   7.781 -1.8184 -0.8039  2.3662
  230MOL0     H31025   5.503   9.850   7.831 -0.0069 -1.4340 -1.2984
  230MOL0     H31026   5.582   9.928   7.545  1.0408 -0.4554  0.2830
  230MOL0     H31027   5.619   9.785   7.643 -0.1500 -0.4825 -1.1859
  230MOL0     H31028   5.795   9.954   7.595  1.8772 -1.0516  1.2866
  230MOL0     H31029   5.716  10.062   7.713  2.5258  0.2001  1.2857
  230MOL0     H31030   4.606   9.975   7.878 -1.0292 -1.4781 -1.8534
  230MOL0     H31031   4.415  10.099   7.822  0.0376  0.8080 -1.1866
  230MOL0     H31032   4.015  10.255   7.639  2.5217 -1.5295 -1.5840
  230MOL0     H31033   3.843  10.403   7.551 -0.0951 -0.9382 -1.8840
  230MOL0     H31034   2.203  11.180   6.649 -2.0014  0.6333 -0.6865
  230MOL0     H31035   1.972  11.149   6.612  1.8327  3.0113 -0.8404
  230MOL0     H31036   1.629  11.083   6.621  0.5544  2.1287  1.3261
  230MOL0     H31037   1.451  10.944   6.544  1.3292 -2.2254  1.3831
  230MOL0     H31038   1.074  11.013   6.729  0.3895  0.0731 -0.2883
  230MOL0     H31039   1.085  10.853   6.809  2.3996  1.3258  1.5250
  230MOL0     H31040   0.899  10.884   6.710  0.6968  0.6538  0.9961
  230MOL0     H31041   0.988  10.751   6.640  1.6403 -0.0912  0.5705
  230MOL0     H31042   0.900  10.846   6.449 -1.2433  1.9230 -1.3813
  230MOL0     H31043   1.069  10.918   6.451  1.8075  0.0032  1.0319
  230MOL0     H31044   0.961  11.135   6.544  1.4449 -1.1314  0.0219
  230MOL0     H31045   0.915  11.082   6.380 -0.7783 -5.5486 -1.7589
  230MOL0     H31046   0.552  11.093   6.580 -0.4408  0.2107 -1.7790
  230MOL0     H31047   1.255  10.980   6.917  1.5760 -2.0189  0.8528
  230MOL0     H31048   1.353  11.048   7.099 -0.4196 -0.6539  0.7195
  230MOL0     H31049   1.533  11.051   7.098 -0.4916  1.3237 -0.3577
  230MOL0     H31050   1.449  11.200   7.064  3.2050  0.4633  0.5725
  231MOL0     O31051   4.280   5.867   5.290 -0.1599 -0.4153  0.4107
  231MOL0     C31052   4.254   5.847   5.413 -0.5845  1.2025 -0.6469
  231MOL0     O31053   4.343   5.803   5.509 -0.1269  0.4938  0.5444
  231MOL0     C31054   4.471   5.797   5.466 -0.1763 -0.3950 -1.1483
  231MOL0     C31055   4.543   5.910   5.419 -0.0518  0.3952 -0.6448
  231MOL0     C31056   4.683   5.893   5.384 -0.0836 -0.0011  0.6820
  231MOL0     C31057   4.745   5.772   5.396  1.2889  0.0228  0.5501
  231MOL0     O31058   4.877   5.761   5.369 -0.2670  0.5197 -0.2560
  231MOL0     C31059   4.930   5.830   5.249  1.2076 -1.0810  0.6135
  231MOL0     C31060   5.054   5.755   5.197  0.1205  1.0296 -0.7433
  231MOL0     C31061   5.023   5.603   5.202 -0.5267 -0.0395  0.7623
  231MOL0     C31062   5.138   5.522   5.145 -0.1185 -0.2043 -0.8785
  231MOL0     C31063   5.263   5.516   5.234  0.1924  0.8813  0.4944
  231MOL0     C31064   5.367   5.418   5.171  0.5723 -0.1813  0.2748
  231MOL0     C31065   5.500   5.425   5.235 -0.3549 -0.5712 -0.0484
  231MOL0     C31066   5.558   5.562   5.266 -0.5593 -0.1227 -0.2374
  231MOL0     N31067   5.694   5.570   5.302  0.9203  1.1910 -0.2243
  231MOL0     C31068   5.770   5.685   5.298  0.0135  0.2992  0.9599
  231MOL0     C31069   5.898   5.657   5.337  0.2066 -0.6284 -0.1596
  231MOL0     C31070   6.020   5.756   5.366 -0.4617  0.6091 -0.3185
  231MOL0     C31071   6.039   5.781   5.513 -0.3254 -0.4853 -0.8903
  231MOL0     C31072   6.090   5.661   5.590 -0.0972  0.3535  0.1477
  231MOL0     C31073   6.226   5.605   5.545  0.4617  0.6561  0.1946
  231MOL0     O31074   6.319   5.711   5.537 -0.4047 -0.4658  0.6565
  231MOL0     C31075   6.458   5.683   5.540  0.1171  0.1411 -0.0176
  231MOL0     C31076   6.510   5.557   5.574 -0.5853 -0.1331  0.0635
  231MOL0     C31077   6.645   5.529   5.574 -0.5770 -0.2393  0.3028
  231MOL0     C31078   6.730   5.643   5.545 -0.2209  0.0663  0.4409
  231MOL0     C31079   6.880   5.621   5.542  0.0703  0.2567 -0.7104
  231MOL0     O31080   6.955   5.722   5.488  0.7556 -0.7004  0.3155
  231MOL0     C31081   7.092   5.693   5.469  0.2817 -1.6658  0.3786
  231MOL0     C31082   7.134   5.666   5.343 -0.1501  0.8035 -0.7988
  231MOL0     C31083   7.270   5.643   5.318 -0.3049  0.0377  0.0954
  231MOL0     C31084   7.359   5.656   5.425 -0.1828 -0.4878  0.3897
  231MOL0     O31085   7.495   5.649   5.408 -0.8963 -0.7009 -0.8236
  231MOL0     C31086   7.567   5.617   5.292 -0.0528  0.7773 -0.4373
  231MOL0     C31087   7.701   5.685   5.318  0.9498 -0.2284 -0.1283
  231MOL0     C31088   7.784   5.702   5.183  0.5558 -0.0858  0.5597
  231MOL0     C31089   7.922   5.757   5.225  0.6038  0.2061  0.1150
  231MOL0     C31090   7.995   5.826   5.111 -0.1257 -0.4836  0.6650
  231MOL0     C31091   8.129   5.888   5.169  0.0176 -0.8599 -0.0052
  231MOL0     C31092   8.116   6.015   5.262 -0.1598  0.1972  0.8651
  231MOL0     C31093   8.239   6.116   5.245 -0.7294  0.5945  0.9198
  231MOL0    Cl31094   8.209   6.265   5.341  0.0727 -0.3267 -0.2432
  231MOL0     C31095   7.311   5.682   5.557 -0.5468 -0.1171  0.0327
  231MOL0     C31096   7.176   5.696   5.576  0.2897 -0.2823  0.3248
  231MOL0     O31097   6.920   5.503   5.551  0.4625 -0.4927 -0.5943
  231MOL0     C31098   6.682   5.763   5.515  1.0153 -0.1211  0.0581
  231MOL0     C31099   6.541   5.791   5.522 -0.7615  0.5985  0.5115
  231MOL0     N31100   5.900   5.518   5.369  0.5657 -0.3204  0.6684
  231MOL0     N31101   5.785   5.474   5.346  0.0076  0.3897  0.7065
  231MOL0     C31102   4.672   5.660   5.449 -0.1586  0.1000  0.3807
  231MOL0     C31103   4.536   5.677   5.486 -0.3978  0.3420  0.0658
  231MOL0     C31104   4.118   5.866   5.457  0.2614  0.1171  0.8075
  231MOL0     C31105   4.095   5.969   5.533 -0.5264  0.6453  0.1447
  231MOL0     C31106   3.968   5.984   5.602 -0.7710 -1.3059  0.0745
  231MOL0     C31107   3.867   5.894   5.578 -0.5656 -0.4573  0.2139
  231MOL0     O31108   3.745   5.894   5.628  0.6565 -0.0917 -0.7169
  231MOL0     C31109   3.716   5.994   5.732 -0.4613  0.1608  0.2614
  231MOL0     C31110   3.605   5.950   5.815 -0.8385 -0.1198  0.1531
  231MOL0     C31111   3.633   5.814   5.888  0.2093 -0.1069  1.2026
  231MOL0     C31112   3.527   5.773   5.989 -0.0061 -0.7587 -0.0473
  231MOL0     C31113   3.390   5.768   5.930 -0.6664  0.2089 -0.2784
  231MOL0     C31114   3.286   5.737   5.882 -0.6469 -0.1705  1.0929
  231MOL0     C31115   3.892   5.783   5.496  0.1710 -0.2435  0.0893
  231MOL0     C31116   4.010   5.770   5.432 -0.5511  0.2129  0.5126
  231MOL0     C31117   4.035   5.657   5.337  0.6564 -0.1505  1.0644
  231MOL0     H31118   4.492   6.006   5.409 -2.8856 -1.0488 -0.9479
  231MOL0     H31119   4.726   5.984   5.344  1.6523 -0.0854  2.2096
  231MOL0     H31120   4.855   5.828   5.170  1.7890 -1.4718  0.0571
  231MOL0     H31121   4.950   5.935   5.273 -1.1224 -0.9418  2.3041
  231MOL0     H31122   5.143   5.763   5.261 -0.8960 -1.7059  1.2278
  231MOL0     H31123   5.075   5.789   5.096 -0.6765  2.1131 -0.5542
  231MOL0     H31124   4.928   5.593   5.148 -1.2439  1.5482  1.6545
  231MOL0     H31125   5.005   5.568   5.304  1.1675  0.2906  1.2118
  231MOL0     H31126   5.102   5.418   5.143  0.8845 -0.5937  0.0417
  231MOL0     H31127   5.170   5.551   5.045  2.3997 -1.2645 -0.4568
  231MOL0     H31128   5.302   5.618   5.231  1.3302  0.4517 -1.7764
  231MOL0     H31129   5.238   5.478   5.334  1.6272  0.7932  0.8415
  231MOL0     H31130   5.324   5.317   5.166  2.0113 -0.9178  1.9061
  231MOL0     H31131   5.380   5.447   5.067 -0.8864 -0.2201  0.0561
  231MOL0     H31132   5.575   5.377   5.171  0.2179 -1.0441  0.9430
  231MOL0     H31133   5.491   5.366   5.327 -1.1399 -2.7354 -1.4404
  231MOL0     H31134   5.547   5.620   5.174  1.5747 -0.9583 -1.0848
  231MOL0     H31135   5.496   5.612   5.342  0.8524  2.6575 -0.7802
  231MOL0     H31136   5.732   5.786   5.281 -0.7245  0.1377  1.5840
  231MOL0     H31137   6.110   5.712   5.321 -0.7786 -1.4854  0.9651
  231MOL0     H31138   5.996   5.856   5.327  1.0313  1.2661  0.3715
  231MOL0     H31139   6.108   5.866   5.519  1.9502 -2.2568 -0.0784
  231MOL0     H31140   5.954   5.824   5.566  0.7713 -0.5479  1.0115
  231MOL0     H31141   6.015   5.581   5.590  1.9643 -1.7040 -1.1268
  231MOL0     H31142   6.111   5.684   5.695 -0.1844 -1.1789  0.5350
  231MOL0     H31143   6.226   5.538   5.459  1.9445  0.4403  0.3380
  231MOL0     H31144   6.253   5.537   5.627  1.1992  1.2154  0.4280
  231MOL0     H31145   6.450   5.469   5.590  0.2059 -0.3757  1.9693
  231MOL0     H31146   6.688   5.431   5.593 -1.5539 -0.9155 -0.8555
  231MOL0     H31147   7.058   5.657   5.267  0.3727 -0.9243 -1.1664
  231MOL0     H31148   7.311   5.613   5.221 -1.9872 -0.1598 -0.5954
  231MOL0     H31149   7.583   5.509   5.282  0.7134  0.8570 -0.1175
  231MOL0     H31150   7.522   5.646   5.196 -1.0584  0.8697  0.0514
  231MOL0     H31151   7.692   5.785   5.361 -1.2693  0.3669 -1.7809
  231MOL0     H31152   7.750   5.618   5.390  0.0871  0.9184  1.5871
  231MOL0     H31153   7.789   5.607   5.129  1.1287 -0.1927  0.7930
  231MOL0     H31154   7.735   5.770   5.112  1.8927 -0.3923 -0.6929
  231MOL0     H31155   7.979   5.678   5.276  1.7472  1.1582  0.3614
  231MOL0     H31156   7.906   5.844   5.289 -2.3502  1.1126 -1.6686
  231MOL0     H31157   7.935   5.899   5.057  0.6681 -1.1667 -1.2153
  231MOL0     H31158   8.029   5.750   5.040 -1.8042 -0.7049  0.0566
  231MOL0     H31159   8.184   5.808   5.219 -0.7973 -4.6473 -4.5400
  231MOL0     H31160   8.193   5.910   5.084  0.7994 -1.7056  0.3530
  231MOL0     H31161   8.111   5.988   5.368  2.0418 -2.3953  0.4227
  231MOL0     H31162   8.029   6.071   5.226 -0.6407 -2.0823 -1.8730
  231MOL0     H31163   8.333   6.065   5.270  1.4083  3.0404 -1.4868
  231MOL0     H31164   8.245   6.138   5.138  0.0110 -1.2055  0.5563
  231MOL0     H31165   7.378   5.677   5.643  1.8839 -0.4386 -1.7542
  231MOL0     H31166   7.124   5.699   5.671  1.1910  0.5140  0.7983
  231MOL0     H31167   6.742   5.852   5.494 -2.3451  2.0861 -0.9707
  231MOL0     H31168   6.501   5.887   5.492  0.4473  0.6981 -0.9340
  231MOL0     H31169   4.733   5.571   5.453  1.4564  1.1769  0.7497
  231MOL0     H31170   4.476   5.598   5.529 -0.5780 -0.2500 -1.2373
  231MOL0     H31171   4.173   6.039   5.559 -1.6462  1.0341  2.8175
  231MOL0     H31172   3.968   6.063   5.677  0.5394 -0.2559 -0.9734
  231MOL0     H31173   3.703   6.094   5.690 -1.1003 -1.6856 -4.5722
  231MOL0     H31174   3.805   6.002   5.796 -0.9848  2.5772  0.7704
  231MOL0     H31175   3.519   5.928   5.750  0.0642 -4.1405  0.0714
  231MOL0     H31176   3.576   6.019   5.895  0.5458 -2.8234  3.1686
  231MOL0     H31177   3.727   5.827   5.942  1.0736  0.7593 -0.4253
  231MOL0     H31178   3.654   5.738   5.813  2.0480  0.9061  0.6151
  231MOL0     H31179   3.537   5.676   6.038 -0.5464 -0.9375 -0.2769
  231MOL0     H31180   3.525   5.849   6.067 -0.0790  1.0165 -1.6932
  231MOL0     H31181   3.189   5.723   5.837  0.2948  0.3968 -1.2739
  231MOL0     H31182   3.804   5.723   5.473 -0.4220  0.9386 -0.8353
  231MOL0     H31183   3.979   5.563   5.341 -0.1724  0.3183  0.7406
  231MOL0     H31184   4.035   5.702   5.237  1.0881  0.9515  1.5466
  231MOL0     H31185   4.138   5.621   5.352  1.0954  0.9075  0.7008
  232MOL0     O31186   6.910   9.960  10.898  0.0571 -0.0489 -0.7295
  232MOL0     C31187   6.941  10.003  11.006 -0.2573  0.0072 -1.1745
  232MOL0     O31188   6.858  10.013  11.107  0.2403 -0.2704 -0.2004
  232MOL0     C31189   6.735   9.960  11.094  0.0273 -0.2520 -0.3486
  232MOL0     C31190   6.640   9.994  11.005  0.3370 -0.2597  0.6009
  232MOL0     C31191   6.512   9.945  11.013  0.2426  0.1579 -0.4020
  232MOL0     C31192   6.480   9.861  11.123  0.3302 -0.3806 -0.6654
  232MOL0     O31193   6.358   9.788  11.133  1.0292  0.1819  0.3922
  232MOL0     C31194   6.262   9.800  11.018  0.2473 -0.2719  0.5737
  232MOL0     C31195   6.196   9.662  11.010 -0.2788  1.3176 -0.2154
  232MOL0     C31196   6.113   9.635  11.130  0.7211  0.4203 -0.0932
  232MOL0     C31197   6.075   9.489  11.134 -0.5609  0.4521  0.3121
  232MOL0     C31198   5.954   9.462  11.224 -0.0337 -0.3002 -0.0526
  232MOL0     C31199   5.899   9.318  11.201 -0.8115  0.8737  0.0554
  232MOL0     C31200   5.993   9.221  11.272  0.1918 -0.6490  0.7396
  232MOL0     C31201   5.950   9.077  11.257 -1.0619  0.5128 -0.3762
  232MOL0     N31202   6.008   9.028  11.131  0.5010  1.0874 -0.5283
  232MOL0     C31203   6.138   9.013  11.094  0.2283  0.7852  0.1581
  232MOL0     C31204   6.139   8.980  10.962  1.0941  0.0765  0.9256
  232MOL0     C31205   6.254   8.949  10.871 -0.0189 -0.3824 -0.1089
  232MOL0     C31206   6.323   8.818  10.897  0.8324  0.6345  0.1653
  232MOL0     C31207   6.415   8.827  11.020  0.2623 -0.4276 -0.5025
  232MOL0     C31208   6.546   8.900  11.002  0.0599  0.1192 -0.5269
  232MOL0     O31209   6.619   8.933  11.124 -0.6263  1.1348  0.4991
  232MOL0     C31210   6.733   9.000  11.112  0.0561 -0.5518 -0.0719
  232MOL0     C31211   6.788   9.042  10.982  0.9040 -0.9956 -0.6123
  232MOL0     C31212   6.916   9.094  10.975  0.3703 -0.5445  0.3670
  232MOL0     C31213   6.988   9.118  11.093  0.1837  0.7562 -0.1539
  232MOL0     C31214   7.124   9.175  11.070 -0.3144  0.3868 -0.3102
  232MOL0     O31215   7.191   9.154  10.948 -0.4567  0.3026 -0.4511
  232MOL0     C31216   7.307   9.225  10.908  0.4992  0.5092  0.0220
  232MOL0     C31217   7.355   9.354  10.951 -0.7481  0.3727 -0.9255
  232MOL0     C31218   7.490   9.392  10.918 -0.9282  1.0766  0.2713
  232MOL0     C31219   7.581   9.304  10.840 -0.0535 -0.2558 -0.4311
  232MOL0     O31220   7.710   9.347  10.815 -0.0790  0.7837  0.4594
  232MOL0     C31221   7.790   9.311  10.694  0.1069  0.1003  0.0751
  232MOL0     C31222   7.933   9.372  10.693 -0.4815 -0.4977  0.0035
  232MOL0     C31223   8.023   9.321  10.581 -0.3884 -0.3137  0.5142
  232MOL0     C31224   8.172   9.347  10.610  0.5161  0.1865  0.1806
  232MOL0     C31225   8.257   9.317  10.486  0.3172 -0.0426 -0.2227
  232MOL0     C31226   8.408   9.352  10.517  0.4724  0.3166  0.3641
  232MOL0     C31227   8.506   9.311  10.404 -0.3174 -0.2277  0.7010
  232MOL0     C31228   8.636   9.395  10.416 -0.9381 -0.3324  0.0343
  232MOL0    Cl31229   8.599   9.565  10.362  0.0359  0.3947 -0.5417
  232MOL0     C31230   7.525   9.192  10.790 -0.3429 -0.4663 -0.3666
  232MOL0     C31231   7.395   9.156  10.827  0.0898  0.7579 -0.4507
  232MOL0     O31232   7.165   9.248  11.158 -0.6472  0.6071  0.0402
  232MOL0     C31233   6.934   9.100  11.218 -0.0170  0.2020 -0.1692
  232MOL0     C31234   6.804   9.039  11.230 -0.3698  0.2073  0.4076
  232MOL0     N31235   6.011   8.988  10.919  0.8816 -0.5996 -0.6889
  232MOL0     N31236   5.934   9.020  11.020 -1.7109 -0.1485 -0.0617
  232MOL0     C31237   6.576   9.829  11.215 -0.0120  0.6619 -0.5011
  232MOL0     C31238   6.706   9.881  11.205  0.7499 -0.5598 -0.1315
  232MOL0     C31239   7.078  10.062  11.031 -0.0433  0.9655 -0.4296
  232MOL0     C31240   7.123  10.096  11.166 -0.3625  0.5289  0.8368
  232MOL0     C31241   7.231  10.168  11.181 -0.8555 -0.3655  0.2756
  232MOL0     C31242   7.317  10.210  11.075  0.5769 -1.0066  0.1595
  232MOL0     O31243   7.429  10.284  11.101 -0.2882 -0.2968  0.2290
  232MOL0     C31244   7.534  10.292  10.996  0.6035  0.3247  0.8253
  232MOL0     C31245   7.614  10.159  10.984  0.0785  0.2936  0.0839
  232MOL0     C31246   7.742  10.174  10.898  0.3729  0.1535 -0.3686
  232MOL0     C31247   7.850  10.252  10.967  0.0077 -0.7122 -0.4620
  232MOL0     C31248   7.982  10.255  10.904 -0.9626 -0.4854  0.3282
  232MOL0     C31249   8.094  10.254  10.849 -0.5042  0.5504 -0.3092
  232MOL0     C31250   7.277  10.173  10.944 -0.5803  0.4795 -0.8067
  232MOL0     C31251   7.164  10.098  10.922 -0.2405  0.8709 -0.4264
  232MOL0     C31252   7.144  10.063  10.777  0.2685 -0.6802 -0.1660
  232MOL0     H31253   6.672  10.059  10.923 -0.7854  0.6532  0.8598
  232MOL0     H31254   6.438   9.977  10.939 -0.8106  0.6179  0.8111
  232MOL0     H31255   6.187   9.879  11.030  0.7590  0.6696 -1.8240
  232MOL0     H31256   6.307   9.815  10.920  0.1063 -0.0719  0.5398
  232MOL0     H31257   6.280   9.593  11.018 -0.1835  1.6251  4.3119
  232MOL0     H31258   6.135   9.648  10.920 -1.0794 -2.9487  0.7878
  232MOL0     H31259   6.023   9.697  11.121 -0.9273 -2.1459 -4.1319
  232MOL0     H31260   6.158   9.664  11.225  1.1583 -1.7813  0.4201
  232MOL0     H31261   6.065   9.438  11.038 -1.1205 -0.9864  1.0989
  232MOL0     H31262   6.156   9.439  11.187 -1.4265 -0.4979  0.7942
  232MOL0     H31263   5.983   9.480  11.327 -0.4922  0.7882 -0.1054
  232MOL0     H31264   5.880   9.537  11.196  0.9649  1.6953  2.3323
  232MOL0     H31265   5.798   9.305  11.241 -0.4318 -0.3673  0.6762
  232MOL0     H31266   5.900   9.302  11.092 -0.6173  0.9990  0.0386
  232MOL0     H31267   6.003   9.244  11.379 -1.7489 -1.2077  1.0872
  232MOL0     H31268   6.089   9.235  11.222  1.4326 -3.9579  1.9360
  232MOL0     H31269   5.987   9.013  11.338  0.3103 -1.2822 -2.3035
  232MOL0     H31270   5.841   9.062  11.251 -0.9407 -0.8219  0.3447
  232MOL0     H31271   6.223   9.029  11.158 -1.0425  2.2113  1.5699
  232MOL0     H31272   6.227   8.955  10.765  0.6787  6.7988 -0.3759
  232MOL0     H31273   6.322   9.033  10.889 -0.5639 -0.2149  1.3238
  232MOL0     H31274   6.249   8.738  10.906 -1.5449  2.4890 -1.6725
  232MOL0     H31275   6.401   8.790  10.825  0.2728 -0.0877 -0.1734
  232MOL0     H31276   6.427   8.726  11.061  0.7843 -1.2804 -2.6455
  232MOL0     H31277   6.365   8.883  11.100 -1.2706 -1.0635 -0.9649
  232MOL0     H31278   6.533   8.993  10.947 -0.7215 -0.3360 -1.1410
  232MOL0     H31279   6.613   8.829  10.951 -0.1049 -0.2634 -0.2147
  232MOL0     H31280   6.726   9.025  10.895  0.9806 -5.0479 -0.0705
  232MOL0     H31281   6.964   9.117  10.881  0.5820 -4.1908 -0.5649
  232MOL0     H31282   7.286   9.418  11.005 -1.6561 -0.7893 -0.6539
  232MOL0     H31283   7.530   9.492  10.935 -1.7112  1.0682  2.5700
  232MOL0     H31284   7.812   9.204  10.700 -0.8170 -0.0766  0.4885
  232MOL0     H31285   7.731   9.339  10.606  0.1818 -0.7937 -0.2711
  232MOL0     H31286   7.940   9.480  10.701 -0.1256 -0.5757  0.8108
  232MOL0     H31287   7.982   9.323  10.778  1.8317 -2.4179 -2.2531
  232MOL0     H31288   8.008   9.215  10.557 -0.1621  0.2317 -2.3154
  232MOL0     H31289   7.995   9.380  10.493  0.4237  2.6408  2.1019
  232MOL0     H31290   8.198   9.271  10.684 -0.4798 -1.5354 -1.1545
  232MOL0     H31291   8.200   9.449  10.637  1.1780  0.7001 -2.2072
  232MOL0     H31292   8.227   9.388  10.408  0.7156  0.2206 -0.1382
  232MOL0     H31293   8.242   9.211  10.463 -0.9274 -0.3319  1.6711
  232MOL0     H31294   8.410   9.456  10.550 -0.5237 -0.0795  1.7653
  232MOL0     H31295   8.430   9.286  10.601 -1.3612  0.1899  0.7965
  232MOL0     H31296   8.466   9.341  10.306 -1.1559 -2.6798  0.2152
  232MOL0     H31297   8.515   9.202  10.396 -0.2945 -0.1561 -0.5231
  232MOL0     H31298   8.674   9.379  10.517  0.9337 -1.5519 -0.7843
  232MOL0     H31299   8.714   9.353  10.351  1.7437 -0.4049  3.0759
  232MOL0     H31300   7.579   9.132  10.718  1.3454 -0.4700  0.8464
  232MOL0     H31301   7.349   9.062  10.799 -0.6770  1.1318 -0.4660
  232MOL0     H31302   6.990   9.115  11.309 -0.1009  1.4972 -0.3100
  232MOL0     H31303   6.779   9.012  11.332  0.0224 -2.4516 -0.1522
  232MOL0     H31304   6.534   9.760  11.287  1.0938 -1.4722 -1.8013
  232MOL0     H31305   6.782   9.863  11.280 -0.2117 -2.8424  0.3803
  232MOL0     H31306   7.063  10.065  11.251 -3.5919 -0.4708 -1.6018
  232MOL0     H31307   7.259  10.197  11.282 -0.3524  0.6272 -0.1268
  232MOL0     H31308   7.610  10.365  11.028  0.9030  0.4019 -0.0257
  232MOL0     H31309   7.505  10.318  10.894 -1.6922 -3.2095  0.4265
  232MOL0     H31310   7.538  10.092  10.942 -2.0403  2.4048  0.3379
  232MOL0     H31311   7.633  10.123  11.086  0.6692  1.5215  0.4198
  232MOL0     H31312   7.710  10.218  10.803 -4.0428 -1.3686  0.2061
  232MOL0     H31313   7.786  10.075  10.889 -0.6503 -0.3000 -0.5144
  232MOL0     H31314   7.827  10.359  10.964 -1.1968 -0.8986  0.8238
  232MOL0     H31315   7.854  10.217  11.071 -0.4504  1.7398  0.4689
  232MOL0     H31316   8.185  10.248  10.792 -2.1476 -3.8020 -3.0018
  232MOL0     H31317   7.338  10.197  10.857  0.8805  0.7190  0.2565
  232MOL0     H31318   7.152   9.955  10.761 -1.0625 -1.2528  2.4721
  232MOL0     H31319   7.048  10.097  10.738  1.6536  1.9825 -1.5521
  232MOL0     H31320   7.220  10.100  10.708  0.5882 -3.5874 -1.5142
  233MOL0     O31321   6.286   3.233   9.489 -0.3667  0.2486  0.7912
  233MOL0     C31322   6.232   3.327   9.431  0.2114 -0.9825  0.7271
  233MOL0     O31323   6.299   3.425   9.363  0.2641  0.3449  0.1992
  233MOL0     C31324   6.435   3.438   9.340  0.3676 -0.3034 -0.9247
  233MOL0     C31325   6.479   3.568   9.317 -0.2180 -0.2402  0.1424
  233MOL0     C31326   6.615   3.590   9.278  0.5329  0.6412  0.8705
  233MOL0     C31327   6.708   3.485   9.275  0.3212  0.6479  0.1428
  233MOL0     O31328   6.837   3.523   9.250 -0.2833 -0.0190 -0.5650
  233MOL0     C31329   6.942   3.446   9.319  0.2774 -0.2618  0.3580
  233MOL0     C31330   7.080   3.525   9.308  0.3604 -0.2279  0.1354
  233MOL0     C31331   7.204   3.446   9.268  0.3837  0.1248  0.2694
  233MOL0     C31332   7.334   3.542   9.263  0.3518 -0.8592  1.0476
  233MOL0     C31333   7.453   3.459   9.217  0.1412  0.2781  0.2814
  233MOL0     C31334   7.591   3.527   9.229 -0.4548 -1.3827  0.5353
  233MOL0     C31335   7.625   3.639   9.128 -0.7363  0.0902 -0.3964
  233MOL0     C31336   7.781   3.636   9.098 -0.3369  0.2819  1.1246
  233MOL0     N31337   7.866   3.694   9.202 -0.2515  0.8261  0.8625
  233MOL0     C31338   7.846   3.816   9.253  0.5751  0.2329 -0.2839
  233MOL0     C31339   7.952   3.827   9.340  0.1627  0.0457  0.1238
  233MOL0     C31340   7.967   3.948   9.430 -0.3307  0.1144 -0.2766
  233MOL0     C31341   8.010   4.074   9.346 -0.3039 -0.1168 -0.2230
  233MOL0     C31342   8.139   4.066   9.268  0.1090  0.9595  0.2492
  233MOL0     C31343   8.272   4.033   9.334 -0.7374 -0.3499  0.8493
  233MOL0     O31344   8.338   4.154   9.379 -0.3701  0.6528 -0.2434
  233MOL0     C31345   8.465   4.149   9.415 -0.9732 -0.4520  0.1683
  233MOL0     C31346   8.534   4.031   9.444 -0.5391  0.6667 -0.1730
  233MOL0     C31347   8.672   4.035   9.462 -0.9274  0.3256  0.5709
  233MOL0     C31348   8.738   4.165   9.456  0.3300  0.4966  0.6065
  233MOL0     C31349   8.880   4.175   9.481 -1.0865  0.7203 -0.2110
  233MOL0     O31350   8.938   4.287   9.525  0.0511  0.8201  0.1734
  233MOL0     C31351   9.071   4.295   9.551 -0.0046 -0.5291  0.7487
  233MOL0     C31352   9.127   4.300   9.678 -0.4262  0.1788  0.4384
  233MOL0     C31353   9.269   4.319   9.691  0.0153  0.4392 -0.5594
  233MOL0     C31354   9.356   4.342   9.590  0.6449  0.1056 -0.0759
  233MOL0     O31355   9.491   4.361   9.604  0.2845  0.8592  0.1392
  233MOL0     C31356   9.527   4.494   9.650 -0.5712  0.0383  0.0055
  233MOL0     C31357   9.666   4.525   9.587 -0.4778 -0.0467 -0.2840
  233MOL0     C31358   9.725   4.652   9.655 -0.3713 -1.0531 -0.1733
  233MOL0     C31359   9.854   4.691   9.589  0.0292 -0.0728 -0.8014
  233MOL0     C31360   9.899   4.816   9.659 -0.2075 -0.3767  0.6389
  233MOL0     C31361  10.051   4.850   9.642 -0.2343  0.9649 -0.0930
  233MOL0     C31362  10.097   4.955   9.743  0.2250 -0.2257  0.0354
  233MOL0     C31363  10.252   4.973   9.730 -0.3458  0.9780  0.9716
  233MOL0    Cl31364  10.287   5.121   9.822  0.0206  0.3223 -0.0502
  233MOL0     C31365   9.301   4.341   9.461 -0.0511 -1.0185 -0.3677
  233MOL0     C31366   9.161   4.312   9.440 -0.2817  0.2509 -0.2794
  233MOL0     O31367   8.944   4.072   9.462  0.5178 -0.2735  0.1590
  233MOL0     C31368   8.661   4.283   9.440  0.4395 -0.0407 -0.0930
  233MOL0     C31369   8.529   4.272   9.414 -0.4465 -0.1522  0.4579
  233MOL0     N31370   8.020   3.712   9.343  0.0628  0.8990  0.4398
  233MOL0     N31371   7.969   3.629   9.258  1.2869  0.3492 -0.1659
  233MOL0     C31372   6.664   3.355   9.306  0.5835 -0.0749  0.2196
  233MOL0     C31373   6.528   3.330   9.338  0.4129 -0.9541 -1.1858
  233MOL0     C31374   6.082   3.342   9.431 -0.2828 -0.2050 -0.2152
  233MOL0     C31375   6.002   3.280   9.533  0.4076  0.5902 -0.5581
  233MOL0     C31376   5.860   3.297   9.545 -0.6543 -0.7104 -0.0107
  233MOL0     C31377   5.789   3.375   9.456 -0.5323 -0.1276 -0.3144
  233MOL0     O31378   5.660   3.419   9.479  1.0574  0.4302  0.1097
  233MOL0     C31379   5.571   3.334   9.561  0.3557 -0.4792 -0.3155
  233MOL0     C31380   5.430   3.368   9.532 -0.3826  0.4308  0.5164
  233MOL0     C31381   5.364   3.479   9.612  0.2901 -0.3545  0.2552
  233MOL0     C31382   5.238   3.538   9.550  0.6858 -0.3474  1.1644
  233MOL0     C31383   5.174   3.647   9.631  0.2606  0.6873  0.6777
  233MOL0     C31384   5.103   3.727   9.687 -0.3319 -0.9203 -0.6533
  233MOL0     C31385   5.863   3.425   9.346 -0.1115 -0.6729  0.2872
  233MOL0     C31386   6.005   3.414   9.330  0.5643 -0.7783  0.1241
  233MOL0     C31387   6.067   3.465   9.205 -0.5590 -0.1159 -0.9977
  233MOL0     H31388   6.408   3.649   9.332 -1.1043 -0.5814 -1.9168
  233MOL0     H31389   6.667   3.684   9.268  1.6362  0.1682  1.9411
  233MOL0     H31390   6.918   3.409   9.419 -2.8140  0.9665  0.1710
  233MOL0     H31391   6.959   3.350   9.269  1.0960 -1.2405  2.4372
  233MOL0     H31392   7.091   3.569   9.407 -4.2676 -2.6572  2.0321
  233MOL0     H31393   7.068   3.606   9.236 -2.1123 -1.5716 -1.0762
  233MOL0     H31394   7.185   3.396   9.172 -2.1277  0.9287  0.2729
  233MOL0     H31395   7.228   3.372   9.344  1.9031  1.5174  1.2196
  233MOL0     H31396   7.316   3.620   9.188 -2.2090 -0.1432  2.3081
  233MOL0     H31397   7.336   3.584   9.364 -4.1016  0.3177  0.8551
  233MOL0     H31398   7.471   3.378   9.288  0.7705  1.5217  1.5859
  233MOL0     H31399   7.427   3.435   9.113 -2.0584  1.1391  0.5901
  233MOL0     H31400   7.597   3.576   9.326  1.4356  2.5647 -1.3571
  233MOL0     H31401   7.657   3.442   9.211 -1.6574 -1.8238 -2.3348
  233MOL0     H31402   7.601   3.730   9.183 -2.3652 -1.7692  2.2099
  233MOL0     H31403   7.568   3.634   9.035 -0.7076  2.6666 -0.6254
  233MOL0     H31404   7.810   3.536   9.066 -3.1322 -0.3336  0.2458
  233MOL0     H31405   7.786   3.705   9.013 -0.5671  0.6199  1.3810
  233MOL0     H31406   7.775   3.895   9.231  1.0280  1.2035  1.4834
  233MOL0     H31407   7.875   3.968   9.486  1.5904  1.0655  2.8253
  233MOL0     H31408   8.045   3.933   9.506  1.2329 -0.3503 -1.9026
  233MOL0     H31409   7.936   4.110   9.273  0.0774  0.9297 -0.1172
  233MOL0     H31410   8.021   4.154   9.420 -1.3615 -2.0868  2.2131
  233MOL0     H31411   8.155   4.160   9.215 -2.2535  2.4027  1.9178
  233MOL0     H31412   8.125   3.994   9.186  1.7502  1.2011 -0.2894
  233MOL0     H31413   8.337   3.987   9.259 -0.7670 -3.7608  2.6886
  233MOL0     H31414   8.259   3.959   9.414 -0.3095 -0.7107  0.5920
  233MOL0     H31415   8.477   3.938   9.445 -1.0880  0.9712  1.5201
  233MOL0     H31416   8.729   3.943   9.471  0.7974  1.4274  1.4272
  233MOL0     H31417   9.071   4.275   9.767  0.6273  1.4391  1.4979
  233MOL0     H31418   9.317   4.344   9.785  0.8013 -0.7745 -0.6237
  233MOL0     H31419   9.455   4.569   9.615  1.9890  2.4131 -0.5878
  233MOL0     H31420   9.534   4.505   9.758  1.3254 -2.2337  0.1872
  233MOL0     H31421   9.744   4.448   9.600  0.1003  0.7561  1.1636
  233MOL0     H31422   9.651   4.547   9.481 -5.3788 -1.1440 -0.0558
  233MOL0     H31423   9.653   4.735   9.646  2.1208  1.0056 -3.9518
  233MOL0     H31424   9.747   4.620   9.757  0.4563 -2.2053 -0.6958
  233MOL0     H31425   9.834   4.706   9.483 -0.6875 -0.9024 -0.7942
  233MOL0     H31426   9.929   4.611   9.595  0.5807  0.1798 -3.1921
  233MOL0     H31427   9.879   4.802   9.766 -0.3687 -1.3936  0.4872
  233MOL0     H31428   9.840   4.898   9.618  0.8465  0.2845  0.3980
  233MOL0     H31429  10.112   4.760   9.659 -1.2292  0.4318  0.7781
  233MOL0     H31430  10.074   4.882   9.540 -0.9418 -3.3557 -1.8159
  233MOL0     H31431  10.082   4.916   9.844  0.1615 -0.7904 -0.1854
  233MOL0     H31432  10.043   5.049   9.727 -1.0989 -1.1010 -0.9225
  233MOL0     H31433  10.298   4.885   9.777 -0.4887  0.0306 -0.6199
  233MOL0     H31434  10.286   4.995   9.629  1.7490  2.9316  2.0235
  233MOL0     H31435   9.354   4.359   9.368  1.9752  0.3378  0.9721
  233MOL0     H31436   9.128   4.301   9.337  1.0199  2.0029 -0.9456
  233MOL0     H31437   8.703   4.383   9.443 -1.3760  0.7321  0.5356
  233MOL0     H31438   8.483   4.365   9.382  0.4446 -0.1179 -0.8038
  233MOL0     H31439   6.731   3.270   9.312 -1.4658 -1.8113 -0.0369
  233MOL0     H31440   6.493   3.228   9.329  1.5330 -1.3280 -1.5080
  233MOL0     H31441   6.048   3.208   9.600 -2.0215  0.3306  0.9548
  233MOL0     H31442   5.816   3.253   9.634  1.5087  1.6424  2.3894
  233MOL0     H31443   5.587   3.346   9.668  0.2445  0.6136 -0.4064
  233MOL0     H31444   5.589   3.228   9.539 -0.7252 -0.2902 -2.3773
  233MOL0     H31445   5.368   3.280   9.553  0.5966 -0.4484 -0.1887
  233MOL0     H31446   5.423   3.387   9.424 -0.9309 -4.9380 -0.6538
  233MOL0     H31447   5.431   3.566   9.608 -0.7623  0.4575 -0.3325
  233MOL0     H31448   5.346   3.438   9.712 -1.3142  1.2152  0.6661
  233MOL0     H31449   5.253   3.569   9.446  0.9942  1.6122  1.7514
  233MOL0     H31450   5.167   3.456   9.545  3.0900 -2.5264  0.2928
  233MOL0     H31451   5.072   3.815   9.740  0.8081 -0.7207 -0.2753
  233MOL0     H31452   5.812   3.478   9.267  1.6997 -0.5119 -0.8306
  233MOL0     H31453   6.109   3.562   9.233 -2.0954  0.6511 -1.2182
  233MOL0     H31454   6.142   3.393   9.173 -0.7165  0.0783 -1.8571
  233MOL0     H31455   5.996   3.477   9.122  0.6886  2.4489 -1.8017
  234MOL0     O31456  10.223   0.643   8.797 -0.3006  0.4750 -0.0386
  234MOL0     C31457  10.140   0.721   8.840  0.0257 -0.2939  0.3705
  234MOL0     O31458  10.095   0.844   8.776 -0.3991  0.1893 -0.5789
  234MOL0     C31459  10.179   0.861   8.670  0.8540  0.0368  0.0732
  234MOL0     C31460  10.145   0.815   8.541 -0.4966 -0.4242  0.0941
  234MOL0     C31461  10.229   0.850   8.425  0.4766 -0.9883 -0.4076
  234MOL0     C31462  10.346   0.928   8.450 -0.2864 -0.4102  0.8244
  234MOL0     O31463  10.433   0.959   8.350 -0.1076 -0.2256 -0.3049
  234MOL0     C31464  10.381   0.976   8.214  1.1835 -0.2217 -0.7102
  234MOL0     C31465  10.472   1.054   8.121 -1.0418  0.1493 -0.0312
  234MOL0     C31466  10.617   0.990   8.134  0.1578 -0.5724  0.0550
  234MOL0     C31467  10.710   1.059   8.031 -0.3268  0.1781  0.2133
  234MOL0     C31468  10.856   1.018   8.051  0.4286 -0.3765 -0.3342
  234MOL0     C31469  10.953   1.066   7.948 -0.1658  0.1174 -0.6029
  234MOL0     C31470  11.100   1.007   7.939 -0.5020 -0.1246  0.7359
  234MOL0     C31471  11.184   1.026   8.063  0.6541 -0.0461 -0.3932
  234MOL0     N31472  11.194   1.170   8.084 -0.8771 -0.3363 -0.5856
  234MOL0     C31473  11.198   1.230   8.201 -0.3282  0.2161 -0.5028
  234MOL0     C31474  11.233   1.363   8.171  0.3374 -0.3132 -0.8164
  234MOL0     C31475  11.250   1.464   8.282 -0.4268  0.2703  0.2428
  234MOL0     C31476  11.396   1.457   8.336 -0.0224 -0.2375  0.2708
  234MOL0     C31477  11.424   1.383   8.462 -0.0044 -0.2148  0.4918
  234MOL0     C31478  11.576   1.392   8.509  0.3573  0.3956  0.1299
  234MOL0     O31479  11.603   1.521   8.547 -1.0312 -0.7019 -0.6935
  234MOL0     C31480  11.705   1.552   8.635  0.0349  0.4420  0.0906
  234MOL0     C31481  11.832   1.483   8.622 -0.1562 -0.7719 -0.1375
  234MOL0     C31482  11.933   1.513   8.716  0.1316 -0.7770 -1.2210
  234MOL0     C31483  11.903   1.602   8.824  0.3920 -0.2389 -0.3556
  234MOL0     C31484  12.014   1.641   8.913 -0.7351 -0.1652  0.8339
  234MOL0     O31485  12.117   1.555   8.911 -0.2601 -0.8367 -1.0531
  234MOL0     C31486  12.233   1.579   8.983  0.1815 -0.2752  0.0095
  234MOL0     C31487  12.319   1.475   9.001  1.0313 -0.6450  0.0781
  234MOL0     C31488  12.428   1.470   9.090  0.0903 -0.3059  0.0808
  234MOL0     C31489  12.470   1.588   9.148  0.1429  0.1389 -0.6437
  234MOL0     O31490  12.597   1.588   9.194 -0.1574 -0.3956  0.2999
  234MOL0     C31491  12.684   1.681   9.128  0.1201  0.4315 -0.2014
  234MOL0     C31492  12.816   1.605   9.107 -0.3689 -0.3488 -0.3199
  234MOL0     C31493  12.900   1.586   9.233 -0.2018  0.7531  0.0166
  234MOL0     C31494  13.034   1.527   9.197 -0.7055  1.5219  0.1282
  234MOL0     C31495  13.109   1.481   9.329 -0.3696 -0.8818 -0.1946
  234MOL0     C31496  13.238   1.404   9.303  0.9894  0.5910  0.8132
  234MOL0     C31497  13.351   1.402   9.421  0.3875 -0.4329  0.1375
  234MOL0     C31498  13.491   1.360   9.368  0.3018  0.2067  0.3292
  234MOL0    Cl31499  13.480   1.207   9.274 -0.0875 -0.2047  0.1064
  234MOL0     C31500  12.393   1.701   9.122  0.8308  0.2003 -0.1141
  234MOL0     C31501  12.273   1.693   9.047 -0.2119  0.1346 -0.4857
  234MOL0     O31502  11.995   1.741   8.983 -0.2302 -0.1966 -0.4918
  234MOL0     C31503  11.781   1.673   8.831 -0.3699 -0.3445 -0.4585
  234MOL0     C31504  11.685   1.643   8.732  0.0246  0.0324  0.3309
  234MOL0     N31505  11.266   1.371   8.041  1.4099 -0.0580  0.9435
  234MOL0     N31506  11.244   1.257   7.991 -0.1713  0.0852  1.1158
  234MOL0     C31507  10.383   0.958   8.588  0.6887 -0.0558 -0.5614
  234MOL0     C31508  10.300   0.923   8.693 -0.3747 -0.0875  0.6000
  234MOL0     C31509  10.073   0.706   8.972 -1.9156  0.0465 -0.4751
  234MOL0     C31510   9.984   0.795   9.021 -0.0137 -0.1202 -0.1152
  234MOL0     C31511   9.912   0.763   9.138  0.5601  0.2060  0.8301
  234MOL0     C31512   9.943   0.653   9.220 -0.0941  0.3519  0.3221
  234MOL0     O31513   9.881   0.628   9.341 -0.2065  0.0053  0.7894
  234MOL0     C31514   9.732   0.615   9.324 -0.3261 -0.0447 -0.4746
  234MOL0     C31515   9.695   0.532   9.449  0.8908  0.0366  0.2141
  234MOL0     C31516   9.550   0.477   9.463  0.5555  0.5253  0.2446
  234MOL0     C31517   9.442   0.559   9.540 -0.5405  0.1573  0.1905
  234MOL0     C31518   9.410   0.688   9.476  0.2194  0.1922  0.2214
  234MOL0     C31519   9.379   0.789   9.413  0.9678  0.2056 -0.5232
  234MOL0     C31520  10.060   0.585   9.182  1.1248 -0.7105  0.3430
  234MOL0     C31521  10.129   0.609   9.064  0.0987 -0.3092  1.1116
  234MOL0     C31522  10.252   0.514   9.045  0.4317 -0.9184 -0.3988
  234MOL0     H31523  10.046   0.776   8.522 -0.6529  0.0738 -0.1305
  234MOL0     H31524  10.195   0.823   8.326 -2.5027  0.8044 -0.0177
  234MOL0     H31525  10.359   0.884   8.158 -1.5417 -0.7456  1.0369
  234MOL0     H31526  10.289   1.033   8.229  0.6550 -0.6242 -2.2094
  234MOL0     H31527  10.482   1.155   8.163 -4.5037 -0.2672  2.1330
  234MOL0     H31528  10.447   1.063   8.015 -3.0989  1.2432  0.5114
  234MOL0     H31529  10.602   0.884   8.110 -0.7449 -0.4639  0.0851
  234MOL0     H31530  10.661   1.000   8.233 -1.3576 -0.2963  0.7325
  234MOL0     H31531  10.677   1.045   7.928  1.2564  0.0910 -0.2962
  234MOL0     H31532  10.710   1.167   8.049  3.3839  0.5586 -1.1656
  234MOL0     H31533  10.897   1.032   8.152  1.1359 -1.2856 -0.4723
  234MOL0     H31534  10.855   0.908   8.047  1.3724 -0.5689  2.4784
  234MOL0     H31535  10.908   1.062   7.848 -0.4269 -2.2846 -0.4389
  234MOL0     H31536  10.966   1.174   7.963  3.2547 -0.4357  1.3742
  234MOL0     H31537  11.141   1.058   7.851  2.0136  0.2246  2.0163
  234MOL0     H31538  11.097   0.900   7.916  0.3787  0.3326 -1.8475
  234MOL0     H31539  11.134   0.963   8.138  3.6189 -1.7135  0.3478
  234MOL0     H31540  11.283   0.993   8.030 -0.5208 -4.4917 -0.0915
  234MOL0     H31541  11.160   1.192   8.296 -1.1330  0.5354 -0.6937
  234MOL0     H31542  11.226   1.560   8.236 -2.5197 -1.2373 -2.0513
  234MOL0     H31543  11.174   1.446   8.360 -0.1220  1.3105  0.7931
  234MOL0     H31544  11.465   1.440   8.252  1.4321 -0.0556  1.3880
  234MOL0     H31545  11.411   1.560   8.370  1.6877 -0.2146 -0.4539
  234MOL0     H31546  11.390   1.281   8.440 -3.7241  0.8825  0.4243
  234MOL0     H31547  11.365   1.422   8.545 -0.5701  0.3670 -0.1658
  234MOL0     H31548  11.647   1.361   8.432 -0.0325  0.9844 -0.4791
  234MOL0     H31549  11.585   1.316   8.587 -1.4798  0.5233  0.5053
  234MOL0     H31550  11.852   1.418   8.537  0.3527 -1.4245  0.4707
  234MOL0     H31551  12.030   1.464   8.709  0.1536 -0.8865 -0.2030
  234MOL0     H31552  12.289   1.378   8.962 -0.5694 -0.0377 -0.2745
  234MOL0     H31553  12.484   1.380   9.112 -0.6607 -1.1022 -1.1270
  234MOL0     H31554  12.636   1.712   9.035 -2.5244  0.7707  1.1785
  234MOL0     H31555  12.696   1.772   9.187 -0.2981 -0.7980  1.8884
  234MOL0     H31556  12.801   1.509   9.056  0.8842 -0.8362  0.1979
  234MOL0     H31557  12.869   1.664   9.032  0.2314 -2.6412 -1.7961
  234MOL0     H31558  12.907   1.674   9.297 -1.3618 -0.6008  2.1478
  234MOL0     H31559  12.842   1.520   9.298 -0.1199  0.0097 -0.6464
  234MOL0     H31560  13.102   1.601   9.152  0.4359  0.8086  0.6152
  234MOL0     H31561  13.041   1.451   9.120  2.3600  2.0828 -0.2813
  234MOL0     H31562  13.036   1.429   9.391  0.0313 -1.0425  0.1540
  234MOL0     H31563  13.142   1.569   9.384 -0.1934 -0.0919 -1.5096
  234MOL0     H31564  13.213   1.302   9.275 -2.1777  1.4863  0.0111
  234MOL0     H31565  13.288   1.460   9.224  1.7141  2.2021  2.3509
  234MOL0     H31566  13.315   1.323   9.488  2.7980 -1.3629  0.4394
  234MOL0     H31567  13.356   1.503   9.463 -0.6247  0.2258 -1.2598
  234MOL0     H31568  13.518   1.434   9.292 -0.6336  1.3068  1.0412
  234MOL0     H31569  13.572   1.337   9.438  0.0722 -1.1976  0.1515
  234MOL0     H31570  12.410   1.806   9.145  2.3331  0.3832 -1.8676
  234MOL0     H31571  12.217   1.786   9.045  1.4738  1.2646  1.1107
  234MOL0     H31572  11.761   1.745   8.909 -0.7782 -0.4517 -0.4622
  234MOL0     H31573  11.592   1.695   8.750 -0.0220  0.0200  0.1282
  234MOL0     H31574  10.467   1.024   8.606 -0.0311  1.7114 -3.1410
  234MOL0     H31575  10.319   0.943   8.798  0.0705  1.0680  0.3165
  234MOL0     H31576   9.959   0.881   8.959  0.5956  0.5216  0.5108
  234MOL0     H31577   9.838   0.831   9.179  1.8500  0.4256  2.9995
  234MOL0     H31578   9.724   0.561   9.229 -3.1931  2.4432 -1.8437
  234MOL0     H31579   9.670   0.705   9.316 -1.4828 -0.8125 -0.3252
  234MOL0     H31580   9.734   0.594   9.530  3.0899 -0.5928 -0.2954
  234MOL0     H31581   9.759   0.444   9.460 -1.7412 -1.8091  1.8572
  234MOL0     H31582   9.560   0.381   9.514 -2.3373  0.1642  0.2794
  234MOL0     H31583   9.507   0.448   9.366  2.1530  2.1182 -1.0144
  234MOL0     H31584   9.348   0.504   9.553 -0.1383 -0.3618  1.0684
  234MOL0     H31585   9.482   0.578   9.640 -2.9739 -0.9732  1.4753
  234MOL0     H31586   9.332   0.872   9.365 -0.1224 -0.4173 -0.5947
  234MOL0     H31587  10.091   0.505   9.249  2.3753  0.2389  0.9351
  234MOL0     H31588  10.291   0.475   9.140  1.9047 -3.1442 -1.8399
  234MOL0     H31589  10.220   0.430   8.982  0.2238 -0.9132 -0.3022
  234MOL0     H31590  10.332   0.568   8.994 -0.2899  2.1142  1.3920
  235MOL0     O31591   0.992   5.535  10.704 -0.0114 -0.1557 -0.0469
  235MOL0     C31592   0.974   5.456  10.795 -0.3920  0.0997 -0.7447
  235MOL0     O31593   1.073   5.376  10.862 -0.2219  0.6634 -0.0876
  235MOL0     C31594   1.202   5.409  10.843 -0.9901  0.3283  0.9843
  235MOL0     C31595   1.293   5.317  10.777  0.2016 -0.2525  1.3898
  235MOL0     C31596   1.418   5.355  10.740  0.3830 -0.0085  0.2471
  235MOL0     C31597   1.470   5.482  10.770  0.1150 -0.0275 -0.7352
  235MOL0     O31598   1.588   5.518  10.724  0.0861 -0.3958  0.0421
  235MOL0     C31599   1.622   5.651  10.684  0.0028  0.1439 -1.1974
  235MOL0     C31600   1.770   5.638  10.651  0.4170 -0.9062  0.0883
  235MOL0     C31601   1.825   5.776  10.630 -0.5591  0.2859  0.3510
  235MOL0     C31602   1.974   5.764  10.588  0.6616  0.8338 -0.8723
  235MOL0     C31603   2.029   5.893  10.540 -0.3044  0.2632  0.9735
  235MOL0     C31604   2.178   5.879  10.505 -1.2481  0.3169  0.7112
  235MOL0     C31605   2.231   6.024  10.470  0.8423  0.1740 -0.3397
  235MOL0     C31606   2.284   6.100  10.586 -1.0265 -0.0279 -0.8518
  235MOL0     N31607   2.427   6.090  10.582  0.2505 -0.1368  0.4452
  235MOL0     C31608   2.501   6.196  10.540 -0.1189 -0.4502 -0.6405
  235MOL0     C31609   2.637   6.157  10.557 -0.5807 -0.5759 -0.1737
  235MOL0     C31610   2.748   6.236  10.502  1.0742 -0.3361  0.6020
  235MOL0     C31611   2.882   6.202  10.562  0.9269  0.3324 -0.1574
  235MOL0     C31612   2.987   6.301  10.524  0.0386 -0.5126  0.4067
  235MOL0     C31613   3.126   6.256  10.565 -0.5036 -1.1099  0.2512
  235MOL0     O31614   3.202   6.372  10.575 -0.1103 -0.6645  0.4088
  235MOL0     C31615   3.338   6.382  10.552  0.1835 -0.8130  0.7661
  235MOL0     C31616   3.396   6.511  10.551 -0.8206  0.7898  0.0316
  235MOL0     C31617   3.536   6.530  10.529 -0.0714 -0.6043  0.6048
  235MOL0     C31618   3.621   6.419  10.517 -0.0504  0.4952  0.3914
  235MOL0     C31619   3.765   6.438  10.511 -0.1350  0.2046  0.1542
  235MOL0     O31620   3.833   6.560  10.520  0.1175  0.8740 -0.9070
  235MOL0     C31621   3.972   6.559  10.513 -0.0161  0.9571 -0.8239
  235MOL0     C31622   4.040   6.498  10.618 -0.3511  0.7462 -0.4646
  235MOL0     C31623   4.182   6.501  10.620 -0.7069 -0.0953 -0.0281
  235MOL0     C31624   4.251   6.569  10.514  0.1016 -0.0212  0.3451
  235MOL0     O31625   4.388   6.592  10.517  0.5832  1.3343  0.0694
  235MOL0     C31626   4.475   6.625  10.413 -0.7948  0.6381  0.6876
  235MOL0     C31627   4.612   6.660  10.480 -0.4929  0.6441  0.0815
  235MOL0     C31628   4.597   6.780  10.577 -0.0567  0.0609 -0.2109
  235MOL0     C31629   4.729   6.827  10.639  0.0647  0.1361  0.2401
  235MOL0     C31630   4.691   6.964  10.714 -0.3373 -0.0375 -0.4789
  235MOL0     C31631   4.805   7.071  10.679  0.2214 -0.5152  0.1370
  235MOL0     C31632   4.928   7.044  10.775  0.2883 -0.3190  0.5366
  235MOL0     C31633   5.047   7.005  10.698 -0.1114  0.8913  0.4805
  235MOL0    Cl31634   5.085   7.154  10.607 -0.0945  0.3237 -0.3653
  235MOL0     C31635   4.182   6.630  10.418 -0.6559 -0.5162  0.2343
  235MOL0     C31636   4.045   6.619  10.413  0.3436 -0.3390  0.8413
  235MOL0     O31637   3.826   6.334  10.480 -0.0807 -0.5871 -0.5795
  235MOL0     C31638   3.562   6.289  10.524  0.2923 -0.1509 -0.4372
  235MOL0     C31639   3.423   6.270  10.537  0.3911  0.1310 -0.0595
  235MOL0     N31640   2.633   6.038  10.619 -0.6786 -0.2657 -0.3223
  235MOL0     N31641   2.510   5.992  10.632 -0.8957 -0.6658  0.4153
  235MOL0     C31642   1.389   5.560  10.854  0.2425 -0.6055  0.3898
  235MOL0     C31643   1.252   5.532  10.879 -0.4347 -0.9583  0.0462
  235MOL0     C31644   0.831   5.448  10.833 -0.5140  0.6368 -0.4284
  235MOL0     C31645   0.787   5.320  10.880  0.0643 -0.1604 -0.6546
  235MOL0     C31646   0.653   5.298  10.914  0.6664 -0.1761  0.4369
  235MOL0     C31647   0.559   5.403  10.916  0.5608  0.1388  0.5243
  235MOL0     O31648   0.426   5.396  10.959 -0.4524 -0.1715  0.1068
  235MOL0     C31649   0.318   5.378  10.870  0.6855  0.2965  0.2332
  235MOL0     C31650   0.330   5.243  10.793  0.7298 -0.3020 -1.0664
  235MOL0     C31651   0.316   5.117  10.886 -0.2275  0.6381 -0.6547
  235MOL0     C31652   0.181   5.108  10.958  0.6951  0.5088 -0.5394
  235MOL0     C31653   0.065   5.094  10.860 -0.1901 -0.5609 -0.6651
  235MOL0     C31654  -0.032   5.066  10.798 -0.5511  0.6463  0.4492
  235MOL0     C31655   0.604   5.521  10.863  0.2130  0.2267 -0.1840
  235MOL0     C31656   0.734   5.544  10.817 -0.6230  0.2758 -0.2364
  235MOL0     C31657   0.765   5.680  10.748  0.3981 -0.0187 -0.0094
  235MOL0     H31658   1.243   5.223  10.753 -2.0073  1.6383 -2.4215
  235MOL0     H31659   1.479   5.286  10.683  1.4303  0.9997  0.1136
  235MOL0     H31660   1.565   5.683  10.596  0.0767 -2.7380 -2.3898
  235MOL0     H31661   1.613   5.717  10.771 -0.9227  0.3593 -1.4444
  235MOL0     H31662   1.786   5.573  10.563 -0.4953 -2.2572  0.8876
  235MOL0     H31663   1.829   5.588  10.729  2.2186  3.8387  2.1176
  235MOL0     H31664   1.816   5.831  10.725 -0.4358 -0.8871  1.0707
  235MOL0     H31665   1.778   5.839  10.555  2.8555  0.0664 -2.1995
  235MOL0     H31666   2.036   5.742  10.676 -1.6374 -1.1273  0.3585
  235MOL0     H31667   1.987   5.677  10.522 -2.9291 -1.3321  0.9485
  235MOL0     H31668   1.967   5.906  10.451 -0.4255 -1.0588  0.8344
  235MOL0     H31669   2.001   5.976  10.606 -2.5954  0.9340 -0.6965
  235MOL0     H31670   2.247   5.829  10.573  0.5730  0.4726 -0.9256
  235MOL0     H31671   2.176   5.822  10.411 -0.8992  0.4779  0.6043
  235MOL0     H31672   2.145   6.077  10.428 -1.5616 -3.0163  0.2514
  235MOL0     H31673   2.306   6.027  10.390  0.2148  0.3479 -0.9270
  235MOL0     H31674   2.240   6.200  10.583 -2.4272 -0.4153  2.4357
  235MOL0     H31675   2.251   6.076  10.688  3.1042 -3.8782 -0.0704
  235MOL0     H31676   2.464   6.290  10.501  2.4217  0.4891 -1.0358
  235MOL0     H31677   2.767   6.214  10.397  0.0629  2.8187 -0.3645
  235MOL0     H31678   2.724   6.343  10.504  1.2032 -0.3086  0.6899
  235MOL0     H31679   2.869   6.196  10.671  0.5910  1.3679 -0.1306
  235MOL0     H31680   2.905   6.099  10.531  0.1769 -0.0707  0.5926
  235MOL0     H31681   2.977   6.399  10.572  0.7831 -1.0004  1.5690
  235MOL0     H31682   2.988   6.318  10.415 -1.0564 -0.2935  0.4164
  235MOL0     H31683   3.170   6.192  10.489  1.4629 -2.1639  2.1697
  235MOL0     H31684   3.132   6.200  10.659  0.0358  1.1474  1.6567
  235MOL0     H31685   3.332   6.595  10.575  0.8662  2.2967 -0.4981
  235MOL0     H31686   3.578   6.630  10.519 -0.5809 -0.1983  2.2849
  235MOL0     H31687   3.980   6.447  10.693  0.6425 -1.1141 -0.8544
  235MOL0     H31688   4.241   6.453  10.697 -2.4969  1.8869  2.7649
  235MOL0     H31689   4.495   6.535  10.354  1.6668  1.9580 -0.6788
  235MOL0     H31690   4.446   6.710  10.350 -1.1427  0.4673  0.6202
  235MOL0     H31691   4.639   6.574  10.541 -2.3953  0.4100  0.6523
  235MOL0     H31692   4.690   6.684  10.406  1.9500  0.4834  2.4250
  235MOL0     H31693   4.546   6.857  10.518  0.2307  0.9214  0.6269
  235MOL0     H31694   4.526   6.760  10.658 -2.4531 -1.0670 -2.4340
  235MOL0     H31695   4.804   6.843  10.561 -1.4252 -0.1945 -1.3094
  235MOL0     H31696   4.769   6.753  10.709 -1.1453 -1.2160 -0.4427
  235MOL0     H31697   4.661   6.953  10.819 -1.5130 -0.8098 -0.8791
  235MOL0     H31698   4.603   7.009  10.667 -2.4161  0.0052  3.1143
  235MOL0     H31699   4.839   7.051  10.577 -1.4979 -0.7624 -0.4072
  235MOL0     H31700   4.780   7.175  10.698  4.3641  0.4624  1.3406
  235MOL0     H31701   4.895   6.966  10.843 -0.7953 -0.1159  0.2698
  235MOL0     H31702   4.953   7.126  10.842  2.6029 -1.6414  1.4028
  235MOL0     H31703   5.131   6.982  10.765 -0.0215 -2.6250 -0.6436
  235MOL0     H31704   5.036   6.921  10.629  3.3134  2.1067 -1.8342
  235MOL0     H31705   4.229   6.676  10.332 -2.6580 -1.2074 -1.2902
  235MOL0     H31706   3.992   6.666  10.331  1.1882 -1.7720 -0.6073
  235MOL0     H31707   3.611   6.193  10.514 -0.4337 -0.8527  2.0575
  235MOL0     H31708   3.376   6.173  10.550  0.6632  0.1054  0.8680
  235MOL0     H31709   1.426   5.659  10.878 -0.0369 -0.9272  2.3357
  235MOL0     H31710   1.187   5.603  10.929 -0.9863 -1.5827  0.2441
  235MOL0     H31711   0.860   5.246  10.911 -0.2859 -0.1624  0.1898
  235MOL0     H31712   0.634   5.203  10.964 -1.8437 -0.4646 -0.9106
  235MOL0     H31713   0.326   5.456  10.794  2.5540 -2.2432 -2.3764
  235MOL0     H31714   0.217   5.391  10.910  0.5935 -0.1010  0.1346
  235MOL0     H31715   0.423   5.249  10.735  0.3890 -3.1161 -2.0465
  235MOL0     H31716   0.244   5.241  10.726 -1.8761 -1.0331  2.0723
  235MOL0     H31717   0.395   5.114  10.962 -0.0374 -2.2720 -0.8605
  235MOL0     H31718   0.320   5.023  10.830 -1.8770 -0.8831  1.5764
  235MOL0     H31719   0.183   5.026  11.030  1.0511 -0.0250 -1.1400
  235MOL0     H31720   0.159   5.196  11.018  1.6395 -0.1080  0.7730
  235MOL0     H31721  -0.119   5.043  10.739 -0.8174  2.4818  0.0883
  235MOL0     H31722   0.533   5.603  10.856 -0.9441 -0.8698 -2.9511
  235MOL0     H31723   0.697   5.751  10.797  1.1462  0.1925  0.7366
  235MOL0     H31724   0.867   5.720  10.750  0.5911 -0.4921  1.7423
  235MOL0     H31725   0.748   5.678  10.640  3.3848 -2.4263 -0.5508
  236MOL0     O31726   3.879   6.239   7.474  0.1396  0.3114 -0.9067
  236MOL0     C31727   3.818   6.255   7.584  0.1729 -0.2254  0.1774
  236MOL0     O31728   3.858   6.194   7.704  0.8743  0.2097  0.6593
  236MOL0     C31729   3.978   6.125   7.719 -0.3004 -0.3388 -0.3814
  236MOL0     C31730   4.090   6.113   7.630 -0.8158 -0.8536 -0.1750
  236MOL0     C31731   4.202   6.032   7.658  0.0301 -0.1846  0.6195
  236MOL0     C31732   4.212   5.976   7.777 -0.2575  0.1569 -0.1767
  236MOL0     O31733   4.322   5.899   7.808 -0.4082  0.0588 -0.2251
  236MOL0     C31734   4.357   5.787   7.732  1.0958  0.1219  0.5315
  236MOL0     C31735   4.509   5.771   7.739 -0.8078  0.1547  0.1724
  236MOL0     C31736   4.575   5.904   7.732  0.0060 -0.5286  0.8184
  236MOL0     C31737   4.719   5.895   7.707 -0.7323  1.2700  0.4008
  236MOL0     C31738   4.805   6.028   7.721  0.4212  0.1574  0.2087
  236MOL0     C31739   4.956   6.016   7.708 -0.9099 -0.7355 -0.0614
  236MOL0     C31740   5.015   6.154   7.684  0.4117 -0.2227 -0.2275
  236MOL0     C31741   5.153   6.157   7.615 -0.0130  0.3136 -0.3419
  236MOL0     N31742   5.263   6.098   7.690  0.8879 -0.1938  0.8332
  236MOL0     C31743   5.366   6.162   7.755  0.4227 -0.9035 -0.4459
  236MOL0     C31744   5.431   6.064   7.822 -0.4246 -0.6823 -0.3183
  236MOL0     C31745   5.527   6.070   7.928 -0.1394 -0.3466  0.2358
  236MOL0     C31746   5.657   6.135   7.884  0.1111 -0.1798 -0.0943
  236MOL0     C31747   5.764   6.114   7.990 -0.0949  0.0677  0.1763
  236MOL0     C31748   5.904   6.138   7.939  0.3415  0.1284  0.4665
  236MOL0     O31749   5.989   6.151   8.048  0.6784  0.0308 -0.2026
  236MOL0     C31750   6.127   6.150   8.027 -0.2373  0.9054  0.0769
  236MOL0     C31751   6.186   6.152   7.897  0.0811  0.3522 -0.0203
  236MOL0     C31752   6.325   6.147   7.883  0.0247  0.3255  0.3365
  236MOL0     C31753   6.412   6.148   7.998 -0.4494 -0.0708  0.1253
  236MOL0     C31754   6.560   6.143   7.985 -0.3364 -0.0075  0.0707
  236MOL0     O31755   6.626   6.188   8.096 -0.1014 -0.3279  0.0243
  236MOL0     C31756   6.766   6.191   8.115  1.2034 -0.3203 -0.1575
  236MOL0     C31757   6.858   6.126   8.028  0.0669 -0.3503  0.2605
  236MOL0     C31758   6.997   6.138   8.058  0.5493  0.2538  0.2422
  236MOL0     C31759   7.040   6.200   8.172  0.0452  0.2215  0.3878
  236MOL0     O31760   7.175   6.196   8.204 -0.5714 -0.2313  0.3315
  236MOL0     C31761   7.257   6.274   8.120 -0.1924 -0.2055 -1.2359
  236MOL0     C31762   7.389   6.311   8.202  0.3305  0.7209  0.5236
  236MOL0     C31763   7.360   6.353   8.344  0.3088 -0.3447  0.1949
  236MOL0     C31764   7.485   6.356   8.420 -1.1277  0.6744 -0.1146
  236MOL0     C31765   7.592   6.464   8.374 -0.3229  0.3310  0.0655
  236MOL0     C31766   7.685   6.488   8.497 -0.4686  0.4976  0.5597
  236MOL0     C31767   7.620   6.536   8.622 -0.5811 -0.7091 -0.3053
  236MOL0     C31768   7.714   6.618   8.715 -0.3574  0.2859  1.1505
  236MOL0    Cl31769   7.864   6.533   8.749  0.3973  0.0990  0.4167
  236MOL0     C31770   6.944   6.258   8.251  0.0681 -0.3721 -1.0494
  236MOL0     C31771   6.809   6.259   8.224 -0.1433 -0.7812 -0.0712
  236MOL0     O31772   6.612   6.103   7.881  0.4618  0.3800  0.3592
  236MOL0     C31773   6.352   6.176   8.123 -0.1269 -0.0867 -0.1678
  236MOL0     C31774   6.213   6.169   8.139  0.7209  0.4681  0.2167
  236MOL0     N31775   5.364   5.949   7.801  0.0923  0.2625 -0.9105
  236MOL0     N31776   5.266   5.964   7.716 -0.0284 -0.3248 -0.1121
  236MOL0     C31777   4.101   5.975   7.865 -0.1912 -0.4986 -0.0399
  236MOL0     C31778   3.984   6.051   7.843 -0.5690  0.1060  0.4632
  236MOL0     C31779   3.704   6.346   7.595 -0.7321 -0.0232  0.8808
  236MOL0     C31780   3.680   6.404   7.714 -0.3114  0.3056  0.0508
  236MOL0     C31781   3.572   6.482   7.731 -0.6442 -0.2729 -0.0139
  236MOL0     C31782   3.490   6.512   7.627 -0.2282  1.3469  0.1600
  236MOL0     O31783   3.390   6.605   7.647  0.4804 -0.6547 -0.4003
  236MOL0     C31784   3.293   6.633   7.546 -0.4038 -0.0954  0.0282
  236MOL0     C31785   3.173   6.706   7.609 -0.3585 -0.1345  0.3868
  236MOL0     C31786   3.064   6.754   7.512  0.2206  0.5444 -0.9828
  236MOL0     C31787   2.935   6.776   7.595  0.4110 -0.1908  0.5517
  236MOL0     C31788   2.823   6.769   7.507  0.0622 -0.5555 -0.2829
  236MOL0     C31789   2.722   6.754   7.433 -0.4422 -0.5038 -0.9827
  236MOL0     C31790   3.509   6.449   7.505  0.1096 -0.5693 -0.1000
  236MOL0     C31791   3.615   6.367   7.484 -0.0594  0.9846 -0.5526
  236MOL0     C31792   3.626   6.291   7.351 -0.2360  0.0157 -1.3070
  236MOL0     H31793   4.091   6.176   7.541  2.2814  0.3242  0.5538
  236MOL0     H31794   4.287   6.028   7.591 -0.8092 -1.8549 -0.3891
  236MOL0     H31795   4.302   5.703   7.775  1.9113 -1.0695 -0.6940
  236MOL0     H31796   4.319   5.795   7.630 -2.4623  0.8788  1.7653
  236MOL0     H31797   4.542   5.702   7.660  1.1121 -2.9966  3.4195
  236MOL0     H31798   4.527   5.722   7.835 -0.8948 -3.2765 -1.4336
  236MOL0     H31799   4.559   5.973   7.815  0.6071  1.6326 -0.7569
  236MOL0     H31800   4.534   5.947   7.640  0.5029 -0.2909  0.7044
  236MOL0     H31801   4.761   5.815   7.768  3.1085  1.2154 -2.0258
  236MOL0     H31802   4.729   5.857   7.605 -1.4109 -0.5556  0.9725
  236MOL0     H31803   4.752   6.095   7.652 -2.0840 -2.3095 -0.4563
  236MOL0     H31804   4.783   6.065   7.821 -2.1733 -0.1644 -0.1764
  236MOL0     H31805   4.990   5.962   7.796  0.5438 -0.0825 -0.1870
  236MOL0     H31806   4.982   5.954   7.621  3.0134 -2.4506  2.0852
  236MOL0     H31807   5.014   6.218   7.772 -1.1434  0.5893 -0.7978
  236MOL0     H31808   4.946   6.198   7.610 -2.1957 -1.9935  0.9956
  236MOL0     H31809   5.149   6.113   7.514  0.2159 -1.2450  0.2932
  236MOL0     H31810   5.185   6.261   7.603  1.5362 -0.2904 -2.1183
  236MOL0     H31811   5.393   6.267   7.758  0.6661 -0.9828  1.4094
  236MOL0     H31812   5.488   6.127   8.013  0.8088 -0.1776  0.5723
  236MOL0     H31813   5.546   5.969   7.967  1.0076 -0.7968 -1.3907
  236MOL0     H31814   5.687   6.095   7.787 -0.1747  3.1378 -1.6923
  236MOL0     H31815   5.650   6.242   7.864  2.2609  0.1705  0.7514
  236MOL0     H31816   5.762   6.009   8.022  3.2266 -0.3780 -0.6465
  236MOL0     H31817   5.733   6.181   8.070 -0.0434 -1.9853  2.0132
  236MOL0     H31818   5.899   6.227   7.874 -0.5900  0.0645  0.4383
  236MOL0     H31819   5.930   6.044   7.890  0.8465 -0.1926  1.3379
  236MOL0     H31820   6.121   6.142   7.811  0.7825  1.8398 -0.7611
  236MOL0     H31821   6.368   6.124   7.786 -1.3909 -1.0250 -0.0140
  236MOL0     H31822   6.827   6.056   7.951 -0.2654  1.7363 -1.6128
  236MOL0     H31823   7.065   6.083   7.995 -0.1652  0.4475 -0.7233
  236MOL0     H31824   7.268   6.242   8.016  2.7557  4.5166 -2.7167
  236MOL0     H31825   7.207   6.369   8.099 -0.3028 -0.0426 -0.2442
  236MOL0     H31826   7.460   6.228   8.204  0.5050  0.7404 -2.0426
  236MOL0     H31827   7.442   6.386   8.143  0.2793 -0.0812 -0.5633
  236MOL0     H31828   7.313   6.452   8.352  1.7348  0.6741 -2.7933
  236MOL0     H31829   7.296   6.280   8.395  1.6199 -2.9978 -1.7552
  236MOL0     H31830   7.525   6.255   8.420 -2.4591  0.0868  2.0537
  236MOL0     H31831   7.451   6.387   8.520 -1.0918  1.0440 -0.2129
  236MOL0     H31832   7.549   6.554   8.330 -1.6547  0.1379  0.9258
  236MOL0     H31833   7.661   6.420   8.301 -0.4972  1.1360 -0.5926
  236MOL0     H31834   7.731   6.391   8.522 -0.6235  0.6281  1.3748
  236MOL0     H31835   7.765   6.557   8.468  1.1182 -0.4558  2.4520
  236MOL0     H31836   7.586   6.455   8.688 -0.7326  0.7917  1.5393
  236MOL0     H31837   7.523   6.582   8.601 -1.8228 -2.6108  0.8808
  236MOL0     H31838   7.744   6.703   8.653 -1.1336 -1.3933 -1.7126
  236MOL0     H31839   7.657   6.653   8.801 -0.5718  1.3479  0.6013
  236MOL0     H31840   6.978   6.304   8.343  0.3140 -2.6165  0.0610
  236MOL0     H31841   6.744   6.310   8.295  1.7123 -1.8836  2.6017
  236MOL0     H31842   6.412   6.223   8.201  1.4975  0.8749 -1.8981
  236MOL0     H31843   6.172   6.182   8.239  0.3525 -0.1091  0.1439
  236MOL0     H31844   4.103   5.912   7.954 -1.2507 -0.4488  0.0236
  236MOL0     H31845   3.904   6.043   7.917 -1.1487 -2.1650 -0.3122
  236MOL0     H31846   3.746   6.390   7.799  0.4224 -0.5257 -0.6283
  236MOL0     H31847   3.550   6.517   7.831 -0.1188  0.5263 -0.1706
  236MOL0     H31848   3.250   6.538   7.512 -3.0132  1.1640 -0.4084
  236MOL0     H31849   3.323   6.686   7.455 -1.7488  1.8636  0.6635
  236MOL0     H31850   3.220   6.799   7.641  1.8283 -1.1058  0.1638
  236MOL0     H31851   3.128   6.648   7.690 -1.1005 -0.0188  0.0707
  236MOL0     H31852   3.043   6.678   7.436 -0.3137  1.9286 -2.2566
  236MOL0     H31853   3.091   6.846   7.460  0.1714  1.6943  0.9252
  236MOL0     H31854   2.921   6.706   7.678  3.6715 -0.6863  0.8473
  236MOL0     H31855   2.952   6.877   7.633  1.4462 -0.6752  1.4504
  236MOL0     H31856   2.643   6.723   7.367 -1.5501  2.4128 -1.1926
  236MOL0     H31857   3.438   6.471   7.426  0.3486  0.3832 -0.0604
  236MOL0     H31858   3.630   6.183   7.365 -0.4514  0.1852  0.2748
  236MOL0     H31859   3.542   6.319   7.287  0.3596 -2.4311 -3.3447
  236MOL0     H31860   3.713   6.321   7.292  1.5450 -3.1648 -0.5551
  237MOL0     O31861   1.158   2.538   3.200 -0.5753 -0.1078  0.4316
  237MOL0     C31862   1.140   2.509   3.080 -0.2456  0.6387  0.9441
  237MOL0     O31863   1.242   2.508   2.986  0.3689  0.2484 -0.6332
  237MOL0     C31864   1.343   2.596   3.016 -0.3767 -0.3899  0.2003
  237MOL0     C31865   1.457   2.568   3.092  0.0838 -0.4293  0.2298
  237MOL0     C31866   1.559   2.665   3.123 -0.1600 -1.1304 -0.0703
  237MOL0     C31867   1.542   2.793   3.061 -0.0335 -0.3700 -0.4383
  237MOL0     O31868   1.636   2.890   3.091  0.2887 -0.0900 -0.2500
  237MOL0     C31869   1.613   3.031   3.069  0.3040  0.1602 -0.2126
  237MOL0     C31870   1.738   3.112   3.116 -0.4736  0.1368 -0.2122
  237MOL0     C31871   1.875   3.081   3.047 -0.2107 -0.1692 -0.6040
  237MOL0     C31872   1.981   3.182   3.084 -0.2212 -0.3416 -0.0706
  237MOL0     C31873   2.116   3.137   3.024 -0.0342 -0.1890 -0.0526
  237MOL0     C31874   2.231   3.208   3.091  0.1054 -0.0652 -0.6078
  237MOL0     C31875   2.362   3.192   3.010  0.5390  0.3453  0.3408
  237MOL0     C31876   2.389   3.043   2.967  0.0623 -0.1769  0.0885
  237MOL0     N31877   2.512   3.037   2.888  0.5497 -0.2333  0.0234
  237MOL0     C31878   2.629   3.097   2.914 -0.2404 -0.1369 -0.3508
  237MOL0     C31879   2.719   3.041   2.829  0.3026  0.0366  0.2113
  237MOL0     C31880   2.867   3.069   2.810 -0.7127  0.0846  0.2259
  237MOL0     C31881   2.893   3.211   2.759  0.0338 -0.7472  0.2008
  237MOL0     C31882   3.029   3.223   2.695  0.6026 -0.4277 -1.0425
  237MOL0     C31883   3.133   3.233   2.813 -0.6776  0.3821  0.6281
  237MOL0     O31884   3.248   3.301   2.746  0.1979  0.3262  0.2675
  237MOL0     C31885   3.379   3.259   2.781  0.8415  0.6587 -0.5195
  237MOL0     C31886   3.476   3.332   2.725 -0.1141  0.7286  0.1171
  237MOL0     C31887   3.610   3.319   2.756 -0.2880  0.3482  0.0302
  237MOL0     C31888   3.649   3.228   2.858 -0.5120 -0.1369 -0.9604
  237MOL0     C31889   3.786   3.229   2.914 -0.3248 -0.9110  0.3051
  237MOL0     O31890   3.879   3.284   2.835 -0.4992  0.2140  1.0046
  237MOL0     C31891   4.012   3.255   2.849  0.4017 -0.8213  0.6541
  237MOL0     C31892   4.112   3.354   2.817  0.1394  0.1536 -0.5664
  237MOL0     C31893   4.255   3.334   2.821  0.4356  0.0957 -0.0752
  237MOL0     C31894   4.300   3.217   2.887  0.1012  0.2119  0.3649
  237MOL0     O31895   4.431   3.193   2.915  0.5725 -0.4649 -0.5996
  237MOL0     C31896   4.486   3.275   3.014 -0.0098 -0.3849  0.3721
  237MOL0     C31897   4.635   3.241   3.021 -0.6099  0.0567  0.1194
  237MOL0     C31898   4.687   3.280   3.159 -0.9585 -0.5015 -0.5349
  237MOL0     C31899   4.825   3.210   3.185  0.8491  0.7165  0.6365
  237MOL0     C31900   4.883   3.266   3.312 -0.6470 -0.0831  0.5173
  237MOL0     C31901   5.019   3.201   3.360  0.2639  0.6650  1.0970
  237MOL0     C31902   4.986   3.062   3.413 -1.0450 -1.2143 -0.1570
  237MOL0     C31903   5.104   2.995   3.485  0.1145 -0.4941 -0.0789
  237MOL0    Cl31904   5.250   2.959   3.377 -0.0470 -0.1681 -0.2158
  237MOL0     C31905   4.203   3.128   2.922 -0.1782  1.0061 -0.9180
  237MOL0     C31906   4.064   3.139   2.901 -0.9126  0.5656  0.1248
  237MOL0     O31907   3.809   3.176   3.019 -0.0341 -0.4847 -0.3262
  237MOL0     C31908   3.555   3.156   2.926 -0.0177  1.0662  0.0743
  237MOL0     C31909   3.423   3.163   2.888 -0.0465  0.0912 -0.5839
  237MOL0     N31910   2.647   2.945   2.761 -0.9558 -0.3599 -0.2592
  237MOL0     N31911   2.523   2.947   2.792 -0.4061  0.4668 -0.1547
  237MOL0     C31912   1.430   2.822   2.993  0.2806  0.4379 -0.3829
  237MOL0     C31913   1.329   2.730   2.975  0.1756 -0.0914 -0.2182
  237MOL0     C31914   1.007   2.488   3.026  0.1833  0.7675 -1.4129
  237MOL0     C31915   0.981   2.497   2.889 -0.2914  1.3059 -0.2017
  237MOL0     C31916   0.855   2.493   2.835 -0.0896  0.3206  0.1724
  237MOL0     C31917   0.747   2.495   2.915  0.8030 -0.7232 -1.1238
  237MOL0     O31918   0.628   2.514   2.845  0.1902 -0.2379 -0.8120
  237MOL0     C31919   0.508   2.560   2.906 -0.3768  0.6158  0.0685
  237MOL0     C31920   0.403   2.592   2.802 -0.9713 -0.6515 -0.6705
  237MOL0     C31921   0.441   2.729   2.737 -0.2999 -0.4611 -0.0553
  237MOL0     C31922   0.365   2.750   2.607  0.7177  0.3336  0.1653
  237MOL0     C31923   0.222   2.740   2.639 -0.0810 -1.0700  0.1737
  237MOL0     C31924   0.111   2.739   2.686 -0.5208 -0.5073  0.9111
  237MOL0     C31925   0.759   2.488   3.055  0.1412  0.0225  0.7601
  237MOL0     C31926   0.891   2.474   3.110  0.7831  0.0355 -0.0779
  237MOL0     C31927   0.896   2.449   3.261 -0.0411 -1.0376  0.8191
  237MOL0     H31928   1.462   2.469   3.136 -1.3290 -1.4798 -1.8272
  237MOL0     H31929   1.651   2.637   3.174  0.7605 -2.3857 -2.2787
  237MOL0     H31930   1.581   3.048   2.966 -2.8639 -0.8956  0.4947
  237MOL0     H31931   1.529   3.064   3.131  0.0303  0.9513 -0.9790
  237MOL0     H31932   1.750   3.079   3.220 -0.7718 -0.3199 -0.3211
  237MOL0     H31933   1.728   3.221   3.109  2.6989  0.7651  2.2213
  237MOL0     H31934   1.859   3.082   2.939  1.2207  0.5061 -0.8416
  237MOL0     H31935   1.904   2.981   3.079 -0.7779  0.2144  1.2106
  237MOL0     H31936   1.939   3.279   3.054 -1.8471 -0.5241  1.4253
  237MOL0     H31937   1.981   3.181   3.193 -3.0559  1.4590  0.0605
  237MOL0     H31938   2.133   3.030   3.035  4.3835  0.5302  2.1969
  237MOL0     H31939   2.109   3.156   2.916 -1.8838 -0.5366 -0.0282
  237MOL0     H31940   2.207   3.315   3.096 -3.2630 -0.5853 -2.6784
  237MOL0     H31941   2.248   3.168   3.192  0.7920 -0.4804 -0.8809
  237MOL0     H31942   2.446   3.200   3.080  0.7980 -0.9624  0.2039
  237MOL0     H31943   2.377   3.267   2.932  2.3439  1.6844  1.8473
  237MOL0     H31944   2.402   2.978   3.054  3.0419 -0.9154 -0.8018
  237MOL0     H31945   2.309   3.009   2.900  0.0178 -0.0106  0.0574
  237MOL0     H31946   2.640   3.182   2.982  0.4512  0.9760 -1.8035
  237MOL0     H31947   2.923   3.046   2.901  0.4796 -0.2353 -0.5683
  237MOL0     H31948   2.900   2.997   2.735 -2.1828 -1.3714  0.9211
  237MOL0     H31949   2.819   3.229   2.681  1.4399  0.2357 -0.9550
  237MOL0     H31950   2.876   3.276   2.846 -3.6213 -0.6719 -0.4008
  237MOL0     H31951   3.032   3.315   2.635 -1.7563 -0.0994 -0.7738
  237MOL0     H31952   3.035   3.144   2.620 -3.7029 -1.7405 -0.3033
  237MOL0     H31953   3.163   3.133   2.849 -1.5963 -1.0141 -2.2004
  237MOL0     H31954   3.103   3.294   2.898 -3.0253  1.8196 -1.1246
  237MOL0     H31955   3.455   3.400   2.642  4.1789  0.1840 -1.6990
  237MOL0     H31956   3.684   3.378   2.704  0.7545 -1.0669 -0.1448
  237MOL0     H31957   4.079   3.456   2.799  2.9581  0.9845 -1.5725
  237MOL0     H31958   4.313   3.418   2.782 -1.5144  0.8422 -1.5246
  237MOL0     H31959   4.477   3.379   2.983 -0.9362 -0.6671 -0.3584
  237MOL0     H31960   4.430   3.257   3.106 -1.1813  1.1153 -0.0121
  237MOL0     H31961   4.646   3.132   3.020 -3.9183 -0.4317  2.3892
  237MOL0     H31962   4.700   3.288   2.946 -0.0539 -1.5929 -0.4797
  237MOL0     H31963   4.694   3.386   3.185  1.2053 -1.2316  2.4526
  237MOL0     H31964   4.610   3.228   3.218 -1.4508 -0.1786 -0.8851
  237MOL0     H31965   4.895   3.234   3.104  1.2849  0.3557  0.9023
  237MOL0     H31966   4.807   3.102   3.178  4.6764  0.0248 -0.5358
  237MOL0     H31967   4.818   3.272   3.400 -0.8976 -0.0690  0.3315
  237MOL0     H31968   4.916   3.367   3.289 -0.5283 -0.2138  0.1016
  237MOL0     H31969   5.091   3.200   3.277  0.5747 -0.0691  1.3691
  237MOL0     H31970   5.058   3.271   3.435 -0.0147  1.3573  0.6081
  237MOL0     H31971   4.942   3.006   3.330 -0.5544  1.1297 -2.0830
  237MOL0     H31972   4.899   3.059   3.480 -1.9111  0.6790 -1.1436
  237MOL0     H31973   5.137   3.065   3.562 -2.1755  1.0469 -0.3658
  237MOL0     H31974   5.065   2.900   3.521 -0.9225  0.4460  1.4379
  237MOL0     H31975   4.257   3.048   2.971  2.0370  1.7489 -2.0022
  237MOL0     H31976   3.995   3.058   2.922 -0.6621  0.7675  1.8731
  237MOL0     H31977   3.578   3.097   3.015 -3.5264  1.3166  1.3140
  237MOL0     H31978   3.350   3.101   2.939 -0.9019  1.6293  0.1353
  237MOL0     H31979   1.411   2.919   2.948 -0.9885  0.1974 -0.4147
  237MOL0     H31980   1.238   2.771   2.932 -0.3563 -1.4194 -0.4279
  237MOL0     H31981   1.063   2.486   2.818  0.4632 -2.3099  1.0395
  237MOL0     H31982   0.846   2.498   2.727 -3.1669 -1.7419  0.2189
  237MOL0     H31983   0.532   2.648   2.967  1.6382 -0.1324  0.4265
  237MOL0     H31984   0.469   2.484   2.974 -0.5048 -0.3535 -1.0596
  237MOL0     H31985   0.305   2.601   2.849  0.0278 -2.3754  2.0070
  237MOL0     H31986   0.400   2.511   2.728 -0.2694  0.7443 -2.3123
  237MOL0     H31987   0.547   2.722   2.714  0.0157  1.9708  0.4888
  237MOL0     H31988   0.411   2.814   2.798 -1.9924 -0.8880 -0.2140
  237MOL0     H31989   0.393   2.844   2.558 -2.3407  0.5666 -1.3650
  237MOL0     H31990   0.383   2.669   2.535 -2.4015 -1.1494  0.8981
  237MOL0     H31991   0.008   2.751   2.713 -1.0535  2.6575 -1.9174
  237MOL0     H31992   0.668   2.483   3.114  1.1203  0.6962  2.3949
  237MOL0     H31993   0.799   2.407   3.292  0.4240 -0.8079  2.7621
  237MOL0     H31994   0.980   2.385   3.288  1.1952  0.9656  1.9925
  237MOL0     H31995   0.908   2.542   3.318  0.6743 -0.4460 -0.2607
  238MOL0     O31996   3.440   3.076   7.433  1.0415  0.8779 -0.1703
  238MOL0     C31997   3.409   3.108   7.544  0.9471 -0.4683  0.6275
  238MOL0     O31998   3.487   3.116   7.656  0.7056  0.4075  0.0954
  238MOL0     C31999   3.624   3.090   7.651 -0.1764  0.1278  0.0157
  238MOL0     C32000   3.710   3.124   7.541 -0.2318 -0.2685 -0.1286
  238MOL0     C32001   3.847   3.104   7.552 -0.0104 -0.0763 -0.0694
  238MOL0     C32002   3.902   3.060   7.667 -0.1999  0.3169  0.0569
  238MOL0     O32003   4.036   3.048   7.667 -0.2232 -0.1624  0.1904
  238MOL0     C32004   4.104   3.011   7.787  1.2525  0.7442  0.2215
  238MOL0     C32005   4.257   3.015   7.772 -0.0448  0.3002  0.4932
  238MOL0     C32006   4.317   2.954   7.892  0.1774  0.5156 -0.7803
  238MOL0     C32007   4.467   2.960   7.873  0.3129  0.3048 -0.4181
  238MOL0     C32008   4.532   2.843   7.947 -0.2351  0.0977 -0.8559
  238MOL0     C32009   4.684   2.859   7.937 -0.3919  0.0185 -0.2158
  238MOL0     C32010   4.766   2.726   7.966 -0.2964  0.3551  1.2707
  238MOL0     C32011   4.912   2.736   7.955 -0.3655 -0.9202  0.6939
  238MOL0     N32012   4.973   2.615   7.990 -0.2196 -0.5104  0.1152
  238MOL0     C32013   5.032   2.529   7.905 -0.4913 -1.5842 -0.2594
  238MOL0     C32014   5.090   2.438   7.987  1.1715  0.8313 -0.8200
  238MOL0     C32015   5.152   2.308   7.943 -0.5626 -0.3798  0.7066
  238MOL0     C32016   5.306   2.326   7.927 -0.0292  0.4453 -0.2299
  238MOL0     C32017   5.336   2.438   7.817 -0.6125  0.1464 -0.3095
  238MOL0     C32018   5.478   2.446   7.788 -0.2202 -0.0989  0.3673
  238MOL0     O32019   5.560   2.481   7.905 -0.2943 -0.1709  1.0740
  238MOL0     C32020   5.703   2.474   7.902  0.5987 -0.0603  0.2572
  238MOL0     C32021   5.776   2.418   7.802  0.0425 -1.0946  0.7351
  238MOL0     C32022   5.911   2.405   7.797 -0.5920 -0.3880  0.5878
  238MOL0     C32023   5.988   2.439   7.915 -0.2913 -0.9615 -0.5403
  238MOL0     C32024   6.141   2.415   7.913  0.3457 -0.5706  1.3958
  238MOL0     O32025   6.184   2.340   7.810  0.2170 -0.2347 -0.0303
  238MOL0     C32026   6.322   2.342   7.792 -1.0822  0.3510 -0.0008
  238MOL0     C32027   6.397   2.451   7.740 -0.1354 -0.9663 -0.0098
  238MOL0     C32028   6.534   2.451   7.737 -0.3164  0.1928 -0.3898
  238MOL0     C32029   6.607   2.340   7.778 -0.3238  0.0870 -1.3200
  238MOL0     O32030   6.746   2.347   7.772 -0.6899  0.0180 -0.3627
  238MOL0     C32031   6.827   2.254   7.836  0.2185  0.0935  0.0191
  238MOL0     C32032   6.970   2.303   7.850  0.0788  0.4788  1.2081
  238MOL0     C32033   7.053   2.202   7.918  0.2143  0.2486  0.0789
  238MOL0     C32034   7.199   2.239   7.896  0.0757 -0.3320  0.5689
  238MOL0     C32035   7.293   2.179   7.993  0.7110 -0.4916 -0.1579
  238MOL0     C32036   7.439   2.178   7.957 -0.5785 -0.8391  0.4685
  238MOL0     C32037   7.506   2.319   7.957 -0.2188 -0.2648  0.8236
  238MOL0     C32038   7.663   2.312   7.981  0.1165  0.0874 -0.2972
  238MOL0    Cl32039   7.699   2.392   8.145  0.3872  0.4315  0.1926
  238MOL0     C32040   6.540   2.233   7.833  0.8210 -0.1421  0.3779
  238MOL0     C32041   6.397   2.227   7.826  0.3823 -0.0935  0.2695
  238MOL0     O32042   6.208   2.460   8.010 -1.0400  0.0658  0.1581
  238MOL0     C32043   5.918   2.484   8.024 -0.6017 -0.5213 -0.8775
  238MOL0     C32044   5.778   2.503   8.017 -0.1128  0.1682 -0.7307
  238MOL0     N32045   5.088   2.485   8.121  0.9458  0.9761  0.4801
  238MOL0     N32046   5.001   2.580   8.123 -0.0432 -1.1169 -0.0190
  238MOL0     C32047   3.824   3.028   7.776  0.3661  0.5993 -0.8157
  238MOL0     C32048   3.684   3.037   7.763 -0.0939 -0.6782 -0.0065
  238MOL0     C32049   3.265   3.137   7.559  0.1453  0.4733 -0.1820
  238MOL0     C32050   3.209   3.122   7.679  0.3935  0.4373  0.4039
  238MOL0     C32051   3.067   3.143   7.694 -0.3191 -0.1072 -0.1565
  238MOL0     C32052   2.993   3.197   7.591 -0.6183  0.1314 -0.3095
  238MOL0     O32053   2.861   3.199   7.617 -0.2609  0.4345 -0.5486
  238MOL0     C32054   2.770   3.219   7.505  0.1122  0.5282  0.8878
  238MOL0     C32055   2.628   3.208   7.559  0.5469 -0.6342  0.4923
  238MOL0     C32056   2.591   3.341   7.628  0.0597 -0.3459 -0.1342
  238MOL0     C32057   2.446   3.339   7.699  0.6646 -0.6821  0.6030
  238MOL0     C32058   2.342   3.303   7.587 -0.3044  0.1245 -0.6938
  238MOL0     C32059   2.267   3.281   7.484  0.0060 -0.4588 -0.2937
  238MOL0     C32060   3.050   3.201   7.463  0.1162 -0.5290 -0.2008
  238MOL0     C32061   3.182   3.173   7.450 -0.2939 -0.2517 -0.3295
  238MOL0     C32062   3.234   3.203   7.307  0.1354  0.2001  0.0793
  238MOL0     H32063   3.666   3.174   7.454  0.4549 -0.2013 -0.4454
  238MOL0     H32064   3.910   3.130   7.467  0.2401  0.4488  0.2759
  238MOL0     H32065   4.076   3.087   7.861  1.5765 -0.6339  1.8214
  238MOL0     H32066   4.070   2.909   7.807 -0.5249  1.4817  1.2129
  238MOL0     H32067   4.292   3.118   7.763 -0.9562  0.4852 -1.7426
  238MOL0     H32068   4.285   2.962   7.680 -0.9229 -1.3038  1.1057
  238MOL0     H32069   4.279   2.853   7.903  0.3173  0.6015  0.6898
  238MOL0     H32070   4.284   3.000   7.986  1.1272 -1.7404  0.7280
  238MOL0     H32071   4.498   2.957   7.768  0.3682  0.5851 -0.4109
  238MOL0     H32072   4.504   3.052   7.918 -0.1046  0.8621 -1.1760
  238MOL0     H32073   4.505   2.858   8.052  0.9735  1.3651 -0.6993
  238MOL0     H32074   4.489   2.747   7.918 -0.5057 -0.3573  0.9500
  238MOL0     H32075   4.700   2.887   7.833  0.1976  0.7536  0.0596
  238MOL0     H32076   4.708   2.949   7.995 -0.5767  3.0930 -4.4779
  238MOL0     H32077   4.740   2.646   7.896 -1.8722  0.8981  1.1868
  238MOL0     H32078   4.741   2.706   8.071  2.4147 -0.6555  1.8017
  238MOL0     H32079   4.942   2.766   7.854 -0.8743 -1.3603  0.4025
  238MOL0     H32080   4.944   2.818   8.019  1.6627  1.4908 -3.0248
  238MOL0     H32081   5.031   2.536   7.796 -2.1606  1.9662 -0.1756
  238MOL0     H32082   5.127   2.231   8.017 -1.1093 -0.1742  0.7374
  238MOL0     H32083   5.110   2.269   7.850 -1.6729 -0.0534  1.0570
  238MOL0     H32084   5.337   2.356   8.027 -3.8862 -0.8957  1.5754
  238MOL0     H32085   5.351   2.231   7.895  0.6074  0.0592  1.7232
  238MOL0     H32086   5.315   2.534   7.865  0.0166  1.5544 -2.6894
  238MOL0     H32087   5.276   2.437   7.726  1.2843  1.5653 -1.6563
  238MOL0     H32088   5.490   2.525   7.713  0.2758  1.1663  1.7392
  238MOL0     H32089   5.518   2.356   7.741 -1.4787 -0.4608 -0.0516
  238MOL0     H32090   5.731   2.393   7.707 -2.1822 -2.5627  2.0692
  238MOL0     H32091   5.966   2.365   7.713 -0.4663  2.5534 -0.8571
  238MOL0     H32092   6.344   2.543   7.718  2.3580 -0.0193 -2.8708
  238MOL0     H32093   6.600   2.533   7.711  1.7342 -1.4868 -0.7119
  238MOL0     H32094   6.785   2.232   7.934  1.5380 -1.0501  0.3558
  238MOL0     H32095   6.826   2.160   7.781  1.2734  0.6454 -1.0122
  238MOL0     H32096   6.998   2.327   7.747 -2.6204  2.6323  0.8706
  238MOL0     H32097   6.969   2.393   7.911 -1.9525  1.8655 -0.7275
  238MOL0     H32098   7.029   2.200   8.025 -0.2354  0.7035 -0.0072
  238MOL0     H32099   7.032   2.102   7.877 -0.5357  0.1321  0.7097
  238MOL0     H32100   7.214   2.347   7.893  2.9062 -0.5477  3.0858
  238MOL0     H32101   7.219   2.199   7.796  0.5004 -0.5881  0.7553
  238MOL0     H32102   7.267   2.076   8.021  2.0661 -0.7517  0.2311
  238MOL0     H32103   7.296   2.229   8.090  1.4222  0.0826 -0.4666
  238MOL0     H32104   7.486   2.118   8.036  4.1846 -0.5395 -1.7891
  238MOL0     H32105   7.466   2.117   7.870  3.1291 -0.6213  1.2762
  238MOL0     H32106   7.467   2.379   8.040  1.7594  1.9432  0.2833
  238MOL0     H32107   7.478   2.372   7.866  1.7824 -1.3482 -0.4996
  238MOL0     H32108   7.710   2.213   7.973 -0.7187 -0.2914 -0.7495
  238MOL0     H32109   7.705   2.364   7.894  0.5323 -1.1666 -0.8782
  238MOL0     H32110   6.596   2.145   7.864  2.2563 -0.2825 -2.2849
  238MOL0     H32111   6.337   2.145   7.865  1.6926 -0.5377  1.4426
  238MOL0     H32112   5.963   2.499   8.122 -1.1519  0.3153 -0.7484
  238MOL0     H32113   5.717   2.523   8.104 -0.0785 -2.6325  0.0240
  238MOL0     H32114   3.874   3.009   7.871  2.1755  0.0409 -1.8431
  238MOL0     H32115   3.627   3.016   7.854  1.8981  2.0812  2.0570
  238MOL0     H32116   3.263   3.084   7.766 -2.4443 -1.7428  1.3832
  238MOL0     H32117   3.014   3.114   7.785 -1.1397 -1.7833 -1.1212
  238MOL0     H32118   2.784   3.135   7.436  2.8229  2.1181 -0.6208
  238MOL0     H32119   2.791   3.302   7.438  3.0143 -0.6353  0.1952
  238MOL0     H32120   2.628   3.123   7.628 -2.2532 -0.3635  0.9543
  238MOL0     H32121   2.552   3.180   7.485  1.2823  1.3176 -1.0722
  238MOL0     H32122   2.599   3.421   7.555 -0.7706 -0.3400 -0.2325
  238MOL0     H32123   2.663   3.350   7.710  0.0999 -3.1647  0.2652
  238MOL0     H32124   2.440   3.263   7.778  2.6920 -0.7284  0.7857
  238MOL0     H32125   2.414   3.433   7.745  1.1350 -1.2320  2.1254
  238MOL0     H32126   2.203   3.258   7.402  0.1697 -0.7452 -0.3434
  238MOL0     H32127   3.002   3.238   7.373 -0.4303  1.2807  0.7811
  238MOL0     H32128   3.271   3.110   7.264 -2.1792  0.0564 -1.8027
  238MOL0     H32129   3.162   3.233   7.231 -0.5651  1.0765  1.0600
  238MOL0     H32130   3.309   3.283   7.306  0.7941 -0.3873  0.9514
  239MOL0     O32131   4.032   7.463   2.571  0.2524  0.6275  0.2705
  239MOL0     C32132   4.070   7.398   2.474 -0.5328 -0.3331 -0.2576
  239MOL0     O32133   4.190   7.334   2.461  0.8964 -0.3245  0.6949
  239MOL0     C32134   4.279   7.350   2.565  0.2530 -0.2233 -0.2552
  239MOL0     C32135   4.407   7.398   2.533 -0.2446  0.3431  0.2965
  239MOL0     C32136   4.494   7.398   2.635 -0.5174  0.2931  0.7256
  239MOL0     C32137   4.474   7.341   2.759  0.2813  0.6598  0.1648
  239MOL0     O32138   4.569   7.320   2.856  0.0633  0.0205  0.0362
  239MOL0     C32139   4.707   7.337   2.814  0.8849 -0.1664 -0.4518
  239MOL0     C32140   4.796   7.260   2.906 -0.0865 -0.1792 -0.8653
  239MOL0     C32141   4.766   7.280   3.053 -0.1060 -0.3373  0.1673
  239MOL0     C32142   4.887   7.240   3.130  0.0543 -0.1214 -0.6466
  239MOL0     C32143   4.899   7.087   3.154 -0.3320 -0.2406 -0.5206
  239MOL0     C32144   5.009   7.044   3.257  0.4154 -0.4126  0.1655
  239MOL0     C32145   5.156   7.074   3.213 -0.1255  0.7995  0.0482
  239MOL0     C32146   5.238   7.066   3.346  0.5149  0.2493 -0.1619
  239MOL0     N32147   5.375   7.114   3.332 -0.2780 -0.3919  0.1182
  239MOL0     C32148   5.471   7.057   3.254 -0.0796  0.8283  0.1794
  239MOL0     C32149   5.579   7.127   3.281 -0.5535 -0.6465  0.2433
  239MOL0     C32150   5.715   7.124   3.215  0.2281  0.5682  0.7206
  239MOL0     C32151   5.747   7.253   3.136 -0.0809  0.0561  1.1559
  239MOL0     C32152   5.869   7.236   3.044 -0.8579  0.8596 -0.0348
  239MOL0     C32153   6.008   7.254   3.115  0.0416  0.3692 -0.1405
  239MOL0     O32154   6.120   7.228   3.031 -0.3859 -0.1483 -0.2427
  239MOL0     C32155   6.243   7.257   3.078  0.4714 -0.7472 -0.3095
  239MOL0     C32156   6.343   7.243   2.985  0.0503  0.4763  0.4265
  239MOL0     C32157   6.478   7.275   3.005  0.1263  0.5582  0.6797
  239MOL0     C32158   6.510   7.338   3.128 -0.1004 -0.5491 -0.0899
  239MOL0     C32159   6.647   7.371   3.169 -0.6063 -0.1219  0.4384
  239MOL0     O32160   6.661   7.468   3.271 -0.1677  0.5536 -0.4497
  239MOL0     C32161   6.787   7.504   3.301  0.5441 -0.9917  0.6270
  239MOL0     C32162   6.871   7.562   3.204  0.5962 -0.4827 -0.1702
  239MOL0     C32163   7.003   7.602   3.232 -0.1943 -0.1026  0.2192
  239MOL0     C32164   7.047   7.595   3.363 -0.6546 -0.3239  0.2639
  239MOL0     O32165   7.174   7.635   3.405 -0.1556  0.0884  0.4935
  239MOL0     C32166   7.277   7.589   3.320 -0.2172  0.1025 -0.0172
  239MOL0     C32167   7.376   7.528   3.421 -0.5190 -0.5127 -0.2532
  239MOL0     C32168   7.317   7.394   3.479 -0.6755  0.5956 -0.0364
  239MOL0     C32169   7.430   7.317   3.558  1.0244 -0.4069 -0.7189
  239MOL0     C32170   7.367   7.199   3.631 -0.1348  0.8714  0.6404
  239MOL0     C32171   7.452   7.153   3.754  0.0582 -0.4707 -0.1858
  239MOL0     C32172   7.447   7.002   3.787 -0.3146  0.6002 -0.4107
  239MOL0     C32173   7.506   6.972   3.924  0.4048 -0.5280 -0.2635
  239MOL0    Cl32174   7.650   7.060   3.944 -0.3914  0.0625  0.2765
  239MOL0     C32175   6.958   7.552   3.461  0.2769 -0.0111  0.5183
  239MOL0     C32176   6.830   7.492   3.432  0.1115 -0.2518  0.0431
  239MOL0     O32177   6.742   7.312   3.113 -0.3876  0.7877  0.1749
  239MOL0     C32178   6.407   7.340   3.237  0.4268  0.6930 -0.4777
  239MOL0     C32179   6.276   7.294   3.214  0.0777 -0.5492 -0.0285
  239MOL0     N32180   5.547   7.235   3.366 -0.3472  0.4326 -0.3006
  239MOL0     N32181   5.425   7.218   3.403  0.5259  0.3290  0.0721
  239MOL0     C32182   4.351   7.285   2.786 -0.0388  0.2750  0.7536
  239MOL0     C32183   4.250   7.293   2.692  0.1625 -0.0632 -0.0832
  239MOL0     C32184   3.987   7.396   2.353  0.1651 -0.4379  0.1424
  239MOL0     C32185   4.050   7.415   2.228  0.2352 -0.0601  0.1173
  239MOL0     C32186   3.979   7.419   2.107  0.5481 -0.0233 -0.0234
  239MOL0     C32187   3.842   7.398   2.110 -0.7767  0.2610 -0.6597
  239MOL0     O32188   3.767   7.414   2.000  0.7256 -0.3927 -0.2403
  239MOL0     C32189   3.767   7.298   1.907  0.1875  0.6094  0.5351
  239MOL0     C32190   3.633   7.311   1.826  0.1210  0.3683 -0.0634
  239MOL0     C32191   3.499   7.275   1.909 -0.2646 -0.5531  0.1393
  239MOL0     C32192   3.378   7.274   1.823  0.0676  0.0899 -0.0312
  239MOL0     C32193   3.258   7.288   1.898  0.6166 -0.6091 -0.4895
  239MOL0     C32194   3.150   7.273   1.962 -0.0087  0.3840 -0.4920
  239MOL0     C32195   3.770   7.382   2.236 -0.1805  0.2511  0.9428
  239MOL0     C32196   3.839   7.383   2.356 -0.3107  0.0512 -0.3797
  239MOL0     C32197   3.771   7.338   2.481 -1.1091  0.4185 -0.4095
  239MOL0     H32198   4.426   7.444   2.436 -0.3100 -1.1948 -0.4660
  239MOL0     H32199   4.595   7.429   2.607 -0.4957 -1.3978 -1.3373
  239MOL0     H32200   4.722   7.300   2.712  1.6188  0.9303 -0.7626
  239MOL0     H32201   4.732   7.443   2.806 -1.2298  0.2400 -3.2079
  239MOL0     H32202   4.901   7.283   2.886  0.3054 -0.2188  0.9647
  239MOL0     H32203   4.797   7.153   2.886 -3.0332 -0.1547 -1.5446
  239MOL0     H32204   4.682   7.215   3.079 -0.7390  0.8540  1.2235
  239MOL0     H32205   4.739   7.386   3.062 -1.5639 -0.5499 -1.1960
  239MOL0     H32206   4.975   7.274   3.074 -3.0926  2.4458 -4.6989
  239MOL0     H32207   4.886   7.287   3.228  3.3739 -0.9926 -0.0624
  239MOL0     H32208   4.802   7.050   3.189  0.2950 -3.4173 -1.8711
  239MOL0     H32209   4.927   7.041   3.059  1.9933  1.6206 -0.8497
  239MOL0     H32210   4.981   7.102   3.345 -4.4477 -1.4924 -0.4205
  239MOL0     H32211   4.988   6.940   3.285 -1.7666 -0.5137 -1.5439
  239MOL0     H32212   5.175   7.165   3.155  1.3119  1.1614  1.0273
  239MOL0     H32213   5.186   6.989   3.151 -1.8606 -0.6208  1.0716
  239MOL0     H32214   5.194   7.130   3.423  0.6603  3.4744 -2.5371
  239MOL0     H32215   5.249   6.962   3.378  0.8639  1.0544  2.5415
  239MOL0     H32216   5.463   6.970   3.190  0.7667  1.2719 -0.5617
  239MOL0     H32217   5.779   7.114   3.304  1.3429 -2.5569 -0.3318
  239MOL0     H32218   5.728   7.034   3.156 -0.0576  0.7002  0.4533
  239MOL0     H32219   5.660   7.261   3.070  0.8176 -3.2592 -0.7001
  239MOL0     H32220   5.757   7.350   3.184 -0.5501  1.0305 -0.6331
  239MOL0     H32221   5.863   7.304   2.959 -2.1745  0.6905 -0.0968
  239MOL0     H32222   5.868   7.133   3.005  3.7343  0.8517 -0.6751
  239MOL0     H32223   6.009   7.192   3.205 -0.9630  0.8279  0.1992
  239MOL0     H32224   6.002   7.359   3.143 -1.3894  0.5057 -0.8795
  239MOL0     H32225   6.310   7.218   2.885 -0.9913  1.0054  0.6279
  239MOL0     H32226   6.551   7.254   2.928 -0.4799 -0.0127  0.2503
  239MOL0     H32227   6.834   7.589   3.105 -0.1115 -1.0445 -0.0676
  239MOL0     H32228   7.057   7.663   3.160 -0.0962  1.5469  1.6296
  239MOL0     H32229   7.249   7.508   3.252 -1.9804 -1.6331  2.5892
  239MOL0     H32230   7.325   7.671   3.265 -0.4733  0.0459 -0.3284
  239MOL0     H32231   7.465   7.497   3.363  1.2627  0.4742  1.8177
  239MOL0     H32232   7.406   7.595   3.502  2.1405 -3.0074  1.0180
  239MOL0     H32233   7.235   7.422   3.546 -0.1829 -1.0885  1.3349
  239MOL0     H32234   7.274   7.329   3.402  3.5261 -0.0337 -2.1335
  239MOL0     H32235   7.481   7.388   3.625  0.8425 -1.0476  0.1147
  239MOL0     H32236   7.505   7.273   3.491  1.1572 -1.7302  0.2508
  239MOL0     H32237   7.370   7.109   3.568 -2.8288  2.1856 -1.5764
  239MOL0     H32238   7.262   7.217   3.656 -0.0207  0.9998  1.0371
  239MOL0     H32239   7.556   7.185   3.744 -0.3002  0.7135 -0.2229
  239MOL0     H32240   7.416   7.208   3.841  0.3914  1.9447 -1.5032
  239MOL0     H32241   7.477   6.944   3.699 -2.3637  3.5518 -3.2645
  239MOL0     H32242   7.342   6.970   3.793 -0.4690  0.8701 -1.5562
  239MOL0     H32243   7.434   6.997   4.003  1.0365  0.7988 -0.0708
  239MOL0     H32244   7.526   6.865   3.936 -0.2280 -0.3010  4.3979
  239MOL0     H32245   6.995   7.553   3.563 -0.0520  1.5022  0.6541
  239MOL0     H32246   6.771   7.454   3.515 -0.5672  0.8661  0.0882
  239MOL0     H32247   6.435   7.374   3.336  1.2260  1.7014 -1.0342
  239MOL0     H32248   6.210   7.294   3.300  1.8610  1.9326  1.4749
  239MOL0     H32249   4.332   7.235   2.881  0.7253  0.6553  1.1160
  239MOL0     H32250   4.156   7.246   2.719  1.8447 -2.7968  1.4382
  239MOL0     H32251   4.156   7.436   2.237  0.3330 -0.9017  1.1822
  239MOL0     H32252   4.021   7.454   2.013  1.4807  1.0569  0.7662
  239MOL0     H32253   3.771   7.201   1.956  0.8549  0.4680  0.2153
  239MOL0     H32254   3.854   7.301   1.840  0.6041 -0.7942  0.9920
  239MOL0     H32255   3.637   7.246   1.738  2.1314  0.6690 -0.2346
  239MOL0     H32256   3.628   7.413   1.786 -2.4615  0.4825  0.3760
  239MOL0     H32257   3.484   7.357   1.980 -0.2056  0.1038 -0.5879
  239MOL0     H32258   3.511   7.178   1.958  0.9289  0.0850  1.1737
  239MOL0     H32259   3.378   7.365   1.763  1.3489  0.4106  0.4367
  239MOL0     H32260   3.371   7.186   1.757 -1.2535 -0.0882  0.3185
  239MOL0     H32261   3.052   7.265   2.005 -0.6536  0.9154 -1.8294
  239MOL0     H32262   3.664   7.362   2.227  0.0964 -0.7322 -0.3538
  239MOL0     H32263   3.767   7.427   2.545 -1.3790 -0.1893  0.4510
  239MOL0     H32264   3.671   7.294   2.488 -0.5656 -0.7574  0.2783
  239MOL0     H32265   3.829   7.262   2.534 -2.5205  0.2858  1.0389
  240MOL0     O32266   1.637  10.997   6.365 -0.0025 -0.1615  0.0473
  240MOL0     C32267   1.646  10.958   6.248 -0.1693 -0.9152  0.2840
  240MOL0     O32268   1.757  10.960   6.175  0.4463 -0.3695 -0.9222
  240MOL0     C32269   1.865  11.038   6.223 -0.4874  0.7117  0.0853
  240MOL0     C32270   1.849  11.173   6.249 -0.6476 -0.5462 -0.1971
  240MOL0     C32271   1.949  11.240   6.311 -0.5308 -0.5371  0.2518
  240MOL0     C32272   2.073  11.177   6.339 -0.2585  0.1146 -0.3705
  240MOL0     O32273   2.170  11.240   6.417 -0.7034  0.2392  0.0779
  240MOL0     C32274   2.311  11.208   6.381 -0.6072  0.2446 -0.0483
  240MOL0     C32275   2.401  11.331   6.417  0.5831 -0.6098  1.1786
  240MOL0     C32276   2.544  11.276   6.395 -0.3063 -0.1002  0.0974
  240MOL0     C32277   2.652  11.384   6.424 -1.0944  0.3298 -0.4553
  240MOL0     C32278   2.785  11.329   6.394 -0.6293  0.1751  0.0915
  240MOL0     C32279   2.850  11.246   6.507  0.1016 -0.0115 -0.2166
  240MOL0     C32280   2.986  11.180   6.476  0.1339 -0.3818  0.6230
  240MOL0     C32281   3.104  11.286   6.481 -0.1551 -0.0176 -0.6745
  240MOL0     N32282   3.238  11.213   6.484 -0.0185 -0.0900  0.4439
  240MOL0     C32283   3.309  11.174   6.377  0.4633  0.3950  0.0961
  240MOL0     C32284   3.403  11.096   6.435  0.6362 -0.3926 -0.9289
  240MOL0     C32285   3.514  11.044   6.355 -0.5915 -0.7628  0.2880
  240MOL0     C32286   3.546  10.900   6.392  0.3260  0.5366  0.9017
  240MOL0     C32287   3.636  10.816   6.290  0.0858  0.2551  0.0977
  240MOL0     C32288   3.781  10.868   6.271 -0.1466  0.1833  0.0352
  240MOL0     O32289   3.860  10.759   6.216 -0.2069  0.3469  0.6591
  240MOL0     C32290   3.992  10.776   6.179 -0.1596 -0.9925  0.3434
  240MOL0     C32291   4.047  10.680   6.098  0.4518  0.3317 -0.2549
  240MOL0     C32292   4.192  10.680   6.066 -0.3116  0.0941 -0.5030
  240MOL0     C32293   4.268  10.786   6.100  0.0531 -0.7325  0.0267
  240MOL0     C32294   4.411  10.784   6.068 -0.7847  0.7222  0.2989
  240MOL0     O32295   4.466  10.689   5.992  0.4921 -0.2456  0.5096
  240MOL0     C32296   4.593  10.701   5.945 -0.4968 -0.3891 -0.0575
  240MOL0     C32297   4.655  10.581   5.907  1.2321  0.2477 -0.2171
  240MOL0     C32298   4.779  10.575   5.854  0.4039 -0.2869 -0.0944
  240MOL0     C32299   4.849  10.694   5.841  0.1843 -0.5189 -1.2173
  240MOL0     O32300   4.972  10.685   5.786  0.0504 -1.1285 -0.4784
  240MOL0     C32301   5.066  10.795   5.803  0.3599 -0.0534  0.1222
  240MOL0     C32302   5.205  10.739   5.753  0.7951  0.0590 -0.7022
  240MOL0     C32303   5.217  10.722   5.597 -0.0503 -0.1135 -0.5516
  240MOL0     C32304   5.335  10.638   5.562 -1.0215 -1.0091 -0.2251
  240MOL0     C32305   5.312  10.584   5.426 -0.1155  1.1241  0.1999
  240MOL0     C32306   5.435  10.504   5.374  0.1180 -0.0517 -0.0696
  240MOL0     C32307   5.422  10.481   5.221  0.0779 -0.2344  0.0863
  240MOL0     C32308   5.463  10.601   5.135 -0.4676 -0.6494  0.2079
  240MOL0    Cl32309   5.438  10.570   4.964  0.2004  0.2665 -0.0129
  240MOL0     C32310   4.790  10.815   5.880  0.0770  0.6066  0.3841
  240MOL0     C32311   4.667  10.820   5.936 -0.4014 -0.2546 -0.2973
  240MOL0     O32312   4.476  10.867   6.134 -0.1537 -0.8294  0.2983
  240MOL0     C32313   4.204  10.887   6.175 -0.5468 -0.6618 -0.6278
  240MOL0     C32314   4.076  10.881   6.220  0.8529  0.3766  1.1616
  240MOL0     N32315   3.394  11.087   6.571  0.0511  0.7373 -0.3279
  240MOL0     N32316   3.296  11.166   6.598 -0.6999 -0.7122 -0.4898
  240MOL0     C32317   2.086  11.040   6.315 -0.7046 -0.0415 -0.1039
  240MOL0     C32318   1.981  10.972   6.251 -0.5183  0.8934  1.0436
  240MOL0     C32319   1.520  10.904   6.193 -0.1277 -1.3707  0.6364
  240MOL0     C32320   1.400  10.947   6.254  0.1733  0.8295 -0.1352
  240MOL0     C32321   1.277  10.910   6.206  1.0898  0.2915 -0.2194
  240MOL0     C32322   1.269  10.815   6.096 -0.5917 -0.1866 -0.0270
  240MOL0     O32323   1.147  10.772   6.052  0.7117 -0.2878 -0.3036
  240MOL0     C32324   1.030  10.761   6.135 -0.0970 -0.0563  0.2939
  240MOL0     C32325   0.919  10.862   6.100  0.3122  0.3479 -0.2347
  240MOL0     C32326   0.807  10.808   6.014  0.7529 -0.6091 -0.1492
  240MOL0     C32327   0.845  10.791   5.867  0.0334  0.5435 -0.6498
  240MOL0     C32328   0.739  10.737   5.779 -0.1771 -0.0301  0.7526
  240MOL0     C32329   0.645  10.707   5.706  0.2518 -0.2207  0.4715
  240MOL0     C32330   1.383  10.758   6.050  0.1813  0.0152  0.0149
  240MOL0     C32331   1.511  10.800   6.094 -0.2259  0.0349 -0.2523
  240MOL0     C32332   1.622  10.727   6.016 -1.2271 -0.0873 -0.1460
  240MOL0     H32333   1.753  11.223   6.237 -1.0961 -1.3810 -0.1599
  240MOL0     H32334   1.935  11.344   6.339  0.8784 -0.2493 -0.0176
  240MOL0     H32335   2.347  11.117   6.430 -2.7993 -1.5515 -1.5734
  240MOL0     H32336   2.328  11.197   6.273  1.0090 -0.9385  0.2936
  240MOL0     H32337   2.380  11.367   6.518  2.1902 -2.7920  2.3797
  240MOL0     H32338   2.393  11.404   6.335  2.2922 -2.1819 -0.5044
  240MOL0     H32339   2.566  11.233   6.297  0.2120 -2.0308  1.0137
  240MOL0     H32340   2.553  11.192   6.464  1.6492 -1.8659 -2.1414
  240MOL0     H32341   2.643  11.471   6.358  0.1269  1.1178  0.3793
  240MOL0     H32342   2.640  11.425   6.525 -0.4852  2.9493 -1.3481
  240MOL0     H32343   2.777  11.265   6.306 -0.7534 -0.3720  0.4914
  240MOL0     H32344   2.856  11.411   6.378  0.4839 -0.4794  1.4038
  240MOL0     H32345   2.864  11.293   6.604  1.9432 -0.5773 -0.1728
  240MOL0     H32346   2.782  11.162   6.526 -0.4665 -0.0636 -2.2124
  240MOL0     H32347   2.991  11.115   6.388  0.9975  1.3417 -0.6911
  240MOL0     H32348   2.998  11.112   6.560  0.1042 -0.3211  0.6771
  240MOL0     H32349   3.095  11.356   6.397  0.6143 -1.1881 -1.7731
  240MOL0     H32350   3.084  11.336   6.576  2.7707 -3.6769  2.2159
  240MOL0     H32351   3.303  11.210   6.275 -0.5753 -2.2736 -0.8944
  240MOL0     H32352   3.495  11.058   6.248  2.0991  2.0481  0.0289
  240MOL0     H32353   3.596  11.111   6.382 -0.9384 -1.1987  2.6288
  240MOL0     H32354   3.586  10.898   6.494  4.2154  3.7084 -0.2901
  240MOL0     H32355   3.455  10.840   6.393  1.4328 -1.2342  2.1803
  240MOL0     H32356   3.586  10.807   6.193 -1.3308  0.1391  0.8104
  240MOL0     H32357   3.646  10.717   6.337  2.1814  2.6789  5.6579
  240MOL0     H32358   3.825  10.906   6.364  0.6865  0.6747 -0.5445
  240MOL0     H32359   3.779  10.952   6.202 -0.5880  1.0794  1.1027
  240MOL0     H32360   3.986  10.598   6.061 -0.1413  0.8877 -0.5188
  240MOL0     H32361   4.237  10.611   5.996  1.7871  0.8144  0.0264
  240MOL0     H32362   4.593  10.492   5.916  0.6494  0.7995  1.7759
  240MOL0     H32363   4.819  10.486   5.806 -1.5379 -1.6918  0.7339
  240MOL0     H32364   5.039  10.877   5.737 -2.1610 -1.8346 -1.1926
  240MOL0     H32365   5.063  10.822   5.909 -1.2511  2.6480 -0.5158
  240MOL0     H32366   5.291  10.801   5.782 -0.7256  1.6480  0.6614
  240MOL0     H32367   5.217  10.640   5.798  0.4757  0.1456 -0.4196
  240MOL0     H32368   5.124  10.675   5.562 -0.4395  1.6174 -2.0532
  240MOL0     H32369   5.239  10.822   5.559 -3.8031  0.7886 -0.7898
  240MOL0     H32370   5.352  10.562   5.639 -1.4805 -1.4901 -0.5846
  240MOL0     H32371   5.431  10.690   5.565 -0.4449 -1.8641 -2.1684
  240MOL0     H32372   5.294  10.675   5.367  2.1576  0.1505 -2.2232
  240MOL0     H32373   5.223  10.524   5.444  0.3543  0.6552  0.9855
  240MOL0     H32374   5.534  10.540   5.404  0.6372 -0.2157 -1.5054
  240MOL0     H32375   5.419  10.405   5.417 -0.1866 -0.1590 -0.4242
  240MOL0     H32376   5.319  10.461   5.192  0.2893  1.4938 -2.1304
  240MOL0     H32377   5.483  10.392   5.202  0.8125 -0.2853  2.2699
  240MOL0     H32378   5.401  10.687   5.161 -1.1918 -0.3190 -2.3406
  240MOL0     H32379   5.567  10.630   5.155 -0.8002  2.0684 -1.4231
  240MOL0     H32380   4.829  10.915   5.860  1.5034  0.3910  1.9189
  240MOL0     H32381   4.634  10.915   5.977 -2.2419 -1.4948  1.2930
  240MOL0     H32382   4.267  10.975   6.180 -1.6999  0.4040 -2.9689
  240MOL0     H32383   4.040  10.956   6.290 -0.7004 -0.0655  0.8849
  240MOL0     H32384   2.176  10.985   6.340 -1.4116 -1.9326 -1.4538
  240MOL0     H32385   1.966  10.866   6.230  0.6829  1.1932 -1.8735
  240MOL0     H32386   1.401  11.019   6.335  1.1841  1.3668 -0.5989
  240MOL0     H32387   1.184  10.956   6.238 -0.4082 -1.3473 -1.9707
  240MOL0     H32388   1.062  10.765   6.239  0.1951 -2.1774  0.3100
  240MOL0     H32389   0.987  10.661   6.125 -2.6667  1.0522 -0.7801
  240MOL0     H32390   0.971  10.951   6.065  1.0223 -0.0569 -0.2117
  240MOL0     H32391   0.879  10.896   6.197  1.9726  2.6811 -0.2870
  240MOL0     H32392   0.731  10.887   6.019  1.8749  0.4121  2.1763
  240MOL0     H32393   0.770  10.719   6.065  0.7820  0.4852  1.9114
  240MOL0     H32394   0.878  10.891   5.840  2.1993  0.8029  2.4447
  240MOL0     H32395   0.929  10.721   5.861  1.0608  1.7396 -0.6128
  240MOL0     H32396   0.560  10.690   5.642  1.2959 -1.0144 -0.7446
  240MOL0     H32397   1.379  10.678   5.977 -1.9123 -1.4046  1.5472
  240MOL0     H32398   1.615  10.620   6.035  1.9316 -0.0301  2.1100
  240MOL0     H32399   1.622  10.744   5.908  2.7029  0.2371 -0.2555
  240MOL0     H32400   1.723  10.757   6.046 -1.6832  2.3434 -0.8377
  241MOL0     O32401   4.556   5.835   9.176  0.3380 -0.0434 -0.6809
  241MOL0     C32402   4.624   5.744   9.213  0.4863 -0.4486  1.0241
  241MOL0     O32403   4.587   5.666   9.323  0.2704  0.2852 -0.2649
  241MOL0     C32404   4.461   5.684   9.377 -0.0453 -0.1930  0.7402
  241MOL0     C32405   4.440   5.732   9.505  0.4265  0.1890  0.6601
  241MOL0     C32406   4.307   5.749   9.552 -0.3875 -0.3968  0.3793
  241MOL0     C32407   4.195   5.706   9.478 -0.7877  0.8278  0.9515
  241MOL0     O32408   4.064   5.708   9.511  0.6727 -0.2807 -0.0870
  241MOL0     C32409   4.034   5.654   9.641  0.4254  0.0848 -0.6381
  241MOL0     C32410   3.891   5.617   9.639 -0.0829 -0.1153 -1.5034
  241MOL0     C32411   3.867   5.527   9.754  0.4920 -0.0005  0.4940
  241MOL0     C32412   3.718   5.522   9.782  0.8304  0.8030  0.7396
  241MOL0     C32413   3.682   5.419   9.902 -0.5538 -1.0746  0.5470
  241MOL0     C32414   3.722   5.474  10.039 -0.4791 -0.2151  0.7427
  241MOL0     C32415   3.666   5.397  10.161  0.1815  0.4679 -0.3174
  241MOL0     C32416   3.638   5.481  10.295  0.5786 -0.6877  0.4690
  241MOL0     N32417   3.749   5.541  10.363  0.1065  0.2122 -0.3667
  241MOL0     C32418   3.739   5.659  10.428  0.9753  0.5348  0.5562
  241MOL0     C32419   3.854   5.690  10.484  0.3584 -0.2201  0.2234
  241MOL0     C32420   3.879   5.819  10.560  0.5425  0.1831  0.0715
  241MOL0     C32421   3.999   5.895  10.512 -0.1304 -0.3490 -0.1834
  241MOL0     C32422   4.043   6.010  10.616  1.0172 -0.1532 -0.0511
  241MOL0     C32423   4.151   6.100  10.563 -1.1162 -0.5323  1.0195
  241MOL0     O32424   4.262   6.013  10.550 -0.0929 -0.3100 -0.0364
  241MOL0     C32425   4.383   6.059  10.507  1.0093 -0.0967  0.3091
  241MOL0     C32426   4.417   6.197  10.496  0.8737  0.6843  1.0497
  241MOL0     C32427   4.542   6.223  10.440  0.2031 -0.0020 -0.0440
  241MOL0     C32428   4.639   6.126  10.404 -0.1109 -0.0617 -0.8160
  241MOL0     C32429   4.769   6.162  10.352 -0.4522  0.3620  0.6594
  241MOL0     O32430   4.838   6.059  10.320 -0.3188 -1.0355 -0.8502
  241MOL0     C32431   4.978   6.060  10.303  0.8015 -0.3354  0.4258
  241MOL0     C32432   5.023   5.950  10.230 -0.2647 -0.3046 -0.5307
  241MOL0     C32433   5.154   5.918  10.205 -0.3007 -0.1996  0.2296
  241MOL0     C32434   5.255   6.012  10.246  0.7535 -0.2621 -0.8304
  241MOL0     O32435   5.386   6.011  10.221 -0.2205 -0.1893 -0.2719
  241MOL0     C32436   5.455   5.887  10.236  0.8228 -0.9677  0.7106
  241MOL0     C32437   5.598   5.906  10.202  0.1570  0.5506 -0.0958
  241MOL0     C32438   5.675   6.002  10.303 -0.5816  0.4784  0.0156
  241MOL0     C32439   5.825   5.982  10.304 -0.2676 -0.6785  0.2784
  241MOL0     C32440   5.880   6.054  10.423 -0.3817  0.3329 -0.0249
  241MOL0     C32441   6.036   6.039  10.429 -0.2722  0.1842 -0.1966
  241MOL0     C32442   6.091   6.119  10.550  0.6610  0.8479 -0.1670
  241MOL0     C32443   6.234   6.151  10.543 -0.3546  0.6853  0.1020
  241MOL0    Cl32444   6.332   5.999  10.556  0.4148  0.3486  0.0886
  241MOL0     C32445   5.211   6.126  10.314 -0.1656 -0.4828 -0.4366
  241MOL0     C32446   5.072   6.161  10.336 -0.6696  0.3229  0.1147
  241MOL0     O32447   4.797   6.281  10.328 -0.5752 -0.1995  0.7638
  241MOL0     C32448   4.597   5.988  10.429 -0.8189  0.5277  0.3953
  241MOL0     C32449   4.474   5.962  10.484  0.0196 -0.5637  0.5104
  241MOL0     N32450   3.939   5.584  10.467  0.2082 -0.0212  0.0580
  241MOL0     N32451   3.874   5.497  10.394 -0.4647  0.5743  0.5103
  241MOL0     C32452   4.220   5.659   9.344 -1.0359  0.4723  0.0814
  241MOL0     C32453   4.352   5.648   9.299  0.0552  0.6385 -0.4166
  241MOL0     C32454   4.764   5.740   9.168 -0.5944  0.0454 -0.2373
  241MOL0     C32455   4.827   5.860   9.119 -0.0970 -0.7644  0.7303
  241MOL0     C32456   4.954   5.853   9.068 -0.2707  0.4585 -0.2372
  241MOL0     C32457   5.027   5.732   9.058  0.3151 -0.0191 -0.1841
  241MOL0     O32458   5.144   5.703   8.991 -0.7011 -0.6174  0.4063
  241MOL0     C32459   5.186   5.800   8.893  0.0664 -0.5700 -0.1041
  241MOL0     C32460   5.318   5.734   8.833 -0.4688  0.2326  0.3711
  241MOL0     C32461   5.442   5.778   8.914  0.2073  0.1769 -0.2972
  241MOL0     C32462   5.563   5.685   8.901  0.0025  0.3090 -0.6824
  241MOL0     C32463   5.694   5.745   8.930  0.5915 -0.4441  0.2682
  241MOL0     C32464   5.809   5.779   8.947  0.1830 -0.2523  0.6017
  241MOL0     C32465   4.965   5.621   9.113  0.4404 -0.0465  0.0117
  241MOL0     C32466   4.841   5.619   9.174 -0.2829  0.2787 -0.3866
  241MOL0     C32467   4.779   5.487   9.218 -0.2019  1.2392  0.1859
  241MOL0     H32468   4.535   5.756   9.553  2.1980  0.6667 -2.7831
  241MOL0     H32469   4.293   5.782   9.654 -0.6935 -0.0970  0.2417
  241MOL0     H32470   4.085   5.559   9.662 -0.0555 -0.0512 -0.0715
  241MOL0     H32471   4.059   5.732   9.714  1.5182 -0.0158 -0.8836
  241MOL0     H32472   3.844   5.585   9.546  1.5247 -1.8414 -1.7679
  241MOL0     H32473   3.840   5.714   9.651  1.4604  0.4758  0.8327
  241MOL0     H32474   3.920   5.560   9.845 -0.3128 -0.9652  1.3401
  241MOL0     H32475   3.911   5.427   9.744 -0.4602 -0.2530 -1.5364
  241MOL0     H32476   3.675   5.620   9.800 -0.7973  0.2750 -0.1162
  241MOL0     H32477   3.663   5.486   9.695 -3.2425  1.3969  2.8172
  241MOL0     H32478   3.576   5.399   9.884 -1.0602 -0.4161  2.5413
  241MOL0     H32479   3.742   5.335   9.868  0.2649 -0.7493  1.1482
  241MOL0     H32480   3.826   5.505  10.048 -0.9708  1.1258  2.6849
  241MOL0     H32481   3.670   5.570  10.051 -1.3620 -0.6403  0.4033
  241MOL0     H32482   3.744   5.324  10.185 -0.0630  0.4925  0.5872
  241MOL0     H32483   3.573   5.347  10.132 -0.3667  0.8561  0.7158
  241MOL0     H32484   3.582   5.564  10.251  3.1056  1.6851  1.4710
  241MOL0     H32485   3.568   5.423  10.356 -1.2638 -0.7936 -1.5892
  241MOL0     H32486   3.652   5.723  10.441  1.7786  1.4626  1.5267
  241MOL0     H32487   3.792   5.885  10.555  1.2721  1.2029  0.3047
  241MOL0     H32488   3.883   5.805  10.668 -1.6680 -1.1140  0.0436
  241MOL0     H32489   4.084   5.826  10.512 -1.4493 -2.0753  1.1360
  241MOL0     H32490   3.991   5.936  10.411 -0.1525 -0.4075 -0.2051
  241MOL0     H32491   4.079   5.970  10.711 -1.9156  0.8144  1.5858
  241MOL0     H32492   3.951   6.067  10.633  0.6403 -1.1836  1.5198
  241MOL0     H32493   4.175   6.188  10.624  2.0173 -0.7745  0.3425
  241MOL0     H32494   4.127   6.136  10.462  0.2254 -2.3262  0.0002
  241MOL0     H32495   4.347   6.276  10.519  1.7525  1.3968  1.3319
  241MOL0     H32496   4.561   6.328  10.422 -0.2133  0.5403  2.3753
  241MOL0     H32497   4.945   5.876  10.212 -0.1453 -0.8342  0.9344
  241MOL0     H32498   5.175   5.820  10.164 -0.3501 -0.2021  0.2108
  241MOL0     H32499   5.457   5.847  10.338 -0.1405 -0.5186  0.9152
  241MOL0     H32500   5.403   5.813  10.174 -0.4345 -1.5276  2.3526
  241MOL0     H32501   5.648   5.810  10.216  0.7797  1.0047  0.9677
  241MOL0     H32502   5.612   5.929  10.096  2.3386 -0.7360 -0.1354
  241MOL0     H32503   5.662   6.106  10.274  0.1336  0.7736  0.7193
  241MOL0     H32504   5.632   5.999  10.403  2.4259  1.2786  1.4536
  241MOL0     H32505   5.875   6.011  10.212  1.0872 -0.7188  0.9822
  241MOL0     H32506   5.839   5.874  10.314  2.3057 -0.5169 -1.0103
  241MOL0     H32507   5.844   6.015  10.519 -0.6950  1.1510  0.2007
  241MOL0     H32508   5.845   6.157  10.414 -4.5708 -0.9498 -0.5425
  241MOL0     H32509   6.067   5.936  10.449  2.7213  1.4302  2.4668
  241MOL0     H32510   6.082   6.083  10.340 -0.9303  2.5809  0.5743
  241MOL0     H32511   6.070   6.055  10.636  0.7129  1.9182  0.6637
  241MOL0     H32512   6.035   6.212  10.558  1.7287  1.5830 -0.8776
  241MOL0     H32513   6.244   6.202  10.446  0.6857 -0.2061 -0.2767
  241MOL0     H32514   6.255   6.221  10.624  1.3265 -0.7151  0.9338
  241MOL0     H32515   5.282   6.206  10.335 -0.1640 -1.1084  2.3060
  241MOL0     H32516   5.040   6.253  10.385 -1.3369 -0.2546  0.7966
  241MOL0     H32517   4.661   5.906  10.397 -0.1512  0.7200  1.2093
  241MOL0     H32518   4.437   5.861  10.498 -0.6248 -0.4699 -0.4560
  241MOL0     H32519   4.139   5.623   9.282 -0.4857 -1.1607  0.2687
  241MOL0     H32520   4.365   5.609   9.199 -0.5168 -0.1367 -0.2084
  241MOL0     H32521   4.769   5.952   9.122 -1.6464 -1.6597 -0.2188
  241MOL0     H32522   4.989   5.947   9.028 -0.4353  1.1382  1.1418
  241MOL0     H32523   5.213   5.893   8.944 -0.6404 -0.5575  0.2511
  241MOL0     H32524   5.107   5.812   8.819 -0.0358 -2.0194 -0.2585
  241MOL0     H32525   5.336   5.758   8.727 -0.5276 -2.6034 -0.3744
  241MOL0     H32526   5.301   5.626   8.835 -3.2356  0.5879 -0.0093
  241MOL0     H32527   5.409   5.780   9.018  0.3019 -3.6960 -0.0395
  241MOL0     H32528   5.466   5.883   8.892  1.4904  0.6441  2.8589
  241MOL0     H32529   5.555   5.614   8.984 -2.0812  2.0454  0.7287
  241MOL0     H32530   5.568   5.632   8.805  2.6784 -0.0688 -0.4021
  241MOL0     H32531   5.909   5.806   8.973 -0.7002  3.9576  0.4130
  241MOL0     H32532   5.016   5.526   9.101 -2.2682 -1.4359 -1.6899
  241MOL0     H32533   4.694   5.458   9.156 -0.2188 -2.9872  1.7978
  241MOL0     H32534   4.863   5.418   9.228 -1.7861 -0.4951  3.5551
  241MOL0     H32535   4.753   5.486   9.324  1.1434  0.7761  0.5339
  242MOL0     O32536   0.830   3.384   5.845  0.4389  0.5341  0.1623
  242MOL0     C32537   0.760   3.440   5.932 -0.3645  0.1747  0.1443
  242MOL0     O32538   0.805   3.537   6.016  0.1575 -1.4387 -0.0919
  242MOL0     C32539   0.938   3.566   6.044  0.2957  0.8847 -1.7922
  242MOL0     C32540   1.034   3.576   5.947 -0.3724 -0.0226  0.0741
  242MOL0     C32541   1.165   3.616   5.984 -0.0382 -0.9373 -0.5968
  242MOL0     C32542   1.205   3.649   6.111  0.0447  0.0567 -0.3562
  242MOL0     O32543   1.340   3.681   6.136 -0.4746 -0.0602 -0.0354
  242MOL0     C32544   1.432   3.572   6.158  0.5153  0.0963 -0.0907
  242MOL0     C32545   1.521   3.562   6.031  0.2482 -0.2433 -0.1789
  242MOL0     C32546   1.618   3.683   6.009 -0.0146 -0.7665  0.6251
  242MOL0     C32547   1.743   3.686   6.102  0.7193 -0.5353  0.5690
  242MOL0     C32548   1.808   3.826   6.113  0.0556 -0.6084  0.3084
  242MOL0     C32549   1.870   3.884   5.985  0.1912 -0.7862 -0.3726
  242MOL0     C32550   1.997   3.812   5.945 -0.2279 -0.1854 -0.3438
  242MOL0     C32551   2.046   3.848   5.814 -0.6387  0.8865  0.6035
  242MOL0     N32552   2.106   3.732   5.753  0.6546 -0.4406 -0.1434
  242MOL0     C32553   2.241   3.708   5.738  0.3632 -0.2549  0.2782
  242MOL0     C32554   2.246   3.634   5.630 -0.2554  0.1616  0.0379
  242MOL0     C32555   2.373   3.584   5.574  0.0746  0.8796  0.3387
  242MOL0     C32556   2.385   3.610   5.422 -0.2547 -0.0761  0.2205
  242MOL0     C32557   2.527   3.604   5.363 -0.1421  0.2980 -0.3968
  242MOL0     C32558   2.610   3.491   5.415 -0.5836  0.1883  0.1946
  242MOL0     O32559   2.731   3.522   5.345  0.1821  0.0838 -0.3970
  242MOL0     C32560   2.851   3.488   5.415 -0.0617  0.0926  0.3220
  242MOL0     C32561   2.870   3.382   5.494  0.7000  0.5857 -0.1268
  242MOL0     C32562   2.998   3.352   5.546 -0.5188 -0.3626  0.3064
  242MOL0     C32563   3.109   3.427   5.522  0.4499  0.2258 -0.0591
  242MOL0     C32564   3.235   3.411   5.595 -0.3488  0.1513  0.4747
  242MOL0     O32565   3.319   3.516   5.607 -0.3443  0.1524  1.0403
  242MOL0     C32566   3.444   3.489   5.652 -0.8769  0.3509 -0.1210
  242MOL0     C32567   3.457   3.470   5.788 -0.3591  0.5060 -0.4662
  242MOL0     C32568   3.583   3.436   5.840 -0.0550  0.1185  0.1967
  242MOL0     C32569   3.700   3.422   5.762  0.6549  0.0097 -0.2894
  242MOL0     O32570   3.818   3.392   5.830 -0.5708  0.6712 -0.2731
  242MOL0     C32571   3.912   3.315   5.749  0.5733  1.0018  0.0828
  242MOL0     C32572   4.007   3.245   5.840 -0.4957  0.1660  0.1513
  242MOL0     C32573   3.931   3.155   5.934  0.3500  0.6378  0.6713
  242MOL0     C32574   4.021   3.094   6.052  0.5938 -0.4239  0.0541
  242MOL0     C32575   3.940   3.018   6.164 -0.3163  0.0339  0.1966
  242MOL0     C32576   3.882   2.889   6.119  0.6199  1.0862 -0.4118
  242MOL0     C32577   3.824   2.805   6.241 -0.4196  0.2047  0.0763
  242MOL0     C32578   3.764   2.677   6.199  0.1072 -0.1441  0.5530
  242MOL0    Cl32579   3.887   2.560   6.133  0.2703  0.0285  0.3178
  242MOL0     C32580   3.689   3.448   5.627 -0.4324  0.6416  0.1503
  242MOL0     C32581   3.560   3.469   5.567  1.7703  1.2089  0.1163
  242MOL0     O32582   3.262   3.298   5.629 -0.2309  0.6084  0.1393
  242MOL0     C32583   3.091   3.534   5.435  0.3488 -0.3380  0.5031
  242MOL0     C32584   2.962   3.567   5.378  0.0028 -0.0589  0.1900
  242MOL0     N32585   2.116   3.611   5.579 -0.4732 -0.4158  0.1427
  242MOL0     N32586   2.035   3.674   5.651 -0.1950 -1.4319  0.3930
  242MOL0     C32587   1.100   3.646   6.211 -0.2812  0.5758  0.4623
  242MOL0     C32588   0.977   3.601   6.179  0.4837  0.0070 -0.2617
  242MOL0     C32589   0.606   3.409   5.947 -0.7650 -0.5935 -0.0083
  242MOL0     C32590   0.531   3.509   6.001  0.7618 -0.0084 -0.0627
  242MOL0     C32591   0.389   3.491   6.012  0.4649 -0.0427 -0.3621
  242MOL0     C32592   0.326   3.374   5.968  0.0074  0.4638 -0.0262
  242MOL0     O32593   0.190   3.378   5.986  0.0057  0.3599 -0.5519
  242MOL0     C32594   0.116   3.266   5.919  0.7043  0.5251  0.5225
  242MOL0     C32595  -0.030   3.315   5.921 -0.4022  0.2026  0.2284
  242MOL0     C32596  -0.123   3.228   5.833  0.1058 -0.2777  0.0205
  242MOL0     C32597  -0.271   3.255   5.873  0.6384 -0.4757  0.3910
  242MOL0     C32598  -0.370   3.157   5.807  0.6057 -0.3364  0.0447
  242MOL0     C32599  -0.448   3.085   5.742  0.1416  0.3641 -0.2633
  242MOL0     C32600   0.403   3.275   5.914  0.5759  0.8810 -0.4287
  242MOL0     C32601   0.543   3.285   5.909 -0.9591 -0.0571 -0.7099
  242MOL0     C32602   0.627   3.178   5.854  0.5480  0.0440 -0.0116
  242MOL0     H32603   1.010   3.558   5.843  0.5163 -1.5028  0.0877
  242MOL0     H32604   1.238   3.651   5.912 -2.6642  2.0375 -2.0640
  242MOL0     H32605   1.489   3.589   6.249  1.6355 -1.5551 -0.4396
  242MOL0     H32606   1.365   3.485   6.152  0.3439  0.3036 -1.7860
  242MOL0     H32607   1.448   3.556   5.949  1.8783 -1.2807 -1.6370
  242MOL0     H32608   1.586   3.474   6.019  1.5242  0.4023  1.6662
  242MOL0     H32609   1.571   3.781   6.004 -1.4900 -1.4329  0.8658
  242MOL0     H32610   1.652   3.660   5.908 -0.1367 -0.5922  0.5446
  242MOL0     H32611   1.720   3.654   6.204  1.7334 -0.2888  0.8899
  242MOL0     H32612   1.821   3.621   6.061 -0.0681 -1.0923 -0.0749
  242MOL0     H32613   1.736   3.894   6.160 -0.4946  0.9140 -2.5547
  242MOL0     H32614   1.892   3.809   6.182 -0.3003 -0.3534  0.8152
  242MOL0     H32615   1.795   3.876   5.906 -1.7619 -1.9078  1.5133
  242MOL0     H32616   1.890   3.989   6.006  1.6011 -1.6636  3.3920
  242MOL0     H32617   1.986   3.704   5.954 -0.6507  0.0017  2.2149
  242MOL0     H32618   2.069   3.840   6.024 -1.9756  2.3423  0.4943
  242MOL0     H32619   1.960   3.878   5.753 -2.2461  1.0716  2.8206
  242MOL0     H32620   2.119   3.929   5.806  0.0574  0.1200 -1.4094
  242MOL0     H32621   2.324   3.747   5.796  2.2052 -0.0288 -2.3166
  242MOL0     H32622   2.448   3.637   5.633  0.8020  0.2168  0.0227
  242MOL0     H32623   2.370   3.475   5.581  0.6302  0.9028  1.0405
  242MOL0     H32624   2.318   3.545   5.366  1.0254 -0.2261 -1.2080
  242MOL0     H32625   2.346   3.711   5.405 -1.8609 -0.2637  2.3760
  242MOL0     H32626   2.573   3.703   5.371  0.8143 -0.2013  0.5559
  242MOL0     H32627   2.514   3.599   5.255 -0.1554  2.7182 -0.5658
  242MOL0     H32628   2.566   3.393   5.390  2.3503 -0.5579 -2.7907
  242MOL0     H32629   2.612   3.498   5.524 -2.3666 -0.2389  0.2965
  242MOL0     H32630   2.779   3.329   5.519  0.6048  0.9070  0.2158
  242MOL0     H32631   3.007   3.264   5.609 -1.9454 -0.1817  0.8003
  242MOL0     H32632   3.373   3.458   5.855  2.6421  0.3084  3.6683
  242MOL0     H32633   3.591   3.392   5.939  0.2539 -2.8097 -1.0412
  242MOL0     H32634   3.861   3.245   5.682 -0.1572  1.8278 -0.2431
  242MOL0     H32635   3.963   3.381   5.677 -1.8089  1.3068 -1.4205
  242MOL0     H32636   4.082   3.190   5.783  1.8116  1.3798  1.8180
  242MOL0     H32637   4.056   3.329   5.892 -1.1012  1.1555 -0.8208
  242MOL0     H32638   3.840   3.205   5.967 -0.5929 -0.2582 -0.4696
  242MOL0     H32639   3.883   3.076   5.876 -2.0814  0.9907  2.0824
  242MOL0     H32640   4.062   3.184   6.098 -2.0895  0.6221  0.5753
  242MOL0     H32641   4.102   3.028   6.019  0.6308 -0.2079 -0.2880
  242MOL0     H32642   3.851   3.071   6.200 -0.8609 -0.5034 -0.3420
  242MOL0     H32643   3.995   3.004   6.258  1.4264  0.6811 -0.6753
  242MOL0     H32644   3.801   2.910   6.048 -3.6874  1.2532  4.0300
  242MOL0     H32645   3.960   2.830   6.070  1.7482  2.1405  0.0641
  242MOL0     H32646   3.740   2.861   6.283 -0.4099  0.1038  0.2292
  242MOL0     H32647   3.904   2.786   6.314  0.9286  6.0996  0.6902
  242MOL0     H32648   3.718   2.626   6.284  0.0146 -2.8470 -1.0015
  242MOL0     H32649   3.688   2.698   6.124  0.9388 -2.7715 -1.1761
  242MOL0     H32650   3.772   3.452   5.558 -1.1499 -0.1636 -0.7963
  242MOL0     H32651   3.558   3.494   5.462 -0.4762  0.8591  0.0273
  242MOL0     H32652   3.178   3.597   5.418  0.0388  0.3089  1.2504
  242MOL0     H32653   2.943   3.648   5.308  1.0321 -0.3435 -0.4422
  242MOL0     H32654   1.131   3.678   6.310 -0.6595  2.7110 -0.0501
  242MOL0     H32655   0.891   3.603   6.244  0.3907  1.8611 -0.3765
  242MOL0     H32656   0.566   3.602   6.046 -0.1471  0.1205  0.4031
  242MOL0     H32657   0.330   3.570   6.059  1.9536  2.5117 -2.5207
  242MOL0     H32658   0.130   3.166   5.960 -2.0034 -0.9007 -1.7572
  242MOL0     H32659   0.151   3.263   5.816  0.6301  0.8034  0.4873
  242MOL0     H32660  -0.038   3.422   5.903  0.6172  1.4422  5.5306
  242MOL0     H32661  -0.062   3.305   6.025 -0.8946 -1.5695 -0.0615
  242MOL0     H32662  -0.108   3.120   5.841 -1.0398 -0.3740  1.1256
  242MOL0     H32663  -0.115   3.259   5.728 -0.1742  2.0293  0.6176
  242MOL0     H32664  -0.290   3.236   5.979 -1.6634  1.2292  0.3440
  242MOL0     H32665  -0.279   3.360   5.843  5.3046  0.2337  0.7930
  242MOL0     H32666  -0.512   3.029   5.676 -0.2383  1.2815 -0.6895
  242MOL0     H32667   0.363   3.184   5.869 -0.2387  0.3146  1.3248
  242MOL0     H32668   0.684   3.146   5.942 -1.1795 -1.3301  0.6822
  242MOL0     H32669   0.572   3.087   5.827 -0.8569  1.0422 -0.6790
  242MOL0     H32670   0.688   3.205   5.767 -0.4014  0.9191 -0.4389
  243MOL0     O32671  10.752   9.852   0.001 -0.1311 -0.4059 -0.0053
  243MOL0     C32672  10.634   9.810  -0.006 -0.1852 -0.3907  0.3241
  243MOL0     O32673  10.554   9.792   0.100 -0.7254 -0.9670  0.0563
  243MOL0     C32674  10.577   9.850   0.218  0.2498 -0.6590  0.0713
  243MOL0     C32675  10.493   9.798   0.325  1.0282  0.1727  0.8677
  243MOL0     C32676  10.501   9.846   0.455  0.0560 -1.3695  0.0822
  243MOL0     C32677  10.587   9.951   0.488 -0.3869  0.2402  1.1155
  243MOL0     O32678  10.621   9.977   0.616 -0.5768  0.0794  0.3064
  243MOL0     C32679  10.542   9.927   0.719  0.8509  0.6846  0.1950
  243MOL0     C32680  10.580   9.978   0.857 -0.2462 -1.0260 -0.5861
  243MOL0     C32681  10.718   9.925   0.914  0.5706  0.2250 -0.1653
  243MOL0     C32682  10.749   9.930   1.064 -0.4785 -0.5540 -0.3840
  243MOL0     C32683  10.901   9.917   1.078  0.0295 -0.1472 -0.0832
  243MOL0     C32684  10.942   9.770   1.053  0.4205 -0.0557  0.4784
  243MOL0     C32685  11.088   9.753   1.045 -0.2443 -0.1702 -0.2437
  243MOL0     C32686  11.164   9.784   0.917  0.1856 -0.2694  0.5180
  243MOL0     N32687  11.300   9.767   0.929  0.2736 -0.4163 -0.2901
  243MOL0     C32688  11.384   9.814   1.032 -0.1706 -0.0789  0.6949
  243MOL0     C32689  11.503   9.758   1.007  0.3491  0.5742 -0.2114
  243MOL0     C32690  11.622   9.775   1.095  0.4137  0.6312  0.1142
  243MOL0     C32691  11.717   9.875   1.032 -0.2772 -0.8033  0.0076
  243MOL0     C32692  11.662  10.020   1.013 -0.0292 -0.4210 -0.2995
  243MOL0     C32693  11.620  10.075   1.159  0.1845  1.1046  0.0251
  243MOL0     O32694  11.741  10.085   1.235 -0.0121  0.3753 -0.6109
  243MOL0     C32695  11.806  10.201   1.247 -0.2234  0.3785  0.0589
  243MOL0     C32696  11.937  10.171   1.281 -0.0423 -0.1743 -0.1417
  243MOL0     C32697  12.029  10.275   1.307 -0.6945  0.7750  0.6279
  243MOL0     C32698  11.985  10.410   1.302  0.1860  0.7410  0.2107
  243MOL0     C32699  12.082  10.514   1.342  0.4962 -0.9752  0.0663
  243MOL0     O32700  12.204  10.485   1.390  0.4956 -0.7546  0.7362
  243MOL0     C32701  12.285  10.592   1.427  0.0062  0.4570  0.7037
  243MOL0     C32702  12.361  10.659   1.331 -0.1705  0.1719  0.0895
  243MOL0     C32703  12.440  10.775   1.370 -0.4831  0.4232 -0.0084
  243MOL0     C32704  12.463  10.815   1.500  0.4131  0.4234 -0.1618
  243MOL0     O32705  12.553  10.916   1.514 -0.0523  0.2754 -0.2473
  243MOL0     C32706  12.634  10.900   1.630  0.7554  0.2012  0.2916
  243MOL0     C32707  12.735  11.012   1.619 -0.2100  0.5879  0.1805
  243MOL0     C32708  12.863  10.972   1.544 -0.1326 -0.8976 -0.7997
  243MOL0     C32709  12.950  10.872   1.636 -0.0349 -1.0584  0.5111
  243MOL0     C32710  12.999  10.944   1.762 -0.9559  0.2315  0.3047
  243MOL0     C32711  13.098  11.061   1.728  0.1012 -0.3404 -0.0976
  243MOL0     C32712  13.213  11.035   1.622 -0.3420  0.2591 -0.1749
  243MOL0     C32713  13.310  11.151   1.605  0.4604 -0.6267 -0.3497
  243MOL0    Cl32714  13.394  11.167   1.761  0.2435  0.2857  0.4631
  243MOL0     C32715  12.390  10.739   1.596  0.2793  0.5272  0.4023
  243MOL0     C32716  12.302  10.633   1.558 -0.1038  0.2515  0.3028
  243MOL0     O32717  12.031  10.619   1.360  1.1544  0.4745 -0.4977
  243MOL0     C32718  11.852  10.435   1.260 -0.3083  0.1691 -0.2842
  243MOL0     C32719  11.760  10.327   1.231  0.2098  0.2656 -0.1119
  243MOL0     N32720  11.486   9.689   0.887 -1.2471 -0.3656 -0.2222
  243MOL0     N32721  11.372   9.692   0.841  0.2732  0.6595 -0.1095
  243MOL0     C32722  10.653  10.012   0.382 -0.9779 -0.4230  0.2099
  243MOL0     C32723  10.663   9.953   0.257  0.6685 -0.2443  0.7353
  243MOL0     C32724  10.580   9.761  -0.138  0.1150  0.1661 -0.2412
  243MOL0     C32725  10.458   9.694  -0.140  0.3785 -0.2543  0.8828
  243MOL0     C32726  10.415   9.635  -0.257  0.2914 -0.1215 -0.3265
  243MOL0     C32727  10.475   9.662  -0.380 -0.0404  0.4274  0.6452
  243MOL0     O32728  10.435   9.605  -0.503 -0.2827  0.2562 -0.1978
  243MOL0     C32729  10.306   9.548  -0.530  0.4613  0.3860  0.1015
  243MOL0     C32730  10.333   9.399  -0.505 -0.3232 -0.2122  0.0404
  243MOL0     C32731  10.223   9.313  -0.562  0.2839 -0.2183  0.3970
  243MOL0     C32732  10.202   9.320  -0.713 -0.1231 -1.0406 -0.1457
  243MOL0     C32733  10.104   9.222  -0.769  0.6887 -0.1903 -0.0576
  243MOL0     C32734  10.011   9.152  -0.813 -0.3919  0.0491  0.0855
  243MOL0     C32735  10.596   9.734  -0.380  0.4123 -0.4719  0.0668
  243MOL0     C32736  10.649   9.787  -0.261  0.3138 -0.8810  0.3537
  243MOL0     C32737  10.768   9.884  -0.290 -0.2689 -0.8057 -0.3053
  243MOL0     H32738  10.414   9.724   0.314  0.3962  1.0791 -1.5030
  243MOL0     H32739  10.436   9.799   0.528 -1.7272  0.4939 -0.2133
  243MOL0     H32740  10.438   9.959   0.702  1.1867  2.3782  1.0764
  243MOL0     H32741  10.542   9.818   0.714  3.1276  0.6947 -3.6648
  243MOL0     H32742  10.498   9.959   0.928 -1.3239 -2.3852 -2.1239
  243MOL0     H32743  10.583  10.087   0.846  2.0703 -0.9859 -0.0295
  243MOL0     H32744  10.794   9.972   0.851  0.7567  2.8094  1.8529
  243MOL0     H32745  10.711   9.816   0.899  0.2488  0.3635 -1.0889
  243MOL0     H32746  10.724  10.023   1.116 -0.9307  1.2460 -3.5893
  243MOL0     H32747  10.690   9.853   1.115 -1.3605  0.8429  0.7889
  243MOL0     H32748  10.969   9.987   1.028  2.1230 -1.7560  0.3513
  243MOL0     H32749  10.923   9.925   1.185  1.9403 -3.3344 -0.0991
  243MOL0     H32750  10.898   9.717   1.138 -0.2482  1.9113  1.4345
  243MOL0     H32751  10.900   9.721   0.965  1.3878 -2.5434  1.3293
  243MOL0     H32752  11.093   9.645   1.064 -1.3633  0.1133  1.9713
  243MOL0     H32753  11.134   9.810   1.125  2.7110 -0.7505 -1.4206
  243MOL0     H32754  11.126   9.718   0.838 -4.0972 -0.4624  2.4594
  243MOL0     H32755  11.166   9.889   0.886  1.3280 -0.0118  1.4315
  243MOL0     H32756  11.362   9.870   1.122  1.1018  0.9439  0.4030
  243MOL0     H32757  11.588   9.804   1.194 -0.5403  1.0092 -0.3152
  243MOL0     H32758  11.687   9.686   1.100 -1.0831 -0.6448 -1.6550
  243MOL0     H32759  11.810   9.889   1.088 -0.6839  3.7950 -0.1624
  243MOL0     H32760  11.742   9.835   0.933  0.3569  0.9892 -0.5893
  243MOL0     H32761  11.572  10.014   0.950 -0.9497 -1.2617  1.0448
  243MOL0     H32762  11.737  10.083   0.964 -0.4264  0.3438  0.0385
  243MOL0     H32763  11.547  10.008   1.206  1.7720 -0.8242 -0.1180
  243MOL0     H32764  11.569  10.171   1.145 -1.7915 -0.0177 -0.7931
  243MOL0     H32765  11.981  10.071   1.280  2.0579  0.5540  3.2260
  243MOL0     H32766  12.133  10.246   1.323 -1.4731 -2.2232  0.9731
  243MOL0     H32767  12.365  10.614   1.232  0.8796  1.3338 -0.4282
  243MOL0     H32768  12.506  10.834   1.307  1.0711  0.1519  1.2846
  243MOL0     H32769  12.580  10.904   1.725  0.9423 -1.5808  0.5117
  243MOL0     H32770  12.685  10.803   1.632  2.1707  0.9193  1.6958
  243MOL0     H32771  12.684  11.098   1.574  0.4943  1.2295  0.5803
  243MOL0     H32772  12.769  11.047   1.717  0.2564 -1.6324  0.8659
  243MOL0     H32773  12.845  10.919   1.450 -1.4783  1.5420 -2.0253
  243MOL0     H32774  12.919  11.064   1.524 -2.1492  0.9258  1.2895
  243MOL0     H32775  13.031  10.828   1.576  1.2850 -0.4803  1.8046
  243MOL0     H32776  12.885  10.791   1.668 -0.1616 -0.5186  1.6713
  243MOL0     H32777  13.046  10.863   1.819 -0.8125  0.7526  0.9296
  243MOL0     H32778  12.920  10.984   1.826 -1.0169 -1.0846  1.0703
  243MOL0     H32779  13.047  11.153   1.701  3.1614  1.5989  0.2709
  243MOL0     H32780  13.132  11.090   1.828 -1.7447  1.3275  0.1053
  243MOL0     H32781  13.171  11.030   1.522 -0.2982  1.5186 -0.2722
  243MOL0     H32782  13.264  10.939   1.635 -0.9939 -0.4255 -2.2953
  243MOL0     H32783  13.383  11.126   1.528  2.6022  2.9814  0.3238
  243MOL0     H32784  13.258  11.243   1.578  1.7319 -0.0333 -0.8090
  243MOL0     H32785  12.398  10.764   1.701 -4.0560  1.0343  0.8042
  243MOL0     H32786  12.252  10.569   1.630 -0.4704  1.7453  1.4313
  243MOL0     H32787  11.822  10.539   1.249  1.5523  0.6155 -1.4553
  243MOL0     H32788  11.658  10.339   1.196 -0.5652 -0.5663  1.6995
  243MOL0     H32789  10.717  10.093   0.415  0.5708 -0.3734 -2.5848
  243MOL0     H32790  10.715  10.016   0.186 -0.9012  3.6925  2.7719
  243MOL0     H32791  10.404   9.676  -0.047 -2.1110  1.0425 -0.2159
  243MOL0     H32792  10.320   9.583  -0.257 -1.5777  2.9877  1.2470
  243MOL0     H32793  10.281   9.577  -0.632 -2.8651  3.2572  1.5503
  243MOL0     H32794  10.230   9.594  -0.466 -1.1646 -0.1899 -1.3355
  243MOL0     H32795  10.349   9.372  -0.400 -1.3562 -1.4801 -0.1030
  243MOL0     H32796  10.429   9.358  -0.539  0.1811 -0.4230  1.6428
  243MOL0     H32797  10.129   9.341  -0.514 -0.0137 -1.2799  0.4495
  243MOL0     H32798  10.241   9.206  -0.547  1.8241 -0.3007 -1.7429
  243MOL0     H32799  10.166   9.422  -0.730 -4.2421 -1.8977  1.9403
  243MOL0     H32800  10.298   9.306  -0.764 -0.4196 -2.5260 -0.3404
  243MOL0     H32801   9.922   9.108  -0.852  0.1569  0.2859 -1.5298
  243MOL0     H32802  10.630   9.750  -0.482  0.2237 -0.4551  0.0041
  243MOL0     H32803  10.858   9.847  -0.241 -1.0394 -2.4813 -0.0843
  243MOL0     H32804  10.789   9.896  -0.396  0.6870 -0.9506 -0.1388
  243MOL0     H32805  10.749   9.983  -0.247 -0.0757 -1.6863  1.9908
  244MOL0     O32806   7.752   9.087   2.973  0.9279  1.1313 -0.0331
  244MOL0     C32807   7.720   9.194   2.914 -0.1100  0.6076 -0.1203
  244MOL0     O32808   7.776   9.231   2.792  0.3699 -0.2894  0.2547
  244MOL0     C32809   7.862   9.152   2.733 -0.2073 -0.3151 -0.1104
  244MOL0     C32810   7.977   9.099   2.792  0.4573  0.3404 -0.1047
  244MOL0     C32811   8.046   8.997   2.733  0.0118  0.7796  0.4368
  244MOL0     C32812   8.021   8.971   2.600  0.0964  0.1107  0.0320
  244MOL0     O32813   8.115   8.897   2.534  0.3562  0.4924  0.2339
  244MOL0     C32814   8.139   8.912   2.391  0.1094 -0.3436 -1.2896
  244MOL0     C32815   8.203   9.051   2.372  0.0815  0.3134  0.1498
  244MOL0     C32816   8.253   9.076   2.225  0.0206  0.2578 -0.6629
  244MOL0     C32817   8.405   9.110   2.222  1.2725 -0.0502 -0.0985
  244MOL0     C32818   8.486   8.997   2.275 -0.3988  0.2674  0.3218
  244MOL0     C32819   8.639   9.034   2.304 -0.0780 -0.0332 -0.0280
  244MOL0     C32820   8.725   8.914   2.331 -0.9331  1.3785 -0.0090
  244MOL0     C32821   8.874   8.929   2.306  0.5563  0.1865 -0.0452
  244MOL0     N32822   8.953   8.821   2.362 -0.4486 -0.1261 -0.0155
  244MOL0     C32823   8.927   8.683   2.350  0.2901 -0.8882 -0.1369
  244MOL0     C32824   9.013   8.630   2.440  0.0321 -0.4045  0.4872
  244MOL0     C32825   9.021   8.488   2.480 -0.0562 -0.0581  0.1114
  244MOL0     C32826   9.121   8.420   2.385 -0.1215 -0.3990  0.1013
  244MOL0     C32827   9.047   8.375   2.263  0.2435 -0.0216 -0.2681
  244MOL0     C32828   9.119   8.273   2.170 -0.4662  0.1225  0.4471
  244MOL0     O32829   9.046   8.251   2.046 -0.3394 -0.4150 -0.1767
  244MOL0     C32830   9.080   8.130   1.983  0.3262  0.3348  0.2676
  244MOL0     C32831   8.993   8.095   1.879  0.0319 -0.3964  0.0960
  244MOL0     C32832   9.022   7.988   1.794  0.0789  0.2809 -0.2831
  244MOL0     C32833   9.137   7.913   1.804 -0.5207 -0.2255  0.7448
  244MOL0     C32834   9.164   7.789   1.721  0.0620  0.2896 -0.4784
  244MOL0     O32835   9.081   7.754   1.620 -0.1429  0.3257 -0.2236
  244MOL0     C32836   9.115   7.637   1.549  0.7116  0.4888 -0.9796
  244MOL0     C32837   9.232   7.629   1.481 -0.1604  0.0456 -0.2412
  244MOL0     C32838   9.265   7.512   1.410 -0.8812  0.4218  0.4470
  244MOL0     C32839   9.180   7.398   1.422 -1.0792 -1.2311 -0.3025
  244MOL0     O32840   9.219   7.284   1.361 -0.2310 -0.1506 -0.4190
  244MOL0     C32841   9.107   7.195   1.335  0.0754 -0.2409  0.1345
  244MOL0     C32842   9.148   7.065   1.263 -0.0031 -0.4597 -0.3223
  244MOL0     C32843   9.026   7.012   1.184 -0.7851 -0.7079  0.2648
  244MOL0     C32844   8.908   6.950   1.273  0.5280 -0.2163 -0.7685
  244MOL0     C32845   8.812   6.866   1.186 -0.2297 -0.9375  0.3573
  244MOL0     C32846   8.666   6.828   1.240 -0.7646  0.6690  0.3240
  244MOL0     C32847   8.689   6.798   1.388  0.3390  0.1954  0.1749
  244MOL0     C32848   8.562   6.718   1.442 -0.5918 -0.2237  0.3199
  244MOL0    Cl32849   8.414   6.826   1.439  0.2913  0.4588 -0.0967
  244MOL0     C32850   9.065   7.408   1.501 -0.6779 -0.0134  0.2678
  244MOL0     C32851   9.036   7.530   1.562 -0.0783 -0.6639 -0.1832
  244MOL0     O32852   9.263   7.726   1.754  0.2482 -0.7326  0.4375
  244MOL0     C32853   9.228   7.957   1.910 -0.0774 -0.2443 -0.2548
  244MOL0     C32854   9.203   8.066   1.992  0.5651 -0.6293  1.1740
  244MOL0     N32855   9.096   8.732   2.484  0.1969  1.0936 -0.8111
  244MOL0     N32856   9.067   8.842   2.431  0.3730 -0.1243 -0.1509
  244MOL0     C32857   7.913   9.030   2.534  0.1921  0.8934 -0.4504
  244MOL0     C32858   7.825   9.111   2.604 -0.6718 -0.8665 -0.9793
  244MOL0     C32859   7.625   9.293   2.971  0.2062 -0.1619 -0.1074
  244MOL0     C32860   7.566   9.384   2.877 -0.0425  0.2610  0.3389
  244MOL0     C32861   7.492   9.491   2.927  0.8389 -0.3504  0.5600
  244MOL0     C32862   7.460   9.503   3.061  0.1588 -0.6642 -0.0487
  244MOL0     O32863   7.376   9.598   3.110  1.0459  0.2122  0.1887
  244MOL0     C32864   7.293   9.674   3.013  0.4173 -0.2118  0.1544
  244MOL0     C32865   7.178   9.720   3.094 -0.0581 -0.1796  0.4772
  244MOL0     C32866   7.106   9.843   3.040  0.2429 -0.0598 -0.9488
  244MOL0     C32867   6.977   9.801   2.974 -0.0102  0.3093  0.9250
  244MOL0     C32868   6.868   9.756   3.061 -0.5221  0.2040 -0.2254
  244MOL0     C32869   6.784   9.693   3.121  0.1899 -0.1247 -0.4200
  244MOL0     C32870   7.500   9.406   3.150 -0.2203 -0.6381  0.9006
  244MOL0     C32871   7.581   9.302   3.108  0.0221 -0.2782 -0.5331
  244MOL0     C32872   7.624   9.209   3.223 -0.4721 -0.2568  0.5545
  244MOL0     H32873   8.004   9.143   2.887 -2.3058  1.9832  0.0084
  244MOL0     H32874   8.134   8.960   2.784  0.3578  1.8960  0.6742
  244MOL0     H32875   8.216   8.842   2.357  0.9356  0.4934 -1.1920
  244MOL0     H32876   8.049   8.896   2.332  1.2438 -1.3750 -2.8254
  244MOL0     H32877   8.271   9.059   2.458 -1.3174  3.0528  1.1308
  244MOL0     H32878   8.123   9.125   2.385 -0.3988 -0.2982  0.7270
  244MOL0     H32879   8.199   9.165   2.192 -0.4256 -0.0882 -0.8643
  244MOL0     H32880   8.232   8.988   2.164  1.4562  1.7144 -3.4310
  244MOL0     H32881   8.436   9.144   2.123 -0.7128  2.7476  0.1245
  244MOL0     H32882   8.411   9.187   2.300 -1.0639 -0.8197  0.9553
  244MOL0     H32883   8.445   8.959   2.369 -3.2524 -0.8597 -1.2707
  244MOL0     H32884   8.483   8.909   2.209  2.8702  1.0258 -1.0691
  244MOL0     H32885   8.667   9.099   2.221 -3.2679  2.0973  0.3646
  244MOL0     H32886   8.644   9.098   2.393 -0.3956 -0.5183  0.3450
  244MOL0     H32887   8.699   8.831   2.265  0.2151  0.2827  0.8875
  244MOL0     H32888   8.693   8.893   2.433  0.3888  2.2717  0.6181
  244MOL0     H32889   8.890   8.951   2.200 -1.2606 -0.7579 -0.5567
  244MOL0     H32890   8.907   9.017   2.362  0.3315 -0.1419  0.6184
  244MOL0     H32891   8.843   8.631   2.305  1.9060 -1.4561 -2.7109
  244MOL0     H32892   9.072   8.487   2.576  0.0492  1.3832  0.0950
  244MOL0     H32893   8.926   8.435   2.484  0.0695 -0.2175  1.3791
  244MOL0     H32894   9.202   8.485   2.352 -1.0184  0.9882  0.5621
  244MOL0     H32895   9.170   8.339   2.441  4.4555  2.4641  0.7234
  244MOL0     H32896   9.018   8.465   2.207  2.2106  0.6592 -0.2831
  244MOL0     H32897   8.959   8.323   2.300  0.3707 -1.8356 -2.3121
  244MOL0     H32898   9.121   8.178   2.225  0.3319  0.4430  0.9751
  244MOL0     H32899   9.218   8.299   2.133 -0.5324 -1.0663 -0.6402
  244MOL0     H32900   8.906   8.161   1.877  0.7306  0.6570  1.8499
  244MOL0     H32901   8.942   7.954   1.729 -2.3008  2.4339  1.3320
  244MOL0     H32902   9.294   7.718   1.479 -0.1569  0.0702  0.5632
  244MOL0     H32903   9.351   7.512   1.345 -1.3607  1.0580 -0.2108
  244MOL0     H32904   9.076   7.159   1.434  0.5297 -1.1529 -0.0441
  244MOL0     H32905   9.021   7.243   1.288 -0.6301 -0.7079  0.9297
  244MOL0     H32906   9.229   7.098   1.198  1.5364 -0.4718  1.5027
  244MOL0     H32907   9.198   6.995   1.330  1.2517 -0.9202 -1.6973
  244MOL0     H32908   8.987   7.087   1.114  0.3183 -1.2686 -0.9926
  244MOL0     H32909   9.064   6.926   1.129  0.0620 -0.7716  0.9290
  244MOL0     H32910   8.850   7.029   1.322 -0.3101 -1.2426 -0.0638
  244MOL0     H32911   8.956   6.893   1.353  0.8076 -0.1574 -0.8902
  244MOL0     H32912   8.868   6.776   1.159 -1.7958 -1.4740 -1.2356
  244MOL0     H32913   8.801   6.918   1.090 -1.1037  3.5132  2.5905
  244MOL0     H32914   8.612   6.922   1.225  1.3612  1.3875 -4.5085
  244MOL0     H32915   8.637   6.743   1.178 -1.9884 -0.5056  2.3676
  244MOL0     H32916   8.696   6.881   1.460 -3.3219  1.6527 -0.8909
  244MOL0     H32917   8.773   6.729   1.403 -0.2500 -0.6414 -0.2917
  244MOL0     H32918   8.545   6.627   1.384 -0.2249  1.0447 -1.9223
  244MOL0     H32919   8.565   6.683   1.545 -6.0663 -1.1757  0.4383
  244MOL0     H32920   8.985   7.336   1.520  0.6607 -1.3408  1.0764
  244MOL0     H32921   8.946   7.536   1.622  1.2401  0.1455  1.8158
  244MOL0     H32922   9.316   7.904   1.946 -1.9051 -2.0458  2.0030
  244MOL0     H32923   9.285   8.092   2.060  0.1764  2.6081  0.5985
  244MOL0     H32924   7.879   9.001   2.436 -4.4937 -3.6801  2.0191
  244MOL0     H32925   7.738   9.155   2.557 -1.3520 -0.0711  0.9032
  244MOL0     H32926   7.589   9.385   2.771 -0.0355 -0.1046  0.3354
  244MOL0     H32927   7.464   9.569   2.856  0.6469 -1.4639 -0.6187
  244MOL0     H32928   7.255   9.608   2.936 -0.2211 -2.1004  1.9975
  244MOL0     H32929   7.350   9.755   2.966 -2.8536  1.5090 -1.2052
  244MOL0     H32930   7.217   9.757   3.190  0.7977 -1.3408  0.5908
  244MOL0     H32931   7.113   9.634   3.110 -1.9273  1.2630  1.0387
  244MOL0     H32932   7.165   9.889   2.960 -1.2351  0.7595 -1.6245
  244MOL0     H32933   7.078   9.915   3.118 -2.7441 -0.9653 -1.0706
  244MOL0     H32934   6.937   9.879   2.908 -0.3634 -0.4602  0.2036
  244MOL0     H32935   7.007   9.720   2.907  4.4131  3.3388 -1.1959
  244MOL0     H32936   6.724   9.625   3.177  0.6422 -2.1892 -2.2913
  244MOL0     H32937   7.477   9.417   3.255  0.6796 -0.5902  1.1061
  244MOL0     H32938   7.724   9.242   3.252 -0.5173  1.8017 -1.3228
  244MOL0     H32939   7.547   9.210   3.300  0.1840  1.8648  1.2340
  244MOL0     H32940   7.634   9.105   3.189  0.9579  1.1744 -4.2811
  245MOL0     O32941   1.639   7.146   3.834  0.4873  0.2216 -0.0332
  245MOL0     C32942   1.617   7.163   3.717  0.6177  0.0488  0.5893
  245MOL0     O32943   1.712   7.174   3.622 -0.5234  0.0471  0.1269
  245MOL0     C32944   1.845   7.153   3.663  0.2763  0.6992  0.8787
  245MOL0     C32945   1.935   7.261   3.666  0.4269  0.6998 -0.5070
  245MOL0     C32946   2.062   7.232   3.710 -0.6023 -0.4609 -0.5678
  245MOL0     C32947   2.114   7.103   3.742 -1.4187  0.9171  0.9637
  245MOL0     O32948   2.237   7.074   3.779  0.4496 -0.1980  0.5144
  245MOL0     C32949   2.343   7.169   3.743 -0.4436  0.4193 -0.6776
  245MOL0     C32950   2.484   7.113   3.794 -0.4479 -0.4853  0.0686
  245MOL0     C32951   2.606   7.202   3.744 -0.0395  0.1163  0.1580
  245MOL0     C32952   2.602   7.347   3.785 -0.2440 -0.7595  1.0086
  245MOL0     C32953   2.733   7.421   3.755 -0.1845  0.7752  0.4302
  245MOL0     C32954   2.719   7.553   3.821 -0.1004  0.0540  0.2064
  245MOL0     C32955   2.849   7.630   3.805 -0.3808  0.1286  0.8463
  245MOL0     C32956   2.881   7.713   3.929 -0.0044  0.0710  0.1747
  245MOL0     N32957   3.018   7.764   3.937 -0.5622 -0.0478  0.0627
  245MOL0     C32958   3.047   7.888   3.878  0.0192 -0.7626  0.7425
  245MOL0     C32959   3.165   7.923   3.927 -0.8164  0.0591  0.0818
  245MOL0     C32960   3.243   8.051   3.912 -0.1026  0.8771 -0.0046
  245MOL0     C32961   3.257   8.074   3.757  0.3356  0.2481  0.4266
  245MOL0     C32962   3.310   8.209   3.716 -0.3448  0.6695  0.1997
  245MOL0     C32963   3.245   8.340   3.747  0.2937 -0.5005 -0.3949
  245MOL0     O32964   3.311   8.431   3.656 -0.4737  0.3658  0.5078
  245MOL0     C32965   3.425   8.492   3.704 -0.9609 -0.4484 -0.2025
  245MOL0     C32966   3.496   8.471   3.835 -0.5967  0.4562  0.3217
  245MOL0     C32967   3.613   8.541   3.853 -0.1435 -0.5659 -0.6473
  245MOL0     C32968   3.656   8.645   3.773 -0.2219 -0.7414 -0.2783
  245MOL0     C32969   3.777   8.729   3.805 -0.5829  0.2367 -0.3254
  245MOL0     O32970   3.822   8.713   3.936 -0.2022  0.3886 -0.1658
  245MOL0     C32971   3.944   8.769   3.979 -0.1650  0.3813 -0.4109
  245MOL0     C32972   4.059   8.792   3.894  0.0112 -0.1863  0.4143
  245MOL0     C32973   4.170   8.865   3.947  0.1911 -0.0786 -0.3608
  245MOL0     C32974   4.176   8.912   4.083  0.8321  0.3795  0.4174
  245MOL0     O32975   4.283   8.985   4.143  0.0463 -0.2969  0.1628
  245MOL0     C32976   4.411   8.979   4.082 -0.3810 -0.0655  0.1321
  245MOL0     C32977   4.521   9.054   4.168 -0.2888  0.1422  0.7834
  245MOL0     C32978   4.661   9.062   4.114 -1.1845 -0.7515  0.5594
  245MOL0     C32979   4.758   9.109   4.219  0.0363 -0.1353  0.2773
  245MOL0     C32980   4.887   9.162   4.144  0.7183  0.5777  0.2545
  245MOL0     C32981   5.001   9.192   4.255 -0.0605 -0.3477 -1.0838
  245MOL0     C32982   5.103   9.308   4.214  0.5664  0.7375  0.0169
  245MOL0     C32983   5.210   9.307   4.321  0.4192 -0.0739  0.5659
  245MOL0    Cl32984   5.166   9.385   4.473 -0.6469  0.2409 -0.1566
  245MOL0     C32985   4.068   8.887   4.164  0.4606  0.2189 -0.2358
  245MOL0     C32986   3.953   8.826   4.111 -0.2022  0.2346 -0.0837
  245MOL0     O32987   3.824   8.807   3.725 -0.4622  0.1051  0.4749
  245MOL0     C32988   3.580   8.667   3.654 -1.1112 -0.1556 -0.1599
  245MOL0     C32989   3.473   8.589   3.619 -0.5905 -0.4516  0.4449
  245MOL0     N32990   3.205   7.826   4.008 -0.4790 -0.3302 -0.6948
  245MOL0     N32991   3.124   7.730   4.014  0.1602  0.1159 -0.5104
  245MOL0     C32992   2.020   6.999   3.737  0.8525 -0.0402  0.3321
  245MOL0     C32993   1.882   7.022   3.696 -0.3304  0.1180 -0.0577
  245MOL0     C32994   1.479   7.175   3.664  1.0419  0.7263 -0.0454
  245MOL0     C32995   1.458   7.188   3.525  0.0055  0.6684  0.5425
  245MOL0     C32996   1.334   7.189   3.466  0.7204 -0.6846 -0.1483
  245MOL0     C32997   1.216   7.167   3.548  0.0031  1.2299 -0.3730
  245MOL0     O32998   1.093   7.171   3.488 -0.5279  0.5912  0.1476
  245MOL0     C32999   0.973   7.169   3.570 -0.4149 -0.3219  0.4461
  245MOL0     C33000   0.874   7.123   3.468  0.1474  0.0854  0.4107
  245MOL0     C33001   0.743   7.061   3.518  0.6089  0.1846  0.7430
  245MOL0     C33002   0.639   7.035   3.406  0.7303 -0.1766 -0.0260
  245MOL0     C33003   0.494   7.044   3.447  0.5082 -0.6265  0.4846
  245MOL0     C33004   0.381   7.068   3.491 -0.1635  0.3079  0.5075
  245MOL0     C33005   1.227   7.166   3.693 -0.6324 -0.4701  0.2795
  245MOL0     C33006   1.360   7.179   3.746 -1.0339  0.0641  0.6412
  245MOL0     C33007   1.366   7.167   3.897  0.1588 -0.2492  0.2445
  245MOL0     H33008   1.899   7.362   3.650 -1.2135  0.0589 -0.9785
  245MOL0     H33009   2.127   7.318   3.722 -0.8479 -0.3241 -0.2046
  245MOL0     H33010   2.344   7.189   3.636  1.1998  3.5110 -0.2225
  245MOL0     H33011   2.319   7.266   3.789 -1.1853 -0.0663 -0.0145
  245MOL0     H33012   2.499   7.009   3.764  1.7708 -0.8869  2.2106
  245MOL0     H33013   2.474   7.120   3.902  1.9971 -0.1395  0.3437
  245MOL0     H33014   2.611   7.194   3.635 -2.1186  1.1342 -0.0576
  245MOL0     H33015   2.695   7.162   3.794  0.2774  2.7587  1.9145
  245MOL0     H33016   2.522   7.397   3.731 -1.4629 -0.6053  2.8604
  245MOL0     H33017   2.578   7.359   3.891 -0.0291  2.6554  0.7874
  245MOL0     H33018   2.817   7.359   3.784 -2.0890 -1.7140  1.0012
  245MOL0     H33019   2.740   7.443   3.648 -0.8014 -1.1212 -0.0426
  245MOL0     H33020   2.630   7.604   3.783  0.0453 -0.2377 -0.5506
  245MOL0     H33021   2.711   7.539   3.929 -0.0865  0.4062  0.2521
  245MOL0     H33022   2.856   7.693   3.716 -3.5433  1.2171  1.2390
  245MOL0     H33023   2.935   7.567   3.782 -1.0424 -1.1408  1.6637
  245MOL0     H33024   2.809   7.795   3.932  0.1703  0.3823 -2.2523
  245MOL0     H33025   2.874   7.644   4.013  1.0805 -1.9745 -1.3304
  245MOL0     H33026   2.991   7.952   3.811 -0.7003  0.2415  2.2382
  245MOL0     H33027   3.194   8.139   3.955  1.8450  2.4089 -0.7477
  245MOL0     H33028   3.338   8.040   3.966 -0.5067  0.3981  0.6147
  245MOL0     H33029   3.309   7.986   3.718  0.2370  0.4640 -0.2095
  245MOL0     H33030   3.160   8.061   3.709  0.9919 -0.5165 -0.7392
  245MOL0     H33031   3.319   8.196   3.607 -1.9785 -0.0894  0.1234
  245MOL0     H33032   3.413   8.215   3.751  0.8732 -2.9312 -2.2035
  245MOL0     H33033   3.255   8.365   3.853 -0.8517  1.5545 -0.7178
  245MOL0     H33034   3.137   8.328   3.734  0.1730  0.7850 -0.7434
  245MOL0     H33035   3.455   8.403   3.909  0.3430  0.7525  1.1290
  245MOL0     H33036   3.663   8.540   3.950  2.5246  0.9513 -1.8979
  245MOL0     H33037   4.072   8.749   3.795  1.5825  0.2623  0.3976
  245MOL0     H33038   4.248   8.890   3.875 -1.6385  1.5425 -1.8676
  245MOL0     H33039   4.439   8.873   4.087 -3.5329 -0.9321  1.9932
  245MOL0     H33040   4.408   9.018   3.980  0.5345 -1.4260 -0.4386
  245MOL0     H33041   4.484   9.156   4.185  1.8902  0.5350  4.3840
  245MOL0     H33042   4.526   9.010   4.268 -0.5231  1.7528  1.5405
  245MOL0     H33043   4.695   8.966   4.073  2.2908  1.2431 -1.7098
  245MOL0     H33044   4.649   9.141   4.040 -0.0526  1.0221  2.1825
  245MOL0     H33045   4.781   9.023   4.282  1.8205  2.0542  2.8356
  245MOL0     H33046   4.718   9.193   4.276  1.1195  0.5982 -0.0130
  245MOL0     H33047   4.867   9.249   4.081 -0.1701  0.9977  1.0857
  245MOL0     H33048   4.928   9.093   4.070  0.3350  1.9900 -1.3189
  245MOL0     H33049   4.967   9.214   4.357  0.9988 -1.1628 -0.5338
  245MOL0     H33050   5.070   9.107   4.265 -1.8000 -2.0533 -2.8212
  245MOL0     H33051   5.048   9.403   4.215  2.5108  1.9391 -0.7854
  245MOL0     H33052   5.141   9.285   4.114 -1.5762 -0.8210 -0.5174
  245MOL0     H33053   5.250   9.206   4.333  1.8505  0.5862  1.6217
  245MOL0     H33054   5.291   9.368   4.279 -0.0240  1.0916  1.3475
  245MOL0     H33055   4.068   8.920   4.268 -1.7339 -1.5658  0.3978
  245MOL0     H33056   3.864   8.807   4.171 -1.6525 -1.0743 -2.4694
  245MOL0     H33057   3.614   8.751   3.594  3.2656 -0.5673  1.3430
  245MOL0     H33058   3.417   8.606   3.527 -0.0655  0.1486  0.2342
  245MOL0     H33059   2.061   6.902   3.763 -1.3095 -0.5452  2.1712
  245MOL0     H33060   1.805   6.944   3.697 -0.8035  0.5801  0.3857
  245MOL0     H33061   1.539   7.192   3.453 -0.7061  0.2380 -0.2878
  245MOL0     H33062   1.336   7.202   3.358  0.5453 -0.9576 -0.1864
  245MOL0     H33063   0.943   7.264   3.615  2.0659  0.2546  1.0339
  245MOL0     H33064   0.978   7.094   3.650  3.4279  0.9514  1.6338
  245MOL0     H33065   0.921   7.044   3.408 -2.3789 -0.2714 -1.2718
  245MOL0     H33066   0.848   7.197   3.391  0.1329  0.2703  0.5948
  245MOL0     H33067   0.703   7.120   3.602 -0.7076 -1.6524  1.4597
  245MOL0     H33068   0.769   6.966   3.566  0.7640 -2.2994 -3.7487
  245MOL0     H33069   0.653   7.113   3.331  1.5733 -0.9848 -0.7312
  245MOL0     H33070   0.656   6.935   3.366 -0.9503 -0.3344 -0.4339
  245MOL0     H33071   0.284   7.078   3.536  0.0725  1.6137  0.7631
  245MOL0     H33072   1.143   7.148   3.759  1.4266 -2.4496  2.5839
  245MOL0     H33073   1.273   7.173   3.954  0.3076  0.2203  0.4397
  245MOL0     H33074   1.412   7.074   3.932  1.1864  0.2439  0.2581
  245MOL0     H33075   1.443   7.236   3.931  0.1275  1.0017 -1.9959
  246MOL0     O33076   3.178   4.334  10.140 -0.2459 -0.7827  0.3978
  246MOL0     C33077   3.170   4.215  10.173 -0.2983 -0.1070  0.4124
  246MOL0     O33078   3.243   4.111  10.112 -0.0795  0.0801 -0.0500
  246MOL0     C33079   3.330   4.149  10.017  0.8110 -0.0614  0.3390
  246MOL0     C33080   3.473   4.176  10.029 -0.2553  0.0253 -0.4432
  246MOL0     C33081   3.543   4.230   9.913 -0.3238  0.8833 -0.3134
  246MOL0     C33082   3.481   4.249   9.792 -0.4105 -0.1802  0.5326
  246MOL0     O33083   3.542   4.309   9.684 -0.4081 -0.0252 -0.2724
  246MOL0     C33084   3.619   4.433   9.710  0.5410  0.1186  0.2245
  246MOL0     C33085   3.687   4.471   9.586 -0.4429 -0.5728  0.1888
  246MOL0     C33086   3.756   4.601   9.592 -0.2114  0.1643 -0.4906
  246MOL0     C33087   3.700   4.717   9.506 -1.1879 -0.1161  0.1315
  246MOL0     C33088   3.801   4.820   9.456 -0.0304 -0.3003 -0.0170
  246MOL0     C33089   3.887   4.895   9.568  0.8153  0.5102 -0.0695
  246MOL0     C33090   3.981   4.993   9.515  0.4784  0.1496  0.7707
  246MOL0     C33091   4.091   5.022   9.625 -0.3833 -0.4093  0.5924
  246MOL0     N33092   4.199   5.111   9.563  0.5442 -0.2767 -0.0276
  246MOL0     C33093   4.284   5.077   9.462 -0.2662  0.0928  1.2143
  246MOL0     C33094   4.330   5.198   9.422 -0.1557 -0.6683 -0.6850
  246MOL0     C33095   4.446   5.234   9.335 -0.4161 -0.1352 -0.9062
  246MOL0     C33096   4.428   5.172   9.196 -0.3247  0.3981 -0.0545
  246MOL0     C33097   4.289   5.192   9.124 -0.4544  0.6507 -0.5994
  246MOL0     C33098   4.281   5.105   9.002  0.2460 -1.0206 -0.3551
  246MOL0     O33099   4.295   4.973   9.049  0.0512  0.3329 -0.1835
  246MOL0     C33100   4.189   4.903   9.083  0.0382 -0.3493  0.0196
  246MOL0     C33101   4.220   4.771   9.104  0.1215 -0.3903 -0.1613
  246MOL0     C33102   4.127   4.673   9.130  0.0638  0.4418  0.1749
  246MOL0     C33103   3.993   4.715   9.121 -0.4431 -0.0366 -0.9749
  246MOL0     C33104   3.888   4.621   9.136  0.7695 -0.4495 -0.2707
  246MOL0     O33105   3.908   4.510   9.211  0.2597  0.6047  0.1934
  246MOL0     C33106   3.813   4.406   9.224  0.7514  0.6107  0.2901
  246MOL0     C33107   3.867   4.281   9.243  0.3414  0.1306 -0.0586
  246MOL0     C33108   3.786   4.179   9.290  0.1213 -1.0167 -0.1005
  246MOL0     C33109   3.650   4.191   9.307 -0.0923 -0.1731  0.4507
  246MOL0     O33110   3.574   4.082   9.343  0.1997  0.2604 -0.2649
  246MOL0     C33111   3.443   4.102   9.400  0.4765  0.6987  0.0321
  246MOL0     C33112   3.389   3.972   9.456 -0.3395 -0.3848 -1.1575
  246MOL0     C33113   3.241   3.977   9.519  0.2844 -0.0690  0.1327
  246MOL0     C33114   3.139   3.943   9.419 -0.0077 -0.6330 -0.3000
  246MOL0     C33115   3.008   3.902   9.494  0.9467 -0.1893 -0.3227
  246MOL0     C33116   2.889   3.869   9.397 -0.1699  0.2363  0.4805
  246MOL0     C33117   2.828   3.995   9.335  0.2092  0.1832  0.2204
  246MOL0     C33118   2.704   3.964   9.243 -0.1460 -0.1668  0.2576
  246MOL0    Cl33119   2.571   3.893   9.350 -0.2733  0.3288  0.0466
  246MOL0     C33120   3.593   4.316   9.281  0.3497  0.8017  0.4091
  246MOL0     C33121   3.674   4.422   9.245  0.6107 -0.6205  0.2698
  246MOL0     O33122   3.778   4.656   9.081 -0.3787  0.6496  0.0468
  246MOL0     C33123   3.955   4.847   9.110 -0.2552  0.4971  0.5416
  246MOL0     C33124   4.054   4.945   9.087  0.1077  0.0012 -0.0908
  246MOL0     N33125   4.275   5.300   9.491  0.6844  0.0074  0.0748
  246MOL0     N33126   4.195   5.247   9.576 -0.1569  0.5811 -0.0522
  246MOL0     C33127   3.346   4.229   9.782  0.2989  0.6512  0.2865
  246MOL0     C33128   3.274   4.176   9.891 -0.9662 -0.1406  0.3137
  246MOL0     C33129   3.077   4.182  10.287 -0.4395 -0.2743 -0.2406
  246MOL0     C33130   3.079   4.049  10.325 -0.5292  0.2064 -0.3267
  246MOL0     C33131   3.002   3.995  10.429  0.9549 -0.2150 -0.1138
  246MOL0     C33132   2.930   4.085  10.502 -0.3180 -0.4380  0.1893
  246MOL0     O33133   2.860   4.029  10.610  0.2387 -0.2606  0.8966
  246MOL0     C33134   2.794   4.114  10.709  0.0362 -0.4463  0.0291
  246MOL0     C33135   2.652   4.162  10.659 -0.3037  0.0838 -0.6355
  246MOL0     C33136   2.558   4.047  10.630  0.7798 -0.9243  0.4142
  246MOL0     C33137   2.553   3.952  10.744 -0.2820 -0.5086 -0.1529
  246MOL0     C33138   2.425   3.883  10.753  0.4256 -0.1339  0.5853
  246MOL0     C33139   2.317   3.820  10.734 -1.0363 -0.6366  0.3896
  246MOL0     C33140   2.926   4.221  10.470  0.3390  0.3505  0.1932
  246MOL0     C33141   2.995   4.272  10.359  0.3402  1.2407  0.2069
  246MOL0     C33142   2.967   4.415  10.313 -0.4070 -0.5865 -0.5422
  246MOL0     H33143   3.517   4.159  10.127 -0.0185 -1.3630 -0.7736
  246MOL0     H33144   3.646   4.263   9.912  0.4890 -1.4667 -0.9445
  246MOL0     H33145   3.548   4.508   9.746  0.7079 -0.6479  2.2953
  246MOL0     H33146   3.700   4.422   9.783  1.0170  1.0904 -0.1399
  246MOL0     H33147   3.612   4.469   9.506 -2.5549  1.6838  1.9448
  246MOL0     H33148   3.753   4.394   9.545 -0.0452 -0.6409  0.9386
  246MOL0     H33149   3.862   4.596   9.567 -0.2233  1.9961 -1.0690
  246MOL0     H33150   3.768   4.630   9.697 -2.5257 -2.0028  0.4797
  246MOL0     H33151   3.664   4.662   9.418  0.0023 -1.0925  0.2294
  246MOL0     H33152   3.610   4.743   9.563 -1.5087 -0.1175 -0.3628
  246MOL0     H33153   3.873   4.770   9.391  0.3836 -2.3406  1.8840
  246MOL0     H33154   3.749   4.878   9.379 -2.8130  0.0414  1.9792
  246MOL0     H33155   3.822   4.944   9.642  1.3231 -0.2551  0.9137
  246MOL0     H33156   3.945   4.814   9.613  1.1993 -0.3129 -1.9464
  246MOL0     H33157   3.929   5.086   9.492 -2.0786 -1.8514 -2.3952
  246MOL0     H33158   4.010   4.956   9.416  1.7338  1.8378  0.4614
  246MOL0     H33159   4.039   5.075   9.706 -0.6334  0.0538  0.1369
  246MOL0     H33160   4.134   4.927   9.657  1.7566 -0.0284 -0.9564
  246MOL0     H33161   4.324   4.985   9.420 -1.8407  0.6428 -1.7841
  246MOL0     H33162   4.444   5.343   9.327 -0.9096 -0.0530  0.1646
  246MOL0     H33163   4.544   5.219   9.380  0.0688  1.4097 -1.3729
  246MOL0     H33164   4.500   5.220   9.130 -1.3346  0.9027 -0.8238
  246MOL0     H33165   4.466   5.069   9.199 -0.3081  0.3098 -1.9576
  246MOL0     H33166   4.277   5.295   9.087 -1.3811  0.4134 -0.9832
  246MOL0     H33167   4.209   5.179   9.197  0.2558 -3.7430 -0.3222
  246MOL0     H33168   4.363   5.124   8.931  2.1397  0.3307  2.0381
  246MOL0     H33169   4.186   5.125   8.952  0.5967 -1.1927 -1.1036
  246MOL0     H33170   4.323   4.738   9.098  0.1440 -0.2112 -0.7846
  246MOL0     H33171   4.150   4.570   9.155  1.6297  1.2407  2.2957
  246MOL0     H33172   3.972   4.255   9.229  0.0274 -1.2256 -0.0228
  246MOL0     H33173   3.828   4.080   9.307  1.9743 -0.4328 -1.0443
  246MOL0     H33174   3.451   4.180   9.476 -2.8788  1.6286 -0.3828
  246MOL0     H33175   3.385   4.133   9.312  0.9825 -3.4005 -1.9876
  246MOL0     H33176   3.405   3.893   9.382 -2.0883 -1.1584 -0.7768
  246MOL0     H33177   3.447   3.943   9.544  0.6367  0.0376 -1.6589
  246MOL0     H33178   3.244   3.904   9.601  0.6717 -2.1512 -1.6377
  246MOL0     H33179   3.219   4.077   9.557 -2.6961 -0.4321 -0.3550
  246MOL0     H33180   3.175   3.854   9.366 -2.7031 -1.8255 -0.2988
  246MOL0     H33181   3.122   4.024   9.347  1.1354 -0.6277 -0.5764
  246MOL0     H33182   2.983   3.979   9.569 -0.9636 -1.4692  0.4508
  246MOL0     H33183   3.025   3.812   9.554 -0.6329 -0.6454 -0.5017
  246MOL0     H33184   2.934   3.815   9.313 -1.2857 -0.9057  0.5903
  246MOL0     H33185   2.812   3.810   9.447  0.3967 -0.5349  0.4553
  246MOL0     H33186   2.897   4.057   9.277  0.0556 -0.8926 -1.1705
  246MOL0     H33187   2.785   4.050   9.419 -1.1410 -1.3669  0.5918
  246MOL0     H33188   2.674   4.051   9.185 -2.8644 -0.5823  0.9046
  246MOL0     H33189   2.725   3.894   9.162  0.0534  0.8364 -0.5769
  246MOL0     H33190   3.486   4.326   9.295  0.2193 -1.7148  1.6633
  246MOL0     H33191   3.628   4.517   9.219  1.0279 -0.4648  0.0927
  246MOL0     H33192   3.853   4.880   9.096 -0.7014 -1.4142 -1.1497
  246MOL0     H33193   4.015   5.046   9.081 -4.8410 -1.5867  1.0407
  246MOL0     H33194   3.301   4.247   9.685 -0.6748  0.6852  0.7286
  246MOL0     H33195   3.172   4.141   9.874 -0.4343 -1.4862 -0.2395
  246MOL0     H33196   3.144   3.979  10.273  1.0489  0.3004  1.4146
  246MOL0     H33197   2.997   3.892  10.462  0.8772 -0.1237  0.1674
  246MOL0     H33198   2.851   4.205  10.727 -0.9817  0.2209 -0.0315
  246MOL0     H33199   2.791   4.065  10.806  0.1780 -1.2164 -0.3472
  246MOL0     H33200   2.657   4.222  10.568  0.4567  1.0699  0.0435
  246MOL0     H33201   2.603   4.229  10.730 -1.7195 -0.5096 -1.0106
  246MOL0     H33202   2.583   3.999  10.535  0.9399 -0.0617  0.0057
  246MOL0     H33203   2.465   4.098  10.601  2.8247  2.2302 -1.1563
  246MOL0     H33204   2.636   3.881  10.739 -0.0119 -0.2308  0.2093
  246MOL0     H33205   2.577   4.004  10.838 -1.4845 -0.6633  0.2520
  246MOL0     H33206   2.222   3.772  10.726 -1.9255  0.8969  1.4269
  246MOL0     H33207   2.857   4.282  10.527 -1.7241  0.1406 -1.9088
  246MOL0     H33208   2.892   4.452  10.383  0.7463  0.6976  0.0380
  246MOL0     H33209   3.055   4.479  10.310 -0.7065 -0.1253  0.3449
  246MOL0     H33210   2.919   4.413  10.215  0.1937  0.4903 -0.8737
  247MOL0     O33211  10.521   1.842   3.370  1.2780  0.3721 -0.7079
  247MOL0     C33212  10.488   1.724   3.344  0.5096  0.7354  1.0643
  247MOL0     O33213  10.561   1.611   3.335 -0.0104 -0.1280  0.1175
  247MOL0     C33214  10.701   1.611   3.358 -0.5171 -0.0944  0.3368
  247MOL0     C33215  10.771   1.700   3.437 -0.7563 -1.1551 -0.6840
  247MOL0     C33216  10.916   1.702   3.431 -0.0333  0.6363 -0.4939
  247MOL0     C33217  10.982   1.606   3.350 -0.8291  0.2275  0.1833
  247MOL0     O33218  11.119   1.600   3.335 -0.4316 -0.3172  0.5298
  247MOL0     C33219  11.203   1.693   3.407  0.3742 -0.0206 -0.9121
  247MOL0     C33220  11.208   1.674   3.561  0.2898 -0.2867  0.1137
  247MOL0     C33221  11.273   1.547   3.602  0.2928  0.5997  0.2097
  247MOL0     C33222  11.280   1.527   3.758  0.6526 -0.2272 -0.6249
  247MOL0     C33223  11.297   1.376   3.799 -0.2468 -0.5210 -0.0046
  247MOL0     C33224  11.405   1.299   3.725  0.4324  0.3557 -0.0421
  247MOL0     C33225  11.398   1.147   3.757  0.2625  0.5783  0.3241
  247MOL0     C33226  11.513   1.066   3.701 -0.5074  0.6167 -0.0365
  247MOL0     N33227  11.534   1.056   3.551  0.6791 -0.4987  0.0115
  247MOL0     C33228  11.436   1.053   3.452 -0.0052 -0.6894  0.0861
  247MOL0     C33229  11.500   1.069   3.331  0.1484 -0.8759 -0.6219
  247MOL0     C33230  11.440   1.091   3.192  0.0061  0.2886  0.1694
  247MOL0     C33231  11.451   0.967   3.100  0.1435 -0.9035  0.8047
  247MOL0     C33232  11.595   0.955   3.052  0.5686  0.3238  0.3925
  247MOL0     C33233  11.628   0.984   2.903 -0.0993 -0.1005 -0.1589
  247MOL0     O33234  11.605   1.127   2.871  0.1707 -0.3807  0.0390
  247MOL0     C33235  11.697   1.219   2.905  0.3170  0.6955 -0.1042
  247MOL0     C33236  11.826   1.188   2.944  0.8532 -0.3425  1.0925
  247MOL0     C33237  11.918   1.286   2.969 -0.2410 -0.1778 -0.0977
  247MOL0     C33238  11.887   1.419   2.973  1.1759  0.3197 -0.0616
  247MOL0     C33239  11.988   1.522   3.021 -0.1926  0.0136  0.7530
  247MOL0     O33240  12.094   1.480   3.086 -0.1834 -0.0312 -0.9331
  247MOL0     C33241  12.203   1.559   3.099  0.0222 -0.0571 -0.6838
  247MOL0     C33242  12.249   1.657   3.006  0.0052  0.2578  0.2503
  247MOL0     C33243  12.367   1.721   3.026  0.1505 -0.6364  0.0193
  247MOL0     C33244  12.442   1.702   3.140 -0.3694  0.5271  0.1184
  247MOL0     O33245  12.560   1.782   3.158  0.6588 -0.0317  0.0831
  247MOL0     C33246  12.633   1.766   3.278 -0.1365  0.0335  0.2979
  247MOL0     C33247  12.758   1.853   3.262  0.4965 -0.1219 -0.0950
  247MOL0     C33248  12.859   1.825   3.381 -1.2228  0.3772 -0.1031
  247MOL0     C33249  12.986   1.910   3.344 -0.3764 -0.5455  0.9385
  247MOL0     C33250  13.098   1.877   3.444  0.7966 -0.0333 -0.0626
  247MOL0     C33251  13.240   1.913   3.388  0.4047 -0.3323 -0.6684
  247MOL0     C33252  13.337   1.886   3.508 -0.9120 -0.9615  0.1416
  247MOL0     C33253  13.479   1.939   3.477 -0.5116  0.2263  0.0387
  247MOL0    Cl33254  13.552   1.856   3.338  0.0400  0.1947  0.1917
  247MOL0     C33255  12.404   1.603   3.230 -0.1523  0.0012 -0.1684
  247MOL0     C33256  12.284   1.536   3.206 -0.1139  0.3439  0.2633
  247MOL0     O33257  11.954   1.637   3.000 -0.2951  0.3460  0.4242
  247MOL0     C33258  11.760   1.452   2.918 -1.0445 -0.0699  0.9417
  247MOL0     C33259  11.666   1.355   2.873  0.0003  0.5016 -0.9159
  247MOL0     N33260  11.637   1.073   3.365 -0.1598 -0.5594  0.6226
  247MOL0     N33261  11.654   1.060   3.490  0.5770 -0.1087 -0.1530
  247MOL0     C33262  10.912   1.511   3.279 -0.3104 -0.3498 -0.0339
  247MOL0     C33263  10.774   1.517   3.274 -1.1413  0.1503 -0.6356
  247MOL0     C33264  10.337   1.699   3.334  0.4174  0.4086 -0.0782
  247MOL0     C33265  10.288   1.559   3.333 -0.3663  0.1738  0.5457
  247MOL0     C33266  10.151   1.532   3.324 -0.5107 -0.2631  0.7481
  247MOL0     C33267  10.059   1.628   3.322 -0.0235 -0.1678 -0.6826
  247MOL0     O33268   9.926   1.575   3.305 -0.8173  0.3503 -0.2998
  247MOL0     C33269   9.811   1.669   3.283 -0.2559 -0.2302 -0.0413
  247MOL0     C33270   9.786   1.745   3.416 -0.7947  0.1555 -0.7582
  247MOL0     C33271   9.730   1.881   3.377 -0.0732 -0.9089  0.0438
  247MOL0     C33272   9.591   1.876   3.310  0.8566 -1.3743  0.9031
  247MOL0     C33273   9.483   1.815   3.390  0.6827  0.3006  0.4648
  247MOL0     C33274   9.393   1.756   3.444 -0.1820  0.1712 -0.1424
  247MOL0     C33275  10.094   1.764   3.339 -0.5896  0.4002  0.4036
  247MOL0     C33276  10.226   1.799   3.340 -0.2493  0.8886 -0.1158
  247MOL0     C33277  10.253   1.950   3.358  0.5488  0.1031  0.0269
  247MOL0     H33278  10.718   1.772   3.498  0.2854 -1.4668  0.6540
  247MOL0     H33279  10.963   1.777   3.493  1.0649  0.7555 -1.4376
  247MOL0     H33280  11.302   1.675   3.364 -0.0121  0.8992 -2.2692
  247MOL0     H33281  11.174   1.794   3.378  1.2948  0.1634 -1.2130
  247MOL0     H33282  11.110   1.675   3.609 -0.0171 -2.9462 -0.2933
  247MOL0     H33283  11.275   1.751   3.599  0.2118 -0.1596 -0.0056
  247MOL0     H33284  11.377   1.555   3.567 -0.5234  3.4806 -2.0171
  247MOL0     H33285  11.227   1.467   3.544  0.7787 -0.0138  0.6631
  247MOL0     H33286  11.351   1.591   3.811 -1.3010  1.1804  0.4162
  247MOL0     H33287  11.189   1.565   3.803  1.2880  1.2791 -0.5472
  247MOL0     H33288  11.317   1.374   3.906 -0.2488 -0.4747 -0.0029
  247MOL0     H33289  11.196   1.336   3.797 -2.1088  3.5721  1.9872
  247MOL0     H33290  11.397   1.315   3.617  0.4469  2.3410  0.2051
  247MOL0     H33291  11.507   1.336   3.741  0.3709  0.8200 -0.6827
  247MOL0     H33292  11.308   1.092   3.729  1.1408 -1.4799  1.2741
  247MOL0     H33293  11.414   1.134   3.865  0.3938  0.0582  0.2475
  247MOL0     H33294  11.605   1.092   3.754 -0.0619 -3.0528  1.2349
  247MOL0     H33295  11.497   0.960   3.722 -3.0932  0.4474 -2.2183
  247MOL0     H33296  11.331   1.034   3.474 -0.2199 -0.7182 -0.9285
  247MOL0     H33297  11.332   1.107   3.203 -0.0204  0.6053 -0.4938
  247MOL0     H33298  11.478   1.183   3.145 -0.1954  0.5205  0.4512
  247MOL0     H33299  11.420   0.871   3.144  1.2380 -1.9126 -0.5298
  247MOL0     H33300  11.387   0.989   3.015 -0.3955 -1.0248  1.1735
  247MOL0     H33301  11.634   0.853   3.061  1.7027  0.6426 -0.5854
  247MOL0     H33302  11.664   1.010   3.117 -0.3890  1.0514  0.8151
  247MOL0     H33303  11.567   0.921   2.838  1.2492  0.0395 -1.6151
  247MOL0     H33304  11.730   0.951   2.884  0.4225  1.6346 -0.5727
  247MOL0     H33305  11.865   1.087   2.956  0.2781 -0.9796 -1.7205
  247MOL0     H33306  12.019   1.256   2.998  1.5152  2.8875 -2.3654
  247MOL0     H33307  12.187   1.683   2.921 -0.3348  0.2947  0.5030
  247MOL0     H33308  12.399   1.797   2.956  0.7408  1.2138  2.1974
  247MOL0     H33309  12.580   1.786   3.372 -2.4222 -0.4663 -0.8339
  247MOL0     H33310  12.664   1.663   3.294  0.1454 -0.0777 -0.8664
  247MOL0     H33311  12.803   1.845   3.163 -1.0011  0.1844 -0.8371
  247MOL0     H33312  12.718   1.955   3.270 -1.8679 -0.9953  0.1377
  247MOL0     H33313  12.815   1.863   3.474 -0.5651 -0.8439  0.7352
  247MOL0     H33314  12.890   1.723   3.404 -1.0960 -0.3684 -3.1772
  247MOL0     H33315  12.971   2.018   3.335  1.5080 -0.2655  0.6378
  247MOL0     H33316  13.013   1.883   3.242 -0.1923 -0.0385  0.8552
  247MOL0     H33317  13.095   1.773   3.476  0.4331  0.8526  3.1174
  247MOL0     H33318  13.078   1.927   3.539  2.0866 -1.5875  1.0667
  247MOL0     H33319  13.277   1.851   3.307  1.9720 -2.1313  1.3046
  247MOL0     H33320  13.252   2.020   3.366 -0.6403 -0.6646 -3.1911
  247MOL0     H33321  13.340   1.779   3.529 -0.2672 -0.8709  0.5461
  247MOL0     H33322  13.294   1.934   3.597 -0.3633 -0.7984  0.3191
  247MOL0     H33323  13.483   2.038   3.432  4.2179  0.5009  0.4907
  247MOL0     H33324  13.538   1.944   3.569 -0.9778  2.3622  0.2760
  247MOL0     H33325  12.452   1.564   3.319 -1.8346 -2.4856 -0.2262
  247MOL0     H33326  12.246   1.465   3.279 -0.1461  0.6597  0.5588
  247MOL0     H33327  11.729   1.555   2.906 -0.6754  0.0788  1.2821
  247MOL0     H33328  11.572   1.378   2.825 -0.8253  0.8764  0.7996
  247MOL0     H33329  10.972   1.432   3.236  1.7174  0.0339  1.9042
  247MOL0     H33330  10.722   1.443   3.213 -0.2721 -0.7348 -0.3332
  247MOL0     H33331  10.356   1.476   3.320  0.2830  0.4528  1.9595
  247MOL0     H33332  10.116   1.432   3.298 -4.1260  1.1033 -0.3004
  247MOL0     H33333   9.732   1.604   3.244 -0.6769  1.1798 -1.6661
  247MOL0     H33334   9.850   1.743   3.213  2.3175 -0.0845  1.4517
  247MOL0     H33335   9.882   1.751   3.469  0.2941 -0.2833 -2.6153
  247MOL0     H33336   9.724   1.688   3.486  2.4302 -1.7544  0.7858
  247MOL0     H33337   9.791   1.933   3.302 -1.5028  1.3421  0.3560
  247MOL0     H33338   9.727   1.937   3.470  1.3746 -3.8334  2.0195
  247MOL0     H33339   9.558   1.980   3.302 -0.6822 -1.4559  4.3273
  247MOL0     H33340   9.596   1.822   3.215  2.0619  0.2328 -0.0035
  247MOL0     H33341   9.315   1.719   3.508 -2.5197  3.0811 -1.0870
  247MOL0     H33342  10.013   1.836   3.349 -0.8496  0.0496  0.8735
  247MOL0     H33343  10.332   1.966   3.432  1.3063 -2.3801 -0.1651
  247MOL0     H33344  10.293   2.000   3.269  0.1480  0.8393  0.2482
  247MOL0     H33345  10.162   2.000   3.393  0.4893 -0.9834  1.4996
  248MOL0     O33346  11.085   8.107   0.415 -0.6072 -0.6412  0.1535
  248MOL0     C33347  11.039   8.007   0.478  0.1236 -0.2302  0.1849
  248MOL0     O33348  11.114   7.913   0.552 -0.4640  0.6169 -0.0720
  248MOL0     C33349  11.244   7.893   0.543  0.2127  0.8875 -0.3785
  248MOL0     C33350  11.283   7.763   0.510 -0.0902  0.6853 -0.1180
  248MOL0     C33351  11.422   7.730   0.506  0.5363 -1.0122 -0.1124
  248MOL0     C33352  11.523   7.829   0.538  0.2318 -0.0144  0.5593
  248MOL0     O33353  11.650   7.795   0.533  0.0936  0.0954  0.2624
  248MOL0     C33354  11.757   7.885   0.570  0.9514 -0.4925 -0.5490
  248MOL0     C33355  11.880   7.808   0.542 -1.4576  0.1922  0.2831
  248MOL0     C33356  12.018   7.864   0.574  0.2089  1.1149 -0.9255
  248MOL0     C33357  12.054   7.979   0.495 -0.3448 -0.5823  0.4894
  248MOL0     C33358  12.197   8.028   0.503 -0.0891  0.5139  0.3184
  248MOL0     C33359  12.307   7.943   0.433  0.1577  0.4108  1.0055
  248MOL0     C33360  12.440   7.993   0.472 -0.0034  0.6476  0.4723
  248MOL0     C33361  12.543   7.944   0.377 -0.6957 -0.1589  0.4396
  248MOL0     N33362  12.678   8.009   0.389  0.0388  0.1871  0.0071
  248MOL0     C33363  12.689   8.142   0.424  0.1714  0.0937  0.8362
  248MOL0     C33364  12.823   8.168   0.412  0.5154  0.2568 -0.2265
  248MOL0     C33365  12.873   8.304   0.447  0.1788 -0.6135 -0.2386
  248MOL0     C33366  13.014   8.301   0.518 -0.0932  1.1414 -0.0799
  248MOL0     C33367  13.133   8.265   0.421 -0.0324  0.0561 -0.1574
  248MOL0     C33368  13.273   8.299   0.482 -0.2843  1.0103  0.5270
  248MOL0     O33369  13.293   8.442   0.518 -0.6048  0.6278  0.0174
  248MOL0     C33370  13.411   8.480   0.569  0.0945 -0.3399 -0.7720
  248MOL0     C33371  13.417   8.618   0.585 -0.2010  0.6073 -0.3420
  248MOL0     C33372  13.540   8.683   0.618 -0.5988  0.1294  0.5436
  248MOL0     C33373  13.655   8.607   0.647  0.4890 -0.4147  0.2262
  248MOL0     C33374  13.777   8.676   0.682 -0.0030 -0.1824  0.0511
  248MOL0     O33375  13.881   8.589   0.695 -0.4991  0.4498 -0.1054
  248MOL0     C33376  14.005   8.620   0.726 -0.1158 -0.2289 -0.3800
  248MOL0     C33377  14.050   8.738   0.786  0.2948  0.1282  0.0825
  248MOL0     C33378  14.188   8.758   0.817  0.1513  0.1403  0.4784
  248MOL0     C33379  14.283   8.660   0.801  0.2945  0.1828 -0.2626
  248MOL0     O33380  14.410   8.687   0.837 -0.3911 -0.3255 -0.1902
  248MOL0     C33381  14.513   8.588   0.838 -0.6784 -0.3863  0.1401
  248MOL0     C33382  14.584   8.561   0.703  0.0413 -0.2880 -0.2463
  248MOL0     C33383  14.627   8.416   0.674  0.2032 -0.3279 -0.7932
  248MOL0     C33384  14.744   8.373   0.753 -0.3731 -0.7553  0.0691
  248MOL0     C33385  14.873   8.470   0.722  0.3818  0.2232 -0.6821
  248MOL0     C33386  14.991   8.413   0.801 -0.3921  0.4085  0.4213
  248MOL0     C33387  15.131   8.455   0.739  0.0186  0.9069 -0.1032
  248MOL0     C33388  15.230   8.499   0.842 -0.6252 -0.6834  0.4348
  248MOL0    Cl33389  15.257   8.385   0.972 -0.0414 -0.5490  0.1276
  248MOL0     C33390  14.236   8.535   0.734  1.2925 -0.7267  0.4125
  248MOL0     C33391  14.103   8.524   0.696  0.4513 -0.8745 -0.5585
  248MOL0     O33392  13.787   8.798   0.681  0.0359  0.1147  0.0044
  248MOL0     C33393  13.644   8.468   0.644 -0.0563 -0.0454 -0.8105
  248MOL0     C33394  13.525   8.411   0.599 -0.0320 -0.1777 -0.3772
  248MOL0     N33395  12.893   8.052   0.385  0.3861 -0.1990 -0.1889
  248MOL0     N33396  12.803   7.961   0.370  0.3046 -0.0080 -0.5757
  248MOL0     C33397  11.480   7.961   0.570 -1.0113  0.4438  0.2041
  248MOL0     C33398  11.340   7.988   0.574 -1.2682 -0.1298 -0.0013
  248MOL0     C33399  10.901   7.967   0.463  0.1597  0.4392 -0.0350
  248MOL0     C33400  10.875   7.830   0.445 -0.1040  0.1635  0.6951
  248MOL0     C33401  10.746   7.789   0.408 -0.3300  0.0526  0.4994
  248MOL0     C33402  10.643   7.878   0.392 -0.0472  0.0589 -0.5862
  248MOL0     O33403  10.520   7.852   0.348 -0.0850  0.2469  0.0984
  248MOL0     C33404  10.466   7.722   0.381 -0.6358 -0.0428 -0.7221
  248MOL0     C33405  10.327   7.729   0.337  0.3361 -0.1756 -0.5874
  248MOL0     C33406  10.257   7.594   0.369  0.3259 -0.0437  0.3000
  248MOL0     C33407  10.243   7.545   0.516  0.7434 -0.0779 -0.7754
  248MOL0     C33408  10.160   7.635   0.599 -0.0688  0.4253  0.5765
  248MOL0     C33409  10.090   7.717   0.656 -1.0587 -0.4696  0.9212
  248MOL0     C33410  10.662   8.012   0.418 -0.1641  0.2865 -0.2085
  248MOL0     C33411  10.789   8.055   0.451  0.5498  0.0131 -0.8429
  248MOL0     C33412  10.802   8.204   0.465 -0.2606 -0.0489  0.5906
  248MOL0     H33413  11.215   7.679   0.498  1.8792 -0.8986 -0.8895
  248MOL0     H33414  11.448   7.631   0.470  2.3540 -0.9087  0.8153
  248MOL0     H33415  11.753   7.976   0.509 -0.1699  1.2143  1.9371
  248MOL0     H33416  11.753   7.910   0.676  0.0705 -0.5145 -0.5765
  248MOL0     H33417  11.875   7.780   0.437 -0.4837 -2.8176  0.9568
  248MOL0     H33418  11.870   7.711   0.591  2.3134 -0.8809 -0.7513
  248MOL0     H33419  12.088   7.781   0.568  1.2965  2.1115 -2.4787
  248MOL0     H33420  12.016   7.899   0.678  0.3696 -0.8287 -0.2262
  248MOL0     H33421  12.037   7.960   0.388  0.3122 -0.6030  0.3832
  248MOL0     H33422  11.997   8.068   0.525  2.4774  1.2427  0.7965
  248MOL0     H33423  12.203   8.126   0.455  2.7443  0.8989  1.2972
  248MOL0     H33424  12.224   8.038   0.609  0.2529  2.8347  0.0758
  248MOL0     H33425  12.299   7.839   0.466  2.3881  0.6770  2.5642
  248MOL0     H33426  12.287   7.949   0.325 -1.3728  0.2488  1.2547
  248MOL0     H33427  12.465   7.967   0.575 -1.2035  0.8123  0.8309
  248MOL0     H33428  12.429   8.102   0.462  2.3180  0.7813 -1.1498
  248MOL0     H33429  12.558   7.836   0.387  0.2745 -0.3796 -2.4705
  248MOL0     H33430  12.513   7.969   0.275 -0.6287 -2.5417 -0.2096
  248MOL0     H33431  12.604   8.204   0.453  0.7827  1.1789  0.3886
  248MOL0     H33432  12.885   8.355   0.351 -2.1620 -2.0032 -1.3658
  248MOL0     H33433  12.801   8.360   0.507  0.8351 -0.5784  0.5265
  248MOL0     H33434  13.029   8.400   0.562  1.4198  0.3487  1.2983
  248MOL0     H33435  13.009   8.230   0.601 -0.3150 -0.2094 -1.2148
  248MOL0     H33436  13.140   8.323   0.328  0.8134 -0.4836 -0.4346
  248MOL0     H33437  13.137   8.161   0.389 -4.6475 -0.5857  0.6354
  248MOL0     H33438  13.348   8.274   0.407  0.9598  2.2553  1.3041
  248MOL0     H33439  13.291   8.249   0.578  1.4676 -4.0240 -2.0768
  248MOL0     H33440  13.320   8.662   0.567 -1.0110 -1.0391 -0.1430
  248MOL0     H33441  13.542   8.791   0.630  3.8070  0.4019 -0.8738
  248MOL0     H33442  13.986   8.817   0.825 -1.4223 -0.8555 -0.6716
  248MOL0     H33443  14.225   8.849   0.863  0.7930  0.0630  0.1375
  248MOL0     H33444  14.593   8.627   0.901  1.7283 -1.1159 -2.2804
  248MOL0     H33445  14.468   8.498   0.882 -2.7550  1.1662  1.3949
  248MOL0     H33446  14.511   8.591   0.627 -2.2076 -0.7642  1.6097
  248MOL0     H33447  14.664   8.635   0.692 -0.3703 -0.0477 -1.9646
  248MOL0     H33448  14.546   8.350   0.706 -0.1132  0.2131 -0.4636
  248MOL0     H33449  14.650   8.411   0.567  1.0898  1.3089 -0.7239
  248MOL0     H33450  14.766   8.266   0.739 -1.2895 -0.9946  0.4133
  248MOL0     H33451  14.717   8.389   0.857  0.9860 -0.4805  0.4018
  248MOL0     H33452  14.858   8.575   0.752  0.3366 -0.5342  2.3201
  248MOL0     H33453  14.893   8.468   0.615  1.1759 -0.2310 -0.5344
  248MOL0     H33454  14.988   8.452   0.903  1.1194  0.4176  0.4937
  248MOL0     H33455  14.977   8.305   0.804 -1.5195  0.4242 -1.9326
  248MOL0     H33456  15.125   8.540   0.669  2.1013 -0.3353 -1.9209
  248MOL0     H33457  15.172   8.372   0.682  0.2562  2.2452 -1.9965
  248MOL0     H33458  15.322   8.520   0.788 -0.6402  2.1643  1.3442
  248MOL0     H33459  15.205   8.589   0.900  0.9057 -0.5249  0.8796
  248MOL0     H33460  14.307   8.458   0.707 -0.1292 -1.0364 -2.8468
  248MOL0     H33461  14.073   8.432   0.647 -1.3098 -1.0751  0.8228
  248MOL0     H33462  13.731   8.408   0.672  0.9642  1.9135  0.4254
  248MOL0     H33463  13.529   8.302   0.605  0.6902 -0.0720  2.2268
  248MOL0     H33464  11.555   8.022   0.620  1.0739 -2.8409  1.4644
  248MOL0     H33465  11.306   8.080   0.620 -0.9020 -1.2974  2.8086
  248MOL0     H33466  10.953   7.755   0.457 -1.4453 -1.2349  0.9417
  248MOL0     H33467  10.733   7.683   0.391  2.3389 -0.3016  0.2628
  248MOL0     H33468  10.454   7.693   0.486 -1.9540 -0.8032 -1.0626
  248MOL0     H33469  10.524   7.642   0.334 -0.8900  0.1243 -1.3303
  248MOL0     H33470  10.326   7.736   0.228 -0.9019  2.0277 -0.4885
  248MOL0     H33471  10.274   7.821   0.362  3.4347  3.0464 -4.5955
  248MOL0     H33472  10.311   7.513   0.319 -3.8902 -2.7163 -0.4447
  248MOL0     H33473  10.158   7.602   0.323  0.9777  1.5957 -0.9423
  248MOL0     H33474  10.201   7.443   0.514 -1.2936  0.6340  1.1510
  248MOL0     H33475  10.340   7.537   0.565  0.6380  0.6610 -0.4435
  248MOL0     H33476  10.046   7.793   0.717 -0.7809  1.6598 -1.3872
  248MOL0     H33477  10.585   8.087   0.402  0.8058  1.2403 -0.5886
  248MOL0     H33478  10.881   8.240   0.399 -0.8657  0.1163 -0.0550
  248MOL0     H33479  10.712   8.256   0.431 -0.8072 -1.2529  0.1199
  248MOL0     H33480  10.830   8.237   0.565 -2.8039  1.8000  0.8034
  249MOL0     O33481   0.910   9.483   0.021 -0.0771  0.4124 -0.4181
  249MOL0     C33482   0.857   9.551   0.106  0.5202 -0.0268  0.4680
  249MOL0     O33483   0.918   9.599   0.228 -0.3663  0.8123  0.1664
  249MOL0     C33484   1.049   9.583   0.257  0.4861 -0.1767  0.2929
  249MOL0     C33485   1.151   9.597   0.162  0.5121 -0.1974  0.0095
  249MOL0     C33486   1.279   9.556   0.205 -0.4682  0.0672  0.1860
  249MOL0     C33487   1.309   9.530   0.343 -0.5185  0.3033  0.1467
  249MOL0     O33488   1.437   9.524   0.394 -0.0619 -0.2819 -0.7614
  249MOL0     C33489   1.545   9.538   0.306  0.8274  0.2450 -0.7138
  249MOL0     C33490   1.673   9.510   0.384 -0.6105  0.0919  0.3826
  249MOL0     C33491   1.792   9.527   0.281  0.2355  0.1350 -0.5628
  249MOL0     C33492   1.923   9.499   0.339  1.5640 -0.2568  0.2465
  249MOL0     C33493   2.029   9.546   0.248  0.1884 -0.5882  0.3540
  249MOL0     C33494   2.170   9.523   0.296 -0.4728  0.3146 -0.1525
  249MOL0     C33495   2.285   9.577   0.206  0.7778 -0.3258  0.0082
  249MOL0     C33496   2.283   9.489   0.075 -0.5303  0.0120  1.1144
  249MOL0     N33497   2.427   9.457   0.043 -0.1706  0.0636  0.4046
  249MOL0     C33498   2.479   9.504  -0.075 -0.5071 -0.1513  0.6437
  249MOL0     C33499   2.610   9.475  -0.064  0.2492  0.7989 -0.4253
  249MOL0     C33500   2.699   9.495  -0.181 -0.7843 -0.8820 -0.2236
  249MOL0     C33501   2.854   9.513  -0.154 -0.0010  0.4285  0.1956
  249MOL0     C33502   2.930   9.407  -0.068  1.1588 -0.2193 -0.0992
  249MOL0     C33503   3.078   9.422  -0.079  1.0646  0.1364  0.5342
  249MOL0     O33504   3.141   9.313   0.000  0.6428  0.3998  0.2012
  249MOL0     C33505   3.278   9.293  -0.016  0.2503  0.5413 -0.1012
  249MOL0     C33506   3.343   9.218   0.079 -0.5042  0.2949 -0.5358
  249MOL0     C33507   3.481   9.196   0.086 -0.2341 -0.4041 -0.0573
  249MOL0     C33508   3.558   9.258  -0.015  0.3659  0.5474  0.4119
  249MOL0     C33509   3.700   9.219  -0.031 -0.0823  0.1282  0.3405
  249MOL0     O33510   3.746   9.141   0.073 -0.2769  0.2879 -0.2443
  249MOL0     C33511   3.874   9.102   0.066 -0.7708 -0.0618 -0.0022
  249MOL0     C33512   3.984   9.196   0.052  0.6382  0.6312  0.0874
  249MOL0     C33513   4.118   9.139   0.059  0.0925  0.9059 -0.6347
  249MOL0     C33514   4.131   8.999   0.074  0.8055  1.1008 -0.3304
  249MOL0     O33515   4.245   8.923   0.070  0.3778 -0.3698  0.7094
  249MOL0     C33516   4.365   8.997   0.063 -0.0993 -1.0924 -0.3683
  249MOL0     C33517   4.469   8.892   0.071 -0.3003 -0.0025 -0.1971
  249MOL0     C33518   4.463   8.820   0.209  0.1846 -0.4027  0.4763
  249MOL0     C33519   4.606   8.757   0.254  0.4608 -0.0145 -1.3187
  249MOL0     C33520   4.664   8.646   0.151  0.0919 -0.4458  0.0961
  249MOL0     C33521   4.821   8.633   0.156 -0.1707  0.0717 -0.3351
  249MOL0     C33522   4.853   8.496   0.111  0.0923  0.0944  0.0990
  249MOL0     C33523   5.006   8.479   0.085  0.2478  0.3270  0.4298
  249MOL0    Cl33524   5.067   8.591  -0.042  0.0563 -0.0496 -0.1659
  249MOL0     C33525   4.018   8.914   0.083 -0.5003 -0.7310 -0.3434
  249MOL0     C33526   3.889   8.962   0.079  0.7406  0.2295  0.2176
  249MOL0     O33527   3.762   9.252  -0.133 -0.1661 -0.1713  0.1651
  249MOL0     C33528   3.497   9.322  -0.123  0.5162 -0.1379 -0.4286
  249MOL0     C33529   3.354   9.342  -0.121  0.3254  0.9357 -0.8763
  249MOL0     N33530   2.630   9.405   0.058 -0.0917  0.2140 -0.0157
  249MOL0     N33531   2.521   9.392   0.118  0.5979  0.1403 -0.4175
  249MOL0     C33532   1.204   9.539   0.430 -0.0528  0.2145 -0.5166
  249MOL0     C33533   1.071   9.542   0.385 -0.8229 -1.0485 -0.0562
  249MOL0     C33534   0.709   9.579   0.089 -0.6561 -0.8439 -0.2134
  249MOL0     C33535   0.666   9.552  -0.040  0.4836 -0.5880 -0.4274
  249MOL0     C33536   0.533   9.567  -0.073  0.1801 -0.6219 -0.3062
  249MOL0     C33537   0.432   9.606   0.021 -0.0921 -0.0017  0.4972
  249MOL0     O33538   0.310   9.640  -0.031  0.2123  0.9491  0.1657
  249MOL0     C33539   0.204   9.668   0.065 -0.4240 -0.3598 -0.2849
  249MOL0     C33540   0.168   9.558   0.167  0.1438 -0.3598  0.2110
  249MOL0     C33541   0.159   9.418   0.107 -0.8756 -0.0855  0.4730
  249MOL0     C33542   0.032   9.407   0.022  0.1721  0.3257  0.7047
  249MOL0     C33543   0.030   9.265  -0.025  0.3638 -0.8200  0.0248
  249MOL0     C33544   0.011   9.155  -0.068  0.4443 -0.3143  0.1902
  249MOL0     C33545   0.485   9.637   0.153  1.5181  0.7634 -0.9796
  249MOL0     C33546   0.615   9.630   0.185 -0.0092 -0.4098  0.3118
  249MOL0     C33547   0.647   9.667   0.327  0.0818 -0.0541 -0.1273
  249MOL0     H33548   1.134   9.619   0.057 -1.7552 -0.9152  0.1627
  249MOL0     H33549   1.360   9.559   0.133 -0.4492  1.7413  0.2231
  249MOL0     H33550   1.537   9.474   0.217  2.0470 -2.6823  1.1321
  249MOL0     H33551   1.550   9.644   0.278  0.0065  0.5745  0.3580
  249MOL0     H33552   1.672   9.407   0.422  2.7786 -0.6366 -1.1802
  249MOL0     H33553   1.691   9.582   0.463  2.5978  0.2304 -0.3337
  249MOL0     H33554   1.772   9.626   0.237 -3.0882 -0.1150  0.1837
  249MOL0     H33555   1.780   9.453   0.202 -0.6281 -0.1525 -0.1690
  249MOL0     H33556   1.930   9.553   0.434 -2.2418 -0.4871  0.8038
  249MOL0     H33557   1.922   9.394   0.368 -2.2343 -0.3198  0.3652
  249MOL0     H33558   2.024   9.493   0.153  2.0268 -0.4684  0.1674
  249MOL0     H33559   2.015   9.651   0.221 -0.8202 -1.1204 -1.3245
  249MOL0     H33560   2.187   9.575   0.391  2.9576  2.8733 -1.9190
  249MOL0     H33561   2.193   9.418   0.311 -0.3263  0.4924  0.9775
  249MOL0     H33562   2.381   9.572   0.259  0.1855  0.4658  1.1869
  249MOL0     H33563   2.271   9.683   0.184  2.1842 -0.5520 -2.2508
  249MOL0     H33564   2.225   9.399   0.096 -1.3130  0.0133 -0.8804
  249MOL0     H33565   2.232   9.543  -0.005  0.0159 -3.2676 -1.6866
  249MOL0     H33566   2.436   9.562  -0.156 -0.0132 -1.5535 -0.6755
  249MOL0     H33567   2.682   9.399  -0.230 -1.0356 -0.8104 -0.2770
  249MOL0     H33568   2.652   9.571  -0.246  0.2167  1.4220  1.5927
  249MOL0     H33569   2.912   9.517  -0.247  2.5428  0.0655  1.6476
  249MOL0     H33570   2.865   9.609  -0.102 -0.8243  1.5247 -1.5669
  249MOL0     H33571   2.912   9.307  -0.108  0.2404  0.0471 -0.3727
  249MOL0     H33572   2.907   9.425   0.038  0.5281  1.4741 -0.4895
  249MOL0     H33573   3.125   9.504  -0.025  2.0086  0.1882 -0.3288
  249MOL0     H33574   3.104   9.425  -0.186  1.9487 -0.8768  0.7047
  249MOL0     H33575   3.286   9.168   0.157  2.3612 -1.0038  0.8467
  249MOL0     H33576   3.516   9.128   0.162 -0.0367 -0.5853 -0.3084
  249MOL0     H33577   3.977   9.303   0.040  1.4991  0.6602 -0.2136
  249MOL0     H33578   4.209   9.199   0.052  1.6533 -1.1476  0.9288
  249MOL0     H33579   4.382   9.050  -0.032  1.4456 -0.0931  0.4311
  249MOL0     H33580   4.373   9.075   0.139 -1.7601 -1.2035 -0.0442
  249MOL0     H33581   4.456   8.817  -0.008  1.0738 -2.8184  2.0466
  249MOL0     H33582   4.570   8.930   0.054  0.0593 -0.5455  0.6025
  249MOL0     H33583   4.417   8.888   0.283 -0.1833  1.4695 -1.3751
  249MOL0     H33584   4.394   8.736   0.200 -0.1232 -0.0349 -0.6790
  249MOL0     H33585   4.590   8.706   0.350 -1.6663 -1.8474 -2.5499
  249MOL0     H33586   4.672   8.840   0.282 -1.8491  1.6028 -0.4271
  249MOL0     H33587   4.627   8.671   0.051 -3.4465 -3.0357  0.5516
  249MOL0     H33588   4.626   8.545   0.172  3.3755 -1.8099  0.0908
  249MOL0     H33589   4.866   8.704   0.087 -1.1942  0.9928 -0.0966
  249MOL0     H33590   4.852   8.654   0.259  1.8935  2.9206 -1.3848
  249MOL0     H33591   4.799   8.475   0.019  1.5193 -3.4928 -0.0673
  249MOL0     H33592   4.817   8.421   0.181 -0.1676 -1.6594 -1.8394
  249MOL0     H33593   5.051   8.502   0.182  1.0896  0.0929  0.0973
  249MOL0     H33594   5.027   8.375   0.060  0.6898  0.6738 -0.6917
  249MOL0     H33595   4.031   8.807   0.096  1.4115 -0.3108  1.7903
  249MOL0     H33596   3.804   8.895   0.094 -0.1976  1.6056  1.2613
  249MOL0     H33597   3.550   9.359  -0.211  1.2436 -5.0446 -2.3584
  249MOL0     H33598   3.312   9.377  -0.214 -0.2980  0.1054 -0.9241
  249MOL0     H33599   1.246   9.533   0.530  1.9920  0.6541 -1.3010
  249MOL0     H33600   0.989   9.528   0.455 -0.9357 -2.1749 -0.3899
  249MOL0     H33601   0.726   9.510  -0.120 -0.3556  0.5036 -1.6758
  249MOL0     H33602   0.506   9.549  -0.177  2.7359 -2.7987 -0.6964
  249MOL0     H33603   0.124   9.682  -0.008  1.4486 -3.0369 -3.0863
  249MOL0     H33604   0.226   9.770   0.099  0.0421 -0.0093 -1.5507
  249MOL0     H33605   0.080   9.585   0.226  0.9839  1.5515  0.6705
  249MOL0     H33606   0.245   9.563   0.245  1.1929 -1.3662 -0.7429
  249MOL0     H33607   0.153   9.340   0.183 -1.3141 -2.4939 -1.8664
  249MOL0     H33608   0.250   9.399   0.049 -1.1527  1.7797 -0.6623
  249MOL0     H33609  -0.050   9.433   0.090 -0.8632  0.2501 -0.4722
  249MOL0     H33610   0.025   9.475  -0.063 -4.5773  1.0582  1.3770
  249MOL0     H33611  -0.003   9.054  -0.103 -1.4968 -0.4351  1.1920
  249MOL0     H33612   0.420   9.668   0.234  2.6366 -1.0191  0.6833
  249MOL0     H33613   0.749   9.708   0.333 -1.4743  4.4763 -1.0004
  249MOL0     H33614   0.582   9.750   0.354  0.5269 -0.1508  1.3388
  249MOL0     H33615   0.641   9.584   0.398 -0.2454  0.2980  0.2602
  250MOL0     O33616   2.549   9.739   1.914 -0.5043 -0.4057 -0.0599
  250MOL0     C33617   2.453   9.816   1.905 -0.6466  0.6888  0.2623
  250MOL0     O33618   2.457   9.946   1.862  0.5217 -0.0487  0.6030
  250MOL0     C33619   2.586   9.998   1.845  0.6532 -0.5304  0.8687
  250MOL0     C33620   2.646  10.028   1.721 -0.2447 -0.1812  0.3263
  250MOL0     C33621   2.767  10.094   1.706 -0.2856 -0.4873  0.2180
  250MOL0     C33622   2.832  10.147   1.816  0.3922  0.4297  0.0689
  250MOL0     O33623   2.937  10.230   1.806 -0.0621  0.2905  0.2433
  250MOL0     C33624   3.048  10.188   1.735 -0.8085 -0.4182  0.1354
  250MOL0     C33625   3.147  10.300   1.740  0.5569  0.5784 -0.5886
  250MOL0     C33626   3.260  10.288   1.642 -0.1055  0.7040 -0.2538
  250MOL0     C33627   3.320  10.146   1.640  0.2798  0.0196  0.6961
  250MOL0     C33628   3.452  10.165   1.558 -0.4694  0.2007  0.5903
  250MOL0     C33629   3.532  10.035   1.565  0.0545 -0.7262  0.6179
  250MOL0     C33630   3.632  10.030   1.447 -0.6753  0.8445  0.2646
  250MOL0     C33631   3.746   9.922   1.452  0.1915  0.1546  0.1920
  250MOL0     N33632   3.829   9.927   1.336 -0.1708  0.9210  0.2769
  250MOL0     C33633   3.944   9.997   1.316 -0.5909  0.9063 -1.1191
  250MOL0     C33634   3.952  10.014   1.189 -0.2488  0.1007 -0.1201
  250MOL0     C33635   4.056  10.086   1.105  0.4146 -0.4226 -0.2481
  250MOL0     C33636   4.202  10.062   1.161 -0.1883 -0.6937 -0.1061
  250MOL0     C33637   4.299  10.148   1.072  0.0034 -0.4302  0.6941
  250MOL0     C33638   4.323  10.102   0.930  0.1256 -0.3874 -0.9620
  250MOL0     O33639   4.370   9.969   0.928  0.4716  0.2701  0.0235
  250MOL0     C33640   4.496   9.925   0.948 -0.9959  0.5510 -0.5572
  250MOL0     C33641   4.522   9.789   0.939  0.6191  0.0706 -0.8217
  250MOL0     C33642   4.653   9.743   0.921  0.8410  0.4451 -0.9389
  250MOL0     C33643   4.757   9.838   0.927  0.3899  0.3358 -0.3655
  250MOL0     C33644   4.896   9.802   0.896  0.1229 -0.5804 -0.4580
  250MOL0     O33645   4.959   9.880   0.799  0.4948  1.0329 -0.0555
  250MOL0     C33646   5.074   9.815   0.746  0.0911 -0.8493  0.1910
  250MOL0     C33647   5.196   9.838   0.797  0.3227 -0.4823 -0.4833
  250MOL0     C33648   5.297   9.757   0.768  0.4968  0.8575 -0.5343
  250MOL0     C33649   5.292   9.672   0.656  0.2550 -1.0888 -0.5696
  250MOL0     O33650   5.390   9.593   0.611 -0.5132 -1.1101  0.4846
  250MOL0     C33651   5.524   9.618   0.663  0.1899  0.6636  0.9216
  250MOL0     C33652   5.579   9.749   0.602  0.7815 -0.2960 -0.1266
  250MOL0     C33653   5.733   9.772   0.617  0.1396 -0.0745 -0.8852
  250MOL0     C33654   5.757   9.923   0.604 -0.1129  0.8652  0.4910
  250MOL0     C33655   5.896   9.943   0.654 -0.0444  0.4917 -0.2366
  250MOL0     C33656   6.006   9.895   0.556  0.7946 -0.0831 -0.4105
  250MOL0     C33657   6.145   9.944   0.610  0.0570 -0.4064 -0.6114
  250MOL0     C33658   6.267   9.884   0.538  0.9605  0.0058  0.0670
  250MOL0    Cl33659   6.423   9.953   0.610 -0.5299  0.6075 -0.6568
  250MOL0     C33660   5.174   9.665   0.588  0.5478 -0.1243 -0.4636
  250MOL0     C33661   5.067   9.731   0.635  0.5128  0.8383 -0.2360
  250MOL0     O33662   4.943   9.704   0.953  0.3693 -0.0272  0.2306
  250MOL0     C33663   4.733   9.969   0.960  0.2533 -0.3246 -0.6811
  250MOL0     C33664   4.601  10.015   0.968  0.0076  0.0278 -1.2109
  250MOL0     N33665   3.857   9.946   1.118 -0.0845  0.3097 -0.3619
  250MOL0     N33666   3.775   9.905   1.209 -0.6658  0.1825 -0.3287
  250MOL0     C33667   2.776  10.120   1.938 -0.4312 -0.3298  0.2065
  250MOL0     C33668   2.656  10.050   1.953 -0.3657 -0.7749  0.4817
  250MOL0     C33669   2.316   9.759   1.919 -0.2013  0.0615 -0.4749
  250MOL0     C33670   2.214   9.816   1.847 -0.2486 -0.9168 -1.0590
  250MOL0     C33671   2.085   9.765   1.856  0.8327 -0.6896 -1.2160
  250MOL0     C33672   2.054   9.657   1.942  0.4522 -0.6151  0.3237
  250MOL0     O33673   1.930   9.602   1.941 -0.7081  0.0513  0.1392
  250MOL0     C33674   1.927   9.463   1.982 -0.0145 -0.0752 -0.2835
  250MOL0     C33675   1.785   9.399   1.956 -0.2778  0.4880 -0.3098
  250MOL0     C33676   1.674   9.430   2.051 -1.2233  0.1774 -0.6770
  250MOL0     C33677   1.547   9.390   1.982  0.6474 -0.6157  0.6528
  250MOL0     C33678   1.444   9.353   2.074  0.6090  0.4611 -0.4165
  250MOL0     C33679   1.360   9.315   2.158  0.1690 -1.1174  0.0395
  250MOL0     C33680   2.160   9.606   2.018 -0.0299  1.0761 -0.1902
  250MOL0     C33681   2.292   9.653   2.012  0.1470 -0.2038  0.2803
  250MOL0     C33682   2.405   9.582   2.093  0.1006 -0.2542 -0.3279
  250MOL0     H33683   2.589   9.993   1.636 -1.3791  0.0364  0.9748
  250MOL0     H33684   2.800  10.125   1.607 -0.6178  3.1073  1.0785
  250MOL0     H33685   3.091  10.097   1.779 -0.8985 -0.0290  1.0569
  250MOL0     H33686   3.018  10.174   1.631 -3.2435  1.5691  0.4832
  250MOL0     H33687   3.195  10.309   1.838  1.7947 -1.8087 -0.8949
  250MOL0     H33688   3.093  10.392   1.720 -0.0350  0.3785  0.0653
  250MOL0     H33689   3.336  10.365   1.655  0.7991 -0.2917  0.6634
  250MOL0     H33690   3.221  10.297   1.540 -0.2795  1.8699 -0.0957
  250MOL0     H33691   3.352  10.100   1.734  3.9312 -2.2360 -1.3914
  250MOL0     H33692   3.238  10.086   1.599 -3.2820  5.4866 -1.1858
  250MOL0     H33693   3.419  10.189   1.457  2.3495 -3.4298 -1.4757
  250MOL0     H33694   3.515  10.245   1.597  0.4553 -0.8706  1.3829
  250MOL0     H33695   3.581  10.035   1.662  2.0108  2.7455 -0.1985
  250MOL0     H33696   3.465   9.949   1.563 -1.5027  0.3904 -2.1903
  250MOL0     H33697   3.685  10.126   1.443  1.3087  0.0848  3.9728
  250MOL0     H33698   3.571  10.017   1.357  0.1240 -0.1393 -0.1469
  250MOL0     H33699   3.823   9.923   1.529  4.1061 -1.9451 -3.3019
  250MOL0     H33700   3.690   9.829   1.467  3.3033 -1.9448 -0.1649
  250MOL0     H33701   4.019  10.028   1.388 -0.0378 -1.4165 -0.6185
  250MOL0     H33702   4.050  10.036   1.008 -0.0873  0.7752 -0.8559
  250MOL0     H33703   4.027  10.192   1.101 -0.3357 -0.5598  1.0009
  250MOL0     H33704   4.222  10.101   1.261 -1.7597 -0.9486  0.3351
  250MOL0     H33705   4.228   9.956   1.169 -1.0154 -0.7463  3.4710
  250MOL0     H33706   4.390  10.146   1.132 -0.1832  0.6074  1.0232
  250MOL0     H33707   4.270  10.253   1.078  1.7283  0.1182  0.1000
  250MOL0     H33708   4.393  10.166   0.875  0.7515 -1.3518 -1.3055
  250MOL0     H33709   4.231  10.103   0.870 -0.3291  0.8729 -0.2780
  250MOL0     H33710   4.437   9.721   0.941  2.3720 -2.5068  4.2006
  250MOL0     H33711   4.681   9.641   0.896  0.1365 -0.1817  0.6669
  250MOL0     H33712   5.212   9.909   0.878  1.4947 -0.2239 -0.9124
  250MOL0     H33713   5.379   9.773   0.837  0.7942 -0.8156 -0.4594
  250MOL0     H33714   5.523   9.621   0.772 -4.3789  1.6765  1.0270
  250MOL0     H33715   5.581   9.531   0.629 -0.0566  0.7423  0.2901
  250MOL0     H33716   5.564   9.754   0.494  1.3966 -0.8185 -0.2457
  250MOL0     H33717   5.524   9.833   0.645 -1.2463 -1.1258 -0.9888
  250MOL0     H33718   5.758   9.746   0.721  1.7939 -1.3445 -1.5553
  250MOL0     H33719   5.792   9.703   0.557  3.3446 -0.2839  2.1743
  250MOL0     H33720   5.691   9.987   0.663  1.1407  2.7474 -0.0589
  250MOL0     H33721   5.747   9.948   0.498 -2.0672 -0.2748  0.3710
  250MOL0     H33722   5.902   9.900   0.754  1.5140 -3.0914 -1.6920
  250MOL0     H33723   5.911  10.049   0.675  1.5257 -0.0412  1.5728
  250MOL0     H33724   5.999   9.786   0.557  0.7618 -0.0858 -0.6764
  250MOL0     H33725   5.984   9.940   0.458  0.4920  2.1401  0.6261
  250MOL0     H33726   6.151   9.919   0.716  1.5170 -1.0737 -0.8297
  250MOL0     H33727   6.141  10.053   0.608 -2.2385 -0.4446 -1.4034
  250MOL0     H33728   6.260   9.775   0.541 -0.7607 -0.0605 -2.8635
  250MOL0     H33729   6.247   9.908   0.433  0.4936  1.7885  0.5182
  250MOL0     H33730   5.166   9.594   0.507  3.0800  0.2533 -1.1113
  250MOL0     H33731   4.965   9.708   0.607 -0.1381  1.5053  1.4342
  250MOL0     H33732   4.813  10.041   0.972 -0.0623 -0.1240  0.3866
  250MOL0     H33733   4.583  10.121   0.973 -0.4687 -0.1123  1.3688
  250MOL0     H33734   2.832  10.162   2.021 -1.9592 -0.0133  1.1116
  250MOL0     H33735   2.620  10.035   2.054  0.1154  1.1724  0.9697
  250MOL0     H33736   2.226   9.910   1.793 -1.2933 -0.3425 -0.3380
  250MOL0     H33737   2.015   9.827   1.799  1.1554  2.7889  1.7996
  250MOL0     H33738   1.944   9.453   2.089 -1.7832 -1.4399 -0.1030
  250MOL0     H33739   1.999   9.397   1.933 -0.0291 -0.2629 -0.0498
  250MOL0     H33740   1.785   9.291   1.943 -1.3441  0.5885 -1.2790
  250MOL0     H33741   1.748   9.427   1.857  0.5777 -0.8972 -1.0436
  250MOL0     H33742   1.681   9.537   2.075  1.3274 -0.6645  3.2417
  250MOL0     H33743   1.681   9.373   2.144 -1.3005 -0.2421 -0.9272
  250MOL0     H33744   1.516   9.477   1.922  1.7534 -0.8265 -0.2666
  250MOL0     H33745   1.568   9.310   1.910 -1.1799  0.0017 -0.6660
  250MOL0     H33746   1.297   9.277   2.236  1.4144 -0.5114  1.3746
  250MOL0     H33747   2.141   9.533   2.096  1.9659  2.3266  1.5609
  250MOL0     H33748   2.476   9.532   2.026 -0.7179 -1.4478 -0.3497
  250MOL0     H33749   2.452   9.654   2.160  0.3724 -3.3000  3.0986
  250MOL0     H33750   2.360   9.505   2.158 -1.2427  1.8601  1.3784
  251MOL0     O33751   8.460   6.019   6.768 -0.1388  0.3394  0.3077
  251MOL0     C33752   8.414   5.929   6.839 -0.3517  0.0183 -0.3295
  251MOL0     O33753   8.487   5.833   6.913 -0.0379 -0.0603  0.1511
  251MOL0     C33754   8.623   5.831   6.905  0.0189 -0.9017 -0.9917
  251MOL0     C33755   8.694   5.798   6.789  0.3811 -0.3440  0.6104
  251MOL0     C33756   8.829   5.802   6.787 -0.0096 -0.5393  0.2987
  251MOL0     C33757   8.902   5.831   6.904  0.3169  1.0253 -0.3205
  251MOL0     O33758   9.035   5.822   6.921 -0.4309 -0.1200  0.3005
  251MOL0     C33759   9.114   5.824   6.802 -0.0659  0.4367 -0.1348
  251MOL0     C33760   9.263   5.832   6.835 -0.4227 -0.3107  0.5600
  251MOL0     C33761   9.360   5.798   6.725  0.0882 -0.0571 -0.5685
  251MOL0     C33762   9.491   5.789   6.803  0.1206 -0.9160  0.0864
  251MOL0     C33763   9.617   5.762   6.719 -0.2764 -1.1925  0.7080
  251MOL0     C33764   9.740   5.768   6.808  0.5845 -0.2781  0.8052
  251MOL0     C33765   9.865   5.743   6.728  0.1224 -0.6191  0.8370
  251MOL0     C33766   9.986   5.760   6.828 -0.0704  0.4364 -0.2283
  251MOL0     N33767  10.110   5.742   6.752 -0.3330 -0.6058 -0.2260
  251MOL0     C33768  10.205   5.838   6.741  0.6823 -0.7020 -0.5814
  251MOL0     C33769  10.315   5.773   6.687  0.2308 -0.8599 -0.2438
  251MOL0     C33770  10.446   5.831   6.649  0.2222  0.1350  0.3489
  251MOL0     C33771  10.559   5.817   6.752  0.6206  0.3188  0.3141
  251MOL0     C33772  10.681   5.914   6.753 -0.2242 -1.2370 -0.3338
  251MOL0     C33773  10.650   6.060   6.789  0.0043 -1.0197 -0.0838
  251MOL0     O33774  10.736   6.114   6.898 -0.6014 -0.2607 -0.1069
  251MOL0     C33775  10.870   6.143   6.874 -0.8571  0.1083 -0.9616
  251MOL0     C33776  10.935   6.217   6.975  0.2124  0.5497  0.4076
  251MOL0     C33777  11.070   6.255   6.965 -0.2148  0.0562 -0.1544
  251MOL0     C33778  11.138   6.223   6.844  0.2028 -0.2492 -0.0858
  251MOL0     C33779  11.286   6.269   6.833  0.4116 -0.8372 -0.4192
  251MOL0     O33780  11.339   6.344   6.935  0.5601 -0.1433 -0.5101
  251MOL0     C33781  11.476   6.377   6.930 -0.8474 -0.6004 -0.4662
  251MOL0     C33782  11.531   6.449   6.824  0.2757  0.4423  1.8523
  251MOL0     C33783  11.667   6.477   6.812  0.3865 -1.0722 -1.5414
  251MOL0     C33784  11.752   6.433   6.915 -0.1157 -0.3478 -0.8985
  251MOL0     O33785  11.884   6.454   6.918 -0.4897  0.0157 -0.7179
  251MOL0     C33786  11.962   6.489   6.800 -0.8141 -0.2898 -0.2075
  251MOL0     C33787  12.100   6.523   6.845 -0.0214 -0.1090 -0.0242
  251MOL0     C33788  12.184   6.401   6.861  0.1202 -0.7865 -0.9299
  251MOL0     C33789  12.318   6.442   6.925  0.8311  0.1626  0.2085
  251MOL0     C33790  12.406   6.319   6.944  0.7814 -0.1067  0.1109
  251MOL0     C33791  12.543   6.346   7.014  0.1120  0.9857 -0.4474
  251MOL0     C33792  12.626   6.447   6.942  0.1511  0.6251 -0.1984
  251MOL0     C33793  12.726   6.394   6.844 -0.9720 -0.0423  0.0519
  251MOL0    Cl33794  12.844   6.294   6.925  0.2450  0.1336  0.2842
  251MOL0     C33795  11.698   6.354   7.018 -0.2137 -0.1251  0.7130
  251MOL0     C33796  11.560   6.320   7.025  0.2188 -0.7427  0.1461
  251MOL0     O33797  11.348   6.230   6.738 -0.1898  0.2724  0.3547
  251MOL0     C33798  11.073   6.144   6.743 -0.4631  0.3217 -0.6909
  251MOL0     C33799  10.943   6.104   6.762 -0.5747  0.4283  0.1920
  251MOL0     N33800  10.284   5.641   6.671 -0.0223 -0.4153  0.4852
  251MOL0     N33801  10.161   5.618   6.710  0.1307  0.2110  0.3113
  251MOL0     C33802   8.830   5.852   7.025 -0.4776  0.1314  0.0973
  251MOL0     C33803   8.691   5.846   7.026  0.0185  0.4381  0.1153
  251MOL0     C33804   8.268   5.891   6.843  0.6591 -0.0680 -0.3480
  251MOL0     C33805   8.236   5.778   6.930  0.8989  0.3231 -0.3039
  251MOL0     C33806   8.103   5.741   6.952  0.3371 -0.0489  0.2500
  251MOL0     C33807   7.996   5.797   6.884  0.5542  0.0673 -0.0424
  251MOL0     O33808   7.868   5.741   6.902  0.1741  0.3796 -0.3473
  251MOL0     C33809   7.749   5.802   6.863  0.5376  0.1105 -0.3541
  251MOL0     C33810   7.631   5.734   6.938 -0.0176  0.0166  0.5495
  251MOL0     C33811   7.611   5.583   6.887 -0.8130 -0.1476 -0.6559
  251MOL0     C33812   7.529   5.508   6.996 -0.6933  0.4043 -0.2070
  251MOL0     C33813   7.471   5.389   6.940  0.6696 -0.0362  0.9048
  251MOL0     C33814   7.417   5.291   6.889 -0.4199 -0.8310 -0.6496
  251MOL0     C33815   8.028   5.910   6.805  0.3526  0.2003  0.5764
  251MOL0     C33816   8.157   5.957   6.784  0.1573 -0.1555  0.4054
  251MOL0     C33817   8.180   6.083   6.707  0.4574 -0.8265 -0.1730
  251MOL0     H33818   8.641   5.779   6.697  1.0692  0.9921 -0.1006
  251MOL0     H33819   8.874   5.776   6.692  0.3812  0.8274  0.0851
  251MOL0     H33820   9.102   5.721   6.766 -0.7111 -0.3850  2.2049
  251MOL0     H33821   9.087   5.894   6.723 -1.8606  0.2788  0.2986
  251MOL0     H33822   9.276   5.765   6.921  2.2560 -0.4348  0.1613
  251MOL0     H33823   9.282   5.936   6.863  1.2331 -0.5905  0.6216
  251MOL0     H33824   9.362   5.885   6.659  0.7930  0.6449  0.3383
  251MOL0     H33825   9.343   5.705   6.670 -0.5512  1.3927 -2.9619
  251MOL0     H33826   9.507   5.884   6.855  0.3291 -1.9579  2.0048
  251MOL0     H33827   9.486   5.713   6.881  1.5448  1.0369  2.2133
  251MOL0     H33828   9.604   5.666   6.668  2.2591 -1.3762  0.3015
  251MOL0     H33829   9.626   5.833   6.637  1.6371 -0.0010  1.8838
  251MOL0     H33830   9.759   5.863   6.858 -0.8025 -0.2650  1.3560
  251MOL0     H33831   9.731   5.689   6.883  2.1395 -0.4583  0.8351
  251MOL0     H33832   9.878   5.823   6.655  0.6069 -1.2444  0.2319
  251MOL0     H33833   9.863   5.639   6.694  1.4169 -1.3405  2.8002
  251MOL0     H33834   9.976   5.860   6.873  0.7003  0.6556 -0.5263
  251MOL0     H33835   9.981   5.676   6.898  1.6933  2.2834  2.3227
  251MOL0     H33836  10.190   5.943   6.762 -0.8339 -0.1318 -3.9008
  251MOL0     H33837  10.479   5.784   6.555 -1.4976  0.3235 -0.3938
  251MOL0     H33838  10.433   5.937   6.626 -2.0375 -0.1698  0.0207
  251MOL0     H33839  10.508   5.818   6.849 -0.5840 -3.9107 -0.0965
  251MOL0     H33840  10.599   5.719   6.724  1.5734  0.3763  1.4088
  251MOL0     H33841  10.740   5.907   6.662  1.5905 -1.6107  0.8237
  251MOL0     H33842  10.747   5.871   6.829 -0.4055 -1.3534 -0.2388
  251MOL0     H33843  10.546   6.072   6.820  0.4113 -1.9610  1.8524
  251MOL0     H33844  10.655   6.125   6.702 -2.0132 -3.3857 -2.1135
  251MOL0     H33845  10.866   6.236   7.056  0.4437 -0.4848  0.8751
  251MOL0     H33846  11.130   6.292   7.047  0.7237 -3.7492  1.0900
  251MOL0     H33847  11.464   6.459   6.739  1.9248 -0.7987  0.3253
  251MOL0     H33848  11.700   6.536   6.727  2.0771 -2.2913 -1.7830
  251MOL0     H33849  11.970   6.399   6.737 -0.8513  0.0340 -0.6774
  251MOL0     H33850  11.916   6.572   6.746  0.9812 -0.3869 -1.9998
  251MOL0     H33851  12.147   6.594   6.776  1.5663  0.6923  1.7736
  251MOL0     H33852  12.107   6.579   6.939  3.2723  2.7801 -1.7288
  251MOL0     H33853  12.143   6.324   6.927  2.6751 -1.1856  0.3441
  251MOL0     H33854  12.217   6.359   6.765  3.0198 -0.4570 -0.1786
  251MOL0     H33855  12.298   6.478   7.026 -2.0034 -0.1500 -0.1504
  251MOL0     H33856  12.365   6.520   6.864  0.4771  1.8665  2.0436
  251MOL0     H33857  12.430   6.293   6.841 -1.8596 -0.6950 -0.4165
  251MOL0     H33858  12.352   6.242   6.999  0.0887 -0.6942 -1.3632
  251MOL0     H33859  12.526   6.376   7.118  1.1684 -1.0002  0.3585
  251MOL0     H33860  12.593   6.250   7.029 -1.1457  0.5994  1.8346
  251MOL0     H33861  12.679   6.494   7.026  0.6289 -0.9572  0.4194
  251MOL0     H33862  12.566   6.525   6.895 -3.1906 -0.9409  1.1907
  251MOL0     H33863  12.674   6.349   6.759 -0.6770 -0.7996  0.2713
  251MOL0     H33864  12.783   6.476   6.798  1.6606 -3.5581 -3.5560
  251MOL0     H33865  11.759   6.319   7.100  0.0777  2.3754  1.6543
  251MOL0     H33866  11.514   6.252   7.097 -3.1847 -1.2272 -2.2488
  251MOL0     H33867  11.127   6.112   6.654 -0.4595  0.1240 -0.6191
  251MOL0     H33868  10.901   6.046   6.680  0.1724 -1.0970  0.8408
  251MOL0     H33869   8.891   5.872   7.113  0.2553 -3.8652  0.6880
  251MOL0     H33870   8.650   5.869   7.124  1.5294 -0.1311  0.9247
  251MOL0     H33871   8.318   5.733   6.984  0.6620  0.3717  0.1027
  251MOL0     H33872   8.077   5.655   7.014 -0.5144 -0.8492 -1.1520
  251MOL0     H33873   7.734   5.793   6.755 -0.7994  1.8196 -0.3570
  251MOL0     H33874   7.745   5.909   6.886  1.1847  0.4098 -1.5423
  251MOL0     H33875   7.546   5.800   6.917  0.5616 -0.1355 -2.8243
  251MOL0     H33876   7.644   5.734   7.047 -2.5651  0.6688  0.9341
  251MOL0     H33877   7.706   5.530   6.874  1.5076  2.9200  2.1304
  251MOL0     H33878   7.551   5.575   6.796 -2.0251 -0.7061  0.1609
  251MOL0     H33879   7.597   5.481   7.078 -2.3916  0.5538  1.3046
  251MOL0     H33880   7.448   5.571   7.034 -0.5253  0.0504  0.7618
  251MOL0     H33881   7.371   5.198   6.862 -0.8727 -1.0858  0.9438
  251MOL0     H33882   7.949   5.964   6.754  0.5376 -0.6105 -0.6197
  251MOL0     H33883   8.097   6.117   6.645  1.1160  1.1214 -0.0638
  251MOL0     H33884   8.195   6.161   6.782 -1.5005 -1.3035  0.7682
  251MOL0     H33885   8.270   6.078   6.644  0.0933 -1.3445 -0.6615
  252MOL0     O33886   9.451   4.399   5.462  0.7523  0.3511 -0.9736
  252MOL0     C33887   9.378   4.364   5.561 -0.2690 -0.5341  0.3691
  252MOL0     O33888   9.383   4.405   5.685  0.3866  0.8334  0.4269
  252MOL0     C33889   9.453   4.512   5.721 -0.1526  0.2710 -0.0731
  252MOL0     C33890   9.381   4.622   5.763 -0.8118  0.7202  1.0303
  252MOL0     C33891   9.443   4.747   5.782 -0.0040 -0.6004 -0.7834
  252MOL0     C33892   9.577   4.764   5.754 -0.9472 -0.0185  0.6832
  252MOL0     O33893   9.645   4.885   5.782  0.1205  0.5505 -0.0643
  252MOL0     C33894   9.762   4.878   5.863 -0.6777  0.0027  0.2362
  252MOL0     C33895   9.810   5.015   5.911 -0.4876 -0.1448  0.7410
  252MOL0     C33896   9.892   4.995   6.039  1.2752 -0.0646 -0.2305
  252MOL0     C33897   9.986   5.107   6.085 -0.3016 -0.1346  0.3927
  252MOL0     C33898  10.128   5.074   6.055  0.2799 -0.1197  0.6275
  252MOL0     C33899  10.227   5.184   6.093  0.2822 -0.4325  0.4071
  252MOL0     C33900  10.365   5.155   6.029  0.2566 -0.0872 -0.0713
  252MOL0     C33901  10.478   5.254   6.072  0.1164 -0.0763 -0.1530
  252MOL0     N33902  10.515   5.237   6.210 -0.2646 -0.4237 -0.0485
  252MOL0     C33903  10.454   5.298   6.311 -0.3419 -0.3731 -0.2216
  252MOL0     C33904  10.510   5.253   6.422  0.2600  0.4352  0.8537
  252MOL0     C33905  10.479   5.303   6.556  0.4558 -0.2823 -0.4383
  252MOL0     C33906  10.609   5.306   6.648 -0.3735  0.1637 -0.6657
  252MOL0     C33907  10.589   5.360   6.786 -0.8507 -0.2525 -0.3572
  252MOL0     C33908  10.717   5.413   6.859 -0.3373  0.2607  0.1212
  252MOL0     O33909  10.781   5.507   6.767 -0.2149  0.6995 -0.4769
  252MOL0     C33910  10.913   5.543   6.808 -1.2676 -0.0731  0.2906
  252MOL0     C33911  10.980   5.484   6.917 -0.3834  0.1709  1.1526
  252MOL0     C33912  11.111   5.532   6.950  0.2501 -0.0747  0.1759
  252MOL0     C33913  11.173   5.634   6.875  0.2744  0.7090  0.5645
  252MOL0     C33914  11.306   5.690   6.913 -0.1610 -0.4590  0.1769
  252MOL0     O33915  11.375   5.757   6.811 -0.0512  0.6410 -1.0285
  252MOL0     C33916  11.495   5.804   6.853  0.1556 -0.0172  0.0701
  252MOL0     C33917  11.611   5.738   6.892 -0.2914 -0.0006  0.5990
  252MOL0     C33918  11.722   5.796   6.940 -0.7143  0.0223  0.8052
  252MOL0     C33919  11.748   5.933   6.924 -0.1927  0.0435  0.0753
  252MOL0     O33920  11.859   6.007   6.969  0.4296 -0.2323  0.0146
  252MOL0     C33921  11.979   5.929   6.961 -1.1970  0.4615 -0.7408
  252MOL0     C33922  12.106   6.013   6.998  0.4287  0.1246 -0.0171
  252MOL0     C33923  12.102   6.096   7.132  0.2633  0.2806 -0.0723
  252MOL0     C33924  12.230   6.061   7.218 -0.5381 -0.3492 -0.2014
  252MOL0     C33925  12.233   6.130   7.355 -0.6453  0.0844  0.0414
  252MOL0     C33926  12.369   6.099   7.424 -0.3601 -0.6198  0.1087
  252MOL0     C33927  12.489   6.192   7.364 -0.2726 -0.3919 -0.0464
  252MOL0     C33928  12.599   6.201   7.476  0.0655  0.0056  0.3951
  252MOL0    Cl33929  12.673   6.045   7.530 -0.2653  0.5351 -0.0438
  252MOL0     C33930  11.634   6.004   6.873 -0.0569  0.3916  0.3477
  252MOL0     C33931  11.511   5.940   6.842  0.6885 -0.0453 -0.2478
  252MOL0     O33932  11.345   5.668   7.023 -0.3766 -0.8511  0.2524
  252MOL0     C33933  11.107   5.695   6.767  0.1519  0.2343  0.1064
  252MOL0     C33934  10.979   5.651   6.739  0.0063 -0.1112 -0.4135
  252MOL0     N33935  10.617   5.172   6.387  0.6311 -0.2659  0.3129
  252MOL0     N33936  10.611   5.159   6.258  0.3848 -0.1773 -0.3432
  252MOL0     C33937   9.652   4.647   5.716  0.5129  0.2627  0.9391
  252MOL0     C33938   9.593   4.524   5.700  0.1301  0.7802 -1.0084
  252MOL0     C33939   9.279   4.257   5.541 -0.4838 -0.5649 -0.6514
  252MOL0     C33940   9.316   4.135   5.588  0.4868  0.3672  0.0499
  252MOL0     C33941   9.230   4.023   5.585  0.0920  0.4147  0.3548
  252MOL0     C33942   9.102   4.044   5.537  0.3300  0.3675 -0.1564
  252MOL0     O33943   9.011   3.940   5.514 -0.6815  0.1197  0.5917
  252MOL0     C33944   9.033   3.813   5.577  0.6314 -0.9195  0.6652
  252MOL0     C33945   8.917   3.727   5.551 -1.5737  0.6525 -0.2756
  252MOL0     C33946   8.789   3.787   5.588  0.0924 -0.6418  0.9631
  252MOL0     C33947   8.736   3.716   5.724 -0.3935 -0.2900 -0.5955
  252MOL0     C33948   8.594   3.738   5.748  1.3236 -0.4676 -0.4763
  252MOL0     C33949   8.476   3.748   5.766  0.1865  1.0521 -0.6046
  252MOL0     C33950   9.058   4.171   5.493 -0.0888 -0.0472  0.6805
  252MOL0     C33951   9.150   4.280   5.487 -0.3957  0.2030  0.3291
  252MOL0     C33952   9.112   4.406   5.428 -0.8202 -1.1057 -0.0938
  252MOL0     H33953   9.273   4.618   5.764 -0.8114 -0.5708 -0.4112
  252MOL0     H33954   9.389   4.837   5.807  0.2897 -1.2753  2.8940
  252MOL0     H33955   9.737   4.814   5.948 -0.5347 -0.8560 -0.3557
  252MOL0     H33956   9.848   4.838   5.809 -1.0695 -2.3872  1.2620
  252MOL0     H33957   9.717   5.072   5.922 -0.3382  0.7744 -1.9556
  252MOL0     H33958   9.868   5.064   5.832 -1.0411 -1.8113 -0.7810
  252MOL0     H33959   9.956   4.906   6.030 -0.0265 -0.8448 -2.5493
  252MOL0     H33960   9.819   4.979   6.120  0.1405  1.1854 -0.9649
  252MOL0     H33961   9.964   5.203   6.037  0.8710 -0.1363 -0.1955
  252MOL0     H33962   9.964   5.126   6.190 -0.4099  0.4881  0.2630
  252MOL0     H33963  10.156   4.987   6.115 -0.9967  0.1549  1.6692
  252MOL0     H33964  10.135   5.041   5.951  0.5848 -2.0470  1.2184
  252MOL0     H33965  10.191   5.283   6.062 -1.5111 -0.8597  0.9600
  252MOL0     H33966  10.232   5.184   6.202  0.3943  0.5240  0.4067
  252MOL0     H33967  10.360   5.148   5.920  4.3787 -4.1244 -0.3595
  252MOL0     H33968  10.387   5.050   6.053  1.0527  0.2437  0.7409
  252MOL0     H33969  10.557   5.240   5.998 -1.2094  1.0335 -1.8678
  252MOL0     H33970  10.433   5.352   6.053 -1.0433 -0.5127  0.2477
  252MOL0     H33971  10.371   5.367   6.300  1.3543  1.7844 -0.4636
  252MOL0     H33972  10.446   5.407   6.542  0.7597 -0.1838 -0.4312
  252MOL0     H33973  10.400   5.242   6.601 -1.2189  2.4356  0.5484
  252MOL0     H33974  10.646   5.205   6.668 -0.8534  0.3765  1.5699
  252MOL0     H33975  10.678   5.365   6.587 -3.9254  1.4485 -3.8419
  252MOL0     H33976  10.541   5.280   6.843  0.9539 -2.0726 -1.2696
  252MOL0     H33977  10.518   5.442   6.775  2.1562  2.7219  0.7022
  252MOL0     H33978  10.777   5.322   6.870 -0.6278  0.2275  1.5272
  252MOL0     H33979  10.673   5.454   6.950 -0.6468  1.7751 -0.6622
  252MOL0     H33980  10.951   5.398   6.976  1.6444 -0.7791  0.8569
  252MOL0     H33981  11.163   5.487   7.034 -0.5799 -1.7579 -0.1585
  252MOL0     H33982  11.595   5.632   6.906  1.2031 -0.2580  0.5056
  252MOL0     H33983  11.800   5.727   6.972  0.4977 -1.3238 -4.1141
  252MOL0     H33984  11.979   5.847   7.033 -0.5681 -1.7033 -3.0516
  252MOL0     H33985  11.990   5.879   6.864 -0.3016  0.3361 -0.5842
  252MOL0     H33986  12.189   5.941   6.996  0.9570  0.7059  0.4256
  252MOL0     H33987  12.127   6.079   6.914 -0.7827 -0.4593 -0.8018
  252MOL0     H33988  12.102   6.204   7.115  0.9599  0.2932 -0.0325
  252MOL0     H33989  12.016   6.060   7.188  2.5501  0.4362  3.9189
  252MOL0     H33990  12.321   6.100   7.172  0.4912 -0.6714  1.4343
  252MOL0     H33991  12.235   5.956   7.249  1.6889 -0.6131 -1.2659
  252MOL0     H33992  12.158   6.085   7.420 -0.6995  2.8825  2.0991
  252MOL0     H33993  12.207   6.235   7.337 -1.3273 -0.2716 -1.2041
  252MOL0     H33994  12.358   6.120   7.531 -0.5988 -0.4369  0.0497
  252MOL0     H33995  12.386   5.991   7.413  2.6007 -0.3758  1.4076
  252MOL0     H33996  12.451   6.293   7.346 -3.5862 -1.2861  1.2149
  252MOL0     H33997  12.533   6.149   7.273 -0.0228  0.7353 -0.4738
  252MOL0     H33998  12.680   6.257   7.428 -0.0866  0.1752  0.3375
  252MOL0     H33999  12.572   6.261   7.563  2.4366 -1.0054  1.9565
  252MOL0     H34000  11.645   6.112   6.864 -1.3706  0.5399  0.3628
  252MOL0     H34001  11.424   5.998   6.813  0.2682  0.4049  1.7681
  252MOL0     H34002  11.162   5.757   6.696  1.0686 -0.5610  0.0956
  252MOL0     H34003  10.933   5.697   6.653 -3.0416 -2.8360 -0.4355
  252MOL0     H34004   9.760   4.649   5.717  0.5518 -1.0395  1.3061
  252MOL0     H34005   9.653   4.441   5.663 -2.1991 -1.1832 -0.6324
  252MOL0     H34006   9.408   4.105   5.638 -0.1643 -0.9294  0.5232
  252MOL0     H34007   9.254   3.928   5.632 -2.6768  0.5900  2.3824
  252MOL0     H34008   9.054   3.814   5.684  2.5505  1.8588  0.3798
  252MOL0     H34009   9.121   3.766   5.531 -1.0167 -0.9543 -2.8171
  252MOL0     H34010   8.936   3.627   5.593 -0.6215  1.3658  1.0659
  252MOL0     H34011   8.902   3.699   5.446  0.6906  0.9549 -0.7320
  252MOL0     H34012   8.718   3.760   5.510  2.4655 -1.4829 -1.0084
  252MOL0     H34013   8.799   3.896   5.592  0.4047 -0.3852 -3.2039
  252MOL0     H34014   8.752   3.611   5.696  0.1104  0.1557 -2.1039
  252MOL0     H34015   8.792   3.734   5.816 -1.7795 -1.2904  0.4847
  252MOL0     H34016   8.369   3.750   5.773  0.1847 -1.3403  1.2224
  252MOL0     H34017   8.958   4.186   5.451  0.4812  1.7189 -0.1602
  252MOL0     H34018   9.192   4.471   5.391 -1.1751  0.9559  2.5109
  252MOL0     H34019   9.042   4.392   5.345 -1.8451 -2.0587  0.8959
  252MOL0     H34020   9.059   4.459   5.507 -0.2001  0.2258 -0.5296
  253MOL0     O34021   8.113   7.620   6.341  0.3482  0.3029  0.3798
  253MOL0     C34022   8.052   7.695   6.418 -0.2420 -0.5031  0.5426
  253MOL0     O34023   8.053   7.826   6.417 -1.0770  0.1323  0.4832
  253MOL0     C34024   8.096   7.887   6.302 -0.4063  0.3092 -0.8187
  253MOL0     C34025   8.030   7.886   6.186  0.5127  0.0983  0.5135
  253MOL0     C34026   8.081   7.948   6.066  0.0277 -0.2719 -0.6750
  253MOL0     C34027   8.179   8.045   6.079  0.1534 -0.2801 -0.3388
  253MOL0     O34028   8.238   8.109   5.969 -0.6471  0.3355 -0.0045
  253MOL0     C34029   8.162   8.111   5.852 -0.3222 -0.2788 -0.9012
  253MOL0     C34030   8.225   8.217   5.757 -0.3360  0.1488  0.1859
  253MOL0     C34031   8.197   8.362   5.787 -0.3116  0.3330  0.1743
  253MOL0     C34032   8.280   8.456   5.695  0.7006 -0.6967  1.0567
  253MOL0     C34033   8.427   8.440   5.708 -0.2528 -0.2507 -0.1052
  253MOL0     C34034   8.489   8.584   5.674 -0.8188  0.3822  0.4002
  253MOL0     C34035   8.633   8.554   5.625 -0.6715  0.3173 -0.4951
  253MOL0     C34036   8.725   8.528   5.745  0.2698 -0.5680  0.5937
  253MOL0     N34037   8.866   8.531   5.702 -0.1225  0.1630  0.3818
  253MOL0     C34038   8.938   8.643   5.656  0.9057 -0.6385 -0.7717
  253MOL0     C34039   9.056   8.598   5.611 -1.0479  0.4169 -0.0742
  253MOL0     C34040   9.178   8.685   5.576  0.3795 -0.2561  0.2789
  253MOL0     C34041   9.259   8.641   5.455  0.4246 -1.1875 -0.4461
  253MOL0     C34042   9.371   8.744   5.439  0.6295  0.1355 -1.1479
  253MOL0     C34043   9.448   8.696   5.318 -1.4708 -0.8171  0.7486
  253MOL0     O34044   9.571   8.772   5.300  0.1152  0.3215  0.2343
  253MOL0     C34045   9.664   8.728   5.213 -0.3553  0.4337  0.4862
  253MOL0     C34046   9.772   8.818   5.196 -0.3103 -0.0814 -0.3542
  253MOL0     C34047   9.883   8.785   5.114  1.2308  0.0072  0.4115
  253MOL0     C34048   9.888   8.664   5.046 -0.4227  0.7734 -0.0920
  253MOL0     C34049  10.010   8.633   4.982 -0.0018  0.6355  1.1505
  253MOL0     O34050  10.116   8.710   5.000 -0.1175  0.0038 -0.1096
  253MOL0     C34051  10.222   8.680   4.917  0.1741 -0.3413 -0.1503
  253MOL0     C34052  10.220   8.671   4.776 -0.1933  0.4587  0.0668
  253MOL0     C34053  10.335   8.635   4.704 -0.0187 -0.3936  0.2116
  253MOL0     C34054  10.463   8.634   4.769  0.7697  0.2215  0.6465
  253MOL0     O34055  10.582   8.616   4.708 -0.2248  0.2094 -0.0344
  253MOL0     C34056  10.594   8.592   4.569  0.8809  0.7398 -0.1082
  253MOL0     C34057  10.730   8.591   4.499 -0.2131  0.0905  0.8111
  253MOL0     C34058  10.839   8.554   4.602  0.4451 -0.0363  0.9577
  253MOL0     C34059  10.958   8.495   4.526 -1.2500  0.2538  0.5559
  253MOL0     C34060  11.080   8.487   4.611 -0.7404 -0.3331 -0.8546
  253MOL0     C34061  11.190   8.402   4.546 -0.5533  0.4225  0.2881
  253MOL0     C34062  11.236   8.457   4.406  0.2755 -0.0153 -0.5693
  253MOL0     C34063  11.386   8.431   4.390  0.2538  0.6150 -0.4201
  253MOL0    Cl34064  11.428   8.265   4.360  0.0266  0.3133 -0.1942
  253MOL0     C34065  10.461   8.650   4.912 -0.7495  0.2215  0.3062
  253MOL0     C34066  10.343   8.667   4.986  1.1281  0.2643  0.6242
  253MOL0     O34067  10.007   8.533   4.914  0.2571 -0.8729  0.3048
  253MOL0     C34068   9.781   8.570   5.063 -0.0584  0.1760 -0.1878
  253MOL0     C34069   9.674   8.601   5.138 -0.1398  0.4197 -0.5934
  253MOL0     N34070   9.061   8.463   5.626  0.1591 -0.9250  0.1890
  253MOL0     N34071   8.949   8.423   5.683 -1.0275  0.2651  0.3068
  253MOL0     C34072   8.235   8.067   6.203  0.9418 -0.0432  0.3707
  253MOL0     C34073   8.190   7.991   6.316 -0.2506 -0.4371  0.2923
  253MOL0     C34074   7.995   7.632   6.534 -0.0320  0.0396  0.1499
  253MOL0     C34075   8.028   7.679   6.663 -0.6154 -0.2719  1.2729
  253MOL0     C34076   7.971   7.630   6.777 -0.5127 -0.4389 -1.0470
  253MOL0     C34077   7.876   7.528   6.773 -0.4606  1.2034  0.6310
  253MOL0     O34078   7.812   7.485   6.884  0.2408  0.0548 -0.3311
  253MOL0     C34079   7.804   7.349   6.900  0.1516  0.8745 -0.3836
  253MOL0     C34080   7.659   7.324   6.912  0.3658  0.5971 -0.1530
  253MOL0     C34081   7.624   7.210   7.011  1.5052 -0.0359  0.3370
  253MOL0     C34082   7.648   7.255   7.160 -1.1750  0.5676  1.2787
  253MOL0     C34083   7.563   7.188   7.253  0.2396  0.0861 -0.1185
  253MOL0     C34084   7.481   7.146   7.333 -0.3941  0.7044  0.5889
  253MOL0     C34085   7.829   7.487   6.644 -0.4717  0.3742  0.4377
  253MOL0     C34086   7.889   7.543   6.524  0.2712 -0.3989  0.4333
  253MOL0     C34087   7.830   7.497   6.398 -0.1983  0.2790  0.3866
  253MOL0     H34088   7.945   7.818   6.178  0.6383  0.1288 -1.7306
  253MOL0     H34089   8.035   7.932   5.969 -0.9000 -1.3868 -0.0740
  253MOL0     H34090   8.163   8.013   5.803  0.5340 -0.9209  0.3630
  253MOL0     H34091   8.059   8.140   5.877 -1.6212 -4.5470 -0.4585
  253MOL0     H34092   8.173   8.202   5.662  0.1078  1.3678 -0.2678
  253MOL0     H34093   8.332   8.208   5.739  0.6277  2.6105  3.7706
  253MOL0     H34094   8.227   8.389   5.889  1.2109  1.0998 -0.4438
  253MOL0     H34095   8.090   8.385   5.781 -0.5124  0.5045  2.9209
  253MOL0     H34096   8.247   8.443   5.592  0.4497  0.8461  0.9211
  253MOL0     H34097   8.256   8.560   5.717 -0.1696 -0.4916 -0.7138
  253MOL0     H34098   8.452   8.414   5.811  1.9234 -0.0197 -0.5340
  253MOL0     H34099   8.474   8.365   5.644  0.4561  2.0111 -2.4480
  253MOL0     H34100   8.433   8.648   5.606 -4.6804 -3.8712 -0.9430
  253MOL0     H34101   8.497   8.634   5.771  0.3195  0.4271  0.2979
  253MOL0     H34102   8.679   8.640   5.576  1.6764 -2.1692 -3.0494
  253MOL0     H34103   8.639   8.469   5.557 -2.8506 -0.3151  0.0230
  253MOL0     H34104   8.717   8.603   5.823 -2.5274 -0.4708  0.3129
  253MOL0     H34105   8.701   8.438   5.802 -1.6965  0.5856  1.6837
  253MOL0     H34106   8.901   8.745   5.666 -3.5137 -2.1365  0.2493
  253MOL0     H34107   9.146   8.788   5.558 -0.8814 -0.4862  1.0733
  253MOL0     H34108   9.232   8.686   5.671  0.1297 -2.1015  0.4813
  253MOL0     H34109   9.298   8.541   5.476  3.6014 -0.2359 -1.2934
  253MOL0     H34110   9.192   8.642   5.368 -2.5501 -1.1876  1.7192
  253MOL0     H34111   9.433   8.748   5.529  0.2614 -1.1596 -0.8168
  253MOL0     H34112   9.331   8.843   5.417 -0.8114 -0.1009  0.2143
  253MOL0     H34113   9.393   8.714   5.225  3.7283  0.3009 -2.5689
  253MOL0     H34114   9.476   8.591   5.329 -1.4595 -0.8595  0.3443
  253MOL0     H34115   9.765   8.910   5.254  3.1266 -0.1772  0.4102
  253MOL0     H34116   9.957   8.865   5.117 -0.8654  2.0014  1.6861
  253MOL0     H34117  10.124   8.680   4.727 -0.8626  0.9479  1.4023
  253MOL0     H34118  10.319   8.613   4.599 -2.5594  0.6277  0.3181
  253MOL0     H34119  10.549   8.495   4.546  1.6655  0.7390 -1.8075
  253MOL0     H34120  10.535   8.670   4.521  0.7260  1.4247  1.1643
  253MOL0     H34121  10.725   8.519   4.417 -1.6578  1.6106 -0.5121
  253MOL0     H34122  10.760   8.687   4.457  0.5769  0.6458  2.5495
  253MOL0     H34123  10.876   8.642   4.655  3.1648 -0.0846 -0.6494
  253MOL0     H34124  10.795   8.484   4.673 -1.0615 -1.1833 -0.9853
  253MOL0     H34125  10.978   8.562   4.442  0.7426  1.2994  1.7929
  253MOL0     H34126  10.931   8.393   4.496  0.4782 -1.0314  2.9996
  253MOL0     H34127  11.064   8.445   4.710  0.5890  2.3112  0.6217
  253MOL0     H34128  11.121   8.587   4.630 -0.9088 -0.9425  3.9715
  253MOL0     H34129  11.273   8.392   4.615  0.0590 -1.3979 -0.6567
  253MOL0     H34130  11.159   8.298   4.534  2.0898 -0.1699 -2.6957
  253MOL0     H34131  11.215   8.564   4.415  0.2162 -0.1942  1.8852
  253MOL0     H34132  11.177   8.414   4.325  1.4731  2.7655 -3.1236
  253MOL0     H34133  11.425   8.485   4.303  0.7078 -1.4252 -1.5643
  253MOL0     H34134  11.433   8.467   4.481 -0.9835 -0.2867  0.6097
  253MOL0     H34135  10.559   8.644   4.960 -0.5324 -1.2986 -0.2440
  253MOL0     H34136  10.331   8.669   5.094  0.9390  1.7384  0.6046
  253MOL0     H34137   9.787   8.468   5.027 -3.7622 -0.3676  0.3260
  253MOL0     H34138   9.609   8.515   5.155  0.9099 -0.7586 -2.1883
  253MOL0     H34139   8.315   8.138   6.218  2.5490 -1.6325 -0.3834
  253MOL0     H34140   8.236   8.002   6.414  1.8620  3.9182 -0.9153
  253MOL0     H34141   8.110   7.749   6.676  0.3705 -0.6159 -2.1474
  253MOL0     H34142   8.011   7.678   6.866 -1.2660  1.8118 -1.8573
  253MOL0     H34143   7.859   7.316   6.988 -1.3232  1.6071  0.8537
  253MOL0     H34144   7.856   7.285   6.827  1.4214 -0.0404  1.2480
  253MOL0     H34145   7.625   7.296   6.812  1.3905 -0.0919 -0.3277
  253MOL0     H34146   7.606   7.414   6.945 -0.3294 -0.1722  0.8954
  253MOL0     H34147   7.677   7.118   6.987 -0.9590 -1.2623 -0.7388
  253MOL0     H34148   7.516   7.192   7.005  1.1268  2.1660 -1.0048
  253MOL0     H34149   7.749   7.234   7.198  0.1430  3.8126 -0.0695
  253MOL0     H34150   7.638   7.363   7.175 -0.5902  0.9119 -0.5620
  253MOL0     H34151   7.408   7.116   7.406 -0.3812  1.5555  0.9570
  253MOL0     H34152   7.749   7.416   6.625  0.6210 -0.6871 -0.3654
  253MOL0     H34153   7.735   7.446   6.411 -0.0814  0.0865  0.4891
  253MOL0     H34154   7.820   7.583   6.330 -0.3536 -1.3462 -1.7530
  253MOL0     H34155   7.895   7.431   6.340  2.5790  1.8194  1.5418
  254MOL0     O34156  10.594   4.375  10.107  0.8290  0.4471 -0.0211
  254MOL0     C34157  10.536   4.372   9.999  0.7925 -0.0033  0.6007
  254MOL0     O34158  10.585   4.305   9.886 -0.2993  0.9396  0.1879
  254MOL0     C34159  10.708   4.257   9.889  0.3043 -0.1018 -0.0344
  254MOL0     C34160  10.821   4.326   9.914 -0.7149 -0.1213 -0.4519
  254MOL0     C34161  10.943   4.270   9.913 -0.1667 -0.0949  0.5674
  254MOL0     C34162  10.963   4.133   9.879 -0.6042 -0.6079  0.9372
  254MOL0     O34163  11.081   4.058   9.865  0.3928  0.1486  0.4598
  254MOL0     C34164  11.197   4.114   9.927  0.0059  0.1423 -0.1399
  254MOL0     C34165  11.269   4.009  10.007  0.1129  0.1531  0.0334
  254MOL0     C34166  11.338   3.907   9.917  0.0232  0.4240  0.3635
  254MOL0     C34167  11.404   3.799  10.017  1.6478 -0.4537 -0.7733
  254MOL0     C34168  11.527   3.743   9.962 -0.2270 -0.0984  0.2465
  254MOL0     C34169  11.501   3.647   9.851  0.0377 -0.0570 -0.5887
  254MOL0     C34170  11.631   3.577   9.804  0.0899  0.2001 -0.1364
  254MOL0     C34171  11.719   3.666   9.709 -0.8432 -0.6950 -0.7216
  254MOL0     N34172  11.807   3.573   9.634  0.9264  0.3439  0.1172
  254MOL0     C34173  11.885   3.476   9.694 -0.2312  0.1724  0.1497
  254MOL0     C34174  11.968   3.425   9.602  0.7948  0.6716 -0.6853
  254MOL0     C34175  12.077   3.325   9.626 -0.1544  0.1021  0.0662
  254MOL0     C34176  12.065   3.199   9.549  0.2296 -0.5378  0.0630
  254MOL0     C34177  12.175   3.194   9.440  0.0927 -1.0515  0.3193
  254MOL0     C34178  12.177   3.056   9.381 -0.3014  0.5094 -0.3659
  254MOL0     O34179  12.247   3.055   9.253 -0.1590  0.2039  0.3045
  254MOL0     C34180  12.372   3.110   9.244  0.5226  0.8694 -0.2898
  254MOL0     C34181  12.403   3.228   9.182  0.0362  0.7762 -0.4805
  254MOL0     C34182  12.536   3.276   9.180 -0.1602  0.2889  0.5702
  254MOL0     C34183  12.635   3.202   9.240 -0.4792 -0.7058  0.1377
  254MOL0     C34184  12.773   3.242   9.226  0.8507  0.1861  0.0017
  254MOL0     O34185  12.873   3.144   9.236 -0.0305 -0.0330 -0.0440
  254MOL0     C34186  12.991   3.196   9.198 -0.3932  0.1355 -0.1417
  254MOL0     C34187  13.081   3.222   9.297 -0.2526 -0.6238 -0.1254
  254MOL0     C34188  13.202   3.277   9.261 -0.1384 -0.2552 -0.7670
  254MOL0     C34189  13.240   3.292   9.129  0.2597  0.2035  0.3565
  254MOL0     O34190  13.358   3.348   9.095 -0.0608  0.0111  0.2410
  254MOL0     C34191  13.489   3.289   9.134 -0.0612 -0.1529 -0.0680
  254MOL0     C34192  13.601   3.370   9.077  0.3124 -0.4098  0.7423
  254MOL0     C34193  13.735   3.368   9.151 -0.0429  0.0392 -0.6570
  254MOL0     C34194  13.782   3.508   9.183  0.2059  0.4545 -0.7108
  254MOL0     C34195  13.924   3.512   9.254 -0.4980 -0.9336  0.2214
  254MOL0     C34196  13.931   3.474   9.404 -0.3179  0.6573 -0.0667
  254MOL0     C34197  14.070   3.500   9.457 -1.5302 -0.1738 -1.0318
  254MOL0     C34198  14.186   3.519   9.356  0.2197 -1.0529 -0.3855
  254MOL0    Cl34199  14.328   3.577   9.447  0.0737  0.2767  0.5573
  254MOL0     C34200  13.151   3.233   9.034 -0.6719  0.3754 -0.5605
  254MOL0     C34201  13.027   3.186   9.066  0.2376  0.0292  0.1984
  254MOL0     O34202  12.791   3.362   9.209  0.0009  0.1962 -0.1590
  254MOL0     C34203  12.606   3.078   9.290 -0.0088 -0.7385 -0.2544
  254MOL0     C34204  12.481   3.031   9.300  0.1399 -0.8717  0.0309
  254MOL0     N34205  11.931   3.487   9.482 -0.0825 -0.2617 -0.1784
  254MOL0     N34206  11.836   3.569   9.505  0.2961 -0.3953  0.4393
  254MOL0     C34207  10.847   4.069   9.836 -0.1028 -0.0429  0.0854
  254MOL0     C34208  10.720   4.129   9.844  0.0953  0.1572  0.2984
  254MOL0     C34209  10.399   4.438   9.990 -0.2367  0.8247 -0.1519
  254MOL0     C34210  10.342   4.503  10.098  0.7916  0.5357 -0.8080
  254MOL0     C34211  10.215   4.555  10.105 -0.2167  0.2514  0.2301
  254MOL0     C34212  10.135   4.554   9.991 -0.2518 -0.4937 -0.6504
  254MOL0     O34213  10.008   4.608   9.988 -1.0343  0.0660 -0.0129
  254MOL0     C34214   9.913   4.570  10.095  0.2950  0.3731 -0.0698
  254MOL0     C34215   9.824   4.458  10.048  0.1245  0.6963  0.2356
  254MOL0     C34216   9.775   4.381  10.171 -0.1665  0.0385 -0.2155
  254MOL0     C34217   9.671   4.270  10.144 -0.5220 -0.1840 -0.4310
  254MOL0     C34218   9.668   4.181  10.263 -1.2818  0.7740 -0.0437
  254MOL0     C34219   9.701   4.118  10.365  0.0095  0.1246  0.2582
  254MOL0     C34220  10.195   4.497   9.875  0.3623 -0.2944 -0.2881
  254MOL0     C34221  10.320   4.430   9.866  0.1143 -0.3418 -0.0142
  254MOL0     C34222  10.363   4.372   9.726  0.3185  0.0581 -0.5789
  254MOL0     H34223  10.812   4.423   9.963 -2.0905 -1.1195  1.4081
  254MOL0     H34224  11.025   4.330   9.951 -0.9886 -0.2358  2.7526
  254MOL0     H34225  11.265   4.153   9.851  1.0851 -0.1394  0.6494
  254MOL0     H34226  11.169   4.192   9.999 -2.0483  0.7722 -1.5381
  254MOL0     H34227  11.195   3.980  10.082 -2.6591  2.5189 -1.5574
  254MOL0     H34228  11.339   4.063  10.070  0.1492 -1.5417  1.5337
  254MOL0     H34229  11.426   3.950   9.868  1.2340  0.3319  2.3596
  254MOL0     H34230  11.273   3.865   9.840  0.7797 -1.4435  0.6860
  254MOL0     H34231  11.422   3.855  10.109  0.7183 -0.9005 -0.3067
  254MOL0     H34232  11.332   3.724  10.050  1.4224  0.9374  2.1845
  254MOL0     H34233  11.596   3.819   9.925  2.8530 -1.4113  2.8009
  254MOL0     H34234  11.562   3.685  10.048 -1.1719  0.9228  1.3641
  254MOL0     H34235  11.437   3.567   9.888  3.5194 -2.8475 -0.0105
  254MOL0     H34236  11.457   3.688   9.759  1.5479 -3.1025 -2.8577
  254MOL0     H34237  11.593   3.500   9.736 -0.8207  1.0641 -0.6340
  254MOL0     H34238  11.683   3.528   9.886  0.4085 -0.3705 -0.6641
  254MOL0     H34239  11.654   3.726   9.645 -0.8311 -0.6966 -0.7358
  254MOL0     H34240  11.779   3.739   9.765 -0.1250 -1.5442 -0.3653
  254MOL0     H34241  11.898   3.446   9.797 -0.4606 -0.0644  0.1098
  254MOL0     H34242  12.170   3.378   9.604  1.4379 -2.4979  0.1045
  254MOL0     H34243  12.078   3.296   9.731 -2.0427  0.9191  0.3381
  254MOL0     H34244  12.061   3.111   9.614 -0.0327 -0.7991 -0.3059
  254MOL0     H34245  11.969   3.207   9.499 -0.8746  2.7029  2.3608
  254MOL0     H34246  12.271   3.209   9.489  0.0498 -2.4250  0.8549
  254MOL0     H34247  12.160   3.269   9.361 -1.5041 -0.8727  0.7526
  254MOL0     H34248  12.074   3.029   9.357 -0.0652  0.6633 -1.6249
  254MOL0     H34249  12.218   2.976   9.443  0.5526  1.2823  0.0821
  254MOL0     H34250  12.322   3.281   9.132 -0.6634 -0.9878 -1.3109
  254MOL0     H34251  12.550   3.371   9.130 -2.7846 -0.7831 -2.5893
  254MOL0     H34252  13.055   3.216   9.402  1.3675 -1.9940  0.2461
  254MOL0     H34253  13.265   3.308   9.343 -0.4753  0.9523 -0.9569
  254MOL0     H34254  13.490   3.288   9.244  0.6598  0.0377 -0.0666
  254MOL0     H34255  13.507   3.186   9.102  0.2551 -0.9979  2.5633
  254MOL0     H34256  13.629   3.337   8.977 -1.7068 -0.8358  0.2647
  254MOL0     H34257  13.565   3.473   9.066 -1.6844 -1.3083 -2.3608
  254MOL0     H34258  13.713   3.319   9.246  0.9869 -4.1383 -2.3809
  254MOL0     H34259  13.813   3.306   9.107  2.5639  0.1744  3.2582
  254MOL0     H34260  13.713   3.559   9.250  0.1028  1.7517 -1.7424
  254MOL0     H34261  13.803   3.563   9.090  0.8886 -1.4362 -1.7329
  254MOL0     H34262  13.963   3.613   9.242  0.4789 -1.3389 -0.0902
  254MOL0     H34263  13.989   3.445   9.197 -1.5683 -0.8076 -1.1851
  254MOL0     H34264  13.857   3.536   9.454 -1.9418 -0.3697 -1.0658
  254MOL0     H34265  13.916   3.366   9.421  2.4904  0.4821  1.9092
  254MOL0     H34266  14.097   3.417   9.523 -1.2504 -0.0656 -1.0104
  254MOL0     H34267  14.060   3.592   9.515 -2.3430 -0.4348 -0.7376
  254MOL0     H34268  14.206   3.422   9.309  0.3333 -0.7918 -0.8789
  254MOL0     H34269  14.154   3.591   9.280 -1.3911 -1.4244 -0.0955
  254MOL0     H34270  13.192   3.217   8.934  1.8512  0.6319  0.3633
  254MOL0     H34271  12.966   3.133   8.993 -0.7585  0.1749  0.9165
  254MOL0     H34272  12.694   3.029   9.331  1.0706  0.1876 -1.4027
  254MOL0     H34273  12.464   2.933   9.342  0.0208 -1.1983 -0.7658
  254MOL0     H34274  10.841   3.967   9.801 -2.9025  0.0553  0.0364
  254MOL0     H34275  10.634   4.069   9.817 -0.5635  1.2080  0.0067
  254MOL0     H34276  10.399   4.512  10.191  0.7132 -1.4280 -0.5440
  254MOL0     H34277  10.184   4.604  10.197  0.1807  1.2168 -0.1424
  254MOL0     H34278   9.854   4.658  10.123 -0.9432  0.6065 -3.0614
  254MOL0     H34279   9.972   4.537  10.182  0.1317 -0.2999 -0.2101
  254MOL0     H34280   9.886   4.394   9.985  2.0152  1.7264  0.9721
  254MOL0     H34281   9.741   4.487   9.982  1.0016 -1.2221 -1.8263
  254MOL0     H34282   9.727   4.444  10.247  0.3917  2.2498 -1.5894
  254MOL0     H34283   9.868   4.349  10.219 -0.5363  2.0255  2.0064
  254MOL0     H34284   9.575   4.321  10.135 -0.3720  0.0998 -0.4555
  254MOL0     H34285   9.699   4.216  10.054 -0.0414 -0.8011  0.0809
  254MOL0     H34286   9.723   4.067  10.457  0.9811  1.0754  0.5760
  254MOL0     H34287  10.136   4.505   9.784  2.0250 -0.8500 -1.4665
  254MOL0     H34288  10.273   4.371   9.664 -0.2117 -0.7468  0.1748
  254MOL0     H34289  10.449   4.428   9.686 -0.7642  1.9600 -0.3831
  254MOL0     H34290  10.395   4.268   9.739 -0.2343 -0.1934 -1.1606
  255MOL0     O34291   9.285   8.604   2.146  0.6768  0.0947 -1.2358
  255MOL0     C34292   9.214   8.583   2.050  0.6019 -0.8541 -0.8393
  255MOL0     O34293   9.242   8.499   1.948  0.5322  0.0473  0.1409
  255MOL0     C34294   9.363   8.454   1.912 -0.6642  0.2055  0.3073
  255MOL0     C34295   9.463   8.537   1.907 -0.1698 -0.0690  0.0983
  255MOL0     C34296   9.587   8.499   1.838 -0.4638  0.4411 -1.1957
  255MOL0     C34297   9.606   8.367   1.806 -0.0378 -0.1930  0.7419
  255MOL0     O34298   9.734   8.318   1.764  0.8929 -0.1494  0.1172
  255MOL0     C34299   9.841   8.405   1.723 -0.3705  0.6473 -0.1571
  255MOL0     C34300   9.950   8.339   1.655  0.7124  1.2576 -0.3953
  255MOL0     C34301   9.916   8.339   1.509  0.4939 -0.4383  0.6535
  255MOL0     C34302  10.024   8.264   1.433 -0.4730  0.0940  0.4143
  255MOL0     C34303   9.985   8.231   1.283 -0.2266 -0.0499  0.7851
  255MOL0     C34304   9.972   8.348   1.185  0.3103  0.2104 -0.9891
  255MOL0     C34305  10.112   8.409   1.159 -0.0751  0.0254  0.1404
  255MOL0     C34306  10.107   8.500   1.036  0.0238 -0.5900 -0.5399
  255MOL0     N34307  10.246   8.546   1.014 -0.0910  0.6891  0.1733
  255MOL0     C34308  10.336   8.510   0.916 -0.3237  0.0003  0.9530
  255MOL0     C34309  10.441   8.587   0.938 -0.6601  0.2104  0.7607
  255MOL0     C34310  10.561   8.581   0.843 -0.0369  0.9445 -0.2824
  255MOL0     C34311  10.680   8.509   0.913 -0.4606 -0.4038  0.8880
  255MOL0     C34312  10.799   8.487   0.822  0.1391 -0.6911 -0.0269
  255MOL0     C34313  10.931   8.467   0.894 -0.1066  0.1961 -0.3824
  255MOL0     O34314  11.032   8.482   0.795  0.1495 -0.0974 -0.0628
  255MOL0     C34315  11.158   8.459   0.833  0.5688  0.3967 -0.2493
  255MOL0     C34316  11.232   8.371   0.757 -0.4388 -1.3356 -0.8900
  255MOL0     C34317  11.373   8.356   0.775 -0.3260 -0.0238 -0.5345
  255MOL0     C34318  11.441   8.421   0.883  0.9777 -0.5770 -0.4092
  255MOL0     C34319  11.580   8.392   0.916  0.3214 -0.3602  0.1947
  255MOL0     O34320  11.620   8.268   0.875 -0.4117 -1.0061  0.6819
  255MOL0     C34321  11.737   8.225   0.925 -0.1302 -0.8826  0.0498
  255MOL0     C34322  11.856   8.274   0.881 -0.1449  0.3816  0.0311
  255MOL0     C34323  11.982   8.212   0.914  1.0222  0.1870 -0.8208
  255MOL0     C34324  11.978   8.109   1.007 -0.6044  1.2958  0.2931
  255MOL0     O34325  12.095   8.041   1.028 -0.0029  0.0588  0.2200
  255MOL0     C34326  12.191   8.125   1.101 -0.3197  0.8441  0.4742
  255MOL0     C34327  12.325   8.054   1.097 -0.5634  0.3183 -0.5540
  255MOL0     C34328  12.426   8.129   1.195 -0.0571  0.2366  0.3039
  255MOL0     C34329  12.567   8.071   1.205 -0.4654  0.0796  0.4704
  255MOL0     C34330  12.578   7.915   1.228 -0.0435 -0.6664 -0.6176
  255MOL0     C34331  12.727   7.864   1.257  0.2125 -0.0814  0.0268
  255MOL0     C34332  12.792   7.944   1.378  0.5494  0.9703  0.3474
  255MOL0     C34333  12.925   7.879   1.409 -0.1659 -0.0625 -0.9326
  255MOL0    Cl34334  12.995   7.979   1.535  0.2690 -0.0199  0.4561
  255MOL0     C34335  11.855   8.076   1.069 -0.1421 -0.0309 -0.3447
  255MOL0     C34336  11.736   8.131   1.023  0.7638 -0.1128  0.8906
  255MOL0     O34337  11.636   8.470   0.984 -0.2293  0.3148 -0.3798
  255MOL0     C34338  11.358   8.507   0.963 -0.2185  0.4030 -0.3556
  255MOL0     C34339  11.219   8.529   0.937  0.1178  0.5897  0.2096
  255MOL0     N34340  10.418   8.676   1.042  0.0672  0.2519  0.4138
  255MOL0     N34341  10.298   8.650   1.076  0.1709 -0.0868 -0.8810
  255MOL0     C34342   9.498   8.285   1.816 -0.0474  0.7028 -0.4452
  255MOL0     C34343   9.369   8.321   1.858 -1.0682 -0.2236  0.5557
  255MOL0     C34344   9.083   8.655   2.027  0.3186  0.3455  0.4607
  255MOL0     C34345   8.985   8.583   1.962  0.9457  0.5425  0.6206
  255MOL0     C34346   8.863   8.638   1.913  0.0992  0.8990 -0.4709
  255MOL0     C34347   8.840   8.770   1.941  0.0484  0.1384  0.9522
  255MOL0     O34348   8.721   8.853   1.923  0.7384 -0.2047 -0.1964
  255MOL0     C34349   8.623   8.809   1.826  0.0412  0.8338  0.5432
  255MOL0     C34350   8.552   8.926   1.770  0.5141  0.3220 -0.3970
  255MOL0     C34351   8.493   8.897   1.624 -0.0029  0.2399 -0.3628
  255MOL0     C34352   8.448   9.025   1.552 -0.1960  0.6312  0.5834
  255MOL0     C34353   8.386   9.000   1.418 -0.3802 -0.0819 -0.3731
  255MOL0     C34354   8.335   8.992   1.309 -0.1990  0.0103  0.7097
  255MOL0     C34355   8.949   8.847   1.985  0.0945  0.4871 -0.0490
  255MOL0     C34356   9.067   8.788   2.036  0.6016 -0.0453  0.8946
  255MOL0     C34357   9.183   8.889   2.077  0.7619  0.5751  0.9865
  255MOL0     H34358   9.447   8.640   1.936  0.8397  0.1501 -0.0732
  255MOL0     H34359   9.661   8.578   1.828 -0.4842  1.4707  4.0101
  255MOL0     H34360   9.798   8.473   1.649 -0.2716  0.8377 -0.0397
  255MOL0     H34361   9.870   8.465   1.810 -0.4792  2.0254 -1.0361
  255MOL0     H34362   9.972   8.245   1.707  0.4271  1.1559 -0.4582
  255MOL0     H34363  10.041   8.396   1.678  0.3077  0.8999  2.4284
  255MOL0     H34364   9.917   8.442   1.471 -4.1356  0.0040  1.1485
  255MOL0     H34365   9.823   8.288   1.485  0.2487  0.0168  0.6313
  255MOL0     H34366  10.115   8.324   1.439 -1.3893  1.4697  0.9222
  255MOL0     H34367  10.046   8.170   1.484 -0.1588  1.5847  3.2060
  255MOL0     H34368  10.057   8.161   1.240 -4.1129 -2.3471 -2.7435
  255MOL0     H34369   9.891   8.177   1.296  1.9879 -3.7463  3.4167
  255MOL0     H34370   9.933   8.294   1.099 -0.0548 -2.3395  0.6474
  255MOL0     H34371   9.890   8.414   1.216 -0.4114 -0.4031 -1.5327
  255MOL0     H34372  10.183   8.327   1.145 -1.4871 -1.1755 -0.1328
  255MOL0     H34373  10.134   8.479   1.241 -2.8030  4.1281 -2.2564
  255MOL0     H34374  10.077   8.432   0.957  0.0063 -1.9546  0.6088
  255MOL0     H34375  10.032   8.578   1.052  2.6560  1.6841  1.8618
  255MOL0     H34376  10.327   8.419   0.858 -1.3485  1.0945 -0.6931
  255MOL0     H34377  10.535   8.516   0.759 -1.3206  0.0187  0.7835
  255MOL0     H34378  10.595   8.678   0.806  1.3781 -0.0388 -1.7153
  255MOL0     H34379  10.705   8.565   1.004  1.2540  1.5336 -0.6633
  255MOL0     H34380  10.658   8.407   0.945  2.2617 -1.5916 -0.6019
  255MOL0     H34381  10.806   8.576   0.757 -0.0065 -0.2902  0.5013
  255MOL0     H34382  10.774   8.408   0.750 -3.5956  0.4096 -0.1264
  255MOL0     H34383  10.936   8.373   0.950 -0.3912  1.2819  1.5381
  255MOL0     H34384  10.937   8.547   0.967 -1.6038  0.2722 -0.3214
  255MOL0     H34385  11.185   8.312   0.678  0.1938  0.5493 -2.7659
  255MOL0     H34386  11.419   8.295   0.698 -2.1192  1.7637 -3.2164
  255MOL0     H34387  11.854   8.338   0.794 -1.5510  0.6949  0.2740
  255MOL0     H34388  12.079   8.246   0.880  3.5501 -2.7486  2.6901
  255MOL0     H34389  12.206   8.224   1.057 -0.1552 -0.2663 -2.1569
  255MOL0     H34390  12.152   8.141   1.201 -1.1849  0.5402  0.1930
  255MOL0     H34391  12.306   7.953   1.135 -0.5849  0.1058 -1.1101
  255MOL0     H34392  12.358   8.041   0.993  0.6471 -0.6825 -0.0678
  255MOL0     H34393  12.423   8.234   1.164  0.7829  0.2936  0.4022
  255MOL0     H34394  12.373   8.112   1.289 -0.1836 -1.8550 -0.1154
  255MOL0     H34395  12.615   8.126   1.286  1.5066 -0.7343 -0.0992
  255MOL0     H34396  12.620   8.098   1.114  0.1992  1.1927  1.1612
  255MOL0     H34397  12.528   7.858   1.149  1.2289  1.1324 -2.8429
  255MOL0     H34398  12.524   7.900   1.322  1.4779 -2.4819  0.0411
  255MOL0     H34399  12.731   7.756   1.273 -0.7120 -0.1202  0.0678
  255MOL0     H34400  12.789   7.897   1.172 -0.7589  0.8350 -0.3597
  255MOL0     H34401  12.727   7.942   1.466 -1.5230 -1.6395 -1.0760
  255MOL0     H34402  12.808   8.048   1.350 -2.2008  1.1861 -0.7727
  255MOL0     H34403  12.906   7.781   1.455 -0.8905 -0.1957 -1.5007
  255MOL0     H34404  12.988   7.861   1.321  1.8923 -4.2133  1.0859
  255MOL0     H34405  11.846   8.004   1.150 -0.2307 -1.6670 -1.7312
  255MOL0     H34406  11.642   8.088   1.056  0.0393  0.0049 -0.8892
  255MOL0     H34407  11.402   8.557   1.048 -0.8972  1.5400 -0.6605
  255MOL0     H34408  11.161   8.600   0.994 -2.7468 -1.1135 -0.3466
  255MOL0     H34409   9.508   8.180   1.790 -1.6072  0.8379 -1.7672
  255MOL0     H34410   9.291   8.245   1.853 -0.2760 -1.0004 -0.4204
  255MOL0     H34411   8.999   8.477   1.944 -0.6766  0.2449  0.9492
  255MOL0     H34412   8.790   8.568   1.874  1.1689 -2.9999  3.6209
  255MOL0     H34413   8.554   8.736   1.869  1.1664 -0.9398 -0.5295
  255MOL0     H34414   8.679   8.766   1.743  2.3907  1.9644  1.4499
  255MOL0     H34415   8.629   9.003   1.755 -1.9639  2.4546 -3.4298
  255MOL0     H34416   8.475   8.970   1.833 -0.8633 -2.4865 -0.0042
  255MOL0     H34417   8.401   8.837   1.634 -1.3498  2.1841 -0.6300
  255MOL0     H34418   8.558   8.849   1.551 -1.8414  0.3814 -2.1769
  255MOL0     H34419   8.367   9.066   1.613 -1.1017 -0.4943  0.1743
  255MOL0     H34420   8.538   9.087   1.546 -0.5286  0.9701 -2.3497
  255MOL0     H34421   8.287   8.998   1.213 -2.0903 -1.2421  1.5155
  255MOL0     H34422   8.942   8.955   1.995 -2.2536  0.1938  3.6438
  255MOL0     H34423   9.254   8.860   1.999 -0.2441  1.2942 -0.2476
  255MOL0     H34424   9.153   8.992   2.058 -1.4189 -0.5186 -2.6712
  255MOL0     H34425   9.216   8.871   2.179  3.5028 -0.4684 -0.0023
  256MOL0     O34426   2.938   4.991   8.087  0.3236  0.2444  0.6217
  256MOL0     C34427   2.829   4.960   8.128  0.8511  0.4847  0.0083
  256MOL0     O34428   2.816   4.887   8.247  0.0158 -0.7639 -0.7479
  256MOL0     C34429   2.918   4.868   8.336 -0.7173  0.2971 -0.8735
  256MOL0     C34430   2.911   4.745   8.399  0.2173  0.3925 -0.2166
  256MOL0     C34431   3.008   4.705   8.497  0.6480 -0.1953 -0.1152
  256MOL0     C34432   3.113   4.795   8.522  0.6652 -0.1692  0.0134
  256MOL0     O34433   3.204   4.757   8.614  0.1351 -0.4748 -0.0445
  256MOL0     C34434   3.328   4.713   8.563 -0.5539  0.5414  0.3662
  256MOL0     C34435   3.453   4.778   8.622 -0.0636  0.5425  0.4756
  256MOL0     C34436   3.585   4.691   8.624  0.3775  0.0346 -0.0170
  256MOL0     C34437   3.698   4.744   8.709  0.8251 -0.1998 -0.1563
  256MOL0     C34438   3.811   4.636   8.727 -0.1628  0.6993  0.4228
  256MOL0     C34439   3.953   4.695   8.695  0.4364 -0.7331  0.5946
  256MOL0     C34440   3.968   4.706   8.537 -0.0363 -0.5370 -0.9564
  256MOL0     C34441   3.975   4.854   8.492 -0.1631  0.3149  0.1945
  256MOL0     N34442   4.107   4.902   8.518  0.7504 -0.4810  0.9667
  256MOL0     C34443   4.197   4.878   8.414  0.3318 -0.7370  0.6516
  256MOL0     C34444   4.307   4.934   8.464 -0.7144 -0.1931 -0.2343
  256MOL0     C34445   4.437   4.934   8.389  0.6795  0.0241 -0.2659
  256MOL0     C34446   4.547   5.011   8.449  0.6632 -0.4691 -0.1142
  256MOL0     C34447   4.646   5.055   8.332  0.3156 -0.0141 -0.2482
  256MOL0     C34448   4.723   4.938   8.271 -0.1536  0.0512  0.6382
  256MOL0     O34449   4.799   4.865   8.367 -0.5829 -0.2571 -1.0735
  256MOL0     C34450   4.930   4.874   8.339  0.7157 -0.0624 -0.3866
  256MOL0     C34451   4.994   4.764   8.278  0.4913  0.1796 -0.2142
  256MOL0     C34452   5.129   4.759   8.273  0.0596 -0.3103  0.4657
  256MOL0     C34453   5.205   4.861   8.332  0.2270  0.4265 -0.0879
  256MOL0     C34454   5.349   4.830   8.347 -0.1694  0.2176  0.1585
  256MOL0     O34455   5.420   4.939   8.370 -0.7039 -0.2009 -0.3586
  256MOL0     C34456   5.553   4.943   8.349  0.0933 -0.1981 -0.7315
  256MOL0     C34457   5.633   4.858   8.275 -0.5022  0.1490  0.7941
  256MOL0     C34458   5.772   4.861   8.274 -0.5044 -0.8832 -0.8042
  256MOL0     C34459   5.832   4.952   8.363 -0.4385  0.8697 -1.0098
  256MOL0     O34460   5.968   4.936   8.362  0.1323 -0.5457 -0.1742
  256MOL0     C34461   6.053   4.991   8.463 -0.5055 -0.4087 -0.3423
  256MOL0     C34462   6.193   4.933   8.450  0.7258 -0.1603 -0.8563
  256MOL0     C34463   6.186   4.780   8.449 -0.4741  0.5525 -0.8702
  256MOL0     C34464   6.325   4.711   8.423 -0.0512  1.1536  0.8656
  256MOL0     C34465   6.362   4.704   8.275 -0.5126  0.6006 -0.1255
  256MOL0     C34466   6.509   4.715   8.228  0.5273 -0.2513 -0.0896
  256MOL0     C34467   6.504   4.706   8.074  0.4436  0.2301 -0.0967
  256MOL0     C34468   6.617   4.784   8.002  0.4328  1.1089 -0.0937
  256MOL0    Cl34469   6.769   4.683   8.003 -0.0067  0.1758  0.4085
  256MOL0     C34470   5.755   5.046   8.437  0.1022  1.1544 -0.5369
  256MOL0     C34471   5.611   5.042   8.432 -0.7014 -0.8324  0.1078
  256MOL0     O34472   5.388   4.715   8.346 -0.7661 -0.0217 -0.4929
  256MOL0     C34473   5.142   4.975   8.387  0.4106 -0.4000  1.0029
  256MOL0     C34474   5.004   4.985   8.381  0.8976 -0.3545 -0.2523
  256MOL0     N34475   4.279   4.994   8.588  0.1734  0.2701  0.5120
  256MOL0     N34476   4.159   4.966   8.624 -0.0873  0.5164  0.4089
  256MOL0     C34477   3.111   4.926   8.466 -0.0701 -0.3890  0.4937
  256MOL0     C34478   3.014   4.968   8.377  0.2966  0.8306 -0.3658
  256MOL0     C34479   2.705   4.992   8.046 -0.0623  0.7991  0.4323
  256MOL0     C34480   2.586   4.932   8.099 -0.1125 -0.0112  0.5166
  256MOL0     C34481   2.464   4.959   8.027  0.7475 -0.8298 -0.0524
  256MOL0     C34482   2.454   5.039   7.914  0.4329  0.2660  0.3738
  256MOL0     O34483   2.334   5.070   7.863 -0.1053  0.8898 -0.1030
  256MOL0     C34484   2.241   5.136   7.947 -0.3750  0.2426  0.0945
  256MOL0     C34485   2.127   5.034   7.970 -0.9815 -0.6376  0.8180
  256MOL0     C34486   2.035   5.010   7.843  0.8484 -0.3413  0.0493
  256MOL0     C34487   1.940   5.131   7.831  0.1901 -0.0535  0.0885
  256MOL0     C34488   1.818   5.135   7.918 -0.1589 -0.0908 -0.0880
  256MOL0     C34489   1.729   5.116   7.999  0.4244  1.3779  1.0244
  256MOL0     C34490   2.574   5.100   7.868 -0.1073 -0.1027 -0.1293
  256MOL0     C34491   2.701   5.068   7.925  0.6135  0.1046  0.4827
  256MOL0     C34492   2.818   5.134   7.858 -0.3494  0.1285 -0.6942
  256MOL0     H34493   2.837   4.674   8.365  0.6350  0.3820 -1.1122
  256MOL0     H34494   3.007   4.613   8.555  1.7713 -0.8036 -1.0343
  256MOL0     H34495   3.329   4.608   8.594  1.7401  0.7467  1.2120
  256MOL0     H34496   3.334   4.731   8.455 -1.7183  1.2678  0.4055
  256MOL0     H34497   3.413   4.781   8.723 -1.0508  0.5913  0.0904
  256MOL0     H34498   3.468   4.882   8.591 -4.1885  1.8267  2.0781
  256MOL0     H34499   3.624   4.663   8.525 -0.4055 -3.8728  0.6146
  256MOL0     H34500   3.566   4.588   8.656  2.1529 -0.6215 -0.8838
  256MOL0     H34501   3.739   4.836   8.666  1.2839 -0.3531 -0.0512
  256MOL0     H34502   3.660   4.767   8.809  2.0539  2.7771 -0.2576
  256MOL0     H34503   3.810   4.607   8.832 -0.4788  1.4834  0.6431
  256MOL0     H34504   3.785   4.549   8.667  0.3749 -0.7105  2.1520
  256MOL0     H34505   3.980   4.782   8.756  0.4749 -1.6629  1.9310
  256MOL0     H34506   4.034   4.623   8.709  0.8031 -1.2089 -2.9398
  256MOL0     H34507   3.870   4.669   8.504  0.6786 -3.8513  0.2804
  256MOL0     H34508   4.049   4.646   8.494 -0.7870 -0.5799 -2.3891
  256MOL0     H34509   3.943   4.862   8.388 -2.7268  3.8916  1.0518
  256MOL0     H34510   3.905   4.908   8.557  0.4199 -1.6661  2.6222
  256MOL0     H34511   4.186   4.832   8.316  3.5740 -1.6318  0.6242
  256MOL0     H34512   4.462   4.829   8.370 -1.9856 -1.2589  2.5237
  256MOL0     H34513   4.417   4.969   8.287 -3.0017 -1.0334 -0.0399
  256MOL0     H34514   4.511   5.108   8.484  0.1983  0.5558 -3.1621
  256MOL0     H34515   4.594   4.948   8.525  2.1420 -0.1604 -0.7441
  256MOL0     H34516   4.725   5.122   8.369  1.1289  0.1947 -2.2321
  256MOL0     H34517   4.595   5.113   8.254  0.6579  0.7468  0.0836
  256MOL0     H34518   4.785   4.972   8.188  3.2598 -1.5432  2.3434
  256MOL0     H34519   4.652   4.866   8.230  0.4337 -1.1978  1.7450
  256MOL0     H34520   4.941   4.673   8.255  3.1893 -1.5084 -0.2106
  256MOL0     H34521   5.176   4.668   8.237 -0.7333 -0.5058 -0.1069
  256MOL0     H34522   5.591   4.776   8.217  1.3550 -1.1064  1.1415
  256MOL0     H34523   5.839   4.791   8.226 -0.1983 -1.8201  0.8924
  256MOL0     H34524   6.039   5.099   8.468  0.0405 -0.4021  2.8081
  256MOL0     H34525   6.008   4.965   8.559  1.8724  0.0249  0.9527
  256MOL0     H34526   6.243   4.978   8.364  1.9409  1.3872  0.5873
  256MOL0     H34527   6.256   4.958   8.536  2.5424 -1.1581 -1.8343
  256MOL0     H34528   6.162   4.762   8.554 -1.6460  0.9657 -1.0501
  256MOL0     H34529   6.106   4.728   8.395 -0.5551  1.9340 -2.1514
  256MOL0     H34530   6.333   4.607   8.458 -0.8405  0.0869 -1.8861
  256MOL0     H34531   6.407   4.768   8.467 -1.2956  1.3704  3.0670
  256MOL0     H34532   6.298   4.783   8.233 -1.9689 -0.9553 -0.9527
  256MOL0     H34533   6.306   4.624   8.226 -1.4187  2.7166 -2.8516
  256MOL0     H34534   6.561   4.805   8.262  0.4723 -0.3801  0.3400
  256MOL0     H34535   6.572   4.633   8.265  2.1107  1.3740  1.0414
  256MOL0     H34536   6.406   4.740   8.039  0.0323 -1.6351 -0.8595
  256MOL0     H34537   6.513   4.601   8.046  0.6160  0.4559 -0.8947
  256MOL0     H34538   6.587   4.807   7.899 -0.6960 -2.5206 -0.6915
  256MOL0     H34539   6.634   4.876   8.060 -0.6773  2.5400 -1.9019
  256MOL0     H34540   5.809   5.105   8.510  0.4331 -0.7219  0.8174
  256MOL0     H34541   5.552   5.115   8.485  0.0438  0.0447 -0.2337
  256MOL0     H34542   5.193   5.052   8.444  1.7482 -2.0088  2.0656
  256MOL0     H34543   4.954   5.071   8.426  0.6689  0.3817 -1.8509
  256MOL0     H34544   3.183   5.002   8.495 -0.0968  1.2528 -3.1487
  256MOL0     H34545   2.991   5.068   8.342  0.7836  0.1808 -2.7212
  256MOL0     H34546   2.575   4.867   8.185 -0.0250 -1.1746 -0.3203
  256MOL0     H34547   2.368   4.923   8.065 -0.1228  2.6841  1.4377
  256MOL0     H34548   2.208   5.229   7.899  4.5088  2.7542  0.9501
  256MOL0     H34549   2.294   5.160   8.040  0.1263  0.9924 -0.3755
  256MOL0     H34550   2.066   5.066   8.055 -0.6954  1.0652  0.4118
  256MOL0     H34551   2.168   4.936   7.997  1.7461 -0.5041 -2.2693
  256MOL0     H34552   1.984   4.914   7.836  0.2689 -0.0873  0.6784
  256MOL0     H34553   2.100   5.009   7.755 -0.2887 -0.9634 -0.8107
  256MOL0     H34554   1.996   5.224   7.823  1.9053 -1.2265 -3.7535
  256MOL0     H34555   1.894   5.121   7.732 -0.1202  1.5468  0.0447
  256MOL0     H34556   1.659   5.097   8.077 -0.8072  1.0028 -0.1384
  256MOL0     H34557   2.573   5.154   7.774 -0.5525  0.6217  0.2812
  256MOL0     H34558   2.885   5.055   7.823  0.4175  0.0123  0.9393
  256MOL0     H34559   2.794   5.200   7.774  1.7035 -1.0210 -2.2993
  256MOL0     H34560   2.877   5.191   7.931  2.0799 -2.0058 -0.8343
  257MOL0     O34561   9.233   9.097   4.065  0.8716  0.1284  0.1870
  257MOL0     C34562   9.208   9.205   4.116  0.0076 -0.2584  0.7364
  257MOL0     O34563   9.307   9.298   4.149  0.3959  0.2407 -0.8810
  257MOL0     C34564   9.439   9.257   4.141 -0.2802  0.2252 -0.0371
  257MOL0     C34565   9.529   9.333   4.055 -0.8530 -0.3724 -0.1690
  257MOL0     C34566   9.663   9.313   4.059 -0.9373  0.2481  0.2069
  257MOL0     C34567   9.722   9.212   4.129  0.4997 -0.6921  0.1291
  257MOL0     O34568   9.856   9.182   4.144 -0.0289 -0.4423  0.4550
  257MOL0     C34569   9.946   9.268   4.063 -0.2136  0.5969  0.1780
  257MOL0     C34570  10.083   9.195   4.075  0.0782 -0.6948 -0.5105
  257MOL0     C34571  10.179   9.252   3.975 -0.5060 -0.2396 -0.0173
  257MOL0     C34572  10.300   9.162   3.963 -0.0789 -1.0606  0.4747
  257MOL0     C34573  10.381   9.203   3.837  0.3007  1.2908 -1.1029
  257MOL0     C34574  10.507   9.113   3.810  0.8628 -0.2028 -0.4768
  257MOL0     C34575  10.627   9.196   3.767  0.0628  0.0815  0.0978
  257MOL0     C34576  10.688   9.281   3.868  1.0265  0.0441  0.4120
  257MOL0     N34577  10.793   9.380   3.831 -0.1252  0.0840 -0.4374
  257MOL0     C34578  10.844   9.422   3.708  0.8052  0.1063  0.4028
  257MOL0     C34579  10.941   9.517   3.734 -0.6570 -0.0145  0.6211
  257MOL0     C34580  11.024   9.579   3.628  0.2310 -0.1893 -0.4163
  257MOL0     C34581  11.167   9.565   3.661 -0.3141  0.0611 -1.2621
  257MOL0     C34582  11.263   9.648   3.568  0.1506 -0.0367 -0.3420
  257MOL0     C34583  11.415   9.626   3.602  1.5628 -0.3937  0.2599
  257MOL0     O34584  11.505   9.705   3.527 -0.6578 -0.7759 -0.3485
  257MOL0     C34585  11.640   9.709   3.555  0.2788  0.0364  0.8231
  257MOL0     C34586  11.718   9.804   3.498 -0.0656 -0.0058 -0.0591
  257MOL0     C34587  11.857   9.803   3.518  0.1597  1.0166 -1.4257
  257MOL0     C34588  11.920   9.717   3.611 -0.9715 -0.3687 -0.6711
  257MOL0     C34589  12.070   9.717   3.625  0.1649 -0.4490 -0.5479
  257MOL0     O34590  12.147   9.816   3.574  0.0455  0.5951 -0.0845
  257MOL0     C34591  12.287   9.810   3.593  0.2013  0.2611 -0.3927
  257MOL0     C34592  12.332   9.880   3.703 -0.1854  0.8008  0.4687
  257MOL0     C34593  12.457   9.850   3.749  0.1096  0.8224 -0.6102
  257MOL0     C34594  12.546   9.758   3.695  0.3318  0.5156  0.7845
  257MOL0     O34595  12.674   9.732   3.731  0.0297  0.4887  0.4470
  257MOL0     C34596  12.731   9.784   3.853 -0.4703 -0.0629  0.0319
  257MOL0     C34597  12.886   9.776   3.845  0.3865  0.3370  0.3046
  257MOL0     C34598  12.945   9.907   3.910 -0.5898 -0.7095 -0.3703
  257MOL0     C34599  13.084   9.934   3.860  0.9258  0.0545  0.6285
  257MOL0     C34600  13.147  10.056   3.930 -0.2772  0.0249 -0.1817
  257MOL0     C34601  13.201   9.998   4.061  0.6923 -0.3182  0.5670
  257MOL0     C34602  13.292  10.104   4.130  0.0438  0.2803 -0.5578
  257MOL0     C34603  13.434  10.114   4.057  0.7612  0.8960  0.1664
  257MOL0    Cl34604  13.545  10.195   4.167  0.2780  0.0206 -0.2291
  257MOL0     C34605  12.513   9.702   3.573  0.6917 -0.7959  0.3069
  257MOL0     C34606  12.377   9.724   3.521 -0.5169  0.3302  0.4347
  257MOL0     O34607  12.112   9.622   3.689 -0.0703 -0.3657 -0.4800
  257MOL0     C34608  11.836   9.629   3.679 -0.1921 -0.2203 -0.3297
  257MOL0     C34609  11.699   9.628   3.651  0.1258  0.4576  0.0834
  257MOL0     N34610  10.950   9.533   3.869 -0.2089  0.4463 -0.1848
  257MOL0     N34611  10.851   9.464   3.922 -0.8469 -0.3116  0.0883
  257MOL0     C34612   9.642   9.130   4.201 -0.3467  0.1442 -1.1395
  257MOL0     C34613   9.501   9.153   4.209 -0.3034 -0.5523  1.0626
  257MOL0     C34614   9.066   9.247   4.134  0.2937 -0.2470 -0.2975
  257MOL0     C34615   9.046   9.371   4.203  0.2104  0.6810 -0.3928
  257MOL0     C34616   8.918   9.424   4.223 -0.0610 -0.9985 -0.1116
  257MOL0     C34617   8.807   9.350   4.179  0.1003 -0.2083  0.0372
  257MOL0     O34618   8.692   9.428   4.194 -0.2478 -0.4165 -0.3571
  257MOL0     C34619   8.568   9.385   4.139 -0.2064 -0.7211  0.2466
  257MOL0     C34620   8.487   9.304   4.237  0.0263  0.7063 -0.0427
  257MOL0     C34621   8.450   9.396   4.357  0.3225  0.5585  0.5843
  257MOL0     C34622   8.343   9.333   4.456 -0.3129  0.8839 -0.1077
  257MOL0     C34623   8.222   9.284   4.396  0.9967 -0.5411  0.2713
  257MOL0     C34624   8.111   9.256   4.351 -0.0754  0.4148 -0.2064
  257MOL0     C34625   8.824   9.223   4.133  0.5622  1.0329  0.7039
  257MOL0     C34626   8.947   9.175   4.100  0.0847 -0.4823  0.5467
  257MOL0     C34627   8.950   9.041   4.023  0.1220  0.4951 -0.2701
  257MOL0     H34628   9.487   9.409   3.992 -2.6355 -1.4392 -0.3455
  257MOL0     H34629   9.728   9.379   4.003 -0.6261  1.0683  1.4992
  257MOL0     H34630   9.920   9.275   3.957  0.8380 -1.0988 -0.2190
  257MOL0     H34631   9.953   9.368   4.108 -4.9599  1.9292 -1.3525
  257MOL0     H34632  10.058   9.091   4.055  0.5654 -0.5862 -1.7856
  257MOL0     H34633  10.108   9.199   4.182  2.3209  0.2557 -1.0184
  257MOL0     H34634  10.204   9.357   3.993  0.0905 -0.3108 -0.4063
  257MOL0     H34635  10.126   9.242   3.880  0.7129 -2.0159 -0.5736
  257MOL0     H34636  10.366   9.181   4.048 -0.4140  2.4076  0.0858
  257MOL0     H34637  10.272   9.057   3.948  0.6279 -0.9670 -2.1526
  257MOL0     H34638  10.308   9.211   3.756 -3.7085  1.1743  2.1866
  257MOL0     H34639  10.415   9.306   3.852  2.0217  0.6662 -0.3768
  257MOL0     H34640  10.523   9.045   3.895  3.2463 -1.6482 -1.9753
  257MOL0     H34641  10.478   9.048   3.728 -1.8249 -0.0684  0.2610
  257MOL0     H34642  10.591   9.252   3.680  0.5565  1.1047  0.5321
  257MOL0     H34643  10.705   9.127   3.734 -0.4033 -0.7562  0.7139
  257MOL0     H34644  10.612   9.341   3.917  1.5070  1.5995 -0.6862
  257MOL0     H34645  10.737   9.224   3.949  0.6350  0.1328  0.7114
  257MOL0     H34646  10.811   9.395   3.608  1.0757  0.5204  0.1962
  257MOL0     H34647  11.013   9.522   3.535 -1.1094  0.1076 -0.4708
  257MOL0     H34648  10.986   9.680   3.607 -2.2250 -0.6178  1.4462
  257MOL0     H34649  11.175   9.596   3.766 -1.7354 -2.3518 -0.3572
  257MOL0     H34650  11.195   9.459   3.661  1.5630  0.4916  0.0295
  257MOL0     H34651  11.252   9.756   3.586  2.2366 -0.1346  2.0129
  257MOL0     H34652  11.250   9.614   3.465 -1.1153 -0.4857 -0.0449
  257MOL0     H34653  11.433   9.518   3.591 -3.0490 -1.3030 -0.5378
  257MOL0     H34654  11.430   9.630   3.710  0.3388 -0.8338  0.4594
  257MOL0     H34655  11.672   9.876   3.432 -0.0393  2.0319  2.0187
  257MOL0     H34656  11.914   9.876   3.460 -0.4591  1.5151 -1.4243
  257MOL0     H34657  12.261   9.938   3.760 -0.1710 -0.7602  2.1854
  257MOL0     H34658  12.475   9.897   3.845 -2.1039  0.7638 -0.1047
  257MOL0     H34659  12.696   9.886   3.868 -1.5018 -0.3033 -0.6040
  257MOL0     H34660  12.702   9.722   3.938 -1.6250  0.7772  0.2722
  257MOL0     H34661  12.913   9.679   3.887 -1.4701 -0.1362  0.5016
  257MOL0     H34662  12.915   9.770   3.740 -0.7852 -0.2177 -0.0073
  257MOL0     H34663  12.894   9.997   3.873  1.0819  0.2445 -0.4666
  257MOL0     H34664  12.924   9.895   4.016  1.7303 -0.4118  0.1926
  257MOL0     H34665  13.079   9.948   3.752 -1.1344 -1.5319  0.4497
  257MOL0     H34666  13.141   9.842   3.875 -2.9189 -2.1288  3.9066
  257MOL0     H34667  13.079  10.141   3.937 -0.5246 -0.1296 -0.6276
  257MOL0     H34668  13.230  10.071   3.860  0.1789 -1.1115  0.0826
  257MOL0     H34669  13.110   9.973   4.116  0.8793 -1.0925  0.5434
  257MOL0     H34670  13.253   9.903   4.047  0.2509 -0.4325 -0.4368
  257MOL0     H34671  13.309  10.059   4.228 -2.0511 -0.5099 -0.5133
  257MOL0     H34672  13.240  10.200   4.130 -2.7936 -1.1417 -1.7026
  257MOL0     H34673  13.476  10.015   4.037  1.4254  1.1912  0.0490
  257MOL0     H34674  13.406  10.163   3.963 -0.1113  0.8656  0.4020
  257MOL0     H34675  12.571   9.631   3.515 -1.0005 -0.4410 -1.9444
  257MOL0     H34676  12.342   9.694   3.423  1.9543 -0.4767 -0.2798
  257MOL0     H34677  11.873   9.556   3.751 -1.5370  0.6346  1.2732
  257MOL0     H34678  11.637   9.551   3.697 -0.3390 -0.1822 -1.5619
  257MOL0     H34679   9.680   9.039   4.247  0.9677  0.3474 -1.7782
  257MOL0     H34680   9.437   9.087   4.268 -0.2454  0.2198  2.0102
  257MOL0     H34681   9.125   9.441   4.226 -0.4399  1.8945 -1.7447
  257MOL0     H34682   8.901   9.517   4.277 -0.0397 -0.5053 -0.9454
  257MOL0     H34683   8.580   9.317   4.054 -0.3144 -1.7308  1.0040
  257MOL0     H34684   8.508   9.469   4.104 -0.4265 -1.8523 -2.3396
  257MOL0     H34685   8.543   9.216   4.270 -1.0810  0.3057  0.8140
  257MOL0     H34686   8.394   9.272   4.189 -0.5962  2.6209 -0.1737
  257MOL0     H34687   8.403   9.486   4.316  1.2747 -0.0302 -1.9942
  257MOL0     H34688   8.541   9.425   4.411 -0.7509  2.1471  1.6293
  257MOL0     H34689   8.398   9.253   4.507 -0.0729  0.9222 -0.3074
  257MOL0     H34690   8.311   9.402   4.535 -0.7710 -0.2803  0.7543
  257MOL0     H34691   8.013   9.239   4.311 -0.6097  0.0465  1.2050
  257MOL0     H34692   8.733   9.168   4.111  1.8554 -1.5073  1.3156
  257MOL0     H34693   9.033   8.975   4.051 -1.8240 -2.9050 -1.8840
  257MOL0     H34694   8.852   8.992   4.022 -0.1089  0.9474 -0.7645
  257MOL0     H34695   8.971   9.069   3.919  1.2837 -0.8982 -0.4409
  258MOL0     O34696   6.525   7.479   8.670  0.9794 -0.6543  0.0604
  258MOL0     C34697   6.525   7.598   8.703  0.6995 -0.7247  0.3954
  258MOL0     O34698   6.438   7.655   8.779  0.1248  0.2191  0.0616
  258MOL0     C34699   6.346   7.582   8.854  0.7388  0.2223  0.1105
  258MOL0     C34700   6.378   7.463   8.917  0.1525  0.2851 -0.2433
  258MOL0     C34701   6.275   7.404   9.001  0.5874 -0.4594  0.2943
  258MOL0     C34702   6.155   7.467   9.029  0.2244 -0.9808 -0.7254
  258MOL0     O34703   6.071   7.416   9.121  0.4227  0.2031 -0.0981
  258MOL0     C34704   5.941   7.483   9.142 -0.4616  0.2180 -0.3913
  258MOL0     C34705   5.857   7.389   9.221 -0.1889  0.4891  0.3065
  258MOL0     C34706   5.733   7.459   9.288  0.0127  0.2711 -0.5561
  258MOL0     C34707   5.621   7.459   9.182  1.1510  0.1042 -0.1511
  258MOL0     C34708   5.496   7.517   9.237  1.0647 -0.5345 -0.2027
  258MOL0     C34709   5.371   7.535   9.151 -0.4635 -1.0277  0.0706
  258MOL0     C34710   5.327   7.395   9.106  0.3007 -1.1654 -0.2345
  258MOL0     C34711   5.206   7.395   9.013 -0.8635  0.2204  0.4358
  258MOL0     N34712   5.165   7.253   8.983 -0.5467 -0.2315 -0.4676
  258MOL0     C34713   5.049   7.217   8.928  0.3141  0.6954  0.0747
  258MOL0     C34714   5.077   7.091   8.890 -0.2823 -0.2232  0.4247
  258MOL0     C34715   4.981   7.003   8.804  0.6760  0.1540  0.5547
  258MOL0     C34716   4.983   7.035   8.661 -0.2375 -0.5791  0.2814
  258MOL0     C34717   5.130   7.032   8.606  0.1188 -0.4244  0.0512
  258MOL0     C34718   5.134   7.095   8.461 -0.3907 -0.1931 -0.3640
  258MOL0     O34719   5.112   7.237   8.481 -0.0543 -0.3258 -0.2291
  258MOL0     C34720   5.200   7.327   8.437 -0.5474 -0.4371  0.7698
  258MOL0     C34721   5.298   7.376   8.521  0.9569 -0.3687  0.9685
  258MOL0     C34722   5.393   7.459   8.472  0.8024  0.2783 -0.3960
  258MOL0     C34723   5.392   7.504   8.333  0.4093  1.0946 -0.2625
  258MOL0     C34724   5.499   7.588   8.284  0.0846 -0.7199 -0.3378
  258MOL0     O34725   5.519   7.599   8.148 -0.1015 -0.6854  0.1270
  258MOL0     C34726   5.601   7.703   8.100  0.7730  0.3172  0.9606
  258MOL0     C34727   5.676   7.679   7.985 -0.0552  0.3490  0.0958
  258MOL0     C34728   5.761   7.771   7.931 -0.3192  0.2583  0.1602
  258MOL0     C34729   5.770   7.903   7.980  0.1738  0.1150  0.7124
  258MOL0     O34730   5.837   8.009   7.929  0.1420  0.2396  0.1389
  258MOL0     C34731   5.901   8.004   7.805 -1.0121  0.1633 -0.4072
  258MOL0     C34732   5.898   8.135   7.740  0.0029 -0.0280 -0.4764
  258MOL0     C34733   6.016   8.216   7.785  0.6778 -0.8450 -0.0956
  258MOL0     C34734   6.002   8.365   7.731  0.5166  0.5300 -0.6460
  258MOL0     C34735   6.098   8.465   7.812 -0.4516  0.1161 -0.3141
  258MOL0     C34736   6.092   8.458   7.963 -0.3173  0.5140  0.3493
  258MOL0     C34737   6.161   8.577   8.030  0.6619 -0.1492  0.5008
  258MOL0     C34738   6.170   8.566   8.176 -0.1359 -0.2083 -0.8871
  258MOL0    Cl34739   6.313   8.474   8.198  0.0587  0.2728 -0.3627
  258MOL0     C34740   5.685   7.936   8.081 -0.4382  0.0386  0.2280
  258MOL0     C34741   5.597   7.837   8.139 -0.1918  0.0035 -0.9463
  258MOL0     O34742   5.561   7.645   8.372 -0.2802  0.6648  0.2135
  258MOL0     C34743   5.297   7.450   8.245  0.5194 -0.5529 -0.3860
  258MOL0     C34744   5.200   7.368   8.297  0.1049  0.1007  0.9418
  258MOL0     N34745   5.196   7.050   8.935 -0.3541  0.4566  0.0944
  258MOL0     N34746   5.244   7.146   9.000  0.7220  0.4071  0.0930
  258MOL0     C34747   6.127   7.594   8.963 -0.6171 -1.3292 -0.4356
  258MOL0     C34748   6.223   7.642   8.868 -0.2916  0.4807 -0.3485
  258MOL0     C34749   6.642   7.681   8.655  0.6533 -0.3085 -0.1241
  258MOL0     C34750   6.665   7.802   8.715  0.2554  0.3213  0.6334
  258MOL0     C34751   6.771   7.881   8.675  0.4200 -0.4462  0.4748
  258MOL0     C34752   6.866   7.837   8.587 -0.8886  0.1196 -0.6110
  258MOL0     O34753   6.975   7.916   8.575  0.0623  0.7713 -0.5480
  258MOL0     C34754   7.091   7.840   8.541 -0.1433 -0.5801  0.0411
  258MOL0     C34755   7.204   7.927   8.513 -0.5900 -1.0799 -0.1760
  258MOL0     C34756   7.352   7.869   8.502  0.6527 -0.2595 -0.1627
  258MOL0     C34757   7.377   7.800   8.639 -0.0143  0.5976  0.1899
  258MOL0     C34758   7.521   7.761   8.637  0.6162  0.2435 -0.0666
  258MOL0     C34759   7.642   7.768   8.639 -0.1608 -0.2558  0.6399
  258MOL0     C34760   6.846   7.707   8.532  0.1841  0.6902  0.4549
  258MOL0     C34761   6.730   7.631   8.556 -0.3480 -0.3091  0.3451
  258MOL0     C34762   6.695   7.514   8.467 -0.6560 -0.5356 -0.8039
  258MOL0     H34763   6.476   7.417   8.906  0.9742  1.8991  0.0605
  258MOL0     H34764   6.294   7.312   9.055 -1.5474 -1.0739  0.0832
  258MOL0     H34765   5.944   7.577   9.198 -2.2203  0.8591 -1.2947
  258MOL0     H34766   5.901   7.501   9.041 -1.2115 -0.2387 -0.1871
  258MOL0     H34767   5.931   7.355   9.295  1.0683  0.2028 -1.0367
  258MOL0     H34768   5.836   7.300   9.161  1.9213  1.9156 -2.8323
  258MOL0     H34769   5.743   7.563   9.321 -4.2045  0.2322  1.4983
  258MOL0     H34770   5.710   7.400   9.378  1.0958 -0.2604 -0.6087
  258MOL0     H34771   5.662   7.522   9.103  1.5113  1.5901  1.1741
  258MOL0     H34772   5.606   7.356   9.148  1.1308  0.5540 -1.5705
  258MOL0     H34773   5.477   7.455   9.325  3.1380  1.8375  2.0780
  258MOL0     H34774   5.516   7.619   9.272  0.2803 -0.3699 -0.1948
  258MOL0     H34775   5.294   7.600   9.192  2.5447  4.3259 -1.6839
  258MOL0     H34776   5.397   7.592   9.061 -1.8996 -1.3634 -0.5835
  258MOL0     H34777   5.295   7.339   9.194 -1.4532 -0.2811 -0.2681
  258MOL0     H34778   5.410   7.344   9.056  0.8585  0.6050 -1.2068
  258MOL0     H34779   5.122   7.447   9.061 -0.4238  0.7668  0.6206
  258MOL0     H34780   5.218   7.454   8.922  0.4783  1.9805  1.6713
  258MOL0     H34781   4.960   7.278   8.919  1.2696  2.0558 -0.5350
  258MOL0     H34782   5.003   6.896   8.815 -2.2555 -0.4588  1.0240
  258MOL0     H34783   4.876   7.018   8.827 -0.4680 -0.2404 -3.5629
  258MOL0     H34784   4.931   6.960   8.601 -1.3326  1.3745 -1.3578
  258MOL0     H34785   4.937   7.134   8.649  2.1687  0.8121  1.6930
  258MOL0     H34786   5.156   6.926   8.609 -2.6728 -1.3002 -2.2165
  258MOL0     H34787   5.199   7.088   8.670 -0.8584 -1.2541  1.9235
  258MOL0     H34788   5.058   7.055   8.394  0.2227  1.2912 -2.0438
  258MOL0     H34789   5.229   7.077   8.410 -0.7775  1.8545 -1.9555
  258MOL0     H34790   5.275   7.363   8.626 -0.2135  1.8483  1.0413
  258MOL0     H34791   5.450   7.513   8.548  0.9608  1.2005 -1.1470
  258MOL0     H34792   5.689   7.576   7.956 -0.5763  0.4745 -0.6047
  258MOL0     H34793   5.827   7.749   7.848  0.5873  0.2680  0.8622
  258MOL0     H34794   6.007   7.979   7.817 -0.4653  2.2263 -0.5789
  258MOL0     H34795   5.851   7.934   7.738  1.6524  0.0437 -2.4354
  258MOL0     H34796   5.906   8.125   7.631 -0.6686  2.2067 -0.7872
  258MOL0     H34797   5.801   8.176   7.768  0.1772 -1.2312  2.1436
  258MOL0     H34798   6.018   8.220   7.894 -0.3102  4.7510  0.0196
  258MOL0     H34799   6.106   8.168   7.746  1.1908 -1.9750  2.2853
  258MOL0     H34800   5.901   8.396   7.756  0.8731  0.8544  0.4425
  258MOL0     H34801   6.013   8.363   7.622  0.0231 -1.6991 -0.6963
  258MOL0     H34802   6.081   8.568   7.781 -0.2866 -0.0754 -1.0512
  258MOL0     H34803   6.199   8.436   7.781 -0.5696 -1.2575  0.4682
  258MOL0     H34804   5.990   8.459   8.004  0.1822  0.7601  1.6531
  258MOL0     H34805   6.132   8.366   8.007  1.4559  1.0328 -0.1340
  258MOL0     H34806   6.096   8.662   8.005 -1.5224 -1.0402  2.6870
  258MOL0     H34807   6.258   8.592   7.983  1.8832  0.7301  3.1311
  258MOL0     H34808   6.181   8.666   8.219 -0.8282 -0.3373 -0.4040
  258MOL0     H34809   6.080   8.516   8.212  0.8111 -1.2347  0.1014
  258MOL0     H34810   5.681   8.041   8.109 -0.1826  1.1584 -3.5129
  258MOL0     H34811   5.536   7.864   8.225  2.7176 -3.0209  2.3631
  258MOL0     H34812   5.295   7.488   8.143  3.5822 -0.2943 -0.4497
  258MOL0     H34813   5.130   7.323   8.226 -0.2694  0.5456  1.0293
  258MOL0     H34814   6.038   7.656   8.967  1.4157  2.1727 -3.1415
  258MOL0     H34815   6.207   7.730   8.806 -0.9073 -0.7806 -2.0711
  258MOL0     H34816   6.604   7.845   8.793  0.8479  0.4014  1.0568
  258MOL0     H34817   6.794   7.979   8.717 -0.0952 -1.1117  2.4274
  258MOL0     H34818   7.079   7.785   8.447  1.2503  1.3557 -1.3602
  258MOL0     H34819   7.121   7.765   8.613 -0.3556 -2.1035 -1.3971
  258MOL0     H34820   7.199   7.995   8.598 -2.3812  0.9624 -1.8059
  258MOL0     H34821   7.179   7.991   8.428 -0.4252  0.9172  1.2304
  258MOL0     H34822   7.416   7.957   8.497 -1.1080  1.0391 -0.5368
  258MOL0     H34823   7.365   7.792   8.425  1.2457 -1.6631  1.2860
  258MOL0     H34824   7.358   7.861   8.728 -1.2415 -2.4011  2.1744
  258MOL0     H34825   7.311   7.713   8.651 -0.0749  0.7153  0.7667
  258MOL0     H34826   7.746   7.789   8.628 -0.2810 -0.3133 -0.8605
  258MOL0     H34827   6.913   7.675   8.452 -0.1694 -0.2689  0.5353
  258MOL0     H34828   6.755   7.519   8.376  4.0165 -0.2000  1.9184
  258MOL0     H34829   6.718   7.419   8.517 -0.6198 -0.1269 -0.0255
  258MOL0     H34830   6.592   7.528   8.436 -0.4047  0.2010 -1.3122
  259MOL0     O34831   9.438   2.407   1.550 -0.3401  0.1468  0.2603
  259MOL0     C34832   9.397   2.320   1.623 -0.4060 -0.1534  0.6744
  259MOL0     O34833   9.471   2.235   1.700  0.3310 -0.3023  0.3519
  259MOL0     C34834   9.604   2.265   1.716 -0.0139 -0.4951  0.2408
  259MOL0     C34835   9.628   2.390   1.779  0.4874  0.7208  1.0036
  259MOL0     C34836   9.759   2.436   1.811 -0.8955  0.4671  0.4122
  259MOL0     C34837   9.868   2.348   1.785  0.3029 -0.0239 -0.8103
  259MOL0     O34838   9.984   2.388   1.838 -0.1615 -0.2285  0.1716
  259MOL0     C34839  10.099   2.370   1.750 -0.5006 -0.6540  0.3084
  259MOL0     C34840  10.220   2.404   1.834  0.0821 -0.5368 -0.1822
  259MOL0     C34841  10.251   2.267   1.895  0.2898  0.1099 -0.1712
  259MOL0     C34842  10.344   2.276   2.018  0.3184 -0.0684 -0.2549
  259MOL0     C34843  10.358   2.128   2.083 -0.2406 -0.4983  1.0478
  259MOL0     C34844  10.408   2.123   2.226 -0.5770  0.2743 -0.3532
  259MOL0     C34845  10.460   1.980   2.269  0.1702  0.3163  0.9167
  259MOL0     C34846  10.482   1.947   2.422 -0.4663 -0.0175 -0.0266
  259MOL0     N34847  10.580   2.043   2.482  0.2838 -0.0941  0.9438
  259MOL0     C34848  10.538   2.132   2.571  0.4247  0.3955  0.4888
  259MOL0     C34849  10.653   2.179   2.636  0.5401 -0.7556 -0.2796
  259MOL0     C34850  10.666   2.284   2.744 -0.3163 -0.6045 -0.0149
  259MOL0     C34851  10.609   2.425   2.680 -0.2019 -0.3803 -0.5759
  259MOL0     C34852  10.575   2.523   2.794  0.6653  0.4567 -0.1645
  259MOL0     C34853  10.423   2.509   2.819 -0.5022  0.2740 -0.0578
  259MOL0     O34854  10.357   2.556   2.698  0.0532  0.0016  0.2818
  259MOL0     C34855  10.231   2.510   2.690  0.2406  0.9017 -0.0497
  259MOL0     C34856  10.143   2.559   2.776  0.1653  0.5118 -0.3703
  259MOL0     C34857  10.003   2.517   2.773  0.8996  0.3920 -0.4375
  259MOL0     C34858   9.966   2.422   2.678 -0.8232  0.7705 -0.2460
  259MOL0     C34859   9.811   2.385   2.670  0.0530  0.1076 -0.6845
  259MOL0     O34860   9.716   2.436   2.758  0.5834 -0.8651  0.3135
  259MOL0     C34861   9.583   2.395   2.739 -0.2273 -0.1507  0.4179
  259MOL0     C34862   9.510   2.383   2.856  0.6725  1.0523  0.5894
  259MOL0     C34863   9.370   2.345   2.857 -0.6942 -0.4614  0.2172
  259MOL0     C34864   9.309   2.337   2.730 -0.8546 -0.1023 -0.1018
  259MOL0     O34865   9.180   2.303   2.715  0.2745 -0.6074  0.5628
  259MOL0     C34866   9.113   2.243   2.820  0.0271 -0.0412 -0.3710
  259MOL0     C34867   8.971   2.221   2.767  0.1812  0.3360 -0.7975
  259MOL0     C34868   8.966   2.088   2.677 -0.2563 -1.3891  0.3825
  259MOL0     C34869   8.825   2.068   2.624  0.0022 -0.4426  0.1932
  259MOL0     C34870   8.814   1.925   2.572 -0.0200 -0.7041  0.1720
  259MOL0     C34871   8.670   1.904   2.502 -0.2248  0.7809 -0.2703
  259MOL0     C34872   8.649   1.750   2.474 -0.0148 -0.8842 -0.2952
  259MOL0     C34873   8.729   1.693   2.367  0.2171 -0.5342  0.4696
  259MOL0    Cl34874   8.704   1.509   2.357  0.0100 -0.0841  0.1834
  259MOL0     C34875   9.378   2.370   2.615  0.0082 -0.4411 -0.0846
  259MOL0     C34876   9.516   2.379   2.619  0.1138 -0.5781  0.3851
  259MOL0     O34877   9.790   2.287   2.603  0.2642  0.8145 -0.4071
  259MOL0     C34878  10.062   2.368   2.592 -0.8045 -0.3153  0.0785
  259MOL0     C34879  10.193   2.411   2.586  0.4885  0.0084 -0.3246
  259MOL0     N34880  10.755   2.102   2.595 -0.3297 -0.5042  0.6079
  259MOL0     N34881  10.718   2.026   2.493  0.7576 -0.0769 -0.5985
  259MOL0     C34882   9.849   2.222   1.727  0.3432 -0.0689 -0.0689
  259MOL0     C34883   9.716   2.178   1.689 -0.1639 -0.6774 -0.5589
  259MOL0     C34884   9.257   2.294   1.625 -0.8888 -0.0294 -0.4349
  259MOL0     C34885   9.197   2.254   1.745 -0.7049  0.6474 -1.2877
  259MOL0     C34886   9.073   2.200   1.755  0.3051 -0.6143  0.3742
  259MOL0     C34887   8.996   2.197   1.640 -0.2377 -0.1802  0.5441
  259MOL0     O34888   8.873   2.132   1.622  0.6442 -0.4559  0.0824
  259MOL0     C34889   8.817   2.063   1.735  0.1537 -0.2699  0.3993
  259MOL0     C34890   8.753   1.941   1.689 -0.1011 -0.9200 -0.2164
  259MOL0     C34891   8.625   1.944   1.600 -0.0356 -0.3087  0.3128
  259MOL0     C34892   8.575   1.798   1.589 -0.0893 -0.2980  0.1906
  259MOL0     C34893   8.485   1.773   1.472  0.3143 -0.1878 -0.7200
  259MOL0     C34894   8.391   1.771   1.395  0.1619  0.3661 -0.2523
  259MOL0     C34895   9.053   2.238   1.517 -0.1056 -0.5789  0.2873
  259MOL0     C34896   9.179   2.292   1.513  1.0372 -0.1296  0.4419
  259MOL0     C34897   9.249   2.313   1.375 -0.0598 -0.3191  0.5743
  259MOL0     H34898   9.544   2.452   1.807 -0.5573  0.2282 -0.8505
  259MOL0     H34899   9.769   2.529   1.867 -0.0973  0.4663  0.2816
  259MOL0     H34900  10.118   2.273   1.705  1.3252 -0.5973  0.8819
  259MOL0     H34901  10.090   2.441   1.667  1.1360 -0.3966  0.3271
  259MOL0     H34902  10.195   2.469   1.918 -1.8738 -3.3043  1.5435
  259MOL0     H34903  10.293   2.445   1.763  1.3319  2.7619  2.7616
  259MOL0     H34904  10.301   2.202   1.823  0.1189 -1.4737  1.0825
  259MOL0     H34905  10.162   2.221   1.940  1.2635 -0.6738  1.0133
  259MOL0     H34906  10.438   2.329   2.001  1.6474 -2.3028 -0.1881
  259MOL0     H34907  10.296   2.337   2.095 -0.9400 -1.6070  0.2376
  259MOL0     H34908  10.266   2.070   2.071  0.4547 -1.4475  0.1184
  259MOL0     H34909  10.435   2.087   2.018 -0.4226 -0.0906  0.5684
  259MOL0     H34910  10.490   2.193   2.243  0.1885 -1.1389  2.3039
  259MOL0     H34911  10.338   2.158   2.302  1.2835  2.3432  0.5028
  259MOL0     H34912  10.556   1.964   2.218  0.3039 -2.7469  1.9360
  259MOL0     H34913  10.388   1.909   2.226 -0.7348  1.9239 -0.3570
  259MOL0     H34914  10.390   1.947   2.481  0.5287 -0.8378  1.5703
  259MOL0     H34915  10.524   1.847   2.435  0.8867  0.3841 -1.0919
  259MOL0     H34916  10.434   2.152   2.598 -0.5310 -1.8922 -1.1804
  259MOL0     H34917  10.611   2.249   2.831 -0.0408  0.6437  0.6949
  259MOL0     H34918  10.768   2.288   2.784 -0.7598 -0.4481  1.1481
  259MOL0     H34919  10.704   2.463   2.642 -0.1094 -1.1535 -1.1353
  259MOL0     H34920  10.533   2.418   2.602 -1.6682 -1.1192  0.8693
  259MOL0     H34921  10.595   2.630   2.779  1.1796  0.5291  0.9085
  259MOL0     H34922  10.634   2.501   2.884  1.6249 -1.2066 -1.1612
  259MOL0     H34923  10.386   2.549   2.913  0.2473 -1.8129  1.2020
  259MOL0     H34924  10.397   2.404   2.833  0.3289 -0.0277 -0.6675
  259MOL0     H34925  10.167   2.632   2.854 -0.7319 -1.1936  1.6144
  259MOL0     H34926   9.929   2.551   2.845  1.1763  0.0942 -0.0091
  259MOL0     H34927   9.567   2.405   2.945  2.8678  0.2321 -0.5461
  259MOL0     H34928   9.312   2.330   2.948 -1.7674  1.1763 -0.1594
  259MOL0     H34929   9.154   2.146   2.848 -2.6595 -0.8775  0.9983
  259MOL0     H34930   9.112   2.311   2.905  0.0596  4.0396 -3.3288
  259MOL0     H34931   8.898   2.217   2.848  0.3162  0.3700 -0.6743
  259MOL0     H34932   8.941   2.308   2.707 -0.6176 -0.7064 -1.9594
  259MOL0     H34933   9.040   2.101   2.596 -0.5880 -0.1603  0.2607
  259MOL0     H34934   8.987   2.000   2.739  1.9810 -1.9794 -1.0879
  259MOL0     H34935   8.806   2.140   2.544  1.4669 -1.0153 -0.7064
  259MOL0     H34936   8.756   2.087   2.706 -0.2568  0.8219 -0.2989
  259MOL0     H34937   8.840   1.862   2.657 -1.0085 -0.6858  0.4997
  259MOL0     H34938   8.899   1.914   2.503  0.8367  1.0454  0.8847
  259MOL0     H34939   8.594   1.937   2.574 -1.1660  4.3300 -2.5938
  259MOL0     H34940   8.662   1.962   2.409 -0.3301 -1.3384 -1.6557
  259MOL0     H34941   8.548   1.716   2.453  0.7847 -2.4338 -2.0181
  259MOL0     H34942   8.678   1.704   2.569 -1.1254 -0.0088  0.4947
  259MOL0     H34943   8.690   1.744   2.279 -0.2861  1.8452  1.9786
  259MOL0     H34944   8.833   1.724   2.382  0.0643 -0.7503  2.1961
  259MOL0     H34945   9.326   2.367   2.520 -1.5651  1.1220  0.6719
  259MOL0     H34946   9.583   2.391   2.534  0.4316  3.5208  1.0346
  259MOL0     H34947  10.027   2.290   2.525  1.3892 -0.9644 -0.3653
  259MOL0     H34948  10.275   2.369   2.530  0.0430  0.7864 -1.6048
  259MOL0     H34949   9.933   2.155   1.713  3.2791  3.2736 -0.0832
  259MOL0     H34950   9.687   2.078   1.657 -0.1679 -1.0725  0.5921
  259MOL0     H34951   9.245   2.254   1.843  0.0588  1.4817 -1.6530
  259MOL0     H34952   9.031   2.178   1.852  0.7123  4.6574  2.0586
  259MOL0     H34953   8.745   2.129   1.784 -0.4081  0.6733 -1.5727
  259MOL0     H34954   8.892   2.035   1.810  1.4419 -1.2903 -1.1976
  259MOL0     H34955   8.728   1.896   1.785  0.4468  2.1869  1.4956
  259MOL0     H34956   8.826   1.880   1.635  3.6800  2.6077  0.4237
  259MOL0     H34957   8.651   1.998   1.509 -0.3742  1.9168  1.4581
  259MOL0     H34958   8.544   2.001   1.648  2.1847  2.4475  1.0273
  259MOL0     H34959   8.656   1.727   1.573 -0.7697 -0.9020 -0.7041
  259MOL0     H34960   8.532   1.778   1.687 -0.0006  0.0224  0.2960
  259MOL0     H34961   8.296   1.791   1.350 -0.1188 -1.0602 -0.3471
  259MOL0     H34962   9.000   2.206   1.427 -1.0512  0.0600  0.6016
  259MOL0     H34963   9.344   2.260   1.365  0.3557  0.5353 -0.1001
  259MOL0     H34964   9.189   2.285   1.288  1.4590  1.0961 -1.0209
  259MOL0     H34965   9.269   2.420   1.362  0.2358 -0.5183 -0.8094
  260MOL0     O34966  10.249   7.735   5.887 -1.1050  0.7607  0.4089
  260MOL0     C34967  10.246   7.630   5.958  0.4894  0.1628  1.0367
  260MOL0     O34968  10.351   7.545   5.970  0.5402  0.3472 -0.0165
  260MOL0     C34969  10.456   7.552   5.880 -0.2223 -0.1998  0.7393
  260MOL0     C34970  10.454   7.562   5.741 -0.2914  0.8713  0.0049
  260MOL0     C34971  10.570   7.586   5.674 -1.0118  0.1007 -0.5941
  260MOL0     C34972  10.694   7.588   5.738 -1.1641 -0.2688 -0.2359
  260MOL0     O34973  10.799   7.621   5.661  0.1973  0.0777 -0.2282
  260MOL0     C34974  10.935   7.612   5.728  0.5094  0.0551  0.2963
  260MOL0     C34975  11.041   7.622   5.619 -0.4818 -0.0388 -0.3145
  260MOL0     C34976  11.186   7.643   5.676  0.5341  0.3200  0.0051
  260MOL0     C34977  11.216   7.536   5.781 -0.4289  0.5849  0.0118
  260MOL0     C34978  11.370   7.541   5.808  0.2839 -0.9720  0.2262
  260MOL0     C34979  11.420   7.468   5.940 -0.0878  0.2095  0.0051
  260MOL0     C34980  11.572   7.430   5.946  0.3623 -0.2692 -0.2933
  260MOL0     C34981  11.662   7.549   5.904  1.2855  0.0610  0.3544
  260MOL0     N34982  11.802   7.510   5.921 -0.1290 -0.8848  0.1563
  260MOL0     C34983  11.869   7.544   6.039  0.4154 -0.1589 -0.3834
  260MOL0     C34984  11.997   7.487   6.031 -0.0532 -0.3512 -0.5969
  260MOL0     C34985  12.089   7.494   6.144  0.1510  0.4346 -1.2055
  260MOL0     C34986  12.206   7.573   6.109  0.0061  0.2440  1.3734
  260MOL0     C34987  12.300   7.586   6.222 -1.3410 -0.0733  0.0950
  260MOL0     C34988  12.419   7.678   6.188  0.5536 -0.6385 -0.3886
  260MOL0     O34989  12.536   7.598   6.167  0.2997 -0.1085  0.3661
  260MOL0     C34990  12.654   7.645   6.116 -0.4644 -0.3788  0.6970
  260MOL0     C34991  12.763   7.557   6.131 -0.1730 -0.0697  0.7783
  260MOL0     C34992  12.891   7.591   6.116 -0.2172 -0.2427  0.6537
  260MOL0     C34993  12.924   7.725   6.083  0.8251 -0.2023 -1.0057
  260MOL0     C34994  13.063   7.773   6.071  0.5714 -0.7520 -0.0327
  260MOL0     O34995  13.153   7.684   6.097 -0.3180 -0.3787 -1.0042
  260MOL0     C34996  13.290   7.704   6.073 -0.0885  0.6454  0.2250
  260MOL0     C34997  13.369   7.629   6.159  0.4857  0.2611  0.0347
  260MOL0     C34998  13.514   7.631   6.143 -0.4134 -0.9531  0.0608
  260MOL0     C34999  13.568   7.712   6.040  0.1158  0.4446  0.0641
  260MOL0     O35000  13.707   7.732   6.020 -0.2321 -0.3929 -0.3599
  260MOL0     C35001  13.785   7.745   6.140 -0.9042 -0.1912  0.0878
  260MOL0     C35002  13.878   7.863   6.140  0.7310  0.7777 -0.4239
  260MOL0     C35003  13.989   7.833   6.039  0.1557 -0.2506  0.2171
  260MOL0     C35004  14.029   7.954   5.967 -0.5494 -0.1380  0.2351
  260MOL0     C35005  14.119   7.950   5.846  0.0491 -0.0415 -0.0974
  260MOL0     C35006  14.032   7.934   5.718 -0.6393 -0.0375  0.0373
  260MOL0     C35007  14.111   7.908   5.588  1.2770 -0.2606 -0.0677
  260MOL0     C35008  14.172   7.767   5.577  0.3324 -0.1534  0.2747
  260MOL0    Cl35009  14.287   7.747   5.432  0.3563 -0.0865 -0.4343
  260MOL0     C35010  13.487   7.781   5.947 -0.4465  0.5723  0.0096
  260MOL0     C35011  13.346   7.777   5.966  0.0022  0.6001  0.0805
  260MOL0     O35012  13.076   7.889   6.041 -0.7016 -0.1911 -0.4602
  260MOL0     C35013  12.816   7.813   6.074 -0.2750 -0.0436 -0.6740
  260MOL0     C35014  12.682   7.777   6.082  0.0656  0.7778 -0.3404
  260MOL0     N35015  12.003   7.410   5.913  0.2927  0.0187  0.0507
  260MOL0     N35016  11.889   7.428   5.852  0.1754  0.6144  0.3339
  260MOL0     C35017  10.696   7.561   5.876  0.2328 -0.6285  1.0722
  260MOL0     C35018  10.582   7.545   5.942  0.2374  0.7032 -0.1369
  260MOL0     C35019  10.118   7.611   6.031 -0.4711  0.0750  1.0963
  260MOL0     C35020  10.129   7.524   6.147 -0.5618  0.2688  0.3572
  260MOL0     C35021  10.017   7.504   6.231  0.5260 -0.1561  0.1196
  260MOL0     C35022   9.894   7.575   6.194 -0.1624  0.8815 -0.3443
  260MOL0     O35023   9.770   7.557   6.256 -0.5200 -0.3068  0.3595
  260MOL0     C35024   9.743   7.436   6.340 -0.1318  0.2962  0.5577
  260MOL0     C35025   9.604   7.386   6.310  0.2198 -0.1266 -0.4380
  260MOL0     C35026   9.565   7.276   6.401  0.6108  0.0153 -0.5136
  260MOL0     C35027   9.422   7.236   6.358 -1.3337 -0.4329  0.8868
  260MOL0     C35028   9.313   7.341   6.385 -0.9199  0.3910  0.0894
  260MOL0     C35029   9.233   7.421   6.424 -0.2685  0.3319 -0.3664
  260MOL0     C35030   9.894   7.675   6.095 -0.1155  0.4687 -0.0975
  260MOL0     C35031   9.996   7.685   6.009 -0.2983 -0.1744 -0.0814
  260MOL0     C35032   9.976   7.789   5.896  1.3050 -0.2221 -0.0198
  260MOL0     H35033  10.366   7.550   5.679 -0.9977 -1.0214  1.2724
  260MOL0     H35034  10.582   7.607   5.568 -1.1681  1.0700 -0.4331
  260MOL0     H35035  10.950   7.692   5.801 -1.4631  0.2901  0.5239
  260MOL0     H35036  10.949   7.512   5.770 -2.2280 -1.2774 -1.5997
  260MOL0     H35037  11.017   7.701   5.547 -0.4760 -0.4334 -0.7573
  260MOL0     H35038  11.052   7.530   5.560 -1.1680 -0.4878  0.2409
  260MOL0     H35039  11.210   7.740   5.720  3.1533 -0.6601  0.9770
  260MOL0     H35040  11.254   7.621   5.593  0.4834  0.9854 -0.2151
  260MOL0     H35041  11.160   7.552   5.873 -1.5114  0.5691 -0.6292
  260MOL0     H35042  11.191   7.436   5.744  1.5367 -0.5099  1.3903
  260MOL0     H35043  11.426   7.500   5.723 -0.6610 -2.2467  0.1866
  260MOL0     H35044  11.398   7.646   5.824  0.7006 -1.1169  0.4826
  260MOL0     H35045  11.423   7.536   6.026  1.3698  0.1664  0.0206
  260MOL0     H35046  11.382   7.368   5.962 -0.6439  0.8292  2.1048
  260MOL0     H35047  11.592   7.352   5.872  0.9700  0.0920 -0.5204
  260MOL0     H35048  11.592   7.399   6.049  0.0982  1.4064  0.2977
  260MOL0     H35049  11.642   7.576   5.800  0.7251 -2.0738 -0.1394
  260MOL0     H35050  11.634   7.633   5.968 -0.0197  0.1106 -0.2368
  260MOL0     H35051  11.821   7.606   6.113 -0.5535 -1.9152  0.5275
  260MOL0     H35052  12.035   7.542   6.226  0.8228 -0.8000  0.0055
  260MOL0     H35053  12.113   7.398   6.191  0.3786  1.6036  1.2657
  260MOL0     H35054  12.248   7.533   6.016 -1.2406  2.1883 -0.1168
  260MOL0     H35055  12.178   7.674   6.079  0.8591  0.5505  1.5798
  260MOL0     H35056  12.340   7.490   6.254  1.0324  1.5433  2.4907
  260MOL0     H35057  12.245   7.630   6.306 -0.8784  0.5966  0.0625
  260MOL0     H35058  12.443   7.735   6.278  1.9082 -1.2695 -0.3242
  260MOL0     H35059  12.404   7.748   6.104  0.9380 -0.1294 -0.0357
  260MOL0     H35060  12.745   7.455   6.163  2.6474 -0.9309 -0.0353
  260MOL0     H35061  12.969   7.517   6.132  1.3412  1.1317 -0.3069
  260MOL0     H35062  13.329   7.549   6.220  0.3541  1.3352  1.4181
  260MOL0     H35063  13.581   7.566   6.197  0.5619 -1.5694 -1.8012
  260MOL0     H35064  13.715   7.759   6.223  1.0713 -0.1566  1.8165
  260MOL0     H35065  13.849   7.657   6.148  1.0014  1.2404  1.6846
  260MOL0     H35066  13.816   7.953   6.133 -1.9938 -0.7199  2.0756
  260MOL0     H35067  13.927   7.867   6.238  0.6779  1.2279 -0.4154
  260MOL0     H35068  14.075   7.783   6.084 -0.4407 -0.8331  0.7514
  260MOL0     H35069  13.948   7.772   5.958 -1.2486  2.9049 -1.6291
  260MOL0     H35070  14.079   8.024   6.035 -0.0418 -0.7424  0.4964
  260MOL0     H35071  13.937   8.010   5.945  0.8296  1.5984 -1.3821
  260MOL0     H35072  14.191   7.869   5.863  2.6918  2.5900  2.3444
  260MOL0     H35073  14.184   8.037   5.843 -0.3531  0.4943  3.1042
  260MOL0     H35074  13.965   7.849   5.734  3.2016 -3.4618 -0.5672
  260MOL0     H35075  13.975   8.025   5.697 -0.4207  0.0421 -0.2153
  260MOL0     H35076  14.190   7.983   5.580  1.0881 -0.1779 -1.5756
  260MOL0     H35077  14.047   7.919   5.499  1.1231 -0.4304  0.0224
  260MOL0     H35078  14.237   7.736   5.659  0.9410  1.3990  0.4178
  260MOL0     H35079  14.089   7.696   5.567 -0.7435  0.9614  0.9015
  260MOL0     H35080  13.539   7.822   5.860  0.0541  0.0063  0.0388
  260MOL0     H35081  13.289   7.836   5.895  1.9102 -1.5950 -3.6108
  260MOL0     H35082  12.838   7.916   6.047  1.5801 -0.4148 -0.7356
  260MOL0     H35083  12.602   7.851   6.085  2.1953  3.2984 -1.3664
  260MOL0     H35084  10.789   7.542   5.928  0.0703  0.8204  1.9360
  260MOL0     H35085  10.595   7.532   6.049 -1.6229  1.9204  0.2785
  260MOL0     H35086  10.214   7.458   6.159 -0.2969  0.5613  0.1105
  260MOL0     H35087  10.024   7.438   6.317 -0.3904 -1.9278 -1.1200
  260MOL0     H35088   9.756   7.463   6.445 -2.0246  0.0308  0.8998
  260MOL0     H35089   9.809   7.359   6.300 -0.9027  0.9678 -2.2881
  260MOL0     H35090   9.606   7.352   6.206 -2.6879  1.9532 -1.2994
  260MOL0     H35091   9.541   7.475   6.314  2.0241  1.2413 -1.0562
  260MOL0     H35092   9.550   7.318   6.501  0.1502 -0.5678 -0.3322
  260MOL0     H35093   9.632   7.192   6.418  1.3945  0.7472  0.1528
  260MOL0     H35094   9.434   7.226   6.250 -1.7493  0.9060  0.7005
  260MOL0     H35095   9.399   7.137   6.400 -0.0436 -2.4322 -2.7335
  260MOL0     H35096   9.166   7.496   6.461  0.6266 -0.8951  4.4455
  260MOL0     H35097   9.805   7.735   6.079 -0.8239 -0.8941 -1.6064
  260MOL0     H35098   9.871   7.819   5.883  1.3550 -0.4787 -1.1010
  260MOL0     H35099  10.035   7.879   5.918  0.4694 -0.0870  1.8556
  260MOL0     H35100  10.009   7.745   5.802  3.3450  1.2110 -0.0500
  261MOL0     O35101   4.748   9.324   5.493 -0.0619  0.2247 -0.0796
  261MOL0     C35102   4.663   9.369   5.568 -0.7939  0.2452 -1.1184
  261MOL0     O35103   4.671   9.373   5.704 -0.7701  0.0635  0.2727
  261MOL0     C35104   4.792   9.390   5.762  0.2378 -0.3622  0.3767
  261MOL0     C35105   4.826   9.320   5.884 -0.3640 -0.7099  0.2847
  261MOL0     C35106   4.937   9.365   5.952  0.0107  1.1020 -0.2938
  261MOL0     C35107   5.020   9.464   5.904  0.2092  0.0167  0.5100
  261MOL0     O35108   5.128   9.483   5.981  0.2388 -0.3439  0.7551
  261MOL0     C35109   5.229   9.575   5.943 -0.3471  0.4392 -0.2539
  261MOL0     C35110   5.346   9.561   6.033 -1.0042 -0.6428 -0.1185
  261MOL0     C35111   5.429   9.426   6.006  0.4755  0.6256  0.0885
  261MOL0     C35112   5.538   9.393   6.108 -0.1557  0.1974 -0.1245
  261MOL0     C35113   5.601   9.254   6.079 -1.3307  0.2546 -0.3899
  261MOL0     C35114   5.706   9.223   6.187  0.2735 -0.1744  0.1677
  261MOL0     C35115   5.839   9.294   6.162 -0.0204  0.1376  0.2631
  261MOL0     C35116   5.937   9.283   6.287 -0.7278  0.5527  0.5328
  261MOL0     N35117   5.905   9.374   6.401  0.8482  0.2516  0.6349
  261MOL0     C35118   5.867   9.505   6.381  0.1333 -0.4366  0.4245
  261MOL0     C35119   5.854   9.553   6.503  0.0762  1.1417  0.5821
  261MOL0     C35120   5.784   9.686   6.518  0.0215  0.2972 -0.8323
  261MOL0     C35121   5.656   9.714   6.437 -0.8207 -0.5008  0.3139
  261MOL0     C35122   5.554   9.600   6.470 -0.2885 -1.0020 -0.1819
  261MOL0     C35123   5.417   9.624   6.401  0.3695  0.2787  0.7321
  261MOL0     O35124   5.332   9.510   6.437 -0.0864 -0.6352 -0.5922
  261MOL0     C35125   5.213   9.497   6.379 -0.5722  0.2004 -0.6965
  261MOL0     C35126   5.109   9.582   6.395  0.6302 -0.2582  0.0055
  261MOL0     C35127   4.980   9.559   6.354  0.0338  0.1048 -0.6142
  261MOL0     C35128   4.951   9.431   6.301  0.7812  1.2605 -0.2957
  261MOL0     C35129   4.806   9.386   6.284 -0.4964 -0.3153  0.1947
  261MOL0     O35130   4.717   9.483   6.287  0.1410 -1.2627  0.1388
  261MOL0     C35131   4.592   9.459   6.231 -0.9455 -0.3336  0.4757
  261MOL0     C35132   4.572   9.458   6.088 -0.3965 -0.5281 -0.9402
  261MOL0     C35133   4.446   9.447   6.038  0.5678  0.3909  0.5198
  261MOL0     C35134   4.330   9.446   6.117 -1.1698 -0.0750 -0.3686
  261MOL0     O35135   4.215   9.441   6.046  0.7564 -0.4734 -0.4527
  261MOL0     C35136   4.107   9.529   6.085 -0.3940  0.1995 -0.9044
  261MOL0     C35137   4.001   9.497   5.978  0.7293 -0.0449 -0.1716
  261MOL0     C35138   3.870   9.568   6.017 -0.3780  0.1559 -0.4479
  261MOL0     C35139   3.779   9.551   5.892  0.3442  0.2711 -0.5698
  261MOL0     C35140   3.637   9.605   5.901 -0.4007 -0.0620  0.4158
  261MOL0     C35141   3.557   9.541   5.790  0.0224  0.4121 -0.9881
  261MOL0     C35142   3.413   9.577   5.800 -0.5122 -0.7251  0.4849
  261MOL0     C35143   3.391   9.729   5.789  0.4929 -0.9270 -0.3686
  261MOL0    Cl35144   3.400   9.776   5.622 -0.0358 -0.1089 -0.2183
  261MOL0     C35145   4.347   9.441   6.261  0.4562  0.0026  0.5177
  261MOL0     C35146   4.481   9.448   6.316  0.6979 -0.5656  0.1844
  261MOL0     O35147   4.790   9.277   6.240  0.5033 -0.0401  0.6124
  261MOL0     C35148   5.058   9.335   6.296 -0.0791  0.0477  0.5154
  261MOL0     C35149   5.189   9.376   6.318  0.3363  0.4872 -0.6315
  261MOL0     N35150   5.874   9.449   6.602 -0.1338 -0.4312  0.3824
  261MOL0     N35151   5.898   9.341   6.532  1.3908 -0.2940 -0.6932
  261MOL0     C35152   4.991   9.520   5.783  0.2730 -0.4644  0.7171
  261MOL0     C35153   4.871   9.495   5.720  0.3057  0.5410 -0.1864
  261MOL0     C35154   4.530   9.412   5.524 -0.7228  0.1397  0.1353
  261MOL0     C35155   4.442   9.485   5.606  0.6765 -0.7948 -0.6226
  261MOL0     C35156   4.324   9.550   5.557 -0.1544  0.2270 -0.2091
  261MOL0     C35157   4.289   9.541   5.426  0.5716  0.3713 -0.1068
  261MOL0     O35158   4.176   9.601   5.371  0.1494  0.2705  0.6340
  261MOL0     C35159   4.114   9.699   5.444 -0.4109  0.5397 -0.2041
  261MOL0     C35160   4.001   9.749   5.352  0.5492 -0.6407  0.1177
  261MOL0     C35161   3.920   9.623   5.310 -0.1239  0.0484  0.4485
  261MOL0     C35162   3.790   9.662   5.224  0.8526 -0.1361 -0.3935
  261MOL0     C35163   3.711   9.762   5.305  0.3976  0.5623 -1.0471
  261MOL0     C35164   3.646   9.836   5.376 -0.3544 -0.0682 -0.2861
  261MOL0     C35165   4.366   9.458   5.347 -0.5896  0.2859  0.2253
  261MOL0     C35166   4.486   9.401   5.388 -0.1122  0.6116 -0.2319
  261MOL0     C35167   4.561   9.324   5.276 -0.1633  0.6116 -0.8736
  261MOL0     H35168   4.769   9.233   5.915  0.4600 -0.2898  3.2787
  261MOL0     H35169   4.968   9.325   6.048  0.2351 -0.1038 -0.8528
  261MOL0     H35170   5.267   9.549   5.844  1.4540 -3.0393  1.1553
  261MOL0     H35171   5.192   9.677   5.943 -1.6265  0.0717  2.6675
  261MOL0     H35172   5.303   9.566   6.133 -3.6329  0.8612 -1.2341
  261MOL0     H35173   5.409   9.650   6.027 -1.7755 -0.0391  0.5205
  261MOL0     H35174   5.473   9.430   5.906 -1.4738 -0.5053 -0.8679
  261MOL0     H35175   5.354   9.346   6.006  0.0363  1.0000  1.4582
  261MOL0     H35176   5.612   9.474   6.100 -3.0489  3.1193  0.7071
  261MOL0     H35177   5.494   9.394   6.208  2.4219  0.0522  1.1028
  261MOL0     H35178   5.519   9.180   6.078 -0.3163 -0.9243  0.4436
  261MOL0     H35179   5.652   9.254   5.982  0.8169  1.6780  0.6760
  261MOL0     H35180   5.662   9.247   6.284 -0.6934 -3.4583  0.6850
  261MOL0     H35181   5.732   9.117   6.189 -1.3721 -0.6290  2.6138
  261MOL0     H35182   5.815   9.399   6.139 -0.0877 -0.0345 -0.4820
  261MOL0     H35183   5.886   9.250   6.074  2.3219  0.3982  1.3123
  261MOL0     H35184   5.935   9.178   6.320 -0.8121  0.5705  0.5831
  261MOL0     H35185   6.035   9.302   6.241 -1.2077 -0.5152 -1.0373
  261MOL0     H35186   5.868   9.557   6.286  0.9244  0.2664  0.7956
  261MOL0     H35187   5.755   9.702   6.622  1.6601  3.1894 -0.7273
  261MOL0     H35188   5.860   9.764   6.505  2.6321 -1.6427  1.3325
  261MOL0     H35189   5.615   9.810   6.468 -0.8026 -0.0427 -1.0297
  261MOL0     H35190   5.677   9.697   6.331  0.0993 -2.8465  0.8089
  261MOL0     H35191   5.527   9.608   6.576  0.2010 -1.0967 -0.0512
  261MOL0     H35192   5.606   9.511   6.434 -0.6462 -0.5929 -1.7891
  261MOL0     H35193   5.437   9.624   6.294  4.6104  1.1765  1.3343
  261MOL0     H35194   5.368   9.716   6.435  0.5193  0.3227  0.8302
  261MOL0     H35195   5.140   9.679   6.435 -0.3391  0.8281 -1.7230
  261MOL0     H35196   4.904   9.635   6.372 -0.3345 -0.3421 -0.2605
  261MOL0     H35197   4.657   9.441   6.023  0.1030 -1.9788  0.0332
  261MOL0     H35198   4.441   9.425   5.932  0.8095  1.4948  0.2663
  261MOL0     H35199   4.071   9.489   6.180 -0.3156 -0.5460 -1.1863
  261MOL0     H35200   4.131   9.636   6.081 -0.1554  0.1192 -3.5033
  261MOL0     H35201   4.032   9.529   5.878  2.6785  0.8913  0.6753
  261MOL0     H35202   3.990   9.389   5.964 -1.3128 -0.1221  1.5253
  261MOL0     H35203   3.831   9.519   6.107 -0.5525  0.2160 -0.4907
  261MOL0     H35204   3.880   9.677   6.012 -1.6320  0.2555 -4.0063
  261MOL0     H35205   3.774   9.443   5.880 -0.2666  0.1114  0.9596
  261MOL0     H35206   3.837   9.584   5.805  1.4098 -1.5931 -0.6253
  261MOL0     H35207   3.641   9.714   5.892 -1.7552 -0.1200 -1.3118
  261MOL0     H35208   3.608   9.572   6.001  1.1733 -0.6079  0.7310
  261MOL0     H35209   3.595   9.570   5.692  0.7396  1.3547 -0.4387
  261MOL0     H35210   3.569   9.432   5.796  0.2148  0.0357 -5.0113
  261MOL0     H35211   3.376   9.536   5.894 -0.8795 -0.9092  0.2650
  261MOL0     H35212   3.358   9.532   5.717 -0.9769  0.5493  0.0798
  261MOL0     H35213   3.292   9.737   5.835  2.3471 -2.9924  4.7442
  261MOL0     H35214   3.459   9.789   5.851 -1.2940  0.7068  0.1164
  261MOL0     H35215   4.261   9.422   6.324 -2.0159 -5.1465 -3.6879
  261MOL0     H35216   4.496   9.440   6.423 -0.3073 -1.0855  0.2964
  261MOL0     H35217   5.047   9.234   6.257 -0.1182  0.3774 -0.3649
  261MOL0     H35218   5.277   9.314   6.306 -0.9225 -1.7375  0.7936
  261MOL0     H35219   5.051   9.600   5.742 -3.6906  2.7608  0.5049
  261MOL0     H35220   4.864   9.546   5.624 -0.2648 -1.0822 -1.0421
  261MOL0     H35221   4.454   9.494   5.713  1.2969 -1.4864 -0.6262
  261MOL0     H35222   4.260   9.600   5.629 -0.7570  3.2248 -2.6316
  261MOL0     H35223   4.187   9.778   5.465 -1.4332  1.2527  0.7831
  261MOL0     H35224   4.072   9.650   5.532  1.0007 -0.4778 -0.0786
  261MOL0     H35225   4.047   9.803   5.269 -0.2258  1.0869  0.7653
  261MOL0     H35226   3.937   9.822   5.404 -0.8744 -1.6545 -0.1541
  261MOL0     H35227   3.891   9.557   5.391 -0.8345 -0.2313 -0.0216
  261MOL0     H35228   3.978   9.555   5.245  0.3253 -2.2713  3.1019
  261MOL0     H35229   3.817   9.707   5.128  0.4305 -1.9529 -1.4004
  261MOL0     H35230   3.740   9.567   5.205  3.1618 -1.6874  0.8432
  261MOL0     H35231   3.598   9.914   5.431  0.3958  1.2927 -1.4999
  261MOL0     H35232   4.345   9.448   5.241 -0.6842 -0.7362  0.3367
  261MOL0     H35233   4.498   9.289   5.193 -0.1988 -3.3187  0.5867
  261MOL0     H35234   4.633   9.401   5.248 -1.1026  1.4717 -0.9839
  261MOL0     H35235   4.607   9.228   5.303  0.2285  0.4730 -1.9532
  262MOL0     O35236   5.803   7.013   0.385 -0.1044  0.3457 -0.9374
  262MOL0     C35237   5.778   7.090   0.300 -0.4051 -0.2450 -0.4788
  262MOL0     O35238   5.863   7.192   0.261 -0.0507  0.0317 -0.4065
  262MOL0     C35239   5.981   7.197   0.324  0.3742  0.0592 -0.3140
  262MOL0     C35240   5.985   7.256   0.454  0.5600 -0.7740 -0.5745
  262MOL0     C35241   6.109   7.250   0.520  0.3109 -1.0405 -0.6209
  262MOL0     C35242   6.226   7.182   0.470  0.1131  0.2111 -1.1097
  262MOL0     O35243   6.347   7.190   0.531 -0.3873 -0.0264  0.0789
  262MOL0     C35244   6.339   7.165   0.677  1.0142 -0.3550 -0.8535
  262MOL0     C35245   6.471   7.120   0.729 -0.6500  0.7140  0.7247
  262MOL0     C35246   6.523   6.986   0.666 -0.6164  0.7352 -0.1161
  262MOL0     C35247   6.677   7.000   0.633 -0.4591  0.6316  0.5850
  262MOL0     C35248   6.751   6.870   0.592  0.7097 -0.0509 -0.0019
  262MOL0     C35249   6.906   6.897   0.602  0.3052 -0.9737  0.5403
  262MOL0     C35250   6.981   6.769   0.601 -0.1291  1.1841 -0.8928
  262MOL0     C35251   6.978   6.686   0.725  0.1490  0.5050 -0.5112
  262MOL0     N35252   7.088   6.588   0.714 -0.1453 -0.5443  0.0911
  262MOL0     C35253   7.216   6.606   0.771  1.0079 -0.4506  0.8772
  262MOL0     C35254   7.280   6.492   0.736  0.1340 -0.1447 -0.0614
  262MOL0     C35255   7.411   6.440   0.789 -0.5219  0.3230  0.5865
  262MOL0     C35256   7.527   6.534   0.741 -0.6778 -0.6759  0.8074
  262MOL0     C35257   7.640   6.515   0.843  0.5220  0.4832  0.0264
  262MOL0     C35258   7.705   6.379   0.824 -0.4166  0.5289 -0.0150
  262MOL0     O35259   7.769   6.371   0.695  0.0371  0.0677 -0.1123
  262MOL0     C35260   7.902   6.424   0.688  0.4341  0.3927  0.3347
  262MOL0     C35261   7.958   6.494   0.788  0.0161  0.2027  0.5323
  262MOL0     C35262   8.084   6.554   0.768  0.0388  0.0489 -0.0159
  262MOL0     C35263   8.153   6.540   0.648  0.1623  0.5041 -0.5782
  262MOL0     C35264   8.293   6.586   0.625 -0.0148 -0.4350 -1.4264
  262MOL0     O35265   8.342   6.670   0.723 -0.8110 -0.0420 -0.1201
  262MOL0     C35266   8.468   6.728   0.710  0.6495  0.2763  0.2755
  262MOL0     C35267   8.529   6.767   0.587 -0.1399  0.3655 -0.2507
  262MOL0     C35268   8.659   6.821   0.590 -0.8091  0.3647 -0.8787
  262MOL0     C35269   8.728   6.850   0.705 -0.0021  0.1474  0.6080
  262MOL0     O35270   8.853   6.910   0.698  0.8710 -0.0154  0.0980
  262MOL0     C35271   8.904   6.974   0.807 -1.3292  0.0185  0.0794
  262MOL0     C35272   9.022   7.065   0.762  0.0277  0.1411 -0.3602
  262MOL0     C35273   9.160   6.996   0.738  0.1091 -0.3604  0.2144
  262MOL0     C35274   9.235   6.962   0.864  0.4251  0.2210  0.1730
  262MOL0     C35275   9.362   6.880   0.828 -1.3301 -0.1854  0.5197
  262MOL0     C35276   9.402   6.815   0.961  0.4009 -0.3728 -0.2774
  262MOL0     C35277   9.527   6.729   0.946 -0.1150  0.1441 -0.1127
  262MOL0     C35278   9.649   6.818   0.984  0.2352 -0.3653  0.0586
  262MOL0    Cl35279   9.784   6.711   0.993  0.0226  0.0043 -0.4362
  262MOL0     C35280   8.669   6.814   0.820  0.0848  0.3698 -0.2102
  262MOL0     C35281   8.547   6.749   0.825 -0.4991 -0.0507  0.2280
  262MOL0     O35282   8.352   6.548   0.528  0.1419 -0.3686  0.5519
  262MOL0     C35283   8.083   6.468   0.541 -0.9500 -0.1388  0.3803
  262MOL0     C35284   7.960   6.416   0.560 -0.3883 -0.0862  0.1450
  262MOL0     N35285   7.202   6.423   0.643 -0.0618 -0.4105  0.3768
  262MOL0     N35286   7.086   6.481   0.635 -0.0137  0.3232  0.5010
  262MOL0     C35287   6.218   7.129   0.341 -0.1257 -0.0337 -0.5823
  262MOL0     C35288   6.093   7.129   0.275 -0.6639 -0.9797  0.9231
  262MOL0     C35289   5.651   7.077   0.234 -0.4918  0.5096  0.1940
  262MOL0     C35290   5.550   7.011   0.313 -0.2021  0.5499  0.2333
  262MOL0     C35291   5.417   7.006   0.266  0.6065 -0.1945 -0.3660
  262MOL0     C35292   5.385   7.044   0.136  0.7155 -0.2388  0.1575
  262MOL0     O35293   5.257   7.007   0.091  0.4495 -0.0677  0.5489
  262MOL0     C35294   5.193   7.096  -0.006 -0.0234  0.1207 -0.1676
  262MOL0     C35295   5.174   7.034  -0.144  0.6374  0.2099  0.1157
  262MOL0     C35296   5.061   6.922  -0.147 -0.1408  0.1250  0.2965
  262MOL0     C35297   4.922   6.981  -0.147 -0.4771  0.3086  0.5076
  262MOL0     C35298   4.848   6.923  -0.034 -0.2197  0.1367  0.7088
  262MOL0     C35299   4.796   6.895   0.066 -0.4642 -0.1004 -0.3600
  262MOL0     C35300   5.483   7.106   0.051 -0.3329  0.0398 -0.0204
  262MOL0     C35301   5.617   7.119   0.103 -0.2145  0.3790 -0.6223
  262MOL0     C35302   5.712   7.178  -0.003  0.3975 -0.2737 -0.2448
  262MOL0     H35303   5.906   7.316   0.496  1.6555  1.2020 -1.2086
  262MOL0     H35304   6.119   7.317   0.605  3.3461  2.9109 -3.6839
  262MOL0     H35305   6.311   7.256   0.730  0.0155  0.6648 -3.0386
  262MOL0     H35306   6.260   7.091   0.692  0.4881  0.5790  1.3110
  262MOL0     H35307   6.461   7.111   0.837  1.6758 -1.2197  0.8561
  262MOL0     H35308   6.548   7.197   0.715  2.1626 -1.9437  0.6198
  262MOL0     H35309   6.470   6.956   0.575 -2.4463 -0.8681  1.3898
  262MOL0     H35310   6.516   6.899   0.732  1.0581  1.3800  0.9713
  262MOL0     H35311   6.690   7.070   0.549 -2.9398 -1.4935 -1.7864
  262MOL0     H35312   6.715   7.027   0.732 -1.4174  0.9458  0.8756
  262MOL0     H35313   6.719   6.794   0.664  0.8919  0.0994  0.2386
  262MOL0     H35314   6.722   6.842   0.490  0.1129 -0.6555  0.3229
  262MOL0     H35315   6.933   6.964   0.519 -1.2660  1.3139  1.7508
  262MOL0     H35316   6.930   6.963   0.685 -1.0913  1.5689 -0.9263
  262MOL0     H35317   7.084   6.799   0.580 -0.5476  1.7016 -2.3801
  262MOL0     H35318   6.944   6.708   0.518 -1.5192 -0.8726  1.1098
  262MOL0     H35319   6.996   6.752   0.811 -0.4407 -0.2977  0.2514
  262MOL0     H35320   6.887   6.627   0.737  1.3669 -1.0827  1.4635
  262MOL0     H35321   7.251   6.674   0.849  2.4664 -0.3750  0.1930
  262MOL0     H35322   7.398   6.424   0.897  1.5680 -2.3289  0.5416
  262MOL0     H35323   7.424   6.345   0.738 -0.9200  0.9546 -0.7213
  262MOL0     H35324   7.550   6.509   0.637 -1.6885  2.3026 -0.2363
  262MOL0     H35325   7.498   6.639   0.742 -0.7088 -0.6851  0.8251
  262MOL0     H35326   7.607   6.525   0.947  0.5649 -2.5747  0.4152
  262MOL0     H35327   7.715   6.590   0.817 -0.0846  0.6356 -1.3589
  262MOL0     H35328   7.635   6.296   0.812  2.1861 -1.4006 -4.8386
  262MOL0     H35329   7.764   6.351   0.912  0.4631 -0.8573 -0.9864
  262MOL0     H35330   7.909   6.531   0.877  1.0118 -1.0035  1.6180
  262MOL0     H35331   8.127   6.628   0.835 -0.2793  0.0219  0.2212
  262MOL0     H35332   8.488   6.761   0.487  0.3833 -0.7610 -0.4162
  262MOL0     H35333   8.704   6.844   0.494  0.2637 -0.8616 -0.6929
  262MOL0     H35334   8.827   7.038   0.853 -1.0457  0.3151  0.1457
  262MOL0     H35335   8.937   6.909   0.889  1.9800  1.4757  0.0772
  262MOL0     H35336   8.991   7.117   0.672  1.7579 -0.6239 -1.4424
  262MOL0     H35337   9.027   7.141   0.841 -2.5098 -1.2467  1.2925
  262MOL0     H35338   9.151   6.905   0.678  0.7542 -1.7378  2.0844
  262MOL0     H35339   9.217   7.065   0.675  2.8617 -0.1415  2.6894
  262MOL0     H35340   9.169   6.916   0.937 -0.7406  1.7237  0.1199
  262MOL0     H35341   9.261   7.050   0.924  2.9362 -0.5529  0.3601
  262MOL0     H35342   9.442   6.947   0.794 -2.5423  1.6170  1.0644
  262MOL0     H35343   9.347   6.801   0.754  0.0692 -0.5347  0.5836
  262MOL0     H35344   9.410   6.878   1.050  0.4382 -2.1644  1.0392
  262MOL0     H35345   9.318   6.747   0.978  0.1302 -1.0820 -3.8036
  262MOL0     H35346   9.539   6.697   0.842 -0.1665 -0.4905  0.0713
  262MOL0     H35347   9.516   6.644   1.014  0.6224 -0.8477 -1.1799
  262MOL0     H35348   9.670   6.893   0.908  0.4269 -0.3644  0.1128
  262MOL0     H35349   9.634   6.860   1.083 -0.4468 -3.5041  1.4126
  262MOL0     H35350   8.718   6.829   0.916 -0.6700 -1.1809  0.4578
  262MOL0     H35351   8.498   6.709   0.913 -0.9285 -1.9880 -0.8181
  262MOL0     H35352   8.123   6.464   0.440 -0.7347 -2.1600  0.5199
  262MOL0     H35353   7.920   6.377   0.467 -3.2665  0.2747  1.1474
  262MOL0     H35354   6.305   7.086   0.293  0.3380  0.5535 -0.2810
  262MOL0     H35355   6.093   7.074   0.181  2.2065  0.5838 -0.1186
  262MOL0     H35356   5.565   6.968   0.411 -2.8802  2.7723  1.7578
  262MOL0     H35357   5.344   6.953   0.326  2.6209 -1.9702  0.6761
  262MOL0     H35358   5.248   7.190  -0.016  1.1645 -0.5150  0.1021
  262MOL0     H35359   5.091   7.120   0.025 -0.3635  1.0434 -1.8577
  262MOL0     H35360   5.263   6.977  -0.173 -0.1083 -0.8022 -0.2689
  262MOL0     H35361   5.156   7.106  -0.224  0.1090 -0.2908 -0.2337
  262MOL0     H35362   5.067   6.847  -0.067 -0.1150 -2.0022 -1.5858
  262MOL0     H35363   5.092   6.862  -0.234  1.5915 -0.7704  1.4691
  262MOL0     H35364   4.924   7.088  -0.125 -0.1182  0.6166 -0.9320
  262MOL0     H35365   4.870   6.985  -0.243  2.2653  0.1243 -1.0865
  262MOL0     H35366   4.735   6.860   0.146  1.2689  0.4210  1.2602
  262MOL0     H35367   5.458   7.130  -0.052  0.9569  0.3122 -0.2863
  262MOL0     H35368   5.704   7.287   0.004  1.8831 -0.1176 -0.5520
  262MOL0     H35369   5.819   7.155   0.010  0.2683  0.1353  1.7876
  262MOL0     H35370   5.693   7.135  -0.102  2.8919 -1.2117 -0.4121
  263MOL0     O35371   3.388   8.189   0.106  0.5881 -0.6861 -0.1181
  263MOL0     C35372   3.381   8.216   0.230  0.3210 -0.6833  0.1598
  263MOL0     O35373   3.475   8.290   0.304 -0.3368  0.2502  0.3701
  263MOL0     C35374   3.580   8.362   0.246 -0.4552 -1.1077 -0.7031
  263MOL0     C35375   3.586   8.412   0.120  0.3933  0.3002 -0.6802
  263MOL0     C35376   3.697   8.478   0.064 -1.2704  0.0370  0.8552
  263MOL0     C35377   3.808   8.500   0.144  0.2185 -0.0952 -0.3097
  263MOL0     O35378   3.938   8.539   0.112  0.1657  0.1117 -0.1198
  263MOL0     C35379   4.007   8.463   0.014  0.7077 -1.0081  0.3488
  263MOL0     C35380   4.146   8.517   0.028  0.5269 -0.3869  0.0872
  263MOL0     C35381   4.232   8.439  -0.066 -0.3210 -0.1226  0.6555
  263MOL0     C35382   4.374   8.502  -0.064  0.0133  0.3063 -0.0204
  263MOL0     C35383   4.476   8.415  -0.135  0.8530 -0.3186  0.0820
  263MOL0     C35384   4.498   8.275  -0.065 -0.0623  0.4189 -0.5553
  263MOL0     C35385   4.606   8.208  -0.149  0.2353 -0.5552 -0.4183
  263MOL0     C35386   4.634   8.061  -0.111  0.3491 -0.0994 -0.5055
  263MOL0     N35387   4.607   8.022   0.028 -0.4649  0.3146  0.1159
  263MOL0     C35388   4.493   7.968   0.079  0.4638 -0.5013 -1.0030
  263MOL0     C35389   4.498   7.985   0.212  0.5671  0.3440 -0.0893
  263MOL0     C35390   4.403   7.921   0.307  0.3012  0.4583 -0.1401
  263MOL0     C35391   4.440   7.934   0.457 -0.0131 -0.0184 -0.1833
  263MOL0     C35392   4.385   7.833   0.557  0.4005  0.7505 -0.3903
  263MOL0     C35393   4.235   7.816   0.521 -0.5151 -0.5211  0.0181
  263MOL0     O35394   4.178   7.754   0.639  0.2785  1.0323  0.3407
  263MOL0     C35395   4.070   7.672   0.629 -0.2043  2.1226  0.3547
  263MOL0     C35396   3.980   7.654   0.525  1.1266 -0.3266  0.8648
  263MOL0     C35397   3.863   7.579   0.544 -0.2178  0.2901  0.7127
  263MOL0     C35398   3.835   7.510   0.664  0.0677 -0.6255  0.8086
  263MOL0     C35399   3.696   7.435   0.676 -0.4437  0.7450 -0.2044
  263MOL0     O35400   3.685   7.357   0.788 -0.9200 -0.6667  0.0670
  263MOL0     C35401   3.596   7.258   0.815 -0.3452 -0.3128  0.4044
  263MOL0     C35402   3.629   7.183   0.930 -0.4330 -0.2226  0.3021
  263MOL0     C35403   3.529   7.103   0.989  0.2355  0.0095 -0.1667
  263MOL0     C35404   3.395   7.092   0.930  0.1124  0.7280  1.1144
  263MOL0     O35405   3.288   7.018   0.981  0.1019  0.0356  0.2412
  263MOL0     C35406   3.291   6.953   1.104 -0.2766 -1.1103  0.6180
  263MOL0     C35407   3.342   6.808   1.065 -0.7350 -0.6666 -0.0299
  263MOL0     C35408   3.236   6.730   0.979  0.2727  0.1021  0.0292
  263MOL0     C35409   3.285   6.584   0.970 -0.1494  0.1486 -0.6541
  263MOL0     C35410   3.201   6.508   0.866 -0.6518 -0.2323 -0.2943
  263MOL0     C35411   3.215   6.358   0.900 -0.5099 -0.2684 -0.5001
  263MOL0     C35412   3.119   6.271   0.817  0.2271 -1.2073  0.2652
  263MOL0     C35413   3.114   6.127   0.856  0.0779 -0.2507 -0.1491
  263MOL0    Cl35414   2.986   6.042   0.765 -0.2346 -0.0031  0.0611
  263MOL0     C35415   3.382   7.158   0.803  0.7624 -0.4862  0.0718
  263MOL0     C35416   3.474   7.242   0.748 -0.2956 -0.4046 -0.2373
  263MOL0     O35417   3.627   7.433   0.574 -0.5131 -0.1487 -0.5107
  263MOL0     C35418   3.928   7.521   0.765  0.9139  0.5057  0.3112
  263MOL0     C35419   4.044   7.600   0.747  0.1426  1.1013 -0.5827
  263MOL0     N35420   4.623   8.040   0.238 -0.2721  0.3346 -0.1602
  263MOL0     N35421   4.683   8.067   0.132  0.5254 -0.1591 -0.2191
  263MOL0     C35422   3.803   8.460   0.277  0.5320  0.1472 -0.6028
  263MOL0     C35423   3.695   8.382   0.329 -0.2764 -0.1070  0.3157
  263MOL0     C35424   3.282   8.140   0.312  0.3758  0.6632  0.4996
  263MOL0     C35425   3.311   8.096   0.448 -0.3689 -0.4021  0.3242
  263MOL0     C35426   3.231   8.015   0.522 -0.5480 -0.3853 -0.1724
  263MOL0     C35427   3.110   7.978   0.471  0.1516 -0.2084 -0.2340
  263MOL0     O35428   3.042   7.898   0.556 -0.1300 -0.7820  0.1312
  263MOL0     C35429   2.902   7.874   0.539 -0.4743 -0.3271 -0.1078
  263MOL0     C35430   2.840   7.879   0.672 -0.3476  0.1842  0.0025
  263MOL0     C35431   2.705   7.797   0.685 -0.2761 -0.4966 -0.2411
  263MOL0     C35432   2.618   7.795   0.560  0.2286 -0.0008  0.0258
  263MOL0     C35433   2.512   7.704   0.587  0.4467  0.6272 -0.2039
  263MOL0     C35434   2.423   7.622   0.608  0.1187  0.2520 -0.3026
  263MOL0     C35435   3.069   8.031   0.346  0.7054 -0.5293  0.1098
  263MOL0     C35436   3.155   8.099   0.260 -0.5851 -0.0818 -0.1609
  263MOL0     C35437   3.106   8.148   0.128 -0.9344 -0.6760  0.7610
  263MOL0     H35438   3.500   8.393   0.057  0.8826  1.2716 -1.6756
  263MOL0     H35439   3.708   8.493  -0.043  0.8675 -2.4408  0.6077
  263MOL0     H35440   3.994   8.356   0.033 -0.8918 -1.2977 -2.0296
  263MOL0     H35441   3.976   8.485  -0.088  2.6353  2.7746  0.4034
  263MOL0     H35442   4.186   8.509   0.129 -0.6713  0.6173  0.6647
  263MOL0     H35443   4.146   8.622  -0.001  2.0616 -0.6554 -1.0108
  263MOL0     H35444   4.185   8.437  -0.164 -1.4766 -0.9556  1.2045
  263MOL0     H35445   4.228   8.334  -0.034  3.4876 -0.7218 -0.2754
  263MOL0     H35446   4.362   8.597  -0.117 -1.3104 -0.3401 -0.9524
  263MOL0     H35447   4.407   8.515   0.039  0.9806 -0.3134 -0.2434
  263MOL0     H35448   4.446   8.380  -0.234 -1.8501  0.4254  0.5687
  263MOL0     H35449   4.566   8.476  -0.145  1.1259  0.0681  3.5683
  263MOL0     H35450   4.542   8.285   0.035  0.6460  0.4999 -0.8673
  263MOL0     H35451   4.406   8.217  -0.057 -0.0130  0.4152  0.0084
  263MOL0     H35452   4.694   8.267  -0.122  2.1528 -2.6979 -1.6987
  263MOL0     H35453   4.593   8.212  -0.257  1.7608  0.5958 -0.5822
  263MOL0     H35454   4.575   8.000  -0.180  0.2367  0.4138 -0.8778
  263MOL0     H35455   4.741   8.046  -0.126  0.3532 -2.0097  1.0581
  263MOL0     H35456   4.403   7.933   0.029  1.7387  0.2332 -4.0509
  263MOL0     H35457   4.308   7.971   0.282  0.7464  0.4932 -1.8994
  263MOL0     H35458   4.383   7.816   0.284 -1.9844  0.0563  2.9882
  263MOL0     H35459   4.549   7.935   0.470 -0.3163  1.8250  3.2350
  263MOL0     H35460   4.413   8.031   0.500  5.1549  1.6343  0.0680
  263MOL0     H35461   4.402   7.869   0.659 -0.2381  0.6213 -0.2354
  263MOL0     H35462   4.444   7.742   0.546  1.7494  1.7675 -2.2672
  263MOL0     H35463   4.227   7.748   0.436 -1.0759 -0.6171  0.1398
  263MOL0     H35464   4.177   7.906   0.500 -0.3456 -1.0457 -3.1691
  263MOL0     H35465   3.984   7.709   0.432 -1.8540 -2.0682 -0.4311
  263MOL0     H35466   3.795   7.584   0.459  0.7565  0.3154 -0.0746
  263MOL0     H35467   3.726   7.206   0.974 -0.5962  0.0774  0.5085
  263MOL0     H35468   3.541   7.056   1.086  1.9844  1.2365  0.2653
  263MOL0     H35469   3.355   7.002   1.178 -1.7839 -1.3403  2.1194
  263MOL0     H35470   3.188   6.948   1.138 -0.0492 -0.3769  1.4343
  263MOL0     H35471   3.438   6.816   1.014 -0.3612  0.2821  0.8046
  263MOL0     H35472   3.353   6.752   1.159  0.3261  2.7908  2.0639
  263MOL0     H35473   3.136   6.755   1.016 -0.0920  1.3520 -1.6904
  263MOL0     H35474   3.237   6.758   0.873 -1.4860 -0.8958 -0.3093
  263MOL0     H35475   3.266   6.542   1.069  0.7243 -0.1017 -0.5845
  263MOL0     H35476   3.391   6.578   0.942  0.4712  1.9368  1.0455
  263MOL0     H35477   3.238   6.529   0.766  0.4105 -2.3988 -0.4159
  263MOL0     H35478   3.096   6.539   0.863 -0.0084  2.4613  1.3775
  263MOL0     H35479   3.318   6.325   0.884 -0.0318  1.3894 -1.0207
  263MOL0     H35480   3.205   6.342   1.008  1.6559  0.6546 -0.1114
  263MOL0     H35481   3.149   6.263   0.712  0.5429 -1.9162  0.4080
  263MOL0     H35482   3.019   6.313   0.831  0.2429 -1.3323  0.7587
  263MOL0     H35483   3.209   6.078   0.833  0.7905  1.9826 -2.4378
  263MOL0     H35484   3.094   6.126   0.963 -1.0462  1.0418 -0.3278
  263MOL0     H35485   3.288   7.149   0.750  2.2145 -3.3175 -2.2859
  263MOL0     H35486   3.458   7.299   0.657  1.3351 -1.0821 -0.9946
  263MOL0     H35487   3.918   7.452   0.848  1.7904 -0.0881 -0.0612
  263MOL0     H35488   4.100   7.615   0.839 -1.0880  2.8512 -0.0759
  263MOL0     H35489   3.882   8.479   0.350 -1.6056  0.2060  1.8225
  263MOL0     H35490   3.702   8.348   0.432  0.3743  0.9581  0.6361
  263MOL0     H35491   3.401   8.146   0.484 -0.2969  0.5739 -1.1033
  263MOL0     H35492   3.262   7.984   0.622  0.2527 -0.8204 -0.5462
  263MOL0     H35493   2.891   7.779   0.487 -0.0321  1.0285 -2.8271
  263MOL0     H35494   2.856   7.952   0.477  3.0763  1.4006 -0.8004
  263MOL0     H35495   2.829   7.981   0.711  0.6761 -0.5229  2.3037
  263MOL0     H35496   2.912   7.831   0.740  0.3258  0.7724 -0.2822
  263MOL0     H35497   2.654   7.856   0.762  2.0269  1.1814  0.1207
  263MOL0     H35498   2.716   7.694   0.719  2.9592  0.0367  0.7559
  263MOL0     H35499   2.572   7.892   0.538 -1.1985  0.0079  2.5976
  263MOL0     H35500   2.676   7.767   0.472 -1.5311  2.0727 -1.8866
  263MOL0     H35501   2.341   7.557   0.630 -0.1005  1.1355  1.7629
  263MOL0     H35502   2.964   8.022   0.317  0.1428  0.9107  1.5748
  263MOL0     H35503   3.112   8.257   0.120 -0.7588 -0.4493  3.1084
  263MOL0     H35504   3.156   8.095   0.047 -1.1394 -0.6522  0.6190
  263MOL0     H35505   2.997   8.135   0.130 -0.8902 -1.0331  2.5733
  264MOL0     O35506   3.236   3.214   6.961 -0.1538  0.0757  0.1626
  264MOL0     C35507   3.236   3.283   6.857  0.2244 -0.7769 -0.1477
  264MOL0     O35508   3.344   3.326   6.789 -0.5656  0.2130 -0.6395
  264MOL0     C35509   3.469   3.304   6.850  0.2085 -0.8928  0.3970
  264MOL0     C35510   3.566   3.240   6.778  0.1436  0.0452  0.0095
  264MOL0     C35511   3.696   3.215   6.828 -0.2535  0.0828  0.3479
  264MOL0     C35512   3.729   3.261   6.954  0.3494  0.3833 -0.9582
  264MOL0     O35513   3.860   3.242   7.002  0.1460  0.1369 -0.0771
  264MOL0     C35514   3.905   3.265   7.138  0.4709  0.6091  0.2563
  264MOL0     C35515   4.050   3.242   7.167 -0.9680 -0.1728  0.0580
  264MOL0     C35516   4.132   3.350   7.100 -0.0462 -0.0882  0.6048
  264MOL0     C35517   4.284   3.351   7.139 -0.9726  0.6408  0.5568
  264MOL0     C35518   4.318   3.360   7.284 -0.7460  0.3685  0.5608
  264MOL0     C35519   4.431   3.474   7.294  0.4017  0.1461  0.1202
  264MOL0     C35520   4.503   3.460   7.430  0.3047  0.5861  0.2564
  264MOL0     C35521   4.621   3.560   7.435  0.5021  0.0948  0.9032
  264MOL0     N35522   4.719   3.529   7.545  0.6437  0.3513  0.7897
  264MOL0     C35523   4.807   3.426   7.547 -0.7072 -0.1596 -0.3520
  264MOL0     C35524   4.876   3.440   7.661 -0.2253 -0.2706 -0.3474
  264MOL0     C35525   4.984   3.338   7.695 -0.0163  0.1550 -0.6163
  264MOL0     C35526   4.942   3.252   7.811 -0.1044  0.1015  0.0690
  264MOL0     C35527   5.051   3.145   7.832  0.1253  0.6792 -0.0365
  264MOL0     C35528   5.033   3.026   7.747 -0.3409  0.5137 -0.1567
  264MOL0     O35529   5.118   2.927   7.792  0.0368  0.3383 -0.0415
  264MOL0     C35530   5.255   2.938   7.762 -0.2679  0.4841  0.1558
  264MOL0     C35531   5.300   3.009   7.657 -0.8862  0.2838 -0.3890
  264MOL0     C35532   5.437   3.018   7.633 -0.1694  1.2064  0.5362
  264MOL0     C35533   5.539   2.946   7.712  0.0631 -0.3451 -0.7495
  264MOL0     C35534   5.680   2.956   7.686 -0.3144  0.6432 -0.0667
  264MOL0     O35535   5.767   2.877   7.767 -0.1011  0.0541  0.2354
  264MOL0     C35536   5.897   2.888   7.730 -1.1476  0.2523  0.3185
  264MOL0     C35537   5.990   2.985   7.769 -0.6270 -0.0396 -0.2957
  264MOL0     C35538   6.127   2.973   7.732 -0.0828 -0.0758 -0.0803
  264MOL0     C35539   6.177   2.868   7.655  0.3764  0.1087  0.5717
  264MOL0     O35540   6.305   2.861   7.602  0.0633 -0.0508 -0.3852
  264MOL0     C35541   6.414   2.923   7.676  0.1328 -0.4638 -0.0802
  264MOL0     C35542   6.523   2.817   7.684  0.4975 -0.9783 -0.2296
  264MOL0     C35543   6.652   2.896   7.712 -0.7348  0.0395 -1.1518
  264MOL0     C35544   6.766   2.793   7.716 -0.5285  0.2271 -0.4913
  264MOL0     C35545   6.901   2.865   7.725 -0.4904 -0.0474 -0.0549
  264MOL0     C35546   7.025   2.776   7.704 -0.1443  0.2099  0.6335
  264MOL0     C35547   7.137   2.783   7.813 -0.4638 -0.3355  0.0875
  264MOL0     C35548   7.256   2.672   7.790  0.3991  0.7545 -0.9699
  264MOL0    Cl35549   7.367   2.665   7.926  0.1159  0.1457  0.0448
  264MOL0     C35550   6.085   2.761   7.631  0.2122 -0.2682  0.3990
  264MOL0     C35551   5.950   2.776   7.664  1.1477 -0.0130  0.2971
  264MOL0     O35552   5.715   3.034   7.600  0.2626 -0.0624  0.1068
  264MOL0     C35553   5.485   2.865   7.817 -0.6915 -0.5083 -0.4647
  264MOL0     C35554   5.350   2.866   7.840 -0.6293 -0.4757 -0.5687
  264MOL0     N35555   4.842   3.554   7.725  0.7194 -0.0415  0.0489
  264MOL0     N35556   4.748   3.608   7.651 -0.0787 -0.5172 -0.5174
  264MOL0     C35557   3.630   3.321   7.036 -0.6216  0.2005 -0.4390
  264MOL0     C35558   3.501   3.327   6.987  0.4496  0.1721 -0.6054
  264MOL0     C35559   3.120   3.349   6.820  0.5691 -1.2372 -0.4800
  264MOL0     C35560   3.128   3.473   6.747 -0.5107  0.8392 -0.2803
  264MOL0     C35561   3.020   3.549   6.719 -0.5407  0.4783 -0.5697
  264MOL0     C35562   2.896   3.519   6.762 -0.0016  0.2812  0.8939
  264MOL0     O35563   2.805   3.615   6.743  0.5548 -0.3186  0.2104
  264MOL0     C35564   2.670   3.581   6.775  0.7289 -0.3946  0.9239
  264MOL0     C35565   2.602   3.720   6.747 -0.6503  0.8965 -0.3214
  264MOL0     C35566   2.461   3.717   6.801 -0.0869 -0.8566 -1.0321
  264MOL0     C35567   2.393   3.848   6.802 -0.5752  0.2663 -0.4841
  264MOL0     C35568   2.374   3.908   6.667  0.6323  0.3953 -0.0320
  264MOL0     C35569   2.389   3.980   6.571  0.3615  0.8960 -0.5090
  264MOL0     C35570   2.880   3.395   6.823  0.1713  0.4299 -0.6436
  264MOL0     C35571   2.989   3.313   6.865 -0.3137 -0.5412  0.5376
  264MOL0     C35572   2.953   3.186   6.932  0.7304  0.1175 -0.0462
  264MOL0     H35573   3.539   3.202   6.680  0.4645  0.1839 -0.1336
  264MOL0     H35574   3.781   3.189   6.766  0.6630  0.9232  1.2062
  264MOL0     H35575   3.884   3.365   7.178  1.2070  0.2953  1.5008
  264MOL0     H35576   3.847   3.189   7.192 -1.0307 -1.0150 -3.3067
  264MOL0     H35577   4.088   3.147   7.128  0.2615 -0.7913  2.5250
  264MOL0     H35578   4.071   3.245   7.275  0.2805  1.8235 -0.1897
  264MOL0     H35579   4.108   3.455   7.119  1.2115  0.3128  0.0945
  264MOL0     H35580   4.119   3.329   6.993  1.6130 -2.0670  0.7308
  264MOL0     H35581   4.337   3.265   7.097 -1.2942  1.2628 -1.2086
  264MOL0     H35582   4.329   3.436   7.086  0.4383  0.0588  0.7849
  264MOL0     H35583   4.230   3.391   7.342 -2.4233 -1.9683 -0.5667
  264MOL0     H35584   4.355   3.266   7.326  1.4297  1.6214  1.6082
  264MOL0     H35585   4.506   3.465   7.215  0.3771 -1.1049  0.2110
  264MOL0     H35586   4.389   3.574   7.283 -1.5121 -0.4055  1.8977
  264MOL0     H35587   4.530   3.356   7.449  2.7124  0.8846 -1.1943
  264MOL0     H35588   4.428   3.482   7.506 -0.3809 -1.0926  0.1060
  264MOL0     H35589   4.674   3.555   7.339  2.5802 -0.2389  1.9926
  264MOL0     H35590   4.586   3.660   7.465  0.8233 -0.0668  1.8765
  264MOL0     H35591   4.823   3.349   7.473 -1.8202  0.0535 -0.8370
  264MOL0     H35592   5.003   3.268   7.613  1.0799  1.1208 -1.2136
  264MOL0     H35593   5.077   3.392   7.716  0.8461  0.1159 -3.8720
  264MOL0     H35594   4.929   3.317   7.898 -2.0019  0.1211 -0.1724
  264MOL0     H35595   4.844   3.203   7.799 -0.1448  0.6389 -2.0373
  264MOL0     H35596   5.041   3.109   7.935 -0.4458 -3.2951 -1.3490
  264MOL0     H35597   5.150   3.192   7.825  0.2487  0.2454 -1.3068
  264MOL0     H35598   5.040   3.065   7.645 -2.3458  4.3355  0.9336
  264MOL0     H35599   4.929   2.994   7.761  0.2515 -3.3414 -2.9639
  264MOL0     H35600   5.238   3.066   7.589  1.4071  1.5948 -1.5188
  264MOL0     H35601   5.465   3.070   7.542  1.0035  0.3219  0.3594
  264MOL0     H35602   5.963   3.063   7.839  2.7779  1.3490 -0.3478
  264MOL0     H35603   6.191   3.057   7.754 -0.2848  0.1715 -0.4292
  264MOL0     H35604   6.441   3.007   7.611 -1.6201  1.4649  1.5248
  264MOL0     H35605   6.397   2.962   7.777  3.2425  1.0566 -0.0133
  264MOL0     H35606   6.494   2.758   7.770  0.9401  3.5228  3.4241
  264MOL0     H35607   6.533   2.766   7.588  1.3801 -2.0127  0.3906
  264MOL0     H35608   6.676   2.974   7.639 -0.9635  1.1340 -0.0781
  264MOL0     H35609   6.642   2.945   7.809  1.9192  0.3694 -0.9974
  264MOL0     H35610   6.777   2.723   7.633  1.0577 -0.7030  0.4622
  264MOL0     H35611   6.751   2.725   7.800  0.3758 -0.3449 -0.7779
  264MOL0     H35612   6.913   2.909   7.824  0.2182 -1.1071  0.3432
  264MOL0     H35613   6.902   2.942   7.647 -0.6885 -1.4023 -1.4473
  264MOL0     H35614   6.986   2.675   7.688 -1.1230  0.8421 -1.2658
  264MOL0     H35615   7.066   2.798   7.605 -1.7890  0.7399  0.0309
  264MOL0     H35616   7.090   2.765   7.911 -0.9080  0.9118  0.1196
  264MOL0     H35617   7.164   2.886   7.837 -1.8230 -0.7519  4.1822
  264MOL0     H35618   7.212   2.577   7.758 -1.5822  1.2858  0.0029
  264MOL0     H35619   7.313   2.697   7.700 -1.1151 -0.4792 -2.3262
  264MOL0     H35620   6.124   2.689   7.560  0.8500  0.7032 -0.2563
  264MOL0     H35621   5.885   2.693   7.637  0.7823  0.4700 -0.3262
  264MOL0     H35622   5.548   2.803   7.881 -0.3893 -0.8640 -1.0949
  264MOL0     H35623   5.318   2.815   7.931  3.8104  1.6314  2.5725
  264MOL0     H35624   3.658   3.350   7.137 -0.1142 -1.1122 -0.1841
  264MOL0     H35625   3.421   3.354   7.056  0.2953  0.5039 -0.9114
  264MOL0     H35626   3.223   3.502   6.703  0.0188 -0.5476 -0.1127
  264MOL0     H35627   3.038   3.650   6.684  2.3780 -0.6424 -2.6948
  264MOL0     H35628   2.665   3.541   6.877 -1.1242 -2.0241  0.2463
  264MOL0     H35629   2.633   3.505   6.706  1.5339 -1.5992  1.7882
  264MOL0     H35630   2.607   3.747   6.642 -1.5012  0.8877 -0.3758
  264MOL0     H35631   2.669   3.785   6.803  0.4288 -1.2189  1.0039
  264MOL0     H35632   2.457   3.684   6.905  1.6900 -1.3423 -1.0876
  264MOL0     H35633   2.393   3.658   6.740 -2.2717 -1.0436  1.3981
  264MOL0     H35634   2.290   3.833   6.836 -0.6778 -0.8126 -1.2102
  264MOL0     H35635   2.442   3.925   6.861  2.9036  0.3458 -3.1420
  264MOL0     H35636   2.420   4.053   6.499 -1.0976  2.1194  0.0308
  264MOL0     H35637   2.785   3.364   6.865  0.7048 -2.7990 -1.5575
  264MOL0     H35638   2.957   3.187   7.041 -2.5899  0.4638  0.1678
  264MOL0     H35639   2.848   3.161   6.916  0.5223  1.0563 -0.1588
  264MOL0     H35640   3.010   3.096   6.904 -1.1652 -0.2895 -3.1043
  265MOL0     O35641   9.985   4.314   5.498 -0.4823 -0.5340 -0.6628
  265MOL0     C35642  10.011   4.198   5.479 -0.0822 -0.7100 -0.5173
  265MOL0     O35643  10.141   4.139   5.488 -0.9421  0.5441  0.1541
  265MOL0     C35644  10.251   4.224   5.517  0.6817  1.0324  0.5450
  265MOL0     C35645  10.299   4.324   5.423  0.4098  1.0385  1.0870
  265MOL0     C35646  10.395   4.408   5.474 -0.0125 -1.2682  0.1080
  265MOL0     C35647  10.450   4.402   5.596 -0.5440 -0.1917  0.0410
  265MOL0     O35648  10.536   4.506   5.620 -0.2417  0.3714  0.5475
  265MOL0     C35649  10.563   4.526   5.762  0.0034  0.6082  0.5107
  265MOL0     C35650  10.659   4.643   5.765  0.0006  0.6806 -0.2343
  265MOL0     C35651  10.795   4.606   5.699 -0.5414 -0.4406  0.4710
  265MOL0     C35652  10.792   4.673   5.562  0.3022 -0.5973 -0.2495
  265MOL0     C35653  10.931   4.688   5.502 -0.0738 -0.1550  0.1581
  265MOL0     C35654  10.995   4.555   5.452  0.3183 -0.3369 -0.7139
  265MOL0     C35655  11.144   4.572   5.446 -0.0483  0.3405  0.3506
  265MOL0     C35656  11.203   4.444   5.379  0.3941 -0.0552 -0.4059
  265MOL0     N35657  11.347   4.443   5.365 -0.4582  0.1255 -0.3025
  265MOL0     C35658  11.430   4.412   5.470  0.1570 -0.2724  0.2356
  265MOL0     C35659  11.533   4.342   5.414  0.0085  0.3561 -0.1173
  265MOL0     C35660  11.651   4.302   5.486  0.4856  0.2212 -0.1530
  265MOL0     C35661  11.780   4.302   5.401  0.6134 -0.2771 -0.3661
  265MOL0     C35662  11.913   4.259   5.470 -0.5400 -0.2502  0.5663
  265MOL0     C35663  12.038   4.298   5.391 -0.4866 -0.6855  0.4433
  265MOL0     O35664  12.161   4.294   5.465 -0.5827 -0.0801 -0.5825
  265MOL0     C35665  12.271   4.236   5.409  0.8224 -0.9286 -0.4066
  265MOL0     C35666  12.361   4.178   5.499 -0.0233  0.5714 -0.5250
  265MOL0     C35667  12.471   4.109   5.458  0.2249 -0.0315  0.1809
  265MOL0     C35668  12.498   4.106   5.316 -0.4920  0.4220  0.8132
  265MOL0     C35669  12.622   4.038   5.262  0.3096 -0.4261  0.1035
  265MOL0     O35670  12.599   3.975   5.151 -0.3827  0.3256  0.1420
  265MOL0     C35671  12.705   3.930   5.075 -0.3911  0.3288 -0.4895
  265MOL0     C35672  12.778   4.025   5.008 -0.4265 -0.8657 -0.6251
  265MOL0     C35673  12.882   3.991   4.924  0.4766  0.6285 -0.8406
  265MOL0     C35674  12.929   3.853   4.930 -0.6608 -0.4114 -0.3238
  265MOL0     O35675  13.028   3.794   4.854 -0.0859 -0.4001 -0.5459
  265MOL0     C35676  13.148   3.868   4.840  0.9425 -1.1492  0.4976
  265MOL0     C35677  13.258   3.788   4.772 -0.1010 -0.4108 -0.2060
  265MOL0     C35678  13.227   3.769   4.624  0.5943 -0.3912  0.8803
  265MOL0     C35679  13.175   3.890   4.541  0.0908 -0.4568 -0.2575
  265MOL0     C35680  13.267   4.012   4.543  0.6364 -0.6708  0.3566
  265MOL0     C35681  13.371   4.033   4.435 -0.6442  0.5817  0.0869
  265MOL0     C35682  13.512   4.005   4.482  0.4185  0.4362  0.0265
  265MOL0     C35683  13.605   4.008   4.362  0.4040 -0.0340 -0.3083
  265MOL0    Cl35684  13.764   3.961   4.425 -0.0210  0.3295  0.0026
  265MOL0     C35685  12.845   3.756   4.985 -0.3559  0.9026 -0.2830
  265MOL0     C35686  12.727   3.794   5.053 -0.3726  0.3145 -0.6891
  265MOL0     O35687  12.726   4.036   5.328 -0.4144 -0.2461 -0.1748
  265MOL0     C35688  12.407   4.162   5.223 -0.5977  0.0160 -0.2898
  265MOL0     C35689  12.300   4.234   5.271 -0.1973 -0.1333  0.2034
  265MOL0     N35690  11.510   4.332   5.279 -0.0798  0.0216 -0.1880
  265MOL0     N35691  11.400   4.386   5.252 -0.5862 -0.0191 -0.2152
  265MOL0     C35692  10.407   4.298   5.683 -0.4203  0.1130 -0.0852
  265MOL0     C35693  10.303   4.215   5.647 -0.1702  0.3173 -0.3645
  265MOL0     C35694   9.892   4.110   5.457  0.7689  0.2484  0.1539
  265MOL0     C35695   9.764   4.164   5.445  0.2497 -0.5041 -0.6825
  265MOL0     C35696   9.646   4.086   5.420 -0.4375  0.0936  0.6716
  265MOL0     C35697   9.659   3.947   5.404 -0.0172  0.2615 -0.5692
  265MOL0     O35698   9.544   3.865   5.381  0.5316  0.1726  0.1751
  265MOL0     C35699   9.443   3.912   5.292 -0.0528 -0.2106 -0.1573
  265MOL0     C35700   9.442   3.818   5.178 -0.3084 -0.7871 -0.2988
  265MOL0     C35701   9.580   3.821   5.102 -0.3851  0.6503 -0.7277
  265MOL0     C35702   9.553   3.785   4.957  0.4376 -0.5687 -0.8210
  265MOL0     C35703   9.676   3.744   4.891 -0.2231 -0.5755  0.3216
  265MOL0     C35704   9.777   3.729   4.828  0.3315  0.7307  0.8448
  265MOL0     C35705   9.786   3.895   5.430 -0.4070  0.7083  0.0231
  265MOL0     C35706   9.898   3.964   5.453 -0.3165  0.1721  0.6375
  265MOL0     C35707  10.020   3.884   5.466 -0.4256 -0.6322  0.2634
  265MOL0     H35708  10.267   4.320   5.319 -3.3509 -2.3857  2.1200
  265MOL0     H35709  10.439   4.491   5.420  0.1720  1.2996  3.8634
  265MOL0     H35710  10.472   4.554   5.815  0.5280  2.2623  0.5932
  265MOL0     H35711  10.592   4.431   5.808 -1.4898 -1.1825 -1.9770
  265MOL0     H35712  10.686   4.668   5.868  0.9344  2.6011 -0.8916
  265MOL0     H35713  10.610   4.725   5.711  0.6956  0.5492 -1.0955
  265MOL0     H35714  10.807   4.498   5.688  2.5888 -0.2367  1.0752
  265MOL0     H35715  10.882   4.648   5.751 -0.6278 -0.2543  0.4681
  265MOL0     H35716  10.724   4.625   5.492  2.2688  0.2449 -2.8775
  265MOL0     H35717  10.753   4.775   5.574  0.8523 -0.4894  0.6863
  265MOL0     H35718  10.913   4.740   5.408  2.8306  1.3991  0.3305
  265MOL0     H35719  10.992   4.752   5.566  1.0596 -0.2865 -0.7563
  265MOL0     H35720  10.971   4.477   5.524 -1.6216  0.7565 -0.1021
  265MOL0     H35721  10.960   4.541   5.350 -1.4700  2.1836 -0.5489
  265MOL0     H35722  11.192   4.580   5.544  0.7604  0.6888 -0.0616
  265MOL0     H35723  11.180   4.649   5.378 -0.3816 -0.3809 -0.6637
  265MOL0     H35724  11.161   4.362   5.438 -0.8911  0.1059 -1.0692
  265MOL0     H35725  11.164   4.431   5.278 -1.9408 -3.1295  0.7397
  265MOL0     H35726  11.422   4.438   5.575  0.3190 -0.8403  0.3901
  265MOL0     H35727  11.677   4.360   5.575 -1.6879  1.4144 -0.2292
  265MOL0     H35728  11.640   4.198   5.517  0.9524  0.5084  1.0126
  265MOL0     H35729  11.771   4.233   5.317  0.7657 -0.2388 -0.4140
  265MOL0     H35730  11.805   4.405   5.375 -0.7175  0.9759  2.7609
  265MOL0     H35731  11.912   4.153   5.496 -0.6727 -0.1408  1.0187
  265MOL0     H35732  11.929   4.311   5.565  1.6042  1.7472 -0.7664
  265MOL0     H35733  12.024   4.395   5.341  0.0395 -0.1373  1.3510
  265MOL0     H35734  12.046   4.231   5.305  0.8883  0.0887 -0.0584
  265MOL0     H35735  12.341   4.196   5.604  1.6324  2.9846 -0.5421
  265MOL0     H35736  12.537   4.065   5.531  1.9607  1.4145 -0.4512
  265MOL0     H35737  12.749   4.130   5.004  0.3029 -0.6791 -3.2188
  265MOL0     H35738  12.922   4.061   4.851  0.0386  0.4966 -1.2129
  265MOL0     H35739  13.128   3.964   4.792 -1.8690 -0.9946  1.8120
  265MOL0     H35740  13.185   3.887   4.941  1.3202 -0.3168  0.2089
  265MOL0     H35741  13.356   3.835   4.781  0.4767 -1.2199 -1.8747
  265MOL0     H35742  13.271   3.688   4.814  0.1684 -0.1923  0.2414
  265MOL0     H35743  13.320   3.750   4.571 -0.3630  1.7675 -1.8326
  265MOL0     H35744  13.158   3.685   4.618  1.6624 -1.1870 -1.5248
  265MOL0     H35745  13.076   3.914   4.581 -0.4223  0.7569 -2.1118
  265MOL0     H35746  13.161   3.853   4.439  0.2685 -0.7268 -0.1846
  265MOL0     H35747  13.314   4.013   4.642 -0.4529  3.1070  0.9747
  265MOL0     H35748  13.205   4.102   4.546 -0.0671 -1.1131 -0.3375
  265MOL0     H35749  13.341   3.956   4.364 -0.5935 -3.0648  3.6182
  265MOL0     H35750  13.376   4.127   4.381 -0.2565  0.1649 -0.6167
  265MOL0     H35751  13.526   3.905   4.524 -1.5288  0.3877  0.6326
  265MOL0     H35752  13.542   4.087   4.547  2.2725 -2.0727  2.6121
  265MOL0     H35753  13.576   3.931   4.290 -0.0079 -0.3565  0.1921
  265MOL0     H35754  13.603   4.100   4.303 -0.6200  0.7054  0.8306
  265MOL0     H35755  12.876   3.653   4.969  1.5445  1.5589 -1.1575
  265MOL0     H35756  12.657   3.727   5.100  0.7446 -0.4038 -0.0104
  265MOL0     H35757  12.429   4.173   5.117  0.6286 -0.2430 -0.0847
  265MOL0     H35758  12.231   4.278   5.199  1.3490 -0.1069 -1.3199
  265MOL0     H35759  10.450   4.276   5.780  0.7874  1.0283 -0.3709
  265MOL0     H35760  10.250   4.156   5.720 -0.1838  0.2798 -0.4045
  265MOL0     H35761   9.749   4.271   5.440  1.7127 -0.2821 -0.6253
  265MOL0     H35762   9.549   4.135   5.417 -0.9347 -0.9143 -1.2821
  265MOL0     H35763   9.464   4.011   5.251  1.8005  0.2002  1.6306
  265MOL0     H35764   9.347   3.917   5.343  0.4941  0.1846  0.8731
  265MOL0     H35765   9.363   3.848   5.108  0.7975  2.0551 -0.4576
  265MOL0     H35766   9.420   3.715   5.207 -1.4113 -0.0045  1.8460
  265MOL0     H35767   9.642   3.746   5.153 -0.5484  1.8744  1.3915
  265MOL0     H35768   9.624   3.919   5.119  0.1845  0.2069  0.4268
  265MOL0     H35769   9.489   3.698   4.940 -0.1089 -0.3437  0.0380
  265MOL0     H35770   9.504   3.872   4.911 -6.3586 -2.4563  1.6086
  265MOL0     H35771   9.874   3.712   4.787 -0.4487  1.5796 -1.5422
  265MOL0     H35772   9.793   3.787   5.426 -1.3677  0.6583 -0.6655
  265MOL0     H35773  10.064   3.902   5.565  0.7571 -0.0334 -0.3364
  265MOL0     H35774  10.014   3.777   5.448 -0.0763 -0.6958  0.5156
  265MOL0     H35775  10.091   3.920   5.390 -1.3582 -0.7845 -0.7021
  266MOL0     O35776   2.252   8.353   7.514  0.2479  1.2040 -0.4924
  266MOL0     C35777   2.161   8.268   7.488  1.0272  0.5320 -0.2082
  266MOL0     O35778   2.108   8.183   7.580 -0.1939  0.2993 -0.0724
  266MOL0     C35779   2.135   8.192   7.717  0.2738 -0.5311 -0.5008
  266MOL0     C35780   2.040   8.239   7.804 -0.1792 -0.3762 -0.1252
  266MOL0     C35781   2.058   8.228   7.941  0.1774 -1.5767 -0.6876
  266MOL0     C35782   2.165   8.157   7.998  0.3646 -0.2947 -0.9100
  266MOL0     O35783   2.186   8.137   8.133 -0.1759  0.2203 -0.9721
  266MOL0     C35784   2.088   8.194   8.231 -0.5897  0.0445  0.4061
  266MOL0     C35785   2.119   8.342   8.269  0.4305  0.2820  0.2142
  266MOL0     C35786   2.249   8.374   8.333 -0.1643 -0.2889 -0.3448
  266MOL0     C35787   2.244   8.515   8.379 -0.0327  0.0128  0.1941
  266MOL0     C35788   2.384   8.546   8.432 -0.6405 -0.4951 -0.2652
  266MOL0     C35789   2.367   8.659   8.535  0.3354 -0.1258 -0.1763
  266MOL0     C35790   2.505   8.691   8.601  0.3057  0.3097 -0.3423
  266MOL0     C35791   2.481   8.791   8.725 -0.0584 -0.1877  0.1395
  266MOL0     N35792   2.611   8.818   8.790 -0.2962 -0.1783  0.5081
  266MOL0     C35793   2.652   8.757   8.907 -0.1128 -0.7429 -1.0178
  266MOL0     C35794   2.759   8.829   8.943  0.0655 -0.4766  0.3610
  266MOL0     C35795   2.837   8.795   9.072 -0.9675 -0.1863 -0.8367
  266MOL0     C35796   2.991   8.794   9.050 -0.5189 -0.4847 -0.1067
  266MOL0     C35797   3.072   8.794   9.185  0.1048 -0.0610 -0.0210
  266MOL0     C35798   3.223   8.803   9.157  0.8708 -0.2492 -0.1872
  266MOL0     O35799   3.300   8.776   9.275  0.0833 -0.7367 -0.0824
  266MOL0     C35800   3.433   8.801   9.277 -0.3779 -0.2134 -0.2234
  266MOL0     C35801   3.499   8.838   9.164 -0.5287  0.1250  0.4355
  266MOL0     C35802   3.640   8.849   9.164  1.1849  0.4089  1.0751
  266MOL0     C35803   3.720   8.815   9.276 -0.3692  0.5367 -0.4520
  266MOL0     C35804   3.864   8.819   9.278  1.1305  0.8752 -0.4927
  266MOL0     O35805   3.931   8.914   9.209 -0.0106 -0.1723 -0.1931
  266MOL0     C35806   4.063   8.931   9.220  0.8507 -0.9170  0.0580
  266MOL0     C35807   4.139   8.839   9.157 -0.1035  0.1043  0.2871
  266MOL0     C35808   4.278   8.846   9.165  0.5377 -0.1726  0.0918
  266MOL0     C35809   4.341   8.947   9.248 -0.2428 -0.4415 -0.5857
  266MOL0     O35810   4.475   8.969   9.259 -0.0312  0.3291  0.5278
  266MOL0     C35811   4.553   8.860   9.322  0.1949 -0.1303 -0.3144
  266MOL0     C35812   4.691   8.923   9.366 -0.2029 -0.0513  0.4435
  266MOL0     C35813   4.671   9.034   9.466  0.5415 -0.1878 -0.0314
  266MOL0     C35814   4.798   9.116   9.487  0.2230  0.1202  0.3365
  266MOL0     C35815   4.779   9.220   9.592 -0.7185  0.7538  1.1297
  266MOL0     C35816   4.904   9.308   9.599 -0.4260  0.0338 -0.0593
  266MOL0     C35817   4.905   9.374   9.737  0.6950 -0.0946 -0.3048
  266MOL0     C35818   5.039   9.451   9.767 -0.1392  0.1315 -0.1289
  266MOL0    Cl35819   5.200   9.363   9.769 -0.1714 -0.1561 -0.3790
  266MOL0     C35820   4.261   9.047   9.304  0.7913 -0.6642 -0.4058
  266MOL0     C35821   4.118   9.043   9.290 -0.0010  0.7455  0.1447
  266MOL0     O35822   3.916   8.740   9.356  0.6416  1.0444 -0.0669
  266MOL0     C35823   3.643   8.794   9.394  0.1160 -0.3335  0.3378
  266MOL0     C35824   3.505   8.777   9.396 -0.1636 -0.2638  0.2034
  266MOL0     N35825   2.790   8.921   8.847  0.0014 -0.2133  0.2947
  266MOL0     N35826   2.704   8.912   8.756 -0.4027  0.0181  0.5945
  266MOL0     C35827   2.265   8.103   7.911  0.1814 -0.6394 -0.3217
  266MOL0     C35828   2.253   8.126   7.772  0.5283 -0.5433 -0.1722
  266MOL0     C35829   2.110   8.264   7.342  0.4191  0.1504  0.0044
  266MOL0     C35830   2.011   8.170   7.311 -0.2770  0.2276  0.0914
  266MOL0     C35831   1.963   8.149   7.183 -0.5063  0.5765  0.9127
  266MOL0     C35832   2.026   8.218   7.073  0.2626 -0.5868 -0.0789
  266MOL0     O35833   1.996   8.203   6.942  0.2976  0.1009  0.3170
  266MOL0     C35834   1.893   8.111   6.896  0.1022  0.0551 -0.1507
  266MOL0     C35835   1.915   8.083   6.746 -0.8624 -0.1069  0.2574
  266MOL0     C35836   2.006   7.957   6.736  0.3007  0.4936  0.5376
  266MOL0     C35837   2.028   7.927   6.582  0.2133  0.3084 -0.1057
  266MOL0     C35838   1.925   7.848   6.522  0.3244 -0.5319  0.8307
  266MOL0     C35839   1.840   7.792   6.450 -0.0557 -0.3135 -0.3364
  266MOL0     C35840   2.128   8.306   7.096  0.1846  0.3084  0.3056
  266MOL0     C35841   2.165   8.335   7.234  0.5498 -0.0807 -0.0275
  266MOL0     C35842   2.273   8.444   7.238 -0.2095 -0.9136 -0.3367
  266MOL0     H35843   1.954   8.288   7.759  0.8471  0.3758 -1.3238
  266MOL0     H35844   1.977   8.261   8.005  0.1222 -0.6105 -1.2307
  266MOL0     H35845   1.985   8.190   8.194 -0.1362  2.0974 -1.2671
  266MOL0     H35846   2.095   8.137   8.324 -0.5401  1.4950  1.3180
  266MOL0     H35847   2.031   8.359   8.333 -1.8740  0.2790 -2.7483
  266MOL0     H35848   2.105   8.395   8.174 -0.0175 -1.7059 -0.8678
  266MOL0     H35849   2.322   8.365   8.252 -0.6906  2.2854 -1.2272
  266MOL0     H35850   2.271   8.296   8.405  0.4823 -0.1984 -0.4383
  266MOL0     H35851   2.214   8.585   8.300 -2.6063 -0.3448  0.7577
  266MOL0     H35852   2.169   8.534   8.457  0.4391  2.8637  0.0567
  266MOL0     H35853   2.425   8.454   8.475 -1.7390  0.2781  2.6346
  266MOL0     H35854   2.455   8.578   8.355  1.0866 -0.3475  1.3174
  266MOL0     H35855   2.332   8.748   8.482  0.6743 -2.2276 -4.3407
  266MOL0     H35856   2.298   8.622   8.611  0.4524 -2.5862 -1.1806
  266MOL0     H35857   2.579   8.736   8.533 -0.4655  0.9480 -0.7715
  266MOL0     H35858   2.557   8.602   8.639  0.3568  0.0907 -0.9096
  266MOL0     H35859   2.435   8.886   8.694 -1.1968  0.2172  2.7904
  266MOL0     H35860   2.412   8.750   8.799 -2.0852  1.0742 -0.9648
  266MOL0     H35861   2.596   8.676   8.952  0.0912  0.5140  1.6930
  266MOL0     H35862   2.813   8.865   9.152  0.3274 -0.4330 -0.2047
  266MOL0     H35863   2.797   8.698   9.105 -1.9869  0.9351  1.4563
  266MOL0     H35864   3.025   8.715   8.983 -1.5403 -1.5014  0.5475
  266MOL0     H35865   3.014   8.888   8.998  1.5318  1.1857  3.4408
  266MOL0     H35866   3.042   8.697   9.227  1.3998 -0.7605 -0.6353
  266MOL0     H35867   3.043   8.880   9.246 -2.2281 -0.5896 -0.2907
  266MOL0     H35868   3.239   8.904   9.120  0.8727 -0.6837 -1.4216
  266MOL0     H35869   3.249   8.722   9.087 -1.5438 -1.7216  0.4868
  266MOL0     H35870   3.449   8.864   9.071  0.1957  0.5026  0.1416
  266MOL0     H35871   3.680   8.882   9.069 -2.7418 -0.8781 -1.2439
  266MOL0     H35872   4.082   8.760   9.109 -1.6599  0.0956  2.0556
  266MOL0     H35873   4.332   8.757   9.133  0.3866 -0.8017  1.4800
  266MOL0     H35874   4.506   8.803   9.402  0.9085  0.5258  0.5861
  266MOL0     H35875   4.578   8.779   9.252 -2.6116 -0.8335 -0.5995
  266MOL0     H35876   4.753   8.844   9.409  0.5844  0.5096  0.3474
  266MOL0     H35877   4.731   8.958   9.270 -4.7596  2.5768 -0.8367
  266MOL0     H35878   4.588   9.098   9.435 -1.1656 -1.5514  1.4833
  266MOL0     H35879   4.652   8.987   9.563  3.1079 -2.1109 -0.3546
  266MOL0     H35880   4.826   9.154   9.389  0.4155 -0.8781 -0.0085
  266MOL0     H35881   4.879   9.050   9.520  0.3452 -0.8529 -1.7607
  266MOL0     H35882   4.754   9.167   9.685 -1.5214 -2.7419 -0.8803
  266MOL0     H35883   4.696   9.277   9.550 -0.9264 -1.2068 -1.3394
  266MOL0     H35884   5.007   9.275   9.580 -0.7065 -0.7323 -0.2608
  266MOL0     H35885   4.889   9.382   9.520  2.3511 -1.7653 -2.5114
  266MOL0     H35886   4.900   9.298   9.816  2.3959 -1.3358 -1.3192
  266MOL0     H35887   4.819   9.440   9.751 -0.9619 -1.8432 -1.5940
  266MOL0     H35888   5.050   9.535   9.697 -0.6189  1.1828  1.0052
  266MOL0     H35889   5.030   9.493   9.868  0.8953  2.5383 -0.9436
  266MOL0     H35890   4.307   9.123   9.366 -1.7795 -0.1113  0.9823
  266MOL0     H35891   4.043   9.109   9.334 -0.9601 -1.3284  1.7807
  266MOL0     H35892   3.704   8.788   9.483  1.1539 -0.7919 -0.3779
  266MOL0     H35893   3.447   8.760   9.485  3.4768 -0.1688  2.8360
  266MOL0     H35894   2.355   8.057   7.950  0.0033 -1.2413 -0.6200
  266MOL0     H35895   2.329   8.086   7.705  0.0922 -2.9467  0.6503
  266MOL0     H35896   1.969   8.105   7.387 -1.9049 -0.9178 -1.7086
  266MOL0     H35897   1.879   8.082   7.166 -0.2536 -0.1854  2.5457
  266MOL0     H35898   1.796   8.157   6.920 -0.4457  0.1827 -2.4370
  266MOL0     H35899   1.895   8.013   6.944  1.6867  0.4544  0.6731
  266MOL0     H35900   1.963   8.168   6.696  1.6377 -1.4887  0.1224
  266MOL0     H35901   1.821   8.062   6.695  0.5645 -3.2079 -1.3220
  266MOL0     H35902   1.956   7.870   6.781 -0.3972  1.0377  0.8391
  266MOL0     H35903   2.105   7.970   6.780  1.4070 -1.5936 -1.1458
  266MOL0     H35904   2.036   8.026   6.537  1.0137  0.6115  0.6657
  266MOL0     H35905   2.120   7.870   6.569 -1.0001 -1.7965  0.1540
  266MOL0     H35906   1.750   7.752   6.407 -1.5808 -0.2259  2.5587
  266MOL0     H35907   2.172   8.354   7.009 -0.4115 -0.0330 -0.1879
  266MOL0     H35908   2.236   8.519   7.309  0.7851 -0.5498 -0.1865
  266MOL0     H35909   2.369   8.417   7.283  0.8607 -0.5599 -2.3237
  266MOL0     H35910   2.282   8.493   7.141  0.7672 -1.1212 -0.3632
  267MOL0     O35911   1.771   7.733   6.971  0.8552  0.4819 -0.6452
  267MOL0     C35912   1.774   7.607   6.957  0.1398 -0.5309 -0.9013
  267MOL0     O35913   1.888   7.539   6.957 -0.2926 -0.7710 -0.4898
  267MOL0     C35914   2.005   7.604   6.982  0.3137 -0.9966  0.1975
  267MOL0     C35915   2.036   7.678   7.092  0.3768  0.5496 -0.5114
  267MOL0     C35916   2.157   7.738   7.114 -0.2747  0.4232 -0.3984
  267MOL0     C35917   2.255   7.720   7.014  0.3530 -0.1285 -0.4283
  267MOL0     O35918   2.376   7.759   7.052  0.6197  0.2510  0.4933
  267MOL0     C35919   2.447   7.826   6.947 -0.0105 -0.2798 -0.2952
  267MOL0     C35920   2.387   7.971   6.926 -0.9372  0.3735 -0.2772
  267MOL0     C35921   2.402   8.064   7.047  0.1647 -0.8093 -0.4482
  267MOL0     C35922   2.548   8.121   7.042 -0.1054  0.8089 -0.3301
  267MOL0     C35923   2.593   8.151   7.185  0.6700 -0.0127  0.4582
  267MOL0     C35924   2.607   8.031   7.280 -0.4150  0.0584 -0.6545
  267MOL0     C35925   2.613   8.061   7.436  0.7054 -0.6742  0.1636
  267MOL0     C35926   2.639   7.936   7.521  0.4195  0.0239  0.4496
  267MOL0     N35927   2.669   7.962   7.668 -0.6232 -0.6583  0.0038
  267MOL0     C35928   2.790   8.001   7.725  0.0628 -0.2591  0.3093
  267MOL0     C35929   2.759   8.014   7.856  0.6022 -0.1729 -0.2329
  267MOL0     C35930   2.849   8.050   7.972  0.3825 -0.5592  0.3738
  267MOL0     C35931   2.909   7.927   8.047 -0.0233  0.7291 -0.3595
  267MOL0     C35932   3.026   7.966   8.140 -0.2264 -0.0901 -0.1478
  267MOL0     C35933   3.103   7.849   8.200  1.0860  0.2153  0.4437
  267MOL0     O35934   3.228   7.886   8.257  0.2424  0.1217  0.0469
  267MOL0     C35935   3.298   7.775   8.305  0.0465  0.3543 -0.8953
  267MOL0     C35936   3.438   7.796   8.311 -0.3183  0.3922 -0.1224
  267MOL0     C35937   3.520   7.696   8.363 -0.4952 -0.3510  0.3420
  267MOL0     C35938   3.480   7.569   8.410  0.4913 -0.0813 -0.2726
  267MOL0     C35939   3.582   7.470   8.461 -0.1789  0.5945  0.1930
  267MOL0     O35940   3.523   7.365   8.526 -0.1460  0.1006  0.4166
  267MOL0     C35941   3.579   7.247   8.568  0.1651 -0.1006 -0.4488
  267MOL0     C35942   3.719   7.227   8.570  0.3470 -0.0823  0.1591
  267MOL0     C35943   3.771   7.098   8.599 -0.1333  0.5070 -0.0543
  267MOL0     C35944   3.683   6.994   8.631  0.6325 -0.3699 -0.4092
  267MOL0     O35945   3.748   6.879   8.669  0.1808  0.5006  0.5841
  267MOL0     C35946   3.704   6.755   8.610  0.2737  0.5428  0.4914
  267MOL0     C35947   3.721   6.761   8.454 -0.5902 -0.0508 -0.6708
  267MOL0     C35948   3.598   6.793   8.362  0.0899 -0.7180  0.6383
  267MOL0     C35949   3.647   6.852   8.227  1.1864 -0.2800  0.0222
  267MOL0     C35950   3.530   6.865   8.127 -0.1943 -0.4684 -0.0996
  267MOL0     C35951   3.394   6.883   8.190 -0.7734  0.1785 -0.0630
  267MOL0     C35952   3.281   6.907   8.101 -0.2519  0.1430  0.2404
  267MOL0     C35953   3.236   6.791   8.005  0.6099  0.4973  0.1445
  267MOL0    Cl35954   3.079   6.821   7.926 -0.3858 -0.2174  0.0069
  267MOL0     C35955   3.544   7.017   8.640 -0.5013  0.1240  0.0686
  267MOL0     C35956   3.497   7.145   8.615  0.2823 -0.0747  0.2001
  267MOL0     O35957   3.698   7.484   8.429 -0.6626  0.4931  0.0477
  267MOL0     C35958   3.348   7.545   8.408 -0.2109  0.4704  0.2301
  267MOL0     C35959   3.255   7.639   8.357 -0.2013  0.1130 -0.4288
  267MOL0     N35960   2.625   7.982   7.882  0.0586 -0.7375  1.1205
  267MOL0     N35961   2.573   7.950   7.766 -0.8181  0.1034  0.2306
  267MOL0     C35962   2.222   7.638   6.900  0.1676 -0.7851 -0.4873
  267MOL0     C35963   2.098   7.590   6.878  0.1178  0.3612  0.1418
  267MOL0     C35964   1.644   7.535   6.963 -0.5711  0.6051  0.1748
  267MOL0     C35965   1.648   7.400   6.959  0.1026 -0.1088  1.2410
  267MOL0     C35966   1.530   7.328   6.980  0.1535 -0.5726 -0.6197
  267MOL0     C35967   1.403   7.392   6.987 -0.3150 -0.1465  1.5939
  267MOL0     O35968   1.291   7.313   7.003  0.0260 -0.4118  0.0007
  267MOL0     C35969   1.160   7.356   7.046  0.5675 -0.5357  0.1154
  267MOL0     C35970   1.058   7.392   6.937  0.2938 -0.7240 -0.3113
  267MOL0     C35971   0.935   7.476   6.997  0.2983  0.3753 -0.2909
  267MOL0     C35972   0.955   7.608   7.068 -0.2727 -0.2146  0.1770
  267MOL0     C35973   0.823   7.666   7.088 -0.3300 -0.2751  0.1021
  267MOL0     C35974   0.716   7.729   7.109 -0.0328 -0.3095  0.0433
  267MOL0     C35975   1.396   7.530   6.964 -0.5156  0.1602 -0.1291
  267MOL0     C35976   1.516   7.601   6.971 -0.0365 -0.2488 -0.0749
  267MOL0     C35977   1.503   7.754   6.990  0.2930  0.2058  0.0814
  267MOL0     H35978   1.961   7.694   7.169  0.5925  1.6793 -0.5070
  267MOL0     H35979   2.176   7.804   7.198  0.2698  0.1039 -0.2715
  267MOL0     H35980   2.547   7.831   6.992 -0.7745  0.5900  1.3849
  267MOL0     H35981   2.438   7.773   6.851  0.1507 -0.3103 -0.2943
  267MOL0     H35982   2.282   7.967   6.896 -1.7355 -0.9017  2.3785
  267MOL0     H35983   2.439   8.018   6.842 -0.3945 -0.0597 -0.1874
  267MOL0     H35984   2.390   8.009   7.140  1.9000 -1.1209 -0.3736
  267MOL0     H35985   2.320   8.136   7.052  0.6148 -0.2512 -0.9072
  267MOL0     H35986   2.617   8.048   6.998  0.2972  2.1321 -1.9769
  267MOL0     H35987   2.556   8.211   6.981 -2.0504  1.2533  0.0093
  267MOL0     H35988   2.691   8.200   7.190 -0.5588  2.5248  1.6674
  267MOL0     H35989   2.516   8.220   7.221 -1.6324 -2.3606  0.3168
  267MOL0     H35990   2.520   7.965   7.275  0.1352 -0.6304 -1.5073
  267MOL0     H35991   2.699   7.986   7.240  0.6958  2.8030 -1.3929
  267MOL0     H35992   2.512   8.099   7.455  1.2455  2.8337 -2.9021
  267MOL0     H35993   2.688   8.139   7.452  0.5423 -0.3696 -0.5374
  267MOL0     H35994   2.555   7.868   7.502  2.3983 -2.1677 -1.0479
  267MOL0     H35995   2.724   7.884   7.476  0.4426  0.6880 -0.3133
  267MOL0     H35996   2.887   8.005   7.676  0.1546 -1.2244  0.3890
  267MOL0     H35997   2.913   8.127   7.929 -0.2221 -0.9163 -1.2555
  267MOL0     H35998   2.785   8.106   8.041  0.1753  0.3507 -0.5292
  267MOL0     H35999   2.832   7.874   8.103  0.0569 -0.8679 -1.6666
  267MOL0     H36000   2.945   7.859   7.968  0.3998 -1.1883  1.3745
  267MOL0     H36001   2.980   8.026   8.219  0.7408  2.7058 -1.5701
  267MOL0     H36002   3.101   8.032   8.096  1.1053  0.4997  2.7762
  267MOL0     H36003   3.128   7.780   8.119  4.7278  0.8217  0.8480
  267MOL0     H36004   3.031   7.802   8.269 -0.9882  0.7565 -1.2720
  267MOL0     H36005   3.479   7.885   8.265  2.0777  0.4267  1.8639
  267MOL0     H36006   3.626   7.719   8.377 -1.1339  1.9430  2.0903
  267MOL0     H36007   3.790   7.307   8.550 -0.0846 -0.1105 -1.6767
  267MOL0     H36008   3.875   7.066   8.606 -0.0352  1.1575  1.9422
  267MOL0     H36009   3.760   6.668   8.644 -0.3969  0.5567  1.7168
  267MOL0     H36010   3.601   6.723   8.632  0.7606 -1.8746 -0.4970
  267MOL0     H36011   3.793   6.838   8.424 -0.2669 -0.4425 -0.9180
  267MOL0     H36012   3.758   6.663   8.422 -0.4888 -0.2829  0.1593
  267MOL0     H36013   3.542   6.700   8.350 -2.7388  1.0937 -1.3199
  267MOL0     H36014   3.539   6.870   8.411  2.8708  0.6162  2.1604
  267MOL0     H36015   3.719   6.777   8.193 -1.4613 -3.0067 -0.0556
  267MOL0     H36016   3.698   6.948   8.235 -2.4826  1.7828  1.0772
  267MOL0     H36017   3.521   6.778   8.061 -3.0518  1.3211 -2.3428
  267MOL0     H36018   3.551   6.949   8.060  2.5499  2.1216  3.5689
  267MOL0     H36019   3.365   6.798   8.252 -2.0440  0.6964  0.0881
  267MOL0     H36020   3.395   6.971   8.255  0.7279 -0.6991  1.1712
  267MOL0     H36021   3.301   6.990   8.032  0.8535 -1.6025 -1.6610
  267MOL0     H36022   3.193   6.929   8.162  0.2321 -1.1098  1.4408
  267MOL0     H36023   3.315   6.773   7.931 -0.7040  2.1727 -1.7656
  267MOL0     H36024   3.221   6.698   8.061 -0.2910  0.0341 -0.8231
  267MOL0     H36025   3.473   6.944   8.677  0.3702 -0.7989 -0.0480
  267MOL0     H36026   3.389   7.158   8.614  0.3990  1.2124  1.5646
  267MOL0     H36027   3.303   7.450   8.435 -3.9631  1.7894 -0.7220
  267MOL0     H36028   3.150   7.617   8.370 -0.7739  1.2840 -2.6135
  267MOL0     H36029   2.297   7.602   6.829 -1.0140 -0.9848 -1.6708
  267MOL0     H36030   2.061   7.523   6.802 -0.3175 -0.3366  0.9491
  267MOL0     H36031   1.739   7.342   6.949  1.8893  2.6907  0.0577
  267MOL0     H36032   1.538   7.221   6.994  2.0313 -0.2115  1.6617
  267MOL0     H36033   1.172   7.434   7.122 -2.8827 -1.1919  1.5327
  267MOL0     H36034   1.113   7.277   7.106 -1.5044  2.7601  3.2653
  267MOL0     H36035   1.024   7.298   6.893  1.2233 -1.8216  1.2031
  267MOL0     H36036   1.117   7.450   6.865 -2.0856  0.6889 -1.2136
  267MOL0     H36037   0.896   7.406   7.072  0.7821  0.8540  0.4158
  267MOL0     H36038   0.867   7.492   6.912 -2.0069  0.1525  1.3987
  267MOL0     H36039   1.010   7.594   7.161  1.8781  1.7271 -0.7065
  267MOL0     H36040   1.019   7.670   7.005 -1.1609 -1.0433 -1.6303
  267MOL0     H36041   0.622   7.777   7.125 -0.7537 -2.0273  1.1738
  267MOL0     H36042   1.305   7.589   6.950 -1.0738 -0.5718  0.3174
  267MOL0     H36043   1.399   7.781   7.010 -0.3977 -2.1651  0.0637
  267MOL0     H36044   1.550   7.781   7.085  1.7333 -2.0699  0.1094
  267MOL0     H36045   1.538   7.814   6.906 -0.0912 -0.7749 -0.8064
  268MOL0     O36046   1.464   4.812   9.787 -0.6403  0.8754  0.2371
  268MOL0     C36047   1.582   4.824   9.752 -0.0095  0.8941  0.2113
  268MOL0     O36048   1.649   4.939   9.757 -0.7642 -0.0836 -0.3848
  268MOL0     C36049   1.602   5.064   9.802  0.2605  0.3792  0.8853
  268MOL0     C36050   1.627   5.171   9.713  0.3098  1.0013 -0.9650
  268MOL0     C36051   1.578   5.302   9.748  0.1455  0.1679 -0.3750
  268MOL0     C36052   1.487   5.322   9.859 -0.3193  0.6850 -0.1400
  268MOL0     O36053   1.442   5.453   9.887  0.1453  0.0485 -0.0644
  268MOL0     C36054   1.310   5.457   9.945 -0.6518 -0.8842  0.3791
  268MOL0     C36055   1.257   5.601   9.931  0.1680  0.3285 -0.5026
  268MOL0     C36056   1.232   5.628   9.780  0.3544 -0.3999 -0.3916
  268MOL0     C36057   1.159   5.762   9.765  0.1358 -0.2657 -0.3185
  268MOL0     C36058   1.138   5.789   9.621 -0.2349  0.3292 -0.2003
  268MOL0     C36059   1.112   5.941   9.592  0.2029 -0.1673  0.7207
  268MOL0     C36060   1.086   5.957   9.441 -0.0286  0.0558 -0.4627
  268MOL0     C36061   1.056   6.106   9.409  0.5703 -0.1673  0.1229
  268MOL0     N36062   1.165   6.190   9.455 -0.1622 -0.2182  0.0236
  268MOL0     C36063   1.192   6.240   9.574  0.6275  0.3839  0.4335
  268MOL0     C36064   1.313   6.294   9.565  0.6235  0.5260  0.4220
  268MOL0     C36065   1.388   6.369   9.671  0.1666  0.5452 -0.0497
  268MOL0     C36066   1.404   6.283   9.802  1.0217  0.0864  0.0353
  268MOL0     C36067   1.489   6.158   9.779 -0.1604  0.0464 -0.2055
  268MOL0     C36068   1.490   6.100   9.919  0.6398 -0.1869  0.1070
  268MOL0     O36069   1.599   6.021   9.948 -0.6005  0.0383 -0.1337
  268MOL0     C36070   1.705   6.087  10.014 -0.2130  0.7274  0.1675
  268MOL0     C36071   1.812   6.147   9.954 -0.5435  1.2864 -0.2522
  268MOL0     C36072   1.919   6.197  10.025 -0.1053 -1.2432  0.3731
  268MOL0     C36073   1.909   6.216  10.164 -0.3145  1.2973  0.3176
  268MOL0     C36074   2.022   6.264  10.238 -0.8570 -0.4951  0.3303
  268MOL0     O36075   2.144   6.282  10.161  0.3739  0.4289 -0.0298
  268MOL0     C36076   2.256   6.349  10.207 -0.2799 -0.2674 -0.1890
  268MOL0     C36077   2.365   6.329  10.130 -1.4516  0.0845  0.0909
  268MOL0     C36078   2.485   6.387  10.165 -0.0892 -1.1615  0.5181
  268MOL0     C36079   2.500   6.465  10.277 -0.9677  0.0041  0.4696
  268MOL0     O36080   2.622   6.512  10.310 -1.0608 -0.4041 -0.3205
  268MOL0     C36081   2.657   6.625  10.395  0.0892  0.1651  0.6982
  268MOL0     C36082   2.808   6.652  10.381  0.4953  0.1277  0.4456
  268MOL0     C36083   2.840   6.691  10.239 -0.1327  0.5447 -0.0651
  268MOL0     C36084   2.981   6.733  10.236  0.2831  0.4555  0.0146
  268MOL0     C36085   3.039   6.756  10.097  0.1941  0.5409 -0.1996
  268MOL0     C36086   3.167   6.828  10.098 -0.9906  0.3102 -0.2134
  268MOL0     C36087   3.288   6.730  10.135  0.0053 -0.0378 -0.2614
  268MOL0     C36088   3.414   6.803  10.175  1.1736  0.1884 -0.4489
  268MOL0    Cl36089   3.524   6.675  10.231  0.3140  0.3264  0.0895
  268MOL0     C36090   2.392   6.497  10.354 -0.0739  0.5743  0.3399
  268MOL0     C36091   2.273   6.438  10.317 -0.1384  0.7206  0.2375
  268MOL0     O36092   2.006   6.290  10.364  0.1690  0.3081  0.3709
  268MOL0     C36093   1.801   6.155  10.227  0.2527 -1.0015  0.2001
  268MOL0     C36094   1.702   6.091  10.154 -0.2020 -0.5505  0.1179
  268MOL0     N36095   1.353   6.278   9.430 -0.0429  0.8322  0.3241
  268MOL0     N36096   1.268   6.206   9.365 -0.5684  0.4664  0.8530
  268MOL0     C36097   1.480   5.211   9.952  0.3610 -0.3235  0.7581
  268MOL0     C36098   1.537   5.088   9.916 -1.1426 -0.2600 -0.9615
  268MOL0     C36099   1.653   4.700   9.701 -0.1164 -0.1253 -0.0482
  268MOL0     C36100   1.593   4.578   9.720 -0.4962 -0.0079  0.3297
  268MOL0     C36101   1.645   4.466   9.661  0.2806  0.1332 -0.1351
  268MOL0     C36102   1.766   4.473   9.585  0.7488  0.2163  0.3748
  268MOL0     O36103   1.827   4.364   9.523 -0.3122 -0.9676  0.0307
  268MOL0     C36104   1.739   4.269   9.478 -0.4476 -0.1735  0.3472
  268MOL0     C36105   1.800   4.170   9.369  0.1265  0.5237 -0.3582
  268MOL0     C36106   1.682   4.123   9.277 -0.0386 -1.2946 -0.1768
  268MOL0     C36107   1.738   4.041   9.154 -0.0964 -0.3748 -0.1081
  268MOL0     C36108   1.833   4.118   9.071 -0.0509 -0.0973  0.3941
  268MOL0     C36109   1.916   4.160   8.995 -0.5313  0.0093 -0.5628
  268MOL0     C36110   1.833   4.591   9.573  0.7489 -0.0747 -0.3037
  268MOL0     C36111   1.772   4.709   9.618 -0.0195  0.8191  0.3143
  268MOL0     C36112   1.849   4.838   9.593  0.0010 -0.4022  0.1193
  268MOL0     H36113   1.678   5.161   9.618 -0.9897  1.1145 -1.7116
  268MOL0     H36114   1.603   5.383   9.680  0.2149  0.5207  0.0638
  268MOL0     H36115   1.246   5.387   9.891 -1.4869  0.5572 -0.5772
  268MOL0     H36116   1.311   5.420  10.047 -0.3191  2.2318  1.6359
  268MOL0     H36117   1.332   5.666   9.977 -0.3247  0.8638 -0.4441
  268MOL0     H36118   1.167   5.612   9.991  0.5266 -1.1121  0.3401
  268MOL0     H36119   1.178   5.552   9.723 -1.2521  2.2387 -2.6468
  268MOL0     H36120   1.332   5.640   9.736  0.2290 -3.0599 -1.6070
  268MOL0     H36121   1.060   5.758   9.811  1.3807 -1.5383  2.5283
  268MOL0     H36122   1.219   5.839   9.815 -0.9270 -1.0317  2.2608
  268MOL0     H36123   1.226   5.751   9.568 -1.0190 -3.1551  0.6849
  268MOL0     H36124   1.053   5.730   9.584 -1.7883  2.8295 -0.8081
  268MOL0     H36125   1.019   5.974   9.639 -0.4566  0.0741 -0.7008
  268MOL0     H36126   1.201   5.988   9.634  1.7995 -3.4175  1.3190
  268MOL0     H36127   1.003   5.892   9.411  1.7223 -1.9060 -1.3631
  268MOL0     H36128   1.172   5.924   9.381  0.5020 -1.0595  0.8531
  268MOL0     H36129   1.041   6.121   9.302 -1.8272  1.1793  0.5723
  268MOL0     H36130   0.968   6.130   9.469  0.2294  0.4697 -0.6157
  268MOL0     H36131   1.123   6.255   9.657  0.9373  1.1947  0.5548
  268MOL0     H36132   1.482   6.396   9.624  0.9394 -0.6579  0.7314
  268MOL0     H36133   1.337   6.462   9.700  0.4384 -0.0730  2.6993
  268MOL0     H36134   1.453   6.352   9.871  2.3535  0.1728 -0.9475
  268MOL0     H36135   1.300   6.264   9.830  0.0535  2.2421 -1.7911
  268MOL0     H36136   1.591   6.185   9.749  0.2012 -0.9250  0.0926
  268MOL0     H36137   1.449   6.090   9.704  1.2513 -1.7910  0.6115
  268MOL0     H36138   1.396   6.046   9.926 -0.7714  2.2047  0.6844
  268MOL0     H36139   1.488   6.175   9.999  2.4187  0.0710 -0.0392
  268MOL0     H36140   1.817   6.142   9.846  0.1926 -0.5827 -0.1783
  268MOL0     H36141   2.002   6.231   9.964  0.4795 -0.2660  1.6589
  268MOL0     H36142   2.361   6.264  10.043 -3.1849  1.3868 -0.8679
  268MOL0     H36143   2.566   6.371  10.095  0.6884  3.0507  0.1718
  268MOL0     H36144   2.598   6.715  10.374 -0.1194 -0.0344  0.4234
  268MOL0     H36145   2.637   6.599  10.499 -2.6402 -1.8509 -0.1993
  268MOL0     H36146   2.840   6.720  10.461  0.2843  0.0000  0.6384
  268MOL0     H36147   2.852   6.554  10.404 -2.3497 -0.7611  2.6684
  268MOL0     H36148   2.832   6.607  10.168 -1.6650  1.4514 -1.0187
  268MOL0     H36149   2.775   6.769  10.198 -1.7345 -0.8955 -0.3750
  268MOL0     H36150   3.050   6.667  10.290 -0.0108  1.2041  1.3457
  268MOL0     H36151   2.993   6.822  10.298 -2.7224  0.0141  1.4357
  268MOL0     H36152   2.965   6.815  10.042  0.7886 -0.8065 -2.5756
  268MOL0     H36153   3.049   6.661  10.044  1.0705 -0.7862  2.2072
  268MOL0     H36154   3.194   6.860   9.996 -0.2008 -0.5566 -0.2903
  268MOL0     H36155   3.158   6.914  10.165  1.9532  0.8922 -0.4399
  268MOL0     H36156   3.310   6.660  10.054  1.8371 -0.9916  1.0044
  268MOL0     H36157   3.237   6.670  10.211 -0.3304  0.2518 -0.2574
  268MOL0     H36158   3.443   6.857  10.084  2.4590 -0.3786 -0.4001
  268MOL0     H36159   3.397   6.871  10.259 -0.4027 -0.9150  0.1604
  268MOL0     H36160   2.402   6.551  10.447  0.0387 -0.9201  1.2356
  268MOL0     H36161   2.179   6.451  10.369 -2.3558  0.6984 -3.4595
  268MOL0     H36162   1.797   6.148  10.335  1.0862 -0.7744  0.2546
  268MOL0     H36163   1.632   6.030  10.211 -0.7905 -1.3302 -1.3935
  268MOL0     H36164   1.442   5.221  10.053 -1.1696 -4.4340  0.7435
  268MOL0     H36165   1.544   5.007   9.989 -0.5500  1.3097  0.8196
  268MOL0     H36166   1.504   4.568   9.782 -0.6812 -0.3603  0.0155
  268MOL0     H36167   1.594   4.374   9.687 -0.7906  1.4320  2.7378
  268MOL0     H36168   1.658   4.319   9.424  0.2872  0.3545 -0.3011
  268MOL0     H36169   1.695   4.205   9.555  1.6888 -0.7903  1.1363
  268MOL0     H36170   1.837   4.082   9.422  0.4408  2.5762  3.1307
  268MOL0     H36171   1.871   4.226   9.308 -1.6578  1.9392 -1.2572
  268MOL0     H36172   1.622   4.206   9.238  2.7290  1.1267  0.3194
  268MOL0     H36173   1.610   4.060   9.330  0.1472  0.5248  2.4640
  268MOL0     H36174   1.801   3.960   9.191  1.4033  1.5398  1.8058
  268MOL0     H36175   1.660   4.004   9.088 -1.7279  1.1958  0.8478
  268MOL0     H36176   1.995   4.212   8.944  1.8032 -1.9345  0.8676
  268MOL0     H36177   1.926   4.593   9.518  0.2566 -1.0952 -1.2106
  268MOL0     H36178   1.785   4.904   9.533  0.0420 -0.6529 -0.2033
  268MOL0     H36179   1.883   4.893   9.681  1.5905 -3.5536  1.6419
  268MOL0     H36180   1.934   4.805   9.532 -2.7463 -1.2986 -3.6013
  269MOL0     O36181   5.672   8.129   7.506 -0.0023  0.5007 -0.1041
  269MOL0     C36182   5.557   8.162   7.535 -0.0318 -0.2280  0.2693
  269MOL0     O36183   5.503   8.289   7.516 -0.0622  0.0606 -0.4695
  269MOL0     C36184   5.584   8.396   7.470 -0.2769  0.4947 -0.6136
  269MOL0     C36185   5.521   8.502   7.421 -0.6364 -0.6718  0.2105
  269MOL0     C36186   5.584   8.627   7.396 -0.1970 -0.5255  0.0527
  269MOL0     C36187   5.714   8.646   7.422 -0.8289  0.5125  0.3997
  269MOL0     O36188   5.786   8.758   7.414  0.4024 -0.1191  0.1310
  269MOL0     C36189   5.718   8.869   7.349 -0.0763 -0.3186  0.2964
  269MOL0     C36190   5.809   8.996   7.338  0.0817  0.0008 -1.0799
  269MOL0     C36191   5.839   9.058   7.480 -0.6260  0.9475  0.4487
  269MOL0     C36192   5.913   9.194   7.466  0.5604  0.9594 -0.0174
  269MOL0     C36193   5.942   9.260   7.594 -0.6330  0.0107 -0.0990
  269MOL0     C36194   6.018   9.396   7.569 -0.6698 -0.2594 -0.4022
  269MOL0     C36195   6.073   9.460   7.699  0.1947 -0.0593 -0.2989
  269MOL0     C36196   5.961   9.516   7.797 -0.9527 -0.2075 -0.3078
  269MOL0     N36197   6.009   9.577   7.921  0.5163 -0.0633 -0.2324
  269MOL0     C36198   6.083   9.694   7.923 -0.6017  0.4321 -0.0488
  269MOL0     C36199   6.118   9.704   8.052 -0.1589  0.0732  0.2186
  269MOL0     C36200   6.190   9.814   8.111  0.3895 -0.2482  0.0115
  269MOL0     C36201   6.310   9.759   8.186 -0.5088 -0.0729  0.5919
  269MOL0     C36202   6.410   9.874   8.217 -1.4780 -0.1823 -0.4623
  269MOL0     C36203   6.494   9.812   8.327  0.0136 -0.1561 -0.0468
  269MOL0     O36204   6.583   9.913   8.368 -0.1684  0.5974  0.2727
  269MOL0     C36205   6.721   9.892   8.367  0.5373  0.6286 -0.3395
  269MOL0     C36206   6.807  10.003   8.360 -0.8929 -0.4314  0.2531
  269MOL0     C36207   6.946   9.978   8.359  0.6064 -0.4614  0.1716
  269MOL0     C36208   7.004   9.852   8.356 -0.0294  0.6653 -0.3279
  269MOL0     C36209   7.149   9.840   8.360  0.1053 -0.0875  0.5641
  269MOL0     O36210   7.201   9.714   8.352  0.6545  0.2486 -0.0612
  269MOL0     C36211   7.336   9.696   8.334  0.8058  0.2339  0.6472
  269MOL0     C36212   7.417   9.758   8.236  0.3061  0.2368 -0.6471
  269MOL0     C36213   7.555   9.732   8.250 -0.0043  0.1818 -0.0028
  269MOL0     C36214   7.610   9.653   8.361 -0.5076 -0.2016  0.6580
  269MOL0     O36215   7.747   9.636   8.376 -0.4499 -0.2158 -0.0375
  269MOL0     C36216   7.838   9.726   8.314 -0.6088 -0.4156 -0.0507
  269MOL0     C36217   7.980   9.678   8.336 -0.3941 -0.0915  0.4173
  269MOL0     C36218   8.014   9.536   8.275  0.7984 -0.5080 -0.6601
  269MOL0     C36219   8.169   9.523   8.265 -0.2310 -0.2134  0.0085
  269MOL0     C36220   8.212   9.377   8.239  0.1460  0.1325  0.2129
  269MOL0     C36221   8.366   9.374   8.218  0.3227 -0.2272 -0.4535
  269MOL0     C36222   8.409   9.233   8.168 -0.3094  0.1948  0.9446
  269MOL0     C36223   8.547   9.203   8.215 -0.7170  0.1301 -0.1249
  269MOL0    Cl36224   8.663   9.344   8.190  0.4961 -0.2261 -0.7140
  269MOL0     C36225   7.528   9.582   8.444 -0.4894  0.4193  0.8138
  269MOL0     C36226   7.390   9.599   8.424 -0.0122  0.3271  0.3350
  269MOL0     O36227   7.220   9.939   8.368  0.2341 -1.0440  0.2097
  269MOL0     C36228   6.917   9.738   8.358 -0.4856 -0.3752  0.2364
  269MOL0     C36229   6.781   9.760   8.380 -0.7757  0.0276 -0.0669
  269MOL0     N36230   6.072   9.593   8.125  0.2013  0.3123 -0.5875
  269MOL0     N36231   6.013   9.516   8.043  0.0720 -0.4343  0.7631
  269MOL0     C36232   5.784   8.540   7.473  0.2307 -0.1076  0.1384
  269MOL0     C36233   5.723   8.417   7.493  0.2748 -0.9267 -0.2985
  269MOL0     C36234   5.473   8.065   7.624  0.0247  0.3202 -0.4603
  269MOL0     C36235   5.528   7.944   7.684  0.2710 -0.3445  0.3835
  269MOL0     C36236   5.443   7.851   7.745 -0.1219 -0.6186 -0.1609
  269MOL0     C36237   5.305   7.870   7.758 -0.3798 -0.0231 -0.2572
  269MOL0     O36238   5.233   7.763   7.813  0.0932 -0.3016 -0.0685
  269MOL0     C36239   5.091   7.783   7.826 -0.7726 -0.0249 -0.0305
  269MOL0     C36240   5.021   7.679   7.918 -0.3151 -0.5637 -0.3311
  269MOL0     C36241   4.865   7.660   7.877 -0.5703  0.7776  0.2067
  269MOL0     C36242   4.771   7.583   7.966 -0.2222 -0.0769  0.3298
  269MOL0     C36243   4.791   7.441   7.971 -0.1864 -0.1162 -0.5443
  269MOL0     C36244   4.808   7.323   7.953  0.1313 -0.2146  0.1759
  269MOL0     C36245   5.253   7.993   7.707 -0.8383  0.6937 -0.1776
  269MOL0     C36246   5.331   8.079   7.633  0.7752  0.3237  0.3687
  269MOL0     C36247   5.253   8.200   7.580  0.3755  0.2483 -0.0739
  269MOL0     H36248   5.417   8.485   7.394 -0.4919  0.0451 -0.9021
  269MOL0     H36249   5.533   8.705   7.339  0.6077 -3.2655 -4.9509
  269MOL0     H36250   5.680   8.845   7.250 -3.3250  3.6592  0.2832
  269MOL0     H36251   5.631   8.906   7.405  1.0140  0.0451  1.8266
  269MOL0     H36252   5.774   9.071   7.267  1.4737 -0.7708 -2.6473
  269MOL0     H36253   5.904   8.960   7.297  0.6864  2.3058 -1.8569
  269MOL0     H36254   5.900   8.989   7.538  1.8630  0.7278 -2.1759
  269MOL0     H36255   5.744   9.069   7.534 -1.2388  1.0181 -0.5929
  269MOL0     H36256   6.001   9.178   7.403  0.4780  0.3540  0.0117
  269MOL0     H36257   5.844   9.252   7.404 -1.1340 -0.0863  0.8143
  269MOL0     H36258   5.849   9.270   7.650 -0.8033  1.2978 -0.5625
  269MOL0     H36259   6.010   9.203   7.658  0.2185  1.7995  0.6637
  269MOL0     H36260   6.105   9.379   7.504  0.4122 -1.6962  1.2915
  269MOL0     H36261   5.944   9.464   7.527  0.7516  1.1232 -0.7626
  269MOL0     H36262   6.135   9.547   7.675 -1.3785  1.5034  1.0470
  269MOL0     H36263   6.133   9.391   7.759 -0.2372  1.6336  2.2517
  269MOL0     H36264   5.902   9.584   7.734 -0.5291 -1.1893 -1.8074
  269MOL0     H36265   5.894   9.434   7.824  2.4160 -2.3566  2.2643
  269MOL0     H36266   6.104   9.753   7.835 -1.0959 -1.8233 -1.7543
  269MOL0     H36267   6.230   9.866   8.024  3.5601 -2.0624  0.2398
  269MOL0     H36268   6.131   9.881   8.175 -1.0478 -1.9493  0.5534
  269MOL0     H36269   6.285   9.700   8.274  1.1674  0.4227  1.4424
  269MOL0     H36270   6.352   9.680   8.124 -2.7952 -1.2301  0.3854
  269MOL0     H36271   6.373   9.975   8.236  1.4843  0.9734 -0.2646
  269MOL0     H36272   6.473   9.890   8.129  0.6305 -1.6985  0.6950
  269MOL0     H36273   6.536   9.713   8.307  0.9693  0.0289  0.9765
  269MOL0     H36274   6.427   9.798   8.413 -0.5082  1.5537 -0.1373
  269MOL0     H36275   6.770  10.104   8.371  1.8027  0.7320 -0.5386
  269MOL0     H36276   7.009  10.067   8.364  1.1849 -0.7983 -0.8937
  269MOL0     H36277   7.366   9.823   8.165 -0.2791  0.3575 -0.1197
  269MOL0     H36278   7.615   9.789   8.180  0.4724  2.1969  1.9144
  269MOL0     H36279   7.824   9.730   8.206  0.1728  1.4601 -0.1080
  269MOL0     H36280   7.830   9.829   8.351  1.1689 -0.4954  0.6468
  269MOL0     H36281   8.044   9.756   8.293 -0.3095  1.1301  2.6055
  269MOL0     H36282   8.005   9.674   8.442 -1.3913 -1.9262  0.6205
  269MOL0     H36283   7.971   9.459   8.340  0.4005  1.0015  0.9472
  269MOL0     H36284   7.961   9.518   8.181 -2.9132  0.1371  1.1100
  269MOL0     H36285   8.218   9.537   8.362 -0.8321 -2.3150  0.6699
  269MOL0     H36286   8.210   9.598   8.196 -0.4825  0.6162  0.7555
  269MOL0     H36287   8.168   9.354   8.141 -1.7745  0.4933  0.9532
  269MOL0     H36288   8.179   9.306   8.315  1.0333  0.3361  0.8067
  269MOL0     H36289   8.388   9.450   8.142  1.4826  2.1879  2.0809
  269MOL0     H36290   8.421   9.394   8.310 -0.2723 -2.0609  0.3392
  269MOL0     H36291   8.410   9.229   8.059  1.6324  2.1151  0.8151
  269MOL0     H36292   8.339   9.160   8.209 -0.4347 -0.8658 -1.0928
  269MOL0     H36293   8.536   9.190   8.323 -0.1900  0.0341 -0.0841
  269MOL0     H36294   8.591   9.114   8.169  2.3278  1.2372  0.4561
  269MOL0     H36295   7.579   9.511   8.509 -3.5834 -1.3035  1.5603
  269MOL0     H36296   7.314   9.552   8.486 -1.0067  2.9254  1.2766
  269MOL0     H36297   6.958   9.638   8.353  0.9424  0.2376 -1.8092
  269MOL0     H36298   6.717   9.673   8.388 -1.1127  0.1025 -1.5515
  269MOL0     H36299   5.882   8.571   7.507 -1.1543  2.1397  2.3976
  269MOL0     H36300   5.786   8.341   7.540  0.2145 -1.5891 -1.2650
  269MOL0     H36301   5.634   7.923   7.670  0.1353 -0.2093 -0.9193
  269MOL0     H36302   5.479   7.761   7.795 -0.4608 -1.2633 -1.0549
  269MOL0     H36303   5.047   7.777   7.726  1.5168  1.4313 -1.2023
  269MOL0     H36304   5.066   7.883   7.863  0.3737  0.2435  0.0355
  269MOL0     H36305   5.025   7.721   8.019 -0.6075 -0.0241 -0.5424
  269MOL0     H36306   5.067   7.580   7.931  0.8423  0.1573  1.4894
  269MOL0     H36307   4.856   7.620   7.776  0.9570  0.0125  0.3274
  269MOL0     H36308   4.833   7.764   7.878  0.3580  1.0742  0.5228
  269MOL0     H36309   4.785   7.632   8.063  0.9218 -0.2464  0.2676
  269MOL0     H36310   4.673   7.610   7.925 -0.8485 -0.0039  1.8369
  269MOL0     H36311   4.823   7.218   7.940  2.0519  0.2409 -1.8460
  269MOL0     H36312   5.146   8.012   7.716 -1.0591  0.4833 -2.0551
  269MOL0     H36313   5.295   8.284   7.635 -1.8279  0.9306  0.6710
  269MOL0     H36314   5.272   8.207   7.472  0.0889  2.2437 -0.0362
  269MOL0     H36315   5.145   8.201   7.597  0.3555  2.1381 -0.1870
  270MOL0     O36316   0.806  10.025   3.999  0.1424  0.0608 -0.2209
  270MOL0     C36317   0.778  10.144   3.974 -0.8676  0.0020  0.2127
  270MOL0     O36318   0.861  10.257   3.992  0.1949  0.5480 -0.0717
  270MOL0     C36319   0.988  10.231   4.021 -0.1066  0.3401  0.2373
  270MOL0     C36320   1.048  10.291   4.136 -0.3149 -0.3327  0.4795
  270MOL0     C36321   1.182  10.260   4.166  0.2691 -0.4534 -0.0400
  270MOL0     C36322   1.264  10.183   4.082  0.6622 -0.0122 -0.2157
  270MOL0     O36323   1.396  10.165   4.106 -0.1422 -0.8633  0.3173
  270MOL0     C36324   1.458  10.202   4.230  0.2065 -0.1663  1.3095
  270MOL0     C36325   1.603  10.144   4.229  0.6317 -0.1302 -0.5918
  270MOL0     C36326   1.690  10.188   4.348  0.8027  0.5354  0.2053
  270MOL0     C36327   1.745  10.333   4.329  0.4890  0.7734 -0.1197
  270MOL0     C36328   1.867  10.358   4.422  0.3360  0.0336  0.3073
  270MOL0     C36329   1.933  10.495   4.422  0.3789 -0.0958 -0.2786
  270MOL0     C36330   2.049  10.496   4.526  0.0392 -0.3674  0.2298
  270MOL0     C36331   2.182  10.445   4.480 -0.2465 -0.5323  0.6186
  270MOL0     N36332   2.267  10.423   4.592 -0.7912  0.1266 -0.1374
  270MOL0     C36333   2.353  10.514   4.645 -0.2195 -0.9203 -0.5057
  270MOL0     C36334   2.411  10.446   4.746  0.0415  0.2252  0.1719
  270MOL0     C36335   2.509  10.500   4.841 -0.5946  0.5100  0.6561
  270MOL0     C36336   2.661  10.500   4.815  0.2412  0.8024  0.0605
  270MOL0     C36337   2.737  10.368   4.824  0.4110 -1.5453  0.5071
  270MOL0     C36338   2.884  10.402   4.793  0.0928  0.2839 -0.0148
  270MOL0     O36339   2.940  10.392   4.923  0.5807 -0.7135  0.4554
  270MOL0     C36340   3.080  10.400   4.919 -0.3780 -0.3427 -0.0908
  270MOL0     C36341   3.143  10.358   5.033 -1.3702 -1.0272 -0.7824
  270MOL0     C36342   3.283  10.353   5.045 -0.2946  0.4164 -0.5640
  270MOL0     C36343   3.364  10.389   4.938  0.1238 -0.6310  0.0656
  270MOL0     C36344   3.506  10.390   4.953  0.2384 -0.7866  0.3843
  270MOL0     O36345   3.579  10.399   4.842 -0.1863 -0.2813  0.1384
  270MOL0     C36346   3.716  10.392   4.840 -0.3017 -0.7859  0.6935
  270MOL0     C36347   3.771  10.323   4.738  0.8493  0.0273 -0.0774
  270MOL0     C36348   3.902  10.294   4.732  0.8079 -0.5050  0.3443
  270MOL0     C36349   3.986  10.335   4.829  0.3059  0.1070 -0.2042
  270MOL0     O36350   4.112  10.288   4.816  0.2712  0.6097  0.5288
  270MOL0     C36351   4.208  10.329   4.910  0.0431  0.1983  0.5433
  270MOL0     C36352   4.347  10.282   4.859  0.2637  0.4952 -0.2590
  270MOL0     C36353   4.470  10.335   4.941 -0.1242  0.0269 -0.7460
  270MOL0     C36354   4.547  10.448   4.882  0.0746  0.6577 -0.3588
  270MOL0     C36355   4.675  10.477   4.966 -0.0648 -0.3509 -0.0666
  270MOL0     C36356   4.764  10.594   4.914  0.1090  1.0987  0.5841
  270MOL0     C36357   4.853  10.654   5.017  0.4057 -0.1474  0.6793
  270MOL0     C36358   4.968  10.568   5.067 -0.3777  0.9416 -0.3853
  270MOL0    Cl36359   4.913  10.460   5.199 -0.0050 -0.3258 -0.1859
  270MOL0     C36360   3.941  10.425   4.928 -0.6916  0.3536  0.2951
  270MOL0     C36361   3.806  10.454   4.930  0.3814  0.5636 -0.4792
  270MOL0     O36362   3.550  10.372   5.064 -0.3952 -0.2613  0.1515
  270MOL0     C36363   3.301  10.415   4.814 -0.2948 -0.3076 -0.3351
  270MOL0     C36364   3.164  10.418   4.808  0.1477 -0.3788  0.1856
  270MOL0     N36365   2.361  10.315   4.740 -0.2097  0.0385  0.0936
  270MOL0     N36366   2.267  10.303   4.661  0.3325 -0.0934 -1.0650
  270MOL0     C36367   1.211  10.130   3.969 -0.8647 -0.6477  0.4567
  270MOL0     C36368   1.075  10.157   3.939  0.1671  1.0097  0.2078
  270MOL0     C36369   0.640  10.180   3.927 -0.6359  0.1309 -0.6689
  270MOL0     C36370   0.594  10.320   3.911  0.1477  0.5594 -0.1875
  270MOL0     C36371   0.471  10.360   3.855  0.1475  0.7360  0.2865
  270MOL0     C36372   0.386  10.262   3.806  0.3954  0.3570 -0.2087
  270MOL0     O36373   0.265  10.290   3.741  0.4181 -0.0158  0.9829
  270MOL0     C36374   0.200  10.402   3.797 -0.5588  0.0053 -0.3134
  270MOL0     C36375   0.053  10.392   3.784 -0.0608 -0.5832  0.2147
  270MOL0     C36376  -0.001  10.287   3.871  0.0227  0.1965  0.3785
  270MOL0     C36377  -0.151  10.292   3.885  0.1534 -1.0868  0.0970
  270MOL0     C36378  -0.201  10.406   3.966  0.6485  0.6208  0.2859
  270MOL0     C36379  -0.263  10.489   4.029  0.0555 -0.4828  0.9989
  270MOL0     C36380   0.419  10.120   3.821 -0.4651  0.4046  0.6676
  270MOL0     C36381   0.545  10.079   3.881  0.8920  0.5231 -0.1905
  270MOL0     C36382   0.571   9.920   3.877 -0.3069 -0.6541  0.2928
  270MOL0     H36383   0.986  10.356   4.197 -1.1336 -0.1889 -0.4832
  270MOL0     H36384   1.226  10.316   4.248 -0.9022  0.2579  0.1253
  270MOL0     H36385   1.473  10.310   4.239  0.0111  0.1534 -1.4575
  270MOL0     H36386   1.407  10.163   4.319 -0.4881  0.1894  1.0786
  270MOL0     H36387   1.655  10.175   4.137 -0.3376  4.3748  0.1541
  270MOL0     H36388   1.599  10.035   4.222  0.7173 -0.2312  0.7634
  270MOL0     H36389   1.772  10.118   4.359  0.6604  0.2894 -0.2853
  270MOL0     H36390   1.624  10.198   4.435  1.0625 -1.7176  0.7203
  270MOL0     H36391   1.785  10.342   4.228  1.6451  2.1145  0.4206
  270MOL0     H36392   1.663  10.405   4.328 -1.5471 -1.4149 -1.5312
  270MOL0     H36393   1.831  10.349   4.525  1.1907 -0.9018  0.5421
  270MOL0     H36394   1.939  10.284   4.387  0.3262  0.7042 -1.1930
  270MOL0     H36395   1.960  10.530   4.322 -1.7757 -1.1306 -1.2947
  270MOL0     H36396   1.863  10.575   4.447  3.2572  2.3289  0.5827
  270MOL0     H36397   2.022  10.441   4.616  0.6916 -0.8606  0.1333
  270MOL0     H36398   2.075  10.595   4.565  1.4877 -0.1247 -1.2138
  270MOL0     H36399   2.170  10.356   4.418 -0.4127  0.1023 -0.2761
  270MOL0     H36400   2.234  10.519   4.419  1.4132 -1.9384  0.2534
  270MOL0     H36401   2.373  10.616   4.616 -2.7694  0.0996  1.0032
  270MOL0     H36402   2.485  10.606   4.849 -1.8367  0.4666 -1.6199
  270MOL0     H36403   2.492  10.450   4.936  1.5640  0.6219  1.1355
  270MOL0     H36404   2.688  10.550   4.721  0.9481  0.2000 -0.0624
  270MOL0     H36405   2.699  10.559   4.899  1.0330  1.6085 -0.8341
  270MOL0     H36406   2.700  10.295   4.751  0.9065 -1.5018  0.2113
  270MOL0     H36407   2.737  10.328   4.926  1.1152  1.8305  1.9876
  270MOL0     H36408   2.904  10.492   4.733  1.4091  0.3027  0.4149
  270MOL0     H36409   2.915  10.318   4.730  2.0310 -0.3932  1.7543
  270MOL0     H36410   3.082  10.332   5.119 -0.2833 -0.8522  0.0600
  270MOL0     H36411   3.321  10.326   5.142  0.1558  3.1035  0.0968
  270MOL0     H36412   3.705  10.269   4.671  2.4692 -2.2087 -0.0009
  270MOL0     H36413   3.932  10.225   4.654  0.9904 -0.2636  0.1976
  270MOL0     H36414   4.207  10.438   4.919  0.4755  0.1926  0.7026
  270MOL0     H36415   4.188  10.301   5.014 -1.5313  1.6223  0.6675
  270MOL0     H36416   4.336  10.174   4.867 -0.9866  0.6071 -0.2953
  270MOL0     H36417   4.364  10.309   4.754 -2.9286  0.9932 -0.7255
  270MOL0     H36418   4.436  10.349   5.044 -0.2620 -1.0206 -0.6394
  270MOL0     H36419   4.534  10.247   4.943 -1.7530 -1.2038  0.2247
  270MOL0     H36420   4.483  10.536   4.871 -0.6472  0.3560  1.0628
  270MOL0     H36421   4.576  10.423   4.780 -0.2223 -2.1661  0.1608
  270MOL0     H36422   4.737  10.387   4.975  0.7077  0.3915  3.0629
  270MOL0     H36423   4.642  10.500   5.067  0.6698 -1.6074  0.4850
  270MOL0     H36424   4.816  10.569   4.821 -0.1206  1.2848  0.4029
  270MOL0     H36425   4.695  10.669   4.875 -2.6732 -1.9542 -0.8338
  270MOL0     H36426   4.780  10.670   5.097  0.3670  1.8111  0.3051
  270MOL0     H36427   4.881  10.757   4.992 -0.9592  0.6755  2.2787
  270MOL0     H36428   5.005  10.508   4.983 -1.0443 -0.3842  0.2445
  270MOL0     H36429   5.058  10.625   5.091  2.5300 -2.6515 -1.8183
  270MOL0     H36430   4.009  10.483   4.990 -1.2656  2.5184 -0.9691
  270MOL0     H36431   3.773  10.518   5.011  1.5949  1.0630 -0.3606
  270MOL0     H36432   3.354  10.427   4.720 -0.1049  0.0860 -0.1777
  270MOL0     H36433   3.113  10.425   4.712  0.1597 -0.7675  0.1471
  270MOL0     H36434   1.276  10.095   3.890  0.2583  0.1117  1.0286
  270MOL0     H36435   1.036  10.115   3.848 -1.4525  0.5528  1.0817
  270MOL0     H36436   0.662  10.395   3.949 -1.2492  1.1137  1.3841
  270MOL0     H36437   0.440  10.462   3.836 -1.8966 -0.1523 -1.6100
  270MOL0     H36438   0.231  10.485   3.733 -0.1541  0.3653  0.3406
  270MOL0     H36439   0.215  10.429   3.901 -0.2728 -0.5212 -0.2159
  270MOL0     H36440   0.038  10.377   3.676  0.1717  1.1913 -0.0898
  270MOL0     H36441   0.000  10.487   3.795 -0.1889 -0.8444  2.0959
  270MOL0     H36442   0.036  10.280   3.973  3.4547  0.1319 -0.7297
  270MOL0     H36443   0.026  10.193   3.820 -1.8198 -0.9154  1.3323
  270MOL0     H36444  -0.203  10.288   3.788  0.9958  0.9541 -0.4742
  270MOL0     H36445  -0.172  10.204   3.947  1.1346 -2.9904 -2.0899
  270MOL0     H36446  -0.316  10.567   4.079  3.3945  1.4027  1.8954
  270MOL0     H36447   0.358  10.043   3.774 -1.9721 -0.2054  3.4322
  270MOL0     H36448   0.575   9.890   3.982  0.4903  3.8412  1.7424
  270MOL0     H36449   0.490   9.869   3.823  0.6556 -1.5226 -0.3556
  270MOL0     H36450   0.665   9.905   3.824 -1.3019 -1.6903 -1.2718
  271MOL0     O36451   5.995   8.625   8.801  0.5249  0.1272 -0.2358
  271MOL0     C36452   6.004   8.730   8.740  1.4333  0.1292  0.6376
  271MOL0     O36453   6.115   8.789   8.689  0.2754 -0.4604 -0.1411
  271MOL0     C36454   6.219   8.707   8.670  0.2364 -0.4807 -0.2446
  271MOL0     C36455   6.350   8.734   8.721 -0.1701 -0.6837  0.0860
  271MOL0     C36456   6.453   8.649   8.694  0.4220  0.9857 -0.1938
  271MOL0     C36457   6.435   8.539   8.607  0.1474 -0.2411 -0.2714
  271MOL0     O36458   6.526   8.450   8.566  0.0143 -0.1431 -0.3657
  271MOL0     C36459   6.649   8.448   8.648 -0.3930 -0.3655 -0.0124
  271MOL0     C36460   6.757   8.526   8.577 -0.2180 -0.5743  0.7639
  271MOL0     C36461   6.892   8.518   8.655  0.3897  0.1647 -0.5336
  271MOL0     C36462   6.968   8.397   8.637  0.1469 -0.2927  0.0562
  271MOL0     C36463   7.120   8.409   8.672  0.4850  1.1113  0.0018
  271MOL0     C36464   7.212   8.289   8.639  0.0100  0.0085 -0.7132
  271MOL0     C36465   7.368   8.325   8.650 -0.3737  0.3640  0.2115
  271MOL0     C36466   7.417   8.360   8.794  0.0934 -0.2365 -0.1258
  271MOL0     N36467   7.392   8.244   8.889 -0.9187 -0.3586  0.7174
  271MOL0     C36468   7.281   8.234   8.971 -0.2105 -0.3876  0.1792
  271MOL0     C36469   7.283   8.115   9.030 -0.4072  0.0542  0.0907
  271MOL0     C36470   7.189   8.058   9.126  0.8647 -1.0989 -0.8011
  271MOL0     C36471   7.166   8.147   9.250 -0.5123  0.9077 -0.7946
  271MOL0     C36472   7.069   8.091   9.357  0.2074  0.1849  0.1563
  271MOL0     C36473   7.071   8.183   9.485 -0.9988  0.2737 -0.2299
  271MOL0     O36474   7.011   8.311   9.483 -0.1100 -0.0116 -0.0334
  271MOL0     C36475   6.870   8.318   9.490  0.2889  0.0169  0.3525
  271MOL0     C36476   6.786   8.205   9.508  0.0517  0.1079  0.2016
  271MOL0     C36477   6.651   8.230   9.498  1.3521 -0.1079 -0.6813
  271MOL0     C36478   6.597   8.354   9.451 -0.0768 -0.1010 -0.0086
  271MOL0     C36479   6.451   8.384   9.474 -0.9083  0.3900 -0.5185
  271MOL0     O36480   6.364   8.284   9.479 -0.2914 -0.7327  0.1404
  271MOL0     C36481   6.234   8.316   9.511  0.7169  0.2345 -0.2241
  271MOL0     C36482   6.196   8.389   9.622  0.1510 -0.7632 -0.3596
  271MOL0     C36483   6.060   8.424   9.639 -1.2980 -0.1459  0.3286
  271MOL0     C36484   5.957   8.384   9.552 -0.1106 -0.2488  0.5006
  271MOL0     O36485   5.825   8.412   9.551  0.3347 -0.6261 -0.5339
  271MOL0     C36486   5.774   8.485   9.658 -0.7043 -0.5283 -1.2867
  271MOL0     C36487   5.619   8.463   9.666  0.4462 -0.3019 -0.3163
  271MOL0     C36488   5.543   8.542   9.780  0.1382 -0.1256  0.2851
  271MOL0     C36489   5.534   8.690   9.747  0.1999  0.3494 -0.5607
  271MOL0     C36490   5.422   8.761   9.832  0.1878 -0.6393 -0.1613
  271MOL0     C36491   5.423   8.916   9.826 -0.9066 -0.3243  0.8357
  271MOL0     C36492   5.441   8.964   9.687 -0.9887  0.0580  0.6332
  271MOL0     C36493   5.413   9.119   9.680 -0.4771 -0.1499 -0.8440
  271MOL0    Cl36494   5.512   9.221   9.797 -0.2240 -0.4541 -0.1469
  271MOL0     C36495   6.001   8.302   9.440 -0.0687  0.0402 -0.2629
  271MOL0     C36496   6.137   8.262   9.427 -0.1028 -0.5865  0.0822
  271MOL0     O36497   6.425   8.504   9.473 -0.4266 -0.4312 -0.1802
  271MOL0     C36498   6.685   8.460   9.415 -0.1911  0.2481 -0.7521
  271MOL0     C36499   6.820   8.435   9.443  0.2355 -0.3185 -0.8260
  271MOL0     N36500   7.405   8.062   8.998 -0.2978  0.3865  0.3829
  271MOL0     N36501   7.463   8.131   8.903  0.1356  0.1895 -0.1160
  271MOL0     C36502   6.311   8.516   8.552  0.4998  0.7268 -0.4989
  271MOL0     C36503   6.199   8.596   8.585  0.0889 -0.2024  0.6425
  271MOL0     C36504   5.880   8.818   8.730  0.8215  0.0821  0.3438
  271MOL0     C36505   5.844   8.886   8.613 -0.0855 -0.2318  0.4720
  271MOL0     C36506   5.725   8.948   8.595 -0.7289 -0.3717  0.9148
  271MOL0     C36507   5.626   8.954   8.690  0.1899 -0.4155  0.1489
  271MOL0     O36508   5.498   9.007   8.680  0.0170  0.2700 -0.3692
  271MOL0     C36509   5.451   9.055   8.549  0.9199 -0.2112 -0.6424
  271MOL0     C36510   5.301   9.066   8.545 -0.2044  0.6939  0.7063
  271MOL0     C36511   5.234   8.942   8.599  1.4323  1.4090 -0.7884
  271MOL0     C36512   5.178   8.849   8.486 -0.0183 -0.9978  0.2328
  271MOL0     C36513   5.186   8.705   8.513  0.2658 -0.3686  0.8928
  271MOL0     C36514   5.191   8.590   8.543 -0.0035 -0.3368 -0.3018
  271MOL0     C36515   5.660   8.894   8.809 -0.3848 -0.1103 -0.2907
  271MOL0     C36516   5.783   8.827   8.836  0.0264  0.2235  0.3952
  271MOL0     C36517   5.805   8.791   8.979 -0.2171  0.3549  0.0201
  271MOL0     H36518   6.365   8.825   8.778  0.2886  1.1408 -2.7004
  271MOL0     H36519   6.554   8.674   8.724  0.4932  0.7200 -0.2072
  271MOL0     H36520   6.640   8.490   8.749  2.6657  0.5303 -0.0035
  271MOL0     H36521   6.683   8.346   8.667  0.0089 -0.5686 -1.6500
  271MOL0     H36522   6.718   8.628   8.578 -2.3212 -1.3220  0.8364
  271MOL0     H36523   6.773   8.504   8.471 -0.4733 -1.1705  0.8441
  271MOL0     H36524   6.887   8.544   8.761 -0.6068 -2.1008  0.0362
  271MOL0     H36525   6.947   8.593   8.597 -0.5403  4.0835  3.1329
  271MOL0     H36526   6.937   8.327   8.714 -2.2711 -0.3967 -0.9426
  271MOL0     H36527   6.946   8.345   8.544 -2.6588 -0.4244  0.7205
  271MOL0     H36528   7.164   8.493   8.618  2.5593 -0.2139 -0.4698
  271MOL0     H36529   7.128   8.425   8.780 -2.1047  0.3813  0.3748
  271MOL0     H36530   7.201   8.202   8.705  0.7787  2.1074  2.4074
  271MOL0     H36531   7.197   8.254   8.536 -2.1116  0.4426 -0.5941
  271MOL0     H36532   7.401   8.409   8.588 -0.1749  0.3797  0.3393
  271MOL0     H36533   7.420   8.232   8.625 -2.0192 -0.2139 -1.2921
  271MOL0     H36534   7.524   8.376   8.815 -0.0628  1.5746 -0.5888
  271MOL0     H36535   7.360   8.446   8.828  1.2899  1.1298 -1.4434
  271MOL0     H36536   7.210   8.313   8.990  0.5732 -0.1169  2.1271
  271MOL0     H36537   7.097   8.033   9.073  0.3774 -3.3300  0.9046
  271MOL0     H36538   7.230   7.963   9.163  4.6256  0.2893 -0.9128
  271MOL0     H36539   7.264   8.156   9.297 -0.6755  1.4533 -0.5378
  271MOL0     H36540   7.141   8.251   9.227  1.3763  1.1686 -1.7916
  271MOL0     H36541   7.113   7.995   9.388  1.2464  1.3848  2.7307
  271MOL0     H36542   6.968   8.072   9.319 -0.9329  0.9793  2.5754
  271MOL0     H36543   7.175   8.204   9.514 -1.5440 -1.2386  3.2549
  271MOL0     H36544   7.024   8.134   9.571  2.7116 -0.4808  1.5723
  271MOL0     H36545   6.820   8.106   9.535  4.5798  1.5643  0.6267
  271MOL0     H36546   6.578   8.162   9.541 -0.7353  3.6139  2.1843
  271MOL0     H36547   6.272   8.432   9.686  2.6780 -0.7768 -3.1266
  271MOL0     H36548   6.038   8.481   9.728  0.5279  1.1255  0.0194
  271MOL0     H36549   5.806   8.444   9.755 -1.4642  0.3886 -0.6287
  271MOL0     H36550   5.805   8.588   9.638 -2.0718  0.4810  1.3200
  271MOL0     H36551   5.584   8.492   9.566 -1.4023 -3.1761 -0.5953
  271MOL0     H36552   5.603   8.356   9.675  1.6740 -0.3783  1.2996
  271MOL0     H36553   5.441   8.506   9.792 -0.5656  2.3080  2.5205
  271MOL0     H36554   5.583   8.517   9.879  0.2448  1.8183  0.7713
  271MOL0     H36555   5.523   8.715   9.641 -0.4071  5.1413  0.4168
  271MOL0     H36556   5.627   8.740   9.772 -0.0701  1.3025 -1.3657
  271MOL0     H36557   5.438   8.742   9.938 -0.1274 -0.5482 -0.0971
  271MOL0     H36558   5.319   8.733   9.806 -0.3807  0.2294  1.0750
  271MOL0     H36559   5.333   8.957   9.873 -0.4570 -0.1622  1.5680
  271MOL0     H36560   5.512   8.954   9.879  0.4191  1.9844 -2.6353
  271MOL0     H36561   5.376   8.908   9.619 -0.2011 -0.7051  0.4945
  271MOL0     H36562   5.547   8.955   9.664 -0.5695  1.6031  1.7684
  271MOL0     H36563   5.433   9.157   9.580  3.5145  2.3352  0.6614
  271MOL0     H36564   5.305   9.132   9.689 -0.7475 -2.4166  0.0062
  271MOL0     H36565   5.916   8.261   9.387 -0.4238  2.1131 -1.4348
  271MOL0     H36566   6.171   8.200   9.346  1.6241 -0.7838  0.9179
  271MOL0     H36567   6.657   8.560   9.384  0.6988  0.3634 -1.2455
  271MOL0     H36568   6.889   8.516   9.420  1.9599 -1.1877  1.0199
  271MOL0     H36569   6.294   8.432   8.484 -0.5445  1.6523 -1.4196
  271MOL0     H36570   6.101   8.572   8.543  0.6702 -2.4244  0.4698
  271MOL0     H36571   5.921   8.893   8.537 -1.0836 -0.1134 -0.5577
  271MOL0     H36572   5.705   8.988   8.496  0.6408 -0.6168  0.5120
  271MOL0     H36573   5.480   8.989   8.468 -1.9323 -0.3093 -1.6953
  271MOL0     H36574   5.497   9.153   8.530 -1.7734  1.2992  0.0297
  271MOL0     H36575   5.276   9.083   8.439 -3.7141 -0.6182  1.1715
  271MOL0     H36576   5.275   9.150   8.611  1.1683 -0.3817  2.7239
  271MOL0     H36577   5.151   8.971   8.664  1.9107  4.4267 -1.3883
  271MOL0     H36578   5.298   8.877   8.660  1.6993 -1.4622 -3.8169
  271MOL0     H36579   5.077   8.884   8.466  0.3542  0.1700  0.3398
  271MOL0     H36580   5.242   8.877   8.401 -1.0225  0.1555 -0.1611
  271MOL0     H36581   5.215   8.488   8.567 -1.5153 -0.6640 -0.0544
  271MOL0     H36582   5.591   8.921   8.888  0.3170  0.4543  0.1390
  271MOL0     H36583   5.717   8.828   9.031 -0.6558 -1.3797  0.5652
  271MOL0     H36584   5.825   8.684   8.982  1.4275  0.5668 -1.4209
  271MOL0     H36585   5.901   8.830   9.014 -0.0872  0.7274 -0.7274
  272MOL0     O36586   8.991   3.602   7.125 -0.5169 -0.4002 -0.5397
  272MOL0     C36587   8.965   3.514   7.040  0.6323 -0.9637  0.7912
  272MOL0     O36588   9.034   3.487   6.935  0.3907  0.6137  0.4247
  272MOL0     C36589   9.142   3.550   6.893 -0.2004  0.0916 -0.4737
  272MOL0     C36590   9.176   3.683   6.919 -0.1784 -0.3942  0.1783
  272MOL0     C36591   9.302   3.729   6.875  0.1947  0.1043 -0.4419
  272MOL0     C36592   9.376   3.659   6.781 -0.6061  0.4874 -0.9191
  272MOL0     O36593   9.500   3.702   6.742 -0.3986  0.5566 -0.0290
  272MOL0     C36594   9.543   3.836   6.757 -0.3253 -0.1774  0.1789
  272MOL0     C36595   9.672   3.855   6.686  0.4658 -0.6396  0.8249
  272MOL0     C36596   9.782   3.806   6.775 -0.3519  0.0179 -0.7465
  272MOL0     C36597   9.916   3.824   6.712  0.2723 -0.2559  1.1257
  272MOL0     C36598  10.034   3.841   6.808 -0.9704  0.2188  0.6969
  272MOL0     C36599  10.169   3.856   6.732  0.2062 -0.2900  0.1310
  272MOL0     C36600  10.288   3.915   6.811  0.3221  0.4952  0.0585
  272MOL0     C36601  10.327   3.857   6.944  0.1495  0.2586 -0.5114
  272MOL0     N36602  10.452   3.915   6.991 -0.6541 -1.2852 -0.2566
  272MOL0     C36603  10.562   3.932   6.917 -0.2664 -0.0038  0.0945
  272MOL0     C36604  10.624   4.039   6.972  0.0472 -0.3166 -0.0902
  272MOL0     C36605  10.741   4.117   6.904 -0.3974  0.0017  0.5479
  272MOL0     C36606  10.875   4.069   6.954 -0.3702 -0.4071  0.2957
  272MOL0     C36607  10.984   4.165   6.908 -0.7102 -0.9144  0.5373
  272MOL0     C36608  11.130   4.127   6.945  0.9265  0.1669  1.0216
  272MOL0     O36609  11.190   4.048   6.840 -0.3792  0.0952  0.5531
  272MOL0     C36610  11.319   4.082   6.807 -0.0958 -0.0697 -0.8314
  272MOL0     C36611  11.372   4.041   6.687 -0.0733  0.1631  1.2002
  272MOL0     C36612  11.500   4.074   6.643 -0.4781  0.0469  0.4105
  272MOL0     C36613  11.587   4.146   6.732 -0.2866  1.2976  0.3928
  272MOL0     C36614  11.727   4.182   6.686  0.4522 -0.3147  0.1147
  272MOL0     O36615  11.811   4.233   6.780 -0.4085 -0.4040  0.7478
  272MOL0     C36616  11.941   4.231   6.741  0.2946 -1.0717  0.1405
  272MOL0     C36617  12.033   4.152   6.807  0.0603 -0.0118  0.8705
  272MOL0     C36618  12.167   4.154   6.771 -0.8582 -0.0927  0.7538
  272MOL0     C36619  12.217   4.235   6.675  0.2268  0.6861  0.1196
  272MOL0     O36620  12.353   4.228   6.646 -0.1126 -0.0701 -0.0078
  272MOL0     C36621  12.399   4.294   6.532  0.2389  0.1454  0.2163
  272MOL0     C36622  12.551   4.277   6.535 -0.5558 -0.0387 -0.2638
  272MOL0     C36623  12.613   4.361   6.431  0.5214  0.2912  0.2078
  272MOL0     C36624  12.756   4.402   6.473 -0.5194 -0.2326  0.9679
  272MOL0     C36625  12.855   4.287   6.480  0.5194  0.3896  0.7574
  272MOL0     C36626  13.002   4.317   6.442 -0.4255  0.5563 -0.5586
  272MOL0     C36627  13.092   4.198   6.464  0.8862  0.5860  0.3620
  272MOL0     C36628  13.213   4.212   6.376  0.0754 -0.0413 -0.0754
  272MOL0    Cl36629  13.292   4.359   6.448  0.3317  0.8020  0.2178
  272MOL0     C36630  12.132   4.326   6.609  0.8028  0.0410  0.0082
  272MOL0     C36631  11.991   4.323   6.644  0.2947  0.2060 -0.6589
  272MOL0     O36632  11.759   4.143   6.574  0.3640 -0.0789 -0.2803
  272MOL0     C36633  11.538   4.186   6.855  0.2926  0.2523 -0.2799
  272MOL0     C36634  11.409   4.157   6.886 -0.1745  0.5371 -0.8731
  272MOL0     N36635  10.563   4.071   7.088  0.5006  0.1493  0.5166
  272MOL0     N36636  10.455   3.995   7.098 -1.0069 -0.1588  0.7239
  272MOL0     C36637   9.334   3.536   6.740  0.1568 -0.1765 -0.2397
  272MOL0     C36638   9.218   3.476   6.797 -0.4320  0.1164 -0.5033
  272MOL0     C36639   8.822   3.465   7.018 -0.2362  0.1140  0.2708
  272MOL0     C36640   8.769   3.441   6.888  0.6028 -0.3544  0.2305
  272MOL0     C36641   8.639   3.398   6.871  0.2480  0.0662 -0.1198
  272MOL0     C36642   8.549   3.378   6.976  0.2925  1.1182 -0.1881
  272MOL0     O36643   8.418   3.340   6.969 -0.5292  0.0524 -0.0193
  272MOL0     C36644   8.367   3.261   7.077  0.2446 -0.1140 -0.7720
  272MOL0     C36645   8.260   3.170   7.027  0.7763 -0.3010  0.2571
  272MOL0     C36646   8.169   3.115   7.137 -0.7933  0.3753  0.2855
  272MOL0     C36647   8.108   2.984   7.087 -0.8286 -0.4743  0.3599
  272MOL0     C36648   7.994   3.021   6.998  0.1001 -0.1378  0.9356
  272MOL0     C36649   7.898   3.061   6.931  0.4976  0.2631  0.3897
  272MOL0     C36650   8.613   3.393   7.101  0.4339  0.1085 -0.3673
  272MOL0     C36651   8.738   3.434   7.124  0.7790 -0.1638  0.2416
  272MOL0     C36652   8.778   3.443   7.273  0.1941  0.3122 -0.0197
  272MOL0     H36653   9.123   3.752   6.983  2.3185  1.3528  0.4997
  272MOL0     H36654   9.331   3.827   6.911 -0.4828 -0.5728  2.1669
  272MOL0     H36655   9.467   3.900   6.712  0.9446  0.5085 -1.0561
  272MOL0     H36656   9.540   3.866   6.863 -4.6355 -1.5948  0.6547
  272MOL0     H36657   9.693   3.958   6.656  0.0186 -0.4728  1.0767
  272MOL0     H36658   9.663   3.789   6.599 -1.3223  1.4317 -0.6804
  272MOL0     H36659   9.764   3.700   6.797 -3.3182  0.5324 -0.2904
  272MOL0     H36660   9.775   3.859   6.870  1.3420 -1.3746  0.2254
  272MOL0     H36661   9.929   3.729   6.659  0.1234 -1.5722  3.3246
  272MOL0     H36662   9.914   3.907   6.641  3.7089  1.2731  2.5718
  272MOL0     H36663  10.029   3.938   6.858  1.9542  1.4383 -1.1176
  272MOL0     H36664  10.033   3.765   6.887  2.2729  0.5899  1.2260
  272MOL0     H36665  10.203   3.757   6.700  0.2832 -0.7288  1.4885
  272MOL0     H36666  10.155   3.911   6.639  0.8642 -1.3723 -0.6362
  272MOL0     H36667  10.253   4.014   6.841 -1.4532 -0.5866  1.8235
  272MOL0     H36668  10.375   3.933   6.749  0.7062  2.1669  1.0292
  272MOL0     H36669  10.246   3.883   7.012  0.9141  4.1002 -0.8068
  272MOL0     H36670  10.338   3.749   6.936 -2.1966 -0.1312  0.8331
  272MOL0     H36671  10.582   3.890   6.819  1.0174  0.5348  0.1112
  272MOL0     H36672  10.730   4.107   6.795  1.2705 -1.2677  0.4466
  272MOL0     H36673  10.726   4.223   6.926  0.1204 -0.0105  0.9758
  272MOL0     H36674  10.864   4.063   7.063 -1.6217 -1.5646  0.1280
  272MOL0     H36675  10.903   3.971   6.913  3.5122  0.9240 -0.6183
  272MOL0     H36676  10.969   4.269   6.937  5.1994  0.1379  1.0546
  272MOL0     H36677  10.975   4.169   6.799  2.8561 -1.2106  0.1125
  272MOL0     H36678  11.142   4.080   7.043 -1.7668  0.0544  1.3845
  272MOL0     H36679  11.172   4.228   6.946  2.5853 -0.3972 -1.4981
  272MOL0     H36680  11.303   3.980   6.628 -2.1072  0.7445  2.8492
  272MOL0     H36681  11.531   4.039   6.545  0.6848 -0.6129  1.0013
  272MOL0     H36682  11.989   4.090   6.884 -1.3226  0.9531  0.8885
  272MOL0     H36683  12.234   4.095   6.833  0.2345 -0.6617 -0.9068
  272MOL0     H36684  12.354   4.265   6.436  0.2578  1.9659 -0.3853
  272MOL0     H36685  12.383   4.401   6.546 -0.5007 -0.1118  1.5362
  272MOL0     H36686  12.587   4.314   6.632 -1.2530  1.5933 -0.5990
  272MOL0     H36687  12.573   4.170   6.532  1.7312  0.2557  2.2828
  272MOL0     H36688  12.618   4.313   6.333 -0.7331  1.5183 -0.5145
  272MOL0     H36689  12.554   4.453   6.419  0.8388  0.1706 -3.2438
  272MOL0     H36690  12.753   4.436   6.577  5.4061  0.6898  1.1699
  272MOL0     H36691  12.795   4.478   6.405  0.1537  0.2381  1.8587
  272MOL0     H36692  12.816   4.207   6.417  0.5554  1.2300 -0.3692
  272MOL0     H36693  12.847   4.242   6.579 -0.1196 -0.5199  0.3045
  272MOL0     H36694  13.002   4.355   6.340 -0.8719  0.3832 -0.6270
  272MOL0     H36695  13.048   4.393   6.506  2.8431 -1.4582 -0.2780
  272MOL0     H36696  13.040   4.104   6.441  1.1914  0.6767 -0.7678
  272MOL0     H36697  13.120   4.201   6.570  0.0411  0.2776  0.6052
  272MOL0     H36698  13.275   4.122   6.381 -0.1600 -0.2245 -0.4201
  272MOL0     H36699  13.188   4.223   6.270  3.2101 -0.2385 -0.9658
  272MOL0     H36700  12.161   4.398   6.534 -0.1398  1.0184  0.5520
  272MOL0     H36701  11.924   4.396   6.600 -0.0862  0.3533  0.1496
  272MOL0     H36702  11.596   4.244   6.927  0.4507 -0.3183  0.0678
  272MOL0     H36703  11.370   4.194   6.981 -1.7056  1.4583 -1.8276
  272MOL0     H36704   9.404   3.487   6.672  1.2905  0.0050  0.7612
  272MOL0     H36705   9.183   3.381   6.757  0.4774 -0.1931 -0.5979
  272MOL0     H36706   8.829   3.463   6.800  1.7551 -0.7513  0.9004
  272MOL0     H36707   8.603   3.383   6.770  0.3408 -0.5338 -0.0632
  272MOL0     H36708   8.324   3.323   7.157 -0.0972  0.4746 -1.4041
  272MOL0     H36709   8.447   3.204   7.125 -0.5414 -1.6779 -1.2413
  272MOL0     H36710   8.306   3.095   6.962  0.6326  0.6818 -1.0223
  272MOL0     H36711   8.194   3.228   6.963  0.7337  0.6845  1.1732
  272MOL0     H36712   8.097   3.193   7.161  0.5354  1.4816  0.8002
  272MOL0     H36713   8.229   3.087   7.224 -3.6002 -1.2598  1.8507
  272MOL0     H36714   8.176   2.909   7.045 -0.6460 -1.3704  2.1307
  272MOL0     H36715   8.073   2.930   7.176 -1.5518 -1.9141 -0.7600
  272MOL0     H36716   7.802   3.087   6.890  0.9025 -0.0217 -0.7854
  272MOL0     H36717   8.556   3.371   7.192  3.5010 -4.2098  0.8223
  272MOL0     H36718   8.844   3.364   7.310 -0.5961  0.5820  2.1761
  272MOL0     H36719   8.840   3.530   7.298  1.6042 -1.2807  2.5208
  272MOL0     H36720   8.697   3.443   7.347  0.3389 -0.1664  0.1430
  273MOL0     O36721   0.910   6.147   0.112 -0.1181 -0.7207  0.4012
  273MOL0     C36722   0.907   6.205   0.218 -1.0067  0.1868 -1.1405
  273MOL0     O36723   1.022   6.250   0.284  0.4008 -0.0264  0.4019
  273MOL0     C36724   1.143   6.208   0.245 -0.1333  0.6278  0.3441
  273MOL0     C36725   1.171   6.067   0.256  0.0266 -0.2485  0.7013
  273MOL0     C36726   1.302   6.020   0.243  0.1061  0.3420  0.5034
  273MOL0     C36727   1.405   6.104   0.203 -0.3064 -0.3184  0.5296
  273MOL0     O36728   1.539   6.064   0.188 -0.3851  0.5178  0.8257
  273MOL0     C36729   1.651   6.157   0.182  0.2582  0.0919 -0.6969
  273MOL0     C36730   1.789   6.091   0.198 -0.4317  0.1389 -0.1920
  273MOL0     C36731   1.896   6.200   0.178 -0.1967 -0.1571 -0.2555
  273MOL0     C36732   2.035   6.136   0.186  0.5928 -0.2397  0.2148
  273MOL0     C36733   2.136   6.235   0.132 -0.4472  0.2282 -0.0247
  273MOL0     C36734   2.280   6.178   0.142 -0.4744 -0.5173  0.1146
  273MOL0     C36735   2.385   6.272   0.071 -0.0383  0.8101  0.3711
  273MOL0     C36736   2.414   6.392   0.160  0.2390  0.3763  0.4011
  273MOL0     N36737   2.522   6.470   0.089  0.7020  0.1754 -0.4418
  273MOL0     C36738   2.645   6.421   0.051 -0.2668 -0.2834  0.0781
  273MOL0     C36739   2.703   6.528  -0.013 -0.0385  0.0611  0.3621
  273MOL0     C36740   2.842   6.551  -0.070  0.9279 -0.2382  0.3537
  273MOL0     C36741   2.937   6.566   0.048 -0.3819  0.0872  0.0643
  273MOL0     C36742   3.081   6.602  -0.001  1.1360  0.0263 -0.0518
  273MOL0     C36743   3.135   6.489  -0.092 -0.1252  0.9736 -0.5480
  273MOL0     O36744   3.271   6.504  -0.132  0.4029  0.0280 -1.1494
  273MOL0     C36745   3.362   6.500  -0.031 -0.8561  0.5885 -0.1026
  273MOL0     C36746   3.423   6.618   0.002 -0.1783  0.4238 -0.2057
  273MOL0     C36747   3.534   6.629   0.084  1.1025 -0.2961  0.5419
  273MOL0     C36748   3.586   6.512   0.137 -0.3501  0.3832  0.7213
  273MOL0     C36749   3.707   6.505   0.225  0.1250 -0.2344 -0.0243
  273MOL0     O36750   3.739   6.380   0.275  0.4848 -0.2333  0.4463
  273MOL0     C36751   3.836   6.352   0.371  1.4644 -0.6076  0.2816
  273MOL0     C36752   3.830   6.224   0.414  0.3651 -0.4274 -0.4511
  273MOL0     C36753   3.896   6.164   0.520 -0.1211 -0.2965  0.0736
  273MOL0     C36754   3.982   6.256   0.595  0.4322  0.0135 -1.1817
  273MOL0     O36755   4.059   6.221   0.705 -0.2605 -0.7554 -0.6955
  273MOL0     C36756   4.055   6.088   0.757 -0.1686  0.2273  0.2446
  273MOL0     C36757   4.157   6.071   0.867  0.1588  0.8347 -0.6632
  273MOL0     C36758   4.306   6.106   0.822  0.5682  0.2144 -0.3325
  273MOL0     C36759   4.387   6.131   0.943  0.1560  0.3972 -0.7754
  273MOL0     C36760   4.400   6.280   0.977 -0.0664  0.6799  0.6471
  273MOL0     C36761   4.520   6.287   1.070 -0.0319  0.1301 -0.3538
  273MOL0     C36762   4.540   6.441   1.109 -0.5695  0.8975  1.3907
  273MOL0     C36763   4.625   6.508   0.998  0.1485  0.6465 -0.0918
  273MOL0    Cl36764   4.690   6.659   1.071  0.4928 -0.5642  0.1671
  273MOL0     C36765   3.995   6.391   0.556 -0.5190  0.9147 -0.7832
  273MOL0     C36766   3.918   6.437   0.447 -0.5091  0.2880  0.4113
  273MOL0     O36767   3.765   6.613   0.238  0.5359  0.0164 -0.1492
  273MOL0     C36768   3.527   6.388   0.097 -0.3453 -0.4477  0.7015
  273MOL0     C36769   3.420   6.381   0.009 -0.1921 -1.2636 -0.1319
  273MOL0     N36770   2.611   6.634  -0.017  0.5536 -0.2239  0.6172
  273MOL0     N36771   2.501   6.598   0.049  0.3412  0.3192  0.0415
  273MOL0     C36772   1.374   6.242   0.195  0.3457  0.6281  0.7957
  273MOL0     C36773   1.248   6.298   0.211 -0.1615 -0.7498  0.2846
  273MOL0     C36774   0.784   6.218   0.296  0.0113 -0.0586  0.3075
  273MOL0     C36775   0.663   6.239   0.217 -0.4016  0.4415  0.2506
  273MOL0     C36776   0.534   6.237   0.286 -0.3169  0.0187  0.6105
  273MOL0     C36777   0.524   6.240   0.421 -0.6345  0.4895  0.0328
  273MOL0     O36778   0.403   6.259   0.480  0.0984 -0.2502 -0.0114
  273MOL0     C36779   0.378   6.245   0.617  0.0777 -0.4878  0.0238
  273MOL0     C36780   0.232   6.260   0.647 -0.2494 -0.0570  0.5153
  273MOL0     C36781   0.153   6.140   0.578  0.1902 -1.0051  0.4046
  273MOL0     C36782   0.004   6.132   0.595 -0.1867 -0.1378 -0.0684
  273MOL0     C36783  -0.042   6.170   0.728 -0.2792  0.0718 -0.0506
  273MOL0     C36784  -0.074   6.226   0.827 -0.3789  0.2806  0.0564
  273MOL0     C36785   0.641   6.222   0.500  0.5512  0.3050  0.1917
  273MOL0     C36786   0.769   6.215   0.440 -0.0555 -0.8033  0.0985
  273MOL0     C36787   0.897   6.195   0.521  0.0581  0.4084  0.3742
  273MOL0     H36788   1.110   5.987   0.296  3.4770 -2.0878  2.7807
  273MOL0     H36789   1.329   5.920   0.274 -1.7112 -0.7368 -1.1578
  273MOL0     H36790   1.645   6.211   0.087  0.8701 -0.4195 -1.0305
  273MOL0     H36791   1.635   6.228   0.264 -2.0641 -2.7664  1.5496
  273MOL0     H36792   1.795   6.028   0.109 -1.8419  0.3458 -0.4653
  273MOL0     H36793   1.803   6.037   0.292 -0.6871  0.0256 -0.2199
  273MOL0     H36794   1.882   6.273   0.257 -1.1672 -1.1350  0.5095
  273MOL0     H36795   1.892   6.242   0.077  0.3410  1.3779  0.3324
  273MOL0     H36796   2.068   6.112   0.288  1.1928 -2.3255 -0.4338
  273MOL0     H36797   2.033   6.041   0.133  0.3141 -0.1197  0.0120
  273MOL0     H36798   2.107   6.264   0.031  1.1601 -0.4440 -0.7094
  273MOL0     H36799   2.138   6.337   0.172  1.7620  0.6773 -1.1471
  273MOL0     H36800   2.303   6.159   0.248 -1.3299 -0.2237  0.3561
  273MOL0     H36801   2.278   6.080   0.093 -2.7126 -0.5442  0.1568
  273MOL0     H36802   2.355   6.306  -0.028 -0.0531 -0.8789 -0.2293
  273MOL0     H36803   2.474   6.209   0.064 -0.8214 -0.2245 -0.5418
  273MOL0     H36804   2.329   6.459   0.174 -1.5897 -1.5475 -1.0534
  273MOL0     H36805   2.453   6.354   0.254  3.1468  1.3110 -0.3109
  273MOL0     H36806   2.688   6.322   0.064 -1.8744 -1.1146 -0.7437
  273MOL0     H36807   2.860   6.466  -0.136 -1.4402  0.6650 -1.5966
  273MOL0     H36808   2.840   6.643  -0.130  2.7490  0.7131  1.6442
  273MOL0     H36809   2.911   6.651   0.113  0.9730  0.7558 -0.2376
  273MOL0     H36810   2.930   6.478   0.112 -2.0532 -0.5908 -0.9722
  273MOL0     H36811   3.137   6.611   0.093 -0.5693 -1.0258  1.1383
  273MOL0     H36812   3.077   6.699  -0.051  2.2946 -0.2608 -0.7508
  273MOL0     H36813   3.075   6.472  -0.181 -1.6874  1.1724  0.4405
  273MOL0     H36814   3.128   6.395  -0.036  1.1327  0.4838 -1.1677
  273MOL0     H36815   3.373   6.705  -0.037  1.2201  2.1044  1.5593
  273MOL0     H36816   3.556   6.732   0.113  1.5928 -0.1242 -0.3809
  273MOL0     H36817   3.757   6.150   0.381  0.7799 -0.4804 -1.2821
  273MOL0     H36818   3.877   6.059   0.540 -0.9912 -0.2084 -0.2593
  273MOL0     H36819   3.962   6.056   0.805 -1.0262  1.3404 -0.6204
  273MOL0     H36820   4.094   6.026   0.676  2.2795 -1.2623  2.3735
  273MOL0     H36821   4.126   6.140   0.946 -3.1738  0.8393 -1.8416
  273MOL0     H36822   4.161   5.972   0.915 -1.0569  1.3796  0.6275
  273MOL0     H36823   4.344   6.013   0.777  0.8738  0.4723 -0.6054
  273MOL0     H36824   4.306   6.185   0.747 -2.0960 -0.9329 -1.7012
  273MOL0     H36825   4.482   6.077   0.937  0.5123  0.9346 -0.1358
  273MOL0     H36826   4.334   6.080   1.024 -4.2685  1.5289 -2.6256
  273MOL0     H36827   4.304   6.313   1.019 -1.6180 -0.4779 -1.7527
  273MOL0     H36828   4.430   6.347   0.896 -0.0087 -0.0692  0.0404
  273MOL0     H36829   4.488   6.229   1.157 -1.3847 -2.9397 -2.7401
  273MOL0     H36830   4.614   6.249   1.029  0.1178 -0.0430  0.1469
  273MOL0     H36831   4.594   6.451   1.204  1.3336  2.4139  0.1973
  273MOL0     H36832   4.448   6.501   1.107 -0.1929  1.4632 -0.4892
  273MOL0     H36833   4.707   6.448   0.957  0.4163  0.3616  0.8260
  273MOL0     H36834   4.553   6.531   0.919  0.8298 -1.2595 -1.3236
  273MOL0     H36835   4.061   6.457   0.611  2.5836 -1.8622 -0.8845
  273MOL0     H36836   3.931   6.537   0.408  3.3756 -0.5063 -0.7289
  273MOL0     H36837   3.586   6.302   0.127  4.6663  1.8958 -1.3118
  273MOL0     H36838   3.379   6.282  -0.012 -0.5200 -1.4090  1.0885
  273MOL0     H36839   1.452   6.311   0.163  0.7820  1.0263  2.6020
  273MOL0     H36840   1.226   6.404   0.206 -1.5959 -1.0405 -0.0124
  273MOL0     H36841   0.670   6.255   0.110 -1.3019  2.6367  0.4790
  273MOL0     H36842   0.445   6.255   0.227  0.2159  0.7699  0.0168
  273MOL0     H36843   0.429   6.327   0.669  0.8471 -0.8127 -0.2126
  273MOL0     H36844   0.418   6.153   0.660  1.7143  0.6523  1.0468
  273MOL0     H36845   0.191   6.353   0.607  2.3021 -0.2094 -2.9829
  273MOL0     H36846   0.217   6.264   0.755  2.7883  0.6473  1.0031
  273MOL0     H36847   0.188   6.048   0.627  0.8168 -1.7899 -1.4517
  273MOL0     H36848   0.173   6.131   0.471 -1.6625  1.4004 -0.2156
  273MOL0     H36849  -0.046   6.208   0.535 -0.7503 -2.1523 -2.2853
  273MOL0     H36850  -0.037   6.035   0.567 -0.7731 -0.2273  1.0446
  273MOL0     H36851  -0.118   6.272   0.913  0.1433  0.0743  0.4350
  273MOL0     H36852   0.631   6.220   0.608 -1.4880 -1.6713  0.0639
  273MOL0     H36853   0.879   6.171   0.627  3.3925  1.4749  1.2937
  273MOL0     H36854   0.956   6.119   0.472 -0.0239  0.5034  0.1276
  273MOL0     H36855   0.951   6.290   0.518 -1.0015  1.1110  1.7167
  274MOL0     O36856   6.589   8.988   1.930 -0.7052 -0.7230  0.2614
  274MOL0     C36857   6.565   8.954   2.042  0.1877  0.7235  0.3325
  274MOL0     O36858   6.629   8.860   2.111  0.4671  0.8491 -0.7047
  274MOL0     C36859   6.730   8.796   2.045 -0.3432  0.8048 -0.1233
  274MOL0     C36860   6.862   8.818   2.087  0.2912 -0.2266  0.5438
  274MOL0     C36861   6.961   8.750   2.023  0.3641 -0.0506 -0.0802
  274MOL0     C36862   6.936   8.665   1.914 -0.5874 -0.6578  0.4599
  274MOL0     O36863   7.041   8.592   1.866 -0.5531 -0.0626  0.4875
  274MOL0     C36864   7.027   8.455   1.914  0.3516 -0.4474  0.2895
  274MOL0     C36865   7.064   8.364   1.797  0.1382  0.5716 -0.4428
  274MOL0     C36866   7.213   8.387   1.753  0.3709 -0.2258  0.4669
  274MOL0     C36867   7.258   8.279   1.660  0.3867  0.3762  0.7072
  274MOL0     C36868   7.412   8.287   1.639  0.6315  0.0662 -1.2399
  274MOL0     C36869   7.460   8.151   1.583 -0.1891 -0.2731  0.2735
  274MOL0     C36870   7.593   8.162   1.517 -0.4706 -1.1164  0.0732
  274MOL0     C36871   7.646   8.027   1.481 -0.3998 -0.1169 -0.0177
  274MOL0     N36872   7.781   8.042   1.420  0.1730  0.6695 -0.2643
  274MOL0     C36873   7.800   8.019   1.289 -0.0774 -0.4636  0.0705
  274MOL0     C36874   7.934   8.055   1.265  0.6174 -0.1926 -0.4642
  274MOL0     C36875   8.006   8.033   1.133 -0.8899 -0.1563 -0.1649
  274MOL0     C36876   8.132   8.123   1.131  0.8273 -0.3604  0.0028
  274MOL0     C36877   8.183   8.154   0.990  0.5810 -0.3188 -0.7685
  274MOL0     C36878   8.293   8.261   0.989 -0.6564 -1.1299  0.1374
  274MOL0     O36879   8.408   8.196   1.059 -0.1439 -0.5710 -0.0193
  274MOL0     C36880   8.533   8.250   1.039 -0.7166 -0.0025 -0.4727
  274MOL0     C36881   8.643   8.202   1.120  0.0969 -0.7290 -0.1368
  274MOL0     C36882   8.772   8.262   1.109 -0.0738 -0.1164 -0.4053
  274MOL0     C36883   8.794   8.369   1.019  0.4983  0.5384 -0.4837
  274MOL0     C36884   8.915   8.449   1.021 -0.1023 -0.1478 -0.7569
  274MOL0     O36885   8.995   8.427   1.127 -0.6344  0.0550 -0.0331
  274MOL0     C36886   9.115   8.491   1.131  0.2574 -0.5017 -0.3663
  274MOL0     C36887   9.127   8.630   1.155  0.3549  0.4060 -0.4411
  274MOL0     C36888   9.246   8.701   1.152 -0.5082 -0.5930 -0.1556
  274MOL0     C36889   9.367   8.635   1.115 -0.3762  0.1794 -0.2092
  274MOL0     O36890   9.497   8.684   1.107 -0.0391 -0.0079  0.5032
  274MOL0     C36891   9.502   8.831   1.102 -0.3201  0.3297 -0.2125
  274MOL0     C36892   9.640   8.884   1.077 -0.6689 -0.6873 -0.3332
  274MOL0     C36893   9.741   8.840   1.185 -1.1504  0.7377  0.3541
  274MOL0     C36894   9.877   8.912   1.153  0.3232  0.5049  0.0012
  274MOL0     C36895   9.983   8.859   1.260  0.1671  0.7008  0.0266
  274MOL0     C36896  10.112   8.928   1.242  0.1091  0.7718 -0.7689
  274MOL0     C36897  10.204   8.920   1.362  0.1656  0.3485 -0.3457
  274MOL0     C36898  10.303   9.033   1.346 -0.3768 -0.1432  0.0353
  274MOL0    Cl36899  10.419   9.052   1.484 -0.0749 -0.0062 -0.2382
  274MOL0     C36900   9.359   8.499   1.092 -0.4074  0.4787  0.6338
  274MOL0     C36901   9.238   8.427   1.107 -0.8066 -0.1006  1.0017
  274MOL0     O36902   8.940   8.524   0.928  1.1417 -0.5567 -0.1453
  274MOL0     C36903   8.696   8.401   0.930  0.0516  0.0566 -0.0827
  274MOL0     C36904   8.566   8.356   0.943 -0.0358 -0.0950  0.4834
  274MOL0     N36905   7.989   8.099   1.377  0.6435  1.0342  0.3257
  274MOL0     N36906   7.893   8.094   1.474 -0.0022  0.0771  0.5858
  274MOL0     C36907   6.806   8.641   1.876 -0.0471  0.5731  0.7933
  274MOL0     C36908   6.698   8.710   1.941  0.6666  0.4528  0.4233
  274MOL0     C36909   6.464   9.025   2.114 -0.1197  0.9160 -0.3052
  274MOL0     C36910   6.330   9.009   2.070  0.0548 -0.0727 -0.7567
  274MOL0     C36911   6.221   9.056   2.143  0.3780  0.2304 -0.2965
  274MOL0     C36912   6.245   9.135   2.259  0.6936  0.1021  0.0593
  274MOL0     O36913   6.140   9.165   2.338  0.1542 -0.0151 -0.3835
  274MOL0     C36914   6.009   9.122   2.309  1.8986  0.7924  0.4808
  274MOL0     C36915   5.921   9.149   2.432 -0.0317  0.2081  0.3201
  274MOL0     C36916   5.776   9.167   2.384 -0.3558  0.0015 -0.5203
  274MOL0     C36917   5.681   9.173   2.508  0.0731 -0.1556  0.8013
  274MOL0     C36918   5.721   9.288   2.599  0.1517  0.0593  0.3413
  274MOL0     C36919   5.743   9.365   2.687  0.1285 -0.6259  0.6195
  274MOL0     C36920   6.378   9.150   2.303 -0.1023  0.8313 -0.1117
  274MOL0     C36921   6.492   9.095   2.232 -0.3304 -0.3397 -0.4497
  274MOL0     C36922   6.631   9.104   2.297  0.1346  0.4098 -0.0740
  274MOL0     H36923   6.884   8.876   2.175 -0.5378  1.2858 -0.2117
  274MOL0     H36924   7.062   8.771   2.058  0.4979 -1.3772  0.3827
  274MOL0     H36925   7.084   8.450   2.007 -1.5716  1.0470  1.6268
  274MOL0     H36926   6.924   8.426   1.938  0.8008 -1.4593  1.0639
  274MOL0     H36927   7.004   8.386   1.708 -1.3633  0.4727  0.5078
  274MOL0     H36928   7.044   8.258   1.815 -3.6292  1.2192 -0.0381
  274MOL0     H36929   7.271   8.401   1.844  0.3506  2.0284  0.2018
  274MOL0     H36930   7.230   8.485   1.706  2.1007 -0.2437  0.9978
  274MOL0     H36931   7.223   8.181   1.690  0.2903 -0.2293 -1.2322
  274MOL0     H36932   7.218   8.293   1.559  0.7908  0.3141  0.5355
  274MOL0     H36933   7.433   8.363   1.563  1.4111 -0.5333 -1.6372
  274MOL0     H36934   7.459   8.322   1.731  0.0726  1.2489 -1.3899
  274MOL0     H36935   7.468   8.085   1.670 -2.1462  2.8937  3.1092
  274MOL0     H36936   7.390   8.109   1.511  1.3939 -2.0070 -0.3256
  274MOL0     H36937   7.658   8.221   1.582 -1.9063  0.1449  0.4183
  274MOL0     H36938   7.593   8.215   1.422  2.6043  1.3186  1.2564
  274MOL0     H36939   7.644   7.961   1.567 -1.5072  0.0580  0.1103
  274MOL0     H36940   7.578   7.986   1.406  1.9290 -1.5421 -1.4896
  274MOL0     H36941   7.732   7.972   1.219 -0.7768 -1.1251  1.1678
  274MOL0     H36942   8.034   7.927   1.129  0.9474  0.3097 -2.9058
  274MOL0     H36943   7.928   8.045   1.057 -1.7744  1.6194  0.9613
  274MOL0     H36944   8.108   8.213   1.187  1.9981 -2.0942  3.5893
  274MOL0     H36945   8.218   8.081   1.183  0.2231  0.7562  1.9801
  274MOL0     H36946   8.101   8.196   0.931 -1.4620 -4.1943 -0.9730
  274MOL0     H36947   8.221   8.067   0.935  0.5102  0.2313 -1.7083
  274MOL0     H36948   8.252   8.354   1.030  2.5815  0.7744 -0.5997
  274MOL0     H36949   8.323   8.277   0.885  1.9584  2.1601  1.2432
  274MOL0     H36950   8.631   8.132   1.202  1.5315 -0.3069  0.4733
  274MOL0     H36951   8.846   8.229   1.181 -0.1284  0.8238  0.0964
  274MOL0     H36952   9.027   8.666   1.180 -0.4958 -0.0098 -2.9508
  274MOL0     H36953   9.228   8.804   1.180 -0.9911 -0.7049 -0.0464
  274MOL0     H36954   9.421   8.855   1.032 -0.1070 -2.3383 -1.5091
  274MOL0     H36955   9.468   8.879   1.194 -0.8046  2.1301 -1.2843
  274MOL0     H36956   9.671   8.862   0.975 -2.8779  0.6870 -1.3659
  274MOL0     H36957   9.634   8.993   1.077 -0.3651 -0.6674 -0.1553
  274MOL0     H36958   9.710   8.869   1.286  2.5713  0.9052  1.5860
  274MOL0     H36959   9.746   8.731   1.173 -1.4457  0.3065  3.4043
  274MOL0     H36960   9.854   9.019   1.165 -0.8715  0.1439  1.1132
  274MOL0     H36961   9.914   8.883   1.055 -0.7347  0.9615 -0.5591
  274MOL0     H36962   9.988   8.751   1.248  0.0936  0.7349 -0.3456
  274MOL0     H36963   9.952   8.869   1.364  2.5402  1.4427  0.7148
  274MOL0     H36964  10.163   8.890   1.154 -1.0139  0.1359 -1.1682
  274MOL0     H36965  10.095   9.034   1.220 -0.8086  0.6497 -0.6873
  274MOL0     H36966  10.260   8.827   1.374 -1.3066 -0.3901  1.3922
  274MOL0     H36967  10.141   8.930   1.451 -1.8883 -3.5088 -1.1480
  274MOL0     H36968  10.360   9.030   1.252 -1.4203  0.3674 -0.6252
  274MOL0     H36969  10.248   9.127   1.354  1.2776  0.8483  0.3587
  274MOL0     H36970   9.451   8.447   1.064 -1.2036 -1.3485  1.2173
  274MOL0     H36971   9.244   8.319   1.102  1.3540  0.0022 -2.2748
  274MOL0     H36972   8.716   8.488   0.868  0.4315 -0.3958 -0.6079
  274MOL0     H36973   8.491   8.400   0.879  1.5559 -1.3042 -2.4207
  274MOL0     H36974   6.780   8.574   1.794 -1.4328 -0.5115  2.0608
  274MOL0     H36975   6.596   8.693   1.909  0.7811  2.0631 -0.9417
  274MOL0     H36976   6.323   8.961   1.972  0.3323  0.8628 -1.2431
  274MOL0     H36977   6.118   9.037   2.114 -0.0237  1.0070  0.5500
  274MOL0     H36978   6.014   9.013   2.298  1.7199  0.8073  0.2532
  274MOL0     H36979   5.958   9.171   2.225  0.9932  0.8516  1.0506
  274MOL0     H36980   5.957   9.242   2.476  0.1430 -0.7418  2.2516
  274MOL0     H36981   5.935   9.056   2.489  4.5746 -1.1340 -2.4591
  274MOL0     H36982   5.749   9.086   2.315  2.9185 -0.1082 -1.8727
  274MOL0     H36983   5.753   9.267   2.345 -0.0737 -0.5395 -2.1656
  274MOL0     H36984   5.579   9.181   2.470 -0.1356 -0.2516  1.3415
  274MOL0     H36985   5.688   9.082   2.568 -1.1938  0.5215  2.0301
  274MOL0     H36986   5.738   9.438   2.766  1.8462 -0.0153  0.2017
  274MOL0     H36987   6.397   9.184   2.405 -0.0303 -2.5304  1.1247
  274MOL0     H36988   6.618   9.073   2.401  0.1830  0.1155 -0.1558
  274MOL0     H36989   6.713   9.052   2.247  1.0790  2.7538 -1.0757
  274MOL0     H36990   6.672   9.205   2.292 -1.4224  1.0243 -1.5222
  275MOL0     O36991   5.604   4.040   3.454  0.1493  0.1711  0.5666
  275MOL0     C36992   5.622   4.086   3.566  0.7269  0.1336 -0.0780
  275MOL0     O36993   5.745   4.121   3.619  0.5818  0.4112 -0.0653
  275MOL0     C36994   5.867   4.092   3.568 -0.8664  1.0768  0.1309
  275MOL0     C36995   5.896   3.972   3.505  0.5328 -0.4155  0.4952
  275MOL0     C36996   6.017   3.936   3.454  0.1344 -0.0175 -0.2397
  275MOL0     C36997   6.124   4.024   3.480 -0.5407 -0.6470 -0.2718
  275MOL0     O36998   6.246   3.992   3.416 -0.1705  0.5382 -0.5790
  275MOL0     C36999   6.363   4.065   3.461  0.2318 -0.1630 -0.1572
  275MOL0     C37000   6.498   3.998   3.413 -0.7456  0.7375 -0.4308
  275MOL0     C37001   6.626   4.064   3.470  0.7197  0.1547 -0.0459
  275MOL0     C37002   6.632   4.043   3.626 -1.1555  0.4855 -0.5239
  275MOL0     C37003   6.778   4.058   3.667  0.2163  0.4947  0.0598
  275MOL0     C37004   6.789   4.067   3.823  0.3654  0.1754  0.0946
  275MOL0     C37005   6.929   4.072   3.877 -0.2375  0.4771  0.0175
  275MOL0     C37006   6.936   4.100   4.032 -0.2122  0.8411  0.2012
  275MOL0     N37007   7.072   4.058   4.061  0.2340 -0.8732  0.6843
  275MOL0     C37008   7.104   3.937   4.106  0.6041  0.2485 -0.8069
  275MOL0     C37009   7.230   3.909   4.075  0.1958 -0.3482  0.0673
  275MOL0     C37010   7.317   3.794   4.120 -0.2103 -0.9742 -0.0200
  275MOL0     C37011   7.260   3.649   4.099 -0.8756 -0.8197 -0.1873
  275MOL0     C37012   7.350   3.545   4.153 -0.3885  0.7422 -0.3790
  275MOL0     C37013   7.488   3.539   4.089 -0.2257 -0.2408  0.0469
  275MOL0     O37014   7.546   3.414   4.145  0.7913  0.5807  0.2494
  275MOL0     C37015   7.685   3.400   4.149  0.0134  0.3660  0.1164
  275MOL0     C37016   7.730   3.278   4.200  0.2058 -0.0181 -0.5382
  275MOL0     C37017   7.867   3.247   4.211  0.2817  0.2255  0.0887
  275MOL0     C37018   7.962   3.331   4.149  0.3245 -0.0054  0.3374
  275MOL0     C37019   8.108   3.306   4.153  0.0739  0.4103  0.7193
  275MOL0     O37020   8.193   3.402   4.108 -0.2025  0.5417  0.5045
  275MOL0     C37021   8.331   3.391   4.093  0.1676  0.8684 -0.3207
  275MOL0     C37022   8.412   3.269   4.091 -0.5788 -0.2969  0.5465
  275MOL0     C37023   8.554   3.276   4.075  0.2400 -0.3287  0.3653
  275MOL0     C37024   8.617   3.387   4.041 -0.7762  0.2222  0.7350
  275MOL0     O37025   8.750   3.368   4.012 -0.1399  0.1788  0.4423
  275MOL0     C37026   8.822   3.476   3.950 -0.5395  0.2347  0.4015
  275MOL0     C37027   8.807   3.474   3.798 -0.3731 -0.5735 -0.3044
  275MOL0     C37028   8.846   3.610   3.736  0.0370  0.1398 -0.7088
  275MOL0     C37029   8.720   3.704   3.726 -0.1612  0.5943 -0.8728
  275MOL0     C37030   8.755   3.827   3.644 -0.0811  0.2315  1.3550
  275MOL0     C37031   8.826   3.927   3.720 -0.7581 -0.2438 -0.0249
  275MOL0     C37032   8.854   4.049   3.630 -0.3034 -1.0956 -0.0077
  275MOL0     C37033   8.733   4.132   3.591  0.9425 -0.1216 -0.8976
  275MOL0    Cl37034   8.700   4.237   3.733  0.4323  0.0805 -0.0251
  275MOL0     C37035   8.538   3.506   4.029 -0.3827  1.1776 -0.8399
  275MOL0     C37036   8.402   3.501   4.066  0.3027  0.0066 -0.0538
  275MOL0     O37037   8.141   3.202   4.192  0.4568  0.0575 -0.0053
  275MOL0     C37038   7.916   3.450   4.088  0.3124 -0.4193  0.0817
  275MOL0     C37039   7.779   3.487   4.091  0.0531 -0.1234 -0.3654
  275MOL0     N37040   7.277   4.015   4.002  0.3484 -0.9019  0.3873
  275MOL0     N37041   7.186   4.104   3.998 -0.0147  0.2391 -0.5390
  275MOL0     C37042   6.098   4.144   3.546 -0.2664  0.2371 -0.2341
  275MOL0     C37043   5.969   4.175   3.592 -0.0693  0.0039 -0.4414
  275MOL0     C37044   5.502   4.124   3.644  0.1909  1.2375  0.5631
  275MOL0     C37045   5.376   4.124   3.578 -0.0282 -0.5254 -0.3164
  275MOL0     C37046   5.259   4.169   3.641 -0.0261  0.0587 -0.0457
  275MOL0     C37047   5.270   4.200   3.778 -0.1245  0.0746 -0.3218
  275MOL0     O37048   5.149   4.250   3.830 -0.1503  0.7700  0.6383
  275MOL0     C37049   5.158   4.271   3.976 -0.4449 -0.2846  0.5475
  275MOL0     C37050   5.018   4.320   4.015  0.0256  0.4304 -0.5271
  275MOL0     C37051   4.912   4.213   3.993 -0.4181  0.3811 -0.6290
  275MOL0     C37052   4.766   4.258   3.976 -0.0363  0.1133 -0.0512
  275MOL0     C37053   4.697   4.313   4.093 -0.3182 -0.0550  0.5319
  275MOL0     C37054   4.641   4.357   4.188 -0.2639 -0.2551  0.1384
  275MOL0     C37055   5.389   4.184   3.846 -1.4527 -0.4244 -0.1440
  275MOL0     C37056   5.509   4.141   3.781  0.5296 -0.3835  0.0677
  275MOL0     C37057   5.621   4.112   3.881 -0.1209 -0.5783  0.3897
  275MOL0     H37058   5.812   3.905   3.493 -1.3529  1.6833  1.2969
  275MOL0     H37059   6.018   3.844   3.396  0.2047 -2.1125  2.8733
  275MOL0     H37060   6.363   4.168   3.426 -2.5766  0.3377  1.1011
  275MOL0     H37061   6.367   4.077   3.570 -0.8032  0.6850 -0.1974
  275MOL0     H37062   6.495   4.002   3.304  0.2970  2.3662 -0.4262
  275MOL0     H37063   6.489   3.891   3.436  1.5440  0.4415 -0.6398
  275MOL0     H37064   6.624   4.170   3.445  1.1675 -0.4444 -3.0559
  275MOL0     H37065   6.712   4.023   3.416  0.2529 -1.0008  0.0442
  275MOL0     H37066   6.577   4.128   3.669 -3.7233 -0.7859 -1.0746
  275MOL0     H37067   6.586   3.946   3.645  0.7372 -0.8068 -2.1913
  275MOL0     H37068   6.843   3.978   3.631 -0.8298 -0.9795  1.3156
  275MOL0     H37069   6.806   4.152   3.620 -2.4048  0.7385 -1.1904
  275MOL0     H37070   6.737   4.159   3.851 -0.3719  0.8019 -2.8815
  275MOL0     H37071   6.742   3.982   3.873  2.4824  0.0198  1.9708
  275MOL0     H37072   6.993   4.146   3.829  1.1872 -0.6378  0.1401
  275MOL0     H37073   6.981   3.979   3.854 -1.3813  0.1240 -1.2501
  275MOL0     H37074   6.913   4.205   4.053  0.2241  1.2075 -1.0581
  275MOL0     H37075   6.858   4.032   4.068  0.1760  0.3202  0.0670
  275MOL0     H37076   7.044   3.872   4.168 -0.9465  2.3063 -0.0490
  275MOL0     H37077   7.414   3.806   4.071 -0.9184  1.5798 -0.9517
  275MOL0     H37078   7.334   3.812   4.226  1.9790 -1.6999 -0.2034
  275MOL0     H37079   7.170   3.646   4.161 -0.2224 -4.5280  0.7960
  275MOL0     H37080   7.225   3.627   3.997 -1.1645 -1.2185 -0.0043
  275MOL0     H37081   7.305   3.448   4.131  0.8779  0.1944 -0.6394
  275MOL0     H37082   7.372   3.550   4.260  3.0469  1.1572 -0.9805
  275MOL0     H37083   7.542   3.632   4.109 -1.3799  0.5713 -0.5028
  275MOL0     H37084   7.480   3.539   3.980 -1.6345 -0.1970  0.1366
  275MOL0     H37085   7.659   3.207   4.242 -1.5526  1.2202 -1.3162
  275MOL0     H37086   7.900   3.155   4.260 -1.4527 -0.5694 -0.1490
  275MOL0     H37087   8.363   3.173   4.092  0.7407 -1.0606 -1.6593
  275MOL0     H37088   8.601   3.181   4.054  0.1247  0.0796 -2.0216
  275MOL0     H37089   8.801   3.572   3.998 -0.7025  1.3617 -1.7955
  275MOL0     H37090   8.927   3.455   3.972  0.4934  3.0080 -1.3765
  275MOL0     H37091   8.865   3.391   3.757  0.5603 -0.7954  1.3645
  275MOL0     H37092   8.707   3.450   3.763  0.3619 -0.5011 -2.6411
  275MOL0     H37093   8.920   3.665   3.796 -0.6267  0.8806 -0.5431
  275MOL0     H37094   8.900   3.596   3.642  0.2257 -1.7788 -0.3510
  275MOL0     H37095   8.678   3.741   3.820 -1.2094  0.6892 -1.3569
  275MOL0     H37096   8.634   3.644   3.694  0.1430 -0.7657  0.6754
  275MOL0     H37097   8.659   3.867   3.610  0.6998 -0.9038 -2.9098
  275MOL0     H37098   8.803   3.782   3.556 -0.1294 -1.2209  2.0426
  275MOL0     H37099   8.773   3.950   3.812 -0.3616 -3.7437  1.2292
  275MOL0     H37100   8.923   3.888   3.753  0.1410  0.8837 -1.1869
  275MOL0     H37101   8.909   4.017   3.541  1.7986  0.4479  0.6773
  275MOL0     H37102   8.921   4.112   3.689  1.3094 -2.6560 -0.0979
  275MOL0     H37103   8.753   4.189   3.500 -0.0153  1.2417 -0.2952
  275MOL0     H37104   8.641   4.078   3.565  0.1659  1.1543 -0.8540
  275MOL0     H37105   8.586   3.602   4.017  1.1230  0.6597  0.6416
  275MOL0     H37106   8.347   3.594   4.069  2.9519  1.6790 -0.8878
  275MOL0     H37107   8.001   3.513   4.063  0.5741 -1.1258 -0.8345
  275MOL0     H37108   7.752   3.580   4.042  2.3071  0.9137  0.2729
  275MOL0     H37109   6.175   4.208   3.588  0.9200 -0.7401 -0.8783
  275MOL0     H37110   5.954   4.263   3.655  0.2400 -0.6279  0.5344
  275MOL0     H37111   5.358   4.090   3.477 -0.8543 -0.0295 -0.3504
  275MOL0     H37112   5.171   4.171   3.577  0.1995  2.2760 -0.3595
  275MOL0     H37113   5.236   4.339   4.012 -0.6538 -1.3925  3.3863
  275MOL0     H37114   5.172   4.183   4.040 -0.3095 -0.3867  0.3752
  275MOL0     H37115   4.987   4.395   3.942  2.0145  1.3595 -0.4744
  275MOL0     H37116   5.009   4.353   4.119 -1.8313 -2.5447  0.3879
  275MOL0     H37117   4.917   4.151   4.083  2.0016 -0.6953 -1.4229
  275MOL0     H37118   4.935   4.149   3.907 -3.0860 -3.4187  1.1921
  275MOL0     H37119   4.766   4.337   3.900  0.3800  0.2426  0.0871
  275MOL0     H37120   4.707   4.173   3.938 -1.0182  0.1345  1.3510
  275MOL0     H37121   4.596   4.392   4.279 -4.1470  0.0228 -1.7154
  275MOL0     H37122   5.404   4.212   3.950  3.0652 -2.1232 -0.1180
  275MOL0     H37123   5.584   4.108   3.984  0.3967 -0.3733  0.5858
  275MOL0     H37124   5.675   4.019   3.863 -0.2434 -0.6272  0.2704
  275MOL0     H37125   5.689   4.197   3.891 -1.1015 -0.0100  3.4866
  276MOL0     O37126   2.657   8.766   3.144  0.5135  0.1321 -0.5244
  276MOL0     C37127   2.679   8.653   3.101 -0.3399 -0.4526 -0.9127
  276MOL0     O37128   2.801   8.612   3.079 -0.0763  0.4263  0.5637
  276MOL0     C37129   2.898   8.672   3.163  0.4059  0.6689  0.1205
  276MOL0     C37130   2.927   8.617   3.290  0.3073 -0.3295 -0.2299
  276MOL0     C37131   3.030   8.664   3.366  0.0727  0.0817 -0.4116
  276MOL0     C37132   3.113   8.768   3.318  0.7140 -0.2391  0.0321
  276MOL0     O37133   3.198   8.807   3.413 -0.6852 -0.0906 -0.0227
  276MOL0     C37134   3.311   8.891   3.365  0.1039  1.1047  0.0650
  276MOL0     C37135   3.395   8.943   3.474 -0.4081  0.7390  0.8101
  276MOL0     C37136   3.521   9.032   3.425 -0.1638  0.8465  0.4111
  276MOL0     C37137   3.640   9.032   3.521  0.0819  0.0248 -0.1902
  276MOL0     C37138   3.713   9.167   3.505 -0.7561  0.9085  0.1480
  276MOL0     C37139   3.847   9.169   3.583 -0.5287  0.2300  0.0994
  276MOL0     C37140   3.856   9.210   3.736  0.5242  0.8550 -0.1359
  276MOL0     C37141   3.961   9.317   3.749  0.2942  0.1584  0.4262
  276MOL0     N37142   3.977   9.361   3.882 -0.1767 -0.1569 -0.3338
  276MOL0     C37143   4.057   9.295   3.973  0.4215  0.5114  0.5413
  276MOL0     C37144   4.056   9.370   4.081  0.3941 -0.4217 -0.2602
  276MOL0     C37145   4.101   9.335   4.224  0.9563  0.2212  0.0979
  276MOL0     C37146   4.208   9.432   4.281  0.9457 -0.6325  0.2052
  276MOL0     C37147   4.245   9.403   4.429  0.8046 -0.0063  0.2402
  276MOL0     C37148   4.347   9.507   4.489  0.8722  0.8978  0.3385
  276MOL0     O37149   4.467   9.493   4.413  0.6556 -0.8498  0.4159
  276MOL0     C37150   4.587   9.559   4.443 -0.5334 -0.0040  0.7171
  276MOL0     C37151   4.593   9.653   4.548  0.5991  0.5726  0.7971
  276MOL0     C37152   4.712   9.716   4.580  0.1322 -0.5620 -0.0158
  276MOL0     C37153   4.833   9.677   4.519 -0.6305 -0.2176  0.1943
  276MOL0     C37154   4.963   9.736   4.563  0.5622 -0.7329 -0.5223
  276MOL0     O37155   5.080   9.695   4.517 -0.1042 -0.0512  0.3091
  276MOL0     C37156   5.196   9.760   4.539  0.3826  0.1895 -0.2954
  276MOL0     C37157   5.220   9.896   4.513  0.7599 -0.4120  0.1392
  276MOL0     C37158   5.343   9.952   4.533 -0.8440  0.4892 -0.0965
  276MOL0     C37159   5.457   9.876   4.571 -1.0739  0.1591  0.2956
  276MOL0     O37160   5.581   9.924   4.601  0.3274 -0.0545  0.2885
  276MOL0     C37161   5.609  10.045   4.539 -0.4711  0.2924  0.1852
  276MOL0     C37162   5.759  10.075   4.550  0.0723  0.4944 -0.5327
  276MOL0     C37163   5.846   9.968   4.501  0.4634  0.4003 -0.3081
  276MOL0     C37164   5.990   9.997   4.542 -0.9294 -0.0986  0.3329
  276MOL0     C37165   6.092   9.881   4.515 -0.3866 -0.2470  0.1472
  276MOL0     C37166   6.233   9.920   4.565 -0.1547  1.5924 -0.4103
  276MOL0     C37167   6.345   9.810   4.543  0.5994  0.3487 -0.2277
  276MOL0     C37168   6.477   9.859   4.590  0.1550  0.1818 -1.0353
  276MOL0    Cl37169   6.554   9.719   4.675 -0.2616  0.5703 -0.2082
  276MOL0     C37170   5.426   9.742   4.610 -0.8382 -0.1215 -0.2462
  276MOL0     C37171   5.303   9.679   4.585 -0.1787  0.0157 -0.2008
  276MOL0     O37172   4.946   9.831   4.648  0.2861  0.1979  0.1018
  276MOL0     C37173   4.826   9.576   4.422  0.0892  0.6785  1.0166
  276MOL0     C37174   4.705   9.520   4.378  0.6417  0.5920  0.0205
  276MOL0     N37175   3.983   9.491   4.066  0.0551 -0.6866 -0.5100
  276MOL0     N37176   3.940   9.481   3.946 -0.1065 -0.1018  0.5419
  276MOL0     C37177   3.088   8.818   3.194  0.5369 -1.3452 -0.3693
  276MOL0     C37178   2.978   8.778   3.119  0.1234  0.4229  0.0055
  276MOL0     C37179   2.567   8.584   3.035  0.0833  0.3579  0.1053
  276MOL0     C37180   2.481   8.659   2.961  0.7144  0.2162 -0.2954
  276MOL0     C37181   2.366   8.604   2.902  0.0419 -0.7805 -0.3916
  276MOL0     C37182   2.342   8.474   2.905  0.2742  0.6309 -0.7465
  276MOL0     O37183   2.238   8.402   2.848  0.3302  0.5272  0.6643
  276MOL0     C37184   2.144   8.479   2.774  0.8695  0.4502 -0.6821
  276MOL0     C37185   2.018   8.527   2.856 -0.0765  0.5788  0.9467
  276MOL0     C37186   1.914   8.416   2.880  0.3268 -0.7268  0.4308
  276MOL0     C37187   1.988   8.299   2.955  0.4738  0.3270 -0.3441
  276MOL0     C37188   1.892   8.208   3.017 -0.7627 -0.0590 -0.2980
  276MOL0     C37189   1.805   8.143   3.068 -0.1943 -0.1147  0.2361
  276MOL0     C37190   2.439   8.395   2.966 -0.1016 -0.4959 -0.2968
  276MOL0     C37191   2.551   8.444   3.035 -0.1667 -0.1050  0.4855
  276MOL0     C37192   2.649   8.353   3.114  0.0914  0.3516  0.2094
  276MOL0     H37193   2.859   8.545   3.335 -1.2403  0.3326 -1.3998
  276MOL0     H37194   3.050   8.619   3.463  1.6848 -0.0261 -0.7587
  276MOL0     H37195   3.364   8.836   3.287 -0.3600  1.3372 -0.4240
  276MOL0     H37196   3.274   8.979   3.310  2.2082  0.5574 -2.3998
  276MOL0     H37197   3.432   8.855   3.526  0.6429 -1.3735 -3.1011
  276MOL0     H37198   3.326   9.011   3.524 -0.7995  2.2759 -1.6097
  276MOL0     H37199   3.492   9.136   3.407 -0.2303  0.7723  0.0819
  276MOL0     H37200   3.557   8.988   3.331  0.4440 -0.4212  1.2133
  276MOL0     H37201   3.616   9.025   3.628  2.5598 -0.6213  0.3892
  276MOL0     H37202   3.700   8.948   3.485  1.6229  0.5711  0.9703
  276MOL0     H37203   3.731   9.168   3.397  2.2015  3.0458  0.5078
  276MOL0     H37204   3.651   9.251   3.536 -0.1365  1.1934  0.6470
  276MOL0     H37205   3.880   9.065   3.590 -0.9554  0.1900  3.3879
  276MOL0     H37206   3.911   9.235   3.523 -1.0939 -1.4023 -2.4286
  276MOL0     H37207   3.890   9.122   3.790  0.8584  2.4023  2.3176
  276MOL0     H37208   3.762   9.243   3.781  1.0416 -0.6050  2.1426
  276MOL0     H37209   4.049   9.267   3.709 -0.8867  0.0599 -2.2915
  276MOL0     H37210   3.940   9.404   3.685 -3.0244 -0.2559  0.7989
  276MOL0     H37211   4.096   9.196   3.955  2.5310  1.5077 -0.7910
  276MOL0     H37212   4.019   9.341   4.296  1.0557 -2.8144  0.5660
  276MOL0     H37213   4.136   9.232   4.223  0.7487  0.0384 -3.7065
  276MOL0     H37214   4.292   9.423   4.213  0.3003 -0.6846 -0.5971
  276MOL0     H37215   4.164   9.532   4.271  1.3481 -0.4180  0.5270
  276MOL0     H37216   4.285   9.302   4.433 -2.7697 -1.6390 -0.7769
  276MOL0     H37217   4.151   9.394   4.485  0.2540 -0.5605 -0.7557
  276MOL0     H37218   4.364   9.489   4.596 -1.7431 -0.8220  0.5718
  276MOL0     H37219   4.287   9.595   4.464 -1.3440  0.0255  2.2345
  276MOL0     H37220   4.516   9.678   4.620  1.7309 -2.0926  3.0748
  276MOL0     H37221   4.713   9.788   4.661 -0.0518 -2.8236  2.1446
  276MOL0     H37222   5.148   9.966   4.471  0.5957 -1.2082 -0.9706
  276MOL0     H37223   5.354  10.055   4.502  2.8505 -0.1092 -1.1889
  276MOL0     H37224   5.590  10.036   4.432 -0.3392  0.7343  0.1255
  276MOL0     H37225   5.558  10.130   4.585  1.6546  0.4747  2.4156
  276MOL0     H37226   5.790  10.162   4.492  0.7364  2.0405  2.0285
  276MOL0     H37227   5.785  10.107   4.651 -0.6086  0.9469 -0.4917
  276MOL0     H37228   5.822   9.865   4.528  2.7894  0.2668  1.5928
  276MOL0     H37229   5.856   9.965   4.392  3.2002 -1.2719 -0.1088
  276MOL0     H37230   5.997  10.009   4.651 -2.3725 -0.3249  0.4710
  276MOL0     H37231   6.025  10.091   4.499 -0.1164  0.6285  2.4183
  276MOL0     H37232   6.085   9.867   4.407 -1.7443  0.4635  0.1125
  276MOL0     H37233   6.057   9.792   4.567  1.5056 -0.5530  0.9871
  276MOL0     H37234   6.274  10.011   4.522 -0.1590  0.7787 -2.2127
  276MOL0     H37235   6.231   9.929   4.674 -0.0381 -1.8487 -0.0033
  276MOL0     H37236   6.347   9.789   4.435  1.8351  1.3933 -0.4435
  276MOL0     H37237   6.317   9.719   4.596 -0.2801  1.4765  1.3257
  276MOL0     H37238   6.535   9.891   4.504  0.3491  2.6916 -0.0626
  276MOL0     H37239   6.463   9.940   4.663 -1.3106 -0.4534 -0.5765
  276MOL0     H37240   5.503   9.678   4.650  2.1694  2.4076 -1.5181
  276MOL0     H37241   5.284   9.574   4.605  0.6400  0.1437  1.4468
  276MOL0     H37242   4.919   9.550   4.372 -1.5873  2.5732 -3.6407
  276MOL0     H37243   4.695   9.446   4.299  0.4325  0.5819  0.0585
  276MOL0     H37244   3.145   8.905   3.162 -1.2366  0.2168  0.5023
  276MOL0     H37245   2.970   8.826   3.022  1.4575  1.1032  0.2108
  276MOL0     H37246   2.491   8.767   2.965 -3.8139  0.7927 -0.1142
  276MOL0     H37247   2.306   8.684   2.861 -0.1618 -0.8437 -0.2203
  276MOL0     H37248   2.110   8.413   2.693 -2.1083  1.7349 -0.5828
  276MOL0     H37249   2.184   8.568   2.724  1.5943  0.2086 -0.5553
  276MOL0     H37250   1.966   8.606   2.802 -0.4940  0.8506  1.7357
  276MOL0     H37251   2.050   8.576   2.948 -0.4352  3.7129 -0.4618
  276MOL0     H37252   1.863   8.383   2.789 -2.8166 -1.8683  2.4462
  276MOL0     H37253   1.837   8.471   2.936  1.0552  1.0583 -0.2461
  276MOL0     H37254   2.050   8.251   2.879  0.6326  2.1244 -1.4368
  276MOL0     H37255   2.051   8.328   3.039  0.8669 -0.7239 -0.2624
  276MOL0     H37256   1.715   8.097   3.102 -2.0871  1.5275 -2.1253
  276MOL0     H37257   2.419   8.289   2.953 -2.6327 -0.4400  2.3533
  276MOL0     H37258   2.583   8.288   3.172  1.0396 -0.9098 -0.0929
  276MOL0     H37259   2.717   8.297   3.050  0.5906  0.8117  0.3290
  276MOL0     H37260   2.711   8.400   3.191  1.0149  0.1181 -0.3781
  277MOL0     O37261   2.958   5.808   5.732  0.8302  0.2124  1.2625
  277MOL0     C37262   2.924   5.761   5.624 -0.0220 -0.3284  0.9654
  277MOL0     O37263   2.887   5.628   5.607 -0.8858  0.1021 -0.2200
  277MOL0     C37264   2.898   5.534   5.698 -0.3247 -0.7063 -0.3597
  277MOL0     C37265   3.022   5.483   5.726  0.1257 -0.2362  0.1031
  277MOL0     C37266   3.034   5.374   5.814  0.3340 -0.3876  0.0246
  277MOL0     C37267   2.928   5.329   5.893 -0.4814  0.6463  0.0397
  277MOL0     O37268   2.952   5.224   5.979 -0.6303  0.1064  0.3172
  277MOL0     C37269   2.833   5.176   6.042 -0.3595 -0.1565  0.2617
  277MOL0     C37270   2.854   5.060   6.139  0.3953  0.6792 -0.1417
  277MOL0     C37271   2.903   5.109   6.271 -0.2973 -0.3581  0.6680
  277MOL0     C37272   2.916   4.982   6.359  0.6727 -0.5641  0.5063
  277MOL0     C37273   2.930   5.014   6.504  1.1034 -0.5534 -0.5441
  277MOL0     C37274   2.803   5.062   6.576 -0.2479  0.1148 -0.3357
  277MOL0     C37275   2.803   5.156   6.699 -0.2518 -0.1965 -0.3295
  277MOL0     C37276   2.857   5.099   6.826  0.5393  1.0446  0.2188
  277MOL0     N37277   2.993   5.045   6.823  0.1804  0.2043 -0.3157
  277MOL0     C37278   3.097   5.115   6.870 -0.2155  0.4474  0.5172
  277MOL0     C37279   3.198   5.025   6.874 -0.1904 -0.1895  0.0756
  277MOL0     C37280   3.336   5.086   6.899 -0.1648  0.9139  0.1089
  277MOL0     C37281   3.426   4.996   6.990 -0.9488  0.6772 -0.1527
  277MOL0     C37282   3.561   5.066   7.012 -1.1909 -0.4709 -1.0824
  277MOL0     C37283   3.654   5.041   6.894  0.5861 -0.1223  0.0282
  277MOL0     O37284   3.742   4.931   6.937  0.3819  0.0708  0.4063
  277MOL0     C37285   3.860   4.924   6.862 -0.0631  0.6102 -0.7681
  277MOL0     C37286   3.970   4.871   6.922 -0.3183 -0.6924  0.7874
  277MOL0     C37287   4.094   4.855   6.849  0.4947 -0.1899 -0.5776
  277MOL0     C37288   4.103   4.889   6.718 -0.5202 -0.0512  0.0782
  277MOL0     C37289   4.220   4.866   6.637 -0.4716  0.3093 -0.1114
  277MOL0     O37290   4.327   4.804   6.696  0.4130 -0.0874 -0.0175
  277MOL0     C37291   4.437   4.783   6.616  0.0431  0.1336 -0.0116
  277MOL0     C37292   4.492   4.661   6.603 -0.1458 -0.3045  0.3114
  277MOL0     C37293   4.604   4.638   6.525  0.0573  0.9351  0.2159
  277MOL0     C37294   4.670   4.742   6.462  0.1267  0.0422  0.1093
  277MOL0     O37295   4.787   4.732   6.386 -0.1100 -0.6962  0.2697
  277MOL0     C37296   4.835   4.599   6.352 -0.0814  0.1648 -0.1695
  277MOL0     C37297   4.922   4.600   6.220  0.7723 -0.3811 -0.3534
  277MOL0     C37298   4.961   4.460   6.188 -0.6038  0.2029 -0.1370
  277MOL0     C37299   5.056   4.470   6.071 -1.0567 -0.0454 -0.5836
  277MOL0     C37300   5.073   4.326   6.019 -0.6377 -0.4905 -0.5208
  277MOL0     C37301   5.122   4.315   5.866  0.6454 -0.3246 -0.1981
  277MOL0     C37302   5.124   4.173   5.812 -0.6078 -0.3301 -0.0577
  277MOL0     C37303   4.980   4.128   5.792 -0.2503  0.0210 -0.3930
  277MOL0    Cl37304   4.885   4.229   5.679  0.2341 -0.1754 -0.6276
  277MOL0     C37305   4.622   4.875   6.484 -0.0307  0.1142  0.2627
  277MOL0     C37306   4.509   4.896   6.563 -0.2783 -0.3416 -0.0875
  277MOL0     O37307   4.221   4.901   6.516  0.1016  0.3215  0.8444
  277MOL0     C37308   3.993   4.961   6.662  0.4393 -0.1540  0.3270
  277MOL0     C37309   3.872   4.978   6.733  1.0395  0.9296 -0.2769
  277MOL0     N37310   3.152   4.895   6.840  0.3380  0.5175 -0.1140
  277MOL0     N37311   3.028   4.908   6.822  0.4584 -0.6643 -0.6638
  277MOL0     C37312   2.804   5.392   5.870  0.7721  0.3194 -0.6622
  277MOL0     C37313   2.793   5.495   5.781 -0.0319 -0.6253  0.7945
  277MOL0     C37314   2.950   5.833   5.500  0.1678  0.3214 -0.2778
  277MOL0     C37315   2.987   5.765   5.381 -1.1690 -0.3355 -0.1890
  277MOL0     C37316   2.997   5.836   5.257  0.1813  0.3616  0.4102
  277MOL0     C37317   2.971   5.977   5.252 -0.6353  0.2395  0.1912
  277MOL0     O37318   2.978   6.036   5.126 -0.5085  0.1971 -0.3625
  277MOL0     C37319   3.103   6.093   5.079 -0.2300 -0.2425 -0.2333
  277MOL0     C37320   3.178   5.993   4.995 -0.1459  0.7157  0.4123
  277MOL0     C37321   3.323   6.042   4.972  0.3815  0.2579 -0.9243
  277MOL0     C37322   3.343   6.182   4.908 -0.7612  0.4175 -0.1580
  277MOL0     C37323   3.498   6.198   4.890  0.4106 -0.0744  0.4754
  277MOL0     C37324   3.618   6.199   4.874  0.4521  0.1338 -0.2425
  277MOL0     C37325   2.926   6.040   5.370 -0.3006 -0.1024 -0.0920
  277MOL0     C37326   2.924   5.974   5.500  1.4554  0.2444 -1.1024
  277MOL0     C37327   2.862   6.067   5.617  0.0703 -0.4755  0.0694
  277MOL0     H37328   3.106   5.536   5.683  0.1777 -0.7976 -0.4958
  277MOL0     H37329   3.133   5.330   5.824  1.2007  1.3087 -0.6828
  277MOL0     H37330   2.781   5.254   6.100 -1.6118 -1.0287  0.3591
  277MOL0     H37331   2.759   5.128   5.978 -0.3555 -2.2801  1.7239
  277MOL0     H37332   2.926   4.986   6.102  1.2075  1.3759  0.0297
  277MOL0     H37333   2.756   5.010   6.145  0.2274  0.7789 -1.7136
  277MOL0     H37334   2.825   5.172   6.314  0.4145 -0.3922  2.0733
  277MOL0     H37335   2.997   5.164   6.269 -0.0448 -0.7993  0.1940
  277MOL0     H37336   2.819   4.934   6.339 -0.4900  2.5843 -2.5825
  277MOL0     H37337   2.995   4.917   6.321  0.9219 -1.5607  2.6024
  277MOL0     H37338   2.947   4.916   6.550  1.4754 -0.4526 -0.4616
  277MOL0     H37339   3.018   5.075   6.527 -0.3612  1.1559  0.9535
  277MOL0     H37340   2.745   5.107   6.495  2.1101  0.2452 -2.0434
  277MOL0     H37341   2.737   4.978   6.598 -1.4909  0.8881 -0.9633
  277MOL0     H37342   2.696   5.172   6.716 -0.1497 -0.0163  0.1459
  277MOL0     H37343   2.850   5.252   6.675  1.1746 -1.1051 -1.3765
  277MOL0     H37344   2.847   5.169   6.910 -1.7861  0.3826  0.5513
  277MOL0     H37345   2.797   5.009   6.837 -0.0753  1.4183 -0.0345
  277MOL0     H37346   3.107   5.221   6.887 -1.4886  0.5824  0.4898
  277MOL0     H37347   3.384   5.085   6.801 -1.1441  0.5465 -0.3790
  277MOL0     H37348   3.332   5.191   6.928  0.3850  2.0698 -3.4706
  277MOL0     H37349   3.391   4.976   7.092 -2.8491  0.5525 -0.7941
  277MOL0     H37350   3.442   4.898   6.946 -2.2478 -0.7727  2.3846
  277MOL0     H37351   3.614   5.037   7.104 -0.7701  3.0960 -0.0040
  277MOL0     H37352   3.555   5.175   7.021 -0.7584 -0.5737  1.1126
  277MOL0     H37353   3.714   5.129   6.867 -0.3191  0.2130 -0.9664
  277MOL0     H37354   3.595   5.021   6.804  1.0734  1.8418 -0.7812
  277MOL0     H37355   3.977   4.841   7.026  1.4199  0.5962  1.0817
  277MOL0     H37356   4.188   4.818   6.889  1.1853  0.8367 -1.2194
  277MOL0     H37357   4.447   4.573   6.648  2.5255 -2.1706 -0.4246
  277MOL0     H37358   4.644   4.538   6.517 -0.3797  0.2759  4.4127
  277MOL0     H37359   4.911   4.566   6.424 -1.4506  0.6085  1.5448
  277MOL0     H37360   4.754   4.527   6.339  0.6265 -0.6946  0.0934
  277MOL0     H37361   4.866   4.641   6.137 -0.4894  1.6168  1.3942
  277MOL0     H37362   5.012   4.661   6.235  0.0773  0.6805 -0.4293
  277MOL0     H37363   5.001   4.414   6.278 -0.7177  1.9927  0.8773
  277MOL0     H37364   4.870   4.405   6.162  0.5533 -2.2614  0.7445
  277MOL0     H37365   5.149   4.523   6.091 -0.1698 -2.0239  0.8351
  277MOL0     H37366   5.003   4.524   5.992  0.9951 -2.6171 -3.9969
  277MOL0     H37367   4.979   4.271   6.024 -0.7230 -0.2445  1.0836
  277MOL0     H37368   5.143   4.275   6.086 -0.2908 -0.3817 -0.7971
  277MOL0     H37369   5.061   4.377   5.799 -0.3131 -1.8705 -0.8157
  277MOL0     H37370   5.219   4.366   5.863 -0.3203  1.7535  1.5543
  277MOL0     H37371   5.182   4.109   5.880 -0.1286  1.3541  1.1793
  277MOL0     H37372   5.189   4.169   5.723  1.6689 -0.6475  1.5209
  277MOL0     H37373   4.981   4.027   5.751 -1.0067 -0.3077  0.3800
  277MOL0     H37374   4.929   4.126   5.889  1.9409  1.4152  0.8737
  277MOL0     H37375   4.690   4.949   6.442  1.6554  0.0589  2.6561
  277MOL0     H37376   4.473   4.995   6.591 -0.1905  0.2158 -1.8317
  277MOL0     H37377   3.991   5.003   6.562 -2.3628 -1.4964 -0.2987
  277MOL0     H37378   3.789   5.034   6.692  0.0041  0.4133  1.0411
  277MOL0     H37379   2.714   5.352   5.917  0.7950 -2.3706 -2.7098
  277MOL0     H37380   2.698   5.545   5.766 -0.2672 -1.8947 -3.2904
  277MOL0     H37381   3.006   5.658   5.378 -2.5737 -0.5974 -0.1421
  277MOL0     H37382   3.026   5.787   5.165 -1.3535 -0.9787  0.5937
  277MOL0     H37383   3.163   6.124   5.165 -0.9560  2.1000 -0.4779
  277MOL0     H37384   3.085   6.178   5.013  1.8270  0.7525  0.4091
  277MOL0     H37385   3.138   5.969   4.896  1.9802  0.5017 -0.4608
  277MOL0     H37386   3.174   5.901   5.054  1.9981 -0.4740 -1.1674
  277MOL0     H37387   3.375   5.980   4.899  0.0172 -1.9168  0.5648
  277MOL0     H37388   3.375   6.030   5.068 -1.1185  2.1679  0.2175
  277MOL0     H37389   3.296   6.186   4.809 -0.2198 -3.5930 -0.7407
  277MOL0     H37390   3.314   6.256   4.983  2.4739  0.4841  1.1933
  277MOL0     H37391   3.724   6.192   4.881  0.3365 -2.4917 -0.0422
  277MOL0     H37392   2.918   6.148   5.377 -2.6008 -0.1686 -0.9644
  277MOL0     H37393   2.919   6.047   5.708  0.4003 -2.6242 -0.5427
  277MOL0     H37394   2.863   6.172   5.586  2.2516 -0.1606  1.0523
  277MOL0     H37395   2.759   6.042   5.642  0.2541 -0.1753  1.1552
  278MOL0     O37396   6.803   4.048  10.646  0.8624 -0.1164 -0.1220
  278MOL0     C37397   6.780   4.145  10.580 -0.5030 -0.3237  0.8013
  278MOL0     O37398   6.874   4.245  10.552 -0.1773 -0.1880 -0.2458
  278MOL0     C37399   6.985   4.251  10.641  0.2443 -0.1844  0.3226
  278MOL0     C37400   7.096   4.165  10.639 -0.2062  0.1746  0.2062
  278MOL0     C37401   7.208   4.204  10.709 -0.5151  0.8125  0.0635
  278MOL0     C37402   7.213   4.314  10.788 -0.3513 -0.0091 -0.2934
  278MOL0     O37403   7.335   4.350  10.832  0.1437 -0.6774  0.1229
  278MOL0     C37404   7.378   4.477  10.788 -0.5124 -0.3225  0.4710
  278MOL0     C37405   7.515   4.469  10.723 -0.3461 -0.1684 -0.7950
  278MOL0     C37406   7.559   4.616  10.702 -1.2588  0.0494  0.0277
  278MOL0     C37407   7.715   4.634  10.702 -0.3384 -0.2990 -0.9204
  278MOL0     C37408   7.749   4.778  10.710 -0.5601 -0.1439  0.6210
  278MOL0     C37409   7.891   4.795  10.666  0.1314 -1.4209  0.7718
  278MOL0     C37410   7.936   4.939  10.688  0.2009 -0.0511 -0.1175
  278MOL0     C37411   8.077   4.959  10.634 -0.8718  0.6621 -0.8611
  278MOL0     N37412   8.185   4.892  10.719  0.5432  0.3608  0.2635
  278MOL0     C37413   8.210   4.758  10.705  0.5117  0.1220  0.0634
  278MOL0     C37414   8.312   4.744  10.795 -0.1274  0.5877  0.1642
  278MOL0     C37415   8.390   4.618  10.824 -0.2389 -0.8008  0.2850
  278MOL0     C37416   8.543   4.634  10.800 -0.0739  0.7063  0.6926
  278MOL0     C37417   8.620   4.505  10.841 -0.2461  0.1290  0.6364
  278MOL0     C37418   8.775   4.504  10.822  0.2435 -0.6513 -0.1206
  278MOL0     O37419   8.831   4.498  10.693  0.8811  0.3940  0.1290
  278MOL0     C37420   8.958   4.480  10.662 -0.4040 -0.0528 -0.9829
  278MOL0     C37421   9.013   4.483  10.528  0.5534  0.0441 -0.7672
  278MOL0     C37422   9.147   4.461  10.507  0.0123  0.6277  0.5624
  278MOL0     C37423   9.237   4.424  10.604 -0.2252  0.5237  0.3605
  278MOL0     C37424   9.386   4.406  10.579  0.1085  0.0390 -0.2478
  278MOL0     O37425   9.456   4.372  10.693 -0.6625  0.4448  0.6033
  278MOL0     C37426   9.590   4.355  10.715 -0.8167  0.0321 -0.2282
  278MOL0     C37427   9.625   4.347  10.850 -0.5086  0.2325 -1.5208
  278MOL0     C37428   9.750   4.310  10.898 -1.0797  0.2197 -0.4160
  278MOL0     C37429   9.851   4.293  10.801 -0.5039 -0.5262 -0.0221
  278MOL0     O37430   9.980   4.289  10.835 -0.1324  0.1022 -0.0977
  278MOL0     C37431  10.006   4.190  10.942  0.4138 -0.1857 -0.2097
  278MOL0     C37432  10.151   4.136  10.906  1.1085  0.0302 -0.2126
  278MOL0     C37433  10.150   4.079  10.759  0.0919 -0.5940 -0.4238
  278MOL0     C37434  10.295   4.090  10.702  0.2068 -0.5083  0.1298
  278MOL0     C37435  10.406   4.020  10.783 -0.4423  0.3840  0.0965
  278MOL0     C37436  10.373   3.884  10.835  0.7607 -0.3454  0.1514
  278MOL0     C37437  10.498   3.824  10.905  0.2725  0.0327 -0.8559
  278MOL0     C37438  10.464   3.687  10.963  0.1199  0.3095  0.7638
  278MOL0    Cl37439  10.596   3.605  11.045 -0.0184  0.4853  0.2330
  278MOL0     C37440   9.819   4.305  10.664  0.0533  0.5226  0.4567
  278MOL0     C37441   9.688   4.337  10.623  0.3277  0.7434  0.2751
  278MOL0     O37442   9.426   4.419  10.461 -0.2002 -0.0329  0.0149
  278MOL0     C37443   9.183   4.416  10.730 -0.4281  0.3205  0.0281
  278MOL0     C37444   9.056   4.451  10.752 -1.0842  1.0382  0.9417
  278MOL0     N37445   8.341   4.862  10.858 -0.1175 -0.0140  0.5303
  278MOL0     N37446   8.258   4.945  10.822 -0.1738 -0.0715 -0.2566
  278MOL0     C37447   7.101   4.398  10.800  0.5555  0.6074  0.2059
  278MOL0     C37448   6.989   4.361  10.727 -0.4373  0.4602 -0.0139
  278MOL0     C37449   6.662   4.131  10.495 -0.1018  0.5967 -0.3178
  278MOL0     C37450   6.533   4.155  10.542 -0.6204  0.1537 -0.2373
  278MOL0     C37451   6.425   4.146  10.460  0.8859  0.2325  0.0002
  278MOL0     C37452   6.437   4.104  10.325  0.2220  0.2025  0.2652
  278MOL0     O37453   6.332   4.084  10.236  0.5613 -0.0039 -0.0307
  278MOL0     C37454   6.192   4.090  10.270 -0.0180  0.0201 -0.1689
  278MOL0     C37455   6.092   4.020  10.169 -0.1614  0.4300  0.2511
  278MOL0     C37456   6.092   3.862  10.173  0.3551 -0.4441 -0.2119
  278MOL0     C37457   6.048   3.800  10.302 -0.2246 -0.2649 -0.2148
  278MOL0     C37458   5.932   3.865  10.359  0.3792 -0.1372  0.0044
  278MOL0     C37459   5.818   3.905  10.394 -0.8870  0.1746  0.5665
  278MOL0     C37460   6.568   4.086  10.277 -0.2306  0.9697  0.0030
  278MOL0     C37461   6.683   4.098  10.361 -0.7013  0.0455  1.3387
  278MOL0     C37462   6.807   4.061  10.289 -0.3019 -0.3006 -0.2615
  278MOL0     H37463   7.091   4.081  10.571  2.2976  1.3466 -1.5920
  278MOL0     H37464   7.288   4.132  10.697 -0.8443  0.5772 -0.7840
  278MOL0     H37465   7.303   4.529  10.729  0.0074  0.9276  0.8758
  278MOL0     H37466   7.395   4.532  10.881 -0.3657  3.1390 -1.4460
  278MOL0     H37467   7.512   4.413  10.629 -2.3584 -2.3264  0.4640
  278MOL0     H37468   7.578   4.420  10.798 -0.7714 -2.2288 -1.7017
  278MOL0     H37469   7.520   4.676  10.784  0.2575 -0.0628  0.8701
  278MOL0     H37470   7.523   4.640  10.601 -2.5811 -2.5950 -0.1946
  278MOL0     H37471   7.746   4.595  10.799 -1.4711 -0.6541 -0.6802
  278MOL0     H37472   7.765   4.595  10.613  0.5547  2.5088 -1.7669
  278MOL0     H37473   7.686   4.839  10.644  2.7776  0.8519 -1.8990
  278MOL0     H37474   7.752   4.811  10.815 -0.9230 -0.4134  0.7159
  278MOL0     H37475   7.946   4.735  10.739 -0.4197 -2.0816  0.6558
  278MOL0     H37476   7.904   4.761  10.563  0.3182 -0.5543  0.5007
  278MOL0     H37477   7.926   4.968  10.793  1.9233  2.3264 -0.5274
  278MOL0     H37478   7.879   5.013  10.631  2.2690  3.0109  1.5035
  278MOL0     H37479   8.084   4.921  10.531 -1.6050 -2.9228  0.2778
  278MOL0     H37480   8.105   5.065  10.630  0.1894  0.4980  1.2140
  278MOL0     H37481   8.160   4.683  10.646  1.2787 -0.9185  0.6913
  278MOL0     H37482   8.375   4.591  10.929  0.1441  0.4307  0.6683
  278MOL0     H37483   8.348   4.545  10.754  0.4284  2.2078 -3.6075
  278MOL0     H37484   8.556   4.651  10.693  2.9554 -0.0824  0.8527
  278MOL0     H37485   8.582   4.722  10.852  1.5680 -0.0400  0.8055
  278MOL0     H37486   8.576   4.422  10.784  0.1016  0.0622  0.4596
  278MOL0     H37487   8.597   4.484  10.946  1.0432 -1.0667  0.7084
  278MOL0     H37488   8.821   4.426  10.883  2.1422  1.1208  0.8782
  278MOL0     H37489   8.813   4.602  10.854 -0.8507  0.0230 -0.8375
  278MOL0     H37490   8.947   4.508  10.445 -0.6773  0.1503  0.2098
  278MOL0     H37491   9.174   4.472  10.402  1.7573  1.1494  1.0350
  278MOL0     H37492   9.549   4.371  10.924 -0.6918 -0.0696 -1.6102
  278MOL0     H37493   9.768   4.308  11.005  0.7721  0.5140 -0.6942
  278MOL0     H37494  10.010   4.235  11.041 -2.5755  1.4560 -0.7197
  278MOL0     H37495   9.937   4.104  10.940  1.8135 -1.4397  1.6932
  278MOL0     H37496  10.226   4.215  10.924  2.2858 -1.7314  3.7352
  278MOL0     H37497  10.163   4.047  10.969  2.4048 -1.2736 -2.1880
  278MOL0     H37498  10.112   3.977  10.762 -1.9436  0.0439 -1.9603
  278MOL0     H37499  10.092   4.133  10.683  1.2801  2.8191  0.9191
  278MOL0     H37500  10.319   4.195  10.684  1.2585 -0.8767 -0.7465
  278MOL0     H37501  10.302   4.047  10.601  1.2212 -0.7649  0.2980
  278MOL0     H37502  10.448   4.076  10.867  0.9642  1.0998 -1.0411
  278MOL0     H37503  10.498   4.001  10.727  0.0580  1.3755  0.5615
  278MOL0     H37504  10.285   3.879  10.899 -0.6770  0.5991 -1.6758
  278MOL0     H37505  10.346   3.816  10.754  0.2819  0.1352 -0.0935
  278MOL0     H37506  10.546   3.893  10.974  0.5523  0.4616 -1.4778
  278MOL0     H37507  10.566   3.805  10.821  2.8766  2.0579  0.6578
  278MOL0     H37508  10.371   3.708  11.017 -0.2001 -1.6616  1.0513
  278MOL0     H37509  10.423   3.623  10.883 -2.7990  0.4766  2.0051
  278MOL0     H37510   9.894   4.297  10.586 -1.3604 -1.9402 -0.7768
  278MOL0     H37511   9.655   4.337  10.520  3.9170  0.1458 -1.0291
  278MOL0     H37512   9.231   4.385  10.822 -2.0695  0.5928  1.0338
  278MOL0     H37513   9.032   4.440  10.857  1.3437 -4.9037  1.3064
  278MOL0     H37514   7.088   4.480  10.871  0.7501  0.8007  0.0204
  278MOL0     H37515   6.900   4.422  10.732  0.1171  1.2825  0.0049
  278MOL0     H37516   6.519   4.193  10.642 -1.6153  2.3471 -1.1420
  278MOL0     H37517   6.323   4.167  10.488  0.8450  0.2292 -0.1474
  278MOL0     H37518   6.176   4.198  10.258  1.5471  0.1032 -2.0779
  278MOL0     H37519   6.170   4.049  10.369  0.6391 -1.2229 -0.5209
  278MOL0     H37520   6.127   4.051  10.070  0.1817  0.3249  0.3397
  278MOL0     H37521   5.992   4.066  10.163 -0.6358 -0.6660 -0.6656
  278MOL0     H37522   6.182   3.809  10.142  0.3985 -2.1670  2.5101
  278MOL0     H37523   6.021   3.829  10.097  0.1146 -1.9454  0.6208
  278MOL0     H37524   6.039   3.695  10.273  1.7786 -0.4801 -0.2359
  278MOL0     H37525   6.121   3.809  10.383 -1.1152 -1.3840  0.7382
  278MOL0     H37526   5.724   3.947  10.425 -1.8844 -0.7801 -0.9867
  278MOL0     H37527   6.585   4.062  10.172  1.8470 -1.1857  0.7428
  278MOL0     H37528   6.842   4.146  10.228 -0.5693 -1.1378 -1.6232
  278MOL0     H37529   6.885   4.041  10.363 -0.9390  1.2699  0.8736
  278MOL0     H37530   6.807   3.979  10.217 -0.7068  2.8331 -4.2148
  279MOL0     O37531   2.738   7.852   1.540 -0.2181  1.5441  0.1875
  279MOL0     C37532   2.710   7.932   1.456 -0.4692 -0.4103 -0.0604
  279MOL0     O37533   2.798   8.022   1.396 -0.2717 -0.1508  0.7424
  279MOL0     C37534   2.924   8.038   1.445  0.0933 -0.7265  0.8540
  279MOL0     C37535   2.950   8.162   1.514 -0.3267 -0.0768  0.7327
  279MOL0     C37536   3.070   8.185   1.581 -0.2012  0.5840  0.2984
  279MOL0     C37537   3.166   8.083   1.585 -0.0980 -0.2294  0.1436
  279MOL0     O37538   3.276   8.098   1.657  0.2059 -0.7266 -0.6716
  279MOL0     C37539   3.399   8.061   1.603  0.4294 -0.6572 -0.3264
  279MOL0     C37540   3.508   8.132   1.683 -0.0753 -0.0608 -0.8190
  279MOL0     C37541   3.508   8.290   1.664  0.1567 -0.3545 -0.1535
  279MOL0     C37542   3.481   8.356   1.804 -0.2145  0.6747  0.1376
  279MOL0     C37543   3.603   8.357   1.894 -0.5008 -0.6734  0.3164
  279MOL0     C37544   3.702   8.481   1.870 -0.0742  0.0388  0.5939
  279MOL0     C37545   3.824   8.468   1.949 -0.0940  0.1801 -0.2710
  279MOL0     C37546   3.914   8.589   1.940 -0.1673  0.2729 -0.4335
  279MOL0     N37547   4.035   8.569   2.017  0.0251 -0.3102 -0.6694
  279MOL0     C37548   4.054   8.483   2.115  0.2062 -0.2432 -0.6326
  279MOL0     C37549   4.193   8.476   2.138 -0.6240 -0.4423  0.0688
  279MOL0     C37550   4.260   8.407   2.249 -0.0226  0.3338  0.0135
  279MOL0     C37551   4.286   8.271   2.193  0.8524 -0.3572 -1.0277
  279MOL0     C37552   4.399   8.262   2.087  0.9300 -0.3525 -0.7452
  279MOL0     C37553   4.537   8.314   2.132 -0.1031 -0.9862 -0.8388
  279MOL0     O37554   4.578   8.237   2.244 -0.6710  0.0610  0.4985
  279MOL0     C37555   4.710   8.193   2.267 -0.0260 -0.5897 -0.4481
  279MOL0     C37556   4.811   8.232   2.186 -0.3715 -0.4477 -0.1240
  279MOL0     C37557   4.939   8.196   2.221 -0.4667  0.0703 -0.1285
  279MOL0     C37558   4.970   8.108   2.331  0.6404  0.0252 -0.4570
  279MOL0     C37559   5.104   8.060   2.363 -0.1057 -0.4772  0.0279
  279MOL0     O37560   5.121   7.985   2.474 -0.7265  0.6629  0.8790
  279MOL0     C37561   5.239   8.005   2.528  0.9120 -0.0475 -0.4049
  279MOL0     C37562   5.343   7.915   2.502  0.8215  0.0602 -0.1435
  279MOL0     C37563   5.471   7.949   2.546 -0.2339 -0.2428 -0.4836
  279MOL0     C37564   5.502   8.049   2.640  0.7511  0.7950 -0.0339
  279MOL0     O37565   5.626   8.056   2.693 -0.3716  0.0410  0.0941
  279MOL0     C37566   5.631   8.095   2.829  0.1035  0.6973 -0.0098
  279MOL0     C37567   5.781   8.079   2.861 -0.6010 -1.0717 -0.0625
  279MOL0     C37568   5.818   8.143   2.999  0.7315 -0.4758 -0.7399
  279MOL0     C37569   5.958   8.099   3.049  0.0847 -0.0348  0.5417
  279MOL0     C37570   6.077   8.162   2.980  0.4448 -0.1799  0.1988
  279MOL0     C37571   6.216   8.111   3.029 -0.1119  0.2528 -0.0834
  279MOL0     C37572   6.249   7.958   3.008 -0.0396  0.3153  0.5570
  279MOL0     C37573   6.401   7.935   3.016  0.3496  0.2186 -0.1002
  279MOL0    Cl37574   6.488   7.979   2.868 -0.0342  0.1276 -0.0481
  279MOL0     C37575   5.396   8.134   2.682 -0.3213 -0.5156  0.3600
  279MOL0     C37576   5.266   8.110   2.624  0.4625 -0.1348  0.0411
  279MOL0     O37577   5.193   8.097   2.284  0.2162  0.3743  0.4732
  279MOL0     C37578   4.859   8.058   2.404  0.3196  0.0385 -0.2572
  279MOL0     C37579   4.733   8.108   2.377  0.3326  0.9129  1.2404
  279MOL0     N37580   4.251   8.579   2.062  0.7308  0.1567  0.3081
  279MOL0     N37581   4.159   8.619   1.985 -0.3975 -1.0871 -0.0808
  279MOL0     C37582   3.140   7.961   1.524  0.0879  0.3937  0.3580
  279MOL0     C37583   3.025   7.940   1.453  0.6086 -0.6527  0.7421
  279MOL0     C37584   2.575   7.937   1.408  0.2951  0.2298 -0.1232
  279MOL0     C37585   2.488   7.819   1.411 -0.6514 -0.3881 -0.1406
  279MOL0     C37586   2.357   7.831   1.369  0.1719  0.3115  0.1111
  279MOL0     C37587   2.305   7.949   1.308 -0.5419 -0.0600 -1.1082
  279MOL0     O37588   2.186   7.933   1.243  0.3073  0.2561 -0.1536
  279MOL0     C37589   2.136   8.030   1.156 -0.3569 -0.9434 -0.0791
  279MOL0     C37590   2.053   7.957   1.053  1.0819  0.3855  0.3341
  279MOL0     C37591   1.934   7.877   1.109  0.6017 -0.2437 -0.3780
  279MOL0     C37592   1.851   7.811   1.003 -0.5373 -0.2849  0.0674
  279MOL0     C37593   1.927   7.709   0.931 -0.3210 -0.4915 -0.6139
  279MOL0     C37594   1.996   7.630   0.870 -0.0504  0.3478 -0.1916
  279MOL0     C37595   2.383   8.066   1.321  0.5052  0.2505  0.2792
  279MOL0     C37596   2.518   8.065   1.367 -0.2231  0.1963 -0.6514
  279MOL0     C37597   2.576   8.206   1.394 -0.4827 -0.0295  0.5434
  279MOL0     H37598   2.873   8.238   1.519  1.7248  2.0932  1.1054
  279MOL0     H37599   3.068   8.279   1.635 -1.3804  0.5509  0.3308
  279MOL0     H37600   3.413   7.952   1.598  2.4228 -0.5163  0.8299
  279MOL0     H37601   3.409   8.093   1.499  0.2042 -1.0856 -0.4820
  279MOL0     H37602   3.605   8.089   1.658 -0.7211 -2.1679  0.0554
  279MOL0     H37603   3.502   8.101   1.788 -0.8711 -2.9837 -1.6384
  279MOL0     H37604   3.429   8.312   1.591 -1.3070  1.0761  1.7731
  279MOL0     H37605   3.603   8.327   1.623  0.8883  1.5874  2.9886
  279MOL0     H37606   3.422   8.448   1.794 -1.9878 -0.5948 -2.1552
  279MOL0     H37607   3.404   8.289   1.844  0.0233  0.1658 -0.2566
  279MOL0     H37608   3.568   8.354   1.997  1.6216  1.6684  1.2063
  279MOL0     H37609   3.668   8.271   1.873 -2.4354 -1.6280 -2.2656
  279MOL0     H37610   3.720   8.502   1.764 -1.7003  1.0067  0.4869
  279MOL0     H37611   3.658   8.572   1.912  1.2396  1.0727 -0.1729
  279MOL0     H37612   3.877   8.379   1.912 -0.0043 -1.8286  3.9869
  279MOL0     H37613   3.803   8.455   2.056 -0.7659 -2.9848 -0.6901
  279MOL0     H37614   3.942   8.587   1.834  5.1480 -2.8806  0.6387
  279MOL0     H37615   3.865   8.678   1.978  1.0629  0.7440  0.1145
  279MOL0     H37616   3.988   8.433   2.185  1.3951 -1.4342 -0.3125
  279MOL0     H37617   4.356   8.443   2.286  0.8833 -2.4227  0.5526
  279MOL0     H37618   4.199   8.408   2.340 -0.2768  2.0541 -0.1342
  279MOL0     H37619   4.312   8.217   2.284 -1.2950 -0.7616 -0.6101
  279MOL0     H37620   4.195   8.221   2.157 -1.1686  1.0269  1.7706
  279MOL0     H37621   4.378   8.320   1.997  1.5582  0.9138 -0.0963
  279MOL0     H37622   4.415   8.157   2.060 -1.1658 -1.7763  2.8550
  279MOL0     H37623   4.543   8.419   2.164 -0.2413 -1.5538  1.2256
  279MOL0     H37624   4.593   8.311   2.038 -2.2837 -2.3037 -2.1743
  279MOL0     H37625   4.796   8.308   2.110 -0.7539 -0.6133 -0.2170
  279MOL0     H37626   5.026   8.241   2.174 -0.1328 -0.3930  0.0376
  279MOL0     H37627   5.311   7.844   2.426 -3.8815  0.4121  1.1648
  279MOL0     H37628   5.559   7.890   2.524 -0.7508 -2.3278  2.3836
  279MOL0     H37629   5.604   8.200   2.845  1.2338  0.7104  2.1410
  279MOL0     H37630   5.576   8.022   2.889  1.1561 -1.6082 -1.7381
  279MOL0     H37631   5.797   7.971   2.869 -0.6794 -0.9788  1.9894
  279MOL0     H37632   5.844   8.123   2.783 -0.5658  0.2667  0.6918
  279MOL0     H37633   5.825   8.252   2.997 -1.3532 -0.2884 -0.5101
  279MOL0     H37634   5.738   8.124   3.071  1.6698 -1.7421  0.0113
  279MOL0     H37635   5.959   7.990   3.041 -1.2356  0.0454 -1.5900
  279MOL0     H37636   5.975   8.125   3.154 -0.5360  1.3424  0.3258
  279MOL0     H37637   6.065   8.270   2.993 -0.6822 -0.4313  1.5839
  279MOL0     H37638   6.073   8.147   2.872  1.2356 -1.0516  0.2718
  279MOL0     H37639   6.302   8.161   2.985  0.5698 -1.0098 -0.2493
  279MOL0     H37640   6.217   8.120   3.138  1.6012 -1.7157  0.1112
  279MOL0     H37641   6.213   7.928   2.909  0.8611  0.4015  0.1995
  279MOL0     H37642   6.203   7.899   3.088  1.4933 -0.5933  0.8181
  279MOL0     H37643   6.451   7.997   3.091  0.1807 -0.5499  0.6730
  279MOL0     H37644   6.409   7.828   3.037 -1.0570  0.4050  1.5674
  279MOL0     H37645   5.411   8.222   2.744 -0.0915 -0.6339  0.4743
  279MOL0     H37646   5.193   8.190   2.632 -2.9777 -2.7562 -1.7862
  279MOL0     H37647   4.876   7.998   2.493  2.0486  0.3021 -0.3902
  279MOL0     H37648   4.642   8.075   2.427  0.4608 -3.7696 -0.9954
  279MOL0     H37649   3.219   7.886   1.523 -0.8079 -0.6001 -1.1178
  279MOL0     H37650   3.012   7.846   1.400  1.7816 -0.1397 -0.5215
  279MOL0     H37651   2.517   7.726   1.461  0.3946 -0.3853 -0.7037
  279MOL0     H37652   2.302   7.738   1.371  1.0891 -0.2396  0.1252
  279MOL0     H37653   2.218   8.079   1.103 -0.8103 -0.2627 -0.1771
  279MOL0     H37654   2.081   8.106   1.213  1.7609  0.9134 -0.3732
  279MOL0     H37655   2.115   7.888   0.994 -1.6562  1.4376 -4.2489
  279MOL0     H37656   2.023   8.036   0.982  0.3895  0.6294  0.8884
  279MOL0     H37657   1.864   7.951   1.149 -2.3893 -0.9009 -3.8832
  279MOL0     H37658   1.972   7.800   1.177  1.0430  0.1485 -0.1768
  279MOL0     H37659   1.773   7.758   1.059  1.5101 -1.2304  2.2194
  279MOL0     H37660   1.805   7.876   0.929 -0.3928  2.9116  2.5776
  279MOL0     H37661   2.064   7.570   0.813  1.4406 -1.0836  2.8645
  279MOL0     H37662   2.325   8.155   1.300 -4.5483 -1.7931  3.5711
  279MOL0     H37663   2.625   8.209   1.492 -0.4097  0.3900  0.4962
  279MOL0     H37664   2.652   8.229   1.318  0.6205 -0.2734  1.5389
  279MOL0     H37665   2.496   8.281   1.394  1.2309  1.9754 -2.0339
  280MOL0     O37666   6.198   2.012   0.771 -0.6868  0.4965  0.0882
  280MOL0     C37667   6.215   2.120   0.712 -0.9082 -0.5198  0.4834
  280MOL0     O37668   6.330   2.169   0.665 -0.0929 -0.2510  0.1773
  280MOL0     C37669   6.457   2.117   0.672  0.7513  0.1896 -0.1891
  280MOL0     C37670   6.565   2.189   0.628 -1.2255  0.2254  0.5750
  280MOL0     C37671   6.695   2.137   0.614  0.8822 -0.4973  0.4017
  280MOL0     C37672   6.722   2.007   0.658  0.0087 -0.3641  0.7503
  280MOL0     O37673   6.842   1.948   0.656 -0.1817 -0.1960 -0.3604
  280MOL0     C37674   6.951   2.034   0.704 -0.1797 -0.6867 -0.5580
  280MOL0     C37675   7.045   1.929   0.768  0.0054 -0.7373 -0.4212
  280MOL0     C37676   7.166   1.999   0.827 -0.7041  0.4501  0.0104
  280MOL0     C37677   7.292   1.911   0.837  0.2976  0.0359  0.2442
  280MOL0     C37678   7.399   1.975   0.925  0.2451  0.1799 -0.0142
  280MOL0     C37679   7.533   1.900   0.944 -0.3148  0.5488 -0.0377
  280MOL0     C37680   7.628   1.976   1.041 -0.1368  0.5532 -0.6338
  280MOL0     C37681   7.759   1.901   1.086  0.6366  0.8987  0.7269
  280MOL0     N37682   7.853   1.977   1.156  0.3284 -0.2921  0.1561
  280MOL0     C37683   7.816   2.044   1.272  1.1136 -0.4813  0.8343
  280MOL0     C37684   7.937   2.073   1.328  0.1741  0.7741  0.4818
  280MOL0     C37685   7.960   2.161   1.454 -0.1264  0.5480  0.7976
  280MOL0     C37686   8.071   2.099   1.538 -0.2293  0.2557 -0.1473
  280MOL0     C37687   8.028   1.991   1.632  0.1518 -0.0326 -0.1750
  280MOL0     C37688   8.141   1.940   1.722 -0.4146  0.4565 -0.3792
  280MOL0     O37689   8.167   2.037   1.824 -0.4177 -0.5889 -0.0044
  280MOL0     C37690   8.278   2.008   1.901  0.0302  0.1478  0.0744
  280MOL0     C37691   8.352   1.888   1.904  0.3439  0.0174  0.2820
  280MOL0     C37692   8.476   1.880   1.971 -0.3121 -0.3510 -0.6424
  280MOL0     C37693   8.536   1.990   2.028  0.2767 -0.2545 -0.2299
  280MOL0     C37694   8.677   1.981   2.091  0.3613  0.0200  0.5268
  280MOL0     O37695   8.710   2.071   2.189 -0.4988  0.2614 -0.2976
  280MOL0     C37696   8.842   2.108   2.196  0.2757  0.1371 -0.5925
  280MOL0     C37697   8.943   2.027   2.262  0.3889  0.0035  0.7937
  280MOL0     C37698   9.075   2.066   2.266 -0.1434 -0.0514 -0.2927
  280MOL0     C37699   9.123   2.187   2.225  0.3935  0.1229  0.2059
  280MOL0     O37700   9.255   2.233   2.251 -0.0096  0.0531 -0.3212
  280MOL0     C37701   9.352   2.136   2.234  0.2308  0.5615  0.4601
  280MOL0     C37702   9.477   2.198   2.167 -0.0771  0.5157  0.3105
  280MOL0     C37703   9.564   2.281   2.260 -0.8680  0.5437 -0.4169
  280MOL0     C37704   9.678   2.340   2.185 -0.1051  0.4518 -0.4517
  280MOL0     C37705   9.788   2.404   2.276 -0.2921 -0.3563 -0.1289
  280MOL0     C37706   9.899   2.469   2.182 -0.7965  0.3448 -0.0467
  280MOL0     C37707  10.005   2.539   2.264  0.2492  0.7558  0.2048
  280MOL0     C37708  10.093   2.612   2.158 -0.5010  0.1183  0.5838
  280MOL0    Cl37709  10.218   2.696   2.249  0.2750  0.0396 -0.1639
  280MOL0     C37710   9.028   2.274   2.161 -0.0228 -0.0036  0.1102
  280MOL0     C37711   8.891   2.227   2.145 -0.0564  0.5874  0.2049
  280MOL0     O37712   8.746   1.883   2.054  0.6506 -0.6626  0.2181
  280MOL0     C37713   8.461   2.107   2.029  0.2181 -0.0212  0.3602
  280MOL0     C37714   8.335   2.120   1.962  0.0043 -0.4865  0.4186
  280MOL0     N37715   8.034   2.023   1.237 -0.0912  0.0089 -0.6049
  280MOL0     N37716   7.982   1.975   1.133 -0.2724 -0.5136  0.1228
  280MOL0     C37717   6.619   1.941   0.719  1.3383 -0.0302  0.9123
  280MOL0     C37718   6.488   1.993   0.730 -0.2013 -0.5432  0.1388
  280MOL0     C37719   6.095   2.197   0.658  0.2095  0.0569  0.1437
  280MOL0     C37720   6.108   2.268   0.541 -0.4469 -0.6422  0.5527
  280MOL0     C37721   6.004   2.332   0.481 -1.1392  1.4354 -0.1798
  280MOL0     C37722   5.879   2.318   0.534  1.0165 -0.5667 -0.3430
  280MOL0     O37723   5.776   2.400   0.473  0.5221 -0.6918 -0.0252
  280MOL0     C37724   5.632   2.374   0.486 -0.1358  0.0923  0.2359
  280MOL0     C37725   5.573   2.500   0.542 -0.2542 -0.3635 -0.2193
  280MOL0     C37726   5.585   2.513   0.694  0.6905  0.8315 -0.4802
  280MOL0     C37727   5.505   2.614   0.771 -0.1362 -0.5514 -0.0564
  280MOL0     C37728   5.534   2.583   0.912 -0.9825 -0.6283  0.1818
  280MOL0     C37729   5.539   2.561   1.031  0.5279 -0.2861  0.1042
  280MOL0     C37730   5.854   2.243   0.648  0.1983  0.1756 -0.2399
  280MOL0     C37731   5.963   2.185   0.715 -0.0013  0.0778  0.6979
  280MOL0     C37732   5.936   2.109   0.841 -0.4335  0.3683 -0.1083
  280MOL0     H37733   6.554   2.286   0.582 -4.7849 -0.6436 -0.7742
  280MOL0     H37734   6.772   2.191   0.560  2.4065 -1.1261  1.8310
  280MOL0     H37735   7.004   2.087   0.624 -1.8638 -2.3369 -2.9322
  280MOL0     H37736   6.917   2.106   0.778  1.5580  0.9805 -1.2970
  280MOL0     H37737   7.086   1.862   0.691  0.8496  0.4900 -1.0615
  280MOL0     H37738   6.993   1.863   0.839 -1.8010 -2.1428 -2.8637
  280MOL0     H37739   7.136   2.039   0.925  0.1255 -1.4565  1.1081
  280MOL0     H37740   7.192   2.075   0.754 -1.3492  0.6792  0.0126
  280MOL0     H37741   7.275   1.810   0.877 -2.2880  0.9509  1.6758
  280MOL0     H37742   7.321   1.899   0.733  1.4997  0.1289  0.5532
  280MOL0     H37743   7.430   2.073   0.887 -0.0703  0.0729 -0.5561
  280MOL0     H37744   7.352   1.992   1.022  0.2609  2.5954 -0.3704
  280MOL0     H37745   7.509   1.798   0.975 -0.0562  1.2217  2.6252
  280MOL0     H37746   7.583   1.885   0.848 -1.5365  1.2818 -0.8262
  280MOL0     H37747   7.567   2.007   1.127  0.1240  0.3200 -0.3604
  280MOL0     H37748   7.651   2.072   0.993  3.0242 -0.3889 -1.2294
  280MOL0     H37749   7.730   1.821   1.156 -0.6877  0.0036 -0.7777
  280MOL0     H37750   7.802   1.870   0.991 -1.9387  1.6176 -0.7964
  280MOL0     H37751   7.721   2.066   1.318  0.9627  3.2074 -0.9178
  280MOL0     H37752   7.977   2.263   1.417 -0.6532  0.6237  0.7490
  280MOL0     H37753   7.866   2.174   1.509 -1.7752 -0.7250 -1.5548
  280MOL0     H37754   8.156   2.056   1.484  0.1994  0.7273  0.1420
  280MOL0     H37755   8.106   2.177   1.607 -2.5633 -0.3423  1.8699
  280MOL0     H37756   7.986   1.911   1.571 -0.0223  0.7612 -1.1269
  280MOL0     H37757   7.951   2.030   1.701 -0.8792  0.7418 -1.7133
  280MOL0     H37758   8.228   1.917   1.661  0.4598  2.6455 -0.0311
  280MOL0     H37759   8.111   1.851   1.779 -0.5489  2.2228  2.5297
  280MOL0     H37760   8.320   1.801   1.847  0.3871  0.2553 -0.1072
  280MOL0     H37761   8.544   1.795   1.972  3.3719  2.3368  0.8012
  280MOL0     H37762   8.914   1.932   2.307  0.9949 -0.3715  0.4081
  280MOL0     H37763   9.142   1.999   2.318  1.3736  0.8816 -1.0068
  280MOL0     H37764   9.375   2.076   2.322 -2.2079 -0.6278  0.3604
  280MOL0     H37765   9.310   2.061   2.167 -0.2381 -0.0124  1.3809
  280MOL0     H37766   9.541   2.117   2.130 -2.0531 -0.9192 -0.1190
  280MOL0     H37767   9.450   2.250   2.075  3.4702 -0.6713 -1.6028
  280MOL0     H37768   9.501   2.362   2.299 -1.1003  1.8188 -3.2367
  280MOL0     H37769   9.595   2.224   2.349  0.0746  0.3087 -0.8840
  280MOL0     H37770   9.647   2.414   2.111 -0.2910  0.1360 -0.6924
  280MOL0     H37771   9.730   2.257   2.137  0.9867  0.0991  1.2400
  280MOL0     H37772   9.831   2.330   2.345  1.2086 -1.0131 -1.6891
  280MOL0     H37773   9.736   2.480   2.334 -0.9665 -0.5741 -0.4444
  280MOL0     H37774   9.952   2.392   2.125 -1.0548 -0.0199  0.1958
  280MOL0     H37775   9.839   2.535   2.118  0.6426  2.0879  0.3355
  280MOL0     H37776  10.056   2.458   2.317  2.7433  2.2414  0.2701
  280MOL0     H37777   9.971   2.617   2.332  0.7102  0.4245  0.8336
  280MOL0     H37778  10.148   2.540   2.097 -0.2405 -0.4619  1.4946
  280MOL0     H37779  10.037   2.677   2.090  2.9421  1.6383 -1.0979
  280MOL0     H37780   9.050   2.372   2.121 -0.3162 -0.0054 -0.0584
  280MOL0     H37781   8.818   2.286   2.090 -0.6949  1.4644  1.9150
  280MOL0     H37782   8.505   2.198   2.066 -1.7613  0.8889  0.5743
  280MOL0     H37783   8.279   2.213   1.959  0.9645  0.1092 -1.9711
  280MOL0     H37784   6.629   1.848   0.774 -0.1140 -0.2796  0.7988
  280MOL0     H37785   6.413   1.930   0.777 -1.5743 -0.5412 -1.9442
  280MOL0     H37786   6.208   2.286   0.503 -1.4734 -0.8695 -2.5366
  280MOL0     H37787   6.040   2.389   0.396  2.0676  1.3549  0.9655
  280MOL0     H37788   5.616   2.286   0.549  2.6170  0.0956  1.1041
  280MOL0     H37789   5.586   2.365   0.388 -0.8036  2.3942  0.2829
  280MOL0     H37790   5.466   2.507   0.518  0.1653 -0.3873 -2.2511
  280MOL0     H37791   5.625   2.585   0.496  1.6414 -1.0318  0.6047
  280MOL0     H37792   5.692   2.537   0.699  1.4955 -2.2798 -1.1764
  280MOL0     H37793   5.561   2.415   0.736  0.6159  0.3144 -1.7204
  280MOL0     H37794   5.532   2.716   0.744 -1.2619  0.5189  2.5237
  280MOL0     H37795   5.398   2.603   0.752 -0.1145  0.2943 -0.7058
  280MOL0     H37796   5.528   2.536   1.135  1.8040 -1.8173 -0.0848
  280MOL0     H37797   5.759   2.240   0.699 -0.1660  0.7346 -0.8756
  280MOL0     H37798   5.950   2.000   0.846 -1.0084  0.3591  3.1515
  280MOL0     H37799   6.017   2.156   0.896  1.6841  2.6636 -4.6141
  280MOL0     H37800   5.843   2.134   0.892  0.5291 -0.3931  2.1427
  281MOL0     O37801   5.723   7.508   1.278  0.0422 -0.1645 -0.2506
  281MOL0     C37802   5.709   7.613   1.335 -0.0783  0.0483  0.2770
  281MOL0     O37803   5.804   7.682   1.401  0.0499  0.1959 -0.3517
  281MOL0     C37804   5.932   7.664   1.346  0.3677 -0.3614 -0.7752
  281MOL0     C37805   5.973   7.723   1.234  0.4730 -0.9146  0.5418
  281MOL0     C37806   6.099   7.683   1.190  0.0187  0.2538  0.2727
  281MOL0     C37807   6.189   7.592   1.255 -0.1211 -0.3210  1.0149
  281MOL0     O37808   6.317   7.561   1.225 -0.1378  0.0387  0.1987
  281MOL0     C37809   6.359   7.569   1.085  0.0347 -0.6521 -0.4199
  281MOL0     C37810   6.510   7.533   1.075  0.1953 -0.4002  1.1869
  281MOL0     C37811   6.533   7.380   1.106 -0.6573  0.7531 -0.1019
  281MOL0     C37812   6.675   7.344   1.152  0.7737  0.2078  0.3572
  281MOL0     C37813   6.767   7.285   1.044 -0.9244  0.1206  0.3987
  281MOL0     C37814   6.915   7.273   1.104  0.1145  0.2164 -0.4923
  281MOL0     C37815   7.022   7.225   0.999  0.2073 -0.3795  0.6740
  281MOL0     C37816   7.039   7.080   0.988  0.3555  0.4905  0.4417
  281MOL0     N37817   7.160   7.034   0.932 -0.1135 -0.2742  0.1822
  281MOL0     C37818   7.276   7.063   1.001 -0.5034  0.0086  0.2222
  281MOL0     C37819   7.368   7.023   0.907 -0.5989 -0.2108  0.1651
  281MOL0     C37820   7.517   7.020   0.932 -0.6784 -0.6123  1.0943
  281MOL0     C37821   7.594   7.110   0.831  0.1145 -0.1790 -0.6951
  281MOL0     C37822   7.743   7.112   0.860  0.5494 -0.1603 -0.0356
  281MOL0     C37823   7.828   7.156   0.738  0.1553 -0.5393  0.6313
  281MOL0     O37824   7.945   7.076   0.749  0.0212  0.6519  0.0459
  281MOL0     C37825   8.056   7.106   0.667  0.5092  0.7097 -0.1438
  281MOL0     C37826   8.172   7.031   0.686 -0.3989 -0.1370 -0.2546
  281MOL0     C37827   8.287   7.047   0.608  0.4642  0.7257  0.0032
  281MOL0     C37828   8.281   7.146   0.504  0.5101  0.5731 -0.8787
  281MOL0     C37829   8.393   7.178   0.418 -0.7792 -0.8664  0.4765
  281MOL0     O37830   8.500   7.096   0.427  0.1327  0.2917 -0.5956
  281MOL0     C37831   8.606   7.118   0.349  0.5114  0.1031 -0.6594
  281MOL0     C37832   8.616   7.103   0.211  0.4245  1.2740 -0.3282
  281MOL0     C37833   8.736   7.139   0.151 -0.1914  0.2213  0.3289
  281MOL0     C37834   8.847   7.180   0.224 -0.5280  0.2500  0.5599
  281MOL0     O37835   8.962   7.211   0.161  0.2970  0.6820  0.7856
  281MOL0     C37836   9.061   7.106   0.163 -0.2381  0.0700 -0.9721
  281MOL0     C37837   9.197   7.179   0.166  0.0934 -0.0746 -0.0874
  281MOL0     C37838   9.306   7.076   0.175  0.6024  0.9626 -0.0800
  281MOL0     C37839   9.448   7.136   0.160  0.3715 -0.1446  0.5020
  281MOL0     C37840   9.458   7.257   0.058 -0.4789  0.8501 -0.2086
  281MOL0     C37841   9.594   7.322   0.030 -0.4520 -0.3159 -0.7491
  281MOL0     C37842   9.696   7.215  -0.019  0.5196 -0.2246  0.6149
  281MOL0     C37843   9.837   7.256  -0.060  0.6997  0.0599  0.9138
  281MOL0    Cl37844   9.926   7.323   0.085 -0.0925 -0.1159  0.2240
  281MOL0     C37845   8.833   7.208   0.360  0.6908 -0.6087  0.0626
  281MOL0     C37846   8.710   7.177   0.415  1.4022  0.7192 -0.4801
  281MOL0     O37847   8.386   7.277   0.352  0.8636  0.1363  0.0979
  281MOL0     C37848   8.161   7.217   0.476 -0.0181  0.6912 -0.2623
  281MOL0     C37849   8.050   7.203   0.561 -0.0256 -0.5771 -0.6246
  281MOL0     N37850   7.312   6.962   0.797 -0.5628 -0.1040  0.6093
  281MOL0     N37851   7.188   6.993   0.801 -0.1007  0.1448  0.2623
  281MOL0     C37852   6.146   7.542   1.374 -0.3573  0.2927  0.0325
  281MOL0     C37853   6.023   7.580   1.425  0.4057 -0.4983 -0.0824
  281MOL0     C37854   5.566   7.651   1.356  0.6661  0.4192  0.1856
  281MOL0     C37855   5.532   7.749   1.458  0.2713  0.0446  0.6303
  281MOL0     C37856   5.396   7.788   1.482 -0.6278 -0.2308 -0.0708
  281MOL0     C37857   5.288   7.726   1.410 -0.1423  0.6237 -0.1452
  281MOL0     O37858   5.161   7.762   1.444  0.1212  0.4102 -0.7551
  281MOL0     C37859   5.049   7.747   1.353 -0.2278 -0.2134  0.3137
  281MOL0     C37860   4.967   7.619   1.368 -0.4102  0.3617 -0.4221
  281MOL0     C37861   4.833   7.617   1.307 -0.1303  0.0168  0.4757
  281MOL0     C37862   4.820   7.630   1.149  0.9679 -0.0144 -0.3717
  281MOL0     C37863   4.862   7.762   1.101 -0.0696 -0.5397  0.5341
  281MOL0     C37864   4.899   7.876   1.059 -0.0056  0.2079 -0.0959
  281MOL0     C37865   5.323   7.629   1.312 -0.2505 -0.0713  0.0977
  281MOL0     C37866   5.459   7.598   1.274  0.4592 -0.4840 -0.6476
  281MOL0     C37867   5.469   7.520   1.147 -0.6216 -0.5085 -0.7868
  281MOL0     H37868   5.916   7.797   1.179  1.7621 -1.3853 -1.5417
  281MOL0     H37869   6.130   7.733   1.098 -2.0939  4.0890  1.4666
  281MOL0     H37870   6.294   7.504   1.025  0.9399 -2.1856  0.1930
  281MOL0     H37871   6.352   7.673   1.053  0.6811 -0.9527 -1.5819
  281MOL0     H37872   6.562   7.602   1.142 -0.3188  1.2195 -0.0241
  281MOL0     H37873   6.560   7.556   0.981 -1.9434 -2.0820 -0.4731
  281MOL0     H37874   6.518   7.309   1.024  2.7409  0.9020 -1.0306
  281MOL0     H37875   6.469   7.366   1.193  1.0310 -0.4444  1.0130
  281MOL0     H37876   6.711   7.433   1.204  1.7860 -0.1025  0.2116
  281MOL0     H37877   6.653   7.270   1.230 -0.5794  0.5081  0.2890
  281MOL0     H37878   6.738   7.183   1.019  2.3795 -0.9630  0.5766
  281MOL0     H37879   6.770   7.351   0.957 -1.1065 -2.0742 -1.3438
  281MOL0     H37880   6.937   7.377   1.129  0.9619  0.6139 -2.7053
  281MOL0     H37881   6.926   7.210   1.193 -2.2882 -1.6221 -1.3883
  281MOL0     H37882   7.118   7.265   1.032 -0.2138  1.9301 -0.6724
  281MOL0     H37883   7.006   7.271   0.901  2.1780 -1.8023 -0.3766
  281MOL0     H37884   7.017   7.030   1.083 -3.8501  0.6249 -0.2675
  281MOL0     H37885   6.957   7.043   0.924 -1.6871  3.5794  1.0742
  281MOL0     H37886   7.294   7.100   1.101  0.7517 -1.4653  0.5909
  281MOL0     H37887   7.542   7.048   1.034  0.3100 -0.7318  0.8975
  281MOL0     H37888   7.548   6.918   0.909  0.5300  0.2057 -1.3369
  281MOL0     H37889   7.579   7.091   0.724  2.2503 -0.8030 -0.9326
  281MOL0     H37890   7.551   7.210   0.845 -0.0356 -0.7214  4.3190
  281MOL0     H37891   7.776   7.010   0.880  2.6125  0.0155 -2.0721
  281MOL0     H37892   7.781   7.175   0.941 -2.0839  0.7309  0.6062
  281MOL0     H37893   7.850   7.262   0.745  0.9465 -0.4331 -2.3466
  281MOL0     H37894   7.778   7.129   0.645  0.4707 -0.6367  0.4889
  281MOL0     H37895   8.185   6.960   0.767 -0.0190  1.1636  0.8844
  281MOL0     H37896   8.381   7.002   0.638  1.3579  0.0704 -3.3466
  281MOL0     H37897   8.532   7.061   0.157  1.5723  0.5851 -1.6377
  281MOL0     H37898   8.748   7.139   0.043 -1.0895 -0.3455  0.2191
  281MOL0     H37899   9.040   7.044   0.251  1.5381  0.0103 -0.5456
  281MOL0     H37900   9.048   7.040   0.076 -1.6929  1.8132 -2.1456
  281MOL0     H37901   9.189   7.229   0.069 -0.2299 -0.9314 -0.5097
  281MOL0     H37902   9.197   7.248   0.251 -1.4703  0.4188 -0.4690
  281MOL0     H37903   9.311   7.028   0.273 -0.7634  0.8558 -0.0412
  281MOL0     H37904   9.287   7.000   0.099  2.2127  1.9675 -1.5926
  281MOL0     H37905   9.515   7.054   0.132  1.5770  0.4915  1.4511
  281MOL0     H37906   9.475   7.186   0.253 -0.4484  1.3370 -0.0137
  281MOL0     H37907   9.391   7.336   0.094 -0.1778  1.3491 -0.7162
  281MOL0     H37908   9.416   7.222  -0.037 -0.6062 -2.8982  1.0846
  281MOL0     H37909   9.571   7.384  -0.057 -0.7478 -0.4887 -0.7932
  281MOL0     H37910   9.636   7.375   0.117  2.0052 -0.3889 -1.7875
  281MOL0     H37911   9.651   7.153  -0.098 -1.9802 -0.6659  2.2870
  281MOL0     H37912   9.702   7.148   0.067 -1.1895 -2.9305 -1.2000
  281MOL0     H37913   9.892   7.173  -0.104 -3.3040 -0.9598 -2.7712
  281MOL0     H37914   9.835   7.336  -0.134  0.0477 -1.7336 -1.1038
  281MOL0     H37915   8.911   7.259   0.416 -0.5538  0.4288  0.9080
  281MOL0     H37916   8.693   7.190   0.522 -1.9812  0.2445 -0.8485
  281MOL0     H37917   8.146   7.290   0.397 -2.7588 -0.6707 -1.0975
  281MOL0     H37918   7.967   7.272   0.566 -2.6557 -3.6151  0.8315
  281MOL0     H37919   6.219   7.480   1.424  2.1964  1.3531 -2.1453
  281MOL0     H37920   5.991   7.557   1.526 -1.9145  0.2470 -0.5837
  281MOL0     H37921   5.613   7.762   1.530 -0.2177 -1.7144  1.5501
  281MOL0     H37922   5.368   7.851   1.566 -1.5807 -1.2163  0.3732
  281MOL0     H37923   5.081   7.753   1.248 -5.3457 -2.3121 -1.6923
  281MOL0     H37924   4.982   7.832   1.368 -0.5499 -0.5335  0.6918
  281MOL0     H37925   4.958   7.597   1.475  2.3360 -1.4250 -0.4505
  281MOL0     H37926   5.025   7.533   1.333 -0.8155 -0.1812  0.1960
  281MOL0     H37927   4.771   7.685   1.366  2.5998  1.4880  1.8499
  281MOL0     H37928   4.788   7.519   1.329 -1.0030  0.4049  0.4436
  281MOL0     H37929   4.879   7.553   1.098  1.2437  1.5140 -2.5026
  281MOL0     H37930   4.716   7.614   1.121 -0.5436  3.3260  2.5817
  281MOL0     H37931   4.916   7.964   1.000  1.7133 -1.1953 -1.8559
  281MOL0     H37932   5.240   7.594   1.251 -1.9322  0.6523  1.8704
  281MOL0     H37933   5.511   7.589   1.073  0.3431 -0.1230  0.1069
  281MOL0     H37934   5.529   7.431   1.165 -2.0806 -1.7609 -1.8175
  281MOL0     H37935   5.375   7.480   1.108 -1.3438 -1.0430  1.3485
  282MOL0     O37936   6.388   0.040   0.759 -0.1065  0.4055  0.3402
  282MOL0     C37937   6.325   0.076   0.857 -0.0840 -0.2306  0.6599
  282MOL0     O37938   6.384   0.119   0.975  0.0414  1.5403 -0.3720
  282MOL0     C37939   6.512   0.171   0.963 -0.1436 -0.2770 -0.0195
  282MOL0     C37940   6.537   0.308   0.946  0.3358  0.4172 -0.3707
  282MOL0     C37941   6.664   0.360   0.949 -0.5545 -0.4258  0.3409
  282MOL0     C37942   6.774   0.274   0.957  0.2174  0.5675  0.6136
  282MOL0     O37943   6.903   0.314   0.921 -0.0857 -0.6225  0.4166
  282MOL0     C37944   6.950   0.282   0.794 -0.4824  0.4992  0.1149
  282MOL0     C37945   7.106   0.257   0.793  0.1408 -0.1850  0.2772
  282MOL0     C37946   7.153   0.225   0.652  0.8369 -0.4658  0.0484
  282MOL0     C37947   7.299   0.185   0.677 -0.2240  0.9653  0.1957
  282MOL0     C37948   7.389   0.168   0.557  0.4882  0.1236  0.3010
  282MOL0     C37949   7.545   0.169   0.579 -0.0067 -0.1202  0.0101
  282MOL0     C37950   7.638   0.197   0.465 -0.2723 -0.2355  1.0608
  282MOL0     C37951   7.769   0.120   0.484 -0.6797 -0.0104 -0.0892
  282MOL0     N37952   7.848   0.124   0.360 -0.2616  0.1853 -0.7402
  282MOL0     C37953   7.856   0.019   0.285 -1.0696  0.1953  0.9833
  282MOL0     C37954   7.956   0.041   0.194 -0.1098 -0.5085 -0.2846
  282MOL0     C37955   7.997  -0.063   0.090  0.0559 -0.0322  0.6140
  282MOL0     C37956   8.145  -0.042   0.054 -0.2302  0.0276  0.0650
  282MOL0     C37957   8.173   0.093  -0.021  0.2150  1.2317  0.4285
  282MOL0     C37958   8.299   0.094  -0.108  0.1122 -0.6640  0.1278
  282MOL0     O37959   8.414   0.055  -0.031 -0.3859  0.3535 -0.1694
  282MOL0     C37960   8.540   0.096  -0.079 -0.0664 -0.2140 -0.0017
  282MOL0     C37961   8.579   0.098  -0.212 -0.8737  0.7594 -0.3967
  282MOL0     C37962   8.709   0.137  -0.240 -0.3606  0.2253  0.7919
  282MOL0     C37963   8.801   0.173  -0.149  0.6270  0.7123  0.1717
  282MOL0     C37964   8.934   0.223  -0.186 -0.2101 -0.0585  0.4190
  282MOL0     O37965   9.016   0.287  -0.094 -0.2901  1.0061  0.2417
  282MOL0     C37966   9.136   0.326  -0.139 -0.7927 -0.0496 -0.3092
  282MOL0     C37967   9.151   0.442  -0.218  0.5323  0.4904  0.3035
  282MOL0     C37968   9.277   0.480  -0.253 -0.4684 -0.6051  0.9197
  282MOL0     C37969   9.389   0.404  -0.229  0.7045  0.7158  0.6825
  282MOL0     O37970   9.508   0.441  -0.282 -0.0199 -0.5647  0.1415
  282MOL0     C37971   9.565   0.567  -0.239  0.5831 -0.2150  0.4721
  282MOL0     C37972   9.714   0.548  -0.234 -0.9375 -0.0353 -0.5209
  282MOL0     C37973   9.790   0.489  -0.358  0.1668 -0.3150 -0.1667
  282MOL0     C37974   9.934   0.450  -0.328 -0.0001 -0.4031  0.1591
  282MOL0     C37975   9.998   0.371  -0.441  0.4105 -0.6177 -0.2361
  282MOL0     C37976  10.141   0.337  -0.404 -0.2733  0.4007 -1.0648
  282MOL0     C37977  10.202   0.253  -0.509  1.0340  0.8517  0.6133
  282MOL0     C37978  10.332   0.183  -0.471  0.9054 -0.0350  0.8021
  282MOL0    Cl37979  10.413   0.120  -0.627  0.5728 -0.1385 -0.2103
  282MOL0     C37980   9.371   0.275  -0.169  0.1120 -0.2360 -0.2484
  282MOL0     C37981   9.250   0.244  -0.107 -0.5321 -0.3343 -0.8950
  282MOL0     O37982   8.962   0.203  -0.301 -0.0501 -0.7731  0.0519
  282MOL0     C37983   8.770   0.166  -0.016 -0.2836 -0.6227  0.4765
  282MOL0     C37984   8.633   0.130   0.019 -0.3208 -0.7546 -0.0138
  282MOL0     N37985   8.008   0.163   0.233 -0.5019 -0.0250  0.6101
  282MOL0     N37986   7.949   0.209   0.328  0.0219  0.1967  0.1629
  282MOL0     C37987   6.752   0.140   0.977  0.4408  0.2596  0.3691
  282MOL0     C37988   6.620   0.096   0.980  0.3233  0.1530 -0.9056
  282MOL0     C37989   6.176   0.065   0.858  0.1252  0.1037  0.3174
  282MOL0     C37990   6.105   0.154   0.942 -0.0553  0.3948  0.0993
  282MOL0     C37991   5.966   0.142   0.938  0.2517  0.3834  0.2007
  282MOL0     C37992   5.908   0.057   0.843 -0.4329 -0.5712 -0.4067
  282MOL0     O37993   5.774   0.039   0.829  0.0385  0.4963  0.2845
  282MOL0     C37994   5.709   0.142   0.753  1.0402 -0.2703  1.2073
  282MOL0     C37995   5.567   0.097   0.716  0.3406  0.4090 -0.5595
  282MOL0     C37996   5.467   0.217   0.703  1.0090 -0.5465  0.3191
  282MOL0     C37997   5.417   0.271   0.835  0.0519  0.7607  0.1015
  282MOL0     C37998   5.364   0.402   0.815  0.6593  0.1396  0.0108
  282MOL0     C37999   5.319   0.509   0.784 -0.3245 -1.0465 -1.0864
  282MOL0     C38000   5.974  -0.035   0.775 -0.0568 -0.0189  0.6793
  282MOL0     C38001   6.109  -0.032   0.775 -0.1035 -0.1703  0.2031
  282MOL0     C38002   6.183  -0.132   0.687  0.0311 -1.4243 -0.4399
  282MOL0     H38003   6.450   0.372   0.934  0.1901  0.6667  1.6180
  282MOL0     H38004   6.691   0.465   0.935  1.6318 -1.0079 -0.1535
  282MOL0     H38005   6.896   0.199   0.748 -0.7814  2.1657 -2.7809
  282MOL0     H38006   6.942   0.360   0.717  1.5044  0.0898 -0.5587
  282MOL0     H38007   7.127   0.164   0.846 -1.4258  0.4089  2.0420
  282MOL0     H38008   7.170   0.335   0.833  1.5907 -1.2937  0.1909
  282MOL0     H38009   7.139   0.313   0.589  1.6614  0.8538  1.6323
  282MOL0     H38010   7.102   0.138   0.609 -0.2902  0.3507 -0.2945
  282MOL0     H38011   7.339   0.267   0.738  0.8352  2.0329 -1.8625
  282MOL0     H38012   7.305   0.090   0.731 -0.0642  1.3989  0.9659
  282MOL0     H38013   7.355   0.072   0.518 -3.5215  1.3026  0.4597
  282MOL0     H38014   7.374   0.253   0.490  0.9153  1.4968  1.8837
  282MOL0     H38015   7.561   0.241   0.660 -4.8678 -0.1636  1.2796
  282MOL0     H38016   7.566   0.071   0.622  0.9275 -0.0603 -0.2722
  282MOL0     H38017   7.661   0.304   0.471  2.2214 -0.5397 -1.3409
  282MOL0     H38018   7.592   0.173   0.369  0.9109  0.0470  0.4152
  282MOL0     H38019   7.833   0.158   0.564  0.2692 -0.3835 -0.6660
  282MOL0     H38020   7.755   0.016   0.515 -1.5718  0.2849  0.5560
  282MOL0     H38021   7.809  -0.076   0.307 -1.0055  0.3394  1.7682
  282MOL0     H38022   7.980  -0.163   0.132  0.2041  0.2282  1.3065
  282MOL0     H38023   7.949  -0.065  -0.008  1.1139  0.0815  0.0902
  282MOL0     H38024   8.206  -0.053   0.145  2.5204  0.7430 -1.5659
  282MOL0     H38025   8.183  -0.119  -0.013  0.0678  1.6225 -1.7168
  282MOL0     H38026   8.188   0.174   0.050  1.0913  0.5823  1.0128
  282MOL0     H38027   8.088   0.114  -0.087  0.6080  0.9887 -0.1629
  282MOL0     H38028   8.302   0.195  -0.150 -0.9659 -0.0645  1.4198
  282MOL0     H38029   8.288   0.026  -0.193 -0.4479 -1.2963  0.6962
  282MOL0     H38030   8.510   0.070  -0.292 -0.9662  0.2006 -0.1269
  282MOL0     H38031   8.744   0.132  -0.343 -0.2146 -2.7778  0.9029
  282MOL0     H38032   9.065   0.496  -0.256  0.9150  2.3622  1.9565
  282MOL0     H38033   9.274   0.570  -0.314 -1.6030 -1.9477 -1.1312
  282MOL0     H38034   9.538   0.651  -0.303 -0.1224  0.5577  1.7498
  282MOL0     H38035   9.525   0.585  -0.139 -1.3746  3.0337 -0.7501
  282MOL0     H38036   9.758   0.647  -0.215  1.8492 -1.1532 -0.5763
  282MOL0     H38037   9.739   0.487  -0.147  0.7885 -0.1870 -1.0840
  282MOL0     H38038   9.730   0.402  -0.386 -0.8512  0.1877  0.3666
  282MOL0     H38039   9.787   0.555  -0.445 -1.5323 -2.2362 -1.6563
  282MOL0     H38040   9.932   0.392  -0.236  0.5528  2.8387  2.3936
  282MOL0     H38041   9.995   0.538  -0.305 -1.6001  0.4067  1.5462
  282MOL0     H38042  10.003   0.428  -0.534  0.4362 -0.1104  0.0679
  282MOL0     H38043   9.944   0.277  -0.457  0.3429 -0.6092 -0.0648
  282MOL0     H38044  10.209   0.419  -0.382 -0.7351  0.6317 -0.4649
  282MOL0     H38045  10.133   0.284  -0.309 -0.9640  0.0360 -1.3155
  282MOL0     H38046  10.212   0.323  -0.593 -1.2278  1.4591  0.7884
  282MOL0     H38047  10.131   0.174  -0.537  1.6285 -0.3780  2.3851
  282MOL0     H38048  10.393   0.262  -0.425  1.5198 -0.4350  0.6810
  282MOL0     H38049  10.314   0.105  -0.397  0.9122  0.8030  1.7133
  282MOL0     H38050   9.442   0.193  -0.162 -0.5048 -0.6516  1.5015
  282MOL0     H38051   9.230   0.150  -0.056  1.1685  0.7889  2.0543
  282MOL0     H38052   8.849   0.191   0.055  1.6125 -0.6258 -1.5031
  282MOL0     H38053   8.601   0.125   0.122  3.1952 -1.7261  1.1811
  282MOL0     H38054   6.832   0.066   0.974  0.0882 -0.2079  1.8256
  282MOL0     H38055   6.602  -0.010   0.997  0.6817  0.2834  0.4631
  282MOL0     H38056   6.148   0.235   1.000  0.4203  0.8312 -0.8428
  282MOL0     H38057   5.913   0.210   1.004 -1.5334 -1.9903  1.3710
  282MOL0     H38058   5.765   0.171   0.664  0.5611 -0.5000  0.8304
  282MOL0     H38059   5.720   0.234   0.812 -1.7923  0.5229  0.6614
  282MOL0     H38060   5.525   0.026   0.788  3.0398 -0.9157 -0.1621
  282MOL0     H38061   5.565   0.041   0.622  0.0495  2.5078 -1.8571
  282MOL0     H38062   5.379   0.190   0.644  1.3751 -1.0887  0.0139
  282MOL0     H38063   5.517   0.298   0.649 -1.4031  0.3698 -0.6712
  282MOL0     H38064   5.347   0.201   0.881  1.0216  0.1947  0.7486
  282MOL0     H38065   5.501   0.286   0.904 -0.6415  0.6448  0.9924
  282MOL0     H38066   5.281   0.607   0.763  1.4875  0.5869  2.4483
  282MOL0     H38067   5.919  -0.100   0.707  0.6212  0.0802  0.0262
  282MOL0     H38068   6.281  -0.168   0.720  1.8046  0.6666 -2.9958
  282MOL0     H38069   6.120  -0.216   0.655  0.0350 -1.3812 -0.5610
  282MOL0     H38070   6.195  -0.077   0.593 -1.7230 -2.0072 -1.0444
  283MOL0     O38071   5.415   6.273   1.970  0.3963 -0.2256  0.2901
  283MOL0     C38072   5.322   6.359   1.965 -0.8774  0.2592  0.2194
  283MOL0     O38073   5.311   6.471   2.043 -0.2707  0.5609 -0.3968
  283MOL0     C38074   5.411   6.495   2.138 -1.3113 -0.5000 -0.3868
  283MOL0     C38075   5.369   6.506   2.266 -0.0687  0.2409 -0.8045
  283MOL0     C38076   5.462   6.555   2.367  0.0654  0.2557 -0.5181
  283MOL0     C38077   5.602   6.577   2.331 -0.9971 -0.3774 -0.3516
  283MOL0     O38078   5.694   6.590   2.440  0.2838 -0.2181  0.6252
  283MOL0     C38079   5.827   6.634   2.411 -0.5382 -0.3864 -0.3288
  283MOL0     C38080   5.919   6.516   2.394 -0.0371 -0.2221 -0.0278
  283MOL0     C38081   6.064   6.564   2.388 -0.8538 -0.4403 -0.0586
  283MOL0     C38082   6.116   6.613   2.527  0.3846 -0.3067 -0.4853
  283MOL0     C38083   6.253   6.676   2.533 -0.4572 -0.5032 -0.1524
  283MOL0     C38084   6.364   6.585   2.486  0.2031  0.5591 -0.2201
  283MOL0     C38085   6.503   6.634   2.546 -0.2028 -0.4551 -0.0658
  283MOL0     C38086   6.615   6.546   2.488 -0.2688 -0.3740  0.1894
  283MOL0     N38087   6.748   6.577   2.552 -0.0359  0.1080  0.2218
  283MOL0     C38088   6.800   6.525   2.671  0.0541 -0.1295  0.2118
  283MOL0     C38089   6.916   6.589   2.676 -0.0075 -0.1353  0.9957
  283MOL0     C38090   7.030   6.598   2.779 -0.0179  0.5344 -0.0992
  283MOL0     C38091   7.067   6.742   2.818 -0.1322 -0.4993  0.1903
  283MOL0     C38092   7.146   6.749   2.950 -0.1608  0.5481  0.6649
  283MOL0     C38093   7.205   6.887   2.972 -0.7175 -0.4761  0.1076
  283MOL0     O38094   7.329   6.918   2.899 -0.0770 -0.6785  0.1080
  283MOL0     C38095   7.456   6.890   2.954 -0.0816  0.2683 -0.4978
  283MOL0     C38096   7.561   6.929   2.865  0.7744 -1.0094 -0.2659
  283MOL0     C38097   7.694   6.907   2.903 -0.6345  0.7114  0.9384
  283MOL0     C38098   7.731   6.833   3.014 -0.6194  0.4896  0.1614
  283MOL0     C38099   7.868   6.805   3.054  0.1289  0.7350 -0.0857
  283MOL0     O38100   7.968   6.821   2.959  0.0154  0.0729  0.5936
  283MOL0     C38101   8.081   6.749   2.967 -0.7873 -0.1962  0.5664
  283MOL0     C38102   8.075   6.621   2.908 -0.4126  0.2223 -0.1474
  283MOL0     C38103   8.197   6.550   2.891 -0.1009 -0.1321 -0.3312
  283MOL0     C38104   8.320   6.607   2.939  0.0837  0.5019 -0.4823
  283MOL0     O38105   8.436   6.528   2.931 -0.0695 -0.2005 -0.3972
  283MOL0     C38106   8.548   6.545   3.020  1.2533  0.0108 -0.5376
  283MOL0     C38107   8.613   6.417   3.034 -0.1640 -0.7092  0.2955
  283MOL0     C38108   8.704   6.394   2.911 -0.2427 -0.3915  0.0873
  283MOL0     C38109   8.806   6.285   2.949  0.1122 -0.7198 -0.4452
  283MOL0     C38110   8.918   6.257   2.846  0.6968 -0.2257 -0.0524
  283MOL0     C38111   9.046   6.199   2.890  0.1997  0.1469  0.0864
  283MOL0     C38112   9.104   6.082   2.810 -0.5401  1.4870 -0.1350
  283MOL0     C38113   9.050   5.944   2.852 -0.7745 -1.2082  0.7599
  283MOL0    Cl38114   8.873   5.935   2.828 -0.1338  0.3144 -0.0075
  283MOL0     C38115   8.317   6.727   3.008 -0.1664 -0.4861 -0.2172
  283MOL0     C38116   8.197   6.799   3.022 -0.0372  1.2663 -0.1952
  283MOL0     O38117   7.886   6.750   3.159 -0.3512 -0.3213 -0.3983
  283MOL0     C38118   7.621   6.787   3.092 -0.1163  0.3517  0.7386
  283MOL0     C38119   7.491   6.826   3.070  0.7935 -0.5849 -0.8732
  283MOL0     N38120   6.936   6.672   2.565 -0.1149 -0.3670 -0.3678
  283MOL0     N38121   6.837   6.666   2.484 -0.4683  0.6313  0.1322
  283MOL0     C38122   5.629   6.577   2.193  0.1722 -0.9101 -0.9552
  283MOL0     C38123   5.537   6.548   2.095  0.6494 -0.0952 -0.3154
  283MOL0     C38124   5.218   6.348   1.862 -0.5503  0.5773  0.5261
  283MOL0     C38125   5.148   6.460   1.813 -0.6147 -0.4240  0.3826
  283MOL0     C38126   5.048   6.454   1.704 -1.5090  0.7721 -0.4905
  283MOL0     C38127   5.038   6.330   1.640 -0.2161 -0.2408 -0.4061
  283MOL0     O38128   4.949   6.305   1.538 -0.1166 -0.5326 -0.3039
  283MOL0     C38129   4.870   6.407   1.487 -1.0000  1.1139  0.8325
  283MOL0     C38130   4.927   6.471   1.364  0.2140 -0.8942  0.6150
  283MOL0     C38131   4.973   6.372   1.257 -0.7449  0.1617 -0.8886
  283MOL0     C38132   4.866   6.264   1.224  0.1718  0.0812 -0.0101
  283MOL0     C38133   4.896   6.205   1.094  0.0942  0.5327  0.5404
  283MOL0     C38134   4.915   6.143   0.991  0.0307  0.1782  0.4849
  283MOL0     C38135   5.097   6.222   1.701  0.2323 -0.3841 -0.1037
  283MOL0     C38136   5.196   6.227   1.800 -0.5719 -0.3512  0.1188
  283MOL0     C38137   5.260   6.090   1.832 -0.2399  0.0469 -0.0884
  283MOL0     H38138   5.265   6.489   2.290 -0.2966  2.7102  0.3286
  283MOL0     H38139   5.424   6.544   2.468 -1.3650  2.5118 -0.7305
  283MOL0     H38140   5.834   6.688   2.317  2.3885  1.3457  0.7455
  283MOL0     H38141   5.850   6.708   2.489  1.4143 -0.1172 -1.1257
  283MOL0     H38142   5.888   6.469   2.300 -0.3971  1.9539 -1.0596
  283MOL0     H38143   5.906   6.455   2.484 -1.2617 -1.8882 -1.2578
  283MOL0     H38144   6.067   6.643   2.312  2.3015 -1.4374 -1.1532
  283MOL0     H38145   6.127   6.477   2.366  0.7587  1.4778 -4.1801
  283MOL0     H38146   6.058   6.692   2.574  0.8721 -0.5003  0.4784
  283MOL0     H38147   6.114   6.528   2.596 -1.8884  1.1050  1.3283
  283MOL0     H38148   6.250   6.774   2.485 -2.2248  1.5147  3.6289
  283MOL0     H38149   6.274   6.714   2.634  2.7155 -1.4690 -0.3510
  283MOL0     H38150   6.340   6.487   2.529 -0.3042  0.9303  0.3479
  283MOL0     H38151   6.365   6.581   2.376 -2.1450  1.2461 -0.3166
  283MOL0     H38152   6.505   6.630   2.655  1.5002  0.6181 -0.0205
  283MOL0     H38153   6.521   6.739   2.524  2.1353 -0.2710  2.1732
  283MOL0     H38154   6.592   6.440   2.475 -0.2099 -0.3448 -0.1477
  283MOL0     H38155   6.636   6.585   2.388 -1.3140  0.5592  0.3196
  283MOL0     H38156   6.760   6.448   2.736 -1.6379  0.8214  0.3473
  283MOL0     H38157   6.991   6.535   2.860  1.2852 -0.5804 -0.2985
  283MOL0     H38158   7.127   6.564   2.741  0.5995  2.6359 -0.5042
  283MOL0     H38159   7.131   6.771   2.734 -2.2389 -0.2117 -1.4322
  283MOL0     H38160   6.981   6.809   2.821  0.3077  0.0281  2.0741
  283MOL0     H38161   7.223   6.672   2.948  0.6917  1.3583 -2.6021
  283MOL0     H38162   7.077   6.737   3.035 -0.4468 -0.4347  0.2990
  283MOL0     H38163   7.218   6.895   3.081  0.0115  3.5449 -0.1143
  283MOL0     H38164   7.136   6.966   2.943  0.3682 -0.1229 -1.7159
  283MOL0     H38165   7.541   6.972   2.768  0.9846 -0.8908 -0.2575
  283MOL0     H38166   7.774   6.945   2.840 -0.3292 -1.5131 -0.1050
  283MOL0     H38167   7.985   6.570   2.878 -1.2163  1.4102  0.1882
  283MOL0     H38168   8.188   6.450   2.851  2.5469 -0.2827 -0.7583
  283MOL0     H38169   8.620   6.619   2.982  1.6258  0.8916  1.7691
  283MOL0     H38170   8.510   6.571   3.119  0.2129  0.0773 -0.9449
  283MOL0     H38171   8.669   6.421   3.128 -0.2903 -2.0908  0.4502
  283MOL0     H38172   8.543   6.338   3.062 -0.8941  0.3099  1.4301
  283MOL0     H38173   8.652   6.361   2.821 -0.4782 -0.8627  0.3937
  283MOL0     H38174   8.757   6.486   2.885 -1.3614  0.1943 -0.1646
  283MOL0     H38175   8.770   6.185   2.976  0.5389 -0.3562  1.6329
  283MOL0     H38176   8.856   6.325   3.037 -1.9422  0.0733  0.4422
  283MOL0     H38177   8.944   6.350   2.795  3.2676 -1.3204 -0.9083
  283MOL0     H38178   8.873   6.200   2.765  2.1816 -1.1535 -0.2688
  283MOL0     H38179   9.108   6.288   2.881  1.2609 -0.4742  1.0671
  283MOL0     H38180   9.042   6.176   2.997  0.5860  1.6408  0.4480
  283MOL0     H38181   9.213   6.087   2.819 -0.5363  3.0108 -0.7252
  283MOL0     H38182   9.092   6.088   2.701 -0.1313 -2.0326 -0.5012
  283MOL0     H38183   9.102   5.866   2.795  0.5392 -0.4871  0.9074
  283MOL0     H38184   9.071   5.924   2.958  0.3859 -0.8293  0.6148
  283MOL0     H38185   8.411   6.768   3.043  0.1331 -1.0784 -0.3018
  283MOL0     H38186   8.182   6.897   3.068 -1.7297  0.2512  1.5556
  283MOL0     H38187   7.644   6.725   3.178  0.8921 -0.8765 -0.3606
  283MOL0     H38188   7.420   6.791   3.145 -1.3636  0.3987 -2.3801
  283MOL0     H38189   5.728   6.600   2.155  0.8171 -3.0304 -0.7135
  283MOL0     H38190   5.558   6.556   1.989  0.1493  0.1217 -0.4004
  283MOL0     H38191   5.176   6.562   1.836  0.4720 -1.0390  1.9662
  283MOL0     H38192   5.002   6.548   1.678 -0.9046  1.0780 -0.4646
  283MOL0     H38193   4.857   6.481   1.567 -3.4023 -0.3981  1.9389
  283MOL0     H38194   4.771   6.367   1.461 -0.6262  1.3985 -1.2268
  283MOL0     H38195   5.002   6.543   1.398  0.1376 -0.8908  0.7802
  283MOL0     H38196   4.844   6.524   1.315 -0.9296 -0.6920  2.6638
  283MOL0     H38197   5.062   6.316   1.288 -2.4845 -1.3409  1.7917
  283MOL0     H38198   4.988   6.426   1.163 -3.8124  0.7999 -1.0830
  283MOL0     H38199   4.870   6.187   1.302  0.0032 -0.7675 -0.8205
  283MOL0     H38200   4.765   6.306   1.227  0.2731  0.2698  1.8508
  283MOL0     H38201   4.942   6.082   0.907  1.9592  0.6132  0.7331
  283MOL0     H38202   5.068   6.126   1.660 -0.3689  0.2769 -1.2641
  283MOL0     H38203   5.369   6.099   1.833 -0.3059  0.9997 -0.4583
  283MOL0     H38204   5.244   6.064   1.937 -1.8559  2.7408  0.4050
  283MOL0     H38205   5.221   6.008   1.771  0.0379  1.1150 -1.7573
  284MOL0     O38206   8.340   7.871   6.635  0.0001  0.1109  0.2589
  284MOL0     C38207   8.410   7.783   6.679 -0.3399  0.5182  0.7128
  284MOL0     O38208   8.520   7.729   6.618 -0.4463 -0.1630  1.0515
  284MOL0     C38209   8.539   7.768   6.488 -0.6503 -1.2056  1.2306
  284MOL0     C38210   8.444   7.739   6.391 -0.4495  0.1510  0.5712
  284MOL0     C38211   8.457   7.769   6.253 -0.0974  0.0303  0.1507
  284MOL0     C38212   8.570   7.838   6.215 -0.0332 -0.4590 -0.5042
  284MOL0     O38213   8.579   7.858   6.077  0.1518 -0.0686  0.4158
  284MOL0     C38214   8.601   8.000   6.048 -0.5097  0.4542  0.2472
  284MOL0     C38215   8.612   8.029   5.894  0.5927  0.3917 -0.0389
  284MOL0     C38216   8.724   7.944   5.829  0.3401 -0.0707 -0.3264
  284MOL0     C38217   8.782   8.023   5.716 -0.5891  0.3598  0.3350
  284MOL0     C38218   8.908   7.958   5.652 -0.5277 -0.2645  0.1004
  284MOL0     C38219   9.027   7.930   5.751  0.4198  0.3199  0.3791
  284MOL0     C38220   9.139   7.869   5.674 -0.5807 -0.1834  0.2058
  284MOL0     C38221   9.246   7.824   5.767  0.1686  0.5362 -0.2535
  284MOL0     N38222   9.348   7.739   5.702 -0.4409  0.2767 -0.0536
  284MOL0     C38223   9.337   7.635   5.606 -0.5524  1.0860 -0.3893
  284MOL0     C38224   9.475   7.606   5.585  0.6435  0.1448  0.5236
  284MOL0     C38225   9.539   7.494   5.504 -1.4458 -0.5721  1.4504
  284MOL0     C38226   9.654   7.554   5.404  0.5383  0.3079 -0.5488
  284MOL0     C38227   9.692   7.465   5.293  0.7307  0.0740  0.0006
  284MOL0     C38228   9.788   7.357   5.348 -1.2176  0.0660 -0.6125
  284MOL0     O38229   9.791   7.249   5.253  0.0663  0.0894 -0.0270
  284MOL0     C38230   9.920   7.221   5.212  0.2987 -0.2588  0.0977
  284MOL0     C38231   9.969   7.089   5.214  0.5786 -0.9794 -0.5212
  284MOL0     C38232  10.101   7.056   5.165  0.1629  0.5556  0.6709
  284MOL0     C38233  10.180   7.153   5.101 -0.5673 -0.3215  0.7490
  284MOL0     C38234  10.319   7.128   5.045 -0.3094 -0.8601 -0.2680
  284MOL0     O38235  10.383   7.018   5.104  0.7319 -1.1324 -0.6099
  284MOL0     C38236  10.509   6.986   5.056 -0.2574 -0.2187  0.4230
  284MOL0     C38237  10.625   7.000   5.140  0.4986 -0.3364  0.4070
  284MOL0     C38238  10.751   6.957   5.091 -0.1234  0.9769  0.1666
  284MOL0     C38239  10.761   6.899   4.966 -0.5219 -0.0967  0.6321
  284MOL0     O38240  10.882   6.849   4.907 -0.0509  0.9417 -0.2900
  284MOL0     C38241  10.987   6.816   5.003 -0.5817  0.0584  0.5635
  284MOL0     C38242  11.094   6.733   4.930  0.3443 -0.6215  0.4551
  284MOL0     C38243  11.190   6.818   4.847 -1.0920 -0.2087  0.7573
  284MOL0     C38244  11.333   6.766   4.855  0.6958 -0.0296  0.5086
  284MOL0     C38245  11.412   6.816   4.974  0.3244 -0.8712 -0.1768
  284MOL0     C38246  11.550   6.761   4.953  0.4737 -0.1472  0.4034
  284MOL0     C38247  11.638   6.816   5.063  0.5450  0.3923 -0.5235
  284MOL0     C38248  11.770   6.768   5.058 -0.3381  0.7626 -0.1004
  284MOL0    Cl38249  11.762   6.589   5.066 -0.1701 -0.3984 -0.2270
  284MOL0     C38250  10.653   6.891   4.886 -0.2803 -0.0497  0.3844
  284MOL0     C38251  10.523   6.930   4.930 -0.1026 -0.1060  0.5113
  284MOL0     O38252  10.372   7.202   4.964  0.4197 -0.0906 -0.2371
  284MOL0     C38253  10.125   7.285   5.095  0.8149  0.3869 -0.5428
  284MOL0     C38254   9.997   7.320   5.151 -0.5222 -0.1864  0.1156
  284MOL0     N38255   9.553   7.692   5.661  0.1780  0.2218 -0.3557
  284MOL0     N38256   9.474   7.769   5.727 -0.2240  1.2313  0.5165
  284MOL0     C38257   8.665   7.874   6.306  0.0819 -0.1086 -0.0252
  284MOL0     C38258   8.654   7.829   6.441 -0.7984 -1.4658 -0.2456
  284MOL0     C38259   8.349   7.706   6.791 -0.1165  0.1264  0.3070
  284MOL0     C38260   8.359   7.569   6.790  0.3294 -0.3505  0.0321
  284MOL0     C38261   8.300   7.497   6.892  0.2175 -0.2381 -0.1495
  284MOL0     C38262   8.234   7.559   6.998 -0.1568  0.0282 -0.1423
  284MOL0     O38263   8.184   7.472   7.092  0.6792  0.3539  0.5500
  284MOL0     C38264   8.102   7.520   7.196 -0.1769  0.1555 -0.2613
  284MOL0     C38265   7.989   7.428   7.241 -0.8608  0.2695 -0.5445
  284MOL0     C38266   7.928   7.457   7.376 -0.0726  0.3928 -0.1001
  284MOL0     C38267   7.856   7.597   7.382 -0.6700 -0.1428 -0.3282
  284MOL0     C38268   7.757   7.620   7.277  0.6307 -0.2223 -0.2296
  284MOL0     C38269   7.674   7.658   7.198 -0.2990  0.5651  0.9612
  284MOL0     C38270   8.213   7.696   6.993 -0.2517 -0.9301 -0.3861
  284MOL0     C38271   8.275   7.767   6.894  0.1344 -0.0575  0.1810
  284MOL0     C38272   8.246   7.918   6.890  0.8823 -0.1335  0.1875
  284MOL0     H38273   8.355   7.686   6.423  0.5142 -1.8608  0.0423
  284MOL0     H38274   8.388   7.738   6.174  0.7542  0.9854 -1.0140
  284MOL0     H38275   8.521   8.058   6.095  3.5644  3.6920  4.1889
  284MOL0     H38276   8.695   8.033   6.093 -0.2800  1.0869 -0.6715
  284MOL0     H38277   8.633   8.135   5.879  2.2624  0.4012  1.9620
  284MOL0     H38278   8.516   8.014   5.843  2.4028  0.1604 -3.6878
  284MOL0     H38279   8.679   7.858   5.779 -0.0424  0.9982 -1.8793
  284MOL0     H38280   8.788   7.902   5.908 -0.7713 -1.5646 -0.1859
  284MOL0     H38281   8.706   8.030   5.638 -0.2840  3.7367  0.1998
  284MOL0     H38282   8.818   8.123   5.739  0.8447  0.3868 -1.7507
  284MOL0     H38283   8.866   7.870   5.604  0.1187 -1.5110  1.7467
  284MOL0     H38284   8.943   8.018   5.567 -1.2887  1.0051  0.6586
  284MOL0     H38285   9.063   8.022   5.798  0.2905  1.0333 -0.8952
  284MOL0     H38286   8.991   7.862   5.829  0.8351  1.8237  1.9441
  284MOL0     H38287   9.184   7.936   5.600  3.0570 -1.8917  0.6623
  284MOL0     H38288   9.094   7.787   5.618 -0.3967 -0.0635 -0.1244
  284MOL0     H38289   9.298   7.910   5.811 -2.0059  0.9782  1.6707
  284MOL0     H38290   9.194   7.757   5.836  1.2407 -0.1904 -0.1197
  284MOL0     H38291   9.247   7.588   5.567 -1.8126  2.0256  1.2683
  284MOL0     H38292   9.581   7.433   5.585 -1.1362  2.6610  3.9574
  284MOL0     H38293   9.465   7.429   5.455  0.8825 -2.8795  0.7608
  284MOL0     H38294   9.617   7.647   5.360 -0.4441  1.2799  2.1029
  284MOL0     H38295   9.746   7.592   5.450  1.0673  0.1587 -1.4571
  284MOL0     H38296   9.741   7.520   5.212 -1.4102 -1.0056 -2.1767
  284MOL0     H38297   9.600   7.420   5.254 -0.9710  2.6749  0.7565
  284MOL0     H38298   9.756   7.330   5.449  3.6055  2.8204  2.0146
  284MOL0     H38299   9.891   7.389   5.367 -1.1752 -1.3375  1.9806
  284MOL0     H38300   9.905   7.016   5.261  0.8124 -1.0314 -0.2855
  284MOL0     H38301  10.143   6.957   5.176  1.1011  0.6952 -1.1403
  284MOL0     H38302  10.605   7.037   5.240 -3.2992  0.0828 -0.3725
  284MOL0     H38303  10.832   6.969   5.162  0.6774  0.9747 -0.7242
  284MOL0     H38304  11.040   6.903   5.044  0.1158  0.6229 -1.4352
  284MOL0     H38305  10.946   6.750   5.080  1.4992 -1.6876  0.2491
  284MOL0     H38306  11.149   6.678   5.007  0.3069 -1.3565 -0.0333
  284MOL0     H38307  11.054   6.656   4.864  0.5340 -0.8624  0.6190
  284MOL0     H38308  11.162   6.816   4.741  3.0027 -3.5638 -0.5927
  284MOL0     H38309  11.195   6.923   4.877 -0.9321  0.2767 -0.8818
  284MOL0     H38310  11.376   6.797   4.759 -0.2452 -0.2440  0.0068
  284MOL0     H38311  11.332   6.657   4.850  1.6234  0.0165 -2.1320
  284MOL0     H38312  11.374   6.783   5.071 -1.3521  0.8682 -0.1901
  284MOL0     H38313  11.407   6.925   4.975 -2.2464 -0.9021 -1.6651
  284MOL0     H38314  11.548   6.652   4.945 -1.1086 -0.1348  0.3613
  284MOL0     H38315  11.591   6.790   4.856 -0.5071  1.2846  0.3931
  284MOL0     H38316  11.589   6.783   5.156 -5.4507 -1.2784 -3.7025
  284MOL0     H38317  11.641   6.925   5.063 -0.6202  0.4601  0.6054
  284MOL0     H38318  11.802   6.786   4.955 -0.1990 -1.9179 -0.6110
  284MOL0     H38319  11.836   6.810   5.134 -0.9960 -1.0625  1.5537
  284MOL0     H38320  10.672   6.848   4.788  0.5157 -0.0293  0.5253
  284MOL0     H38321  10.439   6.905   4.866  0.5555 -1.6074  0.1746
  284MOL0     H38322  10.183   7.365   5.049 -1.0379  0.8651 -2.2088
  284MOL0     H38323   9.965   7.423   5.145 -0.4435 -0.1405  0.4369
  284MOL0     H38324   8.744   7.939   6.269 -2.4374  1.3646 -3.4736
  284MOL0     H38325   8.729   7.862   6.513  1.7839 -0.8664 -3.0108
  284MOL0     H38326   8.404   7.519   6.704  0.0559  1.1239 -1.0056
  284MOL0     H38327   8.302   7.388   6.887  0.2970 -0.2701  0.5068
  284MOL0     H38328   8.060   7.619   7.177 -0.6916 -0.3686 -1.9825
  284MOL0     H38329   8.174   7.539   7.277 -1.4370 -2.8003  1.7380
  284MOL0     H38330   8.031   7.327   7.249  0.1771  0.7955  1.4938
  284MOL0     H38331   7.916   7.420   7.161  1.2103 -1.4810 -2.3725
  284MOL0     H38332   8.007   7.447   7.452 -1.2823  0.2589  1.1949
  284MOL0     H38333   7.849   7.385   7.397 -1.7600  2.1096 -0.2094
  284MOL0     H38334   7.821   7.600   7.486  0.8789  0.5437  0.2075
  284MOL0     H38335   7.930   7.677   7.377 -1.1082  0.2741 -0.1940
  284MOL0     H38336   7.601   7.689   7.126 -0.1195 -1.4179 -0.1630
  284MOL0     H38337   8.165   7.758   7.068  1.7160 -0.5032  0.5900
  284MOL0     H38338   8.158   7.945   6.831 -1.3666 -1.9209  2.4640
  284MOL0     H38339   8.214   7.952   6.989 -2.2835 -0.4801 -0.6142
  284MOL0     H38340   8.334   7.975   6.859  2.0350 -0.1714  3.0265
  285MOL0     O38341   8.998  10.744  10.428  0.1706  0.4610 -0.2557
  285MOL0     C38342   8.898  10.765  10.362 -0.8477 -0.4274  0.4249
  285MOL0     O38343   8.902  10.779  10.224 -0.0541  0.0945  0.3922
  285MOL0     C38344   9.028  10.797  10.167  0.2091 -0.1213  1.1206
  285MOL0     C38345   9.113  10.689  10.127  0.6713  0.1205  0.0358
  285MOL0     C38346   9.236  10.712  10.069 -0.4684  0.0665 -0.6849
  285MOL0     C38347   9.280  10.847  10.049 -0.5120  0.4626  0.6499
  285MOL0     O38348   9.402  10.878   9.984  0.5874  0.3861  0.2943
  285MOL0     C38349   9.480  10.762   9.938 -0.2361 -0.3236 -0.0722
  285MOL0     C38350   9.602  10.821   9.866  0.0869 -0.9569  0.2669
  285MOL0     C38351   9.682  10.933   9.934  0.2382  0.1921 -0.2222
  285MOL0     C38352   9.813  10.967   9.849  0.9976  1.0281 -0.1628
  285MOL0     C38353   9.883  11.103   9.903  0.2813  0.1721 -0.4523
  285MOL0     C38354   9.995  11.144   9.813 -1.1251 -0.3058  0.5149
  285MOL0     C38355  10.082  11.254   9.865  0.1683 -0.1063 -0.1120
  285MOL0     C38356  10.191  11.289   9.758  0.1789 -0.2604  0.5012
  285MOL0     N38357  10.304  11.191   9.742 -0.2415  0.6349 -0.4476
  285MOL0     C38358  10.326  11.094   9.646  0.9876  0.3045  0.3557
  285MOL0     C38359  10.432  11.030   9.685 -0.6094 -0.3239  0.4543
  285MOL0     C38360  10.528  10.924   9.635  0.0815  0.3336 -0.4922
  285MOL0     C38361  10.464  10.795   9.681 -0.0288 -0.4841 -0.2361
  285MOL0     C38362  10.339  10.751   9.605 -0.8244 -0.1130  0.2084
  285MOL0     C38363  10.253  10.645   9.676 -1.4069 -0.6409  0.3020
  285MOL0     O38364  10.195  10.544   9.591 -0.0034 -0.6018  0.5893
  285MOL0     C38365  10.064  10.520   9.598  0.3835  0.0743  0.4960
  285MOL0     C38366  10.003  10.486   9.469  0.0206 -0.5048 -0.6823
  285MOL0     C38367   9.873  10.452   9.461  0.3711  0.5447  0.2365
  285MOL0     C38368   9.792  10.440   9.572  0.0845 -0.1998  0.1556
  285MOL0     C38369   9.655  10.382   9.568 -0.3309  0.6060 -0.2226
  285MOL0     O38370   9.612  10.332   9.439  0.1495 -0.8032  0.1256
  285MOL0     C38371   9.481  10.289   9.416 -0.4084 -0.0693  0.4326
  285MOL0     C38372   9.463  10.173   9.341  0.0671  0.0067 -0.4176
  285MOL0     C38373   9.336  10.122   9.327 -0.2723 -0.3360  0.4066
  285MOL0     C38374   9.225  10.182   9.378 -0.3083 -0.1958 -0.4371
  285MOL0     O38375   9.100  10.123   9.352  0.1501 -0.0142  0.8125
  285MOL0     C38376   9.020  10.075   9.457  0.0938  0.1563  0.4369
  285MOL0     C38377   9.068   9.953   9.537 -0.0781 -0.3505 -0.5977
  285MOL0     C38378   8.992   9.934   9.671  0.0277 -0.2664  0.8326
  285MOL0     C38379   9.057   9.820   9.752  0.1843  0.5748  0.2078
  285MOL0     C38380   9.155   9.889   9.850 -0.0002  0.6205  0.5510
  285MOL0     C38381   9.258   9.788   9.899  0.2428  0.1514  0.0085
  285MOL0     C38382   9.322   9.838  10.024  0.8663  0.0888  0.0989
  285MOL0     C38383   9.423   9.747  10.080 -1.1779 -0.2536 -0.0369
  285MOL0    Cl38384   9.568   9.767   9.971  0.1653  0.0311  0.0243
  285MOL0     C38385   9.237  10.306   9.443  0.0218  0.6410 -0.2319
  285MOL0     C38386   9.370  10.366   9.462 -0.6077 -0.1409 -0.1023
  285MOL0     O38387   9.590  10.379   9.673  0.1337  0.8372 -0.2445
  285MOL0     C38388   9.848  10.486   9.696  0.3856 -0.6036 -0.0474
  285MOL0     C38389   9.986  10.521   9.710  1.0752 -0.0061  0.4810
  285MOL0     N38390  10.480  11.088   9.800  0.1623  0.6319 -0.0282
  285MOL0     N38391  10.409  11.191   9.829 -0.3866 -0.3540  0.1750
  285MOL0     C38392   9.199  10.956  10.094  0.2432  0.2866  0.2175
  285MOL0     C38393   9.063  10.926  10.136  0.2191  0.0403 -0.3883
  285MOL0     C38394   8.761  10.758  10.421 -0.4810 -0.6313  0.3075
  285MOL0     C38395   8.664  10.842  10.375  0.2699 -0.7715 -0.5106
  285MOL0     C38396   8.542  10.859  10.446 -1.0657 -0.2709  0.0803
  285MOL0     C38397   8.508  10.775  10.557 -0.5045  1.1748 -0.0525
  285MOL0     O38398   8.390  10.773  10.625 -0.3580 -0.2293  0.3430
  285MOL0     C38399   8.278  10.857  10.610  0.3361  0.2403  0.2308
  285MOL0     C38400   8.292  10.957  10.715 -0.5943 -0.3600  1.1409
  285MOL0     C38401   8.409  11.055  10.691  0.7004  0.1250 -0.3917
  285MOL0     C38402   8.399  11.175  10.786 -0.6093  0.1029 -0.3655
  285MOL0     C38403   8.407  11.133  10.926 -0.7279  0.0393 -0.1577
  285MOL0     C38404   8.429  11.104  11.040  0.2029  0.0367 -0.6260
  285MOL0     C38405   8.615  10.683  10.592 -0.3433 -0.7024 -0.4821
  285MOL0     C38406   8.740  10.681  10.528 -0.3003 -0.4287 -0.2386
  285MOL0     C38407   8.838  10.574  10.584  0.3893  0.2816 -0.3077
  285MOL0     H38408   9.080  10.585  10.134 -2.0964  1.0128  2.1615
  285MOL0     H38409   9.296  10.622  10.056 -0.6611 -0.4853  1.7235
  285MOL0     H38410   9.519  10.704  10.022  0.3623  0.9529  0.5524
  285MOL0     H38411   9.420  10.697   9.873 -0.6825  1.1432 -1.1762
  285MOL0     H38412   9.579  10.853   9.764  1.6605  2.2970  0.7982
  285MOL0     H38413   9.674  10.739   9.870  2.2860  0.7940 -0.8820
  285MOL0     H38414   9.709  10.889  10.031 -1.3741 -1.6248 -0.5355
  285MOL0     H38415   9.630  11.027   9.956  0.7789  0.2224  1.0699
  285MOL0     H38416   9.882  10.882   9.844  0.8533  0.9513 -1.0875
  285MOL0     H38417   9.781  10.982   9.745  1.4943  0.2393 -0.4415
  285MOL0     H38418   9.805  11.179   9.897  0.5687  0.3838 -1.7787
  285MOL0     H38419   9.917  11.073  10.003  0.5503 -0.6698 -0.7898
  285MOL0     H38420  10.046  11.048   9.799  0.2563  0.3497  0.8864
  285MOL0     H38421   9.961  11.178   9.715 -0.7803  0.1062  0.5359
  285MOL0     H38422  10.150  11.231   9.947  0.2480  3.5671  1.0629
  285MOL0     H38423  10.017  11.342   9.876 -0.2796 -0.5617  1.0228
  285MOL0     H38424  10.136  11.296   9.663 -0.7636  0.8994  1.1017
  285MOL0     H38425  10.216  11.395   9.770 -1.9264  0.2064  1.3329
  285MOL0     H38426  10.273  11.075   9.553 -0.4168 -2.0131  1.5253
  285MOL0     H38427  10.546  10.924   9.527 -2.8960  0.6500 -1.0747
  285MOL0     H38428  10.626  10.929   9.684 -1.3264 -1.5218  2.8167
  285MOL0     H38429  10.538  10.714   9.675 -0.1101 -0.4902 -1.3768
  285MOL0     H38430  10.439  10.804   9.787  1.0323 -0.5954  0.0434
  285MOL0     H38431  10.369  10.712   9.508  0.5400 -0.6111  0.7995
  285MOL0     H38432  10.274  10.836   9.587 -1.8722 -0.4113  2.2131
  285MOL0     H38433  10.173  10.704   9.722 -1.4241 -0.5892  0.2055
  285MOL0     H38434  10.306  10.585   9.751 -2.1398 -1.4598  0.1854
  285MOL0     H38435  10.067  10.496   9.381  1.2257 -0.7356  0.1489
  285MOL0     H38436   9.833  10.427   9.363 -0.6370  0.3690  0.6820
  285MOL0     H38437   9.540  10.118   9.288 -0.5810 -0.6944 -0.6517
  285MOL0     H38438   9.319  10.036   9.263 -0.7242 -0.5098  0.7580
  285MOL0     H38439   8.985  10.157   9.519  1.5779  0.0097  1.5184
  285MOL0     H38440   8.923  10.039   9.421  0.7885 -2.1868  0.7342
  285MOL0     H38441   9.064   9.859   9.481  1.6317 -0.4560 -0.5947
  285MOL0     H38442   9.176   9.963   9.551 -0.2371  0.7813 -0.1277
  285MOL0     H38443   8.995  10.036   9.709  1.6972 -0.1643  0.5159
  285MOL0     H38444   8.887   9.912   9.653  0.5144 -1.8047 -0.3332
  285MOL0     H38445   9.119   9.752   9.692 -1.3506 -1.1192  0.4520
  285MOL0     H38446   8.978   9.769   9.808  0.6867 -0.1728  0.2596
  285MOL0     H38447   9.084   9.932   9.921 -3.1798  2.3179 -3.2980
  285MOL0     H38448   9.216   9.972   9.812  0.3495  0.9452  1.7699
  285MOL0     H38449   9.205   9.694   9.917 -1.0497  1.0015  0.8091
  285MOL0     H38450   9.340   9.767   9.829  0.8275 -1.4041  1.1113
  285MOL0     H38451   9.244   9.852  10.100  1.0186  2.3546 -0.0931
  285MOL0     H38452   9.373   9.934  10.013  0.8101  0.4320  2.3757
  285MOL0     H38453   9.465   9.757  10.181 -1.4736 -4.7101  0.7727
  285MOL0     H38454   9.376   9.648  10.073 -1.5350  0.0418 -2.5297
  285MOL0     H38455   9.151  10.358   9.482  0.6119  2.4438 -1.2171
  285MOL0     H38456   9.395  10.461   9.508  3.4004 -1.7219  1.4186
  285MOL0     H38457   9.789  10.475   9.787  1.4562 -1.0035  0.6214
  285MOL0     H38458  10.027  10.540   9.808  0.6082  1.5421  0.3917
  285MOL0     H38459   9.234  11.055  10.070 -2.6038  1.7877  1.7570
  285MOL0     H38460   8.996  11.011  10.143 -2.1810 -1.5734 -2.0047
  285MOL0     H38461   8.692  10.926  10.312  1.1959  1.0599  2.1336
  285MOL0     H38462   8.483  10.945  10.416  0.0173 -0.2505 -2.1615
  285MOL0     H38463   8.184  10.802  10.620  2.0341 -2.6917  1.5676
  285MOL0     H38464   8.269  10.912  10.516  0.4408  1.4423  0.9012
  285MOL0     H38465   8.298  10.908  10.813 -1.2893 -1.5905  0.5914
  285MOL0     H38466   8.192  11.002  10.721  0.0078  1.2275  0.0599
  285MOL0     H38467   8.416  11.091  10.587  1.0566  0.9446 -0.0961
  285MOL0     H38468   8.509  11.017  10.713  0.5356  1.2210  2.6082
  285MOL0     H38469   8.479  11.248  10.769 -0.5845  0.2971  0.5393
  285MOL0     H38470   8.311  11.238  10.770  0.0253  0.7761 -1.3183
  285MOL0     H38471   8.456  11.078  11.141  0.1851  2.8837  0.2078
  285MOL0     H38472   8.602  10.626  10.683 -1.8556  0.1048 -0.1600
  285MOL0     H38473   8.922  10.626  10.631 -1.0711  0.6747  1.9819
  285MOL0     H38474   8.788  10.503  10.649  0.7893  0.5879  0.3434
  285MOL0     H38475   8.867  10.517  10.495  0.5973 -1.8004  1.0545
  286MOL0     O38476   2.372   2.952  10.122 -0.6974 -0.5657 -0.2565
  286MOL0     C38477   2.320   2.890  10.218 -0.1101 -0.3501 -0.0173
  286MOL0     O38478   2.385   2.850  10.333  0.2601 -0.3019 -0.1979
  286MOL0     C38479   2.515   2.884  10.329 -0.5484  0.4839 -0.4246
  286MOL0     C38480   2.550   3.008  10.380 -0.9281 -0.6679 -0.2631
  286MOL0     C38481   2.685   3.038  10.387  0.3679 -0.2272  0.8126
  286MOL0     C38482   2.790   2.954  10.340  0.7088 -0.1534  0.7535
  286MOL0     O38483   2.924   2.981  10.335  0.0483 -0.4622 -0.0538
  286MOL0     C38484   3.029   2.891  10.368  0.5225  0.2079 -0.3106
  286MOL0     C38485   3.035   2.886  10.523 -0.2576  0.1544 -0.7170
  286MOL0     C38486   3.046   2.745  10.585 -0.3282 -0.1091 -0.0558
  286MOL0     C38487   2.926   2.658  10.553  0.3232 -0.5324  0.0472
  286MOL0     C38488   2.904   2.537  10.645 -0.0669 -0.1453  0.1379
  286MOL0     C38489   2.797   2.444  10.591 -0.1106 -0.5274 -0.6398
  286MOL0     C38490   2.824   2.350  10.466  0.6309  0.4098  0.1202
  286MOL0     C38491   2.923   2.236  10.500 -0.6376 -0.2888  0.0072
  286MOL0     N38492   2.968   2.168  10.380 -0.1888  0.2078  0.5152
  286MOL0     C38493   3.099   2.163  10.341  0.2674  0.0399 -0.5729
  286MOL0     C38494   3.097   2.107  10.215  0.2598  0.5368  0.4398
  286MOL0     C38495   3.222   2.072  10.131  1.1541 -0.0995 -0.2002
  286MOL0     C38496   3.320   1.970  10.191  0.1793  0.0879  0.9193
  286MOL0     C38497   3.467   2.020  10.234  0.4257 -0.2274 -0.5365
  286MOL0     C38498   3.457   2.106  10.365  0.0062  1.2518  0.4276
  286MOL0     O38499   3.581   2.182  10.364 -0.5048 -0.0477  0.2377
  286MOL0     C38500   3.659   2.153  10.473  0.5467 -0.2324  0.3727
  286MOL0     C38501   3.686   2.019  10.521 -0.1595  0.0967 -1.1302
  286MOL0     C38502   3.772   1.996  10.636  0.6170  0.1995 -0.4158
  286MOL0     C38503   3.830   2.111  10.704  0.0269  1.0668  0.4323
  286MOL0     C38504   3.919   2.084  10.816 -0.2519 -0.5605 -0.4706
  286MOL0     O38505   3.979   1.966  10.820 -0.2910  0.6761  0.1920
  286MOL0     C38506   4.072   1.937  10.919  0.5088  0.2872  0.2395
  286MOL0     C38507   4.185   2.012  10.935 -0.4424 -0.5711  0.5739
  286MOL0     C38508   4.280   1.973  11.026 -0.6044  0.1321  0.6442
  286MOL0     C38509   4.258   1.862  11.108 -0.4181 -0.2017 -0.3205
  286MOL0     O38510   4.335   1.827  11.216  0.7587 -0.4671 -0.1040
  286MOL0     C38511   4.472   1.860  11.204  0.1871 -0.3003 -1.0198
  286MOL0     C38512   4.555   1.778  11.304  0.1933  0.0998  0.2577
  286MOL0     C38513   4.708   1.800  11.303  0.5492  0.0327  0.0271
  286MOL0     C38514   4.768   1.725  11.179 -0.2195 -0.0747  0.2534
  286MOL0     C38515   4.908   1.774  11.155  0.4379  0.6466 -0.1828
  286MOL0     C38516   5.001   1.694  11.066  0.3164 -0.1654 -0.5337
  286MOL0     C38517   5.141   1.752  11.066  0.2946 -0.0959 -0.3662
  286MOL0     C38518   5.233   1.668  10.978 -0.4012  0.0284  0.6499
  286MOL0    Cl38519   5.238   1.489  11.029  0.5700 -0.4193  0.2868
  286MOL0     C38520   4.137   1.784  11.090 -0.1703 -0.0155 -0.4906
  286MOL0     C38521   4.049   1.822  10.997 -0.0438  0.1353  0.1071
  286MOL0     O38522   3.936   2.175  10.897  0.2324 -0.5188 -0.0336
  286MOL0     C38523   3.802   2.240  10.656 -0.0140 -0.4138  0.8404
  286MOL0     C38524   3.727   2.258  10.535  0.4159  0.0999 -0.2805
  286MOL0     N38525   2.966   2.066  10.187  0.6425 -0.7407  1.0664
  286MOL0     N38526   2.893   2.101  10.286  0.2791 -0.1184  0.2602
  286MOL0     C38527   2.746   2.831  10.296  0.7119  0.7936  0.8984
  286MOL0     C38528   2.613   2.787  10.284  0.6215 -0.8430 -0.4345
  286MOL0     C38529   2.175   2.842  10.192 -0.5309 -0.2515 -0.2407
  286MOL0     C38530   2.132   2.734  10.272  1.2022 -0.1962 -0.7044
  286MOL0     C38531   2.008   2.674  10.254 -0.2386  0.1779  0.0025
  286MOL0     C38532   1.918   2.712  10.148 -0.9553 -0.7497 -0.4315
  286MOL0     O38533   1.797   2.667  10.120  0.5250  0.5461  0.2051
  286MOL0     C38534   1.697   2.737  10.200 -0.3887 -0.5162  0.3524
  286MOL0     C38535   1.558   2.689  10.164  0.1899 -0.5217 -0.4232
  286MOL0     C38536   1.517   2.715  10.022 -0.2838  0.6621  0.5071
  286MOL0     C38537   1.381   2.651   9.993  0.3567 -0.7276  0.3292
  286MOL0     C38538   1.390   2.534   9.901 -0.4358 -0.1797 -0.0034
  286MOL0     C38539   1.400   2.427   9.844  0.1369  0.1435  0.1245
  286MOL0     C38540   1.956   2.825  10.071  0.1076  0.7633 -0.2818
  286MOL0     C38541   2.076   2.893  10.101 -0.3918 -0.2874 -0.2417
  286MOL0     C38542   2.120   3.017  10.016 -0.2359  1.0007 -0.4566
  286MOL0     H38543   2.491   3.083  10.432 -0.2966  0.2058 -0.7971
  286MOL0     H38544   2.725   3.128  10.432  1.5878 -0.8474  1.0177
  286MOL0     H38545   3.010   2.791  10.328 -0.5754  0.7409 -1.1713
  286MOL0     H38546   3.121   2.931  10.325  0.5428  0.6183  0.0994
  286MOL0     H38547   2.949   2.945  10.555  0.3527  0.3089  0.7201
  286MOL0     H38548   3.116   2.945  10.568 -1.0013  2.8563 -2.6952
  286MOL0     H38549   3.073   2.749  10.691  2.9123 -0.4449 -0.7713
  286MOL0     H38550   3.130   2.692  10.540 -0.4787 -3.6469  3.3026
  286MOL0     H38551   2.842   2.728  10.553 -0.4866 -1.4305 -1.7319
  286MOL0     H38552   2.920   2.615  10.452 -0.5907 -2.3938  0.8374
  286MOL0     H38553   2.995   2.482  10.667 -1.6422 -2.2883  1.6909
  286MOL0     H38554   2.868   2.583  10.737  0.6487 -1.4242  1.0903
  286MOL0     H38555   2.756   2.378  10.668  1.6137  0.5802  1.3435
  286MOL0     H38556   2.709   2.506  10.570  0.1525  1.4378  3.0463
  286MOL0     H38557   2.857   2.404  10.377 -0.6029  2.9129  1.0790
  286MOL0     H38558   2.733   2.299  10.433 -0.5440  1.2443  1.9014
  286MOL0     H38559   3.014   2.267  10.552 -0.3254 -1.7145  0.3479
  286MOL0     H38560   2.872   2.168  10.569  1.4848 -1.0376  0.9173
  286MOL0     H38561   3.181   2.205  10.397 -1.0485  1.3675  0.4424
  286MOL0     H38562   3.180   2.020  10.044  1.7776 -0.6533 -0.1818
  286MOL0     H38563   3.277   2.158  10.092 -0.2636  1.5519  1.2881
  286MOL0     H38564   3.274   1.915  10.273 -0.0907  1.9771  2.0913
  286MOL0     H38565   3.347   1.902  10.111  0.9840  1.1852  0.2263
  286MOL0     H38566   3.521   2.064  10.149  0.6261 -2.5479 -1.6968
  286MOL0     H38567   3.528   1.935  10.267  0.9867  0.4275  0.1440
  286MOL0     H38568   3.440   2.049  10.456  0.8354 -0.4515 -0.4153
  286MOL0     H38569   3.372   2.173  10.349 -1.1637 -0.2084  0.2594
  286MOL0     H38570   3.645   1.934  10.468 -2.5915  0.0173  0.6769
  286MOL0     H38571   3.791   1.894  10.665 -3.6958  0.1357  3.3361
  286MOL0     H38572   4.205   2.108  10.888 -1.8211 -1.0920 -1.1870
  286MOL0     H38573   4.366   2.037  11.043 -0.0698 -1.0563  2.6639
  286MOL0     H38574   4.515   1.848  11.104  0.3336 -0.4106 -0.9453
  286MOL0     H38575   4.495   1.965  11.226  3.7473 -0.9310 -1.0533
  286MOL0     H38576   4.513   1.790  11.404  0.2980 -1.7442  0.5415
  286MOL0     H38577   4.535   1.674  11.279 -3.0100  0.9976 -1.4261
  286MOL0     H38578   4.728   1.908  11.295  0.0575 -0.0066 -2.3764
  286MOL0     H38579   4.750   1.754  11.393 -1.1039  0.2311  0.9443
  286MOL0     H38580   4.714   1.756  11.089  1.8717  2.5959 -0.2455
  286MOL0     H38581   4.774   1.620  11.207 -0.6238  0.4612  2.4904
  286MOL0     H38582   4.949   1.776  11.256 -0.7342  0.4849  0.3120
  286MOL0     H38583   4.905   1.877  11.120 -0.5631  0.0046 -2.1542
  286MOL0     H38584   5.019   1.592  11.103  1.6213  1.0701  2.5321
  286MOL0     H38585   4.956   1.679  10.968  1.5422 -0.9841 -1.0027
  286MOL0     H38586   5.185   1.771  11.164  0.9547  2.4271 -1.0885
  286MOL0     H38587   5.133   1.854  11.027  0.6183 -0.3456 -1.1037
  286MOL0     H38588   5.193   1.674  10.877  1.0891  1.8789  0.1145
  286MOL0     H38589   5.334   1.708  10.972 -0.1132 -0.5354  1.5399
  286MOL0     H38590   4.123   1.693  11.148 -0.6281 -0.7269 -1.6686
  286MOL0     H38591   3.960   1.763  10.980 -1.5085  2.4310 -0.6933
  286MOL0     H38592   3.838   2.334  10.698  0.6905  0.5775 -1.7781
  286MOL0     H38593   3.704   2.355  10.491 -1.9890  0.5593  1.7520
  286MOL0     H38594   2.822   2.759  10.267 -0.4849 -0.1256 -0.0319
  286MOL0     H38595   2.595   2.685  10.250  0.6191 -0.9055 -0.2488
  286MOL0     H38596   2.193   2.694  10.352 -2.9934 -1.0550  2.3850
  286MOL0     H38597   1.986   2.585  10.313  1.9030  0.9189  2.0573
  286MOL0     H38598   1.707   2.846  10.190  1.1448 -0.5017  1.6778
  286MOL0     H38599   1.700   2.719  10.308 -3.5731  0.9395  0.8168
  286MOL0     H38600   1.485   2.741  10.225 -0.3872 -1.0497 -0.6512
  286MOL0     H38601   1.559   2.580  10.176  0.4586 -0.3925  0.8214
  286MOL0     H38602   1.591   2.670   9.954 -0.3185 -0.4744  1.1971
  286MOL0     H38603   1.509   2.822  10.000 -3.0712  0.4979  0.4231
  286MOL0     H38604   1.325   2.635  10.085 -1.3472  3.4342  0.1990
  286MOL0     H38605   1.317   2.722   9.940 -0.5931 -2.0947 -0.4406
  286MOL0     H38606   1.407   2.325   9.812 -0.7429 -0.3864  1.5572
  286MOL0     H38607   1.880   2.870  10.008 -3.2687 -2.0072  1.4269
  286MOL0     H38608   2.183   2.972   9.939 -1.9268 -1.9757 -0.2622
  286MOL0     H38609   2.040   3.071   9.964 -0.5681 -0.7026 -1.8099
  286MOL0     H38610   2.178   3.087  10.077 -0.3996  1.3923 -0.7416
  287MOL0     O38611   7.677   1.869  10.434  0.3285  0.1495 -0.0837
  287MOL0     C38612   7.702   1.749  10.427  0.0560  0.6307  0.0049
  287MOL0     O38613   7.821   1.684  10.406  0.5465 -0.2766 -0.0914
  287MOL0     C38614   7.936   1.736  10.449  0.6644  0.5406 -0.4236
  287MOL0     C38615   8.014   1.654  10.534  0.6547 -0.4919 -0.2252
  287MOL0     C38616   8.130   1.708  10.586 -1.0447 -1.1426  0.3395
  287MOL0     C38617   8.182   1.832  10.547 -0.9566  1.1592  0.3256
  287MOL0     O38618   8.298   1.868  10.611 -0.0844  0.0365  0.2116
  287MOL0     C38619   8.342   2.002  10.588 -0.2101 -1.1018  0.2006
  287MOL0     C38620   8.456   2.039  10.687  0.6475 -0.1141 -0.6331
  287MOL0     C38621   8.418   2.067  10.829 -0.1828  0.0028  0.3711
  287MOL0     C38622   8.376   1.943  10.908  0.4072  0.0146 -0.2273
  287MOL0     C38623   8.356   1.984  11.062 -0.4029  0.5043  0.7257
  287MOL0     C38624   8.213   2.026  11.094  0.3783 -0.0375 -0.7716
  287MOL0     C38625   8.208   2.092  11.225  0.0113 -1.1331 -1.0548
  287MOL0     C38626   8.172   2.241  11.231 -0.1288 -0.1633 -1.3180
  287MOL0     N38627   8.275   2.333  11.180  0.9992  0.6952 -0.0282
  287MOL0     C38628   8.410   2.331  11.214 -0.1017 -0.9660 -0.0695
  287MOL0     C38629   8.471   2.409  11.122  0.6381 -0.2113 -0.2099
  287MOL0     C38630   8.618   2.442  11.120  0.5256  0.5955  0.4662
  287MOL0     C38631   8.646   2.560  11.213  0.4709 -0.0620  0.1296
  287MOL0     C38632   8.656   2.524  11.365  1.0142  0.7600  0.3730
  287MOL0     C38633   8.693   2.651  11.440 -0.1213  0.0199  0.1081
  287MOL0     O38634   8.823   2.695  11.389 -0.3252  0.4329 -0.0083
  287MOL0     C38635   8.938   2.627  11.438  0.7668 -0.1979  0.0201
  287MOL0     C38636   9.057   2.659  11.368 -0.1428  0.8293  0.5547
  287MOL0     C38637   9.183   2.620  11.418  0.1877 -0.6563 -0.4920
  287MOL0     C38638   9.198   2.546  11.528  0.1588 -0.1093 -0.0026
  287MOL0     C38639   9.325   2.480  11.562  0.2524 -0.5264 -0.6878
  287MOL0     O38640   9.420   2.499  11.467  0.2671  0.4383  0.1538
  287MOL0     C38641   9.553   2.447  11.488  0.0449  0.4723 -0.2777
  287MOL0     C38642   9.586   2.310  11.529 -0.3576  0.0383  0.2448
  287MOL0     C38643   9.716   2.272  11.564  0.1391 -0.6544  0.5541
  287MOL0     C38644   9.824   2.364  11.539 -0.4678 -0.1705 -0.0648
  287MOL0     O38645   9.950   2.319  11.557  0.2617  0.2914 -0.4784
  287MOL0     C38646   9.984   2.265  11.690  0.0669  0.1260  0.5123
  287MOL0     C38647  10.088   2.366  11.751 -0.0619 -0.1890  0.7241
  287MOL0     C38648  10.207   2.395  11.653  0.4081 -0.1707 -0.9007
  287MOL0     C38649  10.323   2.466  11.722  0.0265  0.2070  0.4075
  287MOL0     C38650  10.425   2.513  11.618  0.1181  0.4303 -0.4178
  287MOL0     C38651  10.541   2.582  11.689 -0.0100  0.8607  0.3265
  287MOL0     C38652  10.651   2.487  11.746  0.5900 -0.3955  0.6717
  287MOL0     C38653  10.777   2.561  11.771  0.6059 -0.3469 -1.1871
  287MOL0    Cl38654  10.758   2.726  11.867  0.2770 -0.2993 -0.1241
  287MOL0     C38655   9.792   2.490  11.484  0.2974 -0.4924  0.7159
  287MOL0     C38656   9.663   2.534  11.462  0.0243  0.1972  0.1764
  287MOL0     O38657   9.335   2.415  11.670  0.1466  0.0137  0.8882
  287MOL0     C38658   9.080   2.521  11.600 -0.1625 -0.6937 -0.2516
  287MOL0     C38659   8.955   2.566  11.564  0.7598 -0.3816  0.1601
  287MOL0     N38660   8.370   2.467  11.042  0.0286  0.1717 -0.2658
  287MOL0     N38661   8.256   2.422  11.081  0.3494  0.0365 -0.5824
  287MOL0     C38662   8.103   1.912  10.461  0.0982  0.1283 -0.4405
  287MOL0     C38663   7.985   1.862  10.405  0.3167 -0.7125  0.6197
  287MOL0     C38664   7.583   1.667  10.454 -0.6542  0.7974  0.1208
  287MOL0     C38665   7.456   1.715  10.416  0.3994 -0.0520  0.4910
  287MOL0     C38666   7.337   1.636  10.428 -0.7233 -1.5075 -0.3078
  287MOL0     C38667   7.349   1.508  10.488 -0.5331 -1.0064  0.5029
  287MOL0     O38668   7.239   1.435  10.516  0.8661 -0.2507  0.9377
  287MOL0     C38669   7.143   1.499  10.607 -1.0851  0.1249 -0.9244
  287MOL0     C38670   7.103   1.380  10.705 -0.5630  0.0507 -0.2675
  287MOL0     C38671   7.017   1.272  10.638  0.5833  1.0773 -0.2431
  287MOL0     C38672   6.976   1.172  10.745  0.6382 -0.1163  0.3921
  287MOL0     C38673   6.849   1.228  10.801  0.2696  0.1992  0.2349
  287MOL0     C38674   6.742   1.264  10.843  0.8103  0.6818  0.2359
  287MOL0     C38675   7.471   1.455  10.520 -0.7062  0.2748 -0.0089
  287MOL0     C38676   7.588   1.539  10.506 -0.0684  0.2853  1.0725
  287MOL0     C38677   7.713   1.474  10.579 -0.7111  0.3541 -0.2577
  287MOL0     H38678   7.991   1.549  10.547  0.8723 -0.3292  1.9215
  287MOL0     H38679   8.195   1.655  10.655 -0.9254 -1.1821  0.1957
  287MOL0     H38680   8.382   2.008  10.486 -1.9058  1.1602 -0.4164
  287MOL0     H38681   8.270   2.083  10.601  1.0546  0.3219 -1.2218
  287MOL0     H38682   8.501   2.129  10.645 -0.0378  0.3775 -0.3328
  287MOL0     H38683   8.527   1.956  10.678  1.2138  0.3811 -0.8123
  287MOL0     H38684   8.328   2.128  10.818 -1.4858 -1.9877 -0.6704
  287MOL0     H38685   8.496   2.122  10.881 -2.6907  2.8689  1.3942
  287MOL0     H38686   8.294   1.893  10.855  2.5474 -2.7923 -1.1604
  287MOL0     H38687   8.459   1.874  10.891  2.0997  2.3278 -2.0080
  287MOL0     H38688   8.377   1.890  11.113  0.6061  1.2769  1.7620
  287MOL0     H38689   8.438   2.053  11.079  1.6062 -1.0220 -1.9721
  287MOL0     H38690   8.175   2.095  11.018 -0.8487 -1.9436 -1.9650
  287MOL0     H38691   8.153   1.935  11.093  2.4818 -1.5868  1.1906
  287MOL0     H38692   8.303   2.074  11.276 -0.2034  3.0709  1.2558
  287MOL0     H38693   8.139   2.034  11.287 -0.1417  0.2162  0.1004
  287MOL0     H38694   8.082   2.258  11.171 -0.9772 -0.1833 -0.0842
  287MOL0     H38695   8.152   2.269  11.335  2.4471  0.4177 -0.9282
  287MOL0     H38696   8.467   2.298  11.301 -0.7697 -0.1351  0.6956
  287MOL0     H38697   8.676   2.353  11.146 -0.1591 -1.1137 -3.1568
  287MOL0     H38698   8.648   2.466  11.017 -3.9448 -0.9128 -1.4187
  287MOL0     H38699   8.734   2.609  11.171 -1.2078 -0.1241 -3.9258
  287MOL0     H38700   8.567   2.634  11.198 -1.1948 -1.6704  0.6822
  287MOL0     H38701   8.734   2.447  11.370  0.0916 -0.5102 -2.5694
  287MOL0     H38702   8.564   2.481  11.407  0.8239  0.3426 -0.4557
  287MOL0     H38703   8.699   2.640  11.549 -1.2562  1.1240  0.3154
  287MOL0     H38704   8.622   2.732  11.421  1.6955  1.4697 -0.7083
  287MOL0     H38705   9.032   2.713  11.278 -1.9854 -0.6883  0.1054
  287MOL0     H38706   9.265   2.661  11.359 -0.2302  0.1572 -0.5245
  287MOL0     H38707   9.503   2.244  11.547  0.0288 -0.3324  0.6940
  287MOL0     H38708   9.733   2.175  11.608  0.7083 -0.8048  0.0220
  287MOL0     H38709   9.902   2.252  11.760  1.7057 -1.0008  2.3208
  287MOL0     H38710  10.022   2.163  11.677 -0.4154  0.1295 -1.2994
  287MOL0     H38711  10.045   2.464  11.775 -1.2983 -0.4578 -0.2492
  287MOL0     H38712  10.121   2.313  11.841  2.3621  2.0140  1.2239
  287MOL0     H38713  10.235   2.301  11.603  2.5938  1.3337 -2.7418
  287MOL0     H38714  10.174   2.463  11.573 -0.6560 -1.2502 -1.4109
  287MOL0     H38715  10.365   2.385  11.783  0.2002  0.2671  0.3689
  287MOL0     H38716  10.289   2.546  11.788  0.5064  1.2088 -0.5255
  287MOL0     H38717  10.368   2.581  11.554 -0.9156 -0.4859 -0.5050
  287MOL0     H38718  10.464   2.429  11.561 -0.2455  0.2321 -0.3772
  287MOL0     H38719  10.587   2.646  11.613  3.1650 -2.0876 -0.4416
  287MOL0     H38720  10.505   2.644  11.772 -0.0889 -0.4292  1.2713
  287MOL0     H38721  10.684   2.414  11.672 -0.8719  0.2555 -0.6719
  287MOL0     H38722  10.605   2.444  11.835 -1.0332  2.6746  1.4707
  287MOL0     H38723  10.837   2.487  11.824 -0.0814 -0.0869 -0.0148
  287MOL0     H38724  10.834   2.592  11.683  1.3621  1.7830 -0.0192
  287MOL0     H38725   9.870   2.562  11.461 -0.7059  0.1495 -0.8857
  287MOL0     H38726   9.635   2.637  11.443 -3.7302 -0.2837  2.0176
  287MOL0     H38727   9.092   2.469  11.694  0.2925  0.3038  0.2554
  287MOL0     H38728   8.868   2.555  11.627 -0.8881 -4.2578 -2.3644
  287MOL0     H38729   8.127   2.014  10.435  0.4214  0.3467  0.6843
  287MOL0     H38730   7.928   1.920  10.333  1.8530  1.5313  1.1105
  287MOL0     H38731   7.447   1.811  10.366 -1.5213  0.5828  1.9039
  287MOL0     H38732   7.244   1.679  10.392 -1.4984 -0.2550  2.8489
  287MOL0     H38733   7.065   1.553  10.554 -0.5201  0.6612 -1.2195
  287MOL0     H38734   7.186   1.572  10.675  1.0078 -1.3078 -0.6115
  287MOL0     H38735   7.038   1.424  10.781  1.7526  1.8591  0.7931
  287MOL0     H38736   7.187   1.328  10.752 -2.5144 -3.8804 -0.7600
  287MOL0     H38737   7.066   1.213  10.561 -0.5809 -0.8326  0.4236
  287MOL0     H38738   6.929   1.314  10.588  0.4277  0.4012 -0.5492
  287MOL0     H38739   6.951   1.075  10.701 -1.9067  1.0168 -0.8927
  287MOL0     H38740   7.050   1.156  10.824  1.8360  0.4612 -0.5734
  287MOL0     H38741   6.651   1.299  10.887 -0.3295  1.5701 -2.5969
  287MOL0     H38742   7.484   1.357  10.565 -0.3914  0.6298  0.6955
  287MOL0     H38743   7.778   1.542  10.636 -0.3626 -3.2083  4.0815
  287MOL0     H38744   7.675   1.411  10.659  0.0632  2.1412  1.6325
  287MOL0     H38745   7.762   1.409  10.507 -3.3511 -1.1306 -0.8282
  288MOL0     O38746   2.410  10.742   4.251 -0.2113  0.1600 -0.5534
  288MOL0     C38747   2.375  10.656   4.174  0.4013  0.0692 -0.6828
  288MOL0     O38748   2.458  10.555   4.127 -0.3838  0.3284  0.8792
  288MOL0     C38749   2.571  10.533   4.205  0.1043  0.5684  0.6127
  288MOL0     C38750   2.565  10.470   4.338 -0.4452  0.5356 -0.2676
  288MOL0     C38751   2.675  10.463   4.413 -0.3825  1.1297  0.5834
  288MOL0     C38752   2.802  10.491   4.353  0.0484 -0.7249  0.5787
  288MOL0     O38753   2.905  10.471   4.435  0.2183 -0.1796  1.4802
  288MOL0     C38754   3.042  10.457   4.383 -0.6578  0.8402 -0.1306
  288MOL0     C38755   3.113  10.587   4.417  0.2166  0.1614 -0.0439
  288MOL0     C38756   3.257  10.579   4.366  0.6354 -0.3006  0.2178
  288MOL0     C38757   3.317  10.720   4.384  0.6633  0.9449  0.0992
  288MOL0     C38758   3.456  10.743   4.328  0.0619  0.6668 -0.5053
  288MOL0     C38759   3.513  10.883   4.343 -0.0478 -0.2472  0.4156
  288MOL0     C38760   3.657  10.883   4.288  0.7286  0.1753 -0.2607
  288MOL0     C38761   3.703  11.035   4.305  1.0666  0.5327  0.1824
  288MOL0     N38762   3.838  11.070   4.267  0.2064  0.1226 -0.3420
  288MOL0     C38763   3.891  11.071   4.142 -0.0444 -1.0361 -0.1753
  288MOL0     C38764   4.009  11.133   4.152 -0.6021  0.3229  0.0343
  288MOL0     C38765   4.100  11.152   4.030 -0.3886 -0.4187  1.0946
  288MOL0     C38766   4.246  11.167   4.074 -0.4702  0.4249  0.0931
  288MOL0     C38767   4.295  11.306   4.094  0.5973  0.7610  0.2432
  288MOL0     C38768   4.437  11.301   4.144  0.9789 -0.2891 -0.0292
  288MOL0     O38769   4.530  11.290   4.033 -0.1087 -0.0088  0.1328
  288MOL0     C38770   4.665  11.322   4.031  0.2302 -0.1854  0.1076
  288MOL0     C38771   4.724  11.302   3.905 -0.1481 -0.5210 -0.1478
  288MOL0     C38772   4.863  11.322   3.892  0.7389  0.4392  0.2806
  288MOL0     C38773   4.940  11.359   3.999  0.6579  0.2423  0.8133
  288MOL0     C38774   5.082  11.373   3.974 -0.9034 -0.4588 -0.2062
  288MOL0     O38775   5.155  11.446   4.060  0.1800 -0.5457 -0.1681
  288MOL0     C38776   5.279  11.464   4.019 -1.1563 -1.5095 -0.7951
  288MOL0     C38777   5.314  11.601   3.993  0.3538  0.7933 -0.0553
  288MOL0     C38778   5.449  11.633   3.972  0.1580  0.1634 -0.0356
  288MOL0     C38779   5.552  11.535   3.974 -0.0439 -0.9491 -0.3997
  288MOL0     O38780   5.683  11.564   3.957  0.0725 -0.0516 -0.5270
  288MOL0     C38781   5.727  11.681   3.882 -0.2425 -0.3732  0.1146
  288MOL0     C38782   5.873  11.707   3.939  0.4104 -0.2232  0.2133
  288MOL0     C38783   5.963  11.783   3.842  0.4331 -0.7206  0.1019
  288MOL0     C38784   6.017  11.692   3.725  0.5674 -0.4541  0.9780
  288MOL0     C38785   6.069  11.772   3.600 -0.5435  0.3612 -0.2038
  288MOL0     C38786   6.194  11.855   3.630  0.2714 -0.7349 -0.0525
  288MOL0     C38787   6.260  11.906   3.498 -1.3835 -1.2320  1.1266
  288MOL0     C38788   6.364  11.803   3.448  0.5636  0.1298  0.3737
  288MOL0    Cl38789   6.446  11.851   3.294  0.0404  0.0739 -0.0142
  288MOL0     C38790   5.515  11.407   4.013  0.3059 -0.0041  0.7027
  288MOL0     C38791   5.379  11.366   4.032 -0.5077  0.0986  0.5919
  288MOL0     O38792   5.128  11.311   3.876  0.2536 -0.4631 -0.9597
  288MOL0     C38793   4.876  11.395   4.118  0.1854 -0.6326  0.0747
  288MOL0     C38794   4.745  11.370   4.140 -0.6920 -0.6638  0.2140
  288MOL0     N38795   4.031  11.179   4.277  0.4740  0.6238  0.3599
  288MOL0     N38796   3.934  11.131   4.345  0.3692  0.1432  0.2858
  288MOL0     C38797   2.812  10.543   4.224  0.3810 -0.2601 -0.0402
  288MOL0     C38798   2.695  10.562   4.149 -1.0618 -0.3567  0.4965
  288MOL0     C38799   2.236  10.656   4.133 -0.4709  0.7900  0.1391
  288MOL0     C38800   2.202  10.559   4.025 -0.1164  0.5625 -0.8842
  288MOL0     C38801   2.084  10.563   3.960  0.5904  0.6665  0.5732
  288MOL0     C38802   1.991  10.663   3.992 -0.7152 -0.4886 -0.0509
  288MOL0     O38803   1.883  10.671   3.908  0.2129  0.8068 -0.2997
  288MOL0     C38804   1.756  10.688   3.959  0.7484 -1.1438 -0.0034
  288MOL0     C38805   1.684  10.552   3.988  0.3899 -0.0031 -0.0725
  288MOL0     C38806   1.532  10.574   4.007 -1.1229  0.0521 -0.0399
  288MOL0     C38807   1.452  10.528   3.884 -0.4434 -0.3030  0.6574
  288MOL0     C38808   1.307  10.541   3.903 -0.1250  0.3143 -0.0676
  288MOL0     C38809   1.182  10.540   3.905  0.6511  0.5076 -0.8117
  288MOL0     C38810   2.013  10.750   4.105  0.1146 -0.8611 -0.4310
  288MOL0     C38811   2.138  10.745   4.172 -0.0811  0.3172  0.1909
  288MOL0     C38812   2.161  10.863   4.271 -0.1663 -0.6751  0.4394
  288MOL0     H38813   2.468  10.443   4.379 -0.7055 -0.4638 -1.4678
  288MOL0     H38814   2.671  10.426   4.515 -0.4147  0.4123  0.3277
  288MOL0     H38815   3.095  10.376   4.435  0.9426  2.0716  0.2106
  288MOL0     H38816   3.051  10.429   4.278  2.9031  3.1475 -0.6004
  288MOL0     H38817   3.122  10.607   4.524  0.9832 -0.1093 -0.0488
  288MOL0     H38818   3.056  10.671   4.376  0.1207  0.1656  0.0975
  288MOL0     H38819   3.256  10.548   4.261 -3.3629  0.6472 -0.2143
  288MOL0     H38820   3.314  10.506   4.424  1.7446 -0.3184 -0.8508
  288MOL0     H38821   3.252  10.789   4.331 -1.0061 -1.2838 -0.9206
  288MOL0     H38822   3.315  10.755   4.488  1.0574  3.1390 -0.5788
  288MOL0     H38823   3.516  10.671   4.383 -0.0099  2.1467  1.6239
  288MOL0     H38824   3.464  10.720   4.222  3.3625  1.5092 -0.5284
  288MOL0     H38825   3.443  10.945   4.285  0.9462  0.5386  0.0291
  288MOL0     H38826   3.517  10.911   4.449 -1.0299 -0.0465  0.4113
  288MOL0     H38827   3.633  10.865   4.183 -2.8142 -0.5629  0.5306
  288MOL0     H38828   3.732  10.811   4.324 -1.8231 -1.7219  1.6587
  288MOL0     H38829   3.633  11.088   4.240 -0.6459 -0.2169  1.3473
  288MOL0     H38830   3.692  11.057   4.411 -0.1391  2.0837 -0.2396
  288MOL0     H38831   3.852  11.019   4.055  0.5394 -2.6187  0.4651
  288MOL0     H38832   4.094  11.061   3.969  1.4270  0.8991 -1.2187
  288MOL0     H38833   4.063  11.229   3.962  0.4535 -1.4507 -0.5865
  288MOL0     H38834   4.265  11.111   4.166  0.6435  0.9585  0.2055
  288MOL0     H38835   4.314  11.123   4.001  0.5433  1.1488  0.5740
  288MOL0     H38836   4.226  11.368   4.153 -0.2873  0.8258 -0.8175
  288MOL0     H38837   4.288  11.348   3.993 -1.3058 -0.9051 -0.3806
  288MOL0     H38838   4.452  11.221   4.218  3.4034 -1.0156 -1.1990
  288MOL0     H38839   4.471  11.397   4.184  0.9279  0.2055 -1.1297
  288MOL0     H38840   4.664  11.276   3.818 -1.3012  0.4200  0.3211
  288MOL0     H38841   4.894  11.304   3.790 -0.7039 -1.0178  0.0488
  288MOL0     H38842   5.233  11.673   3.981 -0.1428  0.4861  1.2846
  288MOL0     H38843   5.461  11.738   3.947  1.1122  0.2429  0.6770
  288MOL0     H38844   5.724  11.661   3.775  0.7895  1.4529 -0.2997
  288MOL0     H38845   5.674  11.774   3.904  2.7255  1.3161  0.7058
  288MOL0     H38846   5.861  11.779   4.021 -1.4329 -0.3518  0.0853
  288MOL0     H38847   5.920  11.614   3.974  0.4463 -0.5750 -0.7304
  288MOL0     H38848   5.907  11.867   3.800  1.0393 -0.8729 -1.0429
  288MOL0     H38849   6.044  11.826   3.901  0.8516 -2.9401  1.2619
  288MOL0     H38850   5.939  11.631   3.678 -0.4725  2.2323 -1.0074
  288MOL0     H38851   6.096  11.626   3.761  1.4074  0.7806  1.4657
  288MOL0     H38852   5.987  11.830   3.556 -0.2756  0.9768  0.1055
  288MOL0     H38853   6.085  11.693   3.525 -0.7701  0.4160 -0.3127
  288MOL0     H38854   6.166  11.940   3.692  0.8231 -0.0850 -0.6767
  288MOL0     H38855   6.269  11.795   3.681 -0.8553 -2.3038 -0.1430
  288MOL0     H38856   6.313  12.001   3.501  1.1875 -2.5213 -0.2831
  288MOL0     H38857   6.181  11.909   3.422  0.8729 -0.2319 -1.3107
  288MOL0     H38858   6.428  11.795   3.536  0.9718 -0.4992  0.0278
  288MOL0     H38859   6.311  11.708   3.438  1.0673 -0.2954  1.6251
  288MOL0     H38860   5.602  11.342   4.019  1.7604  1.6797 -0.7913
  288MOL0     H38861   5.361  11.261   4.054  0.9608 -0.5934 -1.2024
  288MOL0     H38862   4.932  11.422   4.207 -0.8835  1.8240  0.0753
  288MOL0     H38863   4.701  11.382   4.239  1.0475  2.8699  0.7276
  288MOL0     H38864   2.903  10.578   4.177 -0.9042 -0.6516 -3.0101
  288MOL0     H38865   2.702  10.607   4.051 -0.7326  1.7076  1.4150
  288MOL0     H38866   2.278  10.488   3.995 -0.4866  0.9213 -2.8267
  288MOL0     H38867   2.060  10.492   3.881  3.7990  0.6166 -0.5072
  288MOL0     H38868   1.700  10.750   3.889  1.3225  0.2064  0.6853
  288MOL0     H38869   1.761  10.748   4.050  3.4025 -1.7230  0.3230
  288MOL0     H38870   1.719  10.518   4.086 -0.9156  0.8500  0.7100
  288MOL0     H38871   1.704  10.473   3.915  0.3392 -1.6540  1.6167
  288MOL0     H38872   1.518  10.680   4.029 -2.3166 -0.2547  0.7565
  288MOL0     H38873   1.496  10.512   4.090 -0.0237  0.1424  0.5140
  288MOL0     H38874   1.473  10.598   3.803 -0.7273  0.0645  0.8956
  288MOL0     H38875   1.476  10.427   3.850 -0.1121  0.2764 -0.8856
  288MOL0     H38876   1.076  10.547   3.918  0.9912  2.2622  1.4607
  288MOL0     H38877   1.933  10.810   4.147  0.9452  0.5673 -0.8408
  288MOL0     H38878   2.064  10.901   4.305  0.4390  0.6637  0.7356
  288MOL0     H38879   2.216  10.841   4.363  0.0068 -0.0369  0.4942
  288MOL0     H38880   2.192  10.954   4.218 -0.7121 -1.5950 -1.5551
  289MOL0     O38881   2.035   8.575   5.406 -0.1416  0.5244 -0.8133
  289MOL0     C38882   1.981   8.679   5.364 -0.5535 -0.3172  0.1808
  289MOL0     O38883   2.051   8.786   5.316 -0.2737 -0.6359 -0.1783
  289MOL0     C38884   2.191   8.767   5.293 -0.2649 -0.8241  0.6425
  289MOL0     C38885   2.244   8.717   5.166 -0.0920  0.4391 -0.5899
  289MOL0     C38886   2.377   8.695   5.156 -0.9279 -0.3554  0.2881
  289MOL0     C38887   2.479   8.724   5.251  0.2316  0.5440 -0.3572
  289MOL0     O38888   2.614   8.722   5.220 -0.0448 -0.0418 -0.0303
  289MOL0     C38889   2.719   8.747   5.312 -0.6612  0.1581  0.4626
  289MOL0     C38890   2.836   8.684   5.237  0.2150 -0.6213  0.3123
  289MOL0     C38891   2.965   8.709   5.323  0.3385 -0.0004  0.1038
  289MOL0     C38892   3.062   8.602   5.277  0.2115 -0.1377  0.5029
  289MOL0     C38893   3.192   8.601   5.353  0.1718 -0.0705  0.3035
  289MOL0     C38894   3.283   8.700   5.302 -0.5860  0.4055  0.3521
  289MOL0     C38895   3.423   8.684   5.373  1.1285 -0.4724  0.2373
  289MOL0     C38896   3.513   8.805   5.338 -0.1345  0.2882 -0.0412
  289MOL0     N38897   3.652   8.789   5.390 -0.0568 -0.1205  0.3777
  289MOL0     C38898   3.776   8.815   5.318 -0.7139  0.2111 -0.1490
  289MOL0     C38899   3.872   8.783   5.404  0.2145  0.2800 -0.6224
  289MOL0     C38900   4.021   8.790   5.392  0.4764 -0.5691  0.3778
  289MOL0     C38901   4.067   8.656   5.348 -1.1735  0.9662 -0.4511
  289MOL0     C38902   4.223   8.652   5.332  0.0675 -0.2576 -0.0256
  289MOL0     C38903   4.296   8.646   5.467  0.0430 -0.1259  0.7874
  289MOL0     O38904   4.371   8.528   5.479 -0.1756  0.0251 -0.2174
  289MOL0     C38905   4.508   8.528   5.453  0.3436  0.4379  0.5493
  289MOL0     C38906   4.574   8.643   5.390 -0.6078 -0.5964  0.0636
  289MOL0     C38907   4.718   8.641   5.375  0.2244  0.1480 -0.5022
  289MOL0     C38908   4.788   8.521   5.408 -0.6874 -0.3317  1.1554
  289MOL0     C38909   4.937   8.511   5.403 -0.2169  0.0382 -0.6761
  289MOL0     O38910   5.004   8.607   5.330 -0.3922 -0.3112 -0.2638
  289MOL0     C38911   5.143   8.600   5.324  0.5475  0.6255  0.4278
  289MOL0     C38912   5.214   8.720   5.359 -0.6122  0.2926 -0.2273
  289MOL0     C38913   5.354   8.722   5.351  0.4073  0.4525 -0.0001
  289MOL0     C38914   5.420   8.606   5.313 -0.6594  0.5070  0.1992
  289MOL0     O38915   5.556   8.585   5.313  0.6035 -0.9230 -0.7481
  289MOL0     C38916   5.642   8.698   5.332 -0.4018  0.3533 -0.4636
  289MOL0     C38917   5.789   8.647   5.355  0.8567  0.2251 -0.0730
  289MOL0     C38918   5.801   8.588   5.492 -0.1506 -0.4318 -0.2381
  289MOL0     C38919   5.946   8.589   5.539  0.1166 -0.6881 -0.8735
  289MOL0     C38920   5.964   8.540   5.679 -0.9345 -0.3318 -0.1529
  289MOL0     C38921   6.117   8.525   5.715 -0.4755  0.6556 -0.4251
  289MOL0     C38922   6.146   8.558   5.864  0.3516 -0.1584  0.4218
  289MOL0     C38923   6.292   8.530   5.892  0.8041 -0.0744 -0.3421
  289MOL0    Cl38924   6.321   8.555   6.066 -0.1921  0.0758 -0.6861
  289MOL0     C38925   5.344   8.483   5.276  0.1563  0.3408 -0.5411
  289MOL0     C38926   5.205   8.487   5.270  0.0031  0.7282  0.3191
  289MOL0     O38927   4.998   8.416   5.460 -0.5058  0.8502 -0.2197
  289MOL0     C38928   4.716   8.413   5.448 -0.5247  0.4172  0.0242
  289MOL0     C38929   4.581   8.417   5.473  0.7394  0.5328  0.2953
  289MOL0     N38930   3.823   8.742   5.527 -0.3566  0.0868  0.8899
  289MOL0     N38931   3.693   8.759   5.514 -0.5571 -0.1858  0.3013
  289MOL0     C38932   2.416   8.765   5.374 -1.2267  0.1086  0.4497
  289MOL0     C38933   2.279   8.795   5.391 -0.3955 -0.3070 -0.5544
  289MOL0     C38934   1.828   8.676   5.350 -0.8639  0.5456  0.6947
  289MOL0     C38935   1.770   8.792   5.292  0.4936  0.4250 -0.0002
  289MOL0     C38936   1.636   8.809   5.284 -0.4011  0.1852  0.0374
  289MOL0     C38937   1.554   8.716   5.339  0.3110 -0.5007  0.6891
  289MOL0     O38938   1.426   8.745   5.359 -0.1436  0.2199  0.3021
  289MOL0     C38939   1.345   8.690   5.251 -0.0630 -0.8147  0.6492
  289MOL0     C38940   1.199   8.693   5.284 -0.3913 -0.1595  0.5899
  289MOL0     C38941   1.163   8.597   5.398  0.4528  0.5266 -0.0765
  289MOL0     C38942   1.024   8.642   5.447 -0.3340  0.0827  0.3742
  289MOL0     C38943   1.006   8.785   5.489  0.2017  1.2313 -0.0561
  289MOL0     C38944   0.980   8.893   5.529  0.3451  0.4407 -0.5909
  289MOL0     C38945   1.601   8.594   5.380  0.3179  0.0133 -0.0288
  289MOL0     C38946   1.741   8.569   5.387  0.6825 -0.0053  0.0461
  289MOL0     C38947   1.787   8.430   5.443  0.3659 -0.8310  0.0647
  289MOL0     H38948   2.186   8.707   5.075  0.2344 -0.6008 -0.6919
  289MOL0     H38949   2.416   8.673   5.057  3.6469  1.8677  1.2793
  289MOL0     H38950   2.737   8.855   5.321  1.0927 -0.2302  2.3622
  289MOL0     H38951   2.705   8.705   5.412 -1.8009 -1.2838 -0.2622
  289MOL0     H38952   2.858   8.725   5.138 -1.2728 -1.1074 -0.2470
  289MOL0     H38953   2.810   8.579   5.221  0.2496 -0.5017 -0.5581
  289MOL0     H38954   2.939   8.699   5.429 -2.3221 -0.2108 -0.5083
  289MOL0     H38955   2.998   8.809   5.294 -2.2558  0.6737 -0.8176
  289MOL0     H38956   3.008   8.507   5.289  2.2531 -1.2634  1.1768
  289MOL0     H38957   3.084   8.608   5.171  0.1370 -1.9948  0.3495
  289MOL0     H38958   3.161   8.616   5.457 -2.3199  1.0443 -0.5184
  289MOL0     H38959   3.245   8.506   5.348  0.4204  0.0158  1.1768
  289MOL0     H38960   3.285   8.694   5.192 -2.5771  0.6788  0.2610
  289MOL0     H38961   3.234   8.795   5.327 -0.7010  0.0463  1.5394
  289MOL0     H38962   3.476   8.592   5.347  1.9304  0.5161 -1.8663
  289MOL0     H38963   3.410   8.689   5.481 -0.2428  1.3706  0.0406
  289MOL0     H38964   3.529   8.810   5.230 -0.0444 -2.1506 -0.1965
  289MOL0     H38965   3.477   8.902   5.374 -1.6220 -0.0965 -0.4414
  289MOL0     H38966   3.794   8.853   5.218 -1.8781  0.4930 -0.2739
  289MOL0     H38967   4.029   8.871   5.319 -1.4825  1.2836  2.1009
  289MOL0     H38968   4.073   8.826   5.481  0.7199 -1.3823  0.5728
  289MOL0     H38969   4.038   8.584   5.425 -1.6665  0.8981 -0.6946
  289MOL0     H38970   4.016   8.618   5.259 -1.0840  0.6197 -0.3577
  289MOL0     H38971   4.257   8.747   5.289 -1.5305  1.3020  1.9606
  289MOL0     H38972   4.251   8.563   5.275 -1.2640 -2.0662  1.9862
  289MOL0     H38973   4.226   8.651   5.551 -1.4201  0.4862 -0.4395
  289MOL0     H38974   4.359   8.735   5.478  1.3721 -1.2226  2.8702
  289MOL0     H38975   4.531   8.741   5.371  4.3802  2.0986  0.9691
  289MOL0     H38976   4.773   8.734   5.365 -1.0118  0.9411 -0.1098
  289MOL0     H38977   5.149   8.801   5.392 -0.0393  0.2713  1.0478
  289MOL0     H38978   5.415   8.805   5.384  3.8493 -2.4476  1.5665
  289MOL0     H38979   5.641   8.763   5.244  0.6638  1.1197  0.0623
  289MOL0     H38980   5.621   8.775   5.407  1.0272  0.9887 -0.6715
  289MOL0     H38981   5.801   8.564   5.284 -0.0790  0.7727 -0.8963
  289MOL0     H38982   5.863   8.725   5.335  2.4788 -1.6929 -2.0472
  289MOL0     H38983   5.741   8.643   5.566  1.6408  1.6535 -0.2177
  289MOL0     H38984   5.752   8.490   5.493 -3.0827  0.8941 -1.2677
  289MOL0     H38985   5.990   8.689   5.546  0.9930 -1.1332  3.7615
  289MOL0     H38986   6.011   8.529   5.476  0.2165 -0.2269 -1.2147
  289MOL0     H38987   5.908   8.448   5.700  0.2940 -0.9808  0.4172
  289MOL0     H38988   5.922   8.625   5.733  0.8251  2.7007 -3.1836
  289MOL0     H38989   6.157   8.428   5.683 -1.6976  0.4138 -1.3143
  289MOL0     H38990   6.165   8.608   5.663 -0.0038  0.3527 -0.4822
  289MOL0     H38991   6.079   8.494   5.922  0.3853  0.2494  0.9196
  289MOL0     H38992   6.115   8.660   5.887  0.8631 -0.5097  2.8774
  289MOL0     H38993   6.316   8.427   5.863  0.4493  0.4370 -2.6680
  289MOL0     H38994   6.362   8.591   5.834  0.6817 -0.0858 -0.5028
  289MOL0     H38995   5.384   8.389   5.241 -0.6542  0.0902 -0.8083
  289MOL0     H38996   5.164   8.394   5.233  0.2601  0.2835  1.1225
  289MOL0     H38997   4.768   8.322   5.478  0.5173  1.7627  2.5383
  289MOL0     H38998   4.533   8.327   5.510  1.1809 -0.1755 -0.7763
  289MOL0     H38999   2.488   8.791   5.451 -0.3855  0.4967 -0.4474
  289MOL0     H39000   2.232   8.830   5.483  3.0393  0.6194  1.0120
  289MOL0     H39001   1.836   8.876   5.271  1.9090 -0.0433  2.1889
  289MOL0     H39002   1.598   8.903   5.244  1.1553  0.1421 -1.6476
  289MOL0     H39003   1.368   8.586   5.226  0.5616 -0.9020  1.5221
  289MOL0     H39004   1.362   8.746   5.159  0.4182  1.1098  1.8703
  289MOL0     H39005   1.148   8.658   5.193  0.1542  1.5348 -0.4225
  289MOL0     H39006   1.172   8.797   5.306  1.4964  0.5310 -0.1088
  289MOL0     H39007   1.230   8.612   5.483 -1.6049  0.7312  1.5814
  289MOL0     H39008   1.168   8.493   5.362 -0.6608  0.0780  0.9928
  289MOL0     H39009   0.960   8.627   5.360  1.2172  2.2032 -1.2328
  289MOL0     H39010   0.980   8.572   5.519 -2.0345 -0.4840 -1.1244
  289MOL0     H39011   0.929   8.977   5.571  1.0138  0.8320 -0.5397
  289MOL0     H39012   1.532   8.516   5.409  3.2710 -2.1884  1.6504
  289MOL0     H39013   1.707   8.356   5.447  1.6311 -2.2136  1.2885
  289MOL0     H39014   1.858   8.395   5.367 -0.4746  1.0515 -1.6486
  289MOL0     H39015   1.833   8.427   5.543  0.6426 -3.6490 -0.0636
  290MOL0     O39016  10.384   4.596   8.423 -0.0964  0.1298 -0.6349
  290MOL0     C39017  10.285   4.656   8.476 -0.2026 -0.1802 -0.7289
  290MOL0     O39018  10.295   4.782   8.536 -0.3952  0.0419 -0.1290
  290MOL0     C39019  10.415   4.822   8.558 -0.8412 -0.4586  0.5275
  290MOL0     C39020  10.454   4.928   8.479  0.2980 -0.6577  0.5139
  290MOL0     C39021  10.589   4.971   8.483 -0.0696  0.1851 -0.1319
  290MOL0     C39022  10.686   4.907   8.562  0.2653  0.1603 -0.0298
  290MOL0     O39023  10.818   4.957   8.562 -0.2495 -0.2928  0.0179
  290MOL0     C39024  10.908   4.911   8.664 -0.6238  0.6060 -1.3155
  290MOL0     C39025  11.036   4.992   8.650  0.2674 -0.7768  0.5758
  290MOL0     C39026  11.139   4.933   8.752  0.5601 -0.8005 -0.9696
  290MOL0     C39027  11.237   4.842   8.684  0.8650 -0.6372  0.1305
  290MOL0     C39028  11.340   4.787   8.785  0.1142  0.6032  0.1233
  290MOL0     C39029  11.436   4.684   8.730 -0.1022 -0.6079 -0.2724
  290MOL0     C39030  11.541   4.749   8.637 -0.8188 -0.3591 -0.3565
  290MOL0     C39031  11.644   4.823   8.715 -0.0587  0.4534  0.4216
  290MOL0     N39032  11.784   4.770   8.713 -0.3985 -0.8316 -0.9347
  290MOL0     C39033  11.828   4.644   8.743 -0.3706  0.4518  0.4000
  290MOL0     C39034  11.963   4.637   8.733  0.4846 -0.8808 -0.6930
  290MOL0     C39035  12.052   4.523   8.758 -0.8074  0.3707 -0.1510
  290MOL0     C39036  12.190   4.565   8.799  0.3700  0.4100 -0.2817
  290MOL0     C39037  12.277   4.620   8.687 -1.1852  0.2224 -0.3331
  290MOL0     C39038  12.426   4.605   8.716 -0.9510  1.5900 -0.1613
  290MOL0     O39039  12.504   4.616   8.587  0.5166 -0.2780  0.2004
  290MOL0     C39040  12.632   4.594   8.591 -0.2177  0.5110  0.7061
  290MOL0     C39041  12.712   4.614   8.704  0.3910  0.5569  0.4307
  290MOL0     C39042  12.851   4.580   8.706 -0.1555 -0.5061 -0.2678
  290MOL0     C39043  12.913   4.538   8.583 -0.2813 -0.3689 -0.4872
  290MOL0     C39044  13.061   4.510   8.582 -0.6558 -0.3347  0.5538
  290MOL0     O39045  13.129   4.504   8.462 -0.1130  0.4226  0.1440
  290MOL0     C39046  13.265   4.492   8.451 -0.7330  0.3823 -0.1715
  290MOL0     C39047  13.319   4.405   8.351  0.9031  0.1251 -0.6956
  290MOL0     C39048  13.455   4.376   8.351  0.1470  0.2873  0.0861
  290MOL0     C39049  13.537   4.429   8.444 -0.5543  0.5671 -0.0759
  290MOL0     O39050  13.672   4.391   8.463  0.3691 -0.3314 -0.1812
  290MOL0     C39051  13.727   4.279   8.404  0.5359  0.5122 -0.1128
  290MOL0     C39052  13.860   4.241   8.452  0.4790 -0.5070  0.1253
  290MOL0     C39053  13.921   4.134   8.369 -0.0778  0.6644  0.2615
  290MOL0     C39054  14.041   4.070   8.441  0.0671  0.9422 -0.0924
  290MOL0     C39055  14.094   3.951   8.360  0.0750  0.5043 -0.5664
  290MOL0     C39056  14.164   3.991   8.228 -0.5138  0.4659  0.1381
  290MOL0     C39057  14.289   3.917   8.193  0.9411  1.0414  0.6392
  290MOL0     C39058  14.341   3.937   8.052  0.5450  0.2559  0.0690
  290MOL0    Cl39059  14.392   4.102   8.021 -0.0814  0.0166 -0.0696
  290MOL0     C39060  13.487   4.522   8.530  0.4987  0.5598 -0.3537
  290MOL0     C39061  13.354   4.557   8.538  0.3198  0.1930  0.7595
  290MOL0     O39062  13.119   4.493   8.689  0.2116 -0.8796 -0.1496
  290MOL0     C39063  12.834   4.532   8.467  0.1301 -0.9139  0.5075
  290MOL0     C39064  12.697   4.568   8.465 -0.0108 -0.1275 -0.8147
  290MOL0     N39065  11.995   4.765   8.702 -0.4717 -0.5351 -0.4098
  290MOL0     N39066  11.894   4.846   8.704  0.1976  0.6391 -0.3114
  290MOL0     C39067  10.639   4.804   8.642  0.1313 -0.8615  0.1255
  290MOL0     C39068  10.506   4.762   8.636  0.6901  0.8530 -0.0220
  290MOL0     C39069  10.140   4.604   8.476  0.0193  0.8883 -0.2172
  290MOL0     C39070  10.036   4.682   8.531 -0.6491  0.0915 -0.3185
  290MOL0     C39071   9.903   4.656   8.509 -0.3351 -0.3136  1.2823
  290MOL0     C39072   9.859   4.537   8.446  0.2322  0.1048  0.0799
  290MOL0     O39073   9.727   4.494   8.433 -0.1121  0.1419 -0.2802
  290MOL0     C39074   9.613   4.569   8.486 -0.0190  0.2115 -0.3260
  290MOL0     C39075   9.589   4.557   8.640 -0.6295 -0.3100  0.5492
  290MOL0     C39076   9.564   4.410   8.690  0.5912 -0.9288 -0.3460
  290MOL0     C39077   9.454   4.329   8.616 -0.5477 -0.0273 -0.0627
  290MOL0     C39078   9.502   4.265   8.496 -0.4551 -0.1256  0.7508
  290MOL0     C39079   9.546   4.233   8.393 -0.2922 -0.4348 -0.1903
  290MOL0     C39080   9.968   4.456   8.412  0.8573  0.2163  0.3702
  290MOL0     C39081  10.103   4.481   8.423 -0.2920 -0.3426  0.0535
  290MOL0     C39082  10.196   4.373   8.374  0.3776  0.3277 -1.0214
  290MOL0     H39083  10.385   4.978   8.412 -1.2823 -0.8811  1.9139
  290MOL0     H39084  10.621   5.051   8.417 -0.4348 -0.0178 -0.5628
  290MOL0     H39085  10.868   4.928   8.765 -3.1525 -0.6860 -2.0238
  290MOL0     H39086  10.936   4.805   8.668 -1.5995  0.2242  4.0714
  290MOL0     H39087  11.017   5.099   8.657 -0.6614 -0.8173 -0.8014
  290MOL0     H39088  11.073   4.990   8.547  0.5095 -0.5372  0.6573
  290MOL0     H39089  11.085   4.872   8.825 -0.3343 -0.8154 -1.6180
  290MOL0     H39090  11.199   5.011   8.800 -1.1588  0.6182 -1.0242
  290MOL0     H39091  11.189   4.757   8.636 -1.2564  0.7011 -0.2508
  290MOL0     H39092  11.288   4.890   8.599 -1.4966 -0.0700 -1.0365
  290MOL0     H39093  11.398   4.868   8.830  3.8632 -0.0129 -3.0916
  290MOL0     H39094  11.286   4.730   8.862  0.6829 -0.8875 -0.5334
  290MOL0     H39095  11.486   4.625   8.808 -4.7631 -0.7352  3.0379
  290MOL0     H39096  11.377   4.615   8.670  0.7441  0.0834 -1.9529
  290MOL0     H39097  11.505   4.811   8.554 -0.2403  2.7497  1.5734
  290MOL0     H39098  11.582   4.665   8.580  2.5772 -3.2119  5.3974
  290MOL0     H39099  11.646   4.925   8.677 -0.1050  0.2437 -0.1652
  290MOL0     H39100  11.614   4.829   8.820 -1.1507 -3.9297  0.5697
  290MOL0     H39101  11.755   4.574   8.783 -0.9217  0.5807 -0.3500
  290MOL0     H39102  12.008   4.451   8.827 -1.5224  1.0607  0.1216
  290MOL0     H39103  12.069   4.479   8.659  1.4526 -2.0226  1.1870
  290MOL0     H39104  12.174   4.640   8.877 -0.1178 -0.2298  0.2457
  290MOL0     H39105  12.245   4.483   8.847 -0.3997  0.3367  0.5228
  290MOL0     H39106  12.252   4.725   8.668 -0.9838  0.6093  1.3200
  290MOL0     H39107  12.267   4.555   8.600 -0.4385  0.1582 -0.3835
  290MOL0     H39108  12.463   4.517   8.770  1.1645  1.7287 -1.2534
  290MOL0     H39109  12.453   4.692   8.777 -1.2548  1.0841  0.7125
  290MOL0     H39110  12.668   4.642   8.799  3.3156  1.1046  1.7305
  290MOL0     H39111  12.911   4.608   8.792  2.0203  0.6593 -2.0557
  290MOL0     H39112  13.249   4.358   8.283 -0.2099 -0.0415  0.5327
  290MOL0     H39113  13.488   4.307   8.274 -1.0464 -0.2855  0.0773
  290MOL0     H39114  13.654   4.199   8.419 -0.3389  0.9041 -2.0449
  290MOL0     H39115  13.734   4.303   8.298  0.3707  2.0682  0.2096
  290MOL0     H39116  13.915   4.336   8.453 -1.2912  0.5627  0.8671
  290MOL0     H39117  13.855   4.206   8.555  2.2353  3.8001  1.9317
  290MOL0     H39118  13.856   4.050   8.342  1.3124 -1.0731  1.9464
  290MOL0     H39119  13.962   4.178   8.278  1.5517  0.4034  0.8215
  290MOL0     H39120  14.010   4.043   8.542 -0.4882  1.0453 -0.2303
  290MOL0     H39121  14.127   4.135   8.456  1.2188  0.2362 -3.0489
  290MOL0     H39122  14.013   3.881   8.336 -0.6088  0.2951  2.0492
  290MOL0     H39123  14.166   3.898   8.423 -1.2066 -0.5630  0.0554
  290MOL0     H39124  14.089   3.970   8.151  1.1381 -2.6602 -0.7901
  290MOL0     H39125  14.193   4.097   8.230  3.2791 -0.3447 -2.0407
  290MOL0     H39126  14.269   3.810   8.200  1.0864  0.9314 -0.4310
  290MOL0     H39127  14.377   3.945   8.253  1.3006  0.0281  0.5940
  290MOL0     H39128  14.410   3.859   8.020 -0.8700 -0.8849 -0.2774
  290MOL0     H39129  14.260   3.915   7.982 -0.4700 -2.6076  1.9768
  290MOL0     H39130  13.556   4.568   8.599  0.8694 -0.2056 -0.2030
  290MOL0     H39131  13.335   4.628   8.618  3.6772 -0.5632  2.4301
  290MOL0     H39132  12.871   4.490   8.374 -2.9824  1.4664 -1.9875
  290MOL0     H39133  12.631   4.566   8.379 -0.0501  1.2396 -0.8408
  290MOL0     H39134  10.713   4.756   8.705  1.8175 -0.4970 -1.4875
  290MOL0     H39135  10.467   4.681   8.697  2.1021  1.9369  2.4609
  290MOL0     H39136  10.063   4.777   8.575  1.4006 -0.8450  0.5698
  290MOL0     H39137   9.827   4.725   8.544  1.3089  1.0055  2.3982
  290MOL0     H39138   9.520   4.529   8.445 -1.1796  1.2012  1.2168
  290MOL0     H39139   9.610   4.675   8.457  1.3726  1.0884  2.3908
  290MOL0     H39140   9.499   4.614   8.662 -1.1016 -1.2554  1.1326
  290MOL0     H39141   9.674   4.605   8.690 -1.3519  2.2180 -0.5003
  290MOL0     H39142   9.552   4.403   8.798 -3.5240  1.1259 -0.4717
  290MOL0     H39143   9.660   4.358   8.685  0.2101 -1.9018  1.7580
  290MOL0     H39144   9.424   4.248   8.683  0.7270 -0.0644  0.5004
  290MOL0     H39145   9.375   4.395   8.580 -1.4127 -0.5754  0.8040
  290MOL0     H39146   9.597   4.239   8.299 -1.3491  0.5899 -0.7334
  290MOL0     H39147   9.944   4.356   8.379  0.4325 -1.7877  5.7271
  290MOL0     H39148  10.144   4.279   8.352  0.6237 -0.0072 -0.2311
  290MOL0     H39149  10.246   4.416   8.287 -0.7046  2.4930 -0.6175
  290MOL0     H39150  10.271   4.347   8.449 -1.1038  0.0626  0.4189
  291MOL0     O39151   6.994   7.386   6.730 -0.6166  0.1897 -0.0481
  291MOL0     C39152   6.874   7.356   6.753  0.3556 -0.1569  0.3170
  291MOL0     O39153   6.785   7.431   6.840 -0.2704 -0.6409  0.6625
  291MOL0     C39154   6.813   7.559   6.881  0.1858  0.0825  0.5327
  291MOL0     C39155   6.799   7.587   7.016  0.1332 -0.1428  0.3668
  291MOL0     C39156   6.856   7.703   7.077 -0.0398  0.9589 -0.0219
  291MOL0     C39157   6.914   7.800   6.994  0.1652  0.1671  0.1036
  291MOL0     O39158   6.983   7.896   7.064  0.2070  0.3043  0.2464
  291MOL0     C39159   7.077   7.975   6.990  0.0761  0.0467 -0.6534
  291MOL0     C39160   7.165   8.042   7.096  0.1801 -0.1896  0.6198
  291MOL0     C39161   7.259   7.952   7.167 -0.0158  0.4417  0.0981
  291MOL0     C39162   7.320   8.006   7.292 -0.2132  0.3835  0.6269
  291MOL0     C39163   7.429   7.910   7.337 -0.3813 -0.1140  0.6246
  291MOL0     C39164   7.441   7.903   7.494 -0.1226  0.2242 -0.7490
  291MOL0     C39165   7.468   8.029   7.569 -0.0393 -0.2499 -0.6268
  291MOL0     C39166   7.505   7.998   7.717 -0.2316  0.9014 -0.3564
  291MOL0     N39167   7.651   7.995   7.744 -0.3485 -0.3041 -0.3113
  291MOL0     C39168   7.719   7.881   7.750  0.6956  0.6263 -0.4324
  291MOL0     C39169   7.844   7.918   7.768  0.3363 -0.0059  0.5664
  291MOL0     C39170   7.973   7.831   7.787  0.0075 -0.4898  0.0191
  291MOL0     C39171   8.040   7.780   7.651 -0.1594 -0.2478 -0.2550
  291MOL0     C39172   8.113   7.889   7.576 -0.4523  0.2788  0.9341
  291MOL0     C39173   8.208   7.837   7.472 -0.0697 -0.1298  0.6875
  291MOL0     O39174   8.335   7.803   7.528 -0.3935  0.0564 -0.3127
  291MOL0     C39175   8.432   7.770   7.431  0.2167  0.4069 -0.1999
  291MOL0     C39176   8.409   7.730   7.294 -1.3050 -0.2965 -0.2447
  291MOL0     C39177   8.509   7.668   7.218  0.0583  0.0360 -0.7357
  291MOL0     C39178   8.642   7.676   7.252  0.2364 -0.2667 -0.1232
  291MOL0     C39179   8.750   7.616   7.171  0.1012  0.5571  0.6828
  291MOL0     O39180   8.873   7.626   7.222 -0.4162  0.0180  0.6144
  291MOL0     C39181   8.976   7.598   7.146  0.3629  0.4509  0.4013
  291MOL0     C39182   9.000   7.662   7.021 -0.2190  0.2546 -0.6540
  291MOL0     C39183   9.112   7.622   6.951  0.2652  0.1456  0.4575
  291MOL0     C39184   9.210   7.536   7.002  0.2671  0.5971  0.1503
  291MOL0     O39185   9.320   7.500   6.932 -0.3659  0.1465 -0.1183
  291MOL0     C39186   9.348   7.568   6.813 -0.5465  0.2125 -0.2453
  291MOL0     C39187   9.496   7.540   6.785  0.2610  0.1799  1.2560
  291MOL0     C39188   9.560   7.633   6.683  0.0282 -0.4564 -0.1685
  291MOL0     C39189   9.476   7.658   6.558 -0.7078  0.3390 -0.0078
  291MOL0     C39190   9.556   7.760   6.460 -0.0031  0.0679  0.3378
  291MOL0     C39191   9.483   7.779   6.330 -0.7783 -0.3679 -0.2926
  291MOL0     C39192   9.568   7.864   6.237  0.2423  0.3766  0.1620
  291MOL0     C39193   9.474   7.957   6.166  0.0445 -0.5193  0.2580
  291MOL0    Cl39194   9.360   7.875   6.058  0.3026  0.2553 -0.0571
  291MOL0     C39195   9.189   7.479   7.132 -0.6862 -1.0023 -0.4715
  291MOL0     C39196   9.075   7.517   7.202 -0.1983 -0.2903 -0.6034
  291MOL0     O39197   8.723   7.562   7.060  0.0120 -0.4950 -0.4437
  291MOL0     C39198   8.666   7.735   7.379  0.3274 -0.1271  0.0689
  291MOL0     C39199   8.561   7.773   7.466  0.4800  0.4066 -0.4787
  291MOL0     N39200   7.847   8.055   7.782 -0.5749 -0.2844  1.0132
  291MOL0     N39201   7.730   8.102   7.755 -0.4152 -0.3816  0.7501
  291MOL0     C39202   6.914   7.780   6.854  0.0343  0.3080  0.4737
  291MOL0     C39203   6.870   7.661   6.797  0.4907  0.0686 -0.3965
  291MOL0     C39204   6.803   7.242   6.695  0.7787 -0.9783 -0.9445
  291MOL0     C39205   6.860   7.117   6.721 -0.2694 -0.3080  0.9546
  291MOL0     C39206   6.802   7.001   6.670  0.3257  0.7894  0.1497
  291MOL0     C39207   6.678   7.011   6.601 -0.1334 -0.0719 -0.3906
  291MOL0     O39208   6.623   6.899   6.545 -0.7062 -0.5641  0.7205
  291MOL0     C39209   6.487   6.889   6.517 -0.2377  0.2954 -0.2248
  291MOL0     C39210   6.403   6.897   6.640 -0.3309 -0.0301 -0.7983
  291MOL0     C39211   6.242   6.880   6.626 -0.5068 -0.1795  0.4504
  291MOL0     C39212   6.177   6.936   6.751 -0.3179 -0.1906 -0.5908
  291MOL0     C39213   6.029   6.936   6.748  0.6241 -0.3728  0.3693
  291MOL0     C39214   5.910   6.938   6.730 -0.8869  0.2483 -0.2569
  291MOL0     C39215   6.621   7.134   6.589  0.5516  0.4018 -1.0212
  291MOL0     C39216   6.680   7.256   6.634  1.1284 -0.0464 -1.2271
  291MOL0     C39217   6.629   7.401   6.600  0.3637  0.3048 -0.1237
  291MOL0     H39218   6.747   7.513   7.075  0.2948 -1.9102 -1.5565
  291MOL0     H39219   6.848   7.717   7.184 -1.0172 -0.1996  0.0854
  291MOL0     H39220   7.134   7.913   6.921  1.2248  0.1711  0.1506
  291MOL0     H39221   7.024   8.042   6.922 -2.0581 -0.8799  0.0165
  291MOL0     H39222   7.106   8.108   7.161  2.5102 -0.8724  3.6854
  291MOL0     H39223   7.238   8.105   7.045 -0.1784  0.1417  0.5134
  291MOL0     H39224   7.343   7.917   7.105 -0.7831 -1.7922  0.2421
  291MOL0     H39225   7.208   7.860   7.196  0.5968 -0.2204 -0.8423
  291MOL0     H39226   7.371   8.100   7.269 -0.4326  0.4479  0.3905
  291MOL0     H39227   7.250   8.014   7.375 -1.1891 -0.1758 -0.1147
  291MOL0     H39228   7.406   7.810   7.298 -0.4264  0.3409 -0.5763
  291MOL0     H39229   7.524   7.943   7.296 -0.9305  1.2934  0.4225
  291MOL0     H39230   7.351   7.857   7.536 -0.2267  1.0787 -0.0080
  291MOL0     H39231   7.514   7.825   7.518 -0.3759 -0.4431 -2.0573
  291MOL0     H39232   7.373   8.082   7.566  1.2396  2.3427  0.9854
  291MOL0     H39233   7.543   8.104   7.542  0.7551  0.2486  2.5482
  291MOL0     H39234   7.481   8.090   7.771  3.7058  2.1192 -0.3398
  291MOL0     H39235   7.445   7.913   7.749  0.9859  0.2475  0.2904
  291MOL0     H39236   7.686   7.778   7.753 -0.2295  0.8181 -2.4262
  291MOL0     H39237   8.045   7.898   7.833  2.9753 -1.2904 -3.0698
  291MOL0     H39238   7.943   7.750   7.854  0.5496 -0.4474  0.3128
  291MOL0     H39239   8.116   7.705   7.671  0.6752  0.6711  0.0894
  291MOL0     H39240   7.961   7.724   7.598 -0.4234 -0.2917  0.1818
  291MOL0     H39241   8.160   7.958   7.646 -0.3922 -0.2886  1.4601
  291MOL0     H39242   8.036   7.939   7.516  1.4631  1.1848 -0.9086
  291MOL0     H39243   8.222   7.905   7.387 -3.8194 -1.6873 -1.4187
  291MOL0     H39244   8.161   7.750   7.424 -1.1585  1.4715 -1.2830
  291MOL0     H39245   8.310   7.733   7.251  0.4021  2.7195 -4.6086
  291MOL0     H39246   8.476   7.614   7.130 -4.6860 -1.0057  1.3543
  291MOL0     H39247   8.922   7.722   6.975 -1.0538  0.5462  1.0755
  291MOL0     H39248   9.126   7.661   6.851  2.8066 -0.2180  0.6212
  291MOL0     H39249   9.282   7.549   6.728  0.7596 -0.0969 -1.2243
  291MOL0     H39250   9.353   7.674   6.838 -1.1775  0.4541 -1.0943
  291MOL0     H39251   9.547   7.556   6.880  4.0630  3.6602 -1.0317
  291MOL0     H39252   9.511   7.436   6.752 -2.5988 -0.0318  0.3087
  291MOL0     H39253   9.574   7.730   6.731  0.2254 -1.2896  1.5120
  291MOL0     H39254   9.657   7.598   6.647  0.4085  1.6615 -1.3905
  291MOL0     H39255   9.381   7.703   6.589 -0.5695  0.7683 -0.2082
  291MOL0     H39256   9.467   7.566   6.500  1.4731 -0.7667  1.2692
  291MOL0     H39257   9.658   7.724   6.446  0.6739  0.4760  3.4215
  291MOL0     H39258   9.566   7.861   6.502 -1.5057  0.3673  0.0224
  291MOL0     H39259   9.468   7.682   6.283 -1.0126  0.6221 -2.4124
  291MOL0     H39260   9.389   7.832   6.350 -0.1623  1.1695 -1.2457
  291MOL0     H39261   9.626   7.802   6.168 -0.1044 -0.1162  0.3123
  291MOL0     H39262   9.639   7.919   6.300 -0.3478 -0.6501  1.7773
  291MOL0     H39263   9.413   8.021   6.231 -0.8013  0.1538 -1.1538
  291MOL0     H39264   9.526   8.017   6.091 -0.5065 -3.4955 -2.7499
  291MOL0     H39265   9.254   7.408   7.180  1.9645 -0.0978 -2.4745
  291MOL0     H39266   9.053   7.476   7.300 -0.4327 -1.6024 -1.1879
  291MOL0     H39267   8.764   7.725   7.423  0.3396 -2.5225 -0.4126
  291MOL0     H39268   8.588   7.789   7.570  1.5710 -0.5760 -0.5842
  291MOL0     H39269   6.958   7.855   6.788  0.5938 -1.4634 -1.2850
  291MOL0     H39270   6.896   7.626   6.698 -0.0902 -3.1393  0.4568
  291MOL0     H39271   6.952   7.108   6.778 -0.4774 -0.9065  1.2078
  291MOL0     H39272   6.849   6.903   6.670  2.3403  1.7267 -0.5454
  291MOL0     H39273   6.468   6.791   6.472  2.4811 -0.4544  0.0878
  291MOL0     H39274   6.455   6.958   6.439  0.8174 -1.9986 -2.8458
  291MOL0     H39275   6.429   6.992   6.688 -0.4506 -0.4698  0.1433
  291MOL0     H39276   6.449   6.823   6.705  2.0264  0.3496 -1.9081
  291MOL0     H39277   6.221   6.774   6.609 -0.1758 -0.1848  0.0545
  291MOL0     H39278   6.207   6.924   6.532 -0.8124  2.3827  1.6927
  291MOL0     H39279   6.207   6.876   6.837  0.5653  1.9470  0.6482
  291MOL0     H39280   6.212   7.037   6.773 -2.1478  0.8339 -2.1004
  291MOL0     H39281   5.804   6.940   6.713 -1.2371 -1.7707  1.3336
  291MOL0     H39282   6.526   7.155   6.543 -1.1151 -3.5597  0.1148
  291MOL0     H39283   6.557   7.392   6.518  1.6213 -1.3394 -1.1095
  291MOL0     H39284   6.573   7.444   6.684 -0.0292  0.3625 -0.4146
  291MOL0     H39285   6.708   7.469   6.567  1.1677 -0.3868  0.3558
  292MOL0     O39286   4.499   0.109   9.078 -0.1433  0.1688  1.0728
  292MOL0     C39287   4.469   0.207   9.142  0.0657 -0.1298  0.7015
  292MOL0     O39288   4.553   0.313   9.162  0.3283 -0.2494 -0.4036
  292MOL0     C39289   4.683   0.283   9.138  0.9202 -0.2681  0.1257
  292MOL0     C39290   4.742   0.325   9.015 -0.2028  0.1597  0.3061
  292MOL0     C39291   4.879   0.297   8.998 -0.4095 -0.0713 -0.2165
  292MOL0     C39292   4.956   0.233   9.094 -0.4401  0.0627  0.3217
  292MOL0     O39293   5.092   0.221   9.061  0.5962  0.4631 -0.2923
  292MOL0     C39294   5.182   0.211   9.175 -0.3564  0.4535 -0.1253
  292MOL0     C39295   5.320   0.250   9.120 -0.7920 -0.0049 -0.7428
  292MOL0     C39296   5.418   0.143   9.190  0.0920  0.4547  0.3914
  292MOL0     C39297   5.564   0.198   9.184  0.0686  0.4523  0.1688
  292MOL0     C39298   5.662   0.095   9.242  0.3602 -0.9234  0.5362
  292MOL0     C39299   5.808   0.128   9.243 -0.6267  0.2179 -0.1044
  292MOL0     C39300   5.891   0.051   9.134 -0.9334 -0.2028  0.9388
  292MOL0     C39301   6.039   0.099   9.114  0.2706  0.1384 -0.0769
  292MOL0     N39302   6.133  -0.009   9.114 -0.1996  0.0612  0.5993
  292MOL0     C39303   6.196  -0.057   9.004  0.2972 -0.3149  0.6322
  292MOL0     C39304   6.292  -0.143   9.049 -0.2116  0.1262  0.3542
  292MOL0     C39305   6.387  -0.219   8.956 -0.2590 -0.2100 -0.5667
  292MOL0     C39306   6.481  -0.125   8.883  0.6337  0.1370 -1.0444
  292MOL0     C39307   6.586  -0.193   8.810 -0.6714 -0.3407  0.7633
  292MOL0     C39308   6.659  -0.098   8.716  0.0474 -1.1311 -0.2133
  292MOL0     O39309   6.751  -0.017   8.794 -0.0131  0.1397 -0.7824
  292MOL0     C39310   6.849   0.053   8.730 -0.8269  0.5514  0.7208
  292MOL0     C39311   6.817   0.109   8.602  0.2998 -0.3619 -0.3945
  292MOL0     C39312   6.911   0.182   8.535  0.6251 -0.0029 -0.0460
  292MOL0     C39313   7.041   0.180   8.572  0.1190  0.1029  0.1484
  292MOL0     C39314   7.143   0.245   8.491 -0.8317 -0.4954  0.0424
  292MOL0     O39315   7.273   0.205   8.518 -0.1357  0.2793  0.1905
  292MOL0     C39316   7.383   0.260   8.445 -0.2501 -0.1958 -0.6155
  292MOL0     C39317   7.465   0.366   8.484  0.0168 -0.2495  0.6780
  292MOL0     C39318   7.564   0.410   8.393  0.7171  0.1515 -0.8539
  292MOL0     C39319   7.595   0.344   8.267  0.6064 -0.0776 -0.2692
  292MOL0     O39320   7.705   0.365   8.184 -0.0930 -0.0492 -0.4613
  292MOL0     C39321   7.793   0.471   8.207 -0.5593 -0.1844 -0.6423
  292MOL0     C39322   7.893   0.470   8.099 -0.2654  0.2132  0.3065
  292MOL0     C39323   7.984   0.592   8.106 -0.1873 -1.7445  0.1883
  292MOL0     C39324   8.090   0.595   8.000 -0.8245 -0.0355 -0.0674
  292MOL0     C39325   8.178   0.470   7.993  0.0303  0.8025  0.6398
  292MOL0     C39326   8.290   0.462   7.882 -0.1399  0.1638 -0.1237
  292MOL0     C39327   8.389   0.343   7.915  0.3937 -0.0217  0.3508
  292MOL0     C39328   8.513   0.336   7.823 -0.3684 -0.5812  0.2578
  292MOL0    Cl39329   8.641   0.247   7.917 -0.8787  0.2612  0.0662
  292MOL0     C39330   7.507   0.236   8.237 -0.7533 -0.7066 -0.9250
  292MOL0     C39331   7.399   0.196   8.321 -0.6202 -0.2816 -0.7471
  292MOL0     O39332   7.110   0.310   8.392  0.0296  0.2171 -1.8043
  292MOL0     C39333   7.072   0.132   8.706 -0.2079  0.2473 -0.0653
  292MOL0     C39334   6.975   0.072   8.787  0.9107  0.6432 -0.2686
  292MOL0     N39335   6.270  -0.156   9.189 -0.2579  0.0415  0.4696
  292MOL0     N39336   6.178  -0.074   9.222 -0.4206  0.9803  0.4215
  292MOL0     C39337   4.897   0.192   9.212  0.4594  0.0316  0.4062
  292MOL0     C39338   4.758   0.217   9.230 -1.3691  0.4076  0.5597
  292MOL0     C39339   4.333   0.211   9.193  1.4293 -0.2798  0.1203
  292MOL0     C39340   4.244   0.096   9.192 -0.6459  0.1531  0.3228
  292MOL0     C39341   4.113   0.098   9.245 -0.5451 -0.3484 -0.2697
  292MOL0     C39342   4.054   0.220   9.296 -0.6614  0.0791 -1.0435
  292MOL0     O39343   3.925   0.231   9.339 -0.2250  0.6508  0.0953
  292MOL0     C39344   3.845   0.114   9.345  0.0513 -0.3618  0.5921
  292MOL0     C39345   3.699   0.148   9.363 -0.0053  0.3972 -0.3016
  292MOL0     C39346   3.616   0.020   9.358  0.6251  0.4935 -0.6185
  292MOL0     C39347   3.476   0.029   9.429 -0.3215  0.2959 -0.3778
  292MOL0     C39348   3.396   0.125   9.358  0.3000 -0.7287  0.1319
  292MOL0     C39349   3.325   0.205   9.309 -0.1046  0.3490 -1.6029
  292MOL0     C39350   4.137   0.335   9.293 -0.5858 -0.3240 -0.2939
  292MOL0     C39351   4.276   0.330   9.258  0.3449  0.7852  0.9036
  292MOL0     C39352   4.354   0.455   9.289  0.9334  0.9650  0.1082
  292MOL0     H39353   4.687   0.378   8.938  4.8012  2.8787 -1.8742
  292MOL0     H39354   4.929   0.332   8.908 -0.2500 -0.2973 -0.2159
  292MOL0     H39355   5.150   0.281   9.252 -1.7646  0.8885 -1.0714
  292MOL0     H39356   5.183   0.113   9.223 -1.6288  0.9608  0.9907
  292MOL0     H39357   5.341   0.352   9.154  1.9092 -0.5095 -0.6427
  292MOL0     H39358   5.326   0.246   9.010  1.5490 -2.5538 -0.6395
  292MOL0     H39359   5.411   0.042   9.148  3.1935 -1.0075  2.9090
  292MOL0     H39360   5.370   0.143   9.288 -0.7001 -0.5158  0.0255
  292MOL0     H39361   5.603   0.220   9.084  2.7138 -2.5508  0.3674
  292MOL0     H39362   5.562   0.292   9.240 -1.0763 -0.3983  1.6273
  292MOL0     H39363   5.627   0.065   9.342  2.8388  0.8070  2.0403
  292MOL0     H39364   5.651   0.009   9.175 -2.1465  0.0037 -0.3674
  292MOL0     H39365   5.813   0.237   9.233  1.1233  0.1346 -0.4315
  292MOL0     H39366   5.830   0.086   9.341 -1.6123  1.8130  0.8372
  292MOL0     H39367   5.830   0.069   9.045  0.2063  1.0489  0.3782
  292MOL0     H39368   5.883  -0.057   9.150  1.1380 -0.2544  1.9830
  292MOL0     H39369   6.055   0.160   9.025  4.3493 -2.3149 -1.2755
  292MOL0     H39370   6.073   0.152   9.204  0.6043 -3.0399  1.8450
  292MOL0     H39371   6.194  -0.022   8.901 -0.4074 -1.2596  0.3067
  292MOL0     H39372   6.423  -0.288   9.033 -4.8885 -1.5977  0.6674
  292MOL0     H39373   6.330  -0.280   8.885 -2.3969  0.1005  0.7985
  292MOL0     H39374   6.430  -0.048   8.824  0.4968  0.9210  0.0645
  292MOL0     H39375   6.530  -0.073   8.966  1.2539 -0.6666 -0.8951
  292MOL0     H39376   6.538  -0.268   8.746 -1.1601  1.3796 -0.9871
  292MOL0     H39377   6.664  -0.232   8.877  1.3864 -0.2677 -1.4338
  292MOL0     H39378   6.589  -0.042   8.653 -1.2845 -1.3610  1.0176
  292MOL0     H39379   6.715  -0.160   8.644 -2.3840 -2.6743 -0.9183
  292MOL0     H39380   6.714   0.095   8.569  0.2041 -3.9014  0.8640
  292MOL0     H39381   6.893   0.208   8.431  3.2216  2.3089 -0.0499
  292MOL0     H39382   7.442   0.415   8.578 -0.2513 -2.9054  2.0860
  292MOL0     H39383   7.622   0.494   8.429  2.2985 -2.3645  3.1250
  292MOL0     H39384   7.741   0.567   8.217 -1.0647 -0.5309  0.1061
  292MOL0     H39385   7.844   0.448   8.300 -2.1819 -0.4506  0.2147
  292MOL0     H39386   7.950   0.376   8.104 -1.6586 -0.6510  0.3817
  292MOL0     H39387   7.841   0.480   8.003  1.3826  0.1333 -0.6369
  292MOL0     H39388   7.926   0.683   8.090  0.8236 -0.8298  1.4958
  292MOL0     H39389   8.026   0.585   8.207  0.6693 -3.8357 -0.2772
  292MOL0     H39390   8.160   0.675   8.024  3.6022 -3.5717  0.0877
  292MOL0     H39391   8.042   0.608   7.902 -1.4474 -0.9757  0.1000
  292MOL0     H39392   8.113   0.388   7.961  0.1720  1.4855 -1.5544
  292MOL0     H39393   8.229   0.448   8.088 -0.9243  1.1376  1.2454
  292MOL0     H39394   8.254   0.442   7.781  0.0487  1.5964 -0.4940
  292MOL0     H39395   8.343   0.557   7.881 -0.2153  0.2098  0.1735
  292MOL0     H39396   8.331   0.252   7.895  0.1691 -0.0309  1.0280
  292MOL0     H39397   8.424   0.341   8.018 -0.9876 -0.8712  0.8247
  292MOL0     H39398   8.501   0.296   7.722  2.8459  1.6657 -1.1921
  292MOL0     H39399   8.550   0.437   7.803 -1.2759 -0.1092  0.9046
  292MOL0     H39400   7.515   0.196   8.136 -3.8260  0.7225 -1.8570
  292MOL0     H39401   7.338   0.110   8.298  0.1718 -0.1115 -3.9705
  292MOL0     H39402   7.172   0.119   8.744 -1.1171 -2.5050  1.6278
  292MOL0     H39403   7.008   0.042   8.887 -0.1054 -0.4850 -0.2542
  292MOL0     H39404   4.951   0.138   9.289 -0.3479 -3.7555 -1.4296
  292MOL0     H39405   4.707   0.185   9.320  0.4431 -1.5519  0.9631
  292MOL0     H39406   4.276   0.005   9.143 -1.2841  1.1975 -2.1895
  292MOL0     H39407   4.055   0.007   9.235 -2.2422  0.5442  0.9991
  292MOL0     H39408   3.896   0.062   9.427 -1.9661 -0.3162  1.9629
  292MOL0     H39409   3.856   0.053   9.255  0.8432 -1.2658  1.2782
  292MOL0     H39410   3.670   0.214   9.280  1.4974 -0.8020 -1.8501
  292MOL0     H39411   3.682   0.217   9.447  0.8639  0.9980 -0.6018
  292MOL0     H39412   3.670  -0.052   9.420 -0.9222  1.5063  2.0856
  292MOL0     H39413   3.602  -0.019   9.257 -1.7551 -2.0574  0.5405
  292MOL0     H39414   3.426  -0.068   9.430 -0.7770  0.4076 -3.0941
  292MOL0     H39415   3.485   0.062   9.533  1.0137  0.6004 -0.5644
  292MOL0     H39416   3.253   0.277   9.275 -1.4088  0.7085  1.5284
  292MOL0     H39417   4.100   0.429   9.333  1.0232  1.0270 -1.8052
  292MOL0     H39418   4.304   0.532   9.349  0.1940 -1.0431  2.2457
  292MOL0     H39419   4.436   0.444   9.361  0.4616  2.3187  0.8913
  292MOL0     H39420   4.382   0.497   9.193 -0.6308 -2.2427 -1.9460
  293MOL0     O39421   9.138   8.535   6.747 -0.0901 -0.1634  0.0514
  293MOL0     C39422   9.040   8.468   6.742  0.5926  0.0374  0.2700
  293MOL0     O39423   9.038   8.331   6.712  0.2912 -0.5378 -0.3716
  293MOL0     C39424   9.153   8.278   6.653 -0.5556  0.1078 -0.8550
  293MOL0     C39425   9.250   8.217   6.736  0.8741  0.6497  0.5523
  293MOL0     C39426   9.376   8.165   6.677  0.4496  0.0685 -0.6575
  293MOL0     C39427   9.402   8.169   6.543 -0.9780 -0.8220  0.6144
  293MOL0     O39428   9.522   8.120   6.496  0.3933  0.9290  0.3465
  293MOL0     C39429   9.650   8.135   6.571  0.1595  0.5383  0.1513
  293MOL0     C39430   9.746   8.172   6.461  1.3173  0.2513 -0.3349
  293MOL0     C39431   9.892   8.159   6.498  0.0411 -0.6325 -0.8791
  293MOL0     C39432   9.953   8.033   6.450 -0.2308 -0.2694 -0.4851
  293MOL0     C39433  10.101   8.045   6.415  0.0057  0.1833 -0.5841
  293MOL0     C39434  10.186   7.923   6.373  0.4293 -1.2680  0.6874
  293MOL0     C39435  10.329   7.963   6.321  0.3250 -0.2893  0.5569
  293MOL0     C39436  10.398   7.826   6.275 -0.4876  0.0261  0.7085
  293MOL0     N39437  10.542   7.841   6.255 -0.2559 -0.1931  0.8155
  293MOL0     C39438  10.603   7.830   6.133 -0.1208  0.3027 -0.1920
  293MOL0     C39439  10.734   7.853   6.162 -0.8915 -1.1868  0.0051
  293MOL0     C39440  10.854   7.831   6.083 -0.0769  0.1606  0.6923
  293MOL0     C39441  10.981   7.904   6.125 -0.1596 -0.7175  0.2336
  293MOL0     C39442  11.087   7.874   6.016  0.9124 -0.1687 -0.0878
  293MOL0     C39443  11.222   7.849   6.082 -0.5138 -0.3893 -0.2157
  293MOL0     O39444  11.324   7.866   5.991 -0.0344 -1.1993 -0.4665
  293MOL0     C39445  11.457   7.861   6.039 -0.0736  0.0385  0.1397
  293MOL0     C39446  11.562   7.910   5.958  0.4546 -0.1918 -0.1984
  293MOL0     C39447  11.692   7.923   5.996 -0.0088 -0.5410 -0.5432
  293MOL0     C39448  11.725   7.874   6.122  0.7027 -0.0481  0.7673
  293MOL0     C39449  11.867   7.888   6.173 -0.2525  0.6193 -0.1041
  293MOL0     O39450  11.969   7.928   6.086 -0.7017 -0.2784 -0.6426
  293MOL0     C39451  12.089   7.959   6.137  0.5852  0.0253 -0.6306
  293MOL0     C39452  12.117   8.014   6.263 -0.4434  1.1146  0.5526
  293MOL0     C39453  12.249   8.052   6.294  0.0071  1.1150  0.1613
  293MOL0     C39454  12.355   8.033   6.206 -0.6412  0.3328 -0.8098
  293MOL0     O39455  12.482   8.056   6.243 -0.3266 -0.4482  0.7147
  293MOL0     C39456  12.508   8.194   6.265 -0.1017 -0.6029 -0.1976
  293MOL0     C39457  12.657   8.212   6.253 -0.3733 -0.4838 -0.0540
  293MOL0     C39458  12.749   8.098   6.313 -0.6789 -0.6675 -0.1143
  293MOL0     C39459  12.753   8.083   6.467 -0.4805 -0.0576 -0.4530
  293MOL0     C39460  12.819   7.966   6.524  0.2158  0.4806  1.0062
  293MOL0     C39461  12.764   7.825   6.504 -0.6341 -0.6322 -0.6998
  293MOL0     C39462  12.612   7.812   6.534  0.1161  0.6968 -1.3130
  293MOL0     C39463  12.562   7.668   6.557 -1.7259 -0.9361  0.3181
  293MOL0    Cl39464  12.385   7.684   6.589 -0.0135  0.0358  0.2966
  293MOL0     C39465  12.329   7.979   6.080  0.2252  0.1381  0.6729
  293MOL0     C39466  12.197   7.936   6.052 -0.1926  0.5140  0.1376
  293MOL0     O39467  11.887   7.843   6.289  0.4286 -0.6697  0.1894
  293MOL0     C39468  11.627   7.819   6.206 -0.4247  0.7279 -0.4420
  293MOL0     C39469  11.497   7.809   6.166 -0.4388 -0.0664 -0.3602
  293MOL0     N39470  10.744   7.863   6.300 -0.0677  0.0640 -1.0461
  293MOL0     N39471  10.631   7.848   6.354  0.4884 -0.5376  0.4112
  293MOL0     C39472   9.297   8.216   6.461  0.5894 -0.1034  0.0630
  293MOL0     C39473   9.176   8.277   6.515  0.1404 -0.1386  0.0817
  293MOL0     C39474   8.913   8.523   6.779  0.6366 -0.4582  0.1327
  293MOL0     C39475   8.796   8.472   6.710  0.8078  0.4966  0.2875
  293MOL0     C39476   8.671   8.523   6.739  0.1655 -0.2018 -1.0142
  293MOL0     C39477   8.651   8.622   6.831 -0.2456  0.0083  0.0331
  293MOL0     O39478   8.536   8.693   6.846 -0.5804 -0.3775  0.2407
  293MOL0     C39479   8.416   8.644   6.790  0.0914  0.3975  0.0764
  293MOL0     C39480   8.300   8.721   6.847 -0.1326  0.5623 -0.3157
  293MOL0     C39481   8.309   8.867   6.801 -0.3887 -0.0172  0.5407
  293MOL0     C39482   8.284   8.889   6.647  0.0585  0.0901 -0.1320
  293MOL0     C39483   8.161   8.827   6.608  0.7492 -0.0686  0.3840
  293MOL0     C39484   8.058   8.762   6.581 -0.0374 -0.5582 -0.0704
  293MOL0     C39485   8.764   8.667   6.908  0.2186  0.4896  0.0221
  293MOL0     C39486   8.897   8.621   6.882  0.5490  0.9645 -0.5537
  293MOL0     C39487   9.000   8.682   6.974 -0.1272 -0.3640 -0.2181
  293MOL0     H39488   9.225   8.212   6.841 -0.6696 -2.3531  0.1753
  293MOL0     H39489   9.444   8.114   6.745 -0.7142  0.5187  0.8990
  293MOL0     H39490   9.645   8.215   6.645 -2.5510  0.7122 -0.1296
  293MOL0     H39491   9.685   8.048   6.629 -0.9899  0.3243  0.5390
  293MOL0     H39492   9.729   8.280   6.455 -1.4777  0.0481  1.7508
  293MOL0     H39493   9.721   8.130   6.363 -1.9031 -0.3554  0.6104
  293MOL0     H39494   9.908   8.181   6.604  0.3626  2.0384 -1.4166
  293MOL0     H39495   9.941   8.243   6.448 -0.6117 -0.6883 -1.6288
  293MOL0     H39496   9.932   7.957   6.526 -2.3769 -0.7175 -1.4458
  293MOL0     H39497   9.907   7.988   6.362  1.5544 -3.9411  0.2347
  293MOL0     H39498  10.105   8.114   6.329 -1.3600  0.3750 -0.5228
  293MOL0     H39499  10.154   8.083   6.502  0.8550 -2.7027  0.2613
  293MOL0     H39500  10.199   7.858   6.460 -1.6808 -1.8819  0.6004
  293MOL0     H39501  10.125   7.873   6.297  1.5808 -2.9906  0.8374
  293MOL0     H39502  10.371   8.001   6.414  0.5931  1.1045 -0.1081
  293MOL0     H39503  10.342   8.046   6.251 -1.3790  1.3756  2.1185
  293MOL0     H39504  10.386   7.755   6.358 -0.6765 -2.0594 -1.0115
  293MOL0     H39505  10.356   7.785   6.182 -0.4304  1.9651 -0.2123
  293MOL0     H39506  10.560   7.817   6.034 -1.3345  1.0051  0.2304
  293MOL0     H39507  10.878   7.725   6.086 -1.1748 -0.0830  1.4126
  293MOL0     H39508  10.837   7.858   5.978  0.0137  2.7617  1.2830
  293MOL0     H39509  10.964   8.012   6.136  1.0899 -0.6063  1.4237
  293MOL0     H39510  11.017   7.865   6.221 -1.3837  1.5225  1.7196
  293MOL0     H39511  11.104   7.964   5.956  0.7543 -0.9950 -1.4179
  293MOL0     H39512  11.052   7.802   5.941  1.5985 -0.3043 -0.2875
  293MOL0     H39513  11.216   7.750   6.129 -3.4564 -1.6195 -2.8299
  293MOL0     H39514  11.244   7.924   6.159  0.4469  1.0054 -1.7938
  293MOL0     H39515  11.532   7.950   5.862 -1.3938  1.6492  1.0715
  293MOL0     H39516  11.757   7.967   5.921 -0.3372  0.7053 -0.1222
  293MOL0     H39517  12.038   8.031   6.334 -0.4144 -0.5302  1.0291
  293MOL0     H39518  12.268   8.087   6.395  0.8063  0.4623  0.2454
  293MOL0     H39519  12.456   8.264   6.200  0.3726  1.0354  1.1072
  293MOL0     H39520  12.485   8.225   6.367 -0.0458  1.1868 -0.7074
  293MOL0     H39521  12.684   8.227   6.148  0.8801  1.8487  0.5130
  293MOL0     H39522  12.694   8.309   6.289 -0.0398 -1.0137  1.0599
  293MOL0     H39523  12.697   8.009   6.275 -3.1071 -0.0189  1.4808
  293MOL0     H39524  12.854   8.104   6.282 -0.0987 -0.7931  1.7370
  293MOL0     H39525  12.651   8.069   6.503 -0.5309  0.6746 -0.2950
  293MOL0     H39526  12.789   8.171   6.520  1.4562 -1.0608 -0.0020
  293MOL0     H39527  12.829   7.982   6.632 -0.4095  2.5260  0.7979
  293MOL0     H39528  12.920   7.965   6.482 -0.6578 -0.6571 -1.2021
  293MOL0     H39529  12.794   7.803   6.401 -0.5065 -0.0593 -0.7888
  293MOL0     H39530  12.813   7.756   6.573 -4.0017 -1.5965  0.9222
  293MOL0     H39531  12.554   7.852   6.451 -1.8167  0.1108 -0.3253
  293MOL0     H39532  12.586   7.860   6.629 -0.6107 -1.1209 -0.5530
  293MOL0     H39533  12.599   7.610   6.472 -1.0280 -1.7232  1.1333
  293MOL0     H39534  12.617   7.623   6.641 -1.3966 -0.1700  0.5177
  293MOL0     H39535  12.402   7.970   6.001  0.3133 -0.5946  0.8354
  293MOL0     H39536  12.171   7.913   5.949 -4.2999  2.0146  0.6517
  293MOL0     H39537  11.652   7.776   6.303 -1.3829  1.2722  0.0612
  293MOL0     H39538  11.431   7.758   6.235 -0.5382 -0.4963 -0.7672
  293MOL0     H39539   9.332   8.221   6.359  1.7426  1.8024  0.5094
  293MOL0     H39540   9.101   8.324   6.452  0.8725  1.8829  0.6221
  293MOL0     H39541   8.823   8.399   6.633  2.4218  1.7920 -0.4418
  293MOL0     H39542   8.588   8.485   6.681  1.1251 -1.0002 -1.9226
  293MOL0     H39543   8.396   8.541   6.823  0.3952  0.1950 -0.3521
  293MOL0     H39544   8.423   8.642   6.681 -1.9283  1.6926 -0.1167
  293MOL0     H39545   8.300   8.715   6.956  0.6620  0.3543 -0.3256
  293MOL0     H39546   8.205   8.687   6.806  0.9270 -0.7579 -1.7863
  293MOL0     H39547   8.407   8.906   6.827  0.1950 -0.4530 -0.8902
  293MOL0     H39548   8.230   8.923   6.852 -0.9377  0.2695 -0.5807
  293MOL0     H39549   8.287   8.998   6.633 -1.6081  0.1802 -0.0944
  293MOL0     H39550   8.362   8.842   6.587 -1.3959  0.6137 -2.5542
  293MOL0     H39551   7.964   8.716   6.558  0.2148  0.1639 -2.8285
  293MOL0     H39552   8.750   8.753   6.973  0.3255  2.0436 -1.9068
  293MOL0     H39553   8.965   8.684   7.078 -2.7884  1.8451 -1.0221
  293MOL0     H39554   9.098   8.634   6.971  1.0325  1.0871  4.6146
  293MOL0     H39555   9.008   8.787   6.943 -0.5570 -0.6025 -1.1672
  294MOL0     O39556   3.066   3.867   4.684 -0.0346 -1.1643  0.4933
  294MOL0     C39557   3.116   3.891   4.578  0.7360  0.5363  0.2146
  294MOL0     O39558   3.251   3.897   4.552 -0.1001  0.2671 -0.4392
  294MOL0     C39559   3.352   3.894   4.651 -0.8484  1.3505  0.4035
  294MOL0     C39560   3.478   3.872   4.601 -0.9434  0.1000  0.4372
  294MOL0     C39561   3.592   3.877   4.687 -0.3373  0.5878  0.2228
  294MOL0     C39562   3.576   3.872   4.826 -0.2289  0.1798 -0.3680
  294MOL0     O39563   3.691   3.854   4.901 -0.2604  0.2087 -0.6597
  294MOL0     C39564   3.697   3.921   5.030  1.2587  0.0068 -0.1861
  294MOL0     C39565   3.841   3.915   5.091 -0.0363 -0.0327  0.5318
  294MOL0     C39566   3.840   3.791   5.189 -0.0584  0.5572 -0.5178
  294MOL0     C39567   3.939   3.794   5.297 -0.0120  0.6353 -0.4654
  294MOL0     C39568   3.962   3.659   5.374  0.0408  0.2491 -0.5405
  294MOL0     C39569   4.079   3.661   5.474  0.2481 -0.5956 -0.0986
  294MOL0     C39570   4.060   3.746   5.605  0.2282 -0.5289  0.8351
  294MOL0     C39571   4.174   3.765   5.707 -0.7480 -0.4971 -0.1062
  294MOL0     N39572   4.248   3.637   5.748 -0.0256 -0.3732 -0.0280
  294MOL0     C39573   4.208   3.562   5.849  0.4688 -0.4403 -0.7418
  294MOL0     C39574   4.307   3.464   5.873  0.2719 -0.4552  0.2314
  294MOL0     C39575   4.319   3.382   5.995  0.4581 -0.3401  0.4055
  294MOL0     C39576   4.369   3.241   5.957  0.9877 -0.4334  0.2816
  294MOL0     C39577   4.400   3.160   6.080  0.4160  0.5245  0.3786
  294MOL0     C39578   4.492   3.039   6.055 -0.0913 -0.2489 -0.0632
  294MOL0     O39579   4.566   3.019   6.177 -0.5896  0.7469  0.2184
  294MOL0     C39580   4.696   3.046   6.168  0.1238 -0.1266  0.3038
  294MOL0     C39581   4.746   3.175   6.158  0.6891  0.0693 -0.6868
  294MOL0     C39582   4.880   3.198   6.140  0.8697  0.6316 -0.0832
  294MOL0     C39583   4.971   3.090   6.132 -0.4531 -0.8084 -0.7664
  294MOL0     C39584   5.117   3.114   6.106  0.7386 -0.1843 -0.2719
  294MOL0     O39585   5.147   3.252   6.096  0.4368  0.0200 -0.2706
  294MOL0     C39586   5.274   3.295   6.073  0.6330  0.4509 -0.7904
  294MOL0     C39587   5.392   3.260   6.157 -0.0834 -0.0748  0.2616
  294MOL0     C39588   5.520   3.314   6.141 -0.1953  0.1848  0.1549
  294MOL0     C39589   5.537   3.416   6.049 -0.3686 -0.0703 -0.2121
  294MOL0     O39590   5.656   3.488   6.055  0.3475  0.0428  0.0906
  294MOL0     C39591   5.659   3.580   6.161 -0.4667 -0.4088 -0.5407
  294MOL0     C39592   5.790   3.569   6.241  0.2706  1.1422 -0.0415
  294MOL0     C39593   5.917   3.613   6.159 -0.0986 -0.6808 -0.4413
  294MOL0     C39594   6.049   3.596   6.235 -0.7627  0.3307 -1.1872
  294MOL0     C39595   6.163   3.637   6.140 -0.1484  0.3991 -0.3638
  294MOL0     C39596   6.296   3.642   6.219 -0.1234 -0.6043  0.7213
  294MOL0     C39597   6.413   3.664   6.116  0.4769 -0.1258 -0.5829
  294MOL0     C39598   6.543   3.589   6.166 -0.5267 -0.6386 -0.5835
  294MOL0    Cl39599   6.689   3.640   6.072 -0.1297  0.2079 -0.1642
  294MOL0     C39600   5.427   3.454   5.971  0.6608  0.2695 -0.3122
  294MOL0     C39601   5.298   3.392   5.973 -0.0050  0.2922  0.2009
  294MOL0     O39602   5.195   3.019   6.100  0.5077 -0.7900  0.1640
  294MOL0     C39603   4.926   2.962   6.154  0.3714 -0.2841 -0.5977
  294MOL0     C39604   4.794   2.936   6.163  0.6435 -0.2032 -0.0470
  294MOL0     N39605   4.407   3.498   5.782 -0.1186  0.0351 -0.2350
  294MOL0     N39606   4.367   3.592   5.702 -0.4666  0.0229  0.1295
  294MOL0     C39607   3.447   3.894   4.875 -0.7665  0.0756  0.0382
  294MOL0     C39608   3.342   3.911   4.789 -0.6488  0.0747 -0.1507
  294MOL0     C39609   3.034   3.933   4.459  0.6354  0.7160 -0.2719
  294MOL0     C39610   3.083   3.914   4.336  0.1742 -0.5388  0.1619
  294MOL0     C39611   3.009   3.922   4.219 -0.6998 -0.6405 -0.3563
  294MOL0     C39612   2.883   3.971   4.223 -0.3402  0.2039 -0.0378
  294MOL0     O39613   2.825   3.996   4.107 -0.5284 -0.0783 -0.2308
  294MOL0     C39614   2.684   4.047   4.099 -0.0546 -0.4019 -0.8598
  294MOL0     C39615   2.628   4.030   3.959 -0.2261 -0.5383  1.4587
  294MOL0     C39616   2.469   4.002   3.949 -0.5841  0.6430 -0.2658
  294MOL0     C39617   2.381   4.105   4.016  0.4707 -0.9378  1.0770
  294MOL0     C39618   2.237   4.074   4.006  0.7881 -0.0278  0.8372
  294MOL0     C39619   2.122   4.045   3.993 -0.2430  0.0732 -0.6780
  294MOL0     C39620   2.829   3.982   4.349 -0.0940  0.0522 -1.4082
  294MOL0     C39621   2.899   3.969   4.471  0.5410 -0.4640 -0.2582
  294MOL0     C39622   2.815   4.001   4.594  0.6135  0.4261  0.1267
  294MOL0     H39623   3.490   3.871   4.493  0.1721 -0.2847  0.5566
  294MOL0     H39624   3.687   3.880   4.635 -0.0014  0.3825  0.8303
  294MOL0     H39625   3.679   4.029   5.023 -0.4552 -0.0766  1.9287
  294MOL0     H39626   3.622   3.877   5.096  2.3724 -0.6734  0.6664
  294MOL0     H39627   3.848   4.005   5.153 -0.7285 -0.6004  1.4681
  294MOL0     H39628   3.916   3.911   5.012 -0.4435  2.6775 -0.0875
  294MOL0     H39629   3.853   3.700   5.129  0.3427  1.1659 -1.3861
  294MOL0     H39630   3.744   3.773   5.238  0.0295 -1.3451 -0.9545
  294MOL0     H39631   4.030   3.821   5.243  0.1984  0.8889  0.0112
  294MOL0     H39632   3.908   3.876   5.362 -2.1343 -2.3298  2.5538
  294MOL0     H39633   3.866   3.646   5.425 -1.5265  0.8103 -3.1673
  294MOL0     H39634   3.968   3.576   5.304  1.2821  0.5638 -0.8361
  294MOL0     H39635   4.100   3.563   5.517  0.1505 -0.3002  0.6556
  294MOL0     H39636   4.167   3.696   5.420 -0.9459 -0.2217 -1.8712
  294MOL0     H39637   3.980   3.692   5.656 -1.1033  0.1003 -0.5145
  294MOL0     H39638   4.022   3.846   5.580  0.9719 -0.0959  1.3928
  294MOL0     H39639   4.244   3.827   5.650 -1.3184  0.7489  0.5283
  294MOL0     H39640   4.138   3.819   5.795  0.0283  0.1666 -0.1923
  294MOL0     H39641   4.128   3.587   5.918  3.0978 -0.1336  2.4297
  294MOL0     H39642   4.396   3.432   6.054  0.6231 -0.0074 -0.0879
  294MOL0     H39643   4.225   3.367   6.050 -0.1141  0.2588 -0.3872
  294MOL0     H39644   4.300   3.192   5.888 -0.7728 -2.7110  3.4138
  294MOL0     H39645   4.467   3.257   5.912  0.9734 -1.2502 -0.0424
  294MOL0     H39646   4.313   3.113   6.125  1.1766  1.0666  2.5320
  294MOL0     H39647   4.453   3.220   6.155  1.8899 -1.9545  1.4268
  294MOL0     H39648   4.552   3.040   5.964 -0.0852  2.1464 -0.0762
  294MOL0     H39649   4.423   2.953   6.052 -0.1658 -0.2179  0.6790
  294MOL0     H39650   4.685   3.264   6.149 -1.4530 -1.1729  0.8359
  294MOL0     H39651   4.899   3.305   6.137 -0.2859  0.8425 -0.2596
  294MOL0     H39652   5.369   3.189   6.235 -0.6328 -0.0512  0.1299
  294MOL0     H39653   5.606   3.288   6.202  0.8251  1.1667 -0.7999
  294MOL0     H39654   5.644   3.684   6.129  0.7142 -0.4962 -1.4552
  294MOL0     H39655   5.576   3.561   6.229 -0.5210 -0.7419 -0.6999
  294MOL0     H39656   5.787   3.646   6.318  2.9731  2.4807 -1.1512
  294MOL0     H39657   5.803   3.467   6.277 -2.0733  0.8113  0.0050
  294MOL0     H39658   5.912   3.560   6.063 -0.0878 -1.5425  0.0284
  294MOL0     H39659   5.911   3.721   6.142  3.1108 -0.5672 -1.4532
  294MOL0     H39660   6.072   3.498   6.277  1.5981  0.7852 -1.2604
  294MOL0     H39661   6.059   3.675   6.310 -0.1321 -0.0865 -0.8225
  294MOL0     H39662   6.148   3.736   6.096  1.7648  1.6369  1.5859
  294MOL0     H39663   6.168   3.561   6.061  0.4245 -0.9265  0.9064
  294MOL0     H39664   6.297   3.722   6.294 -0.9454 -0.0866  0.1848
  294MOL0     H39665   6.312   3.548   6.272  0.2461  0.4715  2.6388
  294MOL0     H39666   6.440   3.769   6.110  2.0758 -0.4781 -0.0195
  294MOL0     H39667   6.378   3.624   6.021  0.5979 -4.0150  0.8136
  294MOL0     H39668   6.560   3.595   6.274  0.0113  0.4977 -0.7266
  294MOL0     H39669   6.533   3.482   6.143  0.3239 -0.9847  0.5743
  294MOL0     H39670   5.435   3.550   5.921 -0.2290  4.1072  5.8908
  294MOL0     H39671   5.213   3.437   5.923 -0.2928 -0.4277  0.0327
  294MOL0     H39672   4.990   2.875   6.145  2.9486  1.5121 -0.6208
  294MOL0     H39673   4.747   2.839   6.164  0.2904 -0.0290  1.1580
  294MOL0     H39674   3.430   3.903   4.982 -1.8039  0.6192 -0.1670
  294MOL0     H39675   3.244   3.931   4.832  0.2761  1.7287  1.3287
  294MOL0     H39676   3.187   3.888   4.324  0.3824  0.6893 -0.8671
  294MOL0     H39677   3.059   3.902   4.124  3.5406 -1.8078  1.8575
  294MOL0     H39678   2.679   4.154   4.121  2.3801 -0.5876  1.0679
  294MOL0     H39679   2.628   3.980   4.165  0.9553  1.5118  2.0813
  294MOL0     H39680   2.671   3.947   3.902 -2.5097 -1.5923  1.1662
  294MOL0     H39681   2.643   4.129   3.914  1.0344  0.0172  3.0303
  294MOL0     H39682   2.451   3.909   4.004  2.5491  1.0375  1.6798
  294MOL0     H39683   2.437   3.999   3.844 -1.7692  1.0158  0.0698
  294MOL0     H39684   2.405   4.135   4.119 -3.2035  0.2341  1.7393
  294MOL0     H39685   2.390   4.204   3.969 -4.4835  0.5078  2.5606
  294MOL0     H39686   2.018   4.018   3.995 -1.7645  4.8585  2.3075
  294MOL0     H39687   2.723   4.006   4.349 -0.0529  1.0480  2.8672
  294MOL0     H39688   2.765   4.097   4.574 -2.1199 -1.0312 -0.4766
  294MOL0     H39689   2.741   3.924   4.617  1.1175 -0.5700 -1.3854
  294MOL0     H39690   2.873   4.002   4.686  1.0197  1.8686 -0.1147
  295MOL0     O39691   3.056   1.639   8.233 -0.6854  0.3761 -0.4470
  295MOL0     C39692   3.089   1.525   8.192  0.0013 -0.2324  1.0846
  295MOL0     O39693   3.211   1.476   8.193 -0.2223  0.2889  0.2335
  295MOL0     C39694   3.307   1.536   8.264 -0.4451 -0.1883 -0.0349
  295MOL0     C39695   3.294   1.560   8.405 -0.3292 -1.0393  0.9462
  295MOL0     C39696   3.400   1.622   8.471  0.0591  0.1156 -0.5595
  295MOL0     C39697   3.510   1.674   8.402 -0.2526 -0.2389  0.1970
  295MOL0     O39698   3.606   1.757   8.465 -1.3777 -0.3044  0.6240
  295MOL0     C39699   3.608   1.764   8.611 -0.5620  0.4261 -0.1549
  295MOL0     C39700   3.739   1.834   8.646  0.2005  0.0687 -0.6211
  295MOL0     C39701   3.762   1.821   8.798 -0.3734  0.7031  0.4810
  295MOL0     C39702   3.643   1.863   8.885  0.0108 -0.0435 -0.0153
  295MOL0     C39703   3.687   1.875   9.028 -0.3869 -0.4817 -0.3683
  295MOL0     C39704   3.573   1.884   9.125 -0.4187  0.1656 -0.2712
  295MOL0     C39705   3.621   1.865   9.274  0.3971  0.0664 -0.4871
  295MOL0     C39706   3.506   1.860   9.376 -0.5681  0.0504 -0.8475
  295MOL0     N39707   3.412   1.970   9.368  0.4330 -0.4290  0.4426
  295MOL0     C39708   3.302   1.968   9.279 -0.1561  0.9126 -0.6318
  295MOL0     C39709   3.244   2.090   9.297 -0.2591  0.8736 -0.3495
  295MOL0     C39710   3.108   2.129   9.251  0.3634 -0.6944  0.0224
  295MOL0     C39711   2.992   2.024   9.273 -0.3724 -0.7752  0.6191
  295MOL0     C39712   2.858   2.073   9.221  1.1993 -0.0784  0.7923
  295MOL0     C39713   2.814   1.997   9.091 -0.5409  0.4797  0.2791
  295MOL0     O39714   2.768   1.862   9.112 -0.1715 -0.0056 -0.3029
  295MOL0     C39715   2.655   1.824   9.051  0.2958 -0.0202 -0.5457
  295MOL0     C39716   2.630   1.809   8.911 -0.0352 -0.0096  0.1887
  295MOL0     C39717   2.508   1.773   8.851 -0.1402  0.1863  0.0382
  295MOL0     C39718   2.403   1.739   8.941  0.0545 -0.2677 -0.0096
  295MOL0     C39719   2.282   1.684   8.880  0.4851  0.0181  0.0877
  295MOL0     O39720   2.284   1.638   8.752  0.0750  0.0763  0.4249
  295MOL0     C39721   2.189   1.546   8.706  0.3581 -0.1244  0.1324
  295MOL0     C39722   2.125   1.439   8.772  0.7236 -0.5581  0.0087
  295MOL0     C39723   2.041   1.349   8.702 -0.5628 -0.1038  0.0000
  295MOL0     C39724   2.020   1.361   8.568 -0.1271 -0.2132  0.5082
  295MOL0     O39725   1.951   1.271   8.491  0.5393  0.9954  0.9836
  295MOL0     C39726   1.907   1.150   8.554  0.2768  0.2192 -0.4646
  295MOL0     C39727   1.780   1.149   8.634  0.5103  1.0656  0.0996
  295MOL0     C39728   1.655   1.204   8.550 -0.2882 -0.4247 -0.3054
  295MOL0     C39729   1.531   1.230   8.627  0.3674 -0.2655 -0.5301
  295MOL0     C39730   1.407   1.242   8.527 -0.4817  0.2239 -0.1801
  295MOL0     C39731   1.273   1.229   8.612 -0.3914  0.2018  0.0755
  295MOL0     C39732   1.157   1.266   8.516  0.6582 -0.1145  0.3191
  295MOL0     C39733   1.024   1.222   8.574  0.3948  0.5214 -0.2805
  295MOL0    Cl39734   0.991   1.313   8.721  0.0547 -0.0143  0.2165
  295MOL0     C39735   2.070   1.471   8.511 -0.2043 -0.9690  0.0607
  295MOL0     C39736   2.161   1.557   8.572 -0.0135 -0.0313  0.6797
  295MOL0     O39737   2.189   1.666   8.959 -0.4223 -0.0770  0.2687
  295MOL0     C39738   2.418   1.767   9.080 -0.0546  0.4173 -0.3117
  295MOL0     C39739   2.545   1.802   9.136  0.1895 -0.4829 -0.2293
  295MOL0     N39740   3.317   2.158   9.395  0.2171 -0.0306  0.3295
  295MOL0     N39741   3.419   2.089   9.421 -0.0879  0.1496 -0.4517
  295MOL0     C39742   3.521   1.652   8.266  0.4135  0.4007 -0.2409
  295MOL0     C39743   3.422   1.576   8.196 -0.0905 -0.4512 -0.1664
  295MOL0     C39744   2.992   1.432   8.122  0.2422  0.5712 -0.0099
  295MOL0     C39745   3.048   1.306   8.075  0.1271 -0.1826 -1.7659
  295MOL0     C39746   2.964   1.200   8.020  0.6711  0.4154 -0.6948
  295MOL0     C39747   2.823   1.225   8.010  0.2973  0.3801 -0.3556
  295MOL0     O39748   2.746   1.122   7.964  0.2634  0.3719  0.6137
  295MOL0     C39749   2.651   1.078   8.071 -0.2961  0.1277  0.4453
  295MOL0     C39750   2.605   0.928   8.063 -0.6986  0.0373  0.5896
  295MOL0     C39751   2.732   0.830   8.068  0.6420  0.0060 -0.3465
  295MOL0     C39752   2.698   0.692   8.034  0.0505  0.4256  0.6927
  295MOL0     C39753   2.627   0.642   8.151 -0.5789 -0.2114 -0.0974
  295MOL0     C39754   2.568   0.592   8.247 -0.8846  0.7457 -0.6329
  295MOL0     C39755   2.774   1.355   8.047 -0.0810  0.0522  0.2840
  295MOL0     C39756   2.857   1.456   8.098 -0.2719 -1.2266  0.2520
  295MOL0     C39757   2.782   1.584   8.144  0.1527 -0.5207 -0.0880
  295MOL0     H39758   3.197   1.550   8.453  0.5113  0.9599  3.3186
  295MOL0     H39759   3.379   1.650   8.574 -0.1313 -0.1655 -0.5215
  295MOL0     H39760   3.529   1.823   8.657 -0.0807 -0.2396  1.5790
  295MOL0     H39761   3.609   1.666   8.659  0.6035  0.1301 -0.7343
  295MOL0     H39762   3.744   1.933   8.599 -3.2354 -0.3663 -2.1690
  295MOL0     H39763   3.823   1.783   8.597 -1.6049 -1.1529 -2.6402
  295MOL0     H39764   3.844   1.891   8.816 -0.5122  2.4015 -4.2135
  295MOL0     H39765   3.794   1.720   8.825  1.1867  1.2534  0.7868
  295MOL0     H39766   3.595   1.956   8.851 -0.4339 -0.5811 -0.8849
  295MOL0     H39767   3.564   1.789   8.877  0.3257 -0.4757  0.8158
  295MOL0     H39768   3.747   1.789   9.059 -2.1249 -1.2007  1.1692
  295MOL0     H39769   3.762   1.953   9.044 -0.6691  0.1074 -1.7595
  295MOL0     H39770   3.527   1.983   9.119 -1.4935 -0.3623 -0.9788
  295MOL0     H39771   3.496   1.809   9.104  2.4714 -2.8264 -1.0897
  295MOL0     H39772   3.675   1.949   9.318 -2.5356  0.7919  2.0572
  295MOL0     H39773   3.675   1.769   9.277 -1.5844 -1.0900  0.8917
  295MOL0     H39774   3.452   1.767   9.353 -0.6690  0.2975 -1.6435
  295MOL0     H39775   3.559   1.855   9.471  0.2419 -0.2030 -1.3067
  295MOL0     H39776   3.271   1.887   9.215 -0.5161  1.4711 -1.1817
  295MOL0     H39777   3.087   2.222   9.303 -0.7183 -0.7302 -0.3247
  295MOL0     H39778   3.111   2.162   9.147 -0.9070  1.6712  0.6878
  295MOL0     H39779   3.004   1.926   9.226 -1.0789 -1.2229  1.3441
  295MOL0     H39780   2.993   2.018   9.383  1.1145 -0.0249  0.6685
  295MOL0     H39781   2.845   2.181   9.207 -0.4601 -0.5964 -2.7078
  295MOL0     H39782   2.775   2.060   9.290  0.6550  1.0694  0.3809
  295MOL0     H39783   2.903   1.992   9.028  0.6564 -0.7434  1.9679
  295MOL0     H39784   2.737   2.049   9.034 -0.9783 -1.7510 -1.3085
  295MOL0     H39785   2.716   1.831   8.847  0.5204 -0.7109  0.6806
  295MOL0     H39786   2.498   1.767   8.743 -0.3461  1.6997 -0.0487
  295MOL0     H39787   2.137   1.423   8.879 -0.7487  1.7766  0.5968
  295MOL0     H39788   1.991   1.268   8.755 -0.4857 -0.5342 -0.5701
  295MOL0     H39789   1.897   1.074   8.476  0.3729 -1.8364  1.4270
  295MOL0     H39790   1.987   1.116   8.620 -0.1558  2.5341  1.3719
  295MOL0     H39791   1.751   1.046   8.655  0.6495  1.4315  2.3161
  295MOL0     H39792   1.785   1.206   8.728 -2.0851  0.8696  0.4217
  295MOL0     H39793   1.677   1.293   8.490  1.0851 -0.1166  0.6063
  295MOL0     H39794   1.637   1.118   8.485  2.0481 -1.7046  0.6055
  295MOL0     H39795   1.543   1.328   8.675  2.5008  0.2348 -1.9093
  295MOL0     H39796   1.514   1.162   8.710  2.5341 -0.1817  0.0276
  295MOL0     H39797   1.411   1.163   8.452 -1.0307 -0.6678  0.6920
  295MOL0     H39798   1.400   1.338   8.476 -0.0583  0.2200 -0.2500
  295MOL0     H39799   1.266   1.125   8.647 -0.9311  0.8655  2.0897
  295MOL0     H39800   1.269   1.293   8.701 -2.7013  0.3281 -0.0716
  295MOL0     H39801   1.175   1.215   8.420  0.5056  1.3967 -0.5478
  295MOL0     H39802   1.155   1.373   8.493  0.9536 -0.8234 -3.9178
  295MOL0     H39803   0.940   1.249   8.509 -1.2406  1.5882  2.0875
  295MOL0     H39804   1.037   1.116   8.595 -1.2663  0.5234  1.0598
  295MOL0     H39805   2.046   1.499   8.409 -2.0197 -0.1928  0.6644
  295MOL0     H39806   2.198   1.642   8.515  2.9441 -0.8105  1.2252
  295MOL0     H39807   2.333   1.735   9.140 -0.7098 -1.0349 -1.9310
  295MOL0     H39808   2.559   1.805   9.243  0.2364 -1.2526 -0.2141
  295MOL0     H39809   3.606   1.696   8.214 -0.6446  0.6452 -1.8197
  295MOL0     H39810   3.434   1.544   8.093 -1.4373 -1.3203 -0.0792
  295MOL0     H39811   3.153   1.282   8.082  0.2556  0.8724  1.6083
  295MOL0     H39812   3.015   1.109   7.992 -0.7195 -0.0669 -1.7626
  295MOL0     H39813   2.562   1.140   8.057 -0.8350 -1.0008 -1.4352
  295MOL0     H39814   2.685   1.107   8.171 -0.0502  2.1928 -0.1708
  295MOL0     H39815   2.559   0.915   7.964 -1.1819  1.3474  0.6285
  295MOL0     H39816   2.538   0.908   8.147  1.6327  2.8452  3.3143
  295MOL0     H39817   2.789   0.840   8.161  0.5250  1.5067 -0.4076
  295MOL0     H39818   2.801   0.862   7.989  0.1773 -1.8261 -1.5542
  295MOL0     H39819   2.632   0.689   7.947  2.5867 -1.7493 -1.3139
  295MOL0     H39820   2.789   0.636   8.012  1.0670  0.7099  3.6735
  295MOL0     H39821   2.534   0.538   8.333 -1.2972  0.5697 -0.9067
  295MOL0     H39822   2.667   1.374   8.048 -0.5383 -2.1177 -0.8156
  295MOL0     H39823   2.791   1.598   8.252  0.7044 -0.4015 -0.1455
  295MOL0     H39824   2.822   1.673   8.094 -1.3229  0.7505  0.8931
  295MOL0     H39825   2.678   1.586   8.110  0.5411 -1.4464 -1.4168
  296MOL0     O39826   2.137   7.208   0.768  0.4073 -0.4501 -0.4408
  296MOL0     C39827   2.137   7.090   0.771  0.4752 -0.0965  0.8339
  296MOL0     O39828   2.242   7.013   0.732  0.2442 -0.5131 -0.1188
  296MOL0     C39829   2.350   7.083   0.686 -0.6316 -0.9389  0.2214
  296MOL0     C39830   2.372   7.090   0.542  0.4994 -0.2407 -0.0982
  296MOL0     C39831   2.482   7.168   0.491 -0.2842  0.5992 -0.1333
  296MOL0     C39832   2.561   7.248   0.571  0.5888  0.5896  0.3728
  296MOL0     O39833   2.655   7.318   0.506 -0.3729  0.6911 -0.2100
  296MOL0     C39834   2.758   7.379   0.584  0.0390 -0.2262 -0.1317
  296MOL0     C39835   2.878   7.417   0.495 -0.3923  0.3297 -0.0001
  296MOL0     C39836   3.001   7.460   0.594  0.2170  0.5269 -0.0630
  296MOL0     C39837   3.123   7.502   0.515 -0.3681 -0.3030 -1.0802
  296MOL0     C39838   3.226   7.589   0.590  0.0792 -0.4712  0.5413
  296MOL0     C39839   3.339   7.637   0.504  0.9457  0.5812  1.1842
  296MOL0     C39840   3.434   7.720   0.580 -0.3352  0.5384 -0.0807
  296MOL0     C39841   3.537   7.793   0.489  0.2897  1.0381 -0.4964
  296MOL0     N39842   3.638   7.884   0.555  0.7596 -0.0972  0.5332
  296MOL0     C39843   3.723   7.851   0.659 -0.5007  0.6256  0.2770
  296MOL0     C39844   3.804   7.953   0.672  0.1293  0.2418  0.4494
  296MOL0     C39845   3.911   7.942   0.776  0.3241 -0.3365 -0.8704
  296MOL0     C39846   4.039   8.035   0.740 -0.8941  0.7925 -0.5974
  296MOL0     C39847   4.159   8.004   0.844 -0.2839 -1.1534 -0.0841
  296MOL0     C39848   4.136   8.083   0.980 -0.5012  0.1444 -0.2338
  296MOL0     O39849   4.220   8.024   1.086 -0.3688 -0.2524 -0.0834
  296MOL0     C39850   4.343   8.081   1.095  0.0164  0.2614 -0.1261
  296MOL0     C39851   4.362   8.201   1.163 -0.0889  0.9025  0.1538
  296MOL0     C39852   4.498   8.251   1.182 -0.2346  0.0126 -0.7403
  296MOL0     C39853   4.605   8.175   1.136 -0.2209 -0.3264  0.6123
  296MOL0     C39854   4.747   8.225   1.144  0.5683 -0.0050 -0.2086
  296MOL0     O39855   4.835   8.185   1.057  0.3573 -0.1592  0.9346
  296MOL0     C39856   4.952   8.254   1.048 -0.3624 -0.2074 -0.7258
  296MOL0     C39857   5.055   8.218   1.127 -0.6701 -0.5923  0.4863
  296MOL0     C39858   5.177   8.289   1.128  0.3953 -0.4883 -0.2323
  296MOL0     C39859   5.192   8.411   1.051 -0.7621  0.4617  0.5506
  296MOL0     O39860   5.296   8.496   1.039 -0.5827 -0.1192  0.2481
  296MOL0     C39861   5.415   8.452   1.104  0.5227 -1.6726 -0.8495
  296MOL0     C39862   5.539   8.547   1.063  1.3253  0.3056  0.2305
  296MOL0     C39863   5.518   8.693   1.109  0.3003  0.4047  0.5460
  296MOL0     C39864   5.604   8.792   1.037 -0.5053 -0.3866  0.1186
  296MOL0     C39865   5.597   8.934   1.100  0.3340  0.2548  0.4538
  296MOL0     C39866   5.698   9.029   1.038 -0.0144 -0.1796 -0.2220
  296MOL0     C39867   5.717   9.153   1.122 -0.6551 -0.2347 -0.0094
  296MOL0     C39868   5.673   9.282   1.055  0.0039 -0.2030  0.4387
  296MOL0    Cl39869   5.802   9.331   0.943 -0.3761  0.0452  0.0069
  296MOL0     C39870   5.083   8.441   0.966 -0.2665  0.3591  0.0880
  296MOL0     C39871   4.964   8.366   0.964  0.1792  0.0104  0.9627
  296MOL0     O39872   4.766   8.318   1.220 -0.1397  0.9862  0.0426
  296MOL0     C39873   4.582   8.049   1.074 -0.0270 -0.8469 -0.0102
  296MOL0     C39874   4.458   8.004   1.057  1.0959 -0.7796 -1.2560
  296MOL0     N39875   3.752   8.055   0.593 -0.6873 -0.2942 -0.2116
  296MOL0     N39876   3.659   8.007   0.521 -0.0018 -0.0140 -0.2580
  296MOL0     C39877   2.532   7.261   0.714  0.5947  0.8236  0.9931
  296MOL0     C39878   2.434   7.170   0.762  0.1074 -1.1376 -0.8839
  296MOL0     C39879   2.015   7.012   0.806 -0.4851 -0.7842 -0.9842
  296MOL0     C39880   1.991   6.889   0.744  0.6119  0.5458 -0.2729
  296MOL0     C39881   1.885   6.811   0.763  0.3602  0.7794  0.6401
  296MOL0     C39882   1.788   6.853   0.857  0.5881  0.6720  0.5634
  296MOL0     O39883   1.676   6.794   0.899 -0.0599  1.2862 -0.3014
  296MOL0     C39884   1.650   6.659   0.862 -0.5123  0.0326  0.3271
  296MOL0     C39885   1.552   6.596   0.956 -0.4115  0.4267 -0.2466
  296MOL0     C39886   1.424   6.679   0.968 -0.3184  0.0231 -0.5753
  296MOL0     C39887   1.311   6.612   1.047 -0.5126 -0.5887 -0.1403
  296MOL0     C39888   1.255   6.498   0.975  1.0558  0.0929 -0.7924
  296MOL0     C39889   1.212   6.407   0.918  1.3496  0.1586 -0.2104
  296MOL0     C39890   1.809   6.973   0.926  1.2602  0.0015  0.2454
  296MOL0     C39891   1.920   7.059   0.905 -0.0260  0.0137  0.0612
  296MOL0     C39892   1.933   7.191   0.980  1.1892 -0.1387 -0.1667
  296MOL0     H39893   2.315   7.031   0.471 -0.3270  0.0063  0.3571
  296MOL0     H39894   2.491   7.144   0.385 -0.7917  4.2692 -1.1172
  296MOL0     H39895   2.736   7.469   0.643  3.0699  1.3769 -1.2564
  296MOL0     H39896   2.807   7.306   0.648 -2.3242 -2.0373 -0.2406
  296MOL0     H39897   2.857   7.496   0.422  3.3849 -0.3616 -2.1220
  296MOL0     H39898   2.907   7.335   0.428 -1.5658 -2.1931  2.4035
  296MOL0     H39899   3.020   7.371   0.655 -0.3459 -0.8278 -1.7916
  296MOL0     H39900   2.973   7.545   0.657 -0.0247  0.9929 -0.7807
  296MOL0     H39901   3.170   7.412   0.475  1.7251 -0.2746  1.0673
  296MOL0     H39902   3.094   7.570   0.435  0.5865  0.2226 -0.9956
  296MOL0     H39903   3.178   7.677   0.633 -4.7052 -2.7845  0.5734
  296MOL0     H39904   3.262   7.530   0.675  1.4968  0.6401  0.7567
  296MOL0     H39905   3.387   7.556   0.448 -1.1236 -0.1916  0.4616
  296MOL0     H39906   3.297   7.689   0.418  1.9644  0.1182  0.3768
  296MOL0     H39907   3.478   7.650   0.652 -0.9453  0.6024  0.3542
  296MOL0     H39908   3.385   7.803   0.632 -2.3325 -0.6997  0.0799
  296MOL0     H39909   3.594   7.710   0.446 -3.1665 -2.2240  0.6344
  296MOL0     H39910   3.485   7.854   0.414 -0.4225  1.2713  0.1738
  296MOL0     H39911   3.738   7.760   0.716  2.1771  1.0932  0.4742
  296MOL0     H39912   3.872   7.966   0.875  3.0309 -0.4788  0.3313
  296MOL0     H39913   3.946   7.842   0.802  1.9473  0.4585  0.2236
  296MOL0     H39914   4.071   8.019   0.636 -0.5925 -1.0194 -0.2550
  296MOL0     H39915   4.021   8.143   0.752 -2.4588  0.4380  0.6232
  296MOL0     H39916   4.260   8.028   0.808  0.1262  1.0901  2.2615
  296MOL0     H39917   4.170   7.899   0.873  2.6630 -1.0759 -0.5695
  296MOL0     H39918   4.030   8.066   1.001  0.1134 -1.8091  1.6814
  296MOL0     H39919   4.163   8.189   0.972 -0.9760  0.4891  1.9964
  296MOL0     H39920   4.277   8.262   1.191 -0.1986  0.5775  0.5543
  296MOL0     H39921   4.498   8.344   1.238  1.0757 -0.5013  0.1585
  296MOL0     H39922   5.058   8.124   1.182 -0.4630 -0.2749  1.0267
  296MOL0     H39923   5.258   8.257   1.192  0.2392 -0.8521 -0.2153
  296MOL0     H39924   5.403   8.442   1.212  1.0408 -1.2630 -0.7512
  296MOL0     H39925   5.434   8.345   1.087  1.0644 -2.2223  2.5356
  296MOL0     H39926   5.626   8.504   1.114 -1.1548 -1.5500  3.3014
  296MOL0     H39927   5.545   8.542   0.954  0.2911  2.7707  0.0045
  296MOL0     H39928   5.414   8.725   1.106  0.0778 -0.3198 -1.5051
  296MOL0     H39929   5.550   8.696   1.214 -1.4853  3.2687  1.0995
  296MOL0     H39930   5.572   8.808   0.934 -1.8330  3.3078  0.9679
  296MOL0     H39931   5.709   8.760   1.042 -0.4509 -1.1953 -3.4880
  296MOL0     H39932   5.615   8.916   1.207  1.4810 -1.6590 -0.0057
  296MOL0     H39933   5.496   8.975   1.092  0.6181  1.5402  2.5019
  296MOL0     H39934   5.796   8.982   1.046 -0.4306 -1.2644 -1.1652
  296MOL0     H39935   5.681   9.045   0.931  0.6233 -0.9737 -0.4565
  296MOL0     H39936   5.822   9.165   1.151 -0.0285  2.3984 -2.7830
  296MOL0     H39937   5.664   9.136   1.216  1.5826 -0.2098  1.3208
  296MOL0     H39938   5.581   9.258   1.000  0.0230 -0.2619  0.4322
  296MOL0     H39939   5.650   9.364   1.123  1.2431  0.3025  0.2607
  296MOL0     H39940   5.079   8.536   0.914  1.0715  0.3518 -0.0681
  296MOL0     H39941   4.881   8.388   0.898  0.7570  1.4762  0.6935
  296MOL0     H39942   4.669   7.992   1.044  1.2999  0.2444  1.6205
  296MOL0     H39943   4.440   7.913   1.001  4.4228 -1.9314 -0.6790
  296MOL0     H39944   2.577   7.335   0.779 -0.2933  3.2461 -0.9799
  296MOL0     H39945   2.424   7.162   0.869 -0.9280 -0.6833 -0.9369
  296MOL0     H39946   2.062   6.872   0.663 -0.6217  4.9581 -2.6171
  296MOL0     H39947   1.859   6.721   0.708 -1.2392  1.4973  0.1514
  296MOL0     H39948   1.746   6.607   0.853 -0.2732  0.7385 -1.7046
  296MOL0     H39949   1.601   6.668   0.764 -3.1534  3.2294  1.7393
  296MOL0     H39950   1.595   6.587   1.056 -1.8297 -0.8478  0.2855
  296MOL0     H39951   1.531   6.495   0.920  2.6826  0.5542 -2.8354
  296MOL0     H39952   1.398   6.695   0.863 -0.5571 -1.6478 -0.8062
  296MOL0     H39953   1.431   6.782   1.004 -2.1467  1.5655 -4.1326
  296MOL0     H39954   1.345   6.577   1.144 -2.1603 -2.2533 -0.1154
  296MOL0     H39955   1.231   6.686   1.060 -0.3414 -0.6564  1.3963
  296MOL0     H39956   1.180   6.318   0.869  1.2274 -1.8326  3.1537
  296MOL0     H39957   1.743   6.996   1.009  0.3270 -0.0760 -0.4673
  296MOL0     H39958   1.889   7.270   0.919  3.6379  1.7795  0.3964
  296MOL0     H39959   1.889   7.185   1.080  1.4050  4.5096  0.4042
  296MOL0     H39960   2.040   7.209   0.995  1.2611 -1.6024  1.3181
  297MOL0     O39961  11.148   5.939   8.922  0.8489  0.1190 -0.3833
  297MOL0     C39962  11.103   5.843   8.866  0.5759 -0.5488  0.0068
  297MOL0     O39963  11.103   5.818   8.738 -0.4890 -0.1364 -0.0673
  297MOL0     C39964  11.185   5.900   8.650 -0.9160  0.1140 -0.2665
  297MOL0     C39965  11.324   5.901   8.675 -0.5874 -0.6271  0.2456
  297MOL0     C39966  11.421   5.936   8.576  0.7186  0.2945  0.3907
  297MOL0     C39967  11.379   5.966   8.447 -0.0714 -0.0349  0.8409
  297MOL0     O39968  11.476   5.991   8.344  0.2318 -0.0943  0.1436
  297MOL0     C39969  11.496   6.135   8.315 -0.7949 -0.7243 -0.1108
  297MOL0     C39970  11.645   6.166   8.275 -0.2266 -0.5372 -0.5118
  297MOL0     C39971  11.747   6.110   8.376  0.1693 -0.2733  1.0979
  297MOL0     C39972  11.734   6.164   8.516  0.1883  0.0945 -0.0135
  297MOL0     C39973  11.831   6.088   8.604 -0.1739  0.3227 -0.3424
  297MOL0     C39974  11.804   6.120   8.753  0.1474 -0.7800 -1.1384
  297MOL0     C39975  11.861   6.018   8.838  0.1704 -0.3888 -0.3578
  297MOL0     C39976  11.852   6.059   8.984 -0.4690  0.1001  1.2060
  297MOL0     N39977  11.713   6.071   9.029  0.3105 -0.5307 -0.5426
  297MOL0     C39978  11.632   5.969   9.078  0.2479 -1.0690  0.1854
  297MOL0     C39979  11.513   6.030   9.115 -0.0285 -0.2721 -0.2487
  297MOL0     C39980  11.385   5.955   9.161 -0.8335  0.2442 -0.2416
  297MOL0     C39981  11.407   5.890   9.300  0.5616  0.0549 -0.2350
  297MOL0     C39982  11.276   5.872   9.382  0.4331 -0.2104  0.2817
  297MOL0     C39983  11.286   5.823   9.525  0.5383  0.0446  0.6749
  297MOL0     O39984  11.158   5.758   9.556 -0.7143 -0.0444  0.1339
  297MOL0     C39985  11.140   5.760   9.698 -0.1321 -0.3044  0.6831
  297MOL0     C39986  11.003   5.759   9.729 -0.3201  0.5088 -0.4494
  297MOL0     C39987  10.964   5.770   9.862  0.3714 -0.5016  0.7653
  297MOL0     C39988  11.060   5.774   9.963 -0.1731  1.0601 -0.3525
  297MOL0     C39989  11.016   5.795  10.107 -0.4002  0.5389 -0.9873
  297MOL0     O39990  11.091   5.722  10.205 -0.1660  0.1892  0.2379
  297MOL0     C39991  11.040   5.738  10.335 -0.8940  0.0466  0.4432
  297MOL0     C39992  10.911   5.708  10.363 -0.3850 -0.1031 -0.2668
  297MOL0     C39993  10.859   5.724  10.494  0.1899  0.3160  0.3381
  297MOL0     C39994  10.941   5.792  10.587 -0.3019  0.3815 -0.0671
  297MOL0     O39995  10.878   5.841  10.694 -0.3331  0.4423 -0.1166
  297MOL0     C39996  10.950   5.851  10.819 -0.7026  0.0152  0.3921
  297MOL0     C39997  10.846   5.888  10.932 -0.0515 -0.8489 -0.2787
  297MOL0     C39998  10.883   5.869  11.077  0.4726  0.0864  0.1701
  297MOL0     C39999  10.789   5.924  11.186  0.3472 -0.1581  0.4594
  297MOL0     C40000  10.838   5.921  11.320  0.5048  0.2245  0.4397
  297MOL0     C40001  10.832   5.782  11.374 -0.4188 -0.0347 -0.0385
  297MOL0     C40002  10.893   5.742  11.515 -0.9982  0.1975  0.7975
  297MOL0     C40003  11.044   5.754  11.516 -0.4515 -0.4884  0.4464
  297MOL0    Cl40004  11.085   5.709  11.687  0.0600  0.2375  0.3838
  297MOL0     C40005  11.082   5.812  10.565  0.0114  0.4965 -0.3140
  297MOL0     C40006  11.130   5.781  10.437 -0.4193 -0.3079  0.3412
  297MOL0     O40007  10.912   5.856  10.131  0.2883  0.0268  0.8391
  297MOL0     C40008  11.197   5.755   9.935 -0.4228  0.1196 -0.0564
  297MOL0     C40009  11.236   5.761   9.802  0.2924 -0.7676 -0.6480
  297MOL0     N40010  11.534   6.169   9.104  0.6045 -0.1959 -0.4346
  297MOL0     N40011  11.653   6.189   9.055  0.2553  0.8341 -0.0900
  297MOL0     C40012  11.234   5.978   8.425  0.1129 -0.1764  0.1564
  297MOL0     C40013  11.141   5.944   8.527 -0.3146  1.1268  1.0703
  297MOL0     C40014  11.068   5.746   8.970 -0.2452  0.0179 -0.1190
  297MOL0     C40015  10.989   5.779   9.083  0.2151  0.3922  1.0004
  297MOL0     C40016  10.953   5.686   9.179 -0.1327 -0.7658  0.2403
  297MOL0     C40017  11.001   5.559   9.168 -0.2766  0.2521  0.9504
  297MOL0     O40018  10.987   5.461   9.259 -0.3029 -0.1545  0.3569
  297MOL0     C40019  10.926   5.497   9.384  0.7309  0.3199 -0.5342
  297MOL0     C40020  10.912   5.365   9.458  0.6209  0.4522 -0.7187
  297MOL0     C40021  10.836   5.405   9.586 -0.1217 -0.1211 -0.2424
  297MOL0     C40022  10.802   5.285   9.674 -0.1250 -0.1549 -0.5856
  297MOL0     C40023  10.717   5.182   9.604 -0.4328 -0.8668  0.3209
  297MOL0     C40024  10.635   5.123   9.532 -0.1916  0.3656 -0.7710
  297MOL0     C40025  11.067   5.517   9.052  0.1110  0.1054  0.0817
  297MOL0     C40026  11.108   5.612   8.949 -0.4243  1.0574 -0.3990
  297MOL0     C40027  11.186   5.561   8.825  0.0003  0.3221 -0.0059
  297MOL0     H40028  11.355   5.869   8.774 -1.2303  2.3183  1.4971
  297MOL0     H40029  11.527   5.929   8.600  0.3503 -2.6096  1.5575
  297MOL0     H40030  11.437   6.166   8.228  0.8833  1.4008 -0.6033
  297MOL0     H40031  11.467   6.193   8.403 -2.5964 -2.2540  0.3546
  297MOL0     H40032  11.649   6.275   8.276  0.9758 -0.5632  0.8271
  297MOL0     H40033  11.667   6.133   8.173 -0.4655  0.8810 -1.0454
  297MOL0     H40034  11.848   6.122   8.337 -0.9595 -0.8772 -2.3870
  297MOL0     H40035  11.732   6.002   8.384 -1.2047 -0.2023 -0.0641
  297MOL0     H40036  11.748   6.272   8.505 -2.7595  0.6974  1.1721
  297MOL0     H40037  11.640   6.139   8.566  0.1085  1.9831  0.8560
  297MOL0     H40038  11.832   5.981   8.583  0.1092  0.4618 -1.0871
  297MOL0     H40039  11.933   6.114   8.575 -0.3522 -1.3005 -2.7438
  297MOL0     H40040  11.850   6.215   8.777 -0.8034 -0.1176 -1.8458
  297MOL0     H40041  11.697   6.120   8.777  0.1391 -2.1143 -1.0848
  297MOL0     H40042  11.967   6.001   8.821  1.0735 -0.7737  4.3084
  297MOL0     H40043  11.823   5.916   8.828 -1.0419 -0.2247  1.9233
  297MOL0     H40044  11.895   5.980   9.045 -1.1015 -1.1255  0.0982
  297MOL0     H40045  11.911   6.152   8.982 -1.2757  0.6213  0.1220
  297MOL0     H40046  11.649   5.863   9.071  2.3757 -0.6773 -1.5033
  297MOL0     H40047  11.311   6.036   9.165  1.4116  2.3769  0.9189
  297MOL0     H40048  11.370   5.872   9.092  4.8174 -2.2663  0.9261
  297MOL0     H40049  11.465   5.797   9.294 -2.1100 -1.6960 -0.5544
  297MOL0     H40050  11.464   5.974   9.340  3.9081 -2.1216 -0.0252
  297MOL0     H40051  11.204   5.813   9.325 -0.2694  0.6479  0.2518
  297MOL0     H40052  11.216   5.963   9.391 -1.5275 -1.5771  1.6386
  297MOL0     H40053  11.320   5.900   9.595  5.1264 -2.1596  1.2281
  297MOL0     H40054  11.359   5.742   9.533 -0.5150 -1.6894 -3.8608
  297MOL0     H40055  10.934   5.737   9.649  2.6546 -4.0679 -2.2186
  297MOL0     H40056  10.858   5.780   9.880  0.2954 -1.6107  0.9381
  297MOL0     H40057  10.845   5.667  10.287  0.3207  0.4464 -1.1977
  297MOL0     H40058  10.753   5.710  10.508  0.2440 -0.4306  0.0365
  297MOL0     H40059  10.973   5.747  10.845 -1.6718 -0.6483 -1.2247
  297MOL0     H40060  11.038   5.915  10.814  1.1244 -2.4151 -1.5026
  297MOL0     H40061  10.824   5.995  10.923 -1.1278 -0.9032  1.1826
  297MOL0     H40062  10.762   5.823  10.907  0.5449 -1.4008 -0.8593
  297MOL0     H40063  10.887   5.761  11.096  0.0267  0.0856  0.2719
  297MOL0     H40064  10.987   5.902  11.089  0.7562 -0.4303 -0.7406
  297MOL0     H40065  10.691   5.875  11.181  0.9645 -1.4898  0.8294
  297MOL0     H40066  10.776   6.027  11.154 -2.4143 -0.2572  1.0205
  297MOL0     H40067  10.778   5.983  11.388 -0.4765  2.2049 -2.0791
  297MOL0     H40068  10.942   5.954  11.309  0.7429 -0.2216  1.2658
  297MOL0     H40069  10.725   5.759  11.372 -0.9477  2.0323 -3.1143
  297MOL0     H40070  10.882   5.721  11.298  1.7989  4.4742 -2.6059
  297MOL0     H40071  10.882   5.637  11.543  1.0618  0.4390  2.7540
  297MOL0     H40072  10.849   5.808  11.589 -4.4529  0.1321 -1.0046
  297MOL0     H40073  11.105   5.690  11.451  1.5641  0.9833  0.7898
  297MOL0     H40074  11.076   5.855  11.492  2.8215 -1.3977  0.4554
  297MOL0     H40075  11.154   5.854  10.635  1.4915 -2.5963  0.1741
  297MOL0     H40076  11.231   5.798  10.400 -1.2302  3.6394 -0.5522
  297MOL0     H40077  11.271   5.758  10.015 -2.9502  1.7752  2.4175
  297MOL0     H40078  11.340   5.775   9.776 -0.4450  3.2030 -2.0432
  297MOL0     H40079  11.205   6.010   8.325 -2.4535  1.0867  1.2216
  297MOL0     H40080  11.037   5.938   8.495 -0.2349 -1.5378  1.0310
  297MOL0     H40081  10.963   5.882   9.105  0.7348  1.0013 -1.0832
  297MOL0     H40082  10.902   5.718   9.270  1.9148  1.7985  0.6088
  297MOL0     H40083  10.831   5.550   9.375  0.1354 -0.8055 -1.1261
  297MOL0     H40084  10.990   5.561   9.446 -2.4737  1.6528  1.6366
  297MOL0     H40085  11.009   5.318   9.476 -0.3665 -1.5856 -0.4221
  297MOL0     H40086  10.847   5.300   9.399  1.8472 -1.9556  0.4283
  297MOL0     H40087  10.738   5.441   9.552 -1.0001 -0.4166  1.8270
  297MOL0     H40088  10.897   5.480   9.635 -0.4480  1.3565 -1.9768
  297MOL0     H40089  10.898   5.240   9.703 -1.0377 -0.9197  1.4492
  297MOL0     H40090  10.749   5.322   9.763 -0.5843  2.2375 -1.7610
  297MOL0     H40091  10.554   5.094   9.468  0.8735  1.3704 -2.6938
  297MOL0     H40092  11.108   5.418   9.034  3.8921  1.6709 -1.0009
  297MOL0     H40093  11.108   5.543   8.751 -2.3302  1.7996  1.9504
  297MOL0     H40094  11.267   5.631   8.802  1.7129 -0.7435  2.3125
  297MOL0     H40095  11.225   5.459   8.838 -0.9747 -0.1288 -0.5821
  298MOL0     O40096   8.701   1.622   6.242 -0.3431 -0.0123  0.1249
  298MOL0     C40097   8.745   1.586   6.352 -0.4041  0.4675 -0.2371
  298MOL0     O40098   8.875   1.576   6.383 -0.0333 -0.1074  0.0082
  298MOL0     C40099   8.967   1.593   6.282  0.5121  1.3715  0.4646
  298MOL0     C40100   8.972   1.691   6.182 -0.6956 -0.8495  0.8602
  298MOL0     C40101   9.071   1.699   6.084 -0.3928 -0.0497  0.7970
  298MOL0     C40102   9.170   1.602   6.079 -0.2016  0.1858  0.2609
  298MOL0     O40103   9.253   1.611   5.970 -0.0244 -0.6572 -0.3067
  298MOL0     C40104   9.392   1.578   5.988  0.1703  0.2501 -0.4266
  298MOL0     C40105   9.471   1.626   5.868 -0.3269 -0.6651 -0.0248
  298MOL0     C40106   9.624   1.599   5.897 -0.2505 -0.3802  0.0755
  298MOL0     C40107   9.695   1.622   5.764  0.0727  0.2340  0.0434
  298MOL0     C40108   9.850   1.611   5.787 -0.3671 -0.0810 -0.2085
  298MOL0     C40109   9.897   1.466   5.811 -0.6031 -1.0839 -0.7126
  298MOL0     C40110  10.022   1.422   5.756 -0.0079  0.8831 -0.1604
  298MOL0     C40111  10.124   1.529   5.728  0.4064 -0.0438  0.6484
  298MOL0     N40112  10.253   1.464   5.695  0.2624 -0.4937 -0.0912
  298MOL0     C40113  10.352   1.427   5.786  0.0725  0.5761 -0.3540
  298MOL0     C40114  10.469   1.431   5.717 -0.3973 -0.0282 -0.1882
  298MOL0     C40115  10.610   1.391   5.765  0.3625  0.0243  0.3377
  298MOL0     C40116  10.681   1.295   5.674  0.6606 -0.0079  0.4794
  298MOL0     C40117  10.693   1.147   5.729  0.9850 -0.0041  0.4481
  298MOL0     C40118  10.557   1.087   5.750  0.4087 -0.9107 -0.5745
  298MOL0     O40119  10.508   1.128   5.873  0.1583  0.4029 -0.0852
  298MOL0     C40120  10.379   1.121   5.906 -1.0144  0.1730 -0.3543
  298MOL0     C40121  10.352   1.184   6.023  0.2309  1.3996  0.0368
  298MOL0     C40122  10.218   1.186   6.066 -0.5990 -0.1033 -1.2183
  298MOL0     C40123  10.113   1.118   6.003 -0.1919 -0.2297 -0.9043
  298MOL0     C40124   9.976   1.123   6.065 -1.0738  0.5067  0.1245
  298MOL0     O40125   9.940   1.204   6.175  0.4091  0.5612  0.3205
  298MOL0     C40126   9.803   1.202   6.208 -0.7322 -0.8940 -0.1098
  298MOL0     C40127   9.713   1.263   6.116  1.2230 -0.5143 -0.3948
  298MOL0     C40128   9.578   1.276   6.147  0.4762  0.5782 -0.4186
  298MOL0     C40129   9.520   1.205   6.264 -0.1761 -0.1824  0.2574
  298MOL0     O40130   9.385   1.216   6.294 -0.1685  0.5627  0.2705
  298MOL0     C40131   9.326   1.156   6.413 -0.6202 -0.0996  0.6370
  298MOL0     C40132   9.176   1.131   6.396  0.3897 -0.0662 -0.2150
  298MOL0     C40133   9.120   1.098   6.539  0.0994  0.4136  0.6036
  298MOL0     C40134   8.971   1.067   6.539 -0.5948  0.7173 -0.8821
  298MOL0     C40135   8.938   0.977   6.660 -0.2185 -0.2723  0.9770
  298MOL0     C40136   8.784   0.962   6.679  0.3395  0.4595  0.9212
  298MOL0     C40137   8.728   0.870   6.574 -0.1853  0.6099  0.8861
  298MOL0     C40138   8.582   0.843   6.568 -0.3688 -1.0082  0.0555
  298MOL0    Cl40139   8.480   0.985   6.554  0.2879  0.1442 -0.7083
  298MOL0     C40140   9.617   1.141   6.351  0.4402 -0.2698 -1.0908
  298MOL0     C40141   9.755   1.135   6.320 -0.3836  0.4700  0.1976
  298MOL0     O40142   9.895   1.052   6.003  0.7262  0.4319  0.5476
  298MOL0     C40143  10.146   1.045   5.886  1.0022 -0.6984  0.2941
  298MOL0     C40144  10.277   1.048   5.840 -0.3328 -0.0260  0.0136
  298MOL0     N40145  10.444   1.473   5.590  0.1260  0.6203  0.8444
  298MOL0     N40146  10.315   1.496   5.576 -0.2042  0.2441  0.7531
  298MOL0     C40147   9.173   1.504   6.174  0.4738  0.6435 -0.3787
  298MOL0     C40148   9.074   1.499   6.277 -0.1351  0.4017  0.5423
  298MOL0     C40149   8.644   1.573   6.460  0.2200  0.2341 -0.9319
  298MOL0     C40150   8.589   1.684   6.529 -0.9886  0.0190  1.0421
  298MOL0     C40151   8.492   1.673   6.616 -0.5961  0.8209 -0.6706
  298MOL0     C40152   8.432   1.553   6.656 -0.2415 -0.5916  0.4855
  298MOL0     O40153   8.329   1.566   6.745 -0.6857  0.5840 -0.3309
  298MOL0     C40154   8.247   1.453   6.756 -0.9104  0.5207  0.0007
  298MOL0     C40155   8.148   1.493   6.863  0.4470 -0.1628 -0.5291
  298MOL0     C40156   8.062   1.622   6.839 -0.9821 -0.2980  0.9444
  298MOL0     C40157   7.944   1.633   6.941  0.4062  0.6492  0.2007
  298MOL0     C40158   7.845   1.525   6.920 -0.6678  0.3544 -0.3308
  298MOL0     C40159   7.764   1.444   6.893 -0.3880  0.3073  0.4354
  298MOL0     C40160   8.485   1.439   6.587  0.0685  1.0138 -0.1025
  298MOL0     C40161   8.589   1.451   6.493  0.1605 -0.0867  1.1152
  298MOL0     C40162   8.631   1.322   6.421  0.1650  1.0875  0.5934
  298MOL0     H40163   8.904   1.775   6.176  0.7601  0.3126  0.0584
  298MOL0     H40164   9.072   1.774   6.005 -0.7647 -1.4599 -0.6062
  298MOL0     H40165   9.431   1.635   6.074 -1.3565  1.6207 -0.5876
  298MOL0     H40166   9.399   1.469   5.994  0.1514  0.0402 -3.1250
  298MOL0     H40167   9.452   1.732   5.848  0.8450 -0.9365 -3.1989
  298MOL0     H40168   9.434   1.570   5.781 -2.4054 -0.4341  0.6593
  298MOL0     H40169   9.653   1.498   5.927  3.2863  0.7791  1.0868
  298MOL0     H40170   9.653   1.673   5.972  1.5203 -1.4025  0.4598
  298MOL0     H40171   9.660   1.539   5.702 -1.7228 -0.2448  1.5937
  298MOL0     H40172   9.661   1.712   5.713 -3.9901  0.4262  2.6083
  298MOL0     H40173   9.896   1.656   5.698 -2.0644  2.8458  0.2875
  298MOL0     H40174   9.874   1.674   5.873 -1.8461 -1.3293  1.1674
  298MOL0     H40175   9.909   1.478   5.919 -1.0356 -1.5648 -0.6070
  298MOL0     H40176   9.816   1.395   5.790 -1.2020 -0.6365  0.0081
  298MOL0     H40177  10.001   1.364   5.666 -2.4540 -3.2477  2.6978
  298MOL0     H40178  10.070   1.348   5.820  1.7000  1.2878 -0.9232
  298MOL0     H40179  10.077   1.586   5.647 -1.8324  2.2345  3.3326
  298MOL0     H40180  10.127   1.594   5.817  0.1934 -1.3528  1.6407
  298MOL0     H40181  10.340   1.404   5.892 -0.3517 -2.6433 -0.9831
  298MOL0     H40182  10.664   1.485   5.780  0.3977 -0.1393  1.3441
  298MOL0     H40183  10.602   1.346   5.865  1.8225 -0.4598  0.2546
  298MOL0     H40184  10.634   1.290   5.576  1.9275  0.9027 -0.2042
  298MOL0     H40185  10.783   1.336   5.668  0.8015 -0.4861 -0.4106
  298MOL0     H40186  10.762   1.146   5.814  1.0751 -0.0536  0.3752
  298MOL0     H40187  10.749   1.084   5.660  1.0129  0.7683 -0.2474
  298MOL0     H40188  10.564   0.978   5.750 -2.8305 -1.2392  0.1766
  298MOL0     H40189  10.488   1.124   5.673 -1.2451 -1.0288  0.7952
  298MOL0     H40190  10.431   1.232   6.079  0.7863 -0.8786  1.3618
  298MOL0     H40191  10.188   1.232   6.160 -2.7748 -0.0589 -1.8789
  298MOL0     H40192   9.760   1.299   6.025  0.4105  0.7820 -0.3364
  298MOL0     H40193   9.509   1.325   6.078  0.1270 -1.1366 -1.3351
  298MOL0     H40194   9.367   1.056   6.427  2.7331  1.0711  0.0432
  298MOL0     H40195   9.349   1.210   6.505  2.9266 -1.8052  0.9354
  298MOL0     H40196   9.131   1.224   6.361 -0.2237  0.3205  1.5125
  298MOL0     H40197   9.152   1.048   6.330 -1.7305 -1.7391  2.4691
  298MOL0     H40198   9.169   1.007   6.576 -1.5827  0.1487  2.3699
  298MOL0     H40199   9.145   1.183   6.603  2.1376  1.1943 -1.1270
  298MOL0     H40200   8.957   1.005   6.450 -0.4715  1.5319 -1.4833
  298MOL0     H40201   8.908   1.157   6.531  0.3553  1.3666 -1.2002
  298MOL0     H40202   8.973   1.022   6.754  2.1648  0.0270  0.0157
  298MOL0     H40203   8.981   0.877   6.650 -0.1302 -0.1876  0.5035
  298MOL0     H40204   8.763   0.926   6.780  0.1994  0.5593  0.9286
  298MOL0     H40205   8.734   1.059   6.671  0.2588  0.2781 -1.8193
  298MOL0     H40206   8.784   0.776   6.588  1.8337  1.7320  0.7433
  298MOL0     H40207   8.755   0.904   6.474  3.1180 -3.0503  0.2707
  298MOL0     H40208   8.545   0.769   6.496 -2.4154 -0.5936  0.5995
  298MOL0     H40209   8.559   0.800   6.665 -2.7182  0.3665  0.2094
  298MOL0     H40210   9.586   1.098   6.445  0.3162  1.9363 -0.0714
  298MOL0     H40211   9.823   1.077   6.380  0.0903  0.9408  0.1277
  298MOL0     H40212  10.070   0.975   5.854  0.7096 -1.0191  1.6083
  298MOL0     H40213  10.305   0.994   5.750 -0.3273 -0.1820  0.1088
  298MOL0     H40214   9.251   1.430   6.191 -2.1424 -2.0482  0.8785
  298MOL0     H40215   9.083   1.427   6.357  0.6638 -0.6448 -0.4633
  298MOL0     H40216   8.634   1.780   6.508  4.7247 -2.2480  0.8067
  298MOL0     H40217   8.463   1.761   6.672  0.6122  0.9683 -0.2537
  298MOL0     H40218   8.303   1.372   6.803 -2.3780  1.2831  3.3342
  298MOL0     H40219   8.210   1.426   6.656  1.5775  1.5125 -1.2816
  298MOL0     H40220   8.191   1.489   6.963 -4.4034 -1.0665  1.8285
  298MOL0     H40221   8.074   1.412   6.863  1.8998 -1.5845  1.5030
  298MOL0     H40222   8.023   1.618   6.737 -1.3185 -1.9312  1.1023
  298MOL0     H40223   8.129   1.707   6.853 -2.5343  0.8126  1.9148
  298MOL0     H40224   7.977   1.647   7.044 -1.1590  1.1037  0.6744
  298MOL0     H40225   7.887   1.725   6.923 -1.9051 -0.3355  2.1172
  298MOL0     H40226   7.686   1.374   6.870 -1.1168  0.9405  0.9325
  298MOL0     H40227   8.465   1.337   6.616 -1.4306  2.0039  2.6402
  298MOL0     H40228   8.574   1.311   6.329 -0.3490  0.7023  0.9551
  298MOL0     H40229   8.737   1.308   6.398 -0.0333 -1.8430  1.0898
  298MOL0     H40230   8.607   1.235   6.483  1.3360 -0.5693 -1.1634
  299MOL0     O40231   9.096   7.463   2.778  0.3881 -0.6203  1.1825
  299MOL0     C40232   9.028   7.568   2.780 -0.0067  0.0253  0.3653
  299MOL0     O40233   9.080   7.693   2.749 -0.2926 -0.0503 -0.7962
  299MOL0     C40234   9.214   7.697   2.722 -0.8537 -1.3205  0.2099
  299MOL0     C40235   9.259   7.669   2.593  0.2813 -0.6041  0.1000
  299MOL0     C40236   9.394   7.684   2.562  0.2090 -0.0069 -0.1878
  299MOL0     C40237   9.485   7.716   2.665 -0.5399 -0.6443  0.3678
  299MOL0     O40238   9.620   7.725   2.625  0.0597 -0.6022 -0.4211
  299MOL0     C40239   9.730   7.712   2.723  0.6687  0.1641  0.1931
  299MOL0     C40240   9.869   7.741   2.652 -0.2339  0.6353 -0.9746
  299MOL0     C40241   9.870   7.876   2.580 -0.1468  0.3512 -0.1241
  299MOL0     C40242   9.980   7.898   2.479  0.1403 -0.2396  0.0300
  299MOL0     C40243   9.969   8.049   2.435  0.0971  0.7076 -0.7689
  299MOL0     C40244  10.084   8.082   2.333  0.0390  0.4349  1.3504
  299MOL0     C40245  10.154   8.211   2.357 -0.4581  1.0153  0.0148
  299MOL0     C40246  10.237   8.209   2.490 -0.0930  0.3982  0.2155
  299MOL0     N40247  10.315   8.324   2.514  0.3207  0.4897 -0.4098
  299MOL0     C40248  10.392   8.387   2.423 -0.1545 -0.0003 -0.1986
  299MOL0     C40249  10.435   8.504   2.481  0.4528 -0.0849 -0.2743
  299MOL0     C40250  10.530   8.600   2.424 -0.6301 -0.6931  0.0281
  299MOL0     C40251  10.685   8.562   2.427 -0.3518 -0.2745 -0.7679
  299MOL0     C40252  10.735   8.547   2.578 -0.6140 -0.3501  1.4251
  299MOL0     C40253  10.883   8.491   2.581  0.2027 -0.2356  0.0129
  299MOL0     O40254  10.964   8.594   2.523 -0.0289  0.7544 -0.6714
  299MOL0     C40255  11.099   8.579   2.531 -0.3435  0.6773 -0.2382
  299MOL0     C40256  11.171   8.687   2.472 -0.2601  1.0040  0.4546
  299MOL0     C40257  11.317   8.678   2.478  0.3483 -0.0216  0.0374
  299MOL0     C40258  11.379   8.573   2.538  0.2676  0.0760  0.9169
  299MOL0     C40259  11.523   8.566   2.533 -0.2758  1.0802 -0.2147
  299MOL0     O40260  11.572   8.438   2.560  0.4270 -0.3587 -0.0964
  299MOL0     C40261  11.697   8.428   2.615  0.5892 -0.3443  0.1528
  299MOL0     C40262  11.790   8.337   2.581 -0.7309  0.1663 -0.2156
  299MOL0     C40263  11.915   8.332   2.631  0.3858  0.0495 -1.0292
  299MOL0     C40264  11.957   8.415   2.727 -0.4514  0.2497 -0.2099
  299MOL0     O40265  12.068   8.390   2.804  0.2299  0.0045 -0.1920
  299MOL0     C40266  12.117   8.258   2.834 -0.1152  0.2467  0.1002
  299MOL0     C40267  12.035   8.164   2.913 -0.1832 -0.9060 -0.3098
  299MOL0     C40268  12.098   8.023   2.941 -0.4881  0.4297 -0.4724
  299MOL0     C40269  12.251   8.034   2.925  0.1067 -0.6516  0.0376
  299MOL0     C40270  12.317   7.901   2.950 -0.2803  0.0991 -0.2176
  299MOL0     C40271  12.468   7.898   2.907 -0.0330  0.1528 -0.0685
  299MOL0     C40272  12.549   7.979   3.005 -0.6447 -0.5575  0.4002
  299MOL0     C40273  12.600   7.886   3.119  0.4514 -0.2521  0.1559
  299MOL0    Cl40274  12.756   7.961   3.178 -0.1987  0.0290 -0.4087
  299MOL0     C40275  11.869   8.511   2.772  0.3355  0.0934  0.1142
  299MOL0     C40276  11.741   8.517   2.715 -0.2462 -1.0844  0.6317
  299MOL0     O40277  11.589   8.668   2.515 -0.2436 -0.6797 -0.3889
  299MOL0     C40278  11.296   8.467   2.587 -0.2691  0.6067 -1.0992
  299MOL0     C40279  11.162   8.478   2.598  0.1446 -0.4679 -0.6282
  299MOL0     N40280  10.377   8.513   2.604 -0.7987  0.1250  0.3220
  299MOL0     N40281  10.302   8.406   2.619 -0.5660 -1.3654 -0.2509
  299MOL0     C40282   9.436   7.747   2.794 -1.0490 -0.0281 -0.0145
  299MOL0     C40283   9.299   7.745   2.816  0.4918 -0.5180 -0.8246
  299MOL0     C40284   8.888   7.549   2.810 -0.1329 -0.5221 -0.9087
  299MOL0     C40285   8.834   7.448   2.740  0.1674  0.6065  0.0366
  299MOL0     C40286   8.702   7.405   2.767  0.8567 -0.1831 -0.7937
  299MOL0     C40287   8.627   7.465   2.866  0.2643 -0.1772 -0.0042
  299MOL0     O40288   8.491   7.457   2.894  0.0116 -0.2542  0.1480
  299MOL0     C40289   8.400   7.399   2.806  0.3822  0.4105  0.9740
  299MOL0     C40290   8.379   7.497   2.679  0.5627  1.2710  0.3078
  299MOL0     C40291   8.283   7.429   2.570  0.8175  0.2524 -0.2067
  299MOL0     C40292   8.151   7.509   2.565  0.2200 -0.0274 -0.5711
  299MOL0     C40293   8.182   7.649   2.540 -0.5604 -0.5928  0.7165
  299MOL0     C40294   8.205   7.767   2.509 -0.3540 -0.6451  0.0890
  299MOL0     C40295   8.687   7.567   2.937  0.0887 -0.7491  0.9043
  299MOL0     C40296   8.811   7.615   2.914  0.3719  0.7660  0.6614
  299MOL0     C40297   8.875   7.714   3.000  0.0152  0.0942 -0.3118
  299MOL0     H40298   9.184   7.635   2.523 -1.8246  1.7366  1.0611
  299MOL0     H40299   9.431   7.670   2.460 -2.0863 -0.3693 -1.0393
  299MOL0     H40300   9.714   7.757   2.822 -2.2937  1.2971 -0.6741
  299MOL0     H40301   9.727   7.603   2.736 -0.3650  0.2271  0.6039
  299MOL0     H40302   9.893   7.655   2.589  0.8848  1.5386 -1.8223
  299MOL0     H40303   9.948   7.751   2.727 -0.4188 -3.4033  0.0324
  299MOL0     H40304   9.874   7.955   2.655  3.3437 -1.8824  2.3664
  299MOL0     H40305   9.778   7.894   2.525 -0.0808  3.2424  0.5534
  299MOL0     H40306  10.080   7.881   2.520 -0.2175  0.4506  1.2298
  299MOL0     H40307   9.970   7.834   2.391  1.3031 -1.5444  0.7951
  299MOL0     H40308   9.874   8.069   2.385 -0.7877  0.4736  0.7675
  299MOL0     H40309   9.975   8.118   2.520  0.0908 -0.1596 -0.0488
  299MOL0     H40310  10.161   8.005   2.342 -0.0036  0.5099  2.4458
  299MOL0     H40311  10.041   8.070   2.233 -2.7768 -2.3228  2.7091
  299MOL0     H40312  10.080   8.291   2.367 -0.9259  0.4739  1.0475
  299MOL0     H40313  10.218   8.224   2.269 -1.9656 -0.4381 -1.3648
  299MOL0     H40314  10.173   8.194   2.577 -1.1326  0.3947 -0.5384
  299MOL0     H40315  10.309   8.127   2.491  1.8122  1.9865  0.2105
  299MOL0     H40316  10.420   8.344   2.327  0.8222 -0.0072  0.0775
  299MOL0     H40317  10.500   8.615   2.320  0.0043 -1.5792 -0.2905
  299MOL0     H40318  10.527   8.692   2.484  1.6684 -1.6886  1.8047
  299MOL0     H40319  10.700   8.466   2.376 -3.2745 -0.5208 -1.3457
  299MOL0     H40320  10.743   8.640   2.376 -0.4866  1.6822  1.8460
  299MOL0     H40321  10.664   8.475   2.620  0.1647 -1.4359  0.9204
  299MOL0     H40322  10.736   8.637   2.640 -0.6079  1.7180 -1.4020
  299MOL0     H40323  10.893   8.394   2.531  0.6904 -1.1785  1.8786
  299MOL0     H40324  10.913   8.484   2.686  1.6941 -0.7580 -0.4206
  299MOL0     H40325  11.119   8.764   2.416 -1.8623 -1.2591 -1.3685
  299MOL0     H40326  11.368   8.765   2.437 -0.0032 -0.5723 -1.6420
  299MOL0     H40327  11.770   8.268   2.499 -0.3641  0.5873 -0.6634
  299MOL0     H40328  11.993   8.266   2.596  3.1113  2.1295  0.7068
  299MOL0     H40329  12.136   8.206   2.739  1.5111  0.6371  0.1907
  299MOL0     H40330  12.211   8.277   2.885 -0.1228 -1.0560  0.6390
  299MOL0     H40331  12.010   8.196   3.014  1.1644  0.3554 -0.3420
  299MOL0     H40332  11.935   8.163   2.869 -1.6777 -2.1257  2.8314
  299MOL0     H40333  12.073   7.994   3.043 -2.2645  1.5754 -0.5546
  299MOL0     H40334  12.045   7.955   2.874 -1.0451  1.2100 -0.8404
  299MOL0     H40335  12.286   8.105   3.001  1.1286 -0.9480 -0.1476
  299MOL0     H40336  12.269   8.053   2.819  0.2063 -2.5683 -0.3286
  299MOL0     H40337  12.264   7.816   2.906  3.0533 -2.1466 -0.2890
  299MOL0     H40338  12.301   7.871   3.054 -3.6851  1.2442 -0.2908
  299MOL0     H40339  12.503   7.795   2.893 -1.0640 -0.2569  0.2642
  299MOL0     H40340  12.478   7.943   2.808 -2.0798 -1.8451 -1.2709
  299MOL0     H40341  12.495   8.067   3.042 -1.2087 -0.7973  0.1565
  299MOL0     H40342  12.638   8.010   2.948 -1.3274 -1.0835 -0.9954
  299MOL0     H40343  12.521   7.880   3.195  1.8925 -1.4096  1.6223
  299MOL0     H40344  12.622   7.788   3.075 -1.7375 -1.6075  1.8720
  299MOL0     H40345  11.897   8.566   2.861 -0.4511  2.3062 -0.9246
  299MOL0     H40346  11.660   8.578   2.754  0.0914 -0.1412 -0.0992
  299MOL0     H40347  11.340   8.386   2.645 -1.3253 -0.4002 -1.6572
  299MOL0     H40348  11.098   8.404   2.645 -1.1961  1.0795  0.0613
  299MOL0     H40349   9.506   7.780   2.870 -1.3775 -0.0222  0.2836
  299MOL0     H40350   9.254   7.777   2.909  0.4443  0.3784 -1.1433
  299MOL0     H40351   8.899   7.402   2.666 -0.6343 -0.7390  0.1288
  299MOL0     H40352   8.656   7.343   2.691  0.4057  0.1249 -0.7831
  299MOL0     H40353   8.303   7.393   2.855 -0.2571  1.0805 -0.1535
  299MOL0     H40354   8.448   7.304   2.778  0.3888 -0.3316  3.3386
  299MOL0     H40355   8.477   7.514   2.634  0.9190 -2.6367 -0.7613
  299MOL0     H40356   8.342   7.592   2.719 -1.6684  0.1218  1.1938
  299MOL0     H40357   8.253   7.326   2.593 -0.3184  0.7705  0.7870
  299MOL0     H40358   8.347   7.434   2.482 -0.2572 -0.0515 -1.0272
  299MOL0     H40359   8.086   7.479   2.483  2.2714 -1.5201 -1.7246
  299MOL0     H40360   8.108   7.485   2.663  0.5994  0.0388 -0.3883
  299MOL0     H40361   8.219   7.872   2.492 -0.2284 -0.5932  0.5147
  299MOL0     H40362   8.637   7.606   3.025 -1.3210  0.9033 -0.5452
  299MOL0     H40363   8.821   7.720   3.094  0.1555 -0.2964 -0.2055
  299MOL0     H40364   8.981   7.699   3.021 -0.5735 -2.0588  1.3618
  299MOL0     H40365   8.857   7.815   2.961 -1.0337 -0.3633 -1.0441
  300MOL0     O40366   2.008   9.214  10.532  0.1062  1.1719 -0.3920
  300MOL0     C40367   1.966   9.316  10.478  0.1547 -0.0076 -0.1904
  300MOL0     O40368   2.043   9.398  10.397 -0.4102 -0.5724 -0.6253
  300MOL0     C40369   2.162   9.359  10.347  0.8196 -0.1749 -0.4287
  300MOL0     C40370   2.195   9.227  10.310  0.1956 -0.0303 -0.1251
  300MOL0     C40371   2.319   9.192  10.256  0.3754  0.3119  0.8895
  300MOL0     C40372   2.418   9.288  10.238  0.2661  0.0341  0.1737
  300MOL0     O40373   2.551   9.247  10.209 -0.2612  0.2465 -0.0092
  300MOL0     C40374   2.669   9.328  10.217  0.1539  1.2718  0.3010
  300MOL0     C40375   2.790   9.250  10.195 -0.7393 -0.2274  0.1282
  300MOL0     C40376   2.921   9.334  10.180  0.5280  0.1350 -0.5204
  300MOL0     C40377   3.039   9.249  10.144  0.0301 -0.0483 -0.0009
  300MOL0     C40378   3.173   9.320  10.149  0.5293 -0.9057  0.0691
  300MOL0     C40379   3.288   9.241  10.100 -0.2188  0.4945  0.2124
  300MOL0     C40380   3.431   9.291  10.111  0.5470 -0.2716  0.3785
  300MOL0     C40381   3.465   9.406  10.030 -0.1174 -0.4293  0.3282
  300MOL0     N40382   3.610   9.431  10.034 -0.6844  0.7428  0.2623
  300MOL0     C40383   3.677   9.498  10.124 -0.1719  0.0655  0.3232
  300MOL0     C40384   3.808   9.482  10.093 -0.4432 -1.0094  0.6031
  300MOL0     C40385   3.931   9.525  10.159 -1.1899  0.2049 -0.2539
  300MOL0     C40386   4.034   9.589  10.060 -0.4979  0.2193  0.1446
  300MOL0     C40387   3.975   9.727  10.010  0.1349 -0.3210  0.8883
  300MOL0     C40388   3.922   9.720   9.866 -0.4074  0.6126 -0.1064
  300MOL0     O40389   3.895   9.850   9.809  0.0705  0.3093 -0.7443
  300MOL0     C40390   4.007   9.930   9.787 -0.0151  0.7203  0.9475
  300MOL0     C40391   4.133   9.891   9.744 -0.1001  0.0819 -0.5348
  300MOL0     C40392   4.229   9.986   9.718 -0.0571 -0.6399  0.2190
  300MOL0     C40393   4.198  10.127   9.739  0.4640 -0.2951 -0.2055
  300MOL0     C40394   4.297  10.225   9.706 -0.7455 -0.3442  0.9797
  300MOL0     O40395   4.416  10.184   9.658  0.0061  0.2856 -0.2051
  300MOL0     C40396   4.529  10.264   9.640  0.5370 -0.2931 -0.6655
  300MOL0     C40397   4.635  10.200   9.584 -0.2532  0.0294  0.1148
  300MOL0     C40398   4.763  10.255   9.571 -0.4569 -0.3583 -0.3361
  300MOL0     C40399   4.783  10.389   9.589 -0.0167  0.0793  0.0201
  300MOL0     O40400   4.907  10.429   9.565 -0.5436  0.3592  0.2113
  300MOL0     C40401   4.943  10.567   9.588 -0.5815 -0.4942  0.2083
  300MOL0     C40402   5.096  10.586   9.566 -0.2636 -0.4567  0.3257
  300MOL0     C40403   5.132  10.592   9.418 -0.0217  0.8287 -0.1722
  300MOL0     C40404   5.276  10.623   9.388  0.0543  0.3117 -0.8849
  300MOL0     C40405   5.364  10.496   9.415  0.2626 -0.3198  0.9334
  300MOL0     C40406   5.502  10.521   9.347 -0.7653 -0.7584 -0.1787
  300MOL0     C40407   5.592  10.413   9.409 -0.2223  0.2454  0.4977
  300MOL0     C40408   5.739  10.453   9.418 -0.4819  0.6887  0.4112
  300MOL0    Cl40409   5.800  10.455   9.251 -0.1269  0.2371 -0.0544
  300MOL0     C40410   4.682  10.457   9.657 -0.4344 -0.7205 -0.1286
  300MOL0     C40411   4.556  10.397   9.680  0.3364 -0.3693 -0.1241
  300MOL0     O40412   4.274  10.336   9.750 -0.1839  0.3032  0.0209
  300MOL0     C40413   4.071  10.162   9.793 -0.1586  0.2876 -0.3262
  300MOL0     C40414   3.976  10.062   9.802 -0.6750  0.3749 -0.4680
  300MOL0     N40415   3.814   9.405   9.976 -0.5644  0.2125  0.4051
  300MOL0     N40416   3.700   9.380   9.939 -0.0932 -0.4144  0.9157
  300MOL0     C40417   2.382   9.422  10.259 -0.9782  0.7837  0.2233
  300MOL0     C40418   2.261   9.459  10.325  0.1626  1.0383  0.3173
  300MOL0     C40419   1.821   9.356  10.500 -0.6579  0.8048 -0.0133
  300MOL0     C40420   1.775   9.469  10.425 -0.3912 -0.1365 -0.3986
  300MOL0     C40421   1.644   9.515  10.447 -0.5006 -0.6058  0.0724
  300MOL0     C40422   1.556   9.436  10.523  0.1178 -0.7490 -0.9294
  300MOL0     O40423   1.425   9.470  10.561 -0.3837  0.3002  0.3760
  300MOL0     C40424   1.364   9.592  10.513 -0.3071 -0.1614  0.6532
  300MOL0     C40425   1.289   9.563  10.383  0.4770  0.1633  0.3442
  300MOL0     C40426   1.189   9.442  10.397  0.5541 -0.7057 -0.1499
  300MOL0     C40427   1.106   9.424  10.532  0.0287 -0.2196  0.5917
  300MOL0     C40428   1.060   9.538  10.602  0.1361  0.2746 -0.5921
  300MOL0     C40429   1.034   9.643  10.653 -0.0424  0.0948 -0.1970
  300MOL0     C40430   1.601   9.321  10.583  0.5590  0.2956  0.1604
  300MOL0     C40431   1.733   9.280  10.581 -0.3724 -1.1534 -0.5851
  300MOL0     C40432   1.766   9.164  10.672 -0.0722  0.1176 -0.2337
  300MOL0     H40433   2.130   9.143  10.333  0.2739 -0.1052 -0.1761
  300MOL0     H40434   2.341   9.087  10.238 -1.0052  0.0455  0.6577
  300MOL0     H40435   2.665   9.409  10.143  2.3703  0.6140 -0.5886
  300MOL0     H40436   2.683   9.380  10.313  1.3550  1.4951  0.0221
  300MOL0     H40437   2.788   9.177  10.113  1.3553 -1.2762  0.9392
  300MOL0     H40438   2.800   9.188  10.284  0.6916 -0.0421  0.1271
  300MOL0     H40439   2.927   9.393  10.272 -1.0481 -2.0679  1.0996
  300MOL0     H40440   2.911   9.406  10.098 -1.5676 -0.4501 -0.8178
  300MOL0     H40441   3.042   9.163  10.210 -5.6503 -1.1385 -0.6374
  300MOL0     H40442   3.018   9.202  10.048 -0.3324 -0.0934  0.0988
  300MOL0     H40443   3.169   9.422  10.110 -1.6318 -1.1963 -0.6352
  300MOL0     H40444   3.186   9.337  10.256 -0.7929 -2.1903  0.4689
  300MOL0     H40445   3.270   9.151  10.159  0.0251  1.1295  1.2804
  300MOL0     H40446   3.274   9.224   9.993  2.2668  2.6783 -0.5482
  300MOL0     H40447   3.500   9.211  10.081 -0.2014 -0.3299 -1.2978
  300MOL0     H40448   3.455   9.327  10.211  0.9518  2.1625 -0.5297
  300MOL0     H40449   3.436   9.390   9.925 -0.8607 -0.0068  0.4599
  300MOL0     H40450   3.413   9.493  10.069  0.2531 -0.2257  0.3719
  300MOL0     H40451   3.642   9.545  10.215  0.9434  0.9398  0.3175
  300MOL0     H40452   3.908   9.585  10.247  0.9895 -0.7961  1.0814
  300MOL0     H40453   3.973   9.436  10.206 -1.0103  0.2086 -0.4055
  300MOL0     H40454   4.129   9.599  10.114  0.3468 -0.5424 -1.1389
  300MOL0     H40455   4.054   9.523   9.976 -0.9659  1.2274 -0.7767
  300MOL0     H40456   4.049   9.807  10.017 -0.6839  0.5812 -0.2797
  300MOL0     H40457   3.887   9.766  10.063 -0.5230  1.9185 -1.6227
  300MOL0     H40458   3.834   9.656   9.860 -1.2782  1.5909  1.6400
  300MOL0     H40459   4.000   9.670   9.807 -2.2017  0.7609 -2.7943
  300MOL0     H40460   4.158   9.789   9.719  1.3258 -0.5714  2.9530
  300MOL0     H40461   4.321   9.953   9.672  0.2750  1.5521 -0.8215
  300MOL0     H40462   4.623  10.099   9.549  0.0348 -0.6950  1.9650
  300MOL0     H40463   4.851  10.208   9.528 -0.5388 -0.6366 -0.2027
  300MOL0     H40464   4.897  10.640   9.521 -1.0364 -0.1657  0.8734
  300MOL0     H40465   4.929  10.592   9.693  2.8823  3.6304 -0.0473
  300MOL0     H40466   5.120  10.679   9.618 -0.3989 -0.6750  0.7820
  300MOL0     H40467   5.157  10.508   9.613  0.7446  0.1180  0.0056
  300MOL0     H40468   5.096  10.503   9.366  1.6658  0.8341 -1.4479
  300MOL0     H40469   5.071  10.677   9.386 -1.9683  1.2864  4.0223
  300MOL0     H40470   5.314  10.710   9.442 -0.1377  0.8528 -1.6176
  300MOL0     H40471   5.295  10.647   9.283  2.3336  1.4520 -0.2565
  300MOL0     H40472   5.321  10.405   9.372 -3.2731  2.2416 -1.5055
  300MOL0     H40473   5.365  10.477   9.523  1.0484 -1.2694  0.7789
  300MOL0     H40474   5.493  10.511   9.238 -0.9368  1.7255 -0.4358
  300MOL0     H40475   5.539  10.620   9.373  1.3307 -1.2248 -1.2057
  300MOL0     H40476   5.580  10.319   9.354 -2.2842 -0.8658  2.6630
  300MOL0     H40477   5.560  10.385   9.510 -1.5133 -0.4335 -0.0752
  300MOL0     H40478   5.747  10.547   9.473  3.8832 -0.1441  1.5256
  300MOL0     H40479   5.801  10.394   9.485  5.2438  4.5521 -0.7843
  300MOL0     H40480   4.696  10.563   9.676 -1.9722 -0.1162 -2.0233
  300MOL0     H40481   4.474  10.455   9.721  1.3216  0.2069  1.0935
  300MOL0     H40482   4.036  10.261   9.820  1.5691  1.8657 -3.3101
  300MOL0     H40483   3.878  10.100   9.831  0.2431  3.1879 -0.6741
  300MOL0     H40484   2.456   9.499  10.240  0.3513  0.1051  2.2234
  300MOL0     H40485   2.223   9.559  10.341 -1.3357  0.4161  0.8184
  300MOL0     H40486   1.839   9.530  10.361  0.1197  0.1569  0.3715
  300MOL0     H40487   1.606   9.603  10.396 -0.6190 -0.1725  0.8874
  300MOL0     H40488   1.440   9.670  10.501  1.5270 -1.6884  1.6807
  300MOL0     H40489   1.296   9.637  10.585 -0.2861  1.4966 -0.3013
  300MOL0     H40490   1.351   9.549  10.293 -1.7518  4.0234 -2.1022
  300MOL0     H40491   1.226   9.647  10.356  1.4764  0.3063 -1.7878
  300MOL0     H40492   1.243   9.348  10.390 -1.2805 -2.0958  2.3971
  300MOL0     H40493   1.115   9.457  10.317  0.2746 -0.4014  0.1620
  300MOL0     H40494   1.021   9.360  10.510 -3.1427  4.4771 -2.4657
  300MOL0     H40495   1.172   9.372  10.603  2.0041 -0.0111 -1.0059
  300MOL0     H40496   0.998   9.739  10.687 -1.7261 -0.0648 -1.3636
  300MOL0     H40497   1.533   9.249  10.628  0.4319  0.6808  0.5927
  300MOL0     H40498   1.855   9.194  10.728  0.1930 -0.4630 -0.3453
  300MOL0     H40499   1.688   9.147  10.748  1.0945  1.4459  1.3573
  300MOL0     H40500   1.789   9.077  10.611  0.7682  0.2411 -0.0954
  301MOL0     O40501   9.377   2.677   8.012  0.2206  0.1360 -0.0536
  301MOL0     C40502   9.306   2.692   7.911 -0.3780  0.8948 -0.4589
  301MOL0     O40503   9.345   2.727   7.781 -0.2990 -0.1176  0.2977
  301MOL0     C40504   9.477   2.747   7.752 -0.3355  0.8236 -0.3241
  301MOL0     C40505   9.522   2.878   7.730 -0.8375 -0.2263 -0.3909
  301MOL0     C40506   9.658   2.896   7.696 -0.2049 -1.3538 -0.5853
  301MOL0     C40507   9.747   2.784   7.698 -0.3910 -0.1872 -0.2103
  301MOL0     O40508   9.876   2.800   7.664 -0.0114 -0.2083  0.1908
  301MOL0     C40509   9.960   2.857   7.770 -0.8587 -0.2430  0.3842
  301MOL0     C40510  10.099   2.888   7.716  0.5564  0.4110  0.2059
  301MOL0     C40511  10.106   2.949   7.569  0.4992  0.6194 -0.5635
  301MOL0     C40512  10.035   3.085   7.572  0.0657 -0.4992 -0.3974
  301MOL0     C40513  10.036   3.144   7.434  0.2300 -0.0377  0.4708
  301MOL0     C40514   9.942   3.273   7.412 -0.2631  0.2778 -0.7596
  301MOL0     C40515   9.794   3.255   7.432  1.1285 -0.2251 -1.0570
  301MOL0     C40516   9.734   3.133   7.355  0.0543  0.8272  0.0740
  301MOL0     N40517   9.593   3.159   7.320 -0.4331  0.7557  0.2642
  301MOL0     C40518   9.491   3.214   7.396  0.2287  0.1164 -0.6456
  301MOL0     C40519   9.379   3.225   7.312 -0.0136 -0.1045  0.4897
  301MOL0     C40520   9.244   3.289   7.325  0.3035  0.0301 -0.0522
  301MOL0     C40521   9.149   3.276   7.211 -0.1067 -0.4221  0.6996
  301MOL0     C40522   9.091   3.139   7.188  0.6612 -0.1206 -0.3027
  301MOL0     C40523   8.995   3.133   7.066 -0.1575  0.8939  0.7493
  301MOL0     O40524   8.955   3.002   7.030  0.7596 -0.2832 -0.3903
  301MOL0     C40525   8.835   2.951   7.074  0.1618  0.3887 -0.5189
  301MOL0     C40526   8.762   2.999   7.183 -0.5277  0.0798  0.2154
  301MOL0     C40527   8.642   2.932   7.221  0.0074 -0.3309  0.2394
  301MOL0     C40528   8.581   2.835   7.144  0.8014 -0.4820 -0.1185
  301MOL0     C40529   8.450   2.778   7.182 -0.1277 -0.2265  0.0488
  301MOL0     O40530   8.393   2.681   7.109  0.7418 -0.4596  0.7111
  301MOL0     C40531   8.252   2.655   7.114 -0.4270 -0.0612  0.2966
  301MOL0     C40532   8.164   2.667   7.004 -0.4486  0.0149  1.0508
  301MOL0     C40533   8.026   2.631   7.014 -0.5879 -0.8688 -0.6264
  301MOL0     C40534   7.974   2.602   7.139 -0.5853  0.3350  0.0323
  301MOL0     O40535   7.844   2.588   7.181  0.5613  0.0531  0.1363
  301MOL0     C40536   7.749   2.597   7.081  0.3469  0.2556 -0.4743
  301MOL0     C40537   7.609   2.577   7.145  0.0953 -0.0726  0.8207
  301MOL0     C40538   7.503   2.617   7.039  0.3761 -0.2125 -0.0794
  301MOL0     C40539   7.371   2.676   7.105  0.6968 -0.4019 -0.0682
  301MOL0     C40540   7.271   2.662   6.992  0.4540 -0.5135 -0.0287
  301MOL0     C40541   7.141   2.733   7.035  0.1566  0.4581  0.1870
  301MOL0     C40542   7.041   2.624   7.083 -0.1088  0.5121 -0.7370
  301MOL0     C40543   6.928   2.669   7.166  0.3815 -0.1799  0.4258
  301MOL0    Cl40544   6.999   2.762   7.311 -0.5706  0.1143 -0.0516
  301MOL0     C40545   8.060   2.590   7.249 -0.1764  0.3978  1.0880
  301MOL0     C40546   8.199   2.612   7.236  1.0028  0.4727 -0.1937
  301MOL0     O40547   8.397   2.839   7.276  0.2394  0.1820 -0.2370
  301MOL0     C40548   8.663   2.775   7.043  0.4691  0.6724  0.2595
  301MOL0     C40549   8.784   2.829   7.007 -0.0602  0.2928  0.4774
  301MOL0     N40550   9.421   3.173   7.188  0.1424 -0.3375 -0.2423
  301MOL0     N40551   9.537   3.127   7.197 -0.4886 -0.2342  0.5552
  301MOL0     C40552   9.699   2.656   7.717  0.5253  0.4967  0.2345
  301MOL0     C40553   9.565   2.635   7.752  0.5727 -0.5726  0.3861
  301MOL0     C40554   9.157   2.679   7.928 -0.2767 -0.3796 -0.7900
  301MOL0     C40555   9.074   2.735   7.831 -0.6904 -0.2135  0.4623
  301MOL0     C40556   8.930   2.708   7.830 -0.1280  0.2863  0.3002
  301MOL0     C40557   8.867   2.636   7.932  0.0437  0.3574  0.6008
  301MOL0     O40558   8.734   2.598   7.928 -0.3038  0.3355  0.3088
  301MOL0     C40559   8.682   2.508   8.030 -0.4798 -0.6359  0.4781
  301MOL0     C40560   8.531   2.497   8.017 -1.0733 -0.1712  0.3289
  301MOL0     C40561   8.470   2.411   8.131 -0.4128  0.5927 -0.1033
  301MOL0     C40562   8.316   2.403   8.124  0.0566 -0.4252 -0.1863
  301MOL0     C40563   8.257   2.372   7.993  0.6721 -0.5472 -0.3394
  301MOL0     C40564   8.212   2.361   7.884  0.3627 -0.6798  0.1371
  301MOL0     C40565   8.955   2.577   8.026 -0.1749  0.3168 -0.1124
  301MOL0     C40566   9.093   2.598   8.031  0.3603 -0.2836  0.4109
  301MOL0     C40567   9.166   2.526   8.144  0.6900 -0.1484 -0.2554
  301MOL0     H40568   9.460   2.967   7.735  0.1491  0.4529  0.2798
  301MOL0     H40569   9.700   2.993   7.673  1.1989 -2.0731 -1.2102
  301MOL0     H40570   9.920   2.952   7.808  0.5418  0.4976  0.0934
  301MOL0     H40571   9.965   2.788   7.854  1.2042 -0.3171  0.2610
  301MOL0     H40572  10.150   2.792   7.722 -0.8576 -0.4226 -0.5703
  301MOL0     H40573  10.153   2.963   7.774  3.9406  0.8791 -3.1366
  301MOL0     H40574  10.070   2.883   7.490  1.2156  0.3485 -0.6694
  301MOL0     H40575  10.207   2.961   7.528 -0.1725  0.9789 -2.2311
  301MOL0     H40576   9.931   3.054   7.591 -0.0099 -0.0658 -0.0798
  301MOL0     H40577  10.068   3.143   7.659  0.0064 -0.9234 -0.0871
  301MOL0     H40578  10.136   3.175   7.403 -0.1191  1.5163  0.8133
  301MOL0     H40579  10.011   3.064   7.363 -0.2499 -0.4081  1.0402
  301MOL0     H40580   9.980   3.352   7.477  0.3088  0.8675 -1.8038
  301MOL0     H40581   9.961   3.312   7.312 -2.5326  1.1194 -0.9329
  301MOL0     H40582   9.739   3.342   7.396 -2.1162 -0.9731  1.5441
  301MOL0     H40583   9.758   3.256   7.536 -0.9085 -1.0847 -1.6932
  301MOL0     H40584   9.799   3.128   7.267  1.1858 -0.5267  0.9331
  301MOL0     H40585   9.739   3.042   7.416  0.7292  0.8645  0.0913
  301MOL0     H40586   9.508   3.255   7.495  0.3201 -2.2120  0.3732
  301MOL0     H40587   9.183   3.259   7.411 -1.0577 -0.5887 -1.1807
  301MOL0     H40588   9.261   3.395   7.345 -0.7378  0.1503  0.2946
  301MOL0     H40589   9.066   3.344   7.233  0.4994 -0.3609  3.0253
  301MOL0     H40590   9.194   3.307   7.116  0.6527  0.0925  1.2163
  301MOL0     H40591   9.034   3.101   7.274 -1.1724 -0.0864 -1.4532
  301MOL0     H40592   9.182   3.080   7.175  0.9627  0.5641 -1.4219
  301MOL0     H40593   9.043   3.166   6.973 -0.5983 -1.2091 -0.2739
  301MOL0     H40594   8.907   3.196   7.083  0.9072  1.8441  3.3898
  301MOL0     H40595   8.801   3.080   7.243 -0.0430  0.3029 -0.3866
  301MOL0     H40596   8.596   2.982   7.306  1.7780  0.8633  0.5553
  301MOL0     H40597   8.214   2.707   6.917 -1.3833 -1.0495 -0.0043
  301MOL0     H40598   7.957   2.657   6.935 -1.5285 -1.8917 -0.1731
  301MOL0     H40599   7.759   2.698   7.042  3.8353  0.8297  1.4428
  301MOL0     H40600   7.770   2.526   7.000 -0.7697 -1.3377  0.5767
  301MOL0     H40601   7.591   2.472   7.170 -1.2950 -0.9904 -3.2365
  301MOL0     H40602   7.603   2.639   7.235 -2.5932  0.0533  0.6525
  301MOL0     H40603   7.535   2.691   6.965 -0.6737 -2.1638 -2.6541
  301MOL0     H40604   7.479   2.529   6.978 -0.4844 -0.6406  0.8423
  301MOL0     H40605   7.386   2.780   7.132 -2.8167  0.1398  0.2767
  301MOL0     H40606   7.339   2.613   7.188  0.5090 -2.1258 -1.3846
  301MOL0     H40607   7.248   2.556   6.978  1.0073 -0.4423 -1.7194
  301MOL0     H40608   7.309   2.690   6.894 -5.2128  2.5618 -1.7859
  301MOL0     H40609   7.154   2.814   7.108  2.0142  0.0098  0.4056
  301MOL0     H40610   7.102   2.780   6.945 -0.1017 -0.7318 -0.3343
  301MOL0     H40611   7.088   2.548   7.147 -1.6073 -0.4402 -0.7074
  301MOL0     H40612   6.999   2.561   7.004  1.0838 -2.4169  0.7726
  301MOL0     H40613   6.869   2.729   7.096  1.2613 -3.2058 -3.2416
  301MOL0     H40614   6.862   2.588   7.199 -0.3290  0.3542  0.3399
  301MOL0     H40615   8.009   2.564   7.341  1.4281 -1.6930  1.4743
  301MOL0     H40616   8.253   2.611   7.330 -1.3580  2.9901  1.3534
  301MOL0     H40617   8.626   2.695   6.980 -0.4247  0.5785  0.8753
  301MOL0     H40618   8.845   2.787   6.928 -1.2264 -1.0941  0.2817
  301MOL0     H40619   9.764   2.571   7.700  0.6581  0.2210  1.9061
  301MOL0     H40620   9.521   2.541   7.783  0.5558 -0.1107  1.8533
  301MOL0     H40621   9.117   2.787   7.746 -0.8220  0.3548  0.7437
  301MOL0     H40622   8.858   2.770   7.777 -1.3797  1.2176  2.8973
  301MOL0     H40623   8.707   2.542   8.131  2.2706 -1.4044  0.1524
  301MOL0     H40624   8.716   2.407   8.006 -1.2113 -1.2292  1.8368
  301MOL0     H40625   8.493   2.463   7.920  0.3977 -0.1148 -0.2893
  301MOL0     H40626   8.493   2.598   8.029  1.6711  1.1374 -1.0177
  301MOL0     H40627   8.491   2.459   8.227 -2.8271 -0.9488  1.2790
  301MOL0     H40628   8.512   2.310   8.134  1.9282  1.5066  0.2837
  301MOL0     H40629   8.282   2.321   8.188  0.8180 -0.5298  0.1016
  301MOL0     H40630   8.280   2.500   8.160  1.5005  0.7598 -1.7371
  301MOL0     H40631   8.164   2.339   7.790  1.0420 -1.5225 -0.0335
  301MOL0     H40632   8.915   2.517   8.107  0.5041 -0.9330 -0.6667
  301MOL0     H40633   9.210   2.600   8.212  0.0986  0.6801 -0.7423
  301MOL0     H40634   9.101   2.460   8.202 -0.3389  1.2754  0.2709
  301MOL0     H40635   9.248   2.467   8.103  1.6721  1.1909 -0.3006
  302MOL0     O40636  11.009   5.374  11.294  0.5626  0.6009  0.0982
  302MOL0     C40637  11.076   5.272  11.293  0.2414 -0.5981 -0.4029
  302MOL0     O40638  11.214   5.265  11.323  0.0003  0.0188  0.3270
  302MOL0     C40639  11.268   5.373  11.383 -0.1901  0.0954  0.3799
  302MOL0     C40640  11.344   5.466  11.314 -0.5667  0.7338  0.0030
  302MOL0     C40641  11.418   5.558  11.381 -0.1653 -0.0453  0.2422
  302MOL0     C40642  11.415   5.573  11.522  0.3879  0.4228  0.4283
  302MOL0     O40643  11.497   5.674  11.574  0.1825  0.5558 -0.0014
  302MOL0     C40644  11.522   5.661  11.717 -0.5414  0.3632 -0.1170
  302MOL0     C40645  11.627   5.769  11.734  0.2643  0.5681  0.6576
  302MOL0     C40646  11.703   5.757  11.858  0.4052  0.5236 -0.3977
  302MOL0     C40647  11.820   5.871  11.868  0.3084  0.0020 -0.2662
  302MOL0     C40648  11.878   5.885  12.010 -0.6918 -0.3286 -0.5180
  302MOL0     C40649  11.940   5.748  12.075 -1.1600  1.4875 -0.2930
  302MOL0     C40650  12.044   5.682  11.982  0.9847 -0.4467 -0.0498
  302MOL0     C40651  12.090   5.555  12.051 -0.0604 -0.3164  0.5329
  302MOL0     N40652  12.173   5.582  12.170  0.8973 -0.2189  0.0987
  302MOL0     C40653  12.141   5.537  12.296 -1.2265 -0.2372 -0.5287
  302MOL0     C40654  12.254   5.549  12.363 -0.2906 -0.1454  0.2668
  302MOL0     C40655  12.275   5.525  12.506 -0.3645  0.7185 -1.0608
  302MOL0     C40656  12.243   5.650  12.595 -0.1255 -0.2720 -0.4118
  302MOL0     C40657  12.364   5.705  12.677 -0.3163  0.7635  0.1432
  302MOL0     C40658  12.483   5.744  12.594 -0.4428 -0.2147  0.1400
  302MOL0     O40659  12.467   5.879  12.551  0.6717 -0.1848  0.2052
  302MOL0     C40660  12.586   5.917  12.488  0.0649  0.7072 -0.4502
  302MOL0     C40661  12.647   5.853  12.371 -0.2739  0.0512 -0.1402
  302MOL0     C40662  12.762   5.905  12.317 -0.7734  0.5033 -0.3496
  302MOL0     C40663  12.808   6.035  12.367 -0.3652  0.2252 -0.4675
  302MOL0     C40664  12.932   6.088  12.314 -0.0741 -0.3372  0.1772
  302MOL0     O40665  12.971   6.216  12.353  0.3637  0.4655  0.2375
  302MOL0     C40666  13.085   6.276  12.313  0.1455 -1.7648  0.2351
  302MOL0     C40667  13.118   6.385  12.395  0.0043  0.5007  0.0719
  302MOL0     C40668  13.224   6.463  12.374  0.1607 -0.5425 -0.6085
  302MOL0     C40669  13.304   6.442  12.263 -0.7279 -0.8761  0.2442
  302MOL0     O40670  13.414   6.523  12.263 -0.1218 -0.4597 -0.1851
  302MOL0     C40671  13.523   6.485  12.192 -0.3809  0.5449  0.2776
  302MOL0     C40672  13.642   6.566  12.239  0.0148 -0.6131 -0.7271
  302MOL0     C40673  13.624   6.718  12.239 -0.6262  0.1268 -0.4083
  302MOL0     C40674  13.594   6.755  12.382  0.6897 -0.3669 -0.4032
  302MOL0     C40675  13.597   6.904  12.411 -0.4501  0.9766  0.7334
  302MOL0     C40676  13.738   6.957  12.426 -0.1678 -0.4508  0.7434
  302MOL0     C40677  13.802   6.934  12.563  0.1462 -0.0552  0.6920
  302MOL0     C40678  13.850   6.790  12.600  0.1234 -0.3996  0.6908
  302MOL0    Cl40679  13.720   6.708  12.691 -0.0723 -0.2855  0.3168
  302MOL0     C40680  13.276   6.336  12.167 -0.3491  0.3107 -1.3813
  302MOL0     C40681  13.163   6.262  12.196  0.8181 -0.3690 -1.0718
  302MOL0     O40682  12.996   6.015  12.239 -0.2890 -0.9129  0.2379
  302MOL0     C40683  12.748   6.092  12.483  0.4407  0.3649 -0.4295
  302MOL0     C40684  12.645   6.025  12.548  0.0436  0.0697  0.3910
  302MOL0     N40685  12.347   5.618  12.285  0.4158 -0.3423 -0.4743
  302MOL0     N40686  12.296   5.629  12.172  0.3821 -0.0355  0.0209
  302MOL0     C40687  11.338   5.472  11.589 -0.0672  0.1215  0.2678
  302MOL0     C40688  11.266   5.379  11.524  0.9844  0.0882  0.2035
  302MOL0     C40689  11.025   5.162  11.221  0.5956  0.0639 -0.9805
  302MOL0     C40690  11.112   5.085  11.137 -1.0028 -0.0043  0.2819
  302MOL0     C40691  11.056   4.974  11.064 -0.7247 -0.2412 -0.4601
  302MOL0     C40692  10.927   4.928  11.088 -1.0217  0.1233  0.5220
  302MOL0     O40693  10.894   4.816  11.026  0.0693 -0.1280 -0.8831
  302MOL0     C40694  10.794   4.728  11.085  0.4652 -0.0204  0.5680
  302MOL0     C40695  10.852   4.651  11.202 -0.1291 -0.0627 -0.6700
  302MOL0     C40696  10.964   4.554  11.169  0.1839 -0.3162  0.0041
  302MOL0     C40697  11.009   4.487  11.302 -0.0334 -0.3501  0.3620
  302MOL0     C40698  11.119   4.397  11.277 -0.1891 -0.6950  0.0566
  302MOL0     C40699  11.214   4.327  11.254 -0.3419 -0.2436 -0.3752
  302MOL0     C40700  10.850   4.992  11.177 -0.5594 -0.4348 -0.5044
  302MOL0     C40701  10.896   5.110  11.240  0.9008 -0.0163  0.1279
  302MOL0     C40702  10.809   5.174  11.350 -0.2683  0.4258 -0.0986
  302MOL0     H40703  11.352   5.450  11.207 -0.1779  1.3800 -0.0726
  302MOL0     H40704  11.491   5.618  11.328  1.6064 -3.5447 -1.7162
  302MOL0     H40705  11.430   5.675  11.773 -1.2346 -2.7023 -0.3124
  302MOL0     H40706  11.562   5.562  11.740 -0.8827 -0.4580 -2.7082
  302MOL0     H40707  11.575   5.865  11.720  2.7973  1.5365 -7.2119
  302MOL0     H40708  11.699   5.770  11.651 -0.8491  1.8758 -0.3491
  302MOL0     H40709  11.747   5.657  11.860 -3.1377 -1.1973  0.6533
  302MOL0     H40710  11.631   5.757  11.941 -1.1598 -1.1260 -1.6760
  302MOL0     H40711  11.896   5.858  11.790  0.7105  0.7196  0.0027
  302MOL0     H40712  11.773   5.966  11.840 -0.0437  0.5085  1.8764
  302MOL0     H40713  11.948   5.969  12.009 -0.8495 -0.1173 -3.2944
  302MOL0     H40714  11.797   5.907  12.079 -0.8063  1.2151 -1.1022
  302MOL0     H40715  11.990   5.764  12.172  1.6659  1.8562 -1.7042
  302MOL0     H40716  11.859   5.678  12.099  1.3017 -0.5119  3.2071
  302MOL0     H40717  12.114   5.763  11.957 -2.3906  2.7582  0.0489
  302MOL0     H40718  11.989   5.658  11.891  0.2848  1.1775 -0.0886
  302MOL0     H40719  12.000   5.499  12.077  0.3614 -0.7961  0.9841
  302MOL0     H40720  12.157   5.500  11.984 -1.2887  0.5365 -1.4911
  302MOL0     H40721  12.057   5.488  12.346 -1.3194  1.9892  1.7060
  302MOL0     H40722  12.216   5.439  12.542 -0.1312  1.2436  0.6820
  302MOL0     H40723  12.376   5.494  12.535 -0.8009  1.1169  1.0409
  302MOL0     H40724  12.210   5.737  12.538 -0.9028 -0.8112 -0.8092
  302MOL0     H40725  12.169   5.622  12.672 -0.4284 -0.4309 -0.7583
  302MOL0     H40726  12.396   5.630  12.750 -0.3144 -1.5014 -2.0455
  302MOL0     H40727  12.322   5.787  12.735  0.2538  1.1132  0.0711
  302MOL0     H40728  12.476   5.681  12.505 -2.8771  2.2907 -1.6017
  302MOL0     H40729  12.577   5.735  12.650 -0.9974  1.3937  1.4228
  302MOL0     H40730  12.597   5.763  12.338  0.1857 -0.9097  1.6610
  302MOL0     H40731  12.799   5.859  12.226  0.1512 -0.3163  0.4240
  302MOL0     H40732  13.049   6.410  12.474 -1.1067  0.9432 -0.9994
  302MOL0     H40733  13.234   6.547  12.442 -2.2848 -1.6030  1.2681
  302MOL0     H40734  13.548   6.379  12.200  2.2613  0.8736 -2.0065
  302MOL0     H40735  13.517   6.493  12.083  2.8682 -3.0111 -0.3864
  302MOL0     H40736  13.667   6.535  12.341  3.3518 -2.1890 -1.8790
  302MOL0     H40737  13.724   6.545  12.170 -0.4399 -3.8311 -0.4365
  302MOL0     H40738  13.727   6.749  12.217  0.2206 -2.5317 -0.5609
  302MOL0     H40739  13.565   6.755  12.155  0.6177 -1.5923 -2.1216
  302MOL0     H40740  13.665   6.702  12.446 -2.8071 -3.0410  1.6388
  302MOL0     H40741  13.494   6.724  12.415 -0.2766  1.9395 -0.9396
  302MOL0     H40742  13.531   6.933  12.493 -0.6818  0.6967  0.6487
  302MOL0     H40743  13.543   6.950  12.327 -0.5866  0.9192  0.7891
  302MOL0     H40744  13.812   6.916  12.358  0.4056  2.3846 -0.5112
  302MOL0     H40745  13.720   7.065  12.414 -2.7698 -0.6579  2.0053
  302MOL0     H40746  13.743   6.980  12.643 -0.3616 -0.4274  0.5320
  302MOL0     H40747  13.890   6.999  12.563 -1.4374  2.3956  3.9337
  302MOL0     H40748  13.893   6.732  12.517 -0.1803  0.8142 -0.3418
  302MOL0     H40749  13.935   6.806  12.668  0.7947  2.7240 -0.7158
  302MOL0     H40750  13.333   6.313  12.078  0.5001  2.2807 -1.3826
  302MOL0     H40751  13.131   6.187  12.124 -0.6582 -0.3890 -0.4233
  302MOL0     H40752  12.797   6.177  12.531 -1.5916  2.4320 -1.8132
  302MOL0     H40753  12.600   6.071  12.635 -2.3989  0.0263 -0.7631
  302MOL0     H40754  11.314   5.474  11.695  3.1137 -4.0481  1.3148
  302MOL0     H40755  11.209   5.303  11.576  0.7643 -0.4427 -0.7907
  302MOL0     H40756  11.219   5.098  11.126 -0.9908 -1.2144 -1.3610
  302MOL0     H40757  11.132   4.917  11.011  2.5394 -0.6172  4.0480
  302MOL0     H40758  10.765   4.653  11.011 -0.5998  0.2397  0.6999
  302MOL0     H40759  10.701   4.776  11.118 -0.3409 -1.9800  1.2420
  302MOL0     H40760  10.768   4.606  11.255  0.1187  0.4878  0.2216
  302MOL0     H40761  10.896   4.724  11.271  2.4623 -2.2924  0.1943
  302MOL0     H40762  11.047   4.607  11.121  0.6682 -2.1021 -1.1936
  302MOL0     H40763  10.928   4.474  11.104  0.7575  1.3169 -2.4800
  302MOL0     H40764  11.047   4.547  11.385  2.6880 -1.8195  0.2842
  302MOL0     H40765  10.920   4.431  11.333  0.2973 -1.6063 -0.8948
  302MOL0     H40766  11.292   4.255  11.237 -0.0807  0.5359 -2.9578
  302MOL0     H40767  10.747   4.957  11.185 -0.5256 -0.1610  1.9772
  302MOL0     H40768  10.781   5.277  11.326  0.1653  0.6993  0.5369
  302MOL0     H40769  10.714   5.125  11.372 -0.3173  0.4124 -0.3310
  302MOL0     H40770  10.863   5.168  11.444 -1.8651 -1.0663  0.7847
  303MOL0     O40771   2.059   4.216  10.882  0.9773 -0.4101 -0.3488
  303MOL0     C40772   1.978   4.126  10.889  0.0617  0.5947  0.5475
  303MOL0     O40773   1.892   4.106  10.993  0.1518 -0.4656  0.0454
  303MOL0     C40774   1.886   4.206  11.087  0.7291 -0.1221 -0.2983
  303MOL0     C40775   1.996   4.235  11.167  0.2613  0.0196 -0.2967
  303MOL0     C40776   1.991   4.340  11.263  0.2187  0.7545  0.6463
  303MOL0     C40777   1.877   4.405  11.292  0.4249 -0.1600  1.0739
  303MOL0     O40778   1.871   4.504  11.379 -0.1188  0.4276  0.6088
  303MOL0     C40779   1.904   4.481  11.517  0.4782  0.3079  0.2247
  303MOL0     C40780   1.930   4.603  11.589 -0.1374 -0.5158 -0.3946
  303MOL0     C40781   2.077   4.624  11.596  0.4177 -0.0988  0.0036
  303MOL0     C40782   2.113   4.767  11.647 -0.9448  0.5601  0.3194
  303MOL0     C40783   2.261   4.790  11.636 -0.6192  0.5325  0.7924
  303MOL0     C40784   2.305   4.824  11.497  0.2022 -0.0583 -0.1445
  303MOL0     C40785   2.451   4.787  11.497 -0.3522  0.0815  0.6928
  303MOL0     C40786   2.530   4.850  11.613 -1.2687  0.0412  0.0405
  303MOL0     N40787   2.679   4.843  11.588  0.7257  0.4314  0.8029
  303MOL0     C40788   2.769   4.738  11.599  0.1602 -0.5336 -0.6295
  303MOL0     C40789   2.893   4.792  11.583 -0.2990 -0.1161  0.5399
  303MOL0     C40790   3.027   4.726  11.618  1.2398  0.3591  0.1104
  303MOL0     C40791   3.135   4.789  11.529 -0.8880  0.2942 -0.2141
  303MOL0     C40792   3.264   4.708  11.533 -1.1313  0.5211 -0.4536
  303MOL0     C40793   3.327   4.680  11.672  0.3690 -0.0840  0.2923
  303MOL0     O40794   3.446   4.603  11.643 -0.1840 -0.0690 -0.6342
  303MOL0     C40795   3.567   4.669  11.640  0.7050 -0.1160  0.7344
  303MOL0     C40796   3.680   4.588  11.634 -0.3354  0.1069 -0.8098
  303MOL0     C40797   3.808   4.650  11.628 -0.1714  0.7005 -0.3804
  303MOL0     C40798   3.826   4.783  11.615 -0.2174  0.2946  0.7451
  303MOL0     C40799   3.958   4.844  11.623  0.2349  0.7154  0.4084
  303MOL0     O40800   4.060   4.763  11.656 -0.1705 -0.0126  0.1937
  303MOL0     C40801   4.184   4.825  11.651 -0.1742 -0.2732 -0.0023
  303MOL0     C40802   4.259   4.849  11.773 -0.1240  0.2731  0.5122
  303MOL0     C40803   4.385   4.908  11.758 -0.0441 -0.4807  0.0065
  303MOL0     C40804   4.434   4.946  11.633 -0.3686 -0.4591 -0.5112
  303MOL0     O40805   4.561   5.009  11.613  0.2498  0.1994  0.5626
  303MOL0     C40806   4.668   4.975  11.710 -0.0406 -0.3295  0.6431
  303MOL0     C40807   4.801   5.011  11.653  0.2305 -0.9381 -0.2874
  303MOL0     C40808   4.904   4.986  11.761 -0.4842 -0.5636 -0.0960
  303MOL0     C40809   5.034   4.928  11.699 -0.1975 -0.8312 -0.4840
  303MOL0     C40810   5.156   4.956  11.785  0.2923  0.1188  0.7494
  303MOL0     C40811   5.286   4.884  11.747  0.1372  0.0035  0.1105
  303MOL0     C40812   5.381   4.902  11.863  0.8691  0.1922 -0.6127
  303MOL0     C40813   5.490   4.799  11.852 -0.2051  0.2350 -0.2372
  303MOL0    Cl40814   5.584   4.819  11.699 -0.0526  0.0802 -0.0991
  303MOL0     C40815   4.368   4.914  11.519  0.1686 -0.2904  0.3281
  303MOL0     C40816   4.242   4.853  11.527 -0.2256 -0.0166  0.2465
  303MOL0     O40817   3.968   4.958  11.592  0.5452 -0.3422 -0.2160
  303MOL0     C40818   3.704   4.865  11.627 -0.8600 -0.0597  0.7365
  303MOL0     C40819   3.580   4.813  11.634 -0.8169  0.0608 -0.1111
  303MOL0     N40820   2.871   4.922  11.533 -0.6755  0.0425  0.5817
  303MOL0     N40821   2.752   4.953  11.542  0.3357  0.2504  0.7611
  303MOL0     C40822   1.765   4.386  11.201 -0.5022  0.9252 -0.4078
  303MOL0     C40823   1.769   4.283  11.103  0.2507 -0.1651 -0.6129
  303MOL0     C40824   1.955   4.023  10.780 -0.4883 -0.4855 -0.3054
  303MOL0     C40825   1.902   3.901  10.820 -0.1427  0.0362  0.2210
  303MOL0     C40826   1.890   3.794  10.726  0.8266 -0.5399 -0.8174
  303MOL0     C40827   1.937   3.800  10.593 -0.3274 -0.6637 -0.6737
  303MOL0     O40828   1.927   3.684  10.523  0.5771 -0.0952 -0.2319
  303MOL0     C40829   1.919   3.692  10.379  0.7331  0.2571  0.0467
  303MOL0     C40830   1.881   3.557  10.314 -0.5511 -0.3446  0.9183
  303MOL0     C40831   1.995   3.454  10.336 -0.0818 -0.0709 -0.7554
  303MOL0     C40832   1.959   3.316  10.282 -0.6000 -0.2211  0.6506
  303MOL0     C40833   2.070   3.219  10.305  0.4894 -0.7048 -0.2264
  303MOL0     C40834   2.164   3.147  10.333  0.5993  0.5163  1.0030
  303MOL0     C40835   1.996   3.927  10.554  0.6009  0.0643 -0.1221
  303MOL0     C40836   2.006   4.037  10.646 -0.2868 -0.3910 -0.3036
  303MOL0     C40837   2.070   4.163  10.592 -0.3457 -0.4164 -0.3264
  303MOL0     H40838   2.090   4.182  11.151  0.8447  1.1118 -0.5651
  303MOL0     H40839   2.083   4.372  11.312  2.7236  0.3134 -3.3131
  303MOL0     H40840   1.818   4.429  11.562  0.9445 -0.2673  0.4501
  303MOL0     H40841   1.993   4.419  11.518  1.1190  1.2056  0.0289
  303MOL0     H40842   1.900   4.595  11.694 -0.6620  1.9028 -0.2862
  303MOL0     H40843   1.877   4.692  11.554 -0.1077  0.7938  2.5273
  303MOL0     H40844   2.116   4.609  11.495 -2.6536 -0.7589 -1.1869
  303MOL0     H40845   2.119   4.548  11.662 -0.6056  0.0661  0.8748
  303MOL0     H40846   2.053   4.843  11.596 -1.3191  1.2827  1.7650
  303MOL0     H40847   2.090   4.768  11.755 -0.6047  1.5272  0.3893
  303MOL0     H40848   2.287   4.876  11.698  1.3986  0.2590  0.3846
  303MOL0     H40849   2.309   4.695  11.662 -2.0251 -1.4383 -2.9566
  303MOL0     H40850   2.246   4.778  11.417 -0.9103  0.6020  0.2643
  303MOL0     H40851   2.294   4.931  11.482 -0.3892 -0.3516 -2.1658
  303MOL0     H40852   2.484   4.829  11.401  2.0357 -4.0054 -0.5235
  303MOL0     H40853   2.469   4.680  11.505  0.6237  0.1605 -0.2113
  303MOL0     H40854   2.500   4.955  11.625 -2.0431 -0.0434 -1.0395
  303MOL0     H40855   2.509   4.787  11.700 -0.6687 -1.5522 -0.9148
  303MOL0     H40856   2.756   4.641  11.645  0.3459  0.2377  1.1266
  303MOL0     H40857   3.047   4.734  11.725  0.9959 -0.9490  0.2703
  303MOL0     H40858   3.011   4.618  11.612 -0.0305  0.4837  0.8371
  303MOL0     H40859   3.095   4.810  11.430  0.9002 -1.4753 -1.4114
  303MOL0     H40860   3.154   4.884  11.580 -1.3491 -0.5593  1.6724
  303MOL0     H40861   3.342   4.762  11.478  1.0396 -0.5128  1.4536
  303MOL0     H40862   3.246   4.608  11.492 -0.2802  0.4248 -0.6036
  303MOL0     H40863   3.266   4.607  11.727  0.6452 -1.0577 -0.6629
  303MOL0     H40864   3.355   4.767  11.732  2.6081  1.0169 -2.1644
  303MOL0     H40865   3.675   4.482  11.656 -0.0223  0.1305 -0.6198
  303MOL0     H40866   3.895   4.586  11.626 -2.4391 -2.6857 -0.2732
  303MOL0     H40867   4.216   4.822  11.869 -0.0745  1.5051  0.8922
  303MOL0     H40868   4.450   4.926  11.843  0.1359 -3.2749  0.5404
  303MOL0     H40869   4.644   5.036  11.798  0.1585  2.5648 -1.1560
  303MOL0     H40870   4.663   4.868  11.732 -0.1078 -0.4279  0.1707
  303MOL0     H40871   4.832   4.947  11.570  1.4101  1.9555 -2.2282
  303MOL0     H40872   4.798   5.116  11.623 -0.7332 -0.4402  1.3884
  303MOL0     H40873   4.925   5.074  11.823  1.3780  0.5175 -2.1171
  303MOL0     H40874   4.861   4.912  11.828 -1.8366 -0.5102 -0.8525
  303MOL0     H40875   5.061   4.961  11.598  1.4474  1.1272  0.5213
  303MOL0     H40876   5.016   4.821  11.687 -0.1409 -1.0041  0.8121
  303MOL0     H40877   5.118   4.909  11.876 -0.1239 -3.0380 -0.8997
  303MOL0     H40878   5.188   5.061  11.789  1.8659 -0.3081  0.0483
  303MOL0     H40879   5.261   4.779  11.727  0.0539 -0.4701  2.3453
  303MOL0     H40880   5.329   4.935  11.661  1.3294  0.9019  1.1994
  303MOL0     H40881   5.333   4.880  11.959  2.2465 -0.3821 -0.0289
  303MOL0     H40882   5.417   5.005  11.871  1.7986 -0.2978  3.6349
  303MOL0     H40883   5.550   4.832  11.937  1.5794  3.0453 -2.4096
  303MOL0     H40884   5.455   4.696  11.864 -0.4941  0.4492  0.8563
  303MOL0     H40885   4.416   4.928  11.423 -1.5415 -2.3852 -0.9211
  303MOL0     H40886   4.188   4.833  11.436 -0.8291  0.1672  0.5584
  303MOL0     H40887   3.712   4.972  11.611  0.0910 -0.3553 -1.0552
  303MOL0     H40888   3.493   4.877  11.621 -0.7781 -0.2806 -2.3977
  303MOL0     H40889   1.671   4.438  11.217 -2.0569 -1.8985  0.2792
  303MOL0     H40890   1.678   4.273  11.045 -0.6011 -0.7834  0.7767
  303MOL0     H40891   1.876   3.883  10.924 -1.1095 -1.0542 -0.1823
  303MOL0     H40892   1.854   3.706  10.778  1.4245  0.7954  2.0036
  303MOL0     H40893   2.008   3.732  10.329 -0.0421  0.6137 -1.0806
  303MOL0     H40894   1.838   3.763  10.358  0.3012 -0.2335  0.0293
  303MOL0     H40895   1.883   3.572  10.206 -0.9269  1.6884  1.1472
  303MOL0     H40896   1.785   3.520  10.351 -0.1286 -0.9878  1.4014
  303MOL0     H40897   2.026   3.443  10.440  1.4154  1.8996 -0.9168
  303MOL0     H40898   2.085   3.497  10.290  0.4082  1.0697  1.1479
  303MOL0     H40899   1.874   3.278  10.339  0.6563  0.3131  2.9815
  303MOL0     H40900   1.940   3.328  10.175  3.1525 -0.0299 -0.1255
  303MOL0     H40901   2.249   3.091  10.364 -0.0793 -0.4646  1.1461
  303MOL0     H40902   2.043   3.941  10.457 -1.2207  4.6005 -0.5981
  303MOL0     H40903   2.071   4.159  10.482  0.1034  1.5343 -0.4446
  303MOL0     H40904   2.006   4.248  10.615  0.2540  0.7620 -2.6858
  303MOL0     H40905   2.173   4.180  10.627 -0.4502  0.3632 -0.3764
  304MOL0     O40906   3.374   3.819   7.799 -0.1108 -0.2326 -0.4981
  304MOL0     C40907   3.330   3.708   7.790  0.4048  0.3122 -0.0058
  304MOL0     O40908   3.410   3.590   7.774 -0.4442  0.0938 -0.3843
  304MOL0     C40909   3.549   3.583   7.790 -1.0380 -0.6350  0.3098
  304MOL0     C40910   3.638   3.693   7.817  0.4256  0.5342 -0.7797
  304MOL0     C40911   3.775   3.678   7.833  1.1934  0.8820  0.8181
  304MOL0     C40912   3.826   3.551   7.819 -0.2735 -0.1215  0.6692
  304MOL0     O40913   3.966   3.539   7.821 -0.2152 -1.2437 -0.4018
  304MOL0     C40914   4.019   3.448   7.719 -0.2276 -0.2534 -0.1441
  304MOL0     C40915   4.176   3.452   7.719 -0.6240 -0.0939 -0.6652
  304MOL0     C40916   4.230   3.415   7.855  0.2346 -0.4234  0.6841
  304MOL0     C40917   4.375   3.382   7.836 -0.8139  0.2108 -0.0328
  304MOL0     C40918   4.467   3.502   7.822 -0.2531 -0.2211 -0.0782
  304MOL0     C40919   4.452   3.604   7.933  0.2407  0.9849  0.3731
  304MOL0     C40920   4.569   3.707   7.941  0.8545 -0.4081  0.6368
  304MOL0     C40921   4.535   3.814   7.849 -0.0452  0.2568  0.4419
  304MOL0     N40922   4.640   3.921   7.836  0.5048  0.5616  0.1648
  304MOL0     C40923   4.699   3.955   7.717  0.2559  0.6930 -0.5944
  304MOL0     C40924   4.786   4.055   7.753  0.3330  0.6880  0.4760
  304MOL0     C40925   4.884   4.114   7.665  0.1979  0.4624 -0.3537
  304MOL0     C40926   5.034   4.071   7.698 -0.2632 -0.5718 -1.0474
  304MOL0     C40927   5.130   4.163   7.623 -0.1166  0.0282  0.4030
  304MOL0     C40928   5.269   4.151   7.687  0.2222  0.3366  0.3312
  304MOL0     O40929   5.355   4.229   7.608  0.0567 -0.2272  0.4010
  304MOL0     C40930   5.493   4.200   7.620  0.7790  1.1713 -0.0551
  304MOL0     C40931   5.552   4.121   7.729  0.2830 -0.2894  0.5253
  304MOL0     C40932   5.686   4.103   7.729  0.5700  0.3582 -0.1461
  304MOL0     C40933   5.774   4.153   7.625  0.7838 -0.1081  0.9951
  304MOL0     C40934   5.921   4.135   7.637 -0.6321 -0.1346 -1.3097
  304MOL0     O40935   5.983   4.123   7.519 -0.4471 -0.8308 -0.3167
  304MOL0     C40936   6.116   4.103   7.525  0.1028  0.0515  0.3726
  304MOL0     C40937   6.173   3.990   7.475  0.6155  1.1640  0.1550
  304MOL0     C40938   6.312   3.958   7.471 -0.5547 -0.2620 -0.0263
  304MOL0     C40939   6.400   4.058   7.522  0.7072  0.5357  0.1705
  304MOL0     O40940   6.537   4.048   7.543  0.1826  0.1865 -0.2786
  304MOL0     C40941   6.619   3.937   7.484  0.5006 -1.7252 -0.1445
  304MOL0     C40942   6.741   3.935   7.578 -0.1691  0.8444  0.7873
  304MOL0     C40943   6.844   3.834   7.515 -0.3713 -0.5950  0.3073
  304MOL0     C40944   6.952   3.905   7.435 -0.4279 -0.5381  0.3785
  304MOL0     C40945   7.060   3.962   7.532 -0.4715  0.4046 -0.2926
  304MOL0     C40946   7.180   4.009   7.452 -0.5224 -0.1357 -0.2346
  304MOL0     C40947   7.162   4.135   7.377  0.1976  0.1457  0.7792
  304MOL0     C40948   7.134   4.256   7.467  0.3113  1.0983 -0.4874
  304MOL0    Cl40949   7.278   4.304   7.554  0.5387 -0.0277 -0.5030
  304MOL0     C40950   6.344   4.181   7.564 -0.0667 -0.3181  0.2352
  304MOL0     C40951   6.208   4.199   7.569 -0.5190  0.1749 -0.3273
  304MOL0     O40952   5.972   4.115   7.750  0.2674 -0.2329  0.7013
  304MOL0     C40953   5.711   4.223   7.519  0.2696  0.3772 -0.1916
  304MOL0     C40954   5.581   4.256   7.521  0.2882  0.8532  0.5084
  304MOL0     N40955   4.765   4.089   7.884  0.1666  0.7939  0.0015
  304MOL0     N40956   4.678   4.012   7.936 -0.3432  0.3957  0.4824
  304MOL0     C40957   3.742   3.436   7.798 -0.3720  0.5794  0.2136
  304MOL0     C40958   3.611   3.452   7.776 -0.1781  0.1269  0.2360
  304MOL0     C40959   3.187   3.694   7.796  0.4301 -0.1127 -0.5930
  304MOL0     C40960   3.140   3.563   7.814 -0.4120  0.3408 -0.2879
  304MOL0     C40961   3.013   3.528   7.792  0.5631 -0.7237 -0.5051
  304MOL0     C40962   2.923   3.624   7.774  0.1559 -0.0226  0.5685
  304MOL0     O40963   2.793   3.589   7.778  0.7377  0.0528 -0.0003
  304MOL0     C40964   2.697   3.695   7.822 -0.0636  0.4848  0.8159
  304MOL0     C40965   2.716   3.711   7.975 -0.5815 -0.0514 -0.3859
  304MOL0     C40966   2.706   3.584   8.060  0.2565 -0.3120  0.1606
  304MOL0     C40967   2.564   3.527   8.077 -1.4500 -0.3303 -0.7083
  304MOL0     C40968   2.486   3.633   8.141 -0.1440 -0.6833 -0.4127
  304MOL0     C40969   2.430   3.724   8.189 -0.1896  1.3748 -0.5805
  304MOL0     C40970   2.966   3.757   7.756 -0.3122 -0.2907  0.2454
  304MOL0     C40971   3.100   3.800   7.766 -0.2104 -0.0750  0.4506
  304MOL0     C40972   3.139   3.937   7.725 -0.4599  0.3022  0.1336
  304MOL0     H40973   3.603   3.795   7.831  2.9146  1.6795 -2.1530
  304MOL0     H40974   3.838   3.766   7.847  2.7780  0.3762 -2.2973
  304MOL0     H40975   3.999   3.342   7.740  0.3097 -0.7870 -2.0876
  304MOL0     H40976   3.979   3.471   7.620 -2.7506  1.6378  1.1721
  304MOL0     H40977   4.216   3.552   7.701  0.9964  0.1856  3.4085
  304MOL0     H40978   4.211   3.383   7.642  2.3309  0.6253 -0.0717
  304MOL0     H40979   4.174   3.330   7.896  0.7967 -1.1610 -0.0167
  304MOL0     H40980   4.224   3.488   7.935 -0.7212 -1.9040  2.0251
  304MOL0     H40981   4.409   3.345   7.933 -0.9868  3.6683  1.4927
  304MOL0     H40982   4.408   3.312   7.759 -1.3818  1.5221 -1.5177
  304MOL0     H40983   4.570   3.465   7.821 -0.1220 -0.0483  2.1635
  304MOL0     H40984   4.441   3.548   7.727 -2.1022  1.6290  1.2241
  304MOL0     H40985   4.361   3.661   7.917 -1.1399 -1.3042 -0.4363
  304MOL0     H40986   4.436   3.548   8.026 -2.2867 -0.6160 -0.9299
  304MOL0     H40987   4.663   3.667   7.902 -0.1882 -2.6278  0.2150
  304MOL0     H40988   4.581   3.745   8.043 -0.6890  2.9352 -0.2839
  304MOL0     H40989   4.520   3.762   7.754  1.5253 -0.4074  0.5356
  304MOL0     H40990   4.443   3.860   7.888 -0.6661 -2.8468  3.0459
  304MOL0     H40991   4.690   3.900   7.624 -1.1003 -1.8619  0.9369
  304MOL0     H40992   4.868   4.083   7.561  0.6297 -1.4474  0.1143
  304MOL0     H40993   4.867   4.222   7.675  1.9601  0.9796 -2.1984
  304MOL0     H40994   5.060   4.084   7.804  0.1820 -0.9206 -1.1076
  304MOL0     H40995   5.059   3.967   7.675 -0.0392 -0.5478 -0.9153
  304MOL0     H40996   5.093   4.266   7.618 -2.4296 -0.7994 -1.8204
  304MOL0     H40997   5.137   4.125   7.520  3.0981 -0.8470  0.8240
  304MOL0     H40998   5.301   4.047   7.694  1.9645  0.6884 -1.4092
  304MOL0     H40999   5.260   4.200   7.785  2.0301  1.9561 -0.2504
  304MOL0     H41000   5.482   4.085   7.803 -1.1919 -1.0459 -1.1432
  304MOL0     H41001   5.736   4.049   7.809  2.7395  0.7513 -1.1471
  304MOL0     H41002   6.097   3.917   7.448  0.8729  0.8369  0.3020
  304MOL0     H41003   6.344   3.864   7.426  1.8432  1.0159 -1.1438
  304MOL0     H41004   6.562   3.845   7.499 -2.5235  0.0594  0.2008
  304MOL0     H41005   6.643   3.958   7.379  1.4818  2.1506  0.6850
  304MOL0     H41006   6.788   4.032   7.593 -0.1901  1.9080 -4.1227
  304MOL0     H41007   6.710   3.904   7.677  1.3377 -1.9976  0.4766
  304MOL0     H41008   6.900   3.784   7.594 -1.0453  0.5897  1.5804
  304MOL0     H41009   6.790   3.757   7.460 -5.9531  1.3963  2.2488
  304MOL0     H41010   6.906   3.995   7.392  1.5770 -0.8152 -2.6873
  304MOL0     H41011   6.994   3.836   7.362 -0.1995  0.0286 -0.0420
  304MOL0     H41012   7.095   3.884   7.601  1.0092  1.7139  0.5152
  304MOL0     H41013   7.014   4.042   7.590  1.4746  2.1107 -0.9497
  304MOL0     H41014   7.263   4.016   7.523 -0.4395 -1.4111 -0.1946
  304MOL0     H41015   7.219   3.930   7.387 -2.0926 -1.2562  0.1471
  304MOL0     H41016   7.086   4.116   7.301  1.5132 -1.1023 -0.2867
  304MOL0     H41017   7.251   4.156   7.316 -0.0580  1.0385  0.6926
  304MOL0     H41018   7.102   4.341   7.407  0.5382  1.0796 -0.6375
  304MOL0     H41019   7.055   4.230   7.538  3.1086  1.6297  3.1281
  304MOL0     H41020   6.415   4.262   7.577  0.5274 -0.5132 -1.5430
  304MOL0     H41021   6.178   4.300   7.594 -0.2744  0.6167 -1.7310
  304MOL0     H41022   5.776   4.258   7.440  0.6356 -0.8043 -0.4352
  304MOL0     H41023   5.530   4.306   7.440  0.6762  0.3000 -0.0900
  304MOL0     H41024   3.778   3.334   7.800 -1.8804  0.0261  0.1662
  304MOL0     H41025   3.550   3.365   7.754  0.3600  0.2175 -1.8123
  304MOL0     H41026   3.214   3.489   7.842  0.5369  1.5682  0.6027
  304MOL0     H41027   2.972   3.431   7.818 -1.2822  0.9893  3.8682
  304MOL0     H41028   2.595   3.662   7.801 -0.5543  3.7477 -3.2433
  304MOL0     H41029   2.709   3.789   7.768  4.0909 -1.4411 -2.1196
  304MOL0     H41030   2.645   3.783   8.015 -2.8143 -2.9510  1.2457
  304MOL0     H41031   2.816   3.750   7.992 -0.5384  0.2935 -1.3433
  304MOL0     H41032   2.754   3.591   8.159  1.6457  0.4037 -0.5337
  304MOL0     H41033   2.759   3.507   8.003  1.6654  0.4907  0.3307
  304MOL0     H41034   2.526   3.503   7.977 -1.6816  0.2493 -0.7674
  304MOL0     H41035   2.573   3.433   8.131  0.2669 -0.0020 -0.3428
  304MOL0     H41036   2.372   3.803   8.232 -0.6305  0.5035  0.4624
  304MOL0     H41037   2.897   3.839   7.738  0.5343 -0.1237 -2.7620
  304MOL0     H41038   3.186   3.989   7.809  1.2566  0.5146 -0.8954
  304MOL0     H41039   3.220   3.940   7.651 -2.1807 -0.0469 -1.8575
  304MOL0     H41040   3.062   4.006   7.688  0.4662  0.2359 -2.1138
  305MOL0     O41041  10.207   1.801   0.262  0.6089 -0.2968  0.0624
  305MOL0     C41042  10.165   1.915   0.239  0.5238 -0.0988 -0.2721
  305MOL0     O41043  10.228   2.031   0.260 -0.2372  0.9043  0.7044
  305MOL0     C41044  10.360   2.020   0.306 -0.1613  0.8010 -0.0802
  305MOL0     C41045  10.456   1.941   0.235  0.6095  0.8303 -0.2204
  305MOL0     C41046  10.591   1.935   0.282  0.6408 -0.2572 -0.0608
  305MOL0     C41047  10.623   2.025   0.380  0.2706  0.5897 -0.4604
  305MOL0     O41048  10.747   2.040   0.437  0.1506  0.2821  0.1607
  305MOL0     C41049  10.849   2.024   0.337 -0.0999 -0.1733 -0.1728
  305MOL0     C41050  10.982   2.062   0.409  0.1813 -0.6392 -0.7363
  305MOL0     C41051  11.106   2.005   0.333 -0.8316 -0.0340 -0.2735
  305MOL0     C41052  11.232   2.068   0.389 -0.3213 -0.0599  0.0539
  305MOL0     C41053  11.364   2.017   0.323 -0.7014 -0.4943  0.5215
  305MOL0     C41054  11.488   2.110   0.350 -0.2979  0.6314  0.2998
  305MOL0     C41055  11.610   2.027   0.320  0.6340  0.1605  0.4327
  305MOL0     C41056  11.739   2.108   0.338 -0.3310  0.5815 -0.1515
  305MOL0     N41057  11.858   2.023   0.368  0.1437  0.0514  0.8814
  305MOL0     C41058  11.987   2.063   0.368 -0.4838  0.4103 -0.4902
  305MOL0     C41059  12.059   1.952   0.409 -0.1563 -0.9339 -0.2139
  305MOL0     C41060  12.208   1.963   0.443  0.3362  0.2376 -0.7376
  305MOL0     C41061  12.245   2.004   0.586  0.3361  0.8501  1.0047
  305MOL0     C41062  12.178   1.901   0.684  0.2913 -0.1394 -0.3686
  305MOL0     C41063  12.189   1.938   0.837  0.3042  0.6712  0.4367
  305MOL0     O41064  12.318   1.907   0.891 -0.2655 -0.5153  1.1111
  305MOL0     C41065  12.418   2.003   0.889  0.4703 -0.1408 -0.8176
  305MOL0     C41066  12.423   2.127   0.819  0.6247  0.3291  0.2433
  305MOL0     C41067  12.531   2.208   0.818  0.0389  0.0875  0.4417
  305MOL0     C41068  12.643   2.172   0.893  0.2774  0.1769 -0.5157
  305MOL0     C41069  12.764   2.253   0.883 -0.0815  0.2995 -0.0588
  305MOL0     O41070  12.763   2.352   0.792  0.3723  0.2075 -0.2964
  305MOL0     C41071  12.866   2.436   0.787 -1.0795  0.6714  0.0242
  305MOL0     C41072  12.879   2.551   0.874  0.4988 -0.4903 -0.0246
  305MOL0     C41073  12.995   2.629   0.882 -0.0591 -0.7137 -0.5237
  305MOL0     C41074  13.100   2.602   0.791  0.0873 -0.2286  0.0783
  305MOL0     O41075  13.205   2.689   0.785 -0.1056  0.4389 -0.0256
  305MOL0     C41076  13.325   2.634   0.731  0.6197 -0.3618  0.7884
  305MOL0     C41077  13.431   2.736   0.719  0.2108  0.3812  0.3261
  305MOL0     C41078  13.566   2.653   0.694  0.1597  0.3641 -0.4575
  305MOL0     C41079  13.689   2.730   0.725  0.0914  0.1265  0.1924
  305MOL0     C41080  13.701   2.861   0.648  0.2521  0.2820  0.3463
  305MOL0     C41081  13.707   2.840   0.491 -0.2946  1.2528  0.1327
  305MOL0     C41082  13.749   2.970   0.416  0.2478 -0.0386  0.0217
  305MOL0     C41083  13.803   2.948   0.270  0.2530  0.4782  0.8897
  305MOL0    Cl41084  13.664   2.900   0.183  0.0880 -0.2310  0.2279
  305MOL0     C41085  13.092   2.488   0.708  0.4285 -0.0057  1.0869
  305MOL0     C41086  12.972   2.410   0.711 -0.2681 -0.0110  0.9262
  305MOL0     O41087  12.854   2.234   0.969  0.1135 -0.6798 -0.0520
  305MOL0     C41088  12.643   2.056   0.971  0.0768 -1.1409  0.7320
  305MOL0     C41089  12.532   1.971   0.968 -0.7076 -0.3136  0.6799
  305MOL0     N41090  11.977   1.844   0.429  0.1539  0.2650  0.1697
  305MOL0     N41091  11.858   1.893   0.408 -0.5167 -0.4887 -0.3430
  305MOL0     C41092  10.528   2.099   0.450  0.5580  0.0221  0.6048
  305MOL0     C41093  10.400   2.098   0.407  0.1483 -0.4524  0.1460
  305MOL0     C41094  10.034   1.916   0.180  0.6277 -0.5152  0.0746
  305MOL0     C41095   9.927   1.834   0.233  0.3704 -0.7302  0.4345
  305MOL0     C41096   9.799   1.840   0.183 -0.0409  0.3232  0.2393
  305MOL0     C41097   9.776   1.915   0.068 -0.0656 -0.0593  0.0051
  305MOL0     O41098   9.647   1.902   0.022 -0.7438 -0.2103 -0.3163
  305MOL0     C41099   9.609   1.974  -0.097 -0.8332  0.7252  0.2880
  305MOL0     C41100   9.569   2.115  -0.068  0.3844  0.4982 -0.4961
  305MOL0     C41101   9.421   2.141  -0.025  0.1542 -0.4360  0.3578
  305MOL0     C41102   9.330   2.157  -0.151  0.7377 -0.0808  0.2185
  305MOL0     C41103   9.224   2.259  -0.124 -0.7600  0.5092 -0.0527
  305MOL0     C41104   9.127   2.322  -0.090  0.0402 -0.6731 -0.3397
  305MOL0     C41105   9.880   1.982   0.009  0.0780  0.3141  0.2542
  305MOL0     C41106  10.007   1.991   0.065  0.6940 -0.1573 -0.7566
  305MOL0     C41107  10.107   2.092   0.005  0.7973  0.0671  0.5312
  305MOL0     H41108  10.439   1.908   0.133 -0.9499 -1.9771  0.8497
  305MOL0     H41109  10.671   1.886   0.228  0.6333 -2.2442  1.5948
  305MOL0     H41110  10.859   1.922   0.301  1.5580 -0.3557  0.7006
  305MOL0     H41111  10.840   2.086   0.248  1.3044 -0.7696 -0.7528
  305MOL0     H41112  10.977   2.018   0.509  0.8552  2.2023  0.6524
  305MOL0     H41113  10.989   2.171   0.422  0.7068 -0.7053 -0.4516
  305MOL0     H41114  11.102   2.020   0.225 -1.0555  1.0645 -0.1320
  305MOL0     H41115  11.106   1.898   0.354  0.4879 -0.6278 -2.9290
  305MOL0     H41116  11.228   2.176   0.374  1.6274  0.5420  2.9744
  305MOL0     H41117  11.239   2.046   0.496 -2.5284 -1.8330 -0.1145
  305MOL0     H41118  11.385   1.919   0.366 -2.9753 -0.2802  2.3449
  305MOL0     H41119  11.344   2.003   0.217  0.9858 -0.1320  0.1263
  305MOL0     H41120  11.496   2.203   0.293 -3.2207 -0.4965 -2.2554
  305MOL0     H41121  11.494   2.133   0.457 -1.1299  0.5573  0.3663
  305MOL0     H41122  11.607   1.995   0.215  1.3312 -0.1037  0.4904
  305MOL0     H41123  11.608   1.943   0.390  3.8859  1.1459  1.8966
  305MOL0     H41124  11.765   2.158   0.244 -1.1871  0.5051 -0.4379
  305MOL0     H41125  11.723   2.180   0.419  1.0586 -0.1037  0.7704
  305MOL0     H41126  12.029   2.157   0.332 -2.8735  0.3841 -3.8391
  305MOL0     H41127  12.244   1.865   0.412  2.3633  0.5344  0.4688
  305MOL0     H41128  12.264   2.035   0.382  0.4223  0.3028 -0.5818
  305MOL0     H41129  12.353   2.013   0.599  0.6219  1.0188 -1.1718
  305MOL0     H41130  12.206   2.106   0.594  0.2576  0.8704  0.4426
  305MOL0     H41131  12.218   1.801   0.663  0.9642  0.0562 -0.0267
  305MOL0     H41132  12.070   1.896   0.667  0.1811  0.2538  0.2026
  305MOL0     H41133  12.115   1.875   0.887 -2.1056  1.4158 -1.9523
  305MOL0     H41134  12.156   2.041   0.850  1.5838  1.0213  0.9689
  305MOL0     H41135  12.331   2.154   0.769  0.0850 -2.3741 -0.3359
  305MOL0     H41136  12.534   2.296   0.754 -0.1117 -0.7848 -0.7949
  305MOL0     H41137  12.799   2.575   0.943 -1.6762  0.0041 -2.5672
  305MOL0     H41138  13.012   2.714   0.947  2.4955 -2.1087  0.7856
  305MOL0     H41139  13.349   2.548   0.794 -0.8175 -1.3351  0.0637
  305MOL0     H41140  13.308   2.597   0.630  0.8401 -0.3885  0.7598
  305MOL0     H41141  13.411   2.783   0.623  1.0001 -1.7685 -0.9761
  305MOL0     H41142  13.429   2.800   0.807 -1.2816 -2.7084  2.7484
  305MOL0     H41143  13.564   2.565   0.760 -0.7714 -0.6690 -1.8007
  305MOL0     H41144  13.560   2.613   0.592  0.7211  0.9458 -0.7188
  305MOL0     H41145  13.777   2.670   0.701 -0.0396 -0.2502  0.6333
  305MOL0     H41146  13.686   2.757   0.831  0.8997  0.7627  0.0649
  305MOL0     H41147  13.787   2.919   0.682 -1.7511  2.1027  2.6917
  305MOL0     H41148  13.609   2.916   0.669  0.5080  0.1566  1.9082
  305MOL0     H41149  13.771   2.753   0.476 -1.4485 -0.3865  3.6275
  305MOL0     H41150  13.607   2.813   0.454  0.5278 -0.7144 -0.8342
  305MOL0     H41151  13.831   3.012   0.475  0.6456  0.9239 -1.1502
  305MOL0     H41152  13.680   3.055   0.409 -0.7979 -0.6942  1.8225
  305MOL0     H41153  13.852   3.036   0.227  3.0140  1.0478  4.6964
  305MOL0     H41154  13.881   2.872   0.267  0.3788  0.6275 -0.9808
  305MOL0     H41155  13.158   2.461   0.626 -3.1797  0.9782 -2.4726
  305MOL0     H41156  12.962   2.334   0.635 -1.9409  0.9883  0.0703
  305MOL0     H41157  12.726   2.034   1.036  1.3095  3.7995  1.2466
  305MOL0     H41158  12.549   1.874   1.014  0.9186 -0.7179 -0.6999
  305MOL0     H41159  10.550   2.165   0.534 -0.1929 -0.8329  1.4991
  305MOL0     H41160  10.322   2.158   0.453  0.5877  1.3854 -1.3981
  305MOL0     H41161   9.959   1.774   0.318  1.6157  0.8707  1.1669
  305MOL0     H41162   9.731   1.784   0.247  2.0941  0.1993  2.5320
  305MOL0     H41163   9.521   1.927  -0.142 -1.2628  0.1892  1.6150
  305MOL0     H41164   9.689   1.962  -0.170 -1.1388 -1.5117  0.2546
  305MOL0     H41165   9.584   2.153  -0.169  2.5875  0.9315 -0.0581
  305MOL0     H41166   9.635   2.156   0.009 -1.6577  0.5150  1.3708
  305MOL0     H41167   9.426   2.239   0.024  1.1929 -0.3082  0.0225
  305MOL0     H41168   9.377   2.064   0.040  0.3701 -0.7187  0.1720
  305MOL0     H41169   9.396   2.196  -0.229  0.8870 -0.4795  0.1430
  305MOL0     H41170   9.285   2.061  -0.177  0.7579 -0.6487  2.1070
  305MOL0     H41171   9.037   2.381  -0.080 -0.2446 -1.2537  0.6514
  305MOL0     H41172   9.869   2.042  -0.082 -1.9740  4.5485  2.9528
  305MOL0     H41173  10.205   2.045   0.004  0.9907  0.3769 -1.8014
  305MOL0     H41174  10.077   2.118  -0.097 -3.0852  0.7385  1.6929
  305MOL0     H41175  10.097   2.180   0.069 -1.7593 -0.9155  1.6178
  306MOL0     O41176   4.433   5.281   2.209  0.6489 -0.2290  0.7108
  306MOL0     C41177   4.433   5.199   2.300 -0.6517 -0.5955  0.4295
  306MOL0     O41178   4.539   5.162   2.371 -0.5484 -0.1973 -0.1482
  306MOL0     C41179   4.637   5.251   2.397  1.7678 -1.3043  0.5913
  306MOL0     C41180   4.736   5.282   2.310 -0.8101 -0.0136 -0.3058
  306MOL0     C41181   4.835   5.375   2.344  0.2971 -0.1876  0.0106
  306MOL0     C41182   4.836   5.434   2.474  0.0354 -0.2541  0.5924
  306MOL0     O41183   4.945   5.519   2.507 -0.4220  0.7711  0.5320
  306MOL0     C41184   4.938   5.642   2.440 -1.4881 -0.6672  0.3857
  306MOL0     C41185   4.967   5.765   2.528  0.1563 -0.0598 -0.0673
  306MOL0     C41186   4.939   5.899   2.449 -1.1613 -0.3491  0.6433
  306MOL0     C41187   4.927   6.011   2.544  0.1915  0.3462 -0.6027
  306MOL0     C41188   5.042   6.061   2.627  0.4555  0.8998 -0.1745
  306MOL0     C41189   5.145   6.122   2.526 -0.0015  0.0781 -0.3184
  306MOL0     C41190   5.246   6.198   2.603 -0.2917  0.3832 -0.6147
  306MOL0     C41191   5.393   6.162   2.562 -0.2782 -0.0563 -0.5691
  306MOL0     N41192   5.482   6.204   2.679 -0.1414  0.9005 -0.2762
  306MOL0     C41193   5.489   6.329   2.718  0.5496 -0.3157 -0.0040
  306MOL0     C41194   5.587   6.332   2.814 -0.4097 -0.3087 -0.6149
  306MOL0     C41195   5.627   6.456   2.898 -0.1524  0.6516  0.1341
  306MOL0     C41196   5.745   6.428   2.996  0.0913  0.9241  0.7517
  306MOL0     C41197   5.889   6.444   2.925 -0.3640  0.1906 -0.3488
  306MOL0     C41198   6.005   6.431   3.023 -0.1898  0.8950 -0.4133
  306MOL0     O41199   6.122   6.423   2.945  0.2896 -0.0153  0.4078
  306MOL0     C41200   6.250   6.441   3.006  0.3791 -0.0938  0.1728
  306MOL0     C41201   6.353   6.434   2.916 -0.9721 -0.0222 -1.2191
  306MOL0     C41202   6.483   6.450   2.963 -0.1163 -0.2622 -1.0692
  306MOL0     C41203   6.509   6.460   3.100 -0.1506  0.7689  0.4587
  306MOL0     C41204   6.647   6.479   3.153  0.8717 -0.8767  0.7383
  306MOL0     O41205   6.742   6.500   3.065 -0.5633 -0.4473 -0.5998
  306MOL0     C41206   6.860   6.449   3.106  0.6801  0.2043 -0.5726
  306MOL0     C41207   6.952   6.542   3.154  1.0634  0.5505 -0.3395
  306MOL0     C41208   7.082   6.498   3.187  0.0080  0.1810  0.2075
  306MOL0     C41209   7.119   6.363   3.150 -0.0014  0.7588 -0.4580
  306MOL0     O41210   7.252   6.320   3.173 -0.8268 -0.5764  0.3659
  306MOL0     C41211   7.358   6.414   3.186 -0.4219  0.4165  0.6302
  306MOL0     C41212   7.490   6.337   3.201  0.9682  0.5639 -0.0942
  306MOL0     C41213   7.621   6.422   3.201  0.3695  0.4355  0.1705
  306MOL0     C41214   7.726   6.336   3.272 -0.5355  0.2006  0.1258
  306MOL0     C41215   7.875   6.387   3.255 -0.1550 -0.0799  0.3668
  306MOL0     C41216   7.989   6.286   3.282 -0.2961  0.2781 -0.6897
  306MOL0     C41217   8.120   6.355   3.254 -0.7241 -0.5625  0.3674
  306MOL0     C41218   8.247   6.290   3.316  0.0766  0.3570  0.3327
  306MOL0    Cl41219   8.228   6.286   3.506 -0.1924 -0.1464  0.0538
  306MOL0     C41220   7.020   6.275   3.103 -0.9378  0.8434  0.1210
  306MOL0     C41221   6.899   6.318   3.090  0.0166  0.6773  0.4209
  306MOL0     O41222   6.661   6.471   3.273 -0.3082  0.7027 -0.1384
  306MOL0     C41223   6.405   6.463   3.188  0.2604  0.5557 -0.5792
  306MOL0     C41224   6.271   6.468   3.145  0.4475  0.2040  0.2582
  306MOL0     N41225   5.641   6.205   2.834  0.3497 -0.1336 -0.5485
  306MOL0     N41226   5.576   6.136   2.750  0.3522  0.5316 -0.0454
  306MOL0     C41227   4.728   5.404   2.561 -0.3199  0.3331  0.4274
  306MOL0     C41228   4.632   5.310   2.524 -0.7072 -0.0563 -0.6241
  306MOL0     C41229   4.304   5.138   2.347  0.3741  0.4776  0.1333
  306MOL0     C41230   4.309   5.007   2.394 -0.4307  0.0659 -0.1969
  306MOL0     C41231   4.207   4.938   2.446  0.8397 -0.3715 -1.2414
  306MOL0     C41232   4.082   4.996   2.449  0.6237 -0.2574 -0.2244
  306MOL0     O41233   3.965   4.935   2.502 -0.2707 -0.9357  0.2053
  306MOL0     C41234   3.983   4.807   2.568 -0.6495 -0.9121 -0.0583
  306MOL0     C41235   3.866   4.784   2.664  0.2299  1.0297 -0.0985
  306MOL0     C41236   3.848   4.900   2.760  0.1032 -0.0920 -0.0862
  306MOL0     C41237   3.744   4.870   2.863  0.2209  0.0047 -0.2074
  306MOL0     C41238   3.612   4.879   2.803 -0.0556 -0.8005  0.3382
  306MOL0     C41239   3.502   4.883   2.766  0.8598  1.0153  0.1863
  306MOL0     C41240   4.064   5.123   2.400 -0.7452  0.7054  0.6545
  306MOL0     C41241   4.169   5.192   2.340 -0.3235 -0.0046 -0.3557
  306MOL0     C41242   4.136   5.304   2.256  0.3436  0.6163  0.3283
  306MOL0     H41243   4.735   5.234   2.212 -2.9573  1.2338 -0.9771
  306MOL0     H41244   4.919   5.386   2.277 -1.2699 -1.0017 -2.1952
  306MOL0     H41245   5.017   5.644   2.365 -0.9865 -2.1180  0.8465
  306MOL0     H41246   4.837   5.654   2.398 -0.7226  0.9962 -1.1438
  306MOL0     H41247   5.069   5.773   2.565 -0.0140  2.5950  0.0271
  306MOL0     H41248   4.893   5.757   2.608  0.9546  0.2532  0.7094
  306MOL0     H41249   4.847   5.883   2.392 -0.1412 -0.4063 -1.0810
  306MOL0     H41250   5.022   5.916   2.379  0.4055 -0.2996  2.4411
  306MOL0     H41251   4.907   6.095   2.476 -1.4709 -1.0001 -1.8439
  306MOL0     H41252   4.848   5.983   2.613  1.9345 -1.7050  0.6751
  306MOL0     H41253   5.009   6.133   2.702 -2.4675  0.4733 -0.9550
  306MOL0     H41254   5.081   5.977   2.687 -1.6445  0.6894  0.9774
  306MOL0     H41255   5.190   6.049   2.458  2.7614  1.0827  0.2992
  306MOL0     H41256   5.083   6.199   2.477  0.2166  1.2097  1.1131
  306MOL0     H41257   5.230   6.163   2.706  0.5261 -1.5851 -1.1071
  306MOL0     H41258   5.234   6.306   2.588  0.1401  0.4683 -0.3610
  306MOL0     H41259   5.401   6.055   2.541 -0.4276 -1.0901  3.7143
  306MOL0     H41260   5.429   6.222   2.478  0.1329  0.0752 -0.3046
  306MOL0     H41261   5.418   6.406   2.690 -0.3499 -0.1077  2.5714
  306MOL0     H41262   5.662   6.535   2.831  0.5113 -0.2419 -0.5875
  306MOL0     H41263   5.542   6.487   2.959 -1.8746 -4.3077  0.6510
  306MOL0     H41264   5.740   6.509   3.069 -0.4891 -1.2458  3.2390
  306MOL0     H41265   5.725   6.329   3.038 -1.2879 -0.5429 -2.9296
  306MOL0     H41266   5.893   6.541   2.875  2.4040  1.1346  1.4726
  306MOL0     H41267   5.890   6.361   2.854  1.2713 -0.7906  0.7523
  306MOL0     H41268   5.980   6.342   3.082 -1.0741  2.2551  1.3686
  306MOL0     H41269   6.002   6.506   3.103 -2.3293  0.2903  0.1394
  306MOL0     H41270   6.338   6.434   2.808  0.1242  3.4063 -1.5098
  306MOL0     H41271   6.569   6.439   2.897 -0.2192 -0.4806 -1.1682
  306MOL0     H41272   6.920   6.646   3.160 -2.2624 -0.3121 -1.0959
  306MOL0     H41273   7.151   6.570   3.228 -0.7009  1.5344 -0.8753
  306MOL0     H41274   7.366   6.483   3.102 -1.2652  0.4738  0.5887
  306MOL0     H41275   7.335   6.459   3.282 -0.7280  2.8509 -0.5130
  306MOL0     H41276   7.482   6.280   3.295  1.7452 -0.0464 -0.3957
  306MOL0     H41277   7.501   6.268   3.117  0.6598 -0.0035  0.3209
  306MOL0     H41278   7.660   6.427   3.099  1.0576 -0.5686  0.3711
  306MOL0     H41279   7.613   6.524   3.241 -0.5107  1.2846 -2.0223
  306MOL0     H41280   7.729   6.229   3.250  3.3177 -0.3062  2.1241
  306MOL0     H41281   7.697   6.351   3.376  0.4256  3.7837  0.0219
  306MOL0     H41282   7.884   6.470   3.326  1.5868  0.3026 -0.2417
  306MOL0     H41283   7.897   6.424   3.154  2.5591  0.0587  0.9271
  306MOL0     H41284   7.990   6.238   3.380 -1.3643 -1.4018 -1.4671
  306MOL0     H41285   7.978   6.201   3.215 -0.1122  0.4018 -0.8777
  306MOL0     H41286   8.120   6.456   3.294  0.7748 -0.0071 -0.9190
  306MOL0     H41287   8.126   6.368   3.146  0.2227  0.1749  0.4931
  306MOL0     H41288   8.258   6.186   3.283 -1.1770  0.8421 -1.7855
  306MOL0     H41289   8.334   6.350   3.290 -0.6837  1.1978 -0.3492
  306MOL0     H41290   7.040   6.174   3.071 -1.3327  0.9547 -0.5054
  306MOL0     H41291   6.831   6.247   3.045 -1.0552  0.2312  2.6294
  306MOL0     H41292   6.429   6.484   3.291  1.9503  2.5233 -1.2949
  306MOL0     H41293   6.184   6.471   3.211  0.5379 -1.8903  0.5150
  306MOL0     H41294   4.723   5.468   2.649  2.8820  0.5540  0.5670
  306MOL0     H41295   4.549   5.288   2.590 -0.4828 -1.8726 -0.9090
  306MOL0     H41296   4.408   4.962   2.395 -0.6136 -0.4847 -2.0229
  306MOL0     H41297   4.239   4.842   2.485 -2.0829 -1.3759 -1.0386
  306MOL0     H41298   4.069   4.784   2.632 -0.4790 -0.8876 -0.2796
  306MOL0     H41299   3.988   4.732   2.488 -0.6405 -1.2304  0.2367
  306MOL0     H41300   3.892   4.693   2.720  1.3113  0.8789 -0.8184
  306MOL0     H41301   3.771   4.781   2.609 -0.7964  3.4707  1.3638
  306MOL0     H41302   3.827   4.994   2.709 -1.0235 -0.3227 -0.0791
  306MOL0     H41303   3.945   4.913   2.808 -0.1244 -3.2338  1.5177
  306MOL0     H41304   3.752   4.771   2.908  0.2212 -0.3045 -0.8739
  306MOL0     H41305   3.748   4.953   2.935 -4.6909  2.1675 -2.0024
  306MOL0     H41306   3.399   4.888   2.739  0.0497 -0.6373  2.6738
  306MOL0     H41307   3.961   5.159   2.397 -1.6259 -1.6252  1.1812
  306MOL0     H41308   4.198   5.306   2.166  1.6731 -1.6726  1.1076
  306MOL0     H41309   4.031   5.300   2.225  0.6102  1.0642 -0.6736
  306MOL0     H41310   4.158   5.395   2.314 -1.2518  1.0786  0.2606
  307MOL0     O41311   4.011   4.017  10.822 -0.1219 -0.0519 -0.4423
  307MOL0     C41312   3.924   3.983  10.742 -0.5062 -0.9176 -0.4867
  307MOL0     O41313   3.933   4.017  10.609  0.6000  0.4968  0.5996
  307MOL0     C41314   4.059   4.052  10.553  0.2066 -0.2926 -0.0889
  307MOL0     C41315   4.163   3.954  10.548  0.1367  0.1526 -0.0710
  307MOL0     C41316   4.295   4.002  10.510 -0.2288 -0.3778  0.2941
  307MOL0     C41317   4.310   4.137  10.477 -0.0514 -0.5631  0.4115
  307MOL0     O41318   4.439   4.179  10.454  0.6006 -0.0614 -0.1971
  307MOL0     C41319   4.459   4.315  10.411  1.1333 -0.5356 -0.5207
  307MOL0     C41320   4.602   4.333  10.360 -0.0539  0.5556 -0.4551
  307MOL0     C41321   4.626   4.455  10.279  0.1376 -0.1255 -0.5784
  307MOL0     C41322   4.778   4.491  10.274 -0.1401  0.2343  0.4514
  307MOL0     C41323   4.840   4.425  10.152  0.0205 -0.6129  0.1965
  307MOL0     C41324   4.963   4.504  10.110 -0.3608 -0.1480  0.0340
  307MOL0     C41325   5.022   4.426   9.989  0.2986 -0.5621  0.6522
  307MOL0     C41326   5.127   4.501   9.916 -0.1192  0.6390 -0.6413
  307MOL0     N41327   5.204   4.405   9.834  0.1286 -0.3554  0.3314
  307MOL0     C41328   5.330   4.371   9.856 -0.8618  0.2903  0.1432
  307MOL0     C41329   5.349   4.278   9.761 -0.1654  0.5874  0.0365
  307MOL0     C41330   5.468   4.182   9.757 -0.2129 -0.4977  0.7856
  307MOL0     C41331   5.585   4.234   9.662 -0.2078 -0.0510 -0.4235
  307MOL0     C41332   5.690   4.129   9.645  0.9832 -0.3457  0.5398
  307MOL0     C41333   5.816   4.178   9.578 -0.5762  0.1621 -0.3081
  307MOL0     O41334   5.866   4.287   9.652 -0.1152  0.4143 -0.0258
  307MOL0     C41335   5.992   4.277   9.699 -0.4449 -0.6515 -0.2016
  307MOL0     C41336   6.077   4.390   9.689 -0.7423  0.2526  0.6146
  307MOL0     C41337   6.218   4.384   9.712  0.2504  0.0602  0.6855
  307MOL0     C41338   6.275   4.263   9.745 -0.7921  0.1898 -0.8906
  307MOL0     C41339   6.424   4.246   9.764  0.3859  0.4020  0.3425
  307MOL0     O41340   6.486   4.311   9.660  0.6014 -0.1078 -0.3205
  307MOL0     C41341   6.624   4.321   9.647  0.1149  0.2071 -0.1365
  307MOL0     C41342   6.727   4.243   9.713  0.1316  0.5772  0.4334
  307MOL0     C41343   6.860   4.280   9.692  0.8296 -0.0476 -0.1633
  307MOL0     C41344   6.886   4.391   9.613 -0.6441 -1.7022  0.4509
  307MOL0     O41345   7.015   4.445   9.589 -0.1738  0.3005  0.3719
  307MOL0     C41346   7.115   4.417   9.690  0.1362  0.5918 -0.7053
  307MOL0     C41347   7.245   4.468   9.650 -0.1325  0.0545  0.6998
  307MOL0     C41348   7.250   4.604   9.576  0.6309 -0.0660 -0.0651
  307MOL0     C41349   7.382   4.635   9.512 -0.3626 -0.4517 -0.3826
  307MOL0     C41350   7.488   4.677   9.622  0.4411 -0.0023  0.0673
  307MOL0     C41351   7.610   4.744   9.552  0.2041 -0.3674  0.6681
  307MOL0     C41352   7.731   4.757   9.651  0.5204 -0.2845  0.1492
  307MOL0     C41353   7.791   4.625   9.684 -0.6332 -0.3681  0.0803
  307MOL0    Cl41354   7.927   4.636   9.799  0.5120 -0.1619 -0.4064
  307MOL0     C41355   6.789   4.463   9.546  0.1364  0.9351 -0.1274
  307MOL0     C41356   6.656   4.434   9.578 -0.0059 -0.2805 -0.6044
  307MOL0     O41357   6.471   4.152   9.830 -0.1597  0.5113 -0.1081
  307MOL0     C41358   6.189   4.158   9.779 -0.5321  0.0748  0.1244
  307MOL0     C41359   6.047   4.162   9.754  0.3177  1.3062 -0.5856
  307MOL0     N41360   5.246   4.258   9.680  0.0262 -0.8313 -0.0643
  307MOL0     N41361   5.153   4.348   9.721  0.7557 -0.6386 -1.1218
  307MOL0     C41362   4.197   4.231  10.472 -0.3200  0.8209 -0.7161
  307MOL0     C41363   4.076   4.177  10.509  0.2088 -0.2672  0.1192
  307MOL0     C41364   3.798   3.917  10.787 -0.4661 -0.1085  0.3011
  307MOL0     C41365   3.682   3.932  10.709  0.0877 -0.1737  0.3430
  307MOL0     C41366   3.555   3.892  10.756 -0.7153  0.2568  0.1535
  307MOL0     C41367   3.555   3.809  10.866  0.1961  0.2139 -0.8772
  307MOL0     O41368   3.431   3.752  10.880 -0.0579  0.5712 -0.5692
  307MOL0     C41369   3.421   3.635  10.959 -0.1043 -0.5167 -0.2047
  307MOL0     C41370   3.417   3.509  10.873  0.1839 -0.7655 -0.5301
  307MOL0     C41371   3.422   3.377  10.952 -0.2349 -0.4837  0.6199
  307MOL0     C41372   3.317   3.359  11.057 -0.4832  0.4360 -0.3975
  307MOL0     C41373   3.185   3.328  10.999 -0.3764  0.0401  0.5819
  307MOL0     C41374   3.085   3.300  10.933 -0.1933  0.0656 -0.2894
  307MOL0     C41375   3.673   3.785  10.940  1.3833  0.4795  1.5076
  307MOL0     C41376   3.793   3.838  10.902 -0.3485 -0.6819 -0.8185
  307MOL0     C41377   3.915   3.778  10.978 -0.1571  0.3032  0.0183
  307MOL0     H41378   4.151   3.848  10.565 -1.7304 -0.0222 -2.1277
  307MOL0     H41379   4.380   3.939  10.489 -0.2869 -0.2170 -0.4453
  307MOL0     H41380   4.387   4.341  10.334 -0.4993 -0.2961  1.0152
  307MOL0     H41381   4.436   4.378  10.498 -1.0174 -0.2278 -1.2485
  307MOL0     H41382   4.627   4.250  10.292 -2.5166 -0.2553 -0.4615
  307MOL0     H41383   4.677   4.323  10.439 -0.4795 -0.9078 -0.2031
  307MOL0     H41384   4.575   4.540  10.326  0.2946 -1.3858  2.0661
  307MOL0     H41385   4.585   4.427  10.182  1.4028 -0.9870 -0.8946
  307MOL0     H41386   4.778   4.600  10.264  1.7493  0.1485 -1.1572
  307MOL0     H41387   4.841   4.482  10.363 -2.1364 -0.0599  1.9022
  307MOL0     H41388   4.868   4.322  10.175  0.2529 -0.6982 -0.4494
  307MOL0     H41389   4.775   4.435  10.065 -1.4213  0.0302  1.2999
  307MOL0     H41390   4.938   4.603  10.070  1.9317  0.7665  0.6746
  307MOL0     H41391   5.042   4.522  10.184 -1.6824  1.4473  1.1157
  307MOL0     H41392   4.940   4.401   9.922 -0.4732  0.5826  1.1201
  307MOL0     H41393   5.061   4.332  10.028  3.1903  1.3287  2.8130
  307MOL0     H41394   5.075   4.566   9.844  1.0095  1.6895 -0.5390
  307MOL0     H41395   5.191   4.535   9.997 -1.3198 -2.9066  2.0739
  307MOL0     H41396   5.398   4.400   9.936 -2.1323  0.1374  1.3249
  307MOL0     H41397   5.512   4.160   9.855  3.7762  1.4960 -0.3621
  307MOL0     H41398   5.432   4.088   9.713 -2.0933  0.4597  0.1625
  307MOL0     H41399   5.542   4.265   9.566 -0.7330 -1.0217 -0.5111
  307MOL0     H41400   5.636   4.318   9.710  1.5763 -1.4599  0.2529
  307MOL0     H41401   5.648   4.049   9.583 -1.5853  0.6367  0.8931
  307MOL0     H41402   5.729   4.098   9.743  1.1954 -1.0739  0.2320
  307MOL0     H41403   5.794   4.220   9.480  0.2387  2.5576  0.4470
  307MOL0     H41404   5.885   4.093   9.569 -0.9586 -0.5166  2.2516
  307MOL0     H41405   6.036   4.483   9.651  0.0578  0.2322 -0.3249
  307MOL0     H41406   6.275   4.471   9.680 -1.8279  0.2177 -3.0742
  307MOL0     H41407   6.712   4.156   9.777  0.1022  0.1728 -0.1106
  307MOL0     H41408   6.937   4.225   9.746  0.4313  0.0879  0.5476
  307MOL0     H41409   7.087   4.469   9.782  0.1303 -1.2620  0.3905
  307MOL0     H41410   7.116   4.308   9.701  1.5573  0.7198  0.8171
  307MOL0     H41411   7.300   4.480   9.744 -1.4106  1.4953  1.3055
  307MOL0     H41412   7.285   4.391   9.583 -4.0362 -0.1292 -1.7010
  307MOL0     H41413   7.171   4.604   9.501  1.6703  3.6253 -1.3642
  307MOL0     H41414   7.223   4.683   9.646  1.3619 -0.3902  0.6010
  307MOL0     H41415   7.370   4.716   9.441 -1.1316 -1.8553 -1.9319
  307MOL0     H41416   7.419   4.558   9.444  1.0740  0.5127 -0.7365
  307MOL0     H41417   7.516   4.583   9.672  1.7140  0.8702  1.0599
  307MOL0     H41418   7.446   4.738   9.703  1.3528  0.3319  0.2914
  307MOL0     H41419   7.648   4.681   9.471 -2.0601 -1.1957  0.1748
  307MOL0     H41420   7.578   4.829   9.491 -1.9983 -1.8206 -0.3177
  307MOL0     H41421   7.702   4.808   9.744  4.5325  0.8033  0.9710
  307MOL0     H41422   7.814   4.810   9.605  2.7162 -3.0380  0.6809
  307MOL0     H41423   7.722   4.556   9.733  1.1625 -0.4500  2.6635
  307MOL0     H41424   7.829   4.584   9.590 -1.8738  2.0527 -1.6085
  307MOL0     H41425   6.816   4.543   9.477  1.4027 -2.1272 -3.5173
  307MOL0     H41426   6.580   4.497   9.531 -1.0243 -1.9209 -1.2621
  307MOL0     H41427   6.221   4.059   9.809  1.1719  0.4773 -0.2687
  307MOL0     H41428   5.994   4.069   9.768  3.0189 -0.1865  0.4364
  307MOL0     H41429   4.204   4.332  10.434  0.0829  0.0713 -2.7582
  307MOL0     H41430   3.992   4.246  10.515  1.1205  0.9471 -0.6125
  307MOL0     H41431   3.690   3.985  10.615 -2.0522 -1.1027 -0.4206
  307MOL0     H41432   3.463   3.914  10.703 -0.8138  2.0241  0.9832
  307MOL0     H41433   3.326   3.637  11.014 -1.7237 -0.3422 -2.8083
  307MOL0     H41434   3.500   3.614  11.031  0.6415  1.7974 -0.2998
  307MOL0     H41435   3.511   3.506  10.816  1.5115 -0.0331  1.5145
  307MOL0     H41436   3.336   3.513  10.799  0.2030 -1.5488 -0.5993
  307MOL0     H41437   3.520   3.370  11.001  0.6807  1.7082 -0.7626
  307MOL0     H41438   3.410   3.297  10.879  0.0337  0.7400 -0.8070
  307MOL0     H41439   3.340   3.266  11.110 -1.4345 -0.0407 -0.8137
  307MOL0     H41440   3.309   3.441  11.129  0.8522  0.7294 -0.5492
  307MOL0     H41441   2.996   3.270  10.882 -0.6745  0.2984  0.3917
  307MOL0     H41442   3.672   3.730  11.034  1.4778 -2.0302  0.1447
  307MOL0     H41443   3.936   3.826  11.074  2.3925  1.6970 -1.1109
  307MOL0     H41444   3.892   3.672  10.996 -0.4397  0.1132 -1.3870
  307MOL0     H41445   4.001   3.792  10.911  0.2071  0.8988  0.6013
  308MOL0     O41446   8.731   6.280   9.409 -0.7962 -0.4145 -0.5052
  308MOL0     C41447   8.730   6.162   9.380  0.3731  0.8783  1.6669
  308MOL0     O41448   8.824   6.101   9.298 -0.1995  0.7447 -0.7496
  308MOL0     C41449   8.935   6.165   9.245 -0.0390  0.1321  1.0515
  308MOL0     C41450   8.935   6.306   9.198  0.8443  0.3385 -0.3187
  308MOL0     C41451   9.046   6.364   9.149  0.7243  0.1572  0.2398
  308MOL0     C41452   9.167   6.293   9.141  0.1879 -0.1964 -0.3992
  308MOL0     O41453   9.265   6.367   9.085  0.2656 -0.3448  0.5587
  308MOL0     C41454   9.369   6.308   9.006 -0.5322  0.1025 -0.4197
  308MOL0     C41455   9.466   6.418   8.958  0.1203  0.0571  0.2265
  308MOL0     C41456   9.553   6.359   8.847 -0.4822 -0.2424 -0.8202
  308MOL0     C41457   9.659   6.455   8.787 -0.2304  0.5873  0.3312
  308MOL0     C41458   9.730   6.388   8.668  0.7128 -0.0745  0.8952
  308MOL0     C41459   9.823   6.483   8.607 -0.4427  0.8362 -0.1811
  308MOL0     C41460   9.751   6.585   8.512 -0.1891  0.6354  0.5742
  308MOL0     C41461   9.848   6.695   8.478  0.1029 -0.9646  0.0544
  308MOL0     N41462   9.790   6.788   8.382 -0.3545  0.0303 -0.4939
  308MOL0     C41463   9.758   6.920   8.409  0.2808 -0.0089  0.2117
  308MOL0     C41464   9.685   6.959   8.303  0.7741 -0.4043 -0.5549
  308MOL0     C41465   9.636   7.102   8.257  0.5418  0.3539  0.4320
  308MOL0     C41466   9.739   7.179   8.169 -0.3154  0.9462  0.2811
  308MOL0     C41467   9.738   7.121   8.029  1.1104 -0.4921  0.6267
  308MOL0     C41468   9.818   7.210   7.927 -0.6485  0.4668  1.0595
  308MOL0     O41469   9.786   7.345   7.941 -0.8533 -0.5634 -0.4305
  308MOL0     C41470   9.869   7.440   7.882  0.0493 -0.3098  0.0316
  308MOL0     C41471   9.990   7.416   7.815  0.1211  0.1439  0.3233
  308MOL0     C41472  10.068   7.533   7.779 -0.2203  0.0917  0.4787
  308MOL0     C41473  10.031   7.667   7.796  0.1374  0.3773  0.4143
  308MOL0     C41474  10.117   7.779   7.753  0.4353 -0.3511 -0.4207
  308MOL0     O41475  10.213   7.746   7.670 -0.0553  0.1904 -0.4420
  308MOL0     C41476  10.295   7.838   7.618 -0.5876  0.1677  0.2671
  308MOL0     C41477  10.337   7.806   7.489 -1.5590 -0.0549  0.6702
  308MOL0     C41478  10.432   7.898   7.430 -0.1380  0.7441 -0.1583
  308MOL0     C41479  10.484   8.011   7.499 -0.5174 -0.5780  1.2548
  308MOL0     O41480  10.586   8.074   7.429 -0.3755  0.5706 -0.1159
  308MOL0     C41481  10.701   8.101   7.517 -0.0449  0.2268 -0.4070
  308MOL0     C41482  10.827   8.140   7.425  0.0108  0.1829 -0.5810
  308MOL0     C41483  10.952   8.144   7.511 -0.2047  0.2362  0.2356
  308MOL0     C41484  11.078   8.151   7.424  0.7799  0.3976  0.0221
  308MOL0     C41485  11.209   8.129   7.505  0.3072 -0.2653  0.4034
  308MOL0     C41486  11.207   7.979   7.540 -0.7067  0.5078 -0.9530
  308MOL0     C41487  11.339   7.944   7.606  0.1369 -1.0662 -1.0821
  308MOL0     C41488  11.383   8.013   7.744  0.7218  0.5344 -0.6286
  308MOL0    Cl41489  11.530   7.930   7.819  0.0766 -0.3558 -0.0819
  308MOL0     C41490  10.436   8.044   7.623  0.6163  0.0644 -0.1955
  308MOL0     C41491  10.339   7.961   7.677  0.4035  0.3840 -0.6316
  308MOL0     O41492  10.106   7.885   7.812 -0.1636  0.1946 -0.3961
  308MOL0     C41493   9.908   7.692   7.857  0.4423  0.3314 -0.1593
  308MOL0     C41494   9.832   7.581   7.902  0.3446  0.0049 -0.0381
  308MOL0     N41495   9.664   6.852   8.221  0.0855 -0.0960 -1.0509
  308MOL0     N41496   9.727   6.748   8.267  0.0143 -0.1127  0.7917
  308MOL0     C41497   9.178   6.158   9.182  0.2293  0.2483  0.7120
  308MOL0     C41498   9.058   6.102   9.237 -0.0103 -0.3450 -0.3611
  308MOL0     C41499   8.618   6.073   9.404  0.1317 -0.2246 -0.5719
  308MOL0     C41500   8.613   5.949   9.344 -0.2166  0.1764 -0.3366
  308MOL0     C41501   8.509   5.854   9.357 -1.6415 -0.2437 -0.4282
  308MOL0     C41502   8.414   5.886   9.452  0.3662  0.1825  0.6287
  308MOL0     O41503   8.306   5.800   9.479 -0.2639  1.6942  0.0674
  308MOL0     C41504   8.316   5.668   9.421 -0.1139  0.4141  0.5725
  308MOL0     C41505   8.181   5.604   9.430  0.7609 -0.3924 -0.2412
  308MOL0     C41506   8.070   5.688   9.375 -0.0635 -0.9258  0.5519
  308MOL0     C41507   8.102   5.696   9.221 -0.1791 -0.8025 -0.4635
  308MOL0     C41508   7.981   5.738   9.150 -0.4012  0.3288 -0.0361
  308MOL0     C41509   7.891   5.773   9.081  0.4018  0.5044  0.8360
  308MOL0     C41510   8.413   6.001   9.522  0.0098 -0.2138  0.1690
  308MOL0     C41511   8.518   6.089   9.501  0.4413  0.4687  0.2920
  308MOL0     C41512   8.525   6.209   9.585  0.1353  0.0899 -0.4920
  308MOL0     H41513   8.849   6.372   9.206  0.9457  0.3068  1.6789
  308MOL0     H41514   9.038   6.470   9.129 -2.3789 -0.0568 -0.0901
  308MOL0     H41515   9.426   6.244   9.074 -0.1261 -3.1408 -3.4703
  308MOL0     H41516   9.329   6.245   8.926 -1.6601 -1.9978  1.6612
  308MOL0     H41517   9.533   6.446   9.039  0.0523 -1.0840  0.7020
  308MOL0     H41518   9.416   6.507   8.919 -2.1654 -1.0569  0.4250
  308MOL0     H41519   9.490   6.313   8.770  0.6590 -1.4194 -1.0748
  308MOL0     H41520   9.610   6.281   8.898  0.7541  0.4333 -1.1175
  308MOL0     H41521   9.608   6.544   8.749 -0.8185  0.0560 -0.1299
  308MOL0     H41522   9.722   6.491   8.869 -2.3400  2.5274  1.2142
  308MOL0     H41523   9.788   6.301   8.700  1.3819 -0.6274 -1.6207
  308MOL0     H41524   9.653   6.357   8.597  0.5006  0.2954  0.9629
  308MOL0     H41525   9.866   6.535   8.694  0.5337  0.3794 -0.3710
  308MOL0     H41526   9.896   6.437   8.540 -1.3720  0.0991 -0.7077
  308MOL0     H41527   9.664   6.634   8.555 -2.1085 -0.3326 -1.9185
  308MOL0     H41528   9.726   6.533   8.418  0.4291  0.9539  0.2282
  308MOL0     H41529   9.884   6.749   8.566 -3.1529  1.7898 -0.0757
  308MOL0     H41530   9.932   6.653   8.422  0.2202 -0.6396 -0.0191
  308MOL0     H41531   9.789   6.977   8.496  2.0740 -1.3602  0.5074
  308MOL0     H41532   9.541   7.096   8.203  0.2318 -1.1088  1.0791
  308MOL0     H41533   9.620   7.163   8.346  2.2099  1.6301 -0.1052
  308MOL0     H41534   9.705   7.282   8.180 -2.4794  0.2464  0.7624
  308MOL0     H41535   9.841   7.172   8.207  0.1036  2.5861 -0.4636
  308MOL0     H41536   9.632   7.107   8.006  0.2728  3.1837  1.5750
  308MOL0     H41537   9.776   7.018   8.020 -0.7418 -1.3030  1.5439
  308MOL0     H41538   9.800   7.176   7.824  2.9543  3.2743 -0.7091
  308MOL0     H41539   9.924   7.195   7.949 -0.6526  2.1924  2.4022
  308MOL0     H41540  10.033   7.323   7.780  1.1585  1.9060 -3.7273
  308MOL0     H41541  10.167   7.509   7.744  0.2786  1.2000  1.0827
  308MOL0     H41542  10.310   7.714   7.438 -2.0654  1.1530 -1.3582
  308MOL0     H41543  10.468   7.875   7.330 -0.3615  1.7530 -0.4907
  308MOL0     H41544  10.676   8.188   7.579  1.2993  0.6768 -0.4663
  308MOL0     H41545  10.724   8.019   7.585  0.5416 -0.3563 -1.3014
  308MOL0     H41546  10.832   8.071   7.341  0.3777  1.8697 -2.0091
  308MOL0     H41547  10.813   8.242   7.388  1.2556  1.5919  2.4803
  308MOL0     H41548  10.947   8.232   7.576 -2.5276 -0.0160  0.4942
  308MOL0     H41549  10.956   8.049   7.565 -0.8905 -0.8755 -1.5838
  308MOL0     H41550  11.064   8.246   7.373 -2.7700 -0.0951 -0.2041
  308MOL0     H41551  11.066   8.076   7.345 -0.9706  0.3894  0.2442
  308MOL0     H41552  11.209   8.196   7.591 -1.9726  0.9178 -0.4360
  308MOL0     H41553  11.297   8.151   7.443  0.0366  0.2469  0.1959
  308MOL0     H41554  11.126   7.956   7.610  0.8893 -2.4425  0.0581
  308MOL0     H41555  11.197   7.913   7.453  0.2451 -1.5473  0.4071
  308MOL0     H41556  11.422   7.959   7.536 -0.5501 -1.9062 -2.1035
  308MOL0     H41557  11.323   7.839   7.632  2.0588 -1.4592 -1.2964
  308MOL0     H41558  11.394   8.122   7.735 -0.5079  0.5935 -1.7732
  308MOL0     H41559  11.296   7.993   7.807 -0.5979 -0.9719 -2.7940
  308MOL0     H41560  10.462   8.134   7.678 -2.7068 -1.0448  3.5871
  308MOL0     H41561  10.295   7.982   7.775 -1.3520  0.0523 -1.3038
  308MOL0     H41562   9.875   7.790   7.888  1.0757  0.0720  1.4576
  308MOL0     H41563   9.741   7.585   7.961  0.7681 -2.0671  0.8182
  308MOL0     H41564   9.269   6.099   9.188  0.6293 -0.1368 -4.5730
  308MOL0     H41565   9.063   6.001   9.278 -1.7761 -0.1421  0.4371
  308MOL0     H41566   8.693   5.913   9.281  0.7393 -0.8848  1.4030
  308MOL0     H41567   8.526   5.761   9.304  2.5331 -0.4779  0.9360
  308MOL0     H41568   8.383   5.607   9.484 -1.3521 -0.3707  1.1725
  308MOL0     H41569   8.342   5.661   9.315 -0.1222  1.4520  0.4978
  308MOL0     H41570   8.159   5.602   9.537 -2.0099 -2.5095 -0.7179
  308MOL0     H41571   8.171   5.505   9.383  0.4084 -0.3071 -0.3491
  308MOL0     H41572   8.072   5.790   9.415 -0.1479 -0.8338  0.3221
  308MOL0     H41573   7.969   5.651   9.400 -0.0531 -0.7142  0.9132
  308MOL0     H41574   8.177   5.772   9.196 -0.6205 -0.0109  0.5531
  308MOL0     H41575   8.143   5.602   9.185  1.3742  0.1454 -1.2996
  308MOL0     H41576   7.828   5.797   8.998 -2.4849 -1.8904  2.1501
  308MOL0     H41577   8.336   6.031   9.593 -1.2211 -0.2646 -1.1040
  308MOL0     H41578   8.449   6.211   9.664  0.1837 -0.1210 -0.4406
  308MOL0     H41579   8.621   6.197   9.636 -1.0577 -1.2184  1.6382
  308MOL0     H41580   8.520   6.298   9.522  0.1896  0.0964 -0.4864
  309MOL0     O41581   6.390   1.383  10.885  0.4490  0.0495 -0.7438
  309MOL0     C41582   6.324   1.306  10.818  0.7034 -0.9428  0.8742
  309MOL0     O41583   6.367   1.265  10.691  0.3389  0.2326  0.5943
  309MOL0     C41584   6.473   1.312  10.615 -0.8694 -0.9368  0.1096
  309MOL0     C41585   6.506   1.447  10.595 -0.0667  0.0114 -0.0638
  309MOL0     C41586   6.614   1.481  10.514  0.3779 -0.0866 -0.1518
  309MOL0     C41587   6.694   1.383  10.452  0.4367 -0.8382  0.1835
  309MOL0     O41588   6.808   1.432  10.385  0.7976  0.2015  0.1454
  309MOL0     C41589   6.882   1.333  10.309 -0.8734 -0.1120 -0.3543
  309MOL0     C41590   7.007   1.390  10.253  0.1844 -0.1827  0.1813
  309MOL0     C41591   7.102   1.281  10.204 -0.7252  0.0015  0.6856
  309MOL0     C41592   7.217   1.344  10.124 -0.4298  0.4956 -0.4402
  309MOL0     C41593   7.344   1.270  10.176  0.0837  0.8957 -0.0232
  309MOL0     C41594   7.461   1.351  10.124 -0.2901  0.0701  0.5048
  309MOL0     C41595   7.597   1.300  10.186  0.1780  0.2877 -1.0155
  309MOL0     C41596   7.705   1.400  10.157 -0.5665  1.1035  0.3349
  309MOL0     N41597   7.744   1.394  10.019 -0.4724  0.0456 -0.2914
  309MOL0     C41598   7.721   1.492   9.929  0.0677 -0.1617  0.3626
  309MOL0     C41599   7.810   1.472   9.832  0.0968 -0.2905 -0.0184
  309MOL0     C41600   7.825   1.558   9.710  0.4130 -0.2369 -0.3402
  309MOL0     C41601   7.956   1.540   9.634  0.9316  0.0337  0.3071
  309MOL0     C41602   7.972   1.664   9.541 -0.4556  0.2651  0.3786
  309MOL0     C41603   8.095   1.644   9.446  0.4810 -0.1412  0.3048
  309MOL0     O41604   8.133   1.755   9.362 -0.5618 -0.0482 -0.8807
  309MOL0     C41605   8.235   1.734   9.274  0.2632 -0.0478 -0.6027
  309MOL0     C41606   8.269   1.850   9.205  0.0250  0.3650 -0.2086
  309MOL0     C41607   8.361   1.857   9.101 -0.5109 -0.6307  0.5013
  309MOL0     C41608   8.434   1.734   9.072  1.1098  0.2028  0.5473
  309MOL0     C41609   8.549   1.719   8.980 -0.1035 -0.0816  0.3846
  309MOL0     O41610   8.591   1.600   8.956 -0.0281  0.1663  0.4796
  309MOL0     C41611   8.715   1.582   8.897  0.3595 -0.2773  0.1520
  309MOL0     C41612   8.816   1.677   8.856 -0.5122 -0.2047  0.8358
  309MOL0     C41613   8.936   1.647   8.789  0.4278 -0.6055 -0.4894
  309MOL0     C41614   8.963   1.512   8.762  0.4245 -0.2147 -0.8087
  309MOL0     O41615   9.059   1.461   8.685 -0.2668 -0.1610  0.4484
  309MOL0     C41616   9.135   1.550   8.608  0.9190  0.1230 -0.0015
  309MOL0     C41617   9.079   1.555   8.465  0.0455 -0.4045  0.5537
  309MOL0     C41618   9.176   1.601   8.354 -0.2597  0.5044 -0.5610
  309MOL0     C41619   9.203   1.753   8.375 -0.7916 -0.3720 -0.0841
  309MOL0     C41620   9.317   1.816   8.283 -0.3049  0.0541 -0.5348
  309MOL0     C41621   9.328   1.967   8.296 -0.3643 -0.4134 -0.2756
  309MOL0     C41622   9.401   2.022   8.169 -0.1999  1.0051 -0.2314
  309MOL0     C41623   9.388   2.170   8.166  0.1049 -0.2494 -0.4261
  309MOL0    Cl41624   9.442   2.248   8.321  0.0807  0.3646 -0.2781
  309MOL0     C41625   8.877   1.417   8.800  0.5060  0.7811  0.4726
  309MOL0     C41626   8.749   1.451   8.854 -0.4458  0.5618  0.3876
  309MOL0     O41627   8.584   1.822   8.922  0.6032  0.5704 -0.0181
  309MOL0     C41628   8.389   1.618   9.135 -0.6032 -0.4805  0.1725
  309MOL0     C41629   8.292   1.614   9.233  0.1791 -0.1609  0.2949
  309MOL0     N41630   7.878   1.349   9.868 -0.3316 -0.3137  0.1162
  309MOL0     N41631   7.832   1.305   9.977  0.7630  0.0969  0.4395
  309MOL0     C41632   6.655   1.252  10.460 -0.1486  0.5740 -0.3516
  309MOL0     C41633   6.553   1.208  10.550 -1.4375 -0.2632  0.7740
  309MOL0     C41634   6.200   1.266  10.877  0.3215 -0.2995  0.0106
  309MOL0     C41635   6.174   1.270  11.010  0.5015  0.1518  0.1205
  309MOL0     C41636   6.046   1.273  11.068 -0.4129  0.3378  0.5959
  309MOL0     C41637   5.929   1.239  10.991 -0.3122 -0.4306 -0.1648
  309MOL0     O41638   5.803   1.229  11.037  0.1770 -0.5273 -0.6672
  309MOL0     C41639   5.783   1.238  11.176 -0.5170 -0.6063  0.1986
  309MOL0     C41640   5.639   1.220  11.220 -0.5550  0.2698 -0.6216
  309MOL0     C41641   5.626   1.227  11.374 -0.0064 -0.2083  0.7950
  309MOL0     C41642   5.502   1.152  11.417  0.0375  0.7744  0.6123
  309MOL0     C41643   5.499   1.158  11.567 -0.2189  0.1405 -0.0229
  309MOL0     C41644   5.490   1.135  11.695  0.5999  0.2290 -1.2632
  309MOL0     C41645   5.955   1.220  10.857 -0.1149  0.0996 -0.5200
  309MOL0     C41646   6.084   1.237  10.797  0.2794 -0.6050 -0.2722
  309MOL0     C41647   6.091   1.247  10.650  0.6667 -0.9429  0.3820
  309MOL0     H41648   6.444   1.523  10.642  0.1355 -0.2832  0.7001
  309MOL0     H41649   6.644   1.584  10.498  1.8203 -0.2426  1.3551
  309MOL0     H41650   6.905   1.253  10.380  2.1432  1.5465  0.6916
  309MOL0     H41651   6.827   1.296  10.221  0.5017 -3.9006  0.1998
  309MOL0     H41652   7.052   1.448  10.335 -1.1313 -0.6451  1.2605
  309MOL0     H41653   6.987   1.460  10.171 -2.5131 -1.0979 -0.0255
  309MOL0     H41654   7.052   1.207  10.140  2.7708 -1.5380 -0.5418
  309MOL0     H41655   7.141   1.222  10.288  0.2589  0.3249  0.4734
  309MOL0     H41656   7.212   1.327  10.016 -0.1693  0.1150 -0.3960
  309MOL0     H41657   7.233   1.452  10.132  2.9769  0.2498 -1.9149
  309MOL0     H41658   7.343   1.277  10.285 -1.2131 -1.5394  0.2138
  309MOL0     H41659   7.336   1.166  10.142 -0.4468  0.8851  0.1281
  309MOL0     H41660   7.465   1.347  10.015  2.3885  3.8406  0.2311
  309MOL0     H41661   7.441   1.457  10.145  1.2181  0.3999  0.3947
  309MOL0     H41662   7.622   1.197  10.160 -0.3089 -0.7248  2.0783
  309MOL0     H41663   7.585   1.290  10.294  3.6185 -0.6972 -0.6155
  309MOL0     H41664   7.673   1.504  10.172 -3.6591  0.7480 -2.7227
  309MOL0     H41665   7.794   1.375  10.216 -2.2542 -3.3577  1.3761
  309MOL0     H41666   7.643   1.566   9.940  2.2037  2.2442  0.4482
  309MOL0     H41667   7.742   1.551   9.639 -1.2584  2.4730  1.1601
  309MOL0     H41668   7.816   1.658   9.754 -1.0600 -0.2815 -0.4698
  309MOL0     H41669   8.032   1.542   9.713  1.4351 -3.9080  0.1222
  309MOL0     H41670   7.963   1.447   9.577 -1.1698  1.0183 -1.7195
  309MOL0     H41671   7.996   1.747   9.608 -0.1688 -0.6113  1.4006
  309MOL0     H41672   7.883   1.680   9.480 -0.0125 -1.4769 -0.8049
  309MOL0     H41673   8.060   1.564   9.380 -2.0279  0.4738  0.7629
  309MOL0     H41674   8.184   1.615   9.502 -1.2657 -0.9979  2.8686
  309MOL0     H41675   8.213   1.941   9.223 -2.0594 -0.9489  0.2660
  309MOL0     H41676   8.401   1.947   9.056 -1.2471 -2.1842 -3.7157
  309MOL0     H41677   8.798   1.784   8.868  2.2561  0.6058 -1.0566
  309MOL0     H41678   9.010   1.720   8.760  1.3423 -0.7977  1.2384
  309MOL0     H41679   9.150   1.650   8.650  1.0416  0.2006 -0.2258
  309MOL0     H41680   9.233   1.507   8.587 -0.3115 -2.8952  0.0347
  309MOL0     H41681   9.043   1.458   8.430 -1.3302  0.7281 -1.3894
  309MOL0     H41682   8.989   1.617   8.459 -0.2108 -0.5691  2.2113
  309MOL0     H41683   9.262   1.533   8.358 -1.0079 -0.4057  1.9539
  309MOL0     H41684   9.119   1.584   8.262 -0.7676  0.0074 -0.1558
  309MOL0     H41685   9.225   1.777   8.479 -4.8321  1.3126  0.5366
  309MOL0     H41686   9.112   1.811   8.356  0.4203  1.9344  0.7526
  309MOL0     H41687   9.297   1.795   8.178  1.3727  0.4428 -0.9683
  309MOL0     H41688   9.410   1.765   8.311 -2.1591 -1.4563  3.7045
  309MOL0     H41689   9.229   2.010   8.311  0.8627  1.5119  4.3482
  309MOL0     H41690   9.385   2.005   8.382 -2.7560  3.0340 -0.0235
  309MOL0     H41691   9.348   1.974   8.086  1.5544 -1.0137 -0.2707
  309MOL0     H41692   9.507   2.001   8.185 -0.1250  1.8010  0.4171
  309MOL0     H41693   9.453   2.217   8.092 -0.5747 -0.4106 -1.1430
  309MOL0     H41694   9.288   2.188   8.127  0.7806  0.7951 -1.7543
  309MOL0     H41695   8.900   1.313   8.779 -0.3683  0.7340 -0.3412
  309MOL0     H41696   8.678   1.371   8.873  2.1167 -1.6228  1.3477
  309MOL0     H41697   8.438   1.524   9.112 -1.6576 -1.5347  2.0521
  309MOL0     H41698   8.261   1.519   9.275 -5.0017  0.8142 -0.7135
  309MOL0     H41699   6.693   1.165  10.407 -1.7741  1.2042 -2.7675
  309MOL0     H41700   6.530   1.105  10.575  1.0373 -0.3467  3.1643
  309MOL0     H41701   6.255   1.281  11.081  0.5953 -1.2618  0.2620
  309MOL0     H41702   6.040   1.294  11.174 -3.5435 -0.1529  0.6064
  309MOL0     H41703   5.828   1.331  11.212  1.5093 -1.1943 -0.6722
  309MOL0     H41704   5.840   1.161  11.229 -0.4376  0.2031  1.3225
  309MOL0     H41705   5.613   1.120  11.185  0.6587 -0.5206  0.6136
  309MOL0     H41706   5.575   1.295  11.172 -0.9844 -1.1287 -2.3059
  309MOL0     H41707   5.617   1.334  11.396  0.0392  0.6900 -2.9769
  309MOL0     H41708   5.704   1.177  11.431 -1.1379 -1.5084  1.2613
  309MOL0     H41709   5.415   1.197  11.368  0.4716  1.2461  0.2691
  309MOL0     H41710   5.508   1.050  11.378 -2.1822  0.4565  0.9683
  309MOL0     H41711   5.505   1.117  11.800  1.9910  1.8648 -1.1401
  309MOL0     H41712   5.866   1.195  10.801 -2.7553  5.3289  0.7555
  309MOL0     H41713   5.991   1.262  10.609 -0.5472  2.0246  3.8652
  309MOL0     H41714   6.144   1.341  10.631 -0.3353 -0.0468  1.8322
  309MOL0     H41715   6.147   1.165  10.604  0.9497 -0.1108 -0.7898
  310MOL0     O41716   0.018   9.944   2.313  0.0661  0.1954 -0.6372
  310MOL0     C41717  -0.026   9.996   2.217  0.1137  0.0376  0.5632
  310MOL0     O41718   0.021  10.102   2.150  0.0714 -0.3537  0.2315
  310MOL0     C41719   0.156  10.123   2.152  0.4202  0.4051  0.1189
  310MOL0     C41720   0.247  10.016   2.128  0.9598  0.2790 -0.1096
  310MOL0     C41721   0.388  10.045   2.128  0.3455 -0.4052  0.4577
  310MOL0     C41722   0.427  10.173   2.155 -1.3080  1.3352 -0.0646
  310MOL0     O41723   0.557  10.211   2.154  0.6740  0.2944 -0.0196
  310MOL0     C41724   0.649  10.117   2.203 -0.7716  0.3459  0.4399
  310MOL0     C41725   0.788  10.182   2.221 -0.6320  0.3536  1.0090
  310MOL0     C41726   0.903  10.088   2.264 -0.5759 -0.0089 -0.0929
  310MOL0     C41727   1.042  10.148   2.265 -0.5393  0.2807  0.8191
  310MOL0     C41728   1.096  10.201   2.400  0.5908 -0.8002 -0.3656
  310MOL0     C41729   1.239  10.231   2.392  0.0622  0.2260 -0.0495
  310MOL0     C41730   1.298  10.285   2.517  0.6242 -0.5595 -0.2897
  310MOL0     C41731   1.368  10.178   2.607  0.5844 -0.2241 -0.0613
  310MOL0     N41732   1.516  10.158   2.568  0.6318  0.7800 -0.4638
  310MOL0     C41733   1.599  10.071   2.634  0.8678  1.0668  0.5739
  310MOL0     C41734   1.710  10.074   2.552  0.1211  0.8772 -0.2116
  310MOL0     C41735   1.829   9.996   2.584  0.5579  0.0612  0.2426
  310MOL0     C41736   1.961  10.068   2.547  0.0205  0.0679 -1.1784
  310MOL0     C41737   1.988  10.201   2.626  0.4404 -0.3007 -0.0575
  310MOL0     C41738   2.126  10.254   2.599 -0.0818 -0.7824 -0.4365
  310MOL0     O41739   2.225  10.175   2.664 -0.7668  0.1448  0.1554
  310MOL0     C41740   2.353  10.226   2.673  0.4619 -0.6748 -0.4238
  310MOL0     C41741   2.385  10.353   2.617 -0.3482 -0.5705  0.4505
  310MOL0     C41742   2.521  10.404   2.629  0.6818 -0.5069 -1.0774
  310MOL0     C41743   2.623  10.327   2.683 -0.0089  0.1824  0.2019
  310MOL0     C41744   2.763  10.369   2.668  0.6484 -0.1405 -0.4474
  310MOL0     O41745   2.860  10.263   2.679  0.8960  0.4449  1.3943
  310MOL0     C41746   2.997  10.302   2.675  0.8308 -0.4614 -0.0915
  310MOL0     C41747   3.042  10.400   2.770 -0.0998 -0.0539 -0.0950
  310MOL0     C41748   3.182  10.422   2.768  0.1187 -0.3672 -0.2630
  310MOL0     C41749   3.265  10.356   2.677 -1.0314  0.2772  0.3167
  310MOL0     O41750   3.405  10.372   2.676 -0.1686 -0.2415 -0.6468
  310MOL0     C41751   3.473  10.454   2.774  0.4398 -0.0878 -0.6167
  310MOL0     C41752   3.618  10.457   2.743 -0.2363 -0.1677 -0.5463
  310MOL0     C41753   3.680  10.591   2.777  0.3004  0.3810 -0.1584
  310MOL0     C41754   3.831  10.572   2.769  0.3214 -0.3920  0.5639
  310MOL0     C41755   3.904  10.689   2.719 -0.7110  0.4081  0.7601
  310MOL0     C41756   4.056  10.680   2.740  0.0605 -0.7255 -0.2698
  310MOL0     C41757   4.132  10.581   2.654 -0.4801  0.2547  0.3157
  310MOL0     C41758   4.286  10.581   2.679 -0.5068  0.1722  0.3466
  310MOL0    Cl41759   4.332  10.494   2.528  0.2177 -0.0414 -0.4162
  310MOL0     C41760   3.211  10.277   2.581  0.7021  1.1426  0.1341
  310MOL0     C41761   3.073  10.237   2.580  0.3404 -0.2145  0.2661
  310MOL0     O41762   2.789  10.490   2.661  0.3649  0.1459  0.0135
  310MOL0     C41763   2.587  10.206   2.737 -0.2633  0.8488  0.3422
  310MOL0     C41764   2.458  10.157   2.738  0.4252  0.0640 -0.1235
  310MOL0     N41765   1.683  10.154   2.442 -0.5503  0.8750 -0.5265
  310MOL0     N41766   1.579  10.222   2.464  0.2202  0.1226  1.2128
  310MOL0     C41767   0.342  10.271   2.161 -0.5492 -0.2082  0.0872
  310MOL0     C41768   0.211  10.249   2.164 -0.3892 -0.3851 -0.7509
  310MOL0     C41769  -0.169   9.968   2.196 -0.0375 -0.4285  0.4173
  310MOL0     C41770  -0.246  10.052   2.104  0.1624  0.0102 -0.7957
  310MOL0     C41771  -0.377  10.024   2.065 -0.0270 -0.2220  0.2258
  310MOL0     C41772  -0.449   9.920   2.123  0.9676 -0.2777  0.1425
  310MOL0     O41773  -0.578   9.886   2.091  0.0972  0.3495  0.6368
  310MOL0     C41774  -0.656   9.964   1.989 -0.5994 -0.0519  0.3852
  310MOL0     C41775  -0.764   9.864   1.935 -0.2170  0.6956 -0.1090
  310MOL0     C41776  -0.879   9.864   2.040 -0.4886 -0.8841  0.0298
  310MOL0     C41777  -0.988   9.767   2.013 -0.5526  0.0832 -0.3387
  310MOL0     C41778  -0.958   9.635   2.069  0.5436  0.0613 -0.2799
  310MOL0     C41779  -0.934   9.526   2.117 -0.1147 -0.4180 -0.3538
  310MOL0     C41780  -0.395   9.864   2.233  0.4836 -0.0256  0.3676
  310MOL0     C41781  -0.253   9.875   2.264  0.3213  0.8801  0.3073
  310MOL0     C41782  -0.201   9.801   2.382  0.4025  0.3077 -0.4147
  310MOL0     H41783   0.203   9.921   2.100 -0.5228  1.4309 -1.8762
  310MOL0     H41784   0.465   9.973   2.103  2.4531  1.8253  0.0848
  310MOL0     H41785   0.613  10.068   2.294 -1.2873 -2.1180 -0.9996
  310MOL0     H41786   0.667  10.040   2.128  0.6673  3.0694 -2.2876
  310MOL0     H41787   0.771  10.271   2.282 -0.1479 -1.1069  3.4144
  310MOL0     H41788   0.819  10.211   2.120  2.0514 -1.6763  1.1506
  310MOL0     H41789   0.892   9.996   2.205 -1.5847  1.4240 -2.3026
  310MOL0     H41790   0.875  10.057   2.365  0.6772 -0.5173  0.1137
  310MOL0     H41791   1.108  10.066   2.238 -2.2484 -0.5215 -1.1570
  310MOL0     H41792   1.047  10.227   2.190  0.2295 -1.3456 -0.9056
  310MOL0     H41793   1.039  10.289   2.430  2.5718  0.7669 -0.9628
  310MOL0     H41794   1.083  10.120   2.472 -1.8998  0.4690  0.7332
  310MOL0     H41795   1.286  10.135   2.369 -0.8375  0.0171 -1.1198
  310MOL0     H41796   1.245  10.298   2.306 -1.2735 -0.3599 -0.6231
  310MOL0     H41797   1.212  10.327   2.572  1.0508 -1.2177  0.9272
  310MOL0     H41798   1.371  10.362   2.494  0.0508 -0.2574 -1.1616
  310MOL0     H41799   1.366  10.222   2.707 -1.5309 -2.1997  0.8417
  310MOL0     H41800   1.301  10.092   2.606 -0.3684  0.5097 -0.1625
  310MOL0     H41801   1.585  10.013   2.725  3.1016 -4.3798 -2.0406
  310MOL0     H41802   1.843   9.972   2.690  1.4812  0.5518  0.2428
  310MOL0     H41803   1.823   9.894   2.544 -0.6182  0.3380 -0.3383
  310MOL0     H41804   2.055  10.014   2.560  0.6737  1.1640 -1.2286
  310MOL0     H41805   1.950  10.092   2.441  1.9452  0.5814 -1.2906
  310MOL0     H41806   1.988  10.177   2.732 -0.2534  0.6565  0.1668
  310MOL0     H41807   1.905  10.270   2.610 -0.6909 -0.7101  3.3870
  310MOL0     H41808   2.127  10.360   2.626  0.2420 -0.8953  0.0008
  310MOL0     H41809   2.149  10.265   2.492  0.3839 -0.1762 -0.2786
  310MOL0     H41810   2.323  10.423   2.562  1.1176  0.1391 -0.3464
  310MOL0     H41811   2.543  10.503   2.590 -1.4711  1.0109  1.2208
  310MOL0     H41812   2.978  10.445   2.845 -1.9492  0.2827 -1.7910
  310MOL0     H41813   3.226  10.491   2.840 -0.3306 -0.4028  0.0453
  310MOL0     H41814   3.438  10.558   2.774  0.4931 -0.0249  1.5965
  310MOL0     H41815   3.448  10.416   2.873 -2.6118  2.0559 -0.4145
  310MOL0     H41816   3.664  10.373   2.797  1.6683  1.2269  0.1172
  310MOL0     H41817   3.641  10.443   2.637  0.4681 -0.1516 -0.4053
  310MOL0     H41818   3.639  10.667   2.710  1.9477  1.0432 -0.4629
  310MOL0     H41819   3.647  10.622   2.877 -0.4875 -2.9973  0.7416
  310MOL0     H41820   3.850  10.482   2.711 -1.2022  0.6105 -1.6270
  310MOL0     H41821   3.858  10.553   2.873 -2.5667  0.3435  1.5588
  310MOL0     H41822   3.867  10.783   2.761 -1.4904  0.5613 -0.2145
  310MOL0     H41823   3.876  10.696   2.614 -1.4515  2.2368  1.0527
  310MOL0     H41824   4.086  10.785   2.730  0.5543 -0.6811  1.3551
  310MOL0     H41825   4.070  10.659   2.846 -0.2476 -2.6095 -0.5705
  310MOL0     H41826   4.113  10.610   2.550  1.1021 -3.3963 -1.1611
  310MOL0     H41827   4.093  10.479   2.666  0.4560  0.0149  1.5788
  310MOL0     H41828   4.330  10.681   2.666 -0.8303  0.5705  2.0627
  310MOL0     H41829   4.327  10.540   2.771 -0.5767  0.9042  0.7145
  310MOL0     H41830   3.277  10.224   2.512 -1.6237 -1.4553 -0.2754
  310MOL0     H41831   3.016  10.178   2.509 -2.0290  0.7366  1.2873
  310MOL0     H41832   2.661  10.149   2.793  0.4981  0.9172 -0.5599
  310MOL0     H41833   2.439  10.057   2.777 -0.4110 -0.0731 -0.8518
  310MOL0     H41834   0.389  10.368   2.172 -0.4432 -0.2556  0.0461
  310MOL0     H41835   0.145  10.334   2.160 -0.2735 -0.1652  1.1533
  310MOL0     H41836  -0.204  10.133   2.045 -0.5236 -1.0979 -2.9040
  310MOL0     H41837  -0.422  10.080   1.984 -0.0207 -0.2838  0.1799
  310MOL0     H41838  -0.600   9.992   1.900 -0.3743 -2.8892 -0.4816
  310MOL0     H41839  -0.687  10.061   2.028  3.2982  2.4581 -2.1314
  310MOL0     H41840  -0.713   9.768   1.926  1.7667  1.4343  2.1292
  310MOL0     H41841  -0.793   9.891   1.834 -0.9989  4.8840  1.0224
  310MOL0     H41842  -0.919   9.966   2.027  4.5392  1.4599  0.4280
  310MOL0     H41843  -0.851   9.852   2.145 -0.4208 -2.1474 -0.1265
  310MOL0     H41844  -1.076   9.810   2.063 -0.9288  0.6655 -1.4505
  310MOL0     H41845  -1.007   9.753   1.906  3.3170 -0.7886 -1.0455
  310MOL0     H41846  -0.904   9.430   2.155 -1.9931 -1.2241 -0.7703
  310MOL0     H41847  -0.461   9.802   2.294 -1.5019  0.2356 -1.4027
  310MOL0     H41848  -0.280   9.744   2.432  0.2670  1.8187  1.2092
  310MOL0     H41849  -0.122   9.731   2.355 -0.5688  0.6607 -5.0419
  310MOL0     H41850  -0.163   9.874   2.455 -0.4810  0.2110  0.1650
  311MOL0     O41851   7.672   3.512   7.526  0.0283 -0.0719  0.2484
  311MOL0     C41852   7.651   3.629   7.481 -0.1376 -0.4712 -1.0360
  311MOL0     O41853   7.717   3.743   7.528  0.5242 -0.1513  0.7790
  311MOL0     C41854   7.833   3.711   7.582 -0.7551  0.7095 -1.3375
  311MOL0     C41855   7.952   3.722   7.506 -0.5300 -0.1743 -0.8764
  311MOL0     C41856   8.072   3.690   7.572  0.3297 -0.2904  0.2976
  311MOL0     C41857   8.072   3.638   7.705 -0.0708 -0.2604 -0.1755
  311MOL0     O41858   8.194   3.599   7.765 -0.4052  0.3290 -0.0883
  311MOL0     C41859   8.317   3.629   7.690  0.0962  0.1696 -0.1485
  311MOL0     C41860   8.445   3.597   7.758 -0.1175 -0.7055 -0.4991
  311MOL0     C41861   8.563   3.627   7.673 -0.3358 -0.5361  0.4474
  311MOL0     C41862   8.685   3.542   7.705  0.3070  0.2537 -0.9971
  311MOL0     C41863   8.809   3.594   7.632 -0.2417  0.3212  0.1124
  311MOL0     C41864   8.930   3.507   7.659 -0.5955 -0.6372 -0.4057
  311MOL0     C41865   9.043   3.532   7.554 -0.1135 -0.9578 -0.7278
  311MOL0     C41866   9.116   3.658   7.576  0.2528  0.1548 -0.2356
  311MOL0     N41867   9.242   3.647   7.514  0.1101 -0.6075 -0.8460
  311MOL0     C41868   9.281   3.631   7.380 -0.2921  0.2447 -0.5588
  311MOL0     C41869   9.408   3.667   7.365 -0.2671 -0.0433  0.4575
  311MOL0     C41870   9.490   3.671   7.238  0.2878 -0.4451  0.6462
  311MOL0     C41871   9.522   3.526   7.184 -0.3481 -0.0356 -0.3945
  311MOL0     C41872   9.610   3.528   7.052  1.1185 -0.3524  0.1163
  311MOL0     C41873   9.625   3.385   6.990 -0.0714  0.6472 -0.2775
  311MOL0     O41874   9.746   3.321   7.024 -0.5060 -0.1589 -0.4789
  311MOL0     C41875   9.860   3.378   6.969  0.3845 -0.0059 -0.0433
  311MOL0     C41876   9.966   3.332   7.041 -0.2640  0.5006 -0.3305
  311MOL0     C41877  10.095   3.371   7.017 -0.1164  0.7936 -0.0348
  311MOL0     C41878  10.122   3.451   6.907 -0.1408 -0.3963  0.1473
  311MOL0     C41879  10.266   3.483   6.881 -0.8100 -0.2839 -0.3659
  311MOL0     O41880  10.366   3.458   6.979  0.5808 -0.7123 -0.0491
  311MOL0     C41881  10.493   3.501   6.955  0.0311 -0.5311 -0.3436
  311MOL0     C41882  10.558   3.581   7.044  0.9743  0.3644 -0.2083
  311MOL0     C41883  10.684   3.630   7.010  0.6477 -0.3507 -0.2135
  311MOL0     C41884  10.748   3.611   6.889  0.7246  1.2017 -0.2905
  311MOL0     O41885  10.855   3.684   6.853  0.2491 -0.2169  0.3163
  311MOL0     C41886  10.969   3.678   6.951  0.5168 -0.1856 -0.3384
  311MOL0     C41887  11.100   3.656   6.878  0.4343  0.5044  0.9444
  311MOL0     C41888  11.225   3.695   6.963 -0.0483  0.1117  0.1840
  311MOL0     C41889  11.354   3.651   6.903  0.6770  0.5384  0.5626
  311MOL0     C41890  11.464   3.732   6.958 -0.0581 -0.0293  0.4438
  311MOL0     C41891  11.606   3.686   6.918  0.0108 -0.5753  0.5210
  311MOL0     C41892  11.713   3.790   6.953 -0.7567 -0.8073  0.0952
  311MOL0     C41893  11.845   3.732   6.908 -0.1336 -0.0372 -0.2102
  311MOL0    Cl41894  11.987   3.849   6.906  0.0843  0.1885 -0.3943
  311MOL0     C41895  10.687   3.515   6.805 -0.9153 -0.0283  0.2429
  311MOL0     C41896  10.562   3.472   6.838  0.0609  0.4181  0.1337
  311MOL0     O41897  10.287   3.534   6.779 -0.3876 -0.1422  0.7665
  311MOL0     C41898  10.014   3.489   6.827 -0.4925 -0.6113  0.3779
  311MOL0     C41899   9.880   3.452   6.854  0.2922 -0.5173 -0.7740
  311MOL0     N41900   9.457   3.698   7.493 -0.1442 -0.6378  0.1011
  311MOL0     N41901   9.353   3.685   7.583 -0.1986  0.2477 -0.5845
  311MOL0     C41902   7.950   3.609   7.766 -0.2932 -0.1545  0.0929
  311MOL0     C41903   7.837   3.655   7.703 -0.4938 -0.4603 -0.2906
  311MOL0     C41904   7.548   3.650   7.373 -0.5506  0.5100  0.9659
  311MOL0     C41905   7.595   3.675   7.235  0.0209  0.6811 -0.2397
  311MOL0     C41906   7.500   3.689   7.132 -0.1087  0.0078  0.8318
  311MOL0     C41907   7.364   3.664   7.160 -0.3726  0.3592 -0.9277
  311MOL0     O41908   7.272   3.665   7.053 -0.5639  0.0639  0.7594
  311MOL0     C41909   7.149   3.607   7.063  0.0288 -0.7020 -0.5176
  311MOL0     C41910   7.086   3.603   6.922  0.0119  0.0362  0.6279
  311MOL0     C41911   7.142   3.501   6.811 -0.0994 -0.1994  0.6891
  311MOL0     C41912   7.086   3.356   6.823 -0.6554 -0.0047  0.1946
  311MOL0     C41913   6.942   3.361   6.820 -0.7164 -0.5516 -1.0365
  311MOL0     C41914   6.824   3.367   6.835 -0.0112  0.1927  0.0569
  311MOL0     C41915   7.327   3.648   7.290  0.3126  0.4089 -0.3512
  311MOL0     C41916   7.409   3.652   7.396 -0.4030  0.1610 -0.3958
  311MOL0     C41917   7.348   3.642   7.532 -0.2609 -0.5525 -0.0676
  311MOL0     H41918   7.949   3.747   7.400 -1.7492 -0.0956 -0.8422
  311MOL0     H41919   8.165   3.701   7.518  0.2277 -2.2102 -0.3234
  311MOL0     H41920   8.329   3.574   7.597  2.4247  0.2036  0.0812
  311MOL0     H41921   8.305   3.735   7.666 -0.6084  0.2445  0.4832
  311MOL0     H41922   8.453   3.491   7.782  3.0849 -0.4019  0.2621
  311MOL0     H41923   8.451   3.657   7.849  0.6714 -2.6007  0.7610
  311MOL0     H41924   8.587   3.732   7.692  1.3022 -0.4818 -1.5260
  311MOL0     H41925   8.544   3.610   7.567 -0.1914  0.0059  0.3323
  311MOL0     H41926   8.695   3.563   7.812 -0.0610 -0.0174 -0.9084
  311MOL0     H41927   8.676   3.434   7.687  0.6547  0.0597 -0.0868
  311MOL0     H41928   8.789   3.585   7.524 -0.6708  1.0816  0.1232
  311MOL0     H41929   8.827   3.699   7.656 -1.6898  0.4717  0.6494
  311MOL0     H41930   8.955   3.538   7.761  1.7675 -0.4201 -0.9872
  311MOL0     H41931   8.911   3.399   7.657 -1.3971 -0.5036 -2.7750
  311MOL0     H41932   9.001   3.538   7.453  1.0326 -2.1327 -1.3015
  311MOL0     H41933   9.103   3.441   7.563  0.9584 -0.0595  2.2408
  311MOL0     H41934   9.069   3.747   7.533  1.6999  0.5760 -1.0262
  311MOL0     H41935   9.134   3.671   7.683  0.9265  1.0518 -0.4494
  311MOL0     H41936   9.218   3.592   7.301  1.8064 -0.6528 -1.8716
  311MOL0     H41937   9.441   3.732   7.162  1.3079 -1.2773 -0.7212
  311MOL0     H41938   9.580   3.726   7.267 -1.2223  2.2826  0.4317
  311MOL0     H41939   9.578   3.472   7.260  0.9861  1.2383 -0.4107
  311MOL0     H41940   9.431   3.468   7.166 -0.3594 -0.8108  1.9568
  311MOL0     H41941   9.708   3.569   7.076  2.1625 -0.8065 -2.9890
  311MOL0     H41942   9.556   3.591   6.981  0.4861 -1.6433 -0.5822
  311MOL0     H41943   9.605   3.388   6.882 -2.3138  4.9478  0.0495
  311MOL0     H41944   9.540   3.330   7.030 -0.3553  3.6376  3.9148
  311MOL0     H41945   9.941   3.256   7.115 -3.9401  0.6438 -1.2060
  311MOL0     H41946  10.176   3.325   7.073 -1.5786  0.1853  1.6500
  311MOL0     H41947  10.519   3.596   7.144  3.9369 -0.6110  1.2155
  311MOL0     H41948  10.720   3.714   7.068 -2.0996  0.2293  0.7656
  311MOL0     H41949  10.974   3.773   7.006  1.7890  0.9605 -2.3080
  311MOL0     H41950  10.970   3.602   7.030 -2.7200  0.7811  0.8062
  311MOL0     H41951  11.106   3.550   6.851 -0.6861 -0.3568  3.7678
  311MOL0     H41952  11.098   3.712   6.784  1.0834  0.6754  1.0278
  311MOL0     H41953  11.221   3.804   6.971  1.3852  0.3145 -1.3107
  311MOL0     H41954  11.216   3.648   7.061 -2.6411  0.9367  0.4127
  311MOL0     H41955  11.347   3.672   6.796 -1.0258 -2.9865 -0.1485
  311MOL0     H41956  11.368   3.544   6.921 -0.1200  0.3018 -0.1896
  311MOL0     H41957  11.463   3.719   7.066  2.0124 -1.8252  0.3139
  311MOL0     H41958  11.461   3.840   6.940  2.3989 -0.0105 -0.1868
  311MOL0     H41959  11.638   3.597   6.973  2.4367 -0.1729 -0.1043
  311MOL0     H41960  11.596   3.665   6.811 -2.2318 -0.3724  0.6495
  311MOL0     H41961  11.710   3.824   7.056  0.7340  1.3910 -0.5200
  311MOL0     H41962  11.690   3.873   6.886  3.4811 -0.5215 -1.2897
  311MOL0     H41963  11.868   3.647   6.973 -1.1732  1.1139  1.7543
  311MOL0     H41964  11.833   3.702   6.804  0.6590 -0.1118 -0.2899
  311MOL0     H41965  10.732   3.493   6.709 -2.7513  0.5014 -0.7882
  311MOL0     H41966  10.509   3.406   6.770 -2.7293  0.0859  2.4108
  311MOL0     H41967  10.041   3.552   6.742  1.7606 -1.3942  0.4559
  311MOL0     H41968   9.795   3.477   6.791  0.2595  0.7771 -0.2534
  311MOL0     H41969   7.954   3.567   7.866  0.7318 -2.1401 -0.7210
  311MOL0     H41970   7.743   3.642   7.757 -0.8269 -1.0550 -0.9813
  311MOL0     H41971   7.698   3.695   7.210  0.4149 -2.5319 -1.6806
  311MOL0     H41972   7.537   3.716   7.034 -0.2310 -1.4699  0.3555
  311MOL0     H41973   7.086   3.674   7.120  1.5559  0.9285 -0.6482
  311MOL0     H41974   7.152   3.510   7.114  0.9201  0.0339  0.8759
  311MOL0     H41975   7.092   3.704   6.881  0.8542 -0.2833 -0.0555
  311MOL0     H41976   6.978   3.582   6.928  0.1276 -0.5462  0.7166
  311MOL0     H41977   7.250   3.487   6.803 -0.2269  0.1049 -3.6138
  311MOL0     H41978   7.107   3.535   6.714  0.4249 -0.0232  0.5587
  311MOL0     H41979   7.128   3.304   6.736  3.3187 -1.3696  2.6612
  311MOL0     H41980   7.120   3.304   6.913 -0.8573 -0.1175  0.2061
  311MOL0     H41981   6.720   3.379   6.858 -0.3392  3.0455 -2.2411
  311MOL0     H41982   7.220   3.632   7.298  0.6129 -2.9603 -1.5524
  311MOL0     H41983   7.269   3.566   7.538 -1.7346  1.0098  4.0106
  311MOL0     H41984   7.430   3.626   7.603  0.2785  3.6748  0.4719
  311MOL0     H41985   7.301   3.737   7.560  2.5443  0.4500  1.6020
  312MOL0     O41986   0.371   5.568   2.824  0.0149 -0.2542  0.4991
  312MOL0     C41987   0.266   5.521   2.796  0.1988  0.0302  0.8391
  312MOL0     O41988   0.228   5.398   2.825 -0.1405 -0.5484  0.5830
  312MOL0     C41989   0.315   5.303   2.871 -0.9593 -0.4251 -1.0025
  312MOL0     C41990   0.445   5.285   2.828 -0.8811  1.7347 -1.0159
  312MOL0     C41991   0.520   5.190   2.896 -0.4603  0.3533  0.2997
  312MOL0     C41992   0.460   5.112   2.998 -0.6835  0.3635  0.0149
  312MOL0     O41993   0.517   4.988   3.049 -0.3385 -0.1932  0.3673
  312MOL0     C41994   0.659   4.969   3.034  0.5529 -0.0318  0.0443
  312MOL0     C41995   0.692   4.867   2.925  0.5729 -1.1729  0.0307
  312MOL0     C41996   0.842   4.872   2.872 -0.1782  0.1681  0.1708
  312MOL0     C41997   0.943   4.889   2.988  0.1655  0.3629 -0.2624
  312MOL0     C41998   1.088   4.884   2.949 -0.4046  0.5560  0.4411
  312MOL0     C41999   1.140   5.010   2.877  0.6926  0.6110 -0.5664
  312MOL0     C42000   1.291   5.001   2.848 -0.2087  0.9842 -0.1344
  312MOL0     C42001   1.340   5.141   2.792  0.3300  0.2947 -0.0138
  312MOL0     N42002   1.482   5.132   2.771  0.0019 -0.5129 -0.1588
  312MOL0     C42003   1.579   5.141   2.870  0.1388  0.7466  0.0359
  312MOL0     C42004   1.697   5.164   2.804  0.6705 -0.1339  0.1170
  312MOL0     C42005   1.826   5.194   2.859 -0.1397 -0.1397  0.3009
  312MOL0     C42006   1.838   5.346   2.866 -0.3144  0.1255 -0.8992
  312MOL0     C42007   1.965   5.393   2.948  0.1151 -0.5151 -0.1348
  312MOL0     C42008   2.100   5.344   2.891 -0.1772  0.3066 -0.2792
  312MOL0     O42009   2.196   5.364   2.991  0.4288 -0.3202 -0.5892
  312MOL0     C42010   2.328   5.364   2.954  0.2572  1.0583 -0.8898
  312MOL0     C42011   2.384   5.347   2.825 -0.3023  0.2793 -0.1033
  312MOL0     C42012   2.525   5.372   2.799 -0.7920  0.4241 -0.4837
  312MOL0     C42013   2.613   5.391   2.908  0.1909  0.4861 -0.5415
  312MOL0     C42014   2.759   5.396   2.885  0.2467  0.9394  0.2937
  312MOL0     O42015   2.801   5.434   2.764 -0.2090 -0.6088  0.0122
  312MOL0     C42016   2.934   5.403   2.749 -0.4375  0.5689  0.8779
  312MOL0     C42017   3.041   5.466   2.812  0.0962  0.3114  0.6320
  312MOL0     C42018   3.169   5.420   2.805  0.2830  0.0173 -0.5004
  312MOL0     C42019   3.202   5.304   2.726 -0.1481  0.1654 -0.0754
  312MOL0     O42020   3.322   5.248   2.713 -0.5813 -0.5144  0.8683
  312MOL0     C42021   3.437   5.341   2.737  0.1377  0.1979 -0.1615
  312MOL0     C42022   3.570   5.271   2.711  0.5086  0.8370  0.7620
  312MOL0     C42023   3.693   5.361   2.757 -0.1162  0.1828 -0.3149
  312MOL0     C42024   3.826   5.290   2.728  0.0444  0.7317  0.0435
  312MOL0     C42025   3.935   5.388   2.755  0.0301  0.8402 -0.1175
  312MOL0     C42026   4.067   5.306   2.738  0.3381 -0.7834  0.4123
  312MOL0     C42027   4.185   5.395   2.784  0.8632  0.7137 -0.7134
  312MOL0     C42028   4.319   5.332   2.762 -1.3681  0.0575 -0.6764
  312MOL0    Cl42029   4.323   5.166   2.840  0.1335  0.2476  0.2964
  312MOL0     C42030   3.096   5.241   2.660  0.2290  0.3574 -0.2120
  312MOL0     C42031   2.964   5.291   2.666 -0.1387  0.0372 -0.6394
  312MOL0     O42032   2.829   5.347   2.975  0.1071  0.5392 -0.2805
  312MOL0     C42033   2.551   5.393   3.035 -0.0320 -0.8923  0.5057
  312MOL0     C42034   2.416   5.385   3.063 -0.1576  0.8035 -0.1101
  312MOL0     N42035   1.668   5.157   2.663  0.5123  0.1273 -0.6796
  312MOL0     N42036   1.541   5.130   2.650 -0.0613  0.0494  0.4103
  312MOL0     C42037   0.334   5.125   3.033  0.1240 -0.0776 -0.5177
  312MOL0     C42038   0.263   5.227   2.977  0.0656  0.1880  0.4714
  312MOL0     C42039   0.164   5.607   2.729 -0.5259 -1.1494 -0.1270
  312MOL0     C42040   0.039   5.556   2.701 -0.3577  0.8900 -0.2385
  312MOL0     C42041  -0.065   5.622   2.636  0.3767  0.6293 -0.3318
  312MOL0     C42042  -0.042   5.741   2.583 -0.1611 -0.0197  0.9038
  312MOL0     O42043  -0.130   5.801   2.493  0.9692  0.4259 -0.9916
  312MOL0     C42044  -0.244   5.725   2.443  0.4295 -0.1298 -0.3219
  312MOL0     C42045  -0.302   5.792   2.314 -0.9116  0.0395 -0.3182
  312MOL0     C42046  -0.412   5.890   2.348  0.0579 -0.9021  0.1646
  312MOL0     C42047  -0.543   5.813   2.378 -0.2768  0.1724  0.2237
  312MOL0     C42048  -0.646   5.920   2.406  0.4983  0.3501  1.1472
  312MOL0     C42049  -0.714   6.025   2.408 -0.0077  0.2618 -0.1453
  312MOL0     C42050   0.078   5.801   2.603 -0.0910  0.6011 -0.0059
  312MOL0     C42051   0.184   5.743   2.681 -0.7227 -0.3639 -0.7420
  312MOL0     C42052   0.317   5.817   2.693 -0.7120 -0.6387 -0.4151
  312MOL0     H42053   0.490   5.340   2.746  1.6744 -3.0620 -3.2115
  312MOL0     H42054   0.621   5.173   2.858  0.4688  2.2516  1.7192
  312MOL0     H42055   0.709   5.066   3.022 -0.0230  0.1833 -0.6677
  312MOL0     H42056   0.702   4.934   3.128  1.5306  0.2292 -0.2901
  312MOL0     H42057   0.628   4.891   2.840 -1.1445 -0.8959  1.3415
  312MOL0     H42058   0.662   4.772   2.971  0.6638  0.2918  3.4643
  312MOL0     H42059   0.862   4.962   2.814 -3.3350  2.0841  1.7312
  312MOL0     H42060   0.850   4.781   2.813 -0.7069  1.9897 -2.9286
  312MOL0     H42061   0.924   4.986   3.035  0.8983 -0.5523  2.0539
  312MOL0     H42062   0.926   4.815   3.066  1.4800  0.8294  0.4854
  312MOL0     H42063   1.135   4.870   3.047  0.3358 -0.7350 -0.0766
  312MOL0     H42064   1.116   4.794   2.894 -0.9177  0.4675  0.3213
  312MOL0     H42065   1.088   5.004   2.781 -1.6962 -0.3913  0.7064
  312MOL0     H42066   1.108   5.106   2.919  0.0467  1.1843 -2.2890
  312MOL0     H42067   1.313   4.916   2.782  1.1493 -0.1629  1.7068
  312MOL0     H42068   1.347   4.968   2.936  0.4960  1.2203 -0.4872
  312MOL0     H42069   1.284   5.177   2.705  0.8209  1.1106 -0.0103
  312MOL0     H42070   1.308   5.215   2.867 -1.3907  0.5297 -0.9322
  312MOL0     H42071   1.566   5.131   2.978 -2.8330 -1.3554 -0.4056
  312MOL0     H42072   1.832   5.159   2.962  0.6946  2.1454  1.0926
  312MOL0     H42073   1.902   5.162   2.788  1.0666  2.7051  0.1438
  312MOL0     H42074   1.854   5.383   2.765  2.5293  0.9010 -0.2701
  312MOL0     H42075   1.748   5.387   2.912  0.0472 -0.2621  0.2011
  312MOL0     H42076   1.951   5.347   3.047  0.7384  0.6150  0.4997
  312MOL0     H42077   1.969   5.502   2.940 -0.6201 -0.6427 -3.5597
  312MOL0     H42078   2.122   5.391   2.795 -1.7414 -2.2972 -2.0319
  312MOL0     H42079   2.100   5.238   2.865  2.5830 -0.2381  1.4907
  312MOL0     H42080   2.325   5.328   2.736  2.1436  1.6695 -2.1478
  312MOL0     H42081   2.569   5.370   2.700 -0.9507 -0.7086 -0.5470
  312MOL0     H42082   3.021   5.545   2.883  1.2577  0.1163  1.1915
  312MOL0     H42083   3.244   5.472   2.865  0.7040 -0.7630 -0.3392
  312MOL0     H42084   3.429   5.430   2.674 -0.6929 -0.3687 -0.8765
  312MOL0     H42085   3.424   5.360   2.844  1.4921 -2.3395  0.5610
  312MOL0     H42086   3.570   5.182   2.773  2.5030  0.0527 -0.2707
  312MOL0     H42087   3.591   5.240   2.608  3.9123 -1.8106  2.0467
  312MOL0     H42088   3.695   5.454   2.700  5.0544  0.0972 -0.6786
  312MOL0     H42089   3.685   5.375   2.865 -0.2468 -3.7767  0.3461
  312MOL0     H42090   3.832   5.260   2.623  0.4054  0.1387  0.2302
  312MOL0     H42091   3.851   5.202   2.788 -1.5810 -1.1053 -1.7890
  312MOL0     H42092   3.919   5.423   2.858  1.0632  0.0363  0.3301
  312MOL0     H42093   3.927   5.473   2.687 -3.1278  1.0240  0.3102
  312MOL0     H42094   4.064   5.216   2.801 -2.5369 -0.6056  0.6636
  312MOL0     H42095   4.082   5.272   2.635  1.0608 -0.0963  0.2822
  312MOL0     H42096   4.185   5.415   2.892  1.1393 -1.1916 -0.3301
  312MOL0     H42097   4.187   5.486   2.723  0.8372  0.1085 -1.6371
  312MOL0     H42098   4.335   5.330   2.654 -2.1978  4.6109 -1.0730
  312MOL0     H42099   4.397   5.395   2.806 -0.9527 -1.4915  0.9223
  312MOL0     H42100   3.118   5.159   2.593 -0.5636  0.4493 -0.5962
  312MOL0     H42101   2.874   5.241   2.630 -2.7003  2.2109  2.1290
  312MOL0     H42102   2.609   5.414   3.124 -0.5474  0.4608  0.5421
  312MOL0     H42103   2.375   5.392   3.163 -0.3086  0.0116 -0.1135
  312MOL0     H42104   0.279   5.067   3.106  2.0035 -1.2561  0.0018
  312MOL0     H42105   0.162   5.242   3.013 -0.0940  0.9538 -0.2543
  312MOL0     H42106   0.015   5.453   2.726  1.6145  0.8666  1.8915
  312MOL0     H42107  -0.159   5.568   2.628 -0.6410  2.0849  1.0969
  312MOL0     H42108  -0.323   5.718   2.518  0.2129  0.7167 -0.4619
  312MOL0     H42109  -0.217   5.621   2.419  1.6144 -0.4105  1.9560
  312MOL0     H42110  -0.339   5.720   2.240 -1.7167 -0.3724  0.4621
  312MOL0     H42111  -0.218   5.845   2.269 -0.2958  0.7475  1.5936
  312MOL0     H42112  -0.423   5.956   2.262  0.0809 -2.2272 -0.8927
  312MOL0     H42113  -0.384   5.953   2.433 -1.1000 -1.1429  0.7403
  312MOL0     H42114  -0.578   5.745   2.300  1.9716  0.0231 -0.7104
  312MOL0     H42115  -0.535   5.752   2.469  1.7386  1.3827  0.9200
  312MOL0     H42116  -0.778   6.111   2.400  2.3006  2.2148  1.1142
  312MOL0     H42117   0.093   5.897   2.555  2.2827 -0.0144 -0.6287
  312MOL0     H42118   0.305   5.919   2.656 -0.1546 -0.3912  0.0797
  312MOL0     H42119   0.352   5.819   2.796  2.8381 -1.9268 -1.4382
  312MOL0     H42120   0.389   5.756   2.638  0.8280  0.0896  0.7194
  313MOL0     O42121   3.759   5.863   0.673  0.6209 -0.3677  0.1522
  313MOL0     C42122   3.714   5.758   0.639  0.2247 -0.0776  0.3820
  313MOL0     O42123   3.789   5.647   0.603  0.0387  0.1061 -0.3078
  313MOL0     C42124   3.927   5.652   0.631 -0.0202 -0.3723  0.7780
  313MOL0     C42125   3.968   5.669   0.762  0.1832  0.3523 -0.0856
  313MOL0     C42126   4.097   5.640   0.799 -0.0570  0.5510  0.3830
  313MOL0     C42127   4.187   5.594   0.703  0.4557 -0.6024 -0.2005
  313MOL0     O42128   4.309   5.549   0.761 -0.4531  0.3916 -0.2104
  313MOL0     C42129   4.428   5.547   0.678 -0.4208 -0.0672  0.2237
  313MOL0     C42130   4.539   5.475   0.748  0.0403 -0.7764  0.7100
  313MOL0     C42131   4.566   5.526   0.895  0.5701 -1.0752  0.1347
  313MOL0     C42132   4.685   5.454   0.957  1.0663 -0.2542  0.2352
  313MOL0     C42133   4.726   5.504   1.100 -0.4429 -0.2658  0.7239
  313MOL0     C42134   4.863   5.455   1.137  0.0938 -0.2835 -0.8589
  313MOL0     C42135   4.982   5.559   1.126  0.2941  0.3353 -0.5678
  313MOL0     C42136   5.014   5.602   0.982  0.0556  0.3373 -0.4321
  313MOL0     N42137   5.155   5.651   0.977 -0.0179  0.1123  0.4758
  313MOL0     C42138   5.263   5.564   0.963 -0.6570  0.4348  0.9423
  313MOL0     C42139   5.375   5.634   0.994 -0.4499 -0.6091  0.1346
  313MOL0     C42140   5.523   5.583   0.974 -0.5004 -0.2291  0.5670
  313MOL0     C42141   5.590   5.496   1.080  0.2764 -0.5403 -0.1957
  313MOL0     C42142   5.583   5.563   1.221 -0.1259  0.0539 -0.2778
  313MOL0     C42143   5.656   5.494   1.337 -0.4130  0.3116  0.1479
  313MOL0     O42144   5.610   5.540   1.465  0.9113 -0.0908  0.2615
  313MOL0     C42145   5.693   5.501   1.570  0.0850 -0.0516  0.2377
  313MOL0     C42146   5.823   5.541   1.579 -0.1829  0.5683  0.0473
  313MOL0     C42147   5.914   5.501   1.676 -0.0858 -0.9359  0.6212
  313MOL0     C42148   5.878   5.403   1.767 -0.3005 -1.0516 -0.1792
  313MOL0     C42149   5.980   5.345   1.866  0.8152 -0.4767 -0.1174
  313MOL0     O42150   6.098   5.412   1.883  0.3605  0.6240  0.2879
  313MOL0     C42151   6.202   5.349   1.955  0.5355 -0.2592  0.2281
  313MOL0     C42152   6.309   5.287   1.885 -0.5213  0.0058  0.3668
  313MOL0     C42153   6.410   5.228   1.959  0.2919 -0.4506  0.3462
  313MOL0     C42154   6.414   5.249   2.092 -0.4454  0.3559  0.5555
  313MOL0     O42155   6.521   5.198   2.167  0.4845  0.4466  0.1601
  313MOL0     C42156   6.619   5.287   2.223  0.0404  0.1457  0.9897
  313MOL0     C42157   6.708   5.333   2.107  0.4479  0.3877  0.5696
  313MOL0     C42158   6.821   5.424   2.150 -0.2961  0.0895  0.5115
  313MOL0     C42159   6.928   5.468   2.046 -0.3271  0.2063  0.5965
  313MOL0     C42160   7.057   5.532   2.107 -0.6145  0.4242  0.5168
  313MOL0     C42161   7.153   5.423   2.154  0.3115 -0.1644  0.9080
  313MOL0     C42162   7.271   5.473   2.231  0.3160  0.4469 -0.7440
  313MOL0     C42163   7.371   5.562   2.151 -0.0168  0.2225  0.4524
  313MOL0    Cl42164   7.538   5.556   2.232 -0.1374  0.0027  0.1363
  313MOL0     C42165   6.306   5.316   2.166 -0.4139  0.1226 -0.0893
  313MOL0     C42166   6.205   5.368   2.092 -0.0155  0.5634 -0.2381
  313MOL0     O42167   5.958   5.233   1.913  0.5548  0.2924 -0.4225
  313MOL0     C42168   5.748   5.349   1.761 -0.1021  0.0411  0.5643
  313MOL0     C42169   5.658   5.401   1.660 -0.6255  0.1302  0.3639
  313MOL0     N42170   5.336   5.759   1.033 -0.2734  0.6397 -0.8108
  313MOL0     N42171   5.211   5.766   1.025 -0.1570 -0.0176 -0.0681
  313MOL0     C42172   4.147   5.588   0.566 -0.9880 -0.5287 -0.5906
  313MOL0     C42173   4.019   5.607   0.536  0.7421  0.5372  0.5787
  313MOL0     C42174   3.564   5.734   0.644 -1.0746  0.4997  0.0987
  313MOL0     C42175   3.513   5.605   0.630  0.7168  0.4083 -1.3590
  313MOL0     C42176   3.376   5.575   0.637  0.3355 -0.1039 -0.6298
  313MOL0     C42177   3.285   5.680   0.645 -0.0798 -0.0174  0.5369
  313MOL0     O42178   3.152   5.647   0.637 -0.2582 -0.1313 -0.2328
  313MOL0     C42179   3.104   5.570   0.752 -0.4562 -0.5594 -0.4334
  313MOL0     C42180   2.962   5.518   0.714 -0.9857 -0.0606 -0.2606
  313MOL0     C42181   2.852   5.622   0.695  0.7757 -0.4754 -0.0108
  313MOL0     C42182   2.834   5.716   0.827  0.2134 -0.5162 -0.5933
  313MOL0     C42183   2.720   5.802   0.830 -0.1745  0.0726  0.8696
  313MOL0     C42184   2.622   5.870   0.834  0.0345  0.3279 -0.0526
  313MOL0     C42185   3.339   5.814   0.653  0.1878  0.0781  0.7916
  313MOL0     C42186   3.475   5.842   0.663 -0.5080 -0.3328  0.1958
  313MOL0     C42187   3.505   5.986   0.684 -0.1202 -0.7690  0.6245
  313MOL0     H42188   3.890   5.690   0.835 -0.9796 -1.5536 -0.7301
  313MOL0     H42189   4.120   5.650   0.904  0.8225 -0.6043  0.3201
  313MOL0     H42190   4.411   5.514   0.575 -1.7580 -0.2580  0.4847
  313MOL0     H42191   4.455   5.653   0.681  0.7413 -0.2815 -1.1832
  313MOL0     H42192   4.630   5.489   0.689 -0.0305  1.6294  1.1033
  313MOL0     H42193   4.520   5.367   0.758  1.8108 -1.3713 -1.4508
  313MOL0     H42194   4.475   5.510   0.952 -0.1087 -1.0071 -0.9081
  313MOL0     H42195   4.595   5.632   0.894  1.9224 -1.4153  0.5227
  313MOL0     H42196   4.662   5.347   0.969 -2.6629  0.2761 -0.9525
  313MOL0     H42197   4.773   5.468   0.893  0.2726  4.6993 -0.1268
  313MOL0     H42198   4.721   5.613   1.104 -0.0914 -0.2114 -0.0770
  313MOL0     H42199   4.649   5.466   1.169 -1.6530 -1.2731 -1.0846
  313MOL0     H42200   4.869   5.424   1.242  0.2840 -0.1174 -0.8191
  313MOL0     H42201   4.874   5.367   1.073  1.1395 -0.9652  0.2098
  313MOL0     H42202   5.070   5.501   1.155  1.4561  1.5151 -1.6373
  313MOL0     H42203   4.951   5.639   1.193 -1.2579 -1.5116  1.0624
  313MOL0     H42204   4.998   5.515   0.918 -0.2693 -0.8210  1.1567
  313MOL0     H42205   4.949   5.686   0.957 -1.6167 -0.6608  0.3791
  313MOL0     H42206   5.261   5.462   0.927 -0.1906  1.1530 -1.2532
  313MOL0     H42207   5.534   5.531   0.878  0.6384  2.2801 -0.7607
  313MOL0     H42208   5.580   5.674   0.954 -0.6271  0.0060  1.2494
  313MOL0     H42209   5.550   5.394   1.083 -1.4410  0.1094 -0.1776
  313MOL0     H42210   5.695   5.481   1.054  0.7143  0.4085  0.9573
  313MOL0     H42211   5.480   5.556   1.259  1.0853 -2.8313  3.0256
  313MOL0     H42212   5.608   5.669   1.209 -1.7685  0.5961  0.6774
  313MOL0     H42213   5.763   5.510   1.320  0.0207 -1.0548  1.4853
  313MOL0     H42214   5.643   5.387   1.322 -0.3612  0.5770 -2.1962
  313MOL0     H42215   5.868   5.602   1.501 -1.4354  1.5646  0.0614
  313MOL0     H42216   6.018   5.530   1.673 -0.9612  2.4844 -0.0722
  313MOL0     H42217   6.308   5.278   1.777 -1.9150  1.1277  0.2504
  313MOL0     H42218   6.490   5.169   1.915  0.9487  0.2857  0.5062
  313MOL0     H42219   6.568   5.370   2.273 -1.5535  0.2059 -0.6067
  313MOL0     H42220   6.685   5.230   2.289  1.2215  1.2855  0.8378
  313MOL0     H42221   6.755   5.246   2.059  1.0214  2.3927 -2.7652
  313MOL0     H42222   6.647   5.375   2.026  1.4230 -0.5504 -0.6929
  313MOL0     H42223   6.771   5.517   2.181 -0.3298 -0.1209  1.1017
  313MOL0     H42224   6.876   5.384   2.236 -0.1310 -0.7508  0.0256
  313MOL0     H42225   6.874   5.525   1.969 -1.5092  0.3923  1.5344
  313MOL0     H42226   6.969   5.384   1.989  0.4875 -0.7913  2.5618
  313MOL0     H42227   7.045   5.613   2.180  2.3664  2.5682 -1.1801
  313MOL0     H42228   7.111   5.588   2.031 -0.5415 -0.3281  0.0136
  313MOL0     H42229   7.099   5.348   2.212 -0.2609 -0.2602  0.2587
  313MOL0     H42230   7.188   5.365   2.069 -3.8552 -0.2269 -0.9819
  313MOL0     H42231   7.324   5.378   2.250 -1.2656  0.2950  4.8768
  313MOL0     H42232   7.243   5.515   2.328 -0.2866  3.1905 -2.0054
  313MOL0     H42233   7.405   5.520   2.055  1.1528  2.4942 -0.1950
  313MOL0     H42234   7.341   5.667   2.139  2.1088  0.9231  0.8186
  313MOL0     H42235   6.301   5.334   2.273 -0.5015 -1.0103  0.1083
  313MOL0     H42236   6.128   5.434   2.130  0.9687  3.4763 -2.8352
  313MOL0     H42237   5.716   5.279   1.837 -0.2459  0.6222  1.0420
  313MOL0     H42238   5.560   5.355   1.663 -0.4745 -0.3865 -1.5482
  313MOL0     H42239   4.206   5.541   0.489 -0.8003  0.7520 -1.2424
  313MOL0     H42240   3.982   5.596   0.434  0.6384 -1.8581  0.8066
  313MOL0     H42241   3.584   5.524   0.619  0.3552 -0.6175  2.3659
  313MOL0     H42242   3.340   5.472   0.636 -3.2161  0.7710  3.7525
  313MOL0     H42243   3.115   5.630   0.843  4.5371 -0.7868 -0.6053
  313MOL0     H42244   3.168   5.482   0.756  0.9640  0.3870 -1.1097
  313MOL0     H42245   2.942   5.439   0.787  0.6302 -0.2465  0.0077
  313MOL0     H42246   2.981   5.470   0.618 -0.9829  1.4432 -1.0398
  313MOL0     H42247   2.762   5.562   0.683 -0.2130  1.2048 -1.3007
  313MOL0     H42248   2.872   5.683   0.606  1.1480 -2.4329 -1.3222
  313MOL0     H42249   2.819   5.640   0.905 -1.2955  0.1222 -0.2396
  313MOL0     H42250   2.922   5.780   0.840  0.6706 -1.3824  0.9650
  313MOL0     H42251   2.533   5.927   0.849 -0.3443 -0.4482  0.7494
  313MOL0     H42252   3.270   5.897   0.661  0.4129  0.2127  1.4218
  313MOL0     H42253   3.517   5.994   0.792 -0.4099  0.2298  0.5939
  313MOL0     H42254   3.592   6.029   0.632  0.4118 -1.5816  0.8290
  313MOL0     H42255   3.421   6.043   0.645  0.7126 -1.5662 -2.6851
  314MOL0     O42256  10.895  11.097   7.794 -0.4234 -0.6018 -0.6607
  314MOL0     C42257  10.820  11.061   7.890 -0.4567  0.0956  0.5944
  314MOL0     O42258  10.839  10.956   7.975  0.3933  0.2941  0.0338
  314MOL0     C42259  10.958  10.940   8.032 -0.7214  0.1981 -0.4630
  314MOL0     C42260  10.988  10.815   8.083 -0.3701  0.4734  0.1276
  314MOL0     C42261  11.104  10.785   8.142 -0.3335 -0.3520 -0.9783
  314MOL0     C42262  11.207  10.887   8.145  0.5981  1.0063 -0.7166
  314MOL0     O42263  11.336  10.860   8.186 -0.0315  0.1906  0.0907
  314MOL0     C42264  11.351  10.789   8.315  0.0126  0.3058 -1.2631
  314MOL0     C42265  11.489  10.818   8.377  0.0283 -0.5563  0.6185
  314MOL0     C42266  11.600  10.743   8.289  0.3888  0.0281 -0.3834
  314MOL0     C42267  11.712  10.690   8.369 -0.0082  0.8160 -0.5249
  314MOL0     C42268  11.671  10.581   8.477 -0.7517  0.8465  0.0673
  314MOL0     C42269  11.787  10.556   8.581  0.6875 -0.4227 -0.1448
  314MOL0     C42270  11.908  10.493   8.505  0.4448  0.3007 -0.3904
  314MOL0     C42271  11.897  10.340   8.532  0.1480 -0.6266  0.1621
  314MOL0     N42272  12.016  10.278   8.465  0.1919  0.2455  0.6128
  314MOL0     C42273  12.113  10.215   8.532 -0.6411  0.0953  0.3068
  314MOL0     C42274  12.210  10.176   8.445 -0.4548 -0.1531 -0.2354
  314MOL0     C42275  12.340  10.096   8.472  1.1679  0.1345  1.4048
  314MOL0     C42276  12.468  10.179   8.447 -0.1971 -0.0553 -0.2350
  314MOL0     C42277  12.466  10.238   8.312  0.0027 -0.4990 -1.1144
  314MOL0     C42278  12.613  10.271   8.276  1.1551  0.0097 -0.4947
  314MOL0     O42279  12.674  10.367   8.368  0.1339  0.6841 -0.1579
  314MOL0     C42280  12.812  10.368   8.394  0.3177 -0.4867 -0.4388
  314MOL0     C42281  12.854  10.459   8.495  0.3002 -0.7662  1.5788
  314MOL0     C42282  12.988  10.468   8.540 -0.4476  0.5031 -0.3299
  314MOL0     C42283  13.090  10.395   8.474  0.3887 -0.1079 -0.3590
  314MOL0     C42284  13.235  10.415   8.503 -0.3823  0.5504  0.2479
  314MOL0     O42285  13.317  10.336   8.420  0.1273  0.3226  0.5197
  314MOL0     C42286  13.444  10.366   8.414 -0.8505  0.3330 -0.1242
  314MOL0     C42287  13.498  10.428   8.300  0.5215  0.0155 -0.7959
  314MOL0     C42288  13.634  10.441   8.288 -0.5851  0.7561  0.2823
  314MOL0     C42289  13.722  10.408   8.387 -0.2693 -0.4182 -0.0402
  314MOL0     O42290  13.856  10.442   8.351  0.1491  0.9451  0.0741
  314MOL0     C42291  13.946  10.468   8.461  0.2337  0.1739 -0.0697
  314MOL0     C42292  14.056  10.564   8.412 -0.8581 -0.0736 -0.2228
  314MOL0     C42293  14.137  10.491   8.303  0.6456 -0.7679 -0.0931
  314MOL0     C42294  14.274  10.565   8.281 -1.5306 -0.6965 -0.2131
  314MOL0     C42295  14.328  10.542   8.140  0.2726  0.2318 -0.7821
  314MOL0     C42296  14.344  10.397   8.096  0.5202  0.4329 -0.5736
  314MOL0     C42297  14.429  10.316   8.191 -0.5794  0.0791 -0.1926
  314MOL0     C42298  14.484  10.194   8.128 -0.1443  0.6442 -0.1879
  314MOL0    Cl42299  14.613  10.246   8.021  0.3082 -0.5247 -0.1855
  314MOL0     C42300  13.668  10.342   8.500 -0.1375 -0.0172  0.0938
  314MOL0     C42301  13.530  10.331   8.521 -0.0293  0.4276 -0.2171
  314MOL0     O42302  13.280  10.486   8.594 -0.1739  0.4698 -0.0505
  314MOL0     C42303  13.048  10.305   8.370 -0.1416 -0.4771  0.1226
  314MOL0     C42304  12.912  10.295   8.334 -0.4483  0.2524  0.0291
  314MOL0     N42305  12.163  10.219   8.324 -1.2773 -0.0296  1.3052
  314MOL0     N42306  12.053  10.291   8.337 -0.3799  0.4670 -0.1649
  314MOL0     C42307  11.177  11.014   8.104  0.4223  0.9673 -0.1546
  314MOL0     C42308  11.050  11.043   8.044 -0.1736 -0.3864 -0.3343
  314MOL0     C42309  10.688  11.121   7.903 -0.6593  0.4170  0.7680
  314MOL0     C42310  10.602  11.059   7.984  0.6177  0.3143 -0.7315
  314MOL0     C42311  10.467  11.102   7.998  0.3035  0.1160  0.3369
  314MOL0     C42312  10.418  11.205   7.919  0.9528  0.2942  0.2676
  314MOL0     O42313  10.286  11.244   7.900 -0.9174 -0.5184 -0.1273
  314MOL0     C42314  10.202  11.246   8.013  1.0092 -0.2985  0.0738
  314MOL0     C42315  10.254  11.309   8.142 -0.2893 -0.6984  0.3581
  314MOL0     C42316  10.133  11.317   8.244 -0.2650  0.5485 -0.0584
  314MOL0     C42317  10.073  11.179   8.285  0.1042  0.6414 -0.7404
  314MOL0     C42318  10.166  11.094   8.356 -0.2700  0.0845  0.8267
  314MOL0     C42319  10.243  11.018   8.408 -0.2236  0.4357  0.0905
  314MOL0     C42320  10.512  11.278   7.846 -1.3608 -0.3787  0.4611
  314MOL0     C42321  10.648  11.244   7.843 -0.4640  0.9339  0.0547
  314MOL0     C42322  10.725  11.324   7.742 -0.7092  0.2948 -0.0770
  314MOL0     H42323  10.908  10.743   8.070 -1.0012  1.2159 -0.1457
  314MOL0     H42324  11.142  10.687   8.169 -0.6682  0.2232  1.9091
  314MOL0     H42325  11.275  10.827   8.384 -0.7892 -0.6899 -1.5858
  314MOL0     H42326  11.338  10.682   8.301 -0.1852  0.6572 -4.3774
  314MOL0     H42327  11.483  10.778   8.479 -0.7707 -3.8962 -0.6400
  314MOL0     H42328  11.498  10.927   8.385  0.7343 -0.6152  0.7257
  314MOL0     H42329  11.642  10.820   8.224  1.1629 -0.4345 -0.4323
  314MOL0     H42330  11.566  10.657   8.230 -0.6401  0.6744 -0.7618
  314MOL0     H42331  11.789  10.652   8.301  2.6174  1.8308  1.6866
  314MOL0     H42332  11.748  10.777   8.424 -0.7900  0.8213 -0.0064
  314MOL0     H42333  11.571  10.596   8.520 -1.1557 -1.5149  0.0685
  314MOL0     H42334  11.664  10.488   8.419 -2.7794  1.3076 -0.5355
  314MOL0     H42335  11.820  10.647   8.631  0.1923  0.5904 -1.5676
  314MOL0     H42336  11.748  10.492   8.660  0.7357  0.0777  0.2902
  314MOL0     H42337  11.997  10.541   8.548  0.6139 -1.5986  1.5762
  314MOL0     H42338  11.909  10.499   8.396 -1.2816  3.0577 -0.3413
  314MOL0     H42339  11.908  10.315   8.638  3.1016 -0.5847 -0.0435
  314MOL0     H42340  11.800  10.299   8.504 -2.3798  1.2607  4.9284
  314MOL0     H42341  12.116  10.212   8.641  1.0665  0.4814  0.3017
  314MOL0     H42342  12.322  10.058   8.573 -0.3984  0.0730  1.1224
  314MOL0     H42343  12.347  10.012   8.403 -2.9953  2.5426 -2.5228
  314MOL0     H42344  12.476  10.259   8.522  1.1992  2.8891 -3.2450
  314MOL0     H42345  12.553  10.111   8.452 -1.3136 -1.5363 -0.5104
  314MOL0     H42346  12.397  10.322   8.302  0.2416  0.0424  1.1583
  314MOL0     H42347  12.430  10.163   8.241 -0.6653 -0.7086 -0.5619
  314MOL0     H42348  12.609  10.321   8.179 -1.6506 -0.7100 -0.8515
  314MOL0     H42349  12.674  10.181   8.266  2.3340  0.5413  1.3607
  314MOL0     H42350  12.779  10.522   8.540 -0.0976  1.8065 -2.1956
  314MOL0     H42351  13.009  10.522   8.631 -0.4116  1.5860 -0.9595
  314MOL0     H42352  13.431  10.456   8.219  2.2839 -2.3012 -3.2351
  314MOL0     H42353  13.688  10.482   8.204  1.3884  1.4696  1.8300
  314MOL0     H42354  13.888  10.527   8.532  0.3851  1.6301 -1.1072
  314MOL0     H42355  13.984  10.378   8.509  3.5248 -0.2212 -2.9545
  314MOL0     H42356  14.017  10.662   8.381  0.8518  0.9756  0.7722
  314MOL0     H42357  14.115  10.590   8.500 -0.9762 -0.9499  0.1299
  314MOL0     H42358  14.160  10.386   8.325 -1.1253 -1.1144  0.2244
  314MOL0     H42359  14.077  10.478   8.213  2.9821  0.1356 -1.8889
  314MOL0     H42360  14.356  10.541   8.349 -1.4861 -0.8580 -0.3235
  314MOL0     H42361  14.252  10.672   8.288 -1.9855 -0.6828 -1.5152
  314MOL0     H42362  14.425  10.592   8.138  0.7512 -0.3732  2.3199
  314MOL0     H42363  14.273  10.594   8.061  1.2510  2.5543 -0.0139
  314MOL0     H42364  14.247  10.348   8.079  0.6746  0.5589 -1.9512
  314MOL0     H42365  14.396  10.397   8.000  0.7652 -0.2341 -0.4410
  314MOL0     H42366  14.369  10.290   8.278 -2.3892  2.2707 -0.6963
  314MOL0     H42367  14.507  10.383   8.229 -0.8475  0.6646 -0.6430
  314MOL0     H42368  14.530  10.132   8.206 -2.3705  0.0060  0.6816
  314MOL0     H42369  14.410  10.139   8.069  0.1212 -0.8991  0.8893
  314MOL0     H42370  13.734  10.306   8.578 -0.3853 -0.0027  0.3120
  314MOL0     H42371  13.490  10.282   8.609 -0.6091  1.1794 -0.0516
  314MOL0     H42372  13.116  10.238   8.317  0.3325  0.9874 -1.1859
  314MOL0     H42373  12.894  10.226   8.252 -0.8566  0.2324  0.1308
  314MOL0     H42374  11.257  11.086   8.114  1.2218  0.0252  0.4498
  314MOL0     H42375  11.038  11.146   8.013  0.3891 -0.1371  0.2450
  314MOL0     H42376  10.624  10.974   8.048 -1.0481 -0.0257 -0.5550
  314MOL0     H42377  10.401  11.051   8.068  1.7053 -2.0024  0.1949
  314MOL0     H42378  10.168  11.147   8.043  0.1684  0.5552  2.1121
  314MOL0     H42379  10.109  11.300   7.996  1.0926 -0.1924 -0.0439
  314MOL0     H42380  10.294  11.404   8.106 -0.1561 -1.1080 -0.5946
  314MOL0     H42381  10.339  11.259   8.188 -0.2268 -0.3929  0.5827
  314MOL0     H42382  10.055  11.384   8.205 -1.8415 -0.7791  0.7018
  314MOL0     H42383  10.173  11.366   8.333  1.0096 -1.4291  0.5258
  314MOL0     H42384   9.989  11.188   8.355  0.2042 -1.1729 -0.3511
  314MOL0     H42385  10.029  11.125   8.201  2.1106 -1.2490 -0.6674
  314MOL0     H42386  10.319  10.948   8.436  0.2847  1.3436  1.0093
  314MOL0     H42387  10.478  11.369   7.797  0.4171  1.1461  1.8808
  314MOL0     H42388  10.816  11.364   7.788 -1.1222  0.8108  0.3083
  314MOL0     H42389  10.762  11.265   7.658 -0.1708  0.8231 -0.2169
  314MOL0     H42390  10.662  11.397   7.690  0.0473  2.0350  1.3275
  315MOL0     O42391   6.128   5.060   6.481 -0.1804  0.2905  0.0963
  315MOL0     C42392   6.050   5.069   6.381 -1.1756 -0.0079  0.2062
  315MOL0     O42393   6.096   5.111   6.258 -0.1327 -0.4709  0.7704
  315MOL0     C42394   6.225   5.163   6.247  0.5933  0.1813  0.6854
  315MOL0     C42395   6.245   5.295   6.248 -0.2853 -0.5844  0.2722
  315MOL0     C42396   6.370   5.355   6.257 -0.3822  0.4642  0.3098
  315MOL0     C42397   6.482   5.281   6.233  0.4063  1.0614 -1.1935
  315MOL0     O42398   6.601   5.350   6.235  0.0645  0.4653  0.1267
  315MOL0     C42399   6.731   5.284   6.258 -0.1177 -0.3218  0.0733
  315MOL0     C42400   6.823   5.404   6.251  0.2953 -0.0730 -0.9956
  315MOL0     C42401   6.973   5.365   6.228  0.5616 -0.6286 -0.7354
  315MOL0     C42402   7.064   5.485   6.244 -0.5985  0.1619 -0.6457
  315MOL0     C42403   7.213   5.464   6.237 -1.3572  0.7113  0.3100
  315MOL0     C42404   7.255   5.428   6.099  0.0492  0.6688  0.4706
  315MOL0     C42405   7.403   5.425   6.083 -0.6790  0.1348 -0.9386
  315MOL0     C42406   7.434   5.399   5.935 -0.0545  0.2163  0.2569
  315MOL0     N42407   7.585   5.414   5.912  0.2450  0.3785 -0.4670
  315MOL0     C42408   7.646   5.396   5.789  0.2775  0.2956  0.2356
  315MOL0     C42409   7.779   5.407   5.821 -0.6419 -0.0488  0.6191
  315MOL0     C42410   7.883   5.410   5.712  0.0790  0.2826 -0.2465
  315MOL0     C42411   8.022   5.399   5.766  0.3332 -0.1707  0.2194
  315MOL0     C42412   8.047   5.261   5.825  0.2406  0.8857  0.3040
  315MOL0     C42413   8.177   5.241   5.893 -0.2267 -0.3388 -0.8473
  315MOL0     O42414   8.188   5.352   5.983  0.2574  0.7565 -0.0567
  315MOL0     C42415   8.303   5.377   6.057 -0.2360  0.0226  0.6580
  315MOL0     C42416   8.424   5.299   6.049 -0.1914  0.2556 -0.7990
  315MOL0     C42417   8.538   5.332   6.128  0.7976  0.4854  0.4786
  315MOL0     C42418   8.542   5.439   6.207  0.4419  0.1569 -0.1578
  315MOL0     C42419   8.659   5.469   6.283  0.2083 -0.5665  0.6044
  315MOL0     O42420   8.775   5.424   6.239  0.1612 -1.1260 -0.1995
  315MOL0     C42421   8.900   5.468   6.277  0.0018  0.6711  0.6281
  315MOL0     C42422   9.006   5.417   6.207  0.2903  0.2881 -0.4025
  315MOL0     C42423   9.141   5.433   6.240  0.4013 -0.5543 -0.4524
  315MOL0     C42424   9.168   5.514   6.353 -0.8047 -0.5260  0.8991
  315MOL0     O42425   9.286   5.556   6.401  0.0238  0.1368 -0.2909
  315MOL0     C42426   9.382   5.446   6.395  0.2936 -0.5198  0.1540
  315MOL0     C42427   9.505   5.481   6.492 -0.0296 -0.4827 -0.9673
  315MOL0     C42428   9.611   5.381   6.492 -0.4983 -0.3617 -0.5773
  315MOL0     C42429   9.731   5.410   6.576 -0.6766 -0.2249 -0.1402
  315MOL0     C42430   9.824   5.285   6.605 -0.5301  0.5956 -0.2712
  315MOL0     C42431   9.964   5.327   6.668  0.6230  0.0789 -0.4660
  315MOL0     C42432  10.078   5.293   6.580 -0.3154  0.3892  0.4262
  315MOL0     C42433  10.114   5.141   6.578  1.0104  0.3159  0.0414
  315MOL0    Cl42434  10.201   5.104   6.727 -0.3232  0.2715 -0.6964
  315MOL0     C42435   9.062   5.570   6.424  0.2485 -1.0863  0.8599
  315MOL0     C42436   8.932   5.540   6.389 -0.1291 -0.0576  0.1391
  315MOL0     O42437   8.638   5.544   6.375 -0.4804  0.5137 -0.1222
  315MOL0     C42438   8.423   5.517   6.212 -0.4226 -0.3047  0.0261
  315MOL0     C42439   8.310   5.485   6.149  0.6976  0.0653 -0.1961
  315MOL0     N42440   7.790   5.450   5.953  0.3324  0.3821 -0.3982
  315MOL0     N42441   7.676   5.432   6.011  0.0010 -0.5555  0.8513
  315MOL0     C42442   6.461   5.147   6.216  0.4244  0.6055  0.3971
  315MOL0     C42443   6.341   5.079   6.222 -0.1278  1.0276 -0.0541
  315MOL0     C42444   5.902   5.041   6.392  0.7338  0.0196  0.1770
  315MOL0     C42445   5.862   4.953   6.492  0.0947 -0.0968  0.3088
  315MOL0     C42446   5.722   4.917   6.518 -0.1569  0.1443  1.2400
  315MOL0     C42447   5.624   4.983   6.446  0.3225  0.8880  0.7321
  315MOL0     O42448   5.494   4.961   6.492  0.1606 -0.0364 -0.7006
  315MOL0     C42449   5.382   5.035   6.434  0.1351  0.4240  0.1394
  315MOL0     C42450   5.375   5.176   6.488 -0.2152  0.3240  0.2356
  315MOL0     C42451   5.230   5.229   6.487  0.2953 -0.3370  1.3258
  315MOL0     C42452   5.168   5.237   6.340  0.6034 -0.0048  0.2109
  315MOL0     C42453   5.251   5.300   6.240 -0.1114 -0.0234  0.3603
  315MOL0     C42454   5.313   5.348   6.146  0.1126  0.7735  0.1318
  315MOL0     C42455   5.667   5.067   6.339  0.0148  0.5816 -0.1496
  315MOL0     C42456   5.799   5.096   6.310  0.3118  0.0568  0.4199
  315MOL0     C42457   5.817   5.194   6.195  0.8093 -0.0240 -0.9650
  315MOL0     H42458   6.161   5.363   6.259  1.1860  1.0136  2.3341
  315MOL0     H42459   6.371   5.463   6.262 -1.2076  0.5094 -0.2696
  315MOL0     H42460   6.740   5.236   6.355  3.2878 -1.1437 -0.5099
  315MOL0     H42461   6.768   5.211   6.185  1.2315  0.1238  0.2710
  315MOL0     H42462   6.825   5.454   6.348  2.2838 -0.2676 -0.8937
  315MOL0     H42463   6.788   5.469   6.170  0.4026  1.1550 -0.0885
  315MOL0     H42464   6.980   5.313   6.132 -1.5530 -2.6836  0.1411
  315MOL0     H42465   6.996   5.301   6.313  0.0540 -0.2516 -0.3124
  315MOL0     H42466   7.041   5.550   6.159  0.6046 -3.3331 -3.9366
  315MOL0     H42467   7.037   5.538   6.336 -0.5385 -1.6611  0.4873
  315MOL0     H42468   7.267   5.556   6.262 -0.3469  0.1647  0.2231
  315MOL0     H42469   7.248   5.390   6.310 -1.5466  1.7000  1.4206
  315MOL0     H42470   7.212   5.334   6.065  0.3788 -0.0658  2.0288
  315MOL0     H42471   7.229   5.501   6.021  1.2689 -0.3311 -0.9293
  315MOL0     H42472   7.449   5.350   6.149 -1.1093  0.9287  0.2962
  315MOL0     H42473   7.439   5.524   6.111  0.7731 -0.0565 -2.0226
  315MOL0     H42474   7.412   5.299   5.897  0.3835 -0.3763  1.5395
  315MOL0     H42475   7.373   5.468   5.875 -1.1288 -0.3152  0.7152
  315MOL0     H42476   7.600   5.369   5.695  2.7261  1.4590 -1.4182
  315MOL0     H42477   7.863   5.331   5.639 -1.2946  1.7941 -1.6164
  315MOL0     H42478   7.877   5.504   5.655  3.5474  0.0136 -1.2856
  315MOL0     H42479   8.085   5.428   5.682  1.3563  0.9281  1.3393
  315MOL0     H42480   8.039   5.476   5.842  0.5212 -0.3769  0.3877
  315MOL0     H42481   8.053   5.192   5.740 -0.8658 -0.1352  1.0144
  315MOL0     H42482   7.970   5.225   5.894 -0.8454  2.2609 -0.1591
  315MOL0     H42483   8.254   5.240   5.815 -1.1014 -2.1102 -1.7454
  315MOL0     H42484   8.173   5.144   5.943 -1.9309 -0.4146 -1.0660
  315MOL0     H42485   8.424   5.202   5.999 -1.4979 -1.8709  2.8881
  315MOL0     H42486   8.630   5.276   6.113  0.4425  0.0438 -0.0936
  315MOL0     H42487   8.992   5.342   6.129  1.8522 -0.8690  0.3728
  315MOL0     H42488   9.213   5.373   6.185  1.7394 -0.7677  1.4359
  315MOL0     H42489   9.332   5.353   6.424  0.6996 -0.0638  2.5365
  315MOL0     H42490   9.427   5.444   6.295 -0.3167 -1.2611 -0.1239
  315MOL0     H42491   9.538   5.581   6.465 -0.0220  0.0776  0.9613
  315MOL0     H42492   9.464   5.478   6.593  0.5366 -1.7001 -0.7547
  315MOL0     H42493   9.566   5.292   6.537  0.1417 -1.1552 -1.4665
  315MOL0     H42494   9.643   5.352   6.391  2.7797  0.1625  0.2008
  315MOL0     H42495   9.721   5.443   6.680  2.4651 -2.3709  0.9786
  315MOL0     H42496   9.797   5.481   6.523  0.8417  1.0044  3.1218
  315MOL0     H42497   9.855   5.239   6.510  3.8363 -0.1247  1.2718
  315MOL0     H42498   9.766   5.214   6.664 -1.5544  2.5752  1.2288
  315MOL0     H42499   9.965   5.432   6.698 -0.4888  0.4145 -1.5280
  315MOL0     H42500   9.980   5.269   6.760 -0.0178  2.7570  1.4651
  315MOL0     H42501  10.165   5.345   6.622 -0.6602  0.9789  0.4117
  315MOL0     H42502  10.072   5.329   6.477  2.1704 -0.2352 -0.0168
  315MOL0     H42503  10.023   5.085   6.555  1.7553 -1.5096  1.2601
  315MOL0     H42504  10.182   5.129   6.493  0.7845 -0.6528 -0.0227
  315MOL0     H42505   9.078   5.650   6.496  3.3631 -2.3587  1.7690
  315MOL0     H42506   8.860   5.594   6.450 -0.4201 -0.4361  0.1297
  315MOL0     H42507   8.436   5.608   6.269 -0.6784 -1.8849  2.8210
  315MOL0     H42508   8.217   5.537   6.169 -0.1582 -1.1446 -0.9015
  315MOL0     H42509   6.549   5.086   6.197 -0.1079  0.2684 -1.2068
  315MOL0     H42510   6.338   4.971   6.223 -1.2628  1.0378 -0.8719
  315MOL0     H42511   5.933   4.915   6.564  1.6981 -0.9780 -1.6594
  315MOL0     H42512   5.677   4.866   6.603 -1.1751  1.5002  1.5539
  315MOL0     H42513   5.294   4.981   6.468  1.8133 -1.8175  1.2086
  315MOL0     H42514   5.380   5.028   6.325 -0.8049  1.5725  0.0629
  315MOL0     H42515   5.441   5.235   6.423 -2.8812  0.4350 -2.5816
  315MOL0     H42516   5.412   5.182   6.591  3.1605  0.0350 -0.8353
  315MOL0     H42517   5.235   5.328   6.533 -1.8251  0.5113 -0.1071
  315MOL0     H42518   5.175   5.152   6.542 -0.5729  1.3493  2.9534
  315MOL0     H42519   5.139   5.134   6.318 -1.6758 -0.1096  3.0793
  315MOL0     H42520   5.068   5.283   6.344  0.7421  0.2466  0.9826
  315MOL0     H42521   5.357   5.389   6.057  0.0392 -1.6142 -1.0963
  315MOL0     H42522   5.585   5.112   6.284 -1.4805  3.1466  3.6795
  315MOL0     H42523   5.880   5.281   6.215  0.9712 -0.2603 -0.4293
  315MOL0     H42524   5.842   5.147   6.099  0.5660  0.1983 -1.1387
  315MOL0     H42525   5.721   5.239   6.170 -1.6873 -3.4740  1.5260
  316MOL0     O42526  10.395   5.655   7.680  0.3780 -0.2415 -0.1564
  316MOL0     C42527  10.337   5.591   7.589 -0.2358  0.0754 -0.3936
  316MOL0     O42528  10.387   5.589   7.458 -0.4198 -0.4840  0.3904
  316MOL0     C42529  10.502   5.655   7.430  1.3685  0.0625  0.4955
  316MOL0     C42530  10.535   5.785   7.485 -0.5272  0.5499  0.6067
  316MOL0     C42531  10.652   5.842   7.445 -0.7966 -0.7789 -0.3078
  316MOL0     C42532  10.748   5.772   7.360 -0.7914  0.6250  1.3077
  316MOL0     O42533  10.866   5.829   7.324  0.3162  0.3323  0.1945
  316MOL0     C42534  10.891   5.823   7.182  0.6379  0.0926  0.3394
  316MOL0     C42535  11.009   5.918   7.161  0.9941 -0.2613  0.1792
  316MOL0     C42536  11.136   5.879   7.243  0.9622 -0.4482  0.1969
  316MOL0     C42537  11.253   5.963   7.200 -0.3558  0.3136  0.1368
  316MOL0     C42538  11.370   5.937   7.297  0.8377  0.0294 -0.2549
  316MOL0     C42539  11.485   6.030   7.267 -0.6881  0.1082 -0.1049
  316MOL0     C42540  11.607   5.993   7.354  0.0809  0.4296  0.1086
  316MOL0     C42541  11.746   6.065   7.318 -0.3979 -1.2062 -0.1217
  316MOL0     N42542  11.844   6.019   7.414  0.0383  1.2880 -0.4379
  316MOL0     C42543  11.912   5.904   7.405 -0.6504  0.0100 -0.9180
  316MOL0     C42544  11.976   5.892   7.515 -0.1340  0.5616 -0.0393
  316MOL0     C42545  12.055   5.767   7.548 -0.6240 -0.4896 -0.4778
  316MOL0     C42546  12.202   5.812   7.600 -0.3037 -0.1840 -0.1016
  316MOL0     C42547  12.279   5.690   7.646  0.5597  0.4405 -0.2567
  316MOL0     C42548  12.421   5.734   7.704  0.4241 -0.3920 -0.0883
  316MOL0     O42549  12.393   5.749   7.848 -0.2544 -0.4023  0.7226
  316MOL0     C42550  12.505   5.757   7.934 -0.6320  0.6619  0.4719
  316MOL0     C42551  12.639   5.728   7.898  0.8787  0.1053 -0.7111
  316MOL0     C42552  12.743   5.732   7.997  0.7267  0.2896  0.4858
  316MOL0     C42553  12.720   5.773   8.126 -0.1405  0.8468 -0.3955
  316MOL0     C42554  12.829   5.797   8.227  0.2565 -0.3576  0.2100
  316MOL0     O42555  12.952   5.771   8.181 -0.0317 -0.3676 -0.7164
  316MOL0     C42556  13.065   5.799   8.259  0.0939 -0.4003 -0.1316
  316MOL0     C42557  13.187   5.752   8.211 -0.4994  0.1724  0.5504
  316MOL0     C42558  13.301   5.770   8.290  0.6049  1.4303 -0.3050
  316MOL0     C42559  13.299   5.842   8.411  0.8422 -0.4356  0.5172
  316MOL0     O42560  13.421   5.851   8.473  0.1158  0.1603 -0.3533
  316MOL0     C42561  13.437   5.901   8.608 -0.2502  0.1235 -0.2720
  316MOL0     C42562  13.587   5.886   8.644 -0.1105 -0.0006  0.0760
  316MOL0     C42563  13.630   5.906   8.781 -0.4466  0.7819  0.4934
  316MOL0     C42564  13.768   5.845   8.822 -0.1849 -0.5149  0.0916
  316MOL0     C42565  13.814   5.915   8.957 -0.0265  0.1328 -0.1791
  316MOL0     C42566  13.959   5.861   9.004 -0.5170 -0.2247  0.1345
  316MOL0     C42567  14.000   5.933   9.124 -0.5012  0.2543 -0.0518
  316MOL0     C42568  14.120   5.863   9.186 -0.4236  0.2239 -0.3652
  316MOL0    Cl42569  14.088   5.715   9.273  0.2828 -0.1702  0.0117
  316MOL0     C42570  13.186   5.897   8.460 -0.7928 -0.2007 -0.1888
  316MOL0     C42571  13.070   5.867   8.382  0.0892 -1.0244 -0.1492
  316MOL0     O42572  12.802   5.837   8.336 -0.1899 -0.9100 -0.9824
  316MOL0     C42573  12.588   5.790   8.166  0.2783  0.2341  0.0120
  316MOL0     C42574  12.484   5.776   8.070 -0.0655 -0.2747 -0.0714
  316MOL0     N42575  11.949   6.003   7.596  0.3957  0.0705 -0.1222
  316MOL0     N42576  11.849   6.069   7.537 -0.3650  0.2725  0.9251
  316MOL0     C42577  10.710   5.644   7.315 -0.2724  0.2323  0.4775
  316MOL0     C42578  10.590   5.585   7.350  0.3402 -0.3749 -0.2822
  316MOL0     C42579  10.204   5.526   7.615 -0.0587  0.1721  0.1566
  316MOL0     C42580  10.157   5.437   7.524 -0.3023 -0.2981  0.8190
  316MOL0     C42581  10.032   5.376   7.535 -0.0570 -0.2149  0.2908
  316MOL0     C42582   9.942   5.392   7.645  0.0198 -0.8524 -1.0403
  316MOL0     O42583   9.828   5.318   7.673  0.7643 -0.5081  0.4125
  316MOL0     C42584   9.780   5.224   7.570 -0.2167 -0.2369 -0.0169
  316MOL0     C42585   9.699   5.299   7.467  0.6384 -0.3130 -0.3084
  316MOL0     C42586   9.638   5.201   7.374 -0.2986  0.2162  0.1659
  316MOL0     C42587   9.484   5.196   7.363  0.7256 -0.2385  0.0985
  316MOL0     C42588   9.430   5.074   7.294 -0.6116 -0.1149 -0.2473
  316MOL0     C42589   9.366   4.990   7.232 -0.3397  0.4634  0.3206
  316MOL0     C42590   9.980   5.503   7.727  0.0082 -1.2714  0.3568
  316MOL0     C42591  10.108   5.555   7.718 -0.8710 -0.1259 -0.6757
  316MOL0     C42592  10.140   5.663   7.815 -0.2944  1.0040 -0.2946
  316MOL0     H42593  10.456   5.843   7.531 -0.1089 -0.0482  2.1415
  316MOL0     H42594  10.671   5.942   7.484 -2.0106 -0.1344 -1.2734
  316MOL0     H42595  10.928   5.723   7.157 -1.4462 -0.7170  0.2993
  316MOL0     H42596  10.814   5.845   7.108  3.4316  0.0352 -2.8441
  316MOL0     H42597  10.983   6.023   7.173 -3.9899 -0.9651 -1.8700
  316MOL0     H42598  11.047   5.903   7.059  0.9173  1.6251 -0.1570
  316MOL0     H42599  11.169   5.776   7.224 -0.9726 -0.5732 -3.3112
  316MOL0     H42600  11.110   5.891   7.348  0.0546 -0.9298  0.0380
  316MOL0     H42601  11.279   5.936   7.097 -1.3494  0.0784 -0.0688
  316MOL0     H42602  11.222   6.068   7.197  1.3064  0.8083 -0.8646
  316MOL0     H42603  11.336   5.957   7.399 -0.0620  0.7934 -0.6904
  316MOL0     H42604  11.398   5.831   7.302 -0.5187 -0.4138 -1.3858
  316MOL0     H42605  11.516   6.023   7.162  1.0072 -0.0217  0.3695
  316MOL0     H42606  11.462   6.132   7.300  1.1720  1.1298 -1.6797
  316MOL0     H42607  11.622   5.885   7.354 -1.9701  0.0946  0.3976
  316MOL0     H42608  11.581   6.023   7.456 -1.5496  1.0070 -0.4367
  316MOL0     H42609  11.777   6.042   7.216  1.0416  0.5971 -0.1349
  316MOL0     H42610  11.732   6.174   7.324  1.0406 -1.0096 -0.0706
  316MOL0     H42611  11.914   5.833   7.323 -0.8469 -0.8578 -0.1864
  316MOL0     H42612  11.995   5.710   7.619 -1.0774  2.1383  1.3701
  316MOL0     H42613  12.070   5.703   7.460 -0.1609 -2.5989  1.0605
  316MOL0     H42614  12.254   5.853   7.514 -0.6659 -0.8512 -0.6509
  316MOL0     H42615  12.202   5.890   7.676 -1.2496  1.8775 -2.1063
  316MOL0     H42616  12.283   5.624   7.560  1.3832 -0.6353  0.5680
  316MOL0     H42617  12.229   5.634   7.726  0.4556  1.2859  0.2892
  316MOL0     H42618  12.454   5.834   7.676  1.5968 -1.2210 -1.8864
  316MOL0     H42619  12.484   5.647   7.682  1.0621  0.0970 -0.2139
  316MOL0     H42620  12.649   5.703   7.793  1.6750  1.3940 -0.9719
  316MOL0     H42621  12.843   5.699   7.974  0.7445  0.3046  0.5416
  316MOL0     H42622  13.183   5.704   8.113 -0.4238 -2.3548  1.7085
  316MOL0     H42623  13.392   5.720   8.261  1.1643  0.4657  2.7772
  316MOL0     H42624  13.406   6.006   8.614  1.2079  0.4772  2.1849
  316MOL0     H42625  13.378   5.838   8.675  0.9640 -0.8926 -0.1085
  316MOL0     H42626  13.626   5.785   8.629  0.6806  0.6661 -3.1231
  316MOL0     H42627  13.636   5.967   8.588 -0.7287  1.0059  0.9434
  316MOL0     H42628  13.621   6.011   8.810 -0.6935  0.4840  1.5275
  316MOL0     H42629  13.556   5.857   8.845 -0.7263 -0.9645 -1.0910
  316MOL0     H42630  13.848   5.857   8.748 -2.8415 -0.1234 -2.8987
  316MOL0     H42631  13.750   5.738   8.837  1.0023 -0.5057  1.9300
  316MOL0     H42632  13.744   5.899   9.040  2.0881 -0.2998  1.6245
  316MOL0     H42633  13.820   6.023   8.944  1.5810  0.4060  2.1989
  316MOL0     H42634  13.955   5.754   9.024 -3.7124 -0.1443  0.4281
  316MOL0     H42635  14.025   5.883   8.919 -1.1533 -0.6050 -0.4760
  316MOL0     H42636  13.921   5.948   9.198 -2.7961 -0.1951 -2.2863
  316MOL0     H42637  14.010   6.038   9.096 -2.4678  0.9373  1.5437
  316MOL0     H42638  14.197   5.850   9.110  0.7728  3.9866  0.0009
  316MOL0     H42639  14.162   5.941   9.251  0.5475 -0.6118  0.0385
  316MOL0     H42640  13.180   5.950   8.554  0.7744  0.4152 -0.4041
  316MOL0     H42641  12.987   5.921   8.427  1.2720  0.7084  0.0705
  316MOL0     H42642  12.562   5.817   8.268  0.6790 -1.4903  0.6169
  316MOL0     H42643  12.380   5.782   8.100 -0.0416  2.4063 -0.2259
  316MOL0     H42644  10.774   5.575   7.261 -2.4815 -0.7567 -1.0384
  316MOL0     H42645  10.568   5.485   7.316  0.2547 -1.0138  1.5403
  316MOL0     H42646  10.208   5.415   7.430 -2.0176 -0.8590 -0.0167
  316MOL0     H42647  10.005   5.307   7.455 -0.0787  1.0289 -0.8034
  316MOL0     H42648   9.708   5.156   7.617 -0.2588  0.0423  0.3294
  316MOL0     H42649   9.864   5.171   7.525  0.3274 -0.3474  1.0994
  316MOL0     H42650   9.761   5.365   7.405 -0.4681  1.2121  0.1274
  316MOL0     H42651   9.622   5.363   7.511  1.6302  1.0804 -0.5281
  316MOL0     H42652   9.660   5.096   7.397 -1.4725 -0.0911 -0.0628
  316MOL0     H42653   9.672   5.219   7.272  0.3899  4.9626  1.0162
  316MOL0     H42654   9.430   5.193   7.458 -2.9028 -0.3980 -1.7953
  316MOL0     H42655   9.457   5.283   7.302  1.1148 -0.6676 -0.6825
  316MOL0     H42656   9.310   4.913   7.183 -2.8081  2.7931 -0.7708
  316MOL0     H42657   9.924   5.523   7.818  0.5187 -2.0840  0.8689
  316MOL0     H42658  10.238   5.636   7.854  0.7909 -2.2283 -4.4794
  316MOL0     H42659  10.135   5.758   7.761 -0.4449  0.7728 -0.6879
  316MOL0     H42660  10.063   5.658   7.892 -3.9791  0.3283 -3.6533
  317MOL0     O42661   7.672   6.351   7.193  0.1108  0.0593 -0.7364
  317MOL0     C42662   7.695   6.231   7.178 -0.5212  0.1494 -0.5711
  317MOL0     O42663   7.806   6.172   7.127  0.1153  0.5730 -0.1399
  317MOL0     C42664   7.932   6.210   7.147 -0.3885  0.3290  0.4611
  317MOL0     C42665   7.984   6.323   7.207 -0.2330  0.0227  1.3903
  317MOL0     C42666   8.120   6.338   7.227 -0.5597 -1.1847 -0.0933
  317MOL0     C42667   8.207   6.246   7.181 -0.0562 -0.1998  0.9936
  317MOL0     O42668   8.335   6.278   7.197 -0.5031  0.2258 -0.1898
  317MOL0     C42669   8.439   6.206   7.118 -0.2830 -0.1058 -0.0304
  317MOL0     C42670   8.573   6.275   7.142 -0.5370 -0.0684 -0.3418
  317MOL0     C42671   8.678   6.184   7.101 -1.7320 -0.3163  0.8495
  317MOL0     C42672   8.814   6.254   7.106 -0.2468 -0.0554 -0.7085
  317MOL0     C42673   8.931   6.169   7.074  0.0376 -0.7265 -0.2393
  317MOL0     C42674   9.063   6.262   7.071 -0.1156 -0.0925  0.4423
  317MOL0     C42675   9.172   6.220   6.971 -0.0740 -0.4423  0.2982
  317MOL0     C42676   9.301   6.316   6.978  0.7235 -0.0689 -0.2281
  317MOL0     N42677   9.387   6.307   6.858 -0.0994  0.3243 -0.2627
  317MOL0     C42678   9.436   6.415   6.776  0.9615  0.1258 -0.2508
  317MOL0     C42679   9.507   6.357   6.678  0.0397 -0.0171  0.9778
  317MOL0     C42680   9.593   6.425   6.569  0.3798 -0.4271  0.9319
  317MOL0     C42681   9.737   6.438   6.613  0.4812 -0.7930 -0.4022
  317MOL0     C42682   9.766   6.501   6.745 -0.1272 -0.0646  0.9528
  317MOL0     C42683   9.907   6.544   6.755  0.5833  0.4392  0.3215
  317MOL0     O42684   9.921   6.652   6.658  0.3721  0.2761 -0.4372
  317MOL0     C42685  10.045   6.683   6.615  0.4177 -0.7309  0.3768
  317MOL0     C42686  10.061   6.814   6.576 -0.7701 -0.0293  0.4394
  317MOL0     C42687  10.187   6.856   6.525 -0.1188 -0.5140  0.6736
  317MOL0     C42688  10.300   6.770   6.528 -0.5420  0.1276  0.5109
  317MOL0     C42689  10.438   6.814   6.498 -0.1051 -0.5981  0.9983
  317MOL0     O42690  10.540   6.722   6.483  0.2909  0.5431  0.1232
  317MOL0     C42691  10.662   6.764   6.432  0.9168 -0.0697  0.0328
  317MOL0     C42692  10.775   6.795   6.522  0.1269 -0.3183  0.2609
  317MOL0     C42693  10.895   6.843   6.467 -0.0303  0.6066 -0.1291
  317MOL0     C42694  10.906   6.866   6.325  1.4185 -0.0994 -0.8038
  317MOL0     O42695  11.028   6.918   6.288 -0.2408  0.7751 -0.0678
  317MOL0     C42696  11.034   6.987   6.165 -0.0057 -0.5383 -0.0062
  317MOL0     C42697  11.171   7.042   6.155  0.1088  0.2905 -0.0613
  317MOL0     C42698  11.277   6.941   6.101  0.0878 -0.9244  0.3286
  317MOL0     C42699  11.417   7.014   6.090  0.8309  0.7203  0.3268
  317MOL0     C42700  11.521   6.929   6.023  0.7922 -0.0959  0.2416
  317MOL0     C42701  11.644   7.022   6.022 -1.0836  0.7899 -0.1501
  317MOL0     C42702  11.750   6.954   5.930  0.0684 -0.1956 -0.5902
  317MOL0     C42703  11.877   7.032   5.924 -0.4562 -0.6188  0.1630
  317MOL0    Cl42704  11.995   6.966   5.811  0.1356 -0.2984 -0.1703
  317MOL0     C42705  10.789   6.862   6.249 -0.4275  0.1056 -0.7448
  317MOL0     C42706  10.664   6.810   6.298  0.0534  0.3469  0.3332
  317MOL0     O42707  10.451   6.935   6.472  0.2791 -0.1609  0.4967
  317MOL0     C42708  10.280   6.638   6.566  0.3636 -0.3901 -0.4930
  317MOL0     C42709  10.152   6.593   6.612 -0.1351  0.0162  0.0622
  317MOL0     N42710   9.504   6.220   6.701 -1.2351  0.2559 -0.8412
  317MOL0     N42711   9.428   6.189   6.798  0.4592 -0.0545 -0.5234
  317MOL0     C42712   8.158   6.126   7.121  0.0238  0.1780 -0.2606
  317MOL0     C42713   8.020   6.107   7.103  0.3945 -0.8572 -0.5575
  317MOL0     C42714   7.575   6.142   7.188  0.1720 -0.7461 -0.0357
  317MOL0     C42715   7.447   6.191   7.157 -0.5491  0.8637  0.2132
  317MOL0     C42716   7.337   6.107   7.139 -0.3295  0.1687 -0.3757
  317MOL0     C42717   7.354   5.965   7.150  0.1644  0.2002  0.0649
  317MOL0     O42718   7.263   5.867   7.116  0.1128 -0.5517  0.5109
  317MOL0     C42719   7.145   5.906   7.034 -0.4231 -0.2825 -0.8712
  317MOL0     C42720   7.081   5.786   6.960 -0.8916  0.6728  0.0188
  317MOL0     C42721   7.174   5.719   6.854  0.0802 -0.0347 -0.3263
  317MOL0     C42722   7.130   5.575   6.817 -0.3941  0.0803 -0.0375
  317MOL0     C42723   7.224   5.534   6.710  0.0509  0.3729  0.0311
  317MOL0     C42724   7.300   5.502   6.628  0.2695 -0.2466 -0.1251
  317MOL0     C42725   7.477   5.920   7.197  0.8879 -0.1350  0.1098
  317MOL0     C42726   7.591   6.007   7.216  0.1716 -0.1170  0.2775
  317MOL0     C42727   7.714   5.937   7.267  0.2405 -0.8048 -0.1559
  317MOL0     H42728   7.902   6.389   7.236 -4.8540 -3.8038 -1.5506
  317MOL0     H42729   8.156   6.423   7.284 -0.7453 -0.9521 -0.3214
  317MOL0     H42730   8.447   6.102   7.152 -2.7469 -0.8439 -1.5281
  317MOL0     H42731   8.426   6.204   7.010  0.9588  1.1991 -0.2432
  317MOL0     H42732   8.591   6.298   7.247  3.3070  2.1286 -1.3061
  317MOL0     H42733   8.573   6.372   7.091  0.2593 -0.4847 -1.1531
  317MOL0     H42734   8.659   6.139   7.003 -2.9603  0.2534  0.8156
  317MOL0     H42735   8.686   6.097   7.168 -1.5744 -1.0997 -0.1501
  317MOL0     H42736   8.821   6.347   7.048  1.2615 -0.2973 -0.9538
  317MOL0     H42737   8.817   6.291   7.208 -1.7863 -0.1532 -0.6025
  317MOL0     H42738   8.944   6.087   7.144 -2.9142 -1.1941 -0.1181
  317MOL0     H42739   8.911   6.119   6.979  1.6825 -0.2907 -0.8424
  317MOL0     H42740   9.046   6.368   7.054 -0.5919 -0.2986 -0.4078
  317MOL0     H42741   9.106   6.248   7.171 -1.3774  0.5518  1.0978
  317MOL0     H42742   9.128   6.229   6.872  0.5484  0.2032  0.0688
  317MOL0     H42743   9.215   6.122   6.995  1.1246  0.6752  3.1412
  317MOL0     H42744   9.258   6.415   6.995 -1.6251 -0.8831 -1.0171
  317MOL0     H42745   9.360   6.301   7.068  0.5621 -0.1286 -0.1304
  317MOL0     H42746   9.419   6.520   6.794 -0.1377 -0.0439 -0.2201
  317MOL0     H42747   9.585   6.366   6.477 -0.2963  0.0674  0.6584
  317MOL0     H42748   9.549   6.524   6.548 -0.1421  0.2596  4.5808
  317MOL0     H42749   9.787   6.340   6.611  1.3326 -0.3809 -0.0087
  317MOL0     H42750   9.781   6.504   6.537  0.4797 -0.1199  0.1670
  317MOL0     H42751   9.761   6.422   6.820  3.5143 -0.0829  1.3819
  317MOL0     H42752   9.701   6.586   6.768 -0.7342  0.2441 -1.5653
  317MOL0     H42753   9.965   6.452   6.738  0.0896  0.3040 -0.6931
  317MOL0     H42754   9.928   6.592   6.851 -1.3765 -0.9913  1.5392
  317MOL0     H42755   9.978   6.885   6.574 -0.9681 -0.2449  0.9104
  317MOL0     H42756  10.196   6.950   6.471 -0.3048 -0.3814  0.8731
  317MOL0     H42757  10.755   6.775   6.626 -0.5222 -1.1300 -0.0117
  317MOL0     H42758  10.981   6.862   6.531 -1.2841  2.2913  1.1404
  317MOL0     H42759  11.002   6.916   6.088 -3.4710 -0.6165  1.3636
  317MOL0     H42760  10.963   7.069   6.167  0.2334 -0.3416  0.6614
  317MOL0     H42761  11.170   7.132   6.092 -1.3386  1.5568  1.6352
  317MOL0     H42762  11.192   7.060   6.261 -0.9914 -1.4178  0.4856
  317MOL0     H42763  11.278   6.858   6.172  2.9423 -2.5817 -1.4447
  317MOL0     H42764  11.245   6.910   6.001 -3.2992  0.1398  0.9327
  317MOL0     H42765  11.447   7.018   6.196 -0.6375  0.7627  0.7567
  317MOL0     H42766  11.398   7.116   6.055 -2.4083 -0.0926 -0.5339
  317MOL0     H42767  11.489   6.895   5.924  1.1778  0.5790 -0.1226
  317MOL0     H42768  11.537   6.839   6.084  0.5424 -0.0599  0.3607
  317MOL0     H42769  11.605   7.114   5.977 -3.2346  0.0217  0.0596
  317MOL0     H42770  11.689   7.035   6.121 -1.2638 -0.7731  0.1617
  317MOL0     H42771  11.712   6.941   5.828  0.9732 -0.7232 -0.8752
  317MOL0     H42772  11.776   6.854   5.967  0.7125  0.5318  1.0171
  317MOL0     H42773  11.862   7.132   5.883  1.4750  0.3026  1.5393
  317MOL0     H42774  11.936   7.030   6.017  1.0401  0.7608 -0.7070
  317MOL0     H42775  10.778   6.897   6.147 -2.1059 -2.3349 -1.5009
  317MOL0     H42776  10.577   6.797   6.234  1.1539 -2.2447 -0.7810
  317MOL0     H42777  10.365   6.571   6.573 -0.6227 -1.5689  0.6935
  317MOL0     H42778  10.147   6.488   6.638  2.5289 -0.5280 -1.3081
  317MOL0     H42779   8.228   6.054   7.079 -0.3729 -0.4583  0.1505
  317MOL0     H42780   7.980   6.013   7.064  0.9486 -1.9123  1.2770
  317MOL0     H42781   7.444   6.298   7.137  1.4676  1.5118  2.7382
  317MOL0     H42782   7.239   6.130   7.099 -3.5117 -1.6542  5.3315
  317MOL0     H42783   7.172   5.981   6.959 -1.1854 -0.1084 -0.9736
  317MOL0     H42784   7.067   5.951   7.096 -0.5379 -1.9425  0.2507
  317MOL0     H42785   6.997   5.818   6.897 -0.2626 -1.5993 -2.1491
  317MOL0     H42786   7.052   5.706   7.029 -0.9955  0.3243 -0.4171
  317MOL0     H42787   7.275   5.699   6.889 -0.9620 -2.2280  1.6569
  317MOL0     H42788   7.171   5.787   6.768 -1.6057 -0.5724 -0.7365
  317MOL0     H42789   7.131   5.509   6.904 -0.5488 -0.8688 -0.7436
  317MOL0     H42790   7.027   5.567   6.781  0.5001 -1.8319 -2.3662
  317MOL0     H42791   7.351   5.470   6.539  1.4367 -5.4353  2.0806
  317MOL0     H42792   7.474   5.814   7.220 -2.5339 -0.0873  0.4050
  317MOL0     H42793   7.692   5.836   7.301 -0.4711  0.2440  2.7814
  317MOL0     H42794   7.787   5.940   7.185 -1.0963  0.2926 -1.3486
  317MOL0     H42795   7.762   6.001   7.342  2.8327  0.8140 -2.9808
  318MOL0     O42796   1.903   0.446   7.310  0.2824 -0.0380 -0.2999
  318MOL0     C42797   1.868   0.334   7.278 -0.5329  0.2216  0.0731
  318MOL0     O42798   1.947   0.230   7.279  0.6232 -0.2775  0.0873
  318MOL0     C42799   2.080   0.238   7.281 -0.5021  0.7209 -0.6946
  318MOL0     C42800   2.149   0.113   7.288 -0.3520 -0.0277 -0.2140
  318MOL0     C42801   2.283   0.097   7.291  0.5945  0.7669  0.6941
  318MOL0     C42802   2.364   0.209   7.303  0.4237 -0.7215 -0.0122
  318MOL0     O42803   2.496   0.181   7.302 -0.2524 -0.6534 -0.4901
  318MOL0     C42804   2.591   0.268   7.377  0.0696 -0.2604 -0.4476
  318MOL0     C42805   2.727   0.204   7.400  0.2621  0.6223  0.2071
  318MOL0     C42806   2.793   0.139   7.274 -0.2676  0.6815  0.2165
  318MOL0     C42807   2.945   0.140   7.276  0.3636 -0.8706  0.0038
  318MOL0     C42808   2.994   0.043   7.160 -0.0717  0.0202  0.4584
  318MOL0     C42809   3.140   0.065   7.123 -0.0295 -0.2167 -0.0288
  318MOL0     C42810   3.196  -0.019   7.014 -0.5703  0.4932  0.7213
  318MOL0     C42811   3.335   0.023   6.948  0.6209 -0.8533 -0.2592
  318MOL0     N42812   3.450  -0.031   7.015 -0.1800 -0.4319  0.3729
  318MOL0     C42813   3.544   0.046   7.082  0.1221  0.5440 -0.2242
  318MOL0     C42814   3.639  -0.039   7.131 -0.1205  0.4119 -0.2848
  318MOL0     C42815   3.754  -0.004   7.217  0.0059 -0.3757  0.9124
  318MOL0     C42816   3.813   0.136   7.195  0.3834  0.4472 -0.0314
  318MOL0     C42817   3.856   0.162   7.049  0.5366 -0.4277 -0.6802
  318MOL0     C42818   3.937   0.292   7.036  0.4513  0.0804  0.2515
  318MOL0     O42819   4.055   0.266   7.106  0.4317 -0.4599  0.2631
  318MOL0     C42820   4.155   0.363   7.078  0.6045  1.2408  0.5437
  318MOL0     C42821   4.279   0.321   7.124  0.3625 -0.0082  0.8596
  318MOL0     C42822   4.402   0.389   7.099  0.4379  0.8848 -0.5928
  318MOL0     C42823   4.400   0.500   7.017  0.6163  0.2324  0.2378
  318MOL0     C42824   4.526   0.567   6.985  0.3854 -0.0990  0.3968
  318MOL0     O42825   4.635   0.520   7.041  0.0726 -0.2686  0.4250
  318MOL0     C42826   4.760   0.559   7.004 -0.3471  0.3253  0.2040
  318MOL0     C42827   4.854   0.460   6.969  0.3751  0.0494  0.4741
  318MOL0     C42828   4.992   0.493   6.932  0.0788 -0.5712 -0.5736
  318MOL0     C42829   5.033   0.629   6.939  0.4080 -0.0683 -0.9346
  318MOL0     O42830   5.157   0.684   6.919  0.0541 -0.3518 -0.0923
  318MOL0     C42831   5.262   0.599   6.880  0.3546 -0.1582 -0.1854
  318MOL0     C42832   5.393   0.664   6.921  1.1830  0.6249  0.0653
  318MOL0     C42833   5.518   0.568   6.883 -0.3532 -0.1155 -0.1681
  318MOL0     C42834   5.635   0.653   6.820  0.4126 -1.3829 -0.7327
  318MOL0     C42835   5.756   0.565   6.786 -0.4714  0.3757 -0.4823
  318MOL0     C42836   5.746   0.481   6.657  0.0417  0.4172 -0.4511
  318MOL0     C42837   5.893   0.439   6.614 -0.1607 -1.2326 -0.4002
  318MOL0     C42838   5.902   0.348   6.491  0.4453  0.0120 -0.7648
  318MOL0    Cl42839   5.830   0.188   6.548 -0.1629  0.3368  0.7698
  318MOL0     C42840   4.939   0.721   6.982  0.9843 -0.1307 -0.3306
  318MOL0     C42841   4.806   0.688   7.019 -0.5719  0.0255  1.1774
  318MOL0     O42842   4.529   0.668   6.915  0.6245 -0.4456 -0.3553
  318MOL0     C42843   4.278   0.552   6.968  0.6494  0.4090 -0.8608
  318MOL0     C42844   4.159   0.479   6.997 -0.1357 -0.8278  0.2733
  318MOL0     N42845   3.596  -0.169   7.097  1.0820 -0.6842 -0.4047
  318MOL0     N42846   3.489  -0.158   7.025  0.4363  0.3630  0.0961
  318MOL0     C42847   2.311   0.337   7.307  0.0151  0.0221  0.1255
  318MOL0     C42848   2.170   0.352   7.289 -0.1501  0.5992 -0.2164
  318MOL0     C42849   1.727   0.316   7.239 -0.3935 -0.9123  0.2572
  318MOL0     C42850   1.643   0.435   7.228 -0.0427 -0.0977 -0.6019
  318MOL0     C42851   1.506   0.432   7.185  0.0908  0.2415  0.5614
  318MOL0     C42852   1.453   0.307   7.146  0.3168 -0.8380 -0.8383
  318MOL0     O42853   1.329   0.288   7.103 -0.7540  0.0872 -0.6375
  318MOL0     C42854   1.317   0.289   6.959 -0.4324 -0.5740 -0.1533
  318MOL0     C42855   1.257   0.146   6.920 -0.5168  0.3852  0.3068
  318MOL0     C42856   1.209   0.144   6.770  0.4329 -1.0421 -0.4831
  318MOL0     C42857   1.151   0.006   6.728 -0.2675  0.7433  0.1328
  318MOL0     C42858   1.172  -0.023   6.585 -0.6739 -0.0235 -0.5846
  318MOL0     C42859   1.198  -0.065   6.477 -0.2154 -0.1547  0.6125
  318MOL0     C42860   1.532   0.185   7.156  0.3181 -0.2944 -0.7589
  318MOL0     C42861   1.660   0.192   7.212  0.1059  0.2733 -0.6266
  318MOL0     C42862   1.722   0.058   7.244 -0.4927  0.6002 -0.5692
  318MOL0     H42863   2.089   0.025   7.306  0.0743  0.0961  2.2214
  318MOL0     H42864   2.324  -0.003   7.289  0.8515  0.8073  2.7911
  318MOL0     H42865   2.612   0.363   7.327  0.6343 -0.7802 -1.2179
  318MOL0     H42866   2.557   0.280   7.480  1.2356  0.9244 -0.1784
  318MOL0     H42867   2.710   0.123   7.471  0.0490 -1.5597 -2.1644
  318MOL0     H42868   2.790   0.287   7.434 -0.2970  0.7164  1.0376
  318MOL0     H42869   2.769   0.202   7.188 -2.4119  2.7056  2.1484
  318MOL0     H42870   2.751   0.040   7.250 -1.4224  1.4185 -0.9141
  318MOL0     H42871   2.985   0.235   7.241  0.1139 -1.4645 -2.0182
  318MOL0     H42872   2.976   0.108   7.376 -0.9355 -0.0139  0.7089
  318MOL0     H42873   2.991  -0.061   7.195 -1.8342 -0.5340 -1.1573
  318MOL0     H42874   2.925   0.050   7.075  0.6576  3.4292  0.0445
  318MOL0     H42875   3.161   0.169   7.093 -3.2193  0.5557  0.0617
  318MOL0     H42876   3.196   0.046   7.215  0.4026 -0.8707 -0.4226
  318MOL0     H42877   3.127  -0.030   6.929  3.1447 -1.9335 -2.3569
  318MOL0     H42878   3.195  -0.123   7.048  0.4517 -0.8109 -2.7087
  318MOL0     H42879   3.329  -0.022   6.849  0.0507 -1.9891  0.2643
  318MOL0     H42880   3.333   0.131   6.931 -1.8077 -0.5276  1.5790
  318MOL0     H42881   3.541   0.155   7.084  4.6520  0.9250 -1.9745
  318MOL0     H42882   3.734  -0.031   7.322 -0.5703  1.0487  1.1875
  318MOL0     H42883   3.838  -0.072   7.197  0.2428 -0.2600  1.4683
  318MOL0     H42884   3.729   0.202   7.217 -1.9994 -3.0610  2.4972
  318MOL0     H42885   3.893   0.144   7.269  3.0011 -0.7532 -2.5298
  318MOL0     H42886   3.761   0.184   6.998 -0.3067 -0.5943  0.7781
  318MOL0     H42887   3.899   0.080   6.990 -0.2428  0.5966 -2.7929
  318MOL0     H42888   3.871   0.373   7.069  1.8876  0.5300  2.2146
  318MOL0     H42889   3.961   0.302   6.930  1.8070 -2.7280  0.2033
  318MOL0     H42890   4.297   0.233   7.184  0.0865 -0.5616  0.1324
  318MOL0     H42891   4.500   0.348   7.121 -0.7663 -1.8997  0.0168
  318MOL0     H42892   4.818   0.360   6.947  1.3776 -0.2918  0.2904
  318MOL0     H42893   5.063   0.411   6.919 -1.1660 -1.5829 -1.1993
  318MOL0     H42894   5.263   0.503   6.932 -1.2805  0.6213  1.3958
  318MOL0     H42895   5.256   0.577   6.773  0.7473 -2.5408  0.2286
  318MOL0     H42896   5.404   0.757   6.865  2.6976 -0.2536 -1.1813
  318MOL0     H42897   5.389   0.689   7.027 -0.7749 -1.4353  0.5559
  318MOL0     H42898   5.562   0.523   6.973  0.4808  1.3385  0.1837
  318MOL0     H42899   5.482   0.491   6.814 -1.0518 -1.5447  1.6993
  318MOL0     H42900   5.666   0.735   6.885 -1.6187 -0.8824 -0.3227
  318MOL0     H42901   5.598   0.695   6.726 -0.7225 -1.3839 -0.3092
  318MOL0     H42902   5.771   0.490   6.864 -1.1356  0.4998 -0.2289
  318MOL0     H42903   5.841   0.633   6.798 -0.0981 -0.0599 -0.6246
  318MOL0     H42904   5.683   0.392   6.664 -0.2045  0.5706 -0.6998
  318MOL0     H42905   5.690   0.537   6.582 -3.5876  1.5461  2.7905
  318MOL0     H42906   5.926   0.395   6.709  0.5579 -0.2593 -0.1937
  318MOL0     H42907   5.958   0.526   6.605  1.8016 -2.6777 -0.7710
  318MOL0     H42908   5.846   0.396   6.411 -1.9766 -2.0617 -0.4397
  318MOL0     H42909   6.008   0.328   6.472  0.8052 -2.1663  2.5748
  318MOL0     H42910   4.981   0.820   6.998 -1.6533  0.9415  0.4926
  318MOL0     H42911   4.751   0.767   7.069  1.8307  1.5511  1.5815
  318MOL0     H42912   4.280   0.627   6.890 -1.9369 -0.5580 -1.9668
  318MOL0     H42913   4.063   0.506   6.953 -0.6392  2.0473  2.8062
  318MOL0     H42914   2.369   0.428   7.324 -0.6201  1.0973 -2.8028
  318MOL0     H42915   2.134   0.455   7.290 -1.6871  0.1149 -1.1381
  318MOL0     H42916   1.681   0.535   7.243 -3.0244  0.8321  1.5540
  318MOL0     H42917   1.449   0.525   7.189  0.2409  0.2974  1.7649
  318MOL0     H42918   1.407   0.308   6.900 -2.4278  1.0204 -2.9713
  318MOL0     H42919   1.237   0.359   6.934 -2.0758 -2.4477 -0.4622
  318MOL0     H42920   1.175   0.125   6.989  0.1059  0.7548  1.1710
  318MOL0     H42921   1.336   0.070   6.930  2.1542  2.5175 -2.4734
  318MOL0     H42922   1.290   0.185   6.709  2.0041 -1.0892  1.4654
  318MOL0     H42923   1.120   0.207   6.760  0.3459 -0.5497  2.4090
  318MOL0     H42924   1.179  -0.073   6.798 -0.8331  0.4202  0.0078
  318MOL0     H42925   1.042   0.004   6.738 -0.2212 -0.1129  0.5649
  318MOL0     H42926   1.217  -0.106   6.380 -2.0932 -0.2021  0.2131
  318MOL0     H42927   1.492   0.092   7.117 -2.2605 -0.2625  1.4637
  318MOL0     H42928   1.768   0.078   7.341 -1.3039  0.5648 -0.1707
  318MOL0     H42929   1.651  -0.025   7.240 -0.6304  0.7530 -2.2194
  318MOL0     H42930   1.806   0.039   7.176 -0.4025 -1.4018  0.0594
  319MOL0     O42931   0.815   6.546  10.020 -0.1051  0.3628 -0.8016
  319MOL0     C42932   0.810   6.653  10.078  0.3124  0.1341 -0.2666
  319MOL0     O42933   0.911   6.715  10.128 -0.1004  0.6227  0.4478
  319MOL0     C42934   1.039   6.670  10.102 -0.6725 -0.2450 -0.1267
  319MOL0     C42935   1.084   6.532  10.092 -0.8594 -0.6204 -0.2277
  319MOL0     C42936   1.220   6.506  10.064 -0.2367 -0.1005  0.1866
  319MOL0     C42937   1.308   6.611  10.035  0.6224  0.9979 -0.3250
  319MOL0     O42938   1.438   6.568  10.018  1.0938  0.6630  0.4861
  319MOL0     C42939   1.541   6.665  10.025 -0.5399 -0.5621  0.5131
  319MOL0     C42940   1.685   6.618  10.042 -0.5912  0.5809 -0.9744
  319MOL0     C42941   1.726   6.536   9.918 -0.2093  0.4128 -0.3225
  319MOL0     C42942   1.877   6.489   9.916 -0.4608 -0.4461 -0.1400
  319MOL0     C42943   1.975   6.605   9.910  0.0291  1.0952 -0.4395
  319MOL0     C42944   2.113   6.542   9.950 -0.6323  0.0699 -0.4613
  319MOL0     C42945   2.225   6.627   9.892  0.4597 -0.0544  0.4479
  319MOL0     C42946   2.311   6.698  10.001 -0.7191 -0.6521 -0.6228
  319MOL0     N42947   2.434   6.760   9.956  0.2993  0.0448 -0.3682
  319MOL0     C42948   2.484   6.757   9.825 -0.4799  0.0452 -0.1031
  319MOL0     C42949   2.601   6.821   9.834 -0.2210 -0.2862  0.3112
  319MOL0     C42950   2.704   6.829   9.726 -0.4274 -0.9543  0.0713
  319MOL0     C42951   2.733   6.973   9.656  0.0551 -0.8299 -0.5257
  319MOL0     C42952   2.821   6.950   9.539  0.1943 -1.1762  0.4853
  319MOL0     C42953   2.971   6.924   9.562 -0.4794 -0.0325 -0.2387
  319MOL0     O42954   3.037   7.045   9.599  0.4448 -0.3151  0.0586
  319MOL0     C42955   3.149   7.016   9.680 -0.0018  0.4162 -0.3684
  319MOL0     C42956   3.177   7.084   9.800 -0.0465  1.0563  0.4357
  319MOL0     C42957   3.300   7.083   9.866 -0.6768  0.1687 -0.3552
  319MOL0     C42958   3.400   6.999   9.816  0.4874  0.5748  0.2392
  319MOL0     C42959   3.525   6.987   9.877 -0.1939 -0.8197 -0.5284
  319MOL0     O42960   3.619   6.929   9.798  0.0402  1.0098  0.2689
  319MOL0     C42961   3.735   6.872   9.860  0.8445 -0.5717  0.3992
  319MOL0     C42962   3.858   6.906   9.806 -0.7103  0.5956 -0.3066
  319MOL0     C42963   3.972   6.836   9.846  0.5291  0.0137  0.0678
  319MOL0     C42964   3.961   6.744   9.957  0.3159 -0.5305  0.4201
  319MOL0     O42965   4.070   6.671  10.011  0.8577  0.3352  0.0280
  319MOL0     C42966   4.184   6.662   9.926  0.4349  0.6601  0.0866
  319MOL0     C42967   4.281   6.585  10.012 -0.2930 -0.0411  0.8381
  319MOL0     C42968   4.399   6.532   9.921 -0.6138 -0.6005 -0.6212
  319MOL0     C42969   4.530   6.535  10.005  0.4293 -0.0747  0.4494
  319MOL0     C42970   4.641   6.501   9.905  0.3098  1.1437  0.1839
  319MOL0     C42971   4.765   6.442   9.976  0.2291  0.1949 -0.2803
  319MOL0     C42972   4.807   6.514  10.105  1.1118  0.1001  0.8634
  319MOL0     C42973   4.952   6.502  10.135  1.1318 -0.6994  0.4623
  319MOL0    Cl42974   5.042   6.586   9.996 -0.0387 -0.2327 -0.4540
  319MOL0     C42975   3.832   6.710  10.011 -0.2048  0.2874  0.1151
  319MOL0     C42976   3.718   6.768   9.953  0.1180 -0.2676  0.3150
  319MOL0     O42977   3.540   7.045   9.985 -0.0325  0.6486 -0.8200
  319MOL0     C42978   3.375   6.916   9.702  0.7447 -0.0824  0.1795
  319MOL0     C42979   3.246   6.928   9.635 -0.0309 -0.7219 -0.3662
  319MOL0     N42980   2.619   6.867   9.968  0.1011  0.2247 -0.2209
  319MOL0     N42981   2.522   6.824  10.036 -0.1757 -0.3368 -0.3389
  319MOL0     C42982   1.266   6.739  10.055 -0.0390 -0.7041  0.7791
  319MOL0     C42983   1.139   6.771  10.089 -0.2003 -0.2042  0.0621
  319MOL0     C42984   0.682   6.738  10.078  0.7001  0.2152 -0.2547
  319MOL0     C42985   0.684   6.876  10.101  0.0966  0.1957 -0.0894
  319MOL0     C42986   0.564   6.952  10.115 -0.2827  0.2591 -0.0439
  319MOL0     C42987   0.438   6.894  10.105 -0.1563 -0.2381  0.6237
  319MOL0     O42988   0.318   6.956  10.112 -0.0157 -0.0348  0.0311
  319MOL0     C42989   0.320   7.096  10.111 -0.3250 -0.2013 -0.4210
  319MOL0     C42990   0.375   7.155   9.980 -0.4467 -1.1147  0.6297
  319MOL0     C42991   0.337   7.302   9.968  0.3889 -0.6475 -0.0159
  319MOL0     C42992   0.394   7.402  10.076  0.2457  1.1017  0.2587
  319MOL0     C42993   0.537   7.417  10.054 -0.6127 -0.0333  0.2193
  319MOL0     C42994   0.655   7.410  10.031  0.0439  0.1780 -0.0990
  319MOL0     C42995   0.436   6.757  10.075 -0.0392  0.2161 -0.2137
  319MOL0     C42996   0.548   6.675  10.057 -1.1624 -0.4257 -0.3059
  319MOL0     C42997   0.528   6.534  10.018  0.1494  0.3047  0.5590
  319MOL0     H42998   1.014   6.451  10.109 -1.1021 -0.1483  1.1807
  319MOL0     H42999   1.264   6.407  10.074  1.4952  0.7607  1.6189
  319MOL0     H43000   1.531   6.716   9.929 -0.3170 -1.7249 -0.1455
  319MOL0     H43001   1.521   6.738  10.104 -0.5110  0.9366 -0.8096
  319MOL0     H43002   1.700   6.575  10.142  1.2790 -1.1340 -1.9015
  319MOL0     H43003   1.738   6.714  10.037 -1.2052  0.8950 -1.5021
  319MOL0     H43004   1.705   6.599   9.831 -0.8802 -0.6719 -0.9623
  319MOL0     H43005   1.664   6.446   9.916  1.3225 -0.6899  0.2291
  319MOL0     H43006   1.903   6.446  10.013  1.9942  2.5677  0.7000
  319MOL0     H43007   1.891   6.425   9.828 -1.6686 -1.9214  0.7047
  319MOL0     H43008   1.979   6.641   9.807  0.8495  2.9963  0.2172
  319MOL0     H43009   1.937   6.684   9.975 -2.1078 -0.3488  0.2132
  319MOL0     H43010   2.115   6.536  10.060 -1.8267  0.3595 -0.4060
  319MOL0     H43011   2.119   6.441   9.908  1.4530  0.8786 -2.2335
  319MOL0     H43012   2.187   6.700   9.819 -0.3276  0.1014  1.0115
  319MOL0     H43013   2.295   6.556   9.847  2.5048  2.3310 -0.4080
  319MOL0     H43014   2.251   6.784  10.034 -0.0085  0.2224 -1.5719
  319MOL0     H43015   2.325   6.642  10.093  1.4385  1.0066  0.1514
  319MOL0     H43016   2.442   6.704   9.740 -0.0458 -1.9757  0.8744
  319MOL0     H43017   2.803   6.811   9.768 -0.3625  0.2760  0.5018
  319MOL0     H43018   2.670   6.756   9.652  2.0688  1.6271 -4.0651
  319MOL0     H43019   2.643   7.029   9.630 -1.1129 -1.0592  2.6203
  319MOL0     H43020   2.780   7.046   9.723 -0.1271  1.8950 -3.1554
  319MOL0     H43021   2.803   7.040   9.480 -1.4569 -0.8810  1.3898
  319MOL0     H43022   2.776   6.868   9.481 -1.0144  0.3940 -0.9045
  319MOL0     H43023   3.004   6.887   9.464  1.5113 -0.7306  0.6396
  319MOL0     H43024   2.993   6.845   9.634 -1.5429 -0.6145 -0.5236
  319MOL0     H43025   3.113   7.162   9.837 -0.3241  0.6285  0.8650
  319MOL0     H43026   3.319   7.148   9.951 -0.4985 -1.3617  0.8156
  319MOL0     H43027   3.866   6.994   9.743  0.8360 -0.2210 -1.3271
  319MOL0     H43028   4.062   6.879   9.804 -1.9362  2.0167 -3.7638
  319MOL0     H43029   4.160   6.602   9.837  0.4747 -0.6136  0.9231
  319MOL0     H43030   4.237   6.756   9.904  3.1570 -0.1568  2.6400
  319MOL0     H43031   4.317   6.647  10.095  0.9987 -0.4173  0.5824
  319MOL0     H43032   4.222   6.499  10.045 -2.4073  0.2831 -1.7307
  319MOL0     H43033   4.362   6.435   9.887  0.3399 -2.0403  2.1099
  319MOL0     H43034   4.417   6.590   9.830  1.0317 -1.2092 -0.7033
  319MOL0     H43035   4.512   6.451  10.073 -0.0798 -0.3351 -0.0014
  319MOL0     H43036   4.545   6.625  10.064 -1.8110 -0.7232  2.1503
  319MOL0     H43037   4.668   6.595   9.857 -2.3696  1.6295 -0.5506
  319MOL0     H43038   4.602   6.434   9.828 -0.1294  2.6954 -0.9847
  319MOL0     H43039   4.745   6.339  10.007  1.4833 -0.3216 -1.1154
  319MOL0     H43040   4.840   6.443   9.897  0.5607 -0.7750  0.0070
  319MOL0     H43041   4.742   6.493  10.190  0.6797 -0.3079  0.4345
  319MOL0     H43042   4.790   6.621  10.090 -1.3457 -0.6095 -2.5530
  319MOL0     H43043   4.959   6.558  10.229 -2.9473 -0.2147  0.6672
  319MOL0     H43044   4.983   6.398  10.145  2.0718 -0.3513  1.3029
  319MOL0     H43045   3.824   6.639  10.093  1.3710  0.5962  0.5777
  319MOL0     H43046   3.621   6.728   9.979 -0.8977  0.9992 -1.3836
  319MOL0     H43047   3.454   6.860   9.653  1.5972  1.0125  0.2770
  319MOL0     H43048   3.229   6.887   9.536  1.0374 -3.2160  0.4009
  319MOL0     H43049   1.341   6.817  10.043 -0.6218 -0.2554 -0.0202
  319MOL0     H43050   1.126   6.876  10.110  0.7266 -0.5243  2.5674
  319MOL0     H43051   0.775   6.927  10.132 -0.0980  1.6585 -1.7666
  319MOL0     H43052   0.579   7.054  10.147  0.9657  0.6411 -1.7194
  319MOL0     H43053   0.379   7.130  10.196 -1.1180  1.5527 -0.5264
  319MOL0     H43054   0.217   7.129  10.127 -0.1094  0.2645  0.0173
  319MOL0     H43055   0.327   7.091   9.905 -1.2814 -0.1773  0.3261
  319MOL0     H43056   0.482   7.143   9.965 -0.1317  1.9705 -0.2239
  319MOL0     H43057   0.230   7.289   9.988  1.0682 -1.0103  4.4683
  319MOL0     H43058   0.369   7.331   9.868  0.3526 -0.7760 -0.0661
  319MOL0     H43059   0.351   7.502  10.068 -1.3018  0.3601 -1.3275
  319MOL0     H43060   0.368   7.356  10.172 -3.1120 -0.5554 -1.2324
  319MOL0     H43061   0.760   7.421  10.013 -0.2412  1.6390 -1.0084
  319MOL0     H43062   0.331   6.729  10.084 -1.2106  4.5684  3.3745
  319MOL0     H43063   0.428   6.504  10.050 -1.0572  0.5758 -2.6674
  319MOL0     H43064   0.539   6.521   9.910  1.9762 -0.2326  0.7744
  319MOL0     H43065   0.588   6.458  10.070 -1.3721 -0.8137  0.7328
  320MOL0     O43066   2.429   4.421   6.174  0.1638 -0.1157 -0.1858
  320MOL0     C43067   2.381   4.426   6.058 -0.4572 -0.6937  1.4269
  320MOL0     O43068   2.460   4.405   5.947  0.3059 -0.1412  0.1801
  320MOL0     C43069   2.586   4.349   5.972  0.7238 -0.3717 -0.0884
  320MOL0     C43070   2.681   4.393   6.066  0.8617  0.4274  0.3398
  320MOL0     C43071   2.794   4.310   6.092  0.0325 -0.2942 -0.4823
  320MOL0     C43072   2.822   4.193   6.021 -0.3102 -0.0076  0.8347
  320MOL0     O43073   2.932   4.111   6.018 -0.1776 -0.0926  0.0924
  320MOL0     C43074   3.048   4.161   6.084  0.2008  0.2587 -0.6279
  320MOL0     C43075   3.155   4.051   6.101 -0.0351 -0.7297 -0.1211
  320MOL0     C43076   3.273   4.115   6.195  0.1635 -0.8146  1.2763
  320MOL0     C43077   3.383   4.007   6.207 -0.1198 -0.2326  0.0404
  320MOL0     C43078   3.510   4.076   6.284  1.0028 -0.2326  0.4203
  320MOL0     C43079   3.633   3.995   6.265  0.4251 -0.6448 -0.1923
  320MOL0     C43080   3.634   3.862   6.351 -0.2286 -0.5055  0.2839
  320MOL0     C43081   3.785   3.826   6.374 -0.0793 -0.2255 -0.7982
  320MOL0     N43082   3.857   3.910   6.461 -0.2963  0.0184 -0.2484
  320MOL0     C43083   3.950   3.997   6.421 -0.5601 -0.5950  0.9470
  320MOL0     C43084   4.024   4.038   6.522  0.1342 -0.0742 -1.0757
  320MOL0     C43085   4.134   4.133   6.528 -0.0678  0.0395  0.1759
  320MOL0     C43086   4.275   4.080   6.496 -0.0100 -0.0384 -0.5373
  320MOL0     C43087   4.333   3.995   6.602  0.3865  0.4855 -0.0449
  320MOL0     C43088   4.462   3.923   6.559  0.3386  0.1012  0.1628
  320MOL0     O43089   4.532   3.873   6.671 -0.3849 -0.0393  0.3063
  320MOL0     C43090   4.668   3.834   6.646 -0.2307 -0.4483 -0.2651
  320MOL0     C43091   4.748   3.821   6.763  0.9607  0.0136 -0.2072
  320MOL0     C43092   4.879   3.788   6.758 -0.7439 -0.1309  0.9851
  320MOL0     C43093   4.936   3.753   6.635  0.2041 -0.1265  0.3170
  320MOL0     C43094   5.074   3.692   6.622 -0.3469  0.8653 -0.0489
  320MOL0     O43095   5.120   3.678   6.497 -0.0997 -1.2574  0.2527
  320MOL0     C43096   5.244   3.611   6.495  0.7928  0.1015  0.0690
  320MOL0     C43097   5.360   3.687   6.464  0.5884 -0.1771 -0.1793
  320MOL0     C43098   5.481   3.620   6.459  0.0296  0.2730 -0.4100
  320MOL0     C43099   5.495   3.485   6.475 -0.2680  0.9878  0.5453
  320MOL0     O43100   5.622   3.423   6.465  0.0863 -0.7081 -0.1303
  320MOL0     C43101   5.651   3.315   6.553 -0.5416  0.0840 -0.2839
  320MOL0     C43102   5.791   3.272   6.518  0.8472  0.8532  0.2376
  320MOL0     C43103   5.895   3.374   6.561  0.7743  0.3780  0.0655
  320MOL0     C43104   6.034   3.313   6.529 -0.0487  0.0958 -0.6126
  320MOL0     C43105   6.146   3.399   6.579 -0.3563 -0.0148  0.6697
  320MOL0     C43106   6.281   3.332   6.542  0.0119  0.5991 -0.4338
  320MOL0     C43107   6.394   3.428   6.579  0.3668 -0.2433 -0.5025
  320MOL0     C43108   6.517   3.357   6.545  0.0677 -0.1719 -0.3510
  320MOL0    Cl43109   6.645   3.488   6.558 -0.4228 -0.7545  0.5243
  320MOL0     C43110   5.384   3.414   6.518 -0.0025 -0.0557  0.0308
  320MOL0     C43111   5.259   3.471   6.532 -0.0624 -0.1678 -0.1869
  320MOL0     O43112   5.146   3.686   6.725 -0.2337  0.1206 -0.9975
  320MOL0     C43113   4.860   3.769   6.510  0.7458  0.2232 -0.1225
  320MOL0     C43114   4.728   3.821   6.521  0.0582  0.7103  0.1838
  320MOL0     N43115   3.970   3.974   6.636 -0.0291  0.5818  0.5917
  320MOL0     N43116   3.872   3.902   6.594 -0.3650  0.1356 -0.3611
  320MOL0     C43117   2.727   4.152   5.928 -0.4042 -0.2686  0.7555
  320MOL0     C43118   2.617   4.236   5.900 -0.4450  0.5719 -0.5402
  320MOL0     C43119   2.242   4.473   6.047  0.7209  0.5938 -0.5418
  320MOL0     C43120   2.158   4.467   6.172 -0.0171  0.0979  0.6266
  320MOL0     C43121   2.025   4.517   6.182 -0.3050 -0.6637 -0.4590
  320MOL0     C43122   1.970   4.560   6.059  0.6225 -0.7194  0.7005
  320MOL0     O43123   1.834   4.589   6.067 -0.0826 -0.1700  0.8575
  320MOL0     C43124   1.755   4.616   5.956  0.6088  0.0248  0.0926
  320MOL0     C43125   1.620   4.659   6.010 -0.3388  0.1842 -0.4148
  320MOL0     C43126   1.538   4.544   6.073  0.1656  0.2991 -0.3605
  320MOL0     C43127   1.391   4.587   6.090 -0.2223 -0.0166  0.5948
  320MOL0     C43128   1.292   4.484   6.060  0.5150 -0.3644  0.3366
  320MOL0     C43129   1.212   4.396   6.028 -0.5524 -0.7003  0.0393
  320MOL0     C43130   2.039   4.553   5.932  0.0103 -0.6858  0.1409
  320MOL0     C43131   2.174   4.518   5.933 -0.5578  0.2446  0.0454
  320MOL0     C43132   2.243   4.537   5.796 -0.8789  0.4729  0.2660
  320MOL0     H43133   2.659   4.480   6.127 -3.7824  0.7089 -1.3343
  320MOL0     H43134   2.860   4.355   6.165 -1.3104  1.4602 -0.2858
  320MOL0     H43135   3.087   4.235   6.014 -0.5777  0.7447 -0.5562
  320MOL0     H43136   3.026   4.202   6.183 -0.7831 -3.0265  0.6531
  320MOL0     H43137   3.189   4.031   5.999 -1.0030 -1.6885 -0.2692
  320MOL0     H43138   3.114   3.958   6.141  3.4790 -1.8528  1.1845
  320MOL0     H43139   3.253   4.152   6.297 -0.5337  0.7511  0.6084
  320MOL0     H43140   3.315   4.200   6.140 -2.0277 -0.4808 -0.0025
  320MOL0     H43141   3.354   3.910   6.247  0.8202 -1.9180 -3.0403
  320MOL0     H43142   3.406   3.983   6.103 -2.2418 -1.0705 -0.2844
  320MOL0     H43143   3.535   4.176   6.248 -2.3319 -0.1746 -2.2157
  320MOL0     H43144   3.477   4.101   6.386  2.1016  1.8506  0.3181
  320MOL0     H43145   3.637   3.955   6.163 -1.0936 -0.7447 -0.2374
  320MOL0     H43146   3.727   4.048   6.282 -0.1562  2.0414 -3.9974
  320MOL0     H43147   3.590   3.792   6.279  0.2388  1.5334 -2.1227
  320MOL0     H43148   3.578   3.873   6.445  1.8338 -0.1224  1.5440
  320MOL0     H43149   3.790   3.726   6.418 -2.8058 -0.0257  0.1410
  320MOL0     H43150   3.834   3.823   6.276 -0.8851  3.4342 -1.4624
  320MOL0     H43151   3.959   4.030   6.318  2.2917 -2.8113  0.3642
  320MOL0     H43152   4.112   4.202   6.446 -3.4596 -1.1756 -0.0900
  320MOL0     H43153   4.131   4.193   6.620  0.9898  1.5725 -0.7359
  320MOL0     H43154   4.256   4.036   6.397 -3.2763  0.1036 -0.0876
  320MOL0     H43155   4.339   4.166   6.475  0.8689 -0.9301 -1.6449
  320MOL0     H43156   4.256   3.923   6.630  1.2238 -0.2997  0.2639
  320MOL0     H43157   4.342   4.051   6.697 -3.7634  0.5137  0.5291
  320MOL0     H43158   4.535   3.989   6.509  1.5125 -1.2535  0.0048
  320MOL0     H43159   4.449   3.845   6.483  1.5256  1.2647 -1.3090
  320MOL0     H43160   4.702   3.836   6.860 -1.2092  0.0145 -1.1916
  320MOL0     H43161   4.930   3.786   6.854  2.5164  1.6720 -0.5455
  320MOL0     H43162   5.358   3.795   6.454  2.3459  0.1480  2.0675
  320MOL0     H43163   5.576   3.668   6.435 -0.1549 -0.6555 -3.5750
  320MOL0     H43164   5.649   3.341   6.659  0.2363  1.1028 -0.5035
  320MOL0     H43165   5.572   3.242   6.533 -0.6262  0.8508 -3.1560
  320MOL0     H43166   5.808   3.179   6.573 -0.0845 -0.8863 -2.2355
  320MOL0     H43167   5.792   3.240   6.413 -0.4319  0.1226  0.4255
  320MOL0     H43168   5.895   3.464   6.500  1.6792  2.6959  3.2233
  320MOL0     H43169   5.898   3.397   6.668  0.3978 -1.1705  0.4335
  320MOL0     H43170   6.053   3.306   6.422  2.2236  3.8319 -0.6314
  320MOL0     H43171   6.049   3.217   6.581  1.7241  0.0434 -1.1407
  320MOL0     H43172   6.133   3.411   6.687 -1.0312  2.8603  0.3517
  320MOL0     H43173   6.151   3.496   6.529 -1.6392 -1.4101 -2.4467
  320MOL0     H43174   6.292   3.240   6.600  0.1814 -0.1308 -1.6025
  320MOL0     H43175   6.282   3.316   6.434 -1.0049 -2.3293 -0.0857
  320MOL0     H43176   6.388   3.461   6.683  1.2484 -0.3132 -0.4269
  320MOL0     H43177   6.392   3.513   6.510  1.5105  0.6665  0.5587
  320MOL0     H43178   6.537   3.271   6.609 -0.0785 -0.4145 -0.6290
  320MOL0     H43179   6.510   3.308   6.448 -1.9041 -2.7953  0.9631
  320MOL0     H43180   5.382   3.309   6.545 -0.7789  0.2773  1.3577
  320MOL0     H43181   5.167   3.422   6.562 -2.2898  2.2116 -2.5596
  320MOL0     H43182   4.902   3.758   6.411 -0.7087 -1.2601 -0.6171
  320MOL0     H43183   4.675   3.847   6.430 -1.6633  1.8025  1.4425
  320MOL0     H43184   2.749   4.071   5.860 -2.3029  0.1768 -0.4668
  320MOL0     H43185   2.539   4.216   5.827 -2.6187  1.6943  1.3830
  320MOL0     H43186   2.197   4.433   6.267 -0.1743 -0.9948  0.3133
  320MOL0     H43187   1.972   4.520   6.276 -0.7662 -1.1400 -0.6983
  320MOL0     H43188   1.750   4.526   5.894  1.1659 -0.3053  0.5273
  320MOL0     H43189   1.786   4.701   5.894  0.6057 -0.9684 -1.3275
  320MOL0     H43190   1.562   4.710   5.933 -2.6504 -1.8908 -0.1600
  320MOL0     H43191   1.643   4.727   6.092  0.3043 -0.7990  0.2512
  320MOL0     H43192   1.571   4.511   6.173 -2.3305  0.0852  0.4517
  320MOL0     H43193   1.537   4.449   6.019  1.3383 -0.0720  0.2145
  320MOL0     H43194   1.370   4.616   6.194 -3.9610 -0.2135  0.0222
  320MOL0     H43195   1.353   4.663   6.021 -5.0115 -1.8150  0.8808
  320MOL0     H43196   1.144   4.323   5.988  1.1750 -0.7685 -3.0663
  320MOL0     H43197   1.994   4.591   5.841 -1.5890 -0.6757  0.9025
  320MOL0     H43198   2.174   4.586   5.727 -1.2119  0.4613  0.5878
  320MOL0     H43199   2.336   4.594   5.800  0.5693 -1.5416 -1.9804
  320MOL0     H43200   2.270   4.442   5.748  0.2908 -0.2047  2.1788
  321MOL0     O43201   1.610   6.306   2.117 -0.3961 -1.3131  0.1940
  321MOL0     C43202   1.541   6.320   2.214  0.0613  0.3383  0.8799
  321MOL0     O43203   1.583   6.321   2.342 -0.0798 -0.0407 -0.5384
  321MOL0     C43204   1.714   6.304   2.380 -0.2517 -1.1173  0.2308
  321MOL0     C43205   1.827   6.276   2.303 -1.3817  0.5834 -0.4946
  321MOL0     C43206   1.959   6.288   2.365 -0.7606  0.1032 -0.0195
  321MOL0     C43207   1.977   6.330   2.493  0.9737 -0.2432 -0.1858
  321MOL0     O43208   2.088   6.348   2.565 -0.4194 -0.3097  0.7060
  321MOL0     C43209   2.209   6.317   2.489 -0.1525 -0.1187 -0.0746
  321MOL0     C43210   2.332   6.341   2.570  0.0813 -0.0516 -0.7609
  321MOL0     C43211   2.390   6.479   2.539 -0.6267  0.4473  0.5872
  321MOL0     C43212   2.529   6.498   2.601  0.5885  0.7676 -0.0565
  321MOL0     C43213   2.637   6.403   2.552  0.0092 -0.4574  0.1307
  321MOL0     C43214   2.651   6.396   2.403 -0.1889 -0.2291  0.1181
  321MOL0     C43215   2.785   6.341   2.342  0.3665 -0.5596  1.2115
  321MOL0     C43216   2.918   6.420   2.376  0.1608 -0.0587 -0.1184
  321MOL0     N43217   3.029   6.379   2.285 -0.0362 -0.0119  0.1081
  321MOL0     C43218   3.030   6.413   2.151 -0.4864  0.7970 -0.0275
  321MOL0     C43219   3.152   6.363   2.105 -0.6207  0.6005 -0.2739
  321MOL0     C43220   3.201   6.394   1.969  0.3368 -0.4645 -0.1616
  321MOL0     C43221   3.172   6.283   1.865 -0.2188 -0.2794 -0.1133
  321MOL0     C43222   3.029   6.295   1.828 -0.0249  0.5680  0.1229
  321MOL0     C43223   2.993   6.188   1.721  0.3825  0.6445 -1.4856
  321MOL0     O43224   2.858   6.210   1.683  0.3619 -0.0191  0.1236
  321MOL0     C43225   2.787   6.099   1.638  0.3371  0.6096 -0.8152
  321MOL0     C43226   2.837   6.008   1.548 -0.1393  0.4933 -0.5032
  321MOL0     C43227   2.757   5.906   1.495 -0.1058  0.1942 -0.8664
  321MOL0     C43228   2.628   5.896   1.538 -0.4288  0.2127  0.0940
  321MOL0     C43229   2.543   5.784   1.484  0.5264 -0.1646 -0.1292
  321MOL0     O43230   2.416   5.773   1.529  0.2921 -0.3248  0.1849
  321MOL0     C43231   2.336   5.661   1.516 -0.7383  0.0104  0.3821
  321MOL0     C43232   2.378   5.525   1.549 -0.4458  0.1029 -0.3319
  321MOL0     C43233   2.292   5.421   1.556 -0.4475 -0.1824  0.4062
  321MOL0     C43234   2.154   5.432   1.518 -1.1566  0.2132  0.0806
  321MOL0     O43235   2.068   5.323   1.515  0.7531  0.0864 -0.7525
  321MOL0     C43236   1.987   5.327   1.395 -0.1467  0.6290  0.3368
  321MOL0     C43237   1.971   5.180   1.354  0.5271  0.1686 -0.9174
  321MOL0     C43238   1.914   5.089   1.467 -1.1189 -0.2405 -0.3440
  321MOL0     C43239   1.902   4.942   1.416 -1.0262 -0.5072  0.9734
  321MOL0     C43240   1.806   4.926   1.298  0.0218 -0.4546 -0.4660
  321MOL0     C43241   1.662   4.973   1.346  0.5312  0.5710 -0.0006
  321MOL0     C43242   1.550   4.931   1.238 -0.2258 -0.5373 -0.3620
  321MOL0     C43243   1.578   5.002   1.102  0.6996 -0.4383  0.2866
  321MOL0    Cl43244   1.453   4.977   0.979  0.0493 -0.8071 -0.1072
  321MOL0     C43245   2.117   5.566   1.489  0.6162 -0.7150 -0.5685
  321MOL0     C43246   2.202   5.677   1.483  0.1073 -0.0899  0.1812
  321MOL0     O43247   2.605   5.703   1.407 -0.4044  0.3496  0.1203
  321MOL0     C43248   2.573   5.997   1.619 -0.4542 -0.4400 -0.7835
  321MOL0     C43249   2.654   6.099   1.673  0.6856 -0.0595 -0.2446
  321MOL0     N43250   3.222   6.299   2.207 -0.5701 -0.3923  0.2645
  321MOL0     N43251   3.139   6.307   2.310 -0.6407 -0.7098 -0.9998
  321MOL0     C43252   1.865   6.353   2.570  0.3016  0.1766 -0.0362
  321MOL0     C43253   1.739   6.341   2.509  0.1344 -0.3656  0.4034
  321MOL0     C43254   1.392   6.325   2.184  0.4176  0.8293 -0.8374
  321MOL0     C43255   1.345   6.325   2.054 -0.2063 -0.1214 -0.2770
  321MOL0     C43256   1.218   6.317   2.008  0.3320  0.1571 -1.1721
  321MOL0     C43257   1.120   6.301   2.110 -1.4284  0.7497 -0.3565
  321MOL0     O43258   0.996   6.276   2.067 -0.5555 -0.0196  0.2289
  321MOL0     C43259   0.909   6.379   2.102  0.5255 -0.3665 -1.3744
  321MOL0     C43260   0.782   6.367   2.015 -0.1390  0.5613 -0.3575
  321MOL0     C43261   0.666   6.451   2.067 -0.5398 -0.7862 -0.2896
  321MOL0     C43262   0.544   6.417   1.981  0.2820  0.0825 -0.9852
  321MOL0     C43263   0.418   6.472   2.033  0.3635  0.3371 -0.4415
  321MOL0     C43264   0.321   6.513   2.084  0.3936 -0.1690  0.4952
  321MOL0     C43265   1.160   6.302   2.244  0.2535 -0.4907 -0.2756
  321MOL0     C43266   1.292   6.315   2.285  0.8014 -0.2698 -0.1444
  321MOL0     C43267   1.313   6.316   2.436 -0.3639 -0.4695 -1.0191
  321MOL0     H43268   1.826   6.240   2.201  0.0744  0.5559 -0.5241
  321MOL0     H43269   2.038   6.252   2.300  0.9535  3.1515  0.1881
  321MOL0     H43270   2.215   6.214   2.453 -1.4527  0.6852 -2.8202
  321MOL0     H43271   2.212   6.383   2.401  0.4524 -1.1417 -0.8373
  321MOL0     H43272   2.403   6.260   2.553 -0.6692 -0.7395 -0.7273
  321MOL0     H43273   2.296   6.340   2.674  1.0040 -0.5483 -0.4356
  321MOL0     H43274   2.318   6.558   2.561 -3.5028 -1.8765  0.0600
  321MOL0     H43275   2.406   6.485   2.431  0.1627  1.5651  0.7411
  321MOL0     H43276   2.560   6.602   2.595 -1.0777  1.2406 -1.1726
  321MOL0     H43277   2.506   6.483   2.707  1.2088 -0.4827 -0.0844
  321MOL0     H43278   2.730   6.443   2.593  0.2052 -0.6485 -0.1276
  321MOL0     H43279   2.614   6.298   2.577 -1.3533 -0.2307 -0.0910
  321MOL0     H43280   2.582   6.326   2.354  1.6698 -2.1097  0.0119
  321MOL0     H43281   2.641   6.501   2.376 -0.1915  0.9970  4.2240
  321MOL0     H43282   2.772   6.340   2.234  1.5639  0.8988  1.0198
  321MOL0     H43283   2.795   6.237   2.375 -2.0010 -2.1004 -2.3521
  321MOL0     H43284   2.898   6.527   2.365 -1.4736 -0.2809  0.3249
  321MOL0     H43285   2.941   6.392   2.479 -0.8144 -0.3709  0.0322
  321MOL0     H43286   2.960   6.468   2.088  2.6994  0.3907 -4.4179
  321MOL0     H43287   3.152   6.485   1.934  0.2397 -0.2626  0.4862
  321MOL0     H43288   3.309   6.412   1.965  0.3063 -0.3228 -0.3173
  321MOL0     H43289   3.235   6.298   1.777 -1.2887 -0.0184 -0.8534
  321MOL0     H43290   3.185   6.187   1.914 -1.8365 -0.2290  0.4886
  321MOL0     H43291   3.005   6.398   1.798  0.0183  1.7562  3.6864
  321MOL0     H43292   2.972   6.281   1.921 -1.5497 -0.1347 -0.8719
  321MOL0     H43293   3.014   6.084   1.748 -0.1702  1.1633  1.3200
  321MOL0     H43294   3.051   6.200   1.629  1.7762 -2.7163 -1.1906
  321MOL0     H43295   2.940   6.011   1.515  0.9321 -2.7261  2.0194
  321MOL0     H43296   2.798   5.832   1.426 -0.3421 -1.1923  0.4254
  321MOL0     H43297   2.474   5.491   1.587 -0.9567  0.1425  1.0695
  321MOL0     H43298   2.328   5.329   1.599 -0.1763 -0.6158 -0.7033
  321MOL0     H43299   1.889   5.375   1.395 -0.2972  0.3441 -0.3400
  321MOL0     H43300   2.051   5.370   1.317  0.1050  0.9073  0.6951
  321MOL0     H43301   1.922   5.167   1.257 -1.0918  1.2202 -0.2729
  321MOL0     H43302   2.072   5.142   1.332  0.4308 -0.7428  0.1268
  321MOL0     H43303   1.978   5.091   1.556  0.5411  3.5005 -1.4538
  321MOL0     H43304   1.815   5.124   1.498 -1.2924 -0.7524 -0.3076
  321MOL0     H43305   1.859   4.886   1.500  0.1419 -2.3255  0.4222
  321MOL0     H43306   2.001   4.897   1.406 -0.4978  0.2281  2.5994
  321MOL0     H43307   1.793   4.819   1.276  1.1322 -0.4927 -0.9978
  321MOL0     H43308   1.842   4.971   1.205  0.4139  0.6545  0.1985
  321MOL0     H43309   1.637   4.917   1.436  1.4244 -1.0830 -0.7289
  321MOL0     H43310   1.642   5.078   1.369  0.9572  0.9484 -1.2402
  321MOL0     H43311   1.453   4.958   1.279  0.3565  1.6094 -0.2664
  321MOL0     H43312   1.555   4.822   1.238 -1.7269 -0.7007  2.1807
  321MOL0     H43313   1.586   5.111   1.111  2.2170 -0.1958 -2.6515
  321MOL0     H43314   1.672   4.969   1.056 -0.6894 -0.7104 -2.5251
  321MOL0     H43315   2.012   5.594   1.483  0.8755  0.5245  0.2920
  321MOL0     H43316   2.171   5.780   1.469 -1.3415 -0.3830  1.1194
  321MOL0     H43317   2.468   5.996   1.645 -0.5582  2.0583 -0.8626
  321MOL0     H43318   2.616   6.178   1.737 -3.5044 -3.3753  1.9115
  321MOL0     H43319   1.855   6.404   2.666  3.6706  1.2381 -0.0997
  321MOL0     H43320   1.656   6.363   2.576 -1.4133 -5.5360  0.5912
  321MOL0     H43321   1.406   6.328   1.964  0.1487 -0.7293 -0.0628
  321MOL0     H43322   1.180   6.330   1.908 -1.1715  0.7627 -0.5529
  321MOL0     H43323   0.949   6.481   2.096 -0.1351 -0.0888 -1.1107
  321MOL0     H43324   0.887   6.375   2.208  1.7895 -1.8851 -1.1369
  321MOL0     H43325   0.754   6.261   2.016 -2.1388  1.0310  1.1991
  321MOL0     H43326   0.821   6.393   1.916  0.6428  2.7685  0.4747
  321MOL0     H43327   0.690   6.557   2.057  0.7827 -1.0723 -0.3076
  321MOL0     H43328   0.643   6.424   2.171  0.7593  0.6313  0.4007
  321MOL0     H43329   0.551   6.461   1.881  1.2761  0.5027 -0.7487
  321MOL0     H43330   0.536   6.308   1.973 -1.3413  0.0527  0.6053
  321MOL0     H43331   0.237   6.564   2.128 -1.3519 -1.7352 -0.8305
  321MOL0     H43332   1.081   6.292   2.317 -2.0201 -1.7620 -2.7608
  321MOL0     H43333   1.357   6.220   2.466 -0.8313 -0.3204  0.1916
  321MOL0     H43334   1.388   6.388   2.470 -1.1845 -0.3919  0.7278
  321MOL0     H43335   1.225   6.334   2.497  1.1875 -2.6978  2.1744
  322MOL0     O43336   1.567   9.628   5.431 -0.1792 -0.0385 -0.3329
  322MOL0     C43337   1.548   9.605   5.310 -0.2185 -0.2980 -0.4671
  322MOL0     O43338   1.646   9.586   5.220 -0.2227 -0.0968 -0.1934
  322MOL0     C43339   1.766   9.619   5.269 -0.4712 -0.3179  0.0525
  322MOL0     C43340   1.841   9.518   5.327 -0.4392 -0.0218 -0.2721
  322MOL0     C43341   1.965   9.547   5.382  0.2295  0.6398  0.1627
  322MOL0     C43342   2.028   9.669   5.367  0.1175  0.1696  0.2492
  322MOL0     O43343   2.159   9.686   5.415 -0.4590 -0.0708  0.2343
  322MOL0     C43344   2.198   9.820   5.463 -0.8124  0.4872 -0.0544
  322MOL0     C43345   2.319   9.817   5.553 -0.0622 -0.3815 -0.1332
  322MOL0     C43346   2.387   9.951   5.567  0.5937  0.4052 -0.0009
  322MOL0     C43347   2.495   9.975   5.672 -0.3586  0.1579  0.3402
  322MOL0     C43348   2.576  10.104   5.653 -0.4365 -0.3974 -0.2613
  322MOL0     C43349   2.633  10.143   5.784  0.0462 -0.0505  0.2652
  322MOL0     C43350   2.722  10.270   5.777 -0.6920 -0.0753  0.0985
  322MOL0     C43351   2.867  10.250   5.719 -0.6368  0.0445  0.5920
  322MOL0     N43352   2.936  10.380   5.711  0.3670  0.5422 -0.5313
  322MOL0     C43353   3.036  10.418   5.800  0.2275  0.2782 -0.6745
  322MOL0     C43354   3.061  10.548   5.776 -0.3607 -0.4109 -0.7844
  322MOL0     C43355   3.173  10.624   5.850 -0.2208 -0.3754  0.3874
  322MOL0     C43356   3.300  10.611   5.770  0.3965 -0.0694  0.7781
  322MOL0     C43357   3.420  10.684   5.851  0.0130  0.5197 -0.1340
  322MOL0     C43358   3.555  10.684   5.771 -0.2753 -0.5382 -0.0139
  322MOL0     O43359   3.640  10.779   5.844 -0.3411  0.5438 -0.1053
  322MOL0     C43360   3.762  10.812   5.799  0.4728 -0.9663  0.4886
  322MOL0     C43361   3.816  10.770   5.678 -0.9256  0.7021 -0.5721
  322MOL0     C43362   3.949  10.790   5.657 -0.2793 -0.3420 -0.1987
  322MOL0     C43363   4.029  10.873   5.743  1.1356 -0.4550 -0.1144
  322MOL0     C43364   4.174  10.879   5.719  0.7798 -0.4123  0.0573
  322MOL0     O43365   4.212  10.842   5.595 -0.3575  0.3614  0.5092
  322MOL0     C43366   4.345  10.855   5.560  0.2761 -0.1532  0.1743
  322MOL0     C43367   4.382  10.952   5.470  0.2811 -1.0887  0.3961
  322MOL0     C43368   4.509  10.965   5.425  0.3034  0.2846  0.1663
  322MOL0     C43369   4.613  10.887   5.478  0.8371 -0.9703  0.5491
  322MOL0     O43370   4.741  10.882   5.441 -0.4578  0.0578 -0.3042
  322MOL0     C43371   4.791  10.940   5.310  0.1662  0.1256 -0.1789
  322MOL0     C43372   4.932  10.891   5.282 -0.4363  1.1962 -0.3918
  322MOL0     C43373   5.003  10.984   5.175 -0.2973  0.1798  0.3189
  322MOL0     C43374   5.146  10.932   5.143  0.2948  0.0343  0.4850
  322MOL0     C43375   5.202  10.983   5.009  0.2499  0.3862  0.6483
  322MOL0     C43376   5.329  10.910   4.963 -0.7188 -0.9480  0.2699
  322MOL0     C43377   5.429  10.998   4.874  0.7628 -0.2157 -0.1429
  322MOL0     C43378   5.572  10.945   4.855 -0.3276 -0.3909 -0.4307
  322MOL0    Cl43379   5.559  10.844   4.711 -0.2235  0.1163 -0.0571
  322MOL0     C43380   4.578  10.794   5.576  0.1199 -0.0712  0.0844
  322MOL0     C43381   4.446  10.775   5.623 -0.8526 -0.1305  0.0564
  322MOL0     O43382   4.251  10.927   5.803 -0.8016  0.6945 -0.2331
  322MOL0     C43383   3.971  10.933   5.856 -0.5178 -0.9997  0.2117
  322MOL0     C43384   3.836  10.899   5.886  0.3594  0.8893  0.2200
  322MOL0     N43385   2.977  10.585   5.674 -0.2082  0.0985 -0.1305
  322MOL0     N43386   2.898  10.489   5.638  0.1224  0.8019  0.8039
  322MOL0     C43387   1.956   9.770   5.297  0.8438 -0.1146 -0.0296
  322MOL0     C43388   1.819   9.747   5.263 -0.1666 -0.0093  0.2705
  322MOL0     C43389   1.408   9.584   5.257 -0.4504 -0.1488 -0.7699
  322MOL0     C43390   1.397   9.547   5.116 -0.0259 -1.0073  0.1992
  322MOL0     C43391   1.276   9.529   5.042 -1.3109  0.3178  0.3815
  322MOL0     C43392   1.164   9.549   5.110  0.0916  0.8315 -0.5657
  322MOL0     O43393   1.050   9.559   5.044 -0.3637 -0.2063 -0.0606
  322MOL0     C43394   0.923   9.552   5.110  0.1186  0.2205  0.1833
  322MOL0     C43395   0.808   9.507   5.018 -0.3324 -0.5821  0.9460
  322MOL0     C43396   0.832   9.363   4.976  0.7203  0.6351  0.5046
  322MOL0     C43397   0.721   9.323   4.878 -0.0277  0.0372  0.6191
  322MOL0     C43398   0.774   9.239   4.767 -0.1745  0.1396  1.0273
  322MOL0     C43399   0.825   9.164   4.682 -0.2671  0.1548 -0.1829
  322MOL0     C43400   1.165   9.585   5.244 -1.0339  0.2525 -1.3685
  322MOL0     C43401   1.282   9.592   5.330  0.5820  0.4828  0.3262
  322MOL0     C43402   1.267   9.623   5.476  0.1933 -0.7024 -1.1047
  322MOL0     H43403   1.787   9.423   5.326 -2.3372  1.0106 -0.2730
  322MOL0     H43404   2.014   9.458   5.420  1.0709  1.6121  1.4380
  322MOL0     H43405   2.216   9.894   5.385 -0.1827  0.6574  0.2471
  322MOL0     H43406   2.123   9.863   5.530  0.7673 -1.8978  3.5552
  322MOL0     H43407   2.390   9.749   5.505  1.1378 -0.1306  1.2090
  322MOL0     H43408   2.299   9.767   5.648  2.2445 -1.4325 -0.1170
  322MOL0     H43409   2.308  10.025   5.582  0.5735  0.1274  1.4697
  322MOL0     H43410   2.429   9.981   5.471  0.2556  1.7799  0.2620
  322MOL0     H43411   2.452   9.961   5.772  0.1207 -2.5094  0.2586
  322MOL0     H43412   2.576   9.902   5.668 -0.8623 -0.3888  0.0249
  322MOL0     H43413   2.657  10.087   5.581  0.1372  1.1640 -0.0379
  322MOL0     H43414   2.509  10.183   5.617  1.2804  2.3336  2.0290
  322MOL0     H43415   2.549  10.165   5.850 -1.5696  0.6377 -1.9126
  322MOL0     H43416   2.695  10.063   5.826  0.9486  1.3275  1.6488
  322MOL0     H43417   2.739  10.312   5.876 -0.4310 -1.9411  0.8829
  322MOL0     H43418   2.677  10.341   5.708 -1.2622 -2.2469 -1.8997
  322MOL0     H43419   2.928  10.196   5.792  0.4205  0.8257  0.3086
  322MOL0     H43420   2.862  10.201   5.621 -1.7645  1.9083 -0.3384
  322MOL0     H43421   3.091  10.346   5.859  0.8711  1.5266  0.2856
  322MOL0     H43422   3.145  10.729   5.856  1.5641  0.1269  0.5516
  322MOL0     H43423   3.208  10.594   5.949  0.6066  1.4897  0.7003
  322MOL0     H43424   3.322  10.507   5.744 -0.7758 -0.0472 -0.4076
  322MOL0     H43425   3.281  10.667   5.678  1.2173  1.0933  1.2857
  322MOL0     H43426   3.433  10.626   5.942 -2.6970  1.0641  0.6917
  322MOL0     H43427   3.400  10.789   5.877 -0.1061  1.0457 -2.1784
  322MOL0     H43428   3.534  10.722   5.671 -1.7611 -0.9500  0.1117
  322MOL0     H43429   3.607  10.588   5.773 -0.8387 -0.8404  0.5606
  322MOL0     H43430   3.757  10.711   5.608  0.1288  1.9239 -2.5949
  322MOL0     H43431   3.987  10.743   5.566  0.5042  0.9028 -0.5361
  322MOL0     H43432   4.311  11.015   5.417 -0.1691 -0.4092  1.7694
  322MOL0     H43433   4.523  11.043   5.351  1.8333  0.7077  0.8586
  322MOL0     H43434   4.731  10.910   5.224  2.8510  0.5193 -2.3182
  322MOL0     H43435   4.803  11.048   5.308  0.7918  0.0625  0.0090
  322MOL0     H43436   4.998  10.893   5.369  0.1426 -3.1539 -0.5016
  322MOL0     H43437   4.928  10.785   5.255  0.4931  1.2376 -0.7308
  322MOL0     H43438   4.939  10.978   5.087 -0.5789 -0.1714  0.5447
  322MOL0     H43439   4.997  11.087   5.211  2.0353 -0.0117  1.4316
  322MOL0     H43440   5.147  10.823   5.154  3.5642  0.0656  1.6171
  322MOL0     H43441   5.219  10.963   5.218  2.5899 -0.2417 -1.5005
  322MOL0     H43442   5.218  11.090   5.018 -1.4173  0.6563  0.6097
  322MOL0     H43443   5.135  10.977   4.923  1.2864  1.6295 -0.2798
  322MOL0     H43444   5.384  10.874   5.050 -0.7024  0.5096  0.8835
  322MOL0     H43445   5.305  10.821   4.904  0.2901 -0.8627 -0.2943
  322MOL0     H43446   5.436  11.094   4.926 -0.9806  0.0970 -0.4381
  322MOL0     H43447   5.374  11.008   4.781 -1.7843 -0.2971  1.2551
  322MOL0     H43448   5.640  11.030   4.846 -1.5546  0.7062  0.2566
  322MOL0     H43449   5.601  10.880   4.939  0.1223 -1.0164 -1.0628
  322MOL0     H43450   4.656  10.732   5.620 -0.8853  0.8030  3.4436
  322MOL0     H43451   4.418  10.698   5.695  2.2237 -2.8186 -1.3571
  322MOL0     H43452   4.038  10.997   5.911  0.6922 -1.3888 -0.7771
  322MOL0     H43453   3.792  10.941   5.975 -0.0642  0.0859  0.3991
  322MOL0     H43454   1.997   9.869   5.280  2.1718 -0.7459 -0.6881
  322MOL0     H43455   1.766   9.830   5.217  0.0239 -0.4023 -0.6800
  322MOL0     H43456   1.491   9.547   5.061 -0.9794  1.9964 -1.6183
  322MOL0     H43457   1.276   9.512   4.935 -0.7825 -1.0077  0.5688
  322MOL0     H43458   0.903   9.655   5.142  1.7997  0.5036  0.4364
  322MOL0     H43459   0.942   9.486   5.196  1.0884 -1.7921 -1.4894
  322MOL0     H43460   0.808   9.568   4.928 -0.7250 -1.2234  0.5005
  322MOL0     H43461   0.710   9.526   5.065 -0.8448 -1.6423  0.3404
  322MOL0     H43462   0.856   9.298   5.062  2.2197  1.7171  0.9374
  322MOL0     H43463   0.927   9.369   4.923  0.1728 -0.3422 -0.6551
  322MOL0     H43464   0.640   9.270   4.929 -0.3636 -0.8679 -0.8063
  322MOL0     H43465   0.673   9.409   4.830 -0.2186 -0.7067 -0.5557
  322MOL0     H43466   0.888   9.104   4.620  1.1857  2.4443 -1.0432
  322MOL0     H43467   1.076   9.606   5.303  0.2867  0.0226  0.8341
  322MOL0     H43468   1.240   9.533   5.532 -1.8204 -1.3524 -2.9283
  322MOL0     H43469   1.357   9.662   5.523  1.2172 -2.1139 -1.8295
  322MOL0     H43470   1.191   9.702   5.477  2.8708  2.0998  1.8777
  323MOL0     O43471  11.021   0.830   7.647 -0.5130  0.3832 -0.2004
  323MOL0     C43472  10.983   0.917   7.566 -0.8433 -1.4377 -0.1568
  323MOL0     O43473  11.065   0.990   7.494 -0.3521 -0.3353 -0.3880
  323MOL0     C43474  11.201   0.957   7.492  0.5733  0.5528 -0.2664
  323MOL0     C43475  11.288   1.005   7.588  0.3844  0.4161 -0.6526
  323MOL0     C43476  11.431   0.984   7.587  1.2848  1.3356 -0.1529
  323MOL0     C43477  11.470   0.897   7.482 -0.0805 -0.5444 -0.3923
  323MOL0     O43478  11.606   0.876   7.480  0.5228 -0.5793 -0.4728
  323MOL0     C43479  11.654   0.784   7.382  0.0832 -0.7324  0.7874
  323MOL0     C43480  11.808   0.782   7.389 -0.6735 -0.9035  0.4626
  323MOL0     C43481  11.889   0.918   7.368  0.4686 -0.4381  0.5399
  323MOL0     C43482  12.039   0.891   7.399 -0.7237  0.9813  0.4962
  323MOL0     C43483  12.116   0.801   7.292 -0.0947  0.3180  0.0487
  323MOL0     C43484  12.264   0.776   7.335  0.3045  0.0865 -0.2652
  323MOL0     C43485  12.332   0.697   7.221  1.0724 -0.6081 -0.7519
  323MOL0     C43486  12.471   0.669   7.256  0.0584 -0.0430  0.3671
  323MOL0     N43487  12.561   0.788   7.249 -0.4028 -0.4435 -0.6180
  323MOL0     C43488  12.586   0.861   7.364  0.3439 -0.8208  0.4987
  323MOL0     C43489  12.669   0.961   7.328 -0.1596  0.2491  0.4910
  323MOL0     C43490  12.731   1.065   7.418  0.2439 -0.3748 -0.3869
  323MOL0     C43491  12.833   1.010   7.516 -0.6540  0.2754  0.4337
  323MOL0     C43492  12.974   1.043   7.472 -0.0483  0.1831  1.0218
  323MOL0     C43493  13.089   0.980   7.559  0.4015 -0.4854 -0.2768
  323MOL0     O43494  13.213   1.041   7.513  0.0312 -0.3124 -0.3315
  323MOL0     C43495  13.241   1.170   7.547  0.7627  0.5371 -0.6660
  323MOL0     C43496  13.161   1.246   7.636 -0.1035  0.1495 -0.0874
  323MOL0     C43497  13.207   1.363   7.683  0.0482 -0.3726 -0.8911
  323MOL0     C43498  13.325   1.424   7.634 -0.7624 -0.0348 -0.5266
  323MOL0     C43499  13.394   1.542   7.693  1.3612 -0.5349  0.0632
  323MOL0     O43500  13.510   1.577   7.639  0.2669 -0.2133  0.3807
  323MOL0     C43501  13.583   1.670   7.715  0.2878  0.3355 -0.2910
  323MOL0     C43502  13.568   1.813   7.695  0.1173  0.7737  0.4989
  323MOL0     C43503  13.647   1.901   7.765  0.0225 -0.4174 -0.7003
  323MOL0     C43504  13.731   1.853   7.866 -0.0644 -0.9347 -0.5204
  323MOL0     O43505  13.794   1.943   7.947 -0.0612 -0.1133  0.5412
  323MOL0     C43506  13.938   1.920   7.975  0.1399 -0.0985  0.2805
  323MOL0     C43507  13.996   2.036   8.060  0.5781  0.0544  0.5946
  323MOL0     C43508  14.127   2.011   8.129 -0.4960 -0.5916  0.2613
  323MOL0     C43509  14.249   1.979   8.036 -0.2044  0.0646 -0.3661
  323MOL0     C43510  14.366   1.968   8.134 -0.3912  0.3536  0.0445
  323MOL0     C43511  14.488   1.930   8.050 -1.1100  0.4377  0.5910
  323MOL0     C43512  14.621   1.952   8.136 -0.1267 -0.3178  0.4762
  323MOL0     C43513  14.752   1.918   8.064  0.0581  0.3026  0.0138
  323MOL0    Cl43514  14.892   1.969   8.166  0.0417  0.1450  0.1817
  323MOL0     C43515  13.741   1.710   7.896  0.5895 -0.9148  0.9306
  323MOL0     C43516  13.675   1.623   7.811 -0.1146 -0.2337 -0.0675
  323MOL0     O43517  13.339   1.592   7.792  0.1533  0.1220  0.3261
  323MOL0     C43518  13.396   1.353   7.544 -0.5222  0.2218  0.1361
  323MOL0     C43519  13.352   1.231   7.500 -0.0585  0.3624  1.1951
  323MOL0     N43520  12.713   0.932   7.199 -0.2386 -0.2503 -0.4822
  323MOL0     N43521  12.642   0.831   7.156 -0.6302  0.0423  0.3871
  323MOL0     C43522  11.387   0.852   7.379 -0.3409 -1.2690  0.8520
  323MOL0     C43523  11.253   0.881   7.390  0.0740  0.4209 -0.5071
  323MOL0     C43524  10.841   0.961   7.584  0.4690  0.6392 -0.1196
  323MOL0     C43525  10.800   1.077   7.514 -0.5351 -0.1848 -0.6662
  323MOL0     C43526  10.670   1.129   7.534  0.2075 -0.1416  1.0986
  323MOL0     C43527  10.585   1.086   7.632  0.2832  0.0219  0.1788
  323MOL0     O43528  10.469   1.164   7.659 -0.3291  0.0338  0.5687
  323MOL0     C43529  10.356   1.091   7.700  0.5966  0.0150  0.3983
  323MOL0     C43530  10.279   1.030   7.582  0.9754 -1.1099  0.3987
  323MOL0     C43531  10.264   1.112   7.458  1.4241 -0.1599 -0.1608
  323MOL0     C43532  10.184   1.030   7.354  0.5413 -0.2750 -0.1543
  323MOL0     C43533  10.162   1.095   7.227 -0.0292 -1.0289  0.2055
  323MOL0     C43534  10.153   1.155   7.117  0.1627 -0.9432  0.3736
  323MOL0     C43535  10.620   0.965   7.692 -0.2401  0.5199 -0.8761
  323MOL0     C43536  10.743   0.898   7.667 -0.1857  0.2355  0.6462
  323MOL0     C43537  10.762   0.763   7.737  0.3514 -0.4453 -0.1708
  323MOL0     H43538  11.242   1.076   7.657 -1.2982  1.4747 -2.7384
  323MOL0     H43539  11.500   1.000   7.669  2.3357 -1.5551 -0.3461
  323MOL0     H43540  11.616   0.684   7.407 -0.5432  0.2627  4.3760
  323MOL0     H43541  11.636   0.814   7.278  2.1449  1.3345  0.9367
  323MOL0     H43542  11.836   0.710   7.312 -0.3127 -0.9733  0.6561
  323MOL0     H43543  11.832   0.737   7.486 -0.3641  0.2810  0.9605
  323MOL0     H43544  11.850   0.994   7.437 -0.8143  2.3756 -2.9766
  323MOL0     H43545  11.875   0.955   7.266 -0.0401 -1.8592  0.0692
  323MOL0     H43546  12.094   0.986   7.405  0.6000  0.3437 -0.8421
  323MOL0     H43547  12.046   0.844   7.497  2.1920  1.0086  0.3881
  323MOL0     H43548  12.071   0.702   7.283  1.9890 -0.6989  0.2369
  323MOL0     H43549  12.110   0.843   7.191 -2.9012 -1.6122 -0.7033
  323MOL0     H43550  12.316   0.871   7.350 -1.0346  0.4557  2.7632
  323MOL0     H43551  12.274   0.728   7.432  2.1179  0.1455 -0.3979
  323MOL0     H43552  12.335   0.750   7.125  2.2995 -0.3383 -0.5734
  323MOL0     H43553  12.270   0.608   7.202  1.8184 -1.1381 -0.7299
  323MOL0     H43554  12.478   0.620   7.353 -1.4465  1.4415  1.2713
  323MOL0     H43555  12.509   0.607   7.175  0.6282 -0.1029  0.6755
  323MOL0     H43556  12.539   0.851   7.462 -0.0834 -0.3303  0.3507
  323MOL0     H43557  12.754   1.156   7.363 -2.5005  0.4740 -0.2809
  323MOL0     H43558  12.645   1.099   7.476  0.2436 -0.1388 -0.5260
  323MOL0     H43559  12.813   1.059   7.611 -0.5672  1.1994 -0.0088
  323MOL0     H43560  12.822   0.901   7.525  0.2735  0.1018 -0.3646
  323MOL0     H43561  12.998   1.149   7.461  0.4332  0.3465  3.3067
  323MOL0     H43562  12.983   1.002   7.371 -1.4338 -1.8118  1.6458
  323MOL0     H43563  13.081   0.872   7.542 -1.4117 -0.5246  0.5821
  323MOL0     H43564  13.076   0.991   7.667  1.1132  0.1525 -0.2541
  323MOL0     H43565  13.069   1.213   7.683  0.9014 -1.2826  0.9412
  323MOL0     H43566  13.150   1.414   7.760 -1.0190 -3.4838  0.5530
  323MOL0     H43567  13.505   1.842   7.611  1.2031  1.6952 -0.0121
  323MOL0     H43568  13.642   2.005   7.735 -1.7719 -0.2443  0.1049
  323MOL0     H43569  13.957   1.822   8.019 -1.3872 -0.2720  0.5924
  323MOL0     H43570  13.997   1.915   7.883  0.0450 -2.3643  0.3006
  323MOL0     H43571  14.004   2.123   7.995 -0.4905  0.7555  1.3680
  323MOL0     H43572  13.929   2.049   8.145  0.3839 -1.4047  0.6857
  323MOL0     H43573  14.162   2.090   8.196  0.1638  0.6643 -1.5071
  323MOL0     H43574  14.103   1.923   8.190 -5.0454 -0.8995 -1.5406
  323MOL0     H43575  14.267   2.058   7.962 -2.2389 -0.9552 -2.0931
  323MOL0     H43576  14.235   1.884   7.984 -0.2055  0.4581 -1.1020
  323MOL0     H43577  14.358   1.895   8.216  3.9917  0.9181  1.2026
  323MOL0     H43578  14.382   2.064   8.184  0.8962 -0.0465  0.4463
  323MOL0     H43579  14.497   1.823   8.030  1.4821  0.4554  1.1923
  323MOL0     H43580  14.503   1.992   7.961  0.8224 -1.2245 -0.3388
  323MOL0     H43581  14.611   1.896   8.229  0.6337 -0.0228  0.7411
  323MOL0     H43582  14.624   2.054   8.176 -0.6624 -0.6953  1.5140
  323MOL0     H43583  14.753   1.811   8.039 -0.4226  0.4592 -0.7224
  323MOL0     H43584  14.762   1.974   7.970  2.1986  0.5591  0.3376
  323MOL0     H43585  13.795   1.665   7.979 -1.6010 -1.6396  2.0504
  323MOL0     H43586  13.696   1.517   7.825  1.0339 -0.2629 -1.8100
  323MOL0     H43587  13.491   1.388   7.505 -0.5639  0.9291  0.6522
  323MOL0     H43588  13.413   1.173   7.431  0.6652  2.8079 -0.3680
  323MOL0     H43589  11.431   0.803   7.293 -0.6370 -0.9979  0.5424
  323MOL0     H43590  11.195   0.836   7.310  0.7333  1.2934 -1.5065
  323MOL0     H43591  10.873   1.142   7.466 -2.0468 -0.2558 -3.1841
  323MOL0     H43592  10.635   1.218   7.484  1.6197 -0.2905 -0.2222
  323MOL0     H43593  10.291   1.163   7.752  3.4748  2.7708  0.4840
  323MOL0     H43594  10.378   1.016   7.777  0.6866  0.6871  1.0438
  323MOL0     H43595  10.177   1.013   7.618 -0.5826  3.5976 -1.0603
  323MOL0     H43596  10.316   0.931   7.556  3.5177 -0.1363  0.0097
  323MOL0     H43597  10.360   1.133   7.410  0.5396 -0.0632 -1.9889
  323MOL0     H43598  10.225   1.211   7.481  2.0639 -0.4154  2.2225
  323MOL0     H43599  10.241   0.940   7.331 -1.5514 -1.5995 -0.4720
  323MOL0     H43600  10.087   0.990   7.387 -0.6036  2.4769  0.0962
  323MOL0     H43601  10.151   1.211   7.025 -0.8122 -2.9214 -0.8681
  323MOL0     H43602  10.557   0.915   7.765 -1.9692  2.2819 -1.0782
  323MOL0     H43603  10.828   0.778   7.822  2.0642  1.4362 -1.7317
  323MOL0     H43604  10.672   0.711   7.770  0.9828 -0.2358  2.0193
  323MOL0     H43605  10.804   0.691   7.666 -0.7632  0.3437 -1.7039
  324MOL0     O43606   4.031   5.638   4.525  0.4401 -0.5113  0.6524
  324MOL0     C43607   4.017   5.724   4.433 -0.5041  0.0728  0.2289
  324MOL0     O43608   4.120   5.789   4.364 -0.4120 -0.0831 -0.7268
  324MOL0     C43609   4.234   5.718   4.364  0.2065  0.0253 -0.1074
  324MOL0     C43610   4.269   5.637   4.256 -0.1510  0.4697  0.5393
  324MOL0     C43611   4.388   5.565   4.260  0.2700 -0.2296 -0.1703
  324MOL0     C43612   4.466   5.568   4.373 -0.2247  0.3601 -0.1523
  324MOL0     O43613   4.594   5.521   4.391 -0.1919  0.2479 -0.8488
  324MOL0     C43614   4.640   5.435   4.287 -0.0741 -1.5254 -0.8699
  324MOL0     C43615   4.772   5.378   4.331 -0.1459 -0.1255 -0.8935
  324MOL0     C43616   4.894   5.473   4.339  0.1143 -0.5755  0.1265
  324MOL0     C43617   5.006   5.391   4.401 -0.1737  1.2290 -0.6034
  324MOL0     C43618   5.125   5.488   4.441  0.2693  0.2594 -0.3349
  324MOL0     C43619   5.180   5.557   4.320 -0.9029 -0.6888 -0.4150
  324MOL0     C43620   5.281   5.664   4.376 -0.1023 -0.3142  0.6914
  324MOL0     C43621   5.368   5.718   4.264 -0.8566  0.3273 -0.0652
  324MOL0     N43622   5.483   5.807   4.305  1.1043 -0.4889  0.2155
  324MOL0     C43623   5.610   5.761   4.319  0.2253  0.2615 -0.4254
  324MOL0     C43624   5.677   5.859   4.386 -0.4940 -1.1440  0.1756
  324MOL0     C43625   5.832   5.849   4.415 -0.2737 -0.2084 -0.0657
  324MOL0     C43626   5.896   5.977   4.355 -0.1452  0.9134  0.1312
  324MOL0     C43627   5.907   6.109   4.438  0.2705  0.6542  0.4165
  324MOL0     C43628   6.021   6.194   4.397  0.1181  0.8208  1.3821
  324MOL0     O43629   6.153   6.149   4.449  0.3792 -0.1553 -0.4839
  324MOL0     C43630   6.262   6.235   4.452 -0.3089  0.2798 -0.0342
  324MOL0     C43631   6.277   6.344   4.361  0.5684  0.4063  0.3465
  324MOL0     C43632   6.389   6.422   4.350  0.5154 -0.2974 -0.5155
  324MOL0     C43633   6.490   6.406   4.439 -0.3340  0.5111  1.0059
  324MOL0     C43634   6.607   6.496   4.442  1.1619 -0.0820 -0.3260
  324MOL0     O43635   6.694   6.469   4.537 -0.0230 -0.5198 -0.3385
  324MOL0     C43636   6.807   6.554   4.516 -0.2277 -0.0306 -0.1411
  324MOL0     C43637   6.917   6.517   4.437 -0.2803  0.4946  0.2985
  324MOL0     C43638   7.027   6.598   4.416 -0.0950  0.3119  0.2899
  324MOL0     C43639   7.031   6.723   4.478  0.2755 -0.7659 -0.1535
  324MOL0     O43640   7.133   6.821   4.476 -0.3422  0.8502 -0.3474
  324MOL0     C43641   7.258   6.780   4.412 -0.2778  0.3470 -0.2913
  324MOL0     C43642   7.335   6.908   4.404 -0.3568 -0.2268 -0.3011
  324MOL0     C43643   7.460   6.885   4.323  0.2782 -0.0614  0.1824
  324MOL0     C43644   7.559   6.786   4.382  0.2772  0.3241 -0.5006
  324MOL0     C43645   7.699   6.799   4.323 -0.2007 -0.2397 -0.4686
  324MOL0     C43646   7.772   6.929   4.369  0.4254  0.0113 -0.5131
  324MOL0     C43647   7.903   6.933   4.286 -0.0369  0.2953  0.7273
  324MOL0     C43648   7.995   7.049   4.315 -0.6384 -0.2336 -0.1160
  324MOL0    Cl43649   8.142   7.017   4.233 -0.3483  0.5566  0.1458
  324MOL0     C43650   6.913   6.771   4.552  0.7494  0.9693  0.0452
  324MOL0     C43651   6.814   6.679   4.575 -0.3407 -0.2759 -0.3825
  324MOL0     O43652   6.617   6.574   4.345 -0.5915  0.3766  0.0893
  324MOL0     C43653   6.474   6.301   4.537  0.1579  0.0647  0.6060
  324MOL0     C43654   6.367   6.211   4.539 -0.1121  0.6240  0.4868
  324MOL0     N43655   5.591   5.968   4.400  0.7059  0.2084 -0.9091
  324MOL0     N43656   5.475   5.930   4.358 -0.0974 -0.3186 -0.6036
  324MOL0     C43657   4.416   5.636   4.483  0.7812 -0.2616 -0.3678
  324MOL0     C43658   4.311   5.721   4.482  0.4821 -0.3909  0.4951
  324MOL0     C43659   3.877   5.770   4.412 -0.2860  1.1272 -0.8812
  324MOL0     C43660   3.804   5.788   4.527 -0.1562  0.2680 -0.2938
  324MOL0     C43661   3.673   5.835   4.520 -0.7564 -0.3158 -0.1363
  324MOL0     C43662   3.611   5.863   4.396 -1.0741  0.2392  0.1012
  324MOL0     O43663   3.486   5.919   4.383  0.2592 -0.3473  0.6897
  324MOL0     C43664   3.416   5.935   4.504  0.4545 -0.1859  0.0868
  324MOL0     C43665   3.274   5.972   4.461  0.0687 -0.3467  0.0557
  324MOL0     C43666   3.189   6.017   4.583  0.0179 -0.1025  0.4219
  324MOL0     C43667   3.037   6.036   4.553 -0.4557  0.0695 -0.3404
  324MOL0     C43668   2.953   6.043   4.671  0.1964 -1.0331  0.3116
  324MOL0     C43669   2.868   6.060   4.758  0.3129  0.0230  0.3639
  324MOL0     C43670   3.683   5.825   4.278 -0.9889 -1.0468  0.5064
  324MOL0     C43671   3.819   5.776   4.284 -0.5854 -0.3182  0.3444
  324MOL0     C43672   3.881   5.738   4.146  0.2485 -0.4764 -0.7515
  324MOL0     H43673   4.207   5.628   4.167 -0.8791 -0.2809  1.1071
  324MOL0     H43674   4.424   5.500   4.181 -2.2457 -2.2222  0.2166
  324MOL0     H43675   4.565   5.355   4.278 -1.1207 -0.6198 -0.3730
  324MOL0     H43676   4.637   5.488   4.191 -1.1652 -0.9487 -0.5387
  324MOL0     H43677   4.795   5.294   4.266 -0.9713 -0.0283 -1.3147
  324MOL0     H43678   4.746   5.332   4.427 -1.1517 -3.6180 -2.6917
  324MOL0     H43679   4.869   5.561   4.398 -0.4748 -1.6674  1.5556
  324MOL0     H43680   4.921   5.502   4.237  0.9779  2.4723  1.1379
  324MOL0     H43681   4.976   5.342   4.494  2.5018  2.1247  0.8421
  324MOL0     H43682   5.048   5.320   4.329  0.4215  1.8027 -0.8370
  324MOL0     H43683   5.087   5.563   4.511 -2.2789 -1.0658 -0.1762
  324MOL0     H43684   5.211   5.433   4.480  2.6161  2.8747 -1.4478
  324MOL0     H43685   5.232   5.489   4.251  1.7197  2.7422 -2.1267
  324MOL0     H43686   5.106   5.599   4.252  1.3868  1.6266 -1.6722
  324MOL0     H43687   5.348   5.610   4.444 -0.2785  0.6618  1.6576
  324MOL0     H43688   5.225   5.742   4.429 -0.2102 -0.4871  0.8350
  324MOL0     H43689   5.417   5.632   4.219  3.5157  2.5582 -0.0525
  324MOL0     H43690   5.302   5.766   4.191 -1.0484 -3.5666 -2.7690
  324MOL0     H43691   5.661   5.670   4.288  1.9776  1.4355 -1.1991
  324MOL0     H43692   5.853   5.845   4.522 -1.1857 -0.6121  0.1083
  324MOL0     H43693   5.871   5.761   4.364  0.9662  0.5127 -0.4280
  324MOL0     H43694   5.998   5.944   4.333  0.3190  2.0600  0.4638
  324MOL0     H43695   5.834   5.993   4.267  0.3164  0.2979 -0.3144
  324MOL0     H43696   5.916   6.082   4.544 -1.9138  0.9037  0.7249
  324MOL0     H43697   5.810   6.158   4.424 -0.7292 -1.3650 -0.0548
  324MOL0     H43698   5.995   6.294   4.432 -0.6425  2.0376 -2.1828
  324MOL0     H43699   6.028   6.208   4.289 -0.8991 -0.5402  1.1143
  324MOL0     H43700   6.194   6.356   4.293 -0.0680  1.7668  1.3195
  324MOL0     H43701   6.383   6.493   4.268 -0.6841 -1.0809 -1.1373
  324MOL0     H43702   6.930   6.418   4.394 -0.4206  0.2337  0.8501
  324MOL0     H43703   7.115   6.580   4.355  1.2823  2.6733  1.4343
  324MOL0     H43704   7.315   6.722   4.486 -2.5345 -0.3742  0.9803
  324MOL0     H43705   7.245   6.726   4.318  0.4442  0.8390 -0.6895
  324MOL0     H43706   7.289   6.988   4.345 -1.5108  0.1484  1.0806
  324MOL0     H43707   7.362   6.945   4.503  2.5767 -1.3683 -0.5771
  324MOL0     H43708   7.435   6.851   4.222  0.1795  1.2864 -0.2696
  324MOL0     H43709   7.505   6.983   4.302 -1.8437  0.7689 -0.7593
  324MOL0     H43710   7.525   6.683   4.367 -1.2571  0.4179  1.8159
  324MOL0     H43711   7.559   6.797   4.491 -2.8504 -0.3983 -0.3201
  324MOL0     H43712   7.692   6.803   4.214  1.3516  3.1795 -0.5734
  324MOL0     H43713   7.752   6.707   4.350 -0.1129  0.2269  1.0443
  324MOL0     H43714   7.714   7.022   4.361 -2.0630 -1.2750  1.3303
  324MOL0     H43715   7.788   6.910   4.475  4.6213  1.5941 -0.6541
  324MOL0     H43716   7.868   6.949   4.184 -0.8917 -1.1164  0.7756
  324MOL0     H43717   7.963   6.842   4.290  0.1419  0.3871  0.1715
  324MOL0     H43718   7.951   7.143   4.282  0.8958  0.6517  0.2856
  324MOL0     H43719   8.019   7.047   4.421  0.3471  1.7218 -0.2650
  324MOL0     H43720   6.918   6.870   4.595  3.5090  2.1008 -2.5439
  324MOL0     H43721   6.739   6.715   4.644  1.3801  0.6677  1.0736
  324MOL0     H43722   6.558   6.299   4.606  1.5103  0.7983 -0.9447
  324MOL0     H43723   6.353   6.127   4.606  1.0183 -0.8854 -1.0639
  324MOL0     H43724   4.488   5.651   4.564 -1.5127  0.8639  1.6050
  324MOL0     H43725   4.278   5.804   4.543 -2.1731 -1.5723  0.8308
  324MOL0     H43726   3.845   5.748   4.619 -0.1194  1.4499  0.2150
  324MOL0     H43727   3.624   5.845   4.616 -0.2946  1.6897 -0.0582
  324MOL0     H43728   3.456   6.007   4.576 -0.8062 -0.1250  0.7580
  324MOL0     H43729   3.395   5.844   4.562  0.3287  0.8810  1.7838
  324MOL0     H43730   3.237   5.885   4.407  1.5627  0.8199 -3.0776
  324MOL0     H43731   3.263   6.047   4.382 -0.7318  0.5347  0.9690
  324MOL0     H43732   3.222   6.108   4.634 -0.4245  0.0730  0.3912
  324MOL0     H43733   3.195   5.937   4.658  0.7682 -0.7179 -0.2701
  324MOL0     H43734   3.024   6.130   4.497 -3.3673 -0.2656 -0.3508
  324MOL0     H43735   3.002   5.951   4.495 -1.4420 -0.5310  1.1069
  324MOL0     H43736   2.803   6.089   4.838 -0.5842  3.0772 -1.3122
  324MOL0     H43737   3.635   5.847   4.184 -1.8898  1.4074  1.4597
  324MOL0     H43738   3.985   5.765   4.130  0.4579 -2.3038 -2.9998
  324MOL0     H43739   3.865   5.630   4.133 -1.3354 -0.5476  1.1461
  324MOL0     H43740   3.817   5.790   4.075 -1.1971  1.1762  1.6176
  325MOL0     O43741   1.431   4.520   9.104 -0.1366  0.2930  0.0600
  325MOL0     C43742   1.455   4.575   9.214  0.7365 -0.1056 -0.4487
  325MOL0     O43743   1.572   4.621   9.252 -0.0953  0.3950 -0.1399
  325MOL0     C43744   1.698   4.592   9.200 -0.1733 -0.2840 -0.0851
  325MOL0     C43745   1.800   4.679   9.223  0.5725 -0.4219  0.5666
  325MOL0     C43746   1.928   4.664   9.168 -0.9388 -0.2218  0.0162
  325MOL0     C43747   1.958   4.563   9.079  0.0288 -0.0037  0.9252
  325MOL0     O43748   2.085   4.565   9.027  0.2043  0.4293 -0.0161
  325MOL0     C43749   2.130   4.473   8.934  0.4103  0.1843 -0.7170
  325MOL0     C43750   2.273   4.513   8.890 -0.8268 -0.4151 -0.7142
  325MOL0     C43751   2.375   4.494   9.014  0.4210 -0.5220 -0.0347
  325MOL0     C43752   2.428   4.354   9.017 -0.7159 -1.1531  0.2092
  325MOL0     C43753   2.532   4.333   9.120 -0.0259  0.0451 -0.3795
  325MOL0     C43754   2.666   4.392   9.077 -0.3680 -0.4752  0.0342
  325MOL0     C43755   2.784   4.357   9.175 -0.7922  0.0285  1.0314
  325MOL0     C43756   2.762   4.410   9.312 -0.1570 -0.1756 -0.0920
  325MOL0     N43757   2.887   4.406   9.391 -0.1447 -0.0681  0.0318
  325MOL0     C43758   2.960   4.511   9.443  0.1257  0.2387  0.3869
  325MOL0     C43759   3.076   4.454   9.492 -0.0726 -0.0281 -0.8792
  325MOL0     C43760   3.176   4.526   9.575 -0.0399  0.4209 -0.1154
  325MOL0     C43761   3.315   4.539   9.515  0.5764  0.8840  0.5963
  325MOL0     C43762   3.327   4.575   9.364  0.6527  0.5888 -0.7081
  325MOL0     C43763   3.253   4.703   9.327  0.3866 -0.0520 -0.3620
  325MOL0     O43764   3.255   4.735   9.194 -0.5094 -1.3587 -0.8779
  325MOL0     C43765   3.343   4.830   9.140  0.0545  0.3901  0.9161
  325MOL0     C43766   3.450   4.881   9.215  0.5293  0.1164  0.2863
  325MOL0     C43767   3.536   4.972   9.158  0.0223  0.7726  0.3221
  325MOL0     C43768   3.520   5.011   9.023 -0.1887 -0.0851  0.1320
  325MOL0     C43769   3.618   5.108   8.965  0.6676 -0.7675  0.6169
  325MOL0     O43770   3.706   5.167   9.060  0.3842  0.2751 -0.2913
  325MOL0     C43771   3.805   5.257   9.019  0.8233 -1.2565  0.2877
  325MOL0     C43772   3.898   5.228   8.904  0.6843  0.5037 -0.5796
  325MOL0     C43773   4.002   5.316   8.885  0.5295  0.2287  0.1976
  325MOL0     C43774   4.034   5.423   8.984  0.5990 -0.1688 -0.2416
  325MOL0     O43775   4.147   5.500   8.961 -0.1920 -0.6874  0.3064
  325MOL0     C43776   4.130   5.643   8.955 -0.0529  0.0211 -0.5984
  325MOL0     C43777   4.262   5.705   8.910 -0.0742 -1.0399  0.3217
  325MOL0     C43778   4.299   5.646   8.778  0.6288 -0.0558  0.8223
  325MOL0     C43779   4.425   5.697   8.730  0.6362  0.4727  0.9742
  325MOL0     C43780   4.475   5.669   8.591  0.0237 -0.4317 -0.6928
  325MOL0     C43781   4.618   5.717   8.572 -1.2475  0.3135  0.2778
  325MOL0     C43782   4.720   5.657   8.670 -0.3008  0.2000 -0.5407
  325MOL0     C43783   4.866   5.668   8.634  0.2782 -0.4394  0.5797
  325MOL0    Cl43784   4.886   5.569   8.490  0.0319  0.2037  0.0019
  325MOL0     C43785   3.952   5.446   9.090 -0.1225  0.1574 -1.3692
  325MOL0     C43786   3.832   5.365   9.098 -0.4156 -0.1961 -1.0960
  325MOL0     O43787   3.614   5.139   8.840 -0.4952  0.2488 -0.3662
  325MOL0     C43788   3.415   4.959   8.947  0.1996  0.1564 -0.2469
  325MOL0     C43789   3.329   4.868   9.003  0.5159  0.2918 -0.5957
  325MOL0     N43790   3.075   4.314   9.460 -0.4022 -0.9434 -0.5333
  325MOL0     N43791   2.957   4.291   9.408  0.2277 -0.0120 -0.6360
  325MOL0     C43792   1.848   4.486   9.042 -0.1009 -0.0625  0.0152
  325MOL0     C43793   1.723   4.492   9.104  0.2522  0.3868  0.3727
  325MOL0     C43794   1.343   4.595   9.315  0.1798 -0.3420 -0.9341
  325MOL0     C43795   1.385   4.629   9.447  0.4904  0.5043 -1.2882
  325MOL0     C43796   1.291   4.665   9.543 -0.3768 -0.5167 -0.3218
  325MOL0     C43797   1.157   4.672   9.506 -0.0475 -0.1401 -0.1106
  325MOL0     O43798   1.055   4.717   9.586 -0.2937  0.0542  0.5257
  325MOL0     C43799   1.085   4.772   9.717  0.1603  0.4904  0.3772
  325MOL0     C43800   1.075   4.661   9.812  0.0066  0.1905 -0.1179
  325MOL0     C43801   1.061   4.708   9.956 -0.1323  0.1786  0.8907
  325MOL0     C43802   1.198   4.754  10.014 -0.3914  0.1026  0.6397
  325MOL0     C43803   1.202   4.782  10.158 -0.0217 -0.4997 -0.2913
  325MOL0     C43804   1.214   4.792  10.281  0.3386  0.0419  0.4030
  325MOL0     C43805   1.116   4.646   9.378  0.3229  0.2165  0.5075
  325MOL0     C43806   1.206   4.607   9.277  0.5018  0.0906 -1.3556
  325MOL0     C43807   1.161   4.576   9.141  0.5801  0.3814  0.1730
  325MOL0     H43808   1.773   4.770   9.275  0.9668  1.1291 -1.7904
  325MOL0     H43809   1.999   4.745   9.184 -0.9721 -0.0984 -0.4495
  325MOL0     H43810   2.133   4.371   8.975  0.8462 -0.6996 -2.8413
  325MOL0     H43811   2.061   4.463   8.850  0.0350 -0.7962 -0.3134
  325MOL0     H43812   2.271   4.617   8.857  2.0087  0.7077  2.0456
  325MOL0     H43813   2.309   4.444   8.813  0.3285 -2.3057  1.3855
  325MOL0     H43814   2.321   4.510   9.108 -0.7828  0.5040 -0.8509
  325MOL0     H43815   2.453   4.570   9.002 -2.2675  2.3834 -0.9043
  325MOL0     H43816   2.346   4.285   9.037 -2.0909  0.3545 -0.0747
  325MOL0     H43817   2.461   4.327   8.916  0.1167 -0.8367  0.3881
  325MOL0     H43818   2.498   4.372   9.216  0.3180  2.7116 -1.2636
  325MOL0     H43819   2.544   4.225   9.132 -0.6311 -0.2544 -2.0530
  325MOL0     H43820   2.693   4.343   8.983  0.3823  0.2599 -0.1454
  325MOL0     H43821   2.670   4.500   9.061 -0.3292 -0.5293 -0.3368
  325MOL0     H43822   2.874   4.406   9.136 -1.6821  1.1710  0.3557
  325MOL0     H43823   2.809   4.251   9.184 -1.5729 -0.3853 -1.0724
  325MOL0     H43824   2.712   4.507   9.311  0.5893  0.2717 -3.0958
  325MOL0     H43825   2.700   4.336   9.365  1.1789 -0.1676  1.5678
  325MOL0     H43826   2.927   4.614   9.455 -1.4959  0.0706 -2.0191
  325MOL0     H43827   3.150   4.631   9.585 -3.1817  0.1784 -3.6941
  325MOL0     H43828   3.171   4.489   9.678 -2.8351  1.4659  0.2119
  325MOL0     H43829   3.372   4.610   9.576 -2.5565 -0.4537  5.6731
  325MOL0     H43830   3.366   4.445   9.537  0.0702  0.4722  0.0468
  325MOL0     H43831   3.285   4.493   9.305  0.2475  1.0164 -1.0252
  325MOL0     H43832   3.431   4.589   9.334  1.1455 -3.1283 -1.2435
  325MOL0     H43833   3.292   4.775   9.399 -1.4537 -2.1868  3.0670
  325MOL0     H43834   3.146   4.691   9.347 -0.0493  2.8985 -0.4798
  325MOL0     H43835   3.475   4.852   9.317 -1.4908  1.7723  1.3374
  325MOL0     H43836   3.623   5.002   9.215  1.8519 -2.0415 -0.7825
  325MOL0     H43837   3.876   5.137   8.850 -0.7822  0.1622  0.5227
  325MOL0     H43838   4.074   5.310   8.805 -0.1419 -0.7144 -0.3610
  325MOL0     H43839   4.052   5.665   8.882  1.3215  0.0234 -2.0945
  325MOL0     H43840   4.098   5.692   9.048  0.1725 -0.3971 -0.2978
  325MOL0     H43841   4.255   5.814   8.903 -3.1551 -1.2590 -3.3991
  325MOL0     H43842   4.345   5.673   8.973  0.1535  0.9725  1.0976
  325MOL0     H43843   4.306   5.538   8.792  1.5433 -0.1236 -0.0476
  325MOL0     H43844   4.216   5.668   8.710  0.0535  0.8107  1.7724
  325MOL0     H43845   4.494   5.644   8.797  1.7738 -1.9527 -1.8758
  325MOL0     H43846   4.425   5.806   8.735  0.1382  0.8440 -3.4099
  325MOL0     H43847   4.412   5.721   8.518 -0.1967  0.6598  0.2432
  325MOL0     H43848   4.460   5.562   8.572 -3.7976  0.0483 -1.1205
  325MOL0     H43849   4.653   5.691   8.472  1.8261 -0.0248  1.3359
  325MOL0     H43850   4.621   5.826   8.586 -1.1640  0.1399  1.8350
  325MOL0     H43851   4.707   5.548   8.676 -1.3424  0.3057 -0.7167
  325MOL0     H43852   4.710   5.696   8.772  1.4563  0.4958 -0.4522
  325MOL0     H43853   4.883   5.775   8.613  2.6645 -0.4618  1.9815
  325MOL0     H43854   4.924   5.633   8.720 -0.3101  4.2447  3.2602
  325MOL0     H43855   3.955   5.517   9.171 -2.0394 -0.7671 -0.4011
  325MOL0     H43856   3.769   5.389   9.183  2.4466  3.8280  0.1823
  325MOL0     H43857   3.412   5.001   8.847  0.5391  1.2155  0.1734
  325MOL0     H43858   3.253   4.813   8.949 -0.3061  1.1075 -0.3052
  325MOL0     H43859   1.859   4.411   8.964  1.2840  2.9287 -2.8912
  325MOL0     H43860   1.638   4.429   9.081 -0.1782  0.8506  0.6492
  325MOL0     H43861   1.486   4.658   9.475 -0.0218 -1.4918  3.7580
  325MOL0     H43862   1.322   4.692   9.643 -3.5140  0.0778  0.6111
  325MOL0     H43863   1.010   4.848   9.741 -0.8473  0.5542 -2.5022
  325MOL0     H43864   1.183   4.819   9.722  0.5452 -0.4281  3.1259
  325MOL0     H43865   1.158   4.590   9.807  0.5846  0.7608  0.9800
  325MOL0     H43866   0.985   4.602   9.795  0.1623 -0.8098  2.1129
  325MOL0     H43867   1.026   4.622  10.014  1.3621 -1.4954 -0.5401
  325MOL0     H43868   0.991   4.792   9.956  1.2765  1.4341 -0.8885
  325MOL0     H43869   1.266   4.672   9.991 -1.1451 -0.3563 -0.0068
  325MOL0     H43870   1.237   4.838   9.956  1.4114  0.1712  1.8758
  325MOL0     H43871   1.241   4.811  10.383 -0.0031  0.9887  0.3249
  325MOL0     H43872   1.009   4.647   9.359  0.1903 -0.6676  1.1864
  325MOL0     H43873   1.160   4.469   9.116 -0.7322  0.0138  1.5777
  325MOL0     H43874   1.058   4.612   9.129  0.9356  1.0751 -0.9414
  325MOL0     H43875   1.208   4.643   9.069 -0.8554  0.3896 -0.8084
  326MOL0     O43876   9.780   0.716  10.451 -0.3230 -0.3223 -0.4865
  326MOL0     C43877   9.694   0.644  10.399  0.5547  0.1147  0.0576
  326MOL0     O43878   9.672   0.643  10.264 -0.0505  0.6235 -0.3732
  326MOL0     C43879   9.752   0.718  10.178 -0.4710  0.4155 -0.3151
  326MOL0     C43880   9.734   0.852  10.146 -0.1638  0.2318  0.0594
  326MOL0     C43881   9.836   0.915  10.078 -0.1327  0.4690 -0.0306
  326MOL0     C43882   9.957   0.856  10.040 -0.2634  0.5781  0.1204
  326MOL0     O43883  10.047   0.933   9.969 -0.3125 -0.3626 -0.6501
  326MOL0     C43884  10.174   0.889   9.925 -0.5397  0.1041 -1.1025
  326MOL0     C43885  10.267   0.901  10.047  0.2155  0.0082 -0.0939
  326MOL0     C43886  10.297   1.051  10.085  0.4521 -0.2029  0.2090
  326MOL0     C43887  10.413   1.063  10.187 -0.2879  0.3890  0.9570
  326MOL0     C43888  10.446   1.206  10.222 -0.3225  0.1129 -0.0178
  326MOL0     C43889  10.565   1.211  10.324  0.1344 -0.0373  0.6834
  326MOL0     C43890  10.564   1.339  10.393  0.3244  0.3770  0.3457
  326MOL0     C43891  10.696   1.350  10.467 -0.3489  0.1880  0.3622
  326MOL0     N43892  10.813   1.389  10.388 -0.4449  0.0234 -0.7952
  326MOL0     C43893  10.907   1.297  10.337  0.2731 -0.3575 -0.2727
  326MOL0     C43894  10.988   1.371  10.257 -0.1819  0.0524  0.2094
  326MOL0     C43895  11.095   1.303  10.179  0.5243 -0.2486  0.4368
  326MOL0     C43896  11.216   1.318  10.262 -0.2599 -0.8027 -0.6720
  326MOL0     C43897  11.311   1.204  10.232 -0.5662  0.5333 -0.0690
  326MOL0     C43898  11.449   1.218  10.298  0.2730 -0.3608 -0.2458
  326MOL0     O43899  11.538   1.307  10.226 -0.1830 -0.4161 -0.1400
  326MOL0     C43900  11.643   1.345  10.300  0.0038 -0.4917  0.4330
  326MOL0     C43901  11.712   1.455  10.243 -0.2808 -0.1941  0.2856
  326MOL0     C43902  11.825   1.516  10.301 -0.8656  0.3053  0.2535
  326MOL0     C43903  11.868   1.472  10.424 -0.0643 -0.4187 -0.4052
  326MOL0     C43904  11.972   1.544  10.501 -0.6596  0.1921 -0.0530
  326MOL0     O43905  11.980   1.508  10.634 -0.0505  0.3035 -0.2803
  326MOL0     C43906  12.105   1.542  10.691  0.5110 -0.3506  0.8820
  326MOL0     C43907  12.216   1.470  10.655 -0.2820 -0.6756 -0.1994
  326MOL0     C43908  12.339   1.493  10.719  0.5187 -0.4168  0.2860
  326MOL0     C43909  12.350   1.602  10.811 -0.8191 -0.1691  0.3998
  326MOL0     O43910  12.465   1.617  10.897 -0.7310 -0.1646  0.5019
  326MOL0     C43911  12.585   1.540  10.870 -0.0532  0.0284  0.4692
  326MOL0     C43912  12.703   1.616  10.914 -0.8706  0.3515 -0.2639
  326MOL0     C43913  12.826   1.527  10.947 -0.3837  0.1991  0.1723
  326MOL0     C43914  12.940   1.627  10.963 -0.5334 -0.7408 -0.4076
  326MOL0     C43915  13.083   1.558  10.965  1.3528  0.1054 -0.4714
  326MOL0     C43916  13.185   1.672  10.973  0.3192 -0.2520 -0.3381
  326MOL0     C43917  13.331   1.622  10.944  0.0392  0.3397 -0.3282
  326MOL0     C43918  13.374   1.529  11.053  0.6970  0.7518 -0.5711
  326MOL0    Cl43919  13.544   1.479  11.050  0.1346 -0.0838  0.1029
  326MOL0     C43920  12.235   1.675  10.841 -0.7452 -0.0455 -0.2375
  326MOL0     C43921  12.115   1.639  10.792 -0.1268 -0.7850 -0.8897
  326MOL0     O43922  12.056   1.614  10.440 -0.3032  0.8809 -0.6684
  326MOL0     C43923  11.796   1.364  10.486 -0.5598  0.1508 -0.3503
  326MOL0     C43924  11.687   1.304  10.425 -0.0043  0.3585 -0.0101
  326MOL0     N43925  10.969   1.504  10.284  0.0832 -0.5016  0.1538
  326MOL0     N43926  10.857   1.516  10.350  0.0899  0.3196  0.4405
  326MOL0     C43927   9.970   0.722  10.071  0.2485 -0.3478 -0.0417
  326MOL0     C43928   9.874   0.650  10.148  0.8456 -0.4719  1.1027
  326MOL0     C43929   9.586   0.599  10.485 -0.2358 -0.5366 -0.6627
  326MOL0     C43930   9.593   0.610  10.622 -0.5071  0.2175 -0.4811
  326MOL0     C43931   9.503   0.555  10.708  0.1782  0.3328  0.4666
  326MOL0     C43932   9.384   0.488  10.656 -0.0124 -0.2309  0.8051
  326MOL0     O43933   9.284   0.451  10.742  0.1257  0.1131  0.6758
  326MOL0     C43934   9.230   0.321  10.719  1.0797 -0.2959  0.7462
  326MOL0     C43935   9.073   0.331  10.705 -0.0260  0.4502  0.5211
  326MOL0     C43936   9.005   0.197  10.676  0.0544 -0.0197 -0.9108
  326MOL0     C43937   8.862   0.203  10.649  0.1340  0.3560 -0.7141
  326MOL0     C43938   8.802   0.072  10.627 -0.3463  0.2850 -0.1651
  326MOL0     C43939   8.760  -0.040  10.606 -0.8307  0.1433  0.1501
  326MOL0     C43940   9.372   0.470  10.522  0.5199  0.6144 -0.4714
  326MOL0     C43941   9.475   0.522  10.432  0.2162  0.2695 -0.3005
  326MOL0     C43942   9.456   0.478  10.287 -0.4555  0.4278  0.2103
  326MOL0     H43943   9.658   0.913  10.194  0.8221  1.5499 -0.0157
  326MOL0     H43944   9.813   1.019  10.058  0.1686  0.3920 -0.8123
  326MOL0     H43945  10.176   0.784   9.894  4.8115 -0.7468  1.0990
  326MOL0     H43946  10.219   0.951   9.847 -0.2063  1.6469  0.2582
  326MOL0     H43947  10.357   0.850  10.012 -0.4462  0.4998 -2.6977
  326MOL0     H43948  10.233   0.846  10.135 -0.3855 -0.8655 -0.8661
  326MOL0     H43949  10.200   1.079  10.127 -0.3927  0.4937 -2.0424
  326MOL0     H43950  10.308   1.106   9.991 -0.7353  2.3604  1.4722
  326MOL0     H43951  10.376   1.007  10.274 -2.7513  3.0341  1.7960
  326MOL0     H43952  10.499   1.014  10.141  0.2375  2.4706 -0.4325
  326MOL0     H43953  10.466   1.267  10.133  0.6551  2.0196  1.4226
  326MOL0     H43954  10.358   1.257  10.261  1.0745  4.0069 -1.4234
  326MOL0     H43955  10.553   1.134  10.400  1.3813 -0.3535  0.5780
  326MOL0     H43956  10.657   1.188  10.269 -0.4391  2.4433 -1.5788
  326MOL0     H43957  10.488   1.339  10.472  0.4974 -1.1889  0.5493
  326MOL0     H43958  10.542   1.416  10.318 -2.1883 -1.3037 -0.7990
  326MOL0     H43959  10.671   1.432  10.535 -3.5175 -0.3495 -0.0161
  326MOL0     H43960  10.714   1.253  10.514 -0.3952 -0.3357 -0.6718
  326MOL0     H43961  10.899   1.189  10.329  0.6996 -0.2841 -2.3411
  326MOL0     H43962  11.063   1.199  10.165 -1.4911  0.5978 -2.0798
  326MOL0     H43963  11.105   1.334  10.075  0.6767 -0.4834  0.3802
  326MOL0     H43964  11.266   1.412  10.236  0.3378 -0.9277 -0.0177
  326MOL0     H43965  11.200   1.308  10.370  4.4502  0.2182  0.3465
  326MOL0     H43966  11.336   1.192  10.126 -1.6943  1.5992 -0.4808
  326MOL0     H43967  11.279   1.108  10.273  0.8663 -0.0953 -0.3535
  326MOL0     H43968  11.487   1.116  10.308  2.1007  0.2832 -0.3830
  326MOL0     H43969  11.428   1.255  10.399  1.3336 -0.6760  0.0984
  326MOL0     H43970  11.675   1.489  10.147  1.6412 -0.5654 -0.6388
  326MOL0     H43971  11.876   1.597  10.249 -1.5806  0.4312 -0.2638
  326MOL0     H43972  12.208   1.391  10.581  1.1724  1.0916 -2.3936
  326MOL0     H43973  12.424   1.426  10.705  0.8627 -0.4463  2.2849
  326MOL0     H43974  12.576   1.440  10.915  1.9524 -0.4642 -0.1501
  326MOL0     H43975  12.594   1.513  10.765  1.7721  1.8864  0.0953
  326MOL0     H43976  12.732   1.693  10.842  1.0686  0.9069  1.0303
  326MOL0     H43977  12.685   1.669  11.008  2.3852 -2.4444  2.2054
  326MOL0     H43978  12.815   1.470  11.040 -0.1551  3.0379  2.0373
  326MOL0     H43979  12.842   1.462  10.860  1.6450  0.1382  0.5357
  326MOL0     H43980  12.927   1.686  11.054  1.9939  1.1106 -1.1495
  326MOL0     H43981  12.945   1.696  10.879  1.0473 -0.5865 -0.2093
  326MOL0     H43982  13.090   1.494  10.877  1.7840 -0.3451 -0.1185
  326MOL0     H43983  13.107   1.500  11.055 -0.7943  0.1073  0.1603
  326MOL0     H43984  13.145   1.748  10.905 -2.2550  0.1177  1.4848
  326MOL0     H43985  13.184   1.709  11.076  0.4353 -0.7129 -0.1706
  326MOL0     H43986  13.402   1.706  10.944 -2.0502  2.2230  0.8710
  326MOL0     H43987  13.339   1.561  10.854 -2.4843 -1.2819  0.4388
  326MOL0     H43988  13.352   1.564  11.154  0.1219 -0.7668 -0.1544
  326MOL0     H43989  13.324   1.432  11.045  0.7333  0.4874  1.7737
  326MOL0     H43990  12.238   1.751  10.919 -2.4130 -0.1848 -0.0060
  326MOL0     H43991  12.029   1.689  10.835  1.0608 -2.2006  3.6631
  326MOL0     H43992  11.841   1.330  10.579 -1.1522 -0.3768 -0.2521
  326MOL0     H43993  11.641   1.215  10.465 -0.5415  0.4985 -0.3112
  326MOL0     H43994  10.059   0.668  10.041  0.4788  0.7409 -1.4507
  326MOL0     H43995   9.893   0.547  10.176 -0.8408 -1.0469  0.2947
  326MOL0     H43996   9.669   0.673  10.667 -3.6015  3.4789  0.6725
  326MOL0     H43997   9.509   0.569  10.816 -0.6348 -1.3670  0.7726
  326MOL0     H43998   9.239   0.260  10.809 -1.1004 -0.0851  1.1617
  326MOL0     H43999   9.285   0.266  10.642  1.5670  2.0811 -0.7249
  326MOL0     H44000   9.043   0.403  10.629 -3.1804 -1.3315 -0.1156
  326MOL0     H44001   9.038   0.376  10.799  0.2074  4.2710 -1.0358
  326MOL0     H44002   9.011   0.127  10.760 -1.6217 -1.2622 -1.7441
  326MOL0     H44003   9.048   0.153  10.585  0.2663  1.4382 -1.5407
  326MOL0     H44004   8.813   0.258  10.730 -0.3556  1.0088 -1.4302
  326MOL0     H44005   8.848   0.260  10.556  0.5937 -3.2631 -3.2035
  326MOL0     H44006   8.740  -0.143  10.586  1.5938 -0.2331 -0.6507
  326MOL0     H44007   9.287   0.409  10.494 -0.2567  0.2411  2.3798
  326MOL0     H44008   9.366   0.420  10.267 -0.1229 -0.1612  0.3929
  326MOL0     H44009   9.447   0.563  10.220 -2.1307 -0.6780 -1.0384
  326MOL0     H44010   9.539   0.412  10.258 -2.7249 -2.3333 -0.4298
  327MOL0     O44011   7.752   6.692   1.699 -0.0027 -0.0966 -0.3037
  327MOL0     C44012   7.734   6.576   1.733 -1.0384  0.8454 -0.5131
  327MOL0     O44013   7.831   6.499   1.793 -0.3494  0.1649  0.0889
  327MOL0     C44014   7.973   6.535   1.791 -0.2827 -0.5871  0.9225
  327MOL0     C44015   8.033   6.642   1.717  0.6610 -0.6081  0.2176
  327MOL0     C44016   8.174   6.662   1.740  0.5544 -0.5252 -0.2118
  327MOL0     C44017   8.251   6.596   1.826 -0.0324  0.4943 -0.8159
  327MOL0     O44018   8.384   6.632   1.836 -0.1646 -0.1945 -0.1221
  327MOL0     C44019   8.466   6.602   1.954 -0.6272  0.7944 -0.5366
  327MOL0     C44020   8.592   6.690   1.970  0.1009 -0.1034 -0.0244
  327MOL0     C44021   8.697   6.597   2.037  0.8588 -0.4328  0.3829
  327MOL0     C44022   8.834   6.666   2.063 -0.0517  0.1664  0.0311
  327MOL0     C44023   8.898   6.728   1.935  0.1385 -0.2333  0.4275
  327MOL0     C44024   8.881   6.885   1.923  0.5281  0.2441  0.6771
  327MOL0     C44025   8.945   6.941   1.794  0.2848  0.2653 -0.0852
  327MOL0     C44026   8.847   6.940   1.682 -0.0395 -0.4861  0.0508
  327MOL0     N44027   8.744   7.050   1.677  0.2506  0.6807  0.0580
  327MOL0     C44028   8.615   7.042   1.724 -1.1269  0.0902  0.4936
  327MOL0     C44029   8.562   7.166   1.703  0.3843 -0.3225  0.9055
  327MOL0     C44030   8.418   7.204   1.740 -0.4787  0.2633  0.4374
  327MOL0     C44031   8.307   7.094   1.711  0.3975 -0.0792  1.1863
  327MOL0     C44032   8.278   6.981   1.818 -0.8038  0.3458  0.1080
  327MOL0     C44033   8.231   7.031   1.957 -0.0973 -0.0914  0.2030
  327MOL0     O44034   8.103   7.085   1.938 -0.3308  0.1876 -0.4568
  327MOL0     C44035   7.987   7.014   1.950 -0.6529  0.3818 -0.5699
  327MOL0     C44036   7.876   7.089   1.976  0.3888  0.1469 -0.5504
  327MOL0     C44037   7.747   7.032   2.008  0.7480 -0.6356  0.1229
  327MOL0     C44038   7.729   6.893   2.017  0.6829 -0.3062  0.2554
  327MOL0     C44039   7.601   6.820   2.037 -0.0402 -0.7785 -0.4233
  327MOL0     O44040   7.495   6.895   2.013  0.8078  0.8775  0.4951
  327MOL0     C44041   7.372   6.836   2.032  0.6272  0.2238  0.5097
  327MOL0     C44042   7.272   6.890   2.116 -0.3441  0.0066  0.9472
  327MOL0     C44043   7.145   6.829   2.132  0.7169 -0.4027  0.0663
  327MOL0     C44044   7.113   6.723   2.054 -0.4921 -0.4505 -0.2305
  327MOL0     O44045   6.980   6.690   2.065  0.3428  0.2896  0.4933
  327MOL0     C44046   6.929   6.615   1.952  0.4469 -0.1424 -0.3567
  327MOL0     C44047   6.780   6.625   1.947  0.4903 -0.0715  0.3341
  327MOL0     C44048   6.740   6.548   1.819 -0.8122  0.0912  0.1721
  327MOL0     C44049   6.606   6.592   1.770  0.2890 -0.9003 -0.2649
  327MOL0     C44050   6.480   6.548   1.849 -0.0348 -0.2811 -0.1061
  327MOL0     C44051   6.373   6.648   1.822 -0.2216  0.3006  0.3910
  327MOL0     C44052   6.256   6.606   1.902 -0.0858 -0.1758 -0.4452
  327MOL0     C44053   6.169   6.737   1.920  0.3472  0.6418 -0.2838
  327MOL0    Cl44054   6.018   6.681   1.994  0.0680 -0.2133  0.7438
  327MOL0     C44055   7.201   6.670   1.961  0.2694  0.4690  0.0440
  327MOL0     C44056   7.333   6.719   1.960  0.1563 -0.6892  0.9354
  327MOL0     O44057   7.605   6.701   2.062 -0.4982 -0.0220 -0.0484
  327MOL0     C44058   7.850   6.818   2.002  0.2713  1.4482 -0.5318
  327MOL0     C44059   7.974   6.875   1.964 -0.0844  0.4967 -0.1908
  327MOL0     N44060   8.658   7.240   1.626 -0.4654  0.2874 -1.4479
  327MOL0     N44061   8.768   7.170   1.622 -0.4509  0.2397 -1.0399
  327MOL0     C44062   8.193   6.497   1.909  0.0280  0.4828 -0.0418
  327MOL0     C44063   8.057   6.465   1.879  0.4943  0.9112  1.1193
  327MOL0     C44064   7.596   6.528   1.713 -0.2962  0.0097 -0.1406
  327MOL0     C44065   7.552   6.429   1.809 -0.2843  0.2295 -0.0982
  327MOL0     C44066   7.422   6.383   1.810  0.3387  0.1320 -0.0715
  327MOL0     C44067   7.327   6.424   1.713  0.7071 -0.9653 -0.5159
  327MOL0     O44068   7.203   6.356   1.699 -0.5010 -0.0812  0.2108
  327MOL0     C44069   7.118   6.401   1.594  1.0965  0.2381  0.2755
  327MOL0     C44070   6.977   6.337   1.617  0.0595 -0.8300  0.1046
  327MOL0     C44071   6.984   6.184   1.595 -0.3842  0.2702 -0.4848
  327MOL0     C44072   7.072   6.134   1.475  0.2828  0.1356  0.2325
  327MOL0     C44073   7.040   6.001   1.423 -0.1058  0.3152  0.3640
  327MOL0     C44074   7.016   5.887   1.381 -0.2215 -0.1077  0.8698
  327MOL0     C44075   7.368   6.525   1.622 -0.0804  0.3924 -0.7872
  327MOL0     C44076   7.498   6.582   1.633 -0.4871  0.2210  0.1940
  327MOL0     C44077   7.522   6.695   1.529 -0.0805  1.1863  0.0151
  327MOL0     H44078   7.979   6.707   1.649 -0.1645 -1.4312  0.0779
  327MOL0     H44079   8.236   6.728   1.681 -0.1809 -0.0303 -0.4461
  327MOL0     H44080   8.402   6.621   2.042  0.3047  0.4385  0.2353
  327MOL0     H44081   8.492   6.497   1.968 -1.0883  0.8592  1.0006
  327MOL0     H44082   8.575   6.770   2.043  0.0435 -2.3649  2.6173
  327MOL0     H44083   8.634   6.714   1.872  0.9989  3.3480  1.0666
  327MOL0     H44084   8.717   6.512   1.971  1.8693  0.7684 -0.9048
  327MOL0     H44085   8.668   6.560   2.136 -0.3535  2.0288  1.0273
  327MOL0     H44086   8.819   6.741   2.142 -0.7025  2.9967 -2.6166
  327MOL0     H44087   8.906   6.592   2.101 -0.8322 -0.1647  0.9176
  327MOL0     H44088   9.003   6.698   1.928  0.6321  1.7158 -2.1045
  327MOL0     H44089   8.839   6.684   1.854 -1.4907  0.7222  1.0482
  327MOL0     H44090   8.774   6.903   1.925 -0.0412 -2.5485  0.1909
  327MOL0     H44091   8.926   6.932   2.011  1.9329 -1.7202  1.0981
  327MOL0     H44092   9.032   6.885   1.762 -0.2502 -0.3487 -0.4841
  327MOL0     H44093   8.977   7.046   1.800 -0.8934  0.6098  0.8787
  327MOL0     H44094   8.903   6.961   1.590  3.5454  3.1614  2.7281
  327MOL0     H44095   8.787   6.848   1.676 -2.1808  0.8608 -0.3163
  327MOL0     H44096   8.576   6.950   1.766  0.8169 -0.7003  0.6647
  327MOL0     H44097   8.410   7.225   1.847 -1.6753  2.8043 -0.0785
  327MOL0     H44098   8.400   7.298   1.687  4.7365  1.0995 -0.4209
  327MOL0     H44099   8.216   7.150   1.686  1.6554  1.6743  0.2422
  327MOL0     H44100   8.330   7.053   1.612 -1.0611  0.0572  0.7710
  327MOL0     H44101   8.369   6.921   1.825  0.3533  1.8454 -1.3872
  327MOL0     H44102   8.197   6.916   1.785 -1.6200  1.3000  0.1720
  327MOL0     H44103   8.301   7.109   1.990 -1.8164  2.0583 -0.9184
  327MOL0     H44104   8.231   6.948   2.028 -2.5626 -0.7736 -0.5087
  327MOL0     H44105   7.874   7.197   1.982 -3.0170  0.2283 -1.4238
  327MOL0     H44106   7.666   7.103   2.022  1.2600 -0.2044  0.9977
  327MOL0     H44107   7.300   6.963   2.191  2.8356  0.0901 -0.1834
  327MOL0     H44108   7.078   6.866   2.209 -1.0974 -1.6985 -0.8258
  327MOL0     H44109   6.969   6.650   1.857 -2.2185  0.2947 -1.4015
  327MOL0     H44110   6.960   6.511   1.965  1.7877  0.1645 -0.8756
  327MOL0     H44111   6.739   6.591   2.043 -1.4101 -0.1574 -0.4597
  327MOL0     H44112   6.749   6.726   1.921 -2.8787 -1.5830 -2.4659
  327MOL0     H44113   6.813   6.576   1.742  1.8305 -1.4827  1.9367
  327MOL0     H44114   6.754   6.442   1.842  1.7354 -0.1899 -2.0880
  327MOL0     H44115   6.584   6.548   1.672  3.4427 -2.4243 -0.4367
  327MOL0     H44116   6.604   6.701   1.767 -1.3673 -0.7712  2.5391
  327MOL0     H44117   6.508   6.537   1.954  2.0587 -0.5968 -0.6359
  327MOL0     H44118   6.456   6.450   1.806  0.8673  0.0057 -1.3293
  327MOL0     H44119   6.416   6.744   1.853  0.0684  0.7941 -1.4475
  327MOL0     H44120   6.348   6.651   1.716  0.5179  0.7616  0.2173
  327MOL0     H44121   6.285   6.569   2.001 -2.8481  0.2141  0.6078
  327MOL0     H44122   6.190   6.529   1.862 -2.1467  2.1492 -1.8091
  327MOL0     H44123   6.230   6.805   1.979  1.8044 -1.0351  0.2146
  327MOL0     H44124   6.150   6.768   1.816  0.3013  0.1860 -0.4158
  327MOL0     H44125   7.176   6.581   1.903 -0.8998  1.3935 -0.9144
  327MOL0     H44126   7.401   6.680   1.885  0.4724 -1.1522  1.4533
  327MOL0     H44127   7.846   6.710   2.002  0.7390  1.4222 -1.4620
  327MOL0     H44128   8.059   6.809   1.951 -0.2893 -0.0895  1.1894
  327MOL0     H44129   8.245   6.428   1.974  0.1730 -2.2484 -2.8197
  327MOL0     H44130   8.019   6.376   1.928 -2.0951  0.9587 -0.6134
  327MOL0     H44131   7.623   6.403   1.887 -0.6743  0.3743  0.3060
  327MOL0     H44132   7.398   6.309   1.886 -0.0237 -3.1226 -3.1172
  327MOL0     H44133   7.160   6.389   1.494  1.2187  1.0612  0.2174
  327MOL0     H44134   7.104   6.507   1.615 -2.0536 -0.3048  1.3615
  327MOL0     H44135   6.904   6.386   1.551  0.2301  2.6398  2.2236
  327MOL0     H44136   6.959   6.359   1.722 -2.4846  1.7771 -0.7303
  327MOL0     H44137   6.884   6.139   1.588  0.7046 -2.0835 -3.3065
  327MOL0     H44138   7.037   6.144   1.682  0.1297 -1.7128 -1.6428
  327MOL0     H44139   7.063   6.205   1.392  0.8039 -0.3577 -0.2539
  327MOL0     H44140   7.179   6.139   1.500  0.3948 -3.6534  1.0461
  327MOL0     H44141   6.982   5.799   1.332 -0.6519  1.7004 -2.3406
  327MOL0     H44142   7.291   6.561   1.555 -0.7349 -0.2972 -0.4154
  327MOL0     H44143   7.445   6.698   1.452 -1.7259 -0.3559  1.4976
  327MOL0     H44144   7.512   6.788   1.586 -0.9960  0.7288  0.6364
  327MOL0     H44145   7.620   6.684   1.481  0.7343  0.8949  1.6471
  328MOL0     O44146   5.821   9.521   1.833  0.3873  0.2418  0.3530
  328MOL0     C44147   5.788   9.575   1.940 -0.3564  0.1811  0.5372
  328MOL0     O44148   5.879   9.619   2.030 -0.2760 -0.3849  0.1773
  328MOL0     C44149   6.015   9.588   2.018  0.6796 -0.7312  0.5373
  328MOL0     C44150   6.104   9.664   1.945 -0.1463  0.7035 -0.1797
  328MOL0     C44151   6.245   9.633   1.933  0.1405 -0.0735 -0.0470
  328MOL0     C44152   6.292   9.518   1.987  0.7509 -0.3571 -0.9733
  328MOL0     O44153   6.426   9.503   1.969 -0.0889  0.0191 -0.1278
  328MOL0     C44154   6.488   9.387   2.028  0.1376  0.6866  0.2989
  328MOL0     C44155   6.631   9.388   1.992  0.4088 -0.8814  0.3521
  328MOL0     C44156   6.709   9.485   2.073 -0.0964 -0.3601  0.1994
  328MOL0     C44157   6.851   9.494   2.030  0.4564  0.6152  0.0517
  328MOL0     C44158   6.944   9.593   2.105  0.9100  0.2360 -0.7784
  328MOL0     C44159   7.090   9.569   2.098 -0.6083  0.4768  0.5755
  328MOL0     C44160   7.183   9.658   2.178  0.1970 -0.3152 -0.2149
  328MOL0     C44161   7.319   9.674   2.113  0.0501 -0.5639 -0.3679
  328MOL0     N44162   7.398   9.757   2.201  0.7541 -0.0162  0.2979
  328MOL0     C44163   7.515   9.729   2.259  0.1713  1.0206 -0.6443
  328MOL0     C44164   7.545   9.834   2.340  0.6526  0.4115  0.3580
  328MOL0     C44165   7.662   9.855   2.421 -0.5539  0.5662  0.3315
  328MOL0     C44166   7.792   9.845   2.334  0.1382 -0.0067  0.8546
  328MOL0     C44167   7.844   9.984   2.303  0.7740  0.4485 -0.0866
  328MOL0     C44168   7.976   9.974   2.230  0.4120 -0.4152 -0.2936
  328MOL0     O44169   8.010  10.099   2.171  0.1878 -0.1366 -0.1747
  328MOL0     C44170   8.141  10.119   2.141 -0.3962 -0.2249  0.8497
  328MOL0     C44171   8.247  10.025   2.151 -0.1403 -0.0241  0.2226
  328MOL0     C44172   8.374  10.043   2.104  0.6425  0.0371 -0.1165
  328MOL0     C44173   8.408  10.161   2.038 -0.1538  0.4717  0.7545
  328MOL0     C44174   8.550  10.177   1.993 -0.3470 -0.7545 -0.3597
  328MOL0     O44175   8.574  10.296   1.932  0.0224 -0.5877  0.2628
  328MOL0     C44176   8.699  10.333   1.894 -1.0804  0.0686 -0.7037
  328MOL0     C44177   8.750  10.440   1.964 -1.1055  0.7539 -0.0785
  328MOL0     C44178   8.882  10.488   1.927  0.3643 -0.0285  0.0263
  328MOL0     C44179   8.964  10.419   1.832 -0.3364 -0.6640  0.7741
  328MOL0     O44180   9.084  10.477   1.795 -0.1449 -0.3550  0.0889
  328MOL0     C44181   9.165  10.411   1.696 -0.1884 -0.4168 -0.2046
  328MOL0     C44182   9.284  10.511   1.681 -0.3139  0.8446  0.2879
  328MOL0     C44183   9.256  10.620   1.583  0.4785 -0.0245 -0.5850
  328MOL0     C44184   9.390  10.673   1.536  0.3576 -0.1474  0.5509
  328MOL0     C44185   9.373  10.775   1.420 -0.4443  0.1086 -0.5856
  328MOL0     C44186   9.334  10.703   1.291 -0.0439 -0.0568  0.3686
  328MOL0     C44187   9.375  10.776   1.167  0.8192 -0.0819 -0.2169
  328MOL0     C44188   9.335  10.701   1.046 -0.7695  1.0349 -0.0627
  328MOL0    Cl44189   9.156  10.722   1.013 -0.5366 -0.0525 -0.1983
  328MOL0     C44190   8.909  10.304   1.776  0.2308  0.2263  0.3812
  328MOL0     C44191   8.775  10.263   1.798  0.1709 -0.5126 -0.2914
  328MOL0     O44192   8.629  10.081   2.007 -0.1665 -0.1488  0.2457
  328MOL0     C44193   8.305  10.262   2.024  0.1107 -0.1202 -0.0227
  328MOL0     C44194   8.178  10.232   2.070  0.7375 -0.0181 -0.2061
  328MOL0     N44195   7.438   9.934   2.327  0.8029 -0.2741 -0.1145
  328MOL0     N44196   7.353   9.884   2.243 -0.1409 -0.0534 -0.6375
  328MOL0     C44197   6.198   9.436   2.044 -0.1979 -0.2789  0.2022
  328MOL0     C44198   6.060   9.468   2.062 -0.1625  0.2326 -0.3358
  328MOL0     C44199   5.646   9.622   1.962 -0.7037 -0.8731 -0.2042
  328MOL0     C44200   5.572   9.677   1.851 -0.0345  0.1854  0.2927
  328MOL0     C44201   5.438   9.718   1.861 -0.4408 -0.8534 -0.1738
  328MOL0     C44202   5.373   9.704   1.985 -0.2568  0.8023  0.0791
  328MOL0     O44203   5.240   9.726   2.000  0.1187 -0.0353 -0.1762
  328MOL0     C44204   5.141   9.747   1.893 -0.3175 -0.1473  0.3856
  328MOL0     C44205   5.123   9.635   1.794  0.1606 -0.4763 -0.1845
  328MOL0     C44206   4.998   9.634   1.697 -0.5426 -1.0000  0.1224
  328MOL0     C44207   4.872   9.566   1.752  0.3141  0.2310 -0.1011
  328MOL0     C44208   4.820   9.661   1.856  0.1255  0.0448  0.4374
  328MOL0     C44209   4.777   9.741   1.939  0.6604  0.4738  0.1587
  328MOL0     C44210   5.452   9.658   2.095  0.3338  0.4027 -0.0084
  328MOL0     C44211   5.586   9.620   2.085 -0.2432  0.5417  0.2333
  328MOL0     C44212   5.644   9.561   2.208  0.3482 -0.5327  0.8077
  328MOL0     H44213   6.059   9.744   1.887 -1.7946 -1.0051 -1.3431
  328MOL0     H44214   6.310   9.700   1.876  0.2417 -1.9229 -2.2810
  328MOL0     H44215   6.476   9.384   2.136 -2.3981  0.3133  0.0665
  328MOL0     H44216   6.434   9.297   1.996 -1.2002  0.0478  3.9042
  328MOL0     H44217   6.641   9.411   1.885 -2.2144  1.2622  0.4534
  328MOL0     H44218   6.678   9.289   2.001  0.9159 -0.4500  3.2678
  328MOL0     H44219   6.699   9.463   2.180 -2.0214 -1.7663 -0.2316
  328MOL0     H44220   6.665   9.585   2.064  0.9378  0.1417  0.5026
  328MOL0     H44221   6.896   9.395   2.043 -1.2275 -0.2931 -0.6314
  328MOL0     H44222   6.855   9.515   1.922  1.3663  2.4445  0.3991
  328MOL0     H44223   6.917   9.693   2.070 -2.3318 -0.3093 -0.1708
  328MOL0     H44224   6.928   9.579   2.212  0.7134 -2.3243 -1.0890
  328MOL0     H44225   7.109   9.466   2.131 -2.3850  0.2197  0.9012
  328MOL0     H44226   7.112   9.565   1.991 -3.2563 -0.4843 -0.0096
  328MOL0     H44227   7.198   9.612   2.276  2.5308 -1.8953 -1.2054
  328MOL0     H44228   7.137   9.756   2.196  2.4691  0.7961 -0.1151
  328MOL0     H44229   7.379   9.584   2.102  0.5866 -0.2136 -0.3533
  328MOL0     H44230   7.296   9.720   2.017 -0.3254  1.0768  0.4576
  328MOL0     H44231   7.577   9.640   2.265 -0.5644  0.5997  1.6518
  328MOL0     H44232   7.655   9.958   2.457 -3.4292  2.1405 -3.8968
  328MOL0     H44233   7.661   9.776   2.498 -0.5156 -1.1415 -1.3433
  328MOL0     H44234   7.865   9.797   2.399  0.1124 -1.9856 -0.4915
  328MOL0     H44235   7.773   9.791   2.241  1.9973  1.7510 -0.6158
  328MOL0     H44236   7.861  10.042   2.395  0.6493  2.0213 -1.0153
  328MOL0     H44237   7.776  10.037   2.236 -0.8247 -0.3016  0.8921
  328MOL0     H44238   7.970   9.906   2.145 -2.8489  0.3683 -0.8342
  328MOL0     H44239   8.049   9.948   2.308  0.4098  0.4163 -0.0020
  328MOL0     H44240   8.234   9.925   2.191 -0.1823  0.3039  1.0367
  328MOL0     H44241   8.456   9.974   2.123  0.8847 -0.0063 -1.2010
  328MOL0     H44242   8.697  10.498   2.039 -1.6258 -0.0389  0.1862
  328MOL0     H44243   8.910  10.581   1.975  1.7759  0.0829 -0.9405
  328MOL0     H44244   9.193  10.310   1.728  1.9886 -0.1001 -0.9536
  328MOL0     H44245   9.115  10.400   1.600  0.7453 -0.5134 -0.6884
  328MOL0     H44246   9.307  10.555   1.779 -1.2763 -1.0837  1.4425
  328MOL0     H44247   9.371  10.461   1.638 -0.8602 -1.6713  1.9190
  328MOL0     H44248   9.205  10.570   1.500  3.1534 -2.2224 -1.0555
  328MOL0     H44249   9.199  10.702   1.628 -1.0184 -1.1212 -0.3826
  328MOL0     H44250   9.466  10.603   1.501  0.7199  0.8049 -0.6672
  328MOL0     H44251   9.430  10.735   1.616 -0.0692  1.1362 -0.1841
  328MOL0     H44252   9.469  10.820   1.393 -1.0100  1.8574  0.1885
  328MOL0     H44253   9.309  10.861   1.442 -2.4651 -1.0368 -1.6992
  328MOL0     H44254   9.374  10.601   1.284 -1.0130 -0.4682  0.7306
  328MOL0     H44255   9.225  10.697   1.285 -0.1711  2.4040 -1.3734
  328MOL0     H44256   9.484  10.780   1.162  0.7926 -0.0844 -0.9162
  328MOL0     H44257   9.324  10.872   1.153  1.9809  0.8476  1.6166
  328MOL0     H44258   9.408  10.740   0.975  0.6122 -0.7610  0.2822
  328MOL0     H44259   9.366  10.597   1.059  0.6811  1.4403 -0.1250
  328MOL0     H44260   8.971  10.244   1.710  0.5467  0.0073  0.8712
  328MOL0     H44261   8.736  10.171   1.757  0.5977 -0.8144 -0.0326
  328MOL0     H44262   8.340  10.350   1.972  0.7502  0.4504  1.3034
  328MOL0     H44263   8.094  10.298   2.053 -2.2436 -3.2220  0.6699
  328MOL0     H44264   6.223   9.342   2.091 -0.9534  0.1401  1.5167
  328MOL0     H44265   5.989   9.405   2.114  3.2394 -1.0127  3.3097
  328MOL0     H44266   5.619   9.667   1.754 -0.1789  0.0351  0.2388
  328MOL0     H44267   5.380   9.751   1.775  2.7869  0.5323 -1.9925
  328MOL0     H44268   5.180   9.835   1.840  1.9091 -0.2343  1.7505
  328MOL0     H44269   5.046   9.780   1.937  2.0016  1.5793  4.6437
  328MOL0     H44270   5.126   9.540   1.849  0.2799 -0.3225  0.0742
  328MOL0     H44271   5.214   9.629   1.735  1.9331  2.5068  1.9826
  328MOL0     H44272   5.039   9.581   1.611 -1.0081 -0.4587 -0.4478
  328MOL0     H44273   4.982   9.737   1.663 -1.0021 -0.6688  1.2684
  328MOL0     H44274   4.791   9.555   1.680 -0.5158 -0.7935  0.9636
  328MOL0     H44275   4.885   9.465   1.793 -1.2701 -0.2718 -0.7813
  328MOL0     H44276   4.734   9.815   2.003  0.9145  0.9573 -0.2319
  328MOL0     H44277   5.408   9.645   2.193 -1.5040 -0.6237 -0.9160
  328MOL0     H44278   5.674   9.637   2.280  0.1469  0.3719 -0.0465
  328MOL0     H44279   5.567   9.503   2.259 -0.2875 -0.2374  0.1967
  328MOL0     H44280   5.728   9.494   2.184  2.5992  2.6922 -1.1701
  329MOL0     O44281   6.163   7.132  10.883  0.2443  0.6112  0.2023
  329MOL0     C44282   6.057   7.093  10.925  0.5796 -0.1079 -0.9265
  329MOL0     O44283   6.028   7.084  11.057 -0.2980 -0.2969 -0.3223
  329MOL0     C44284   6.134   7.092  11.144  1.0880  0.2311 -0.1090
  329MOL0     C44285   6.183   6.985  11.201  0.9830  0.5308 -0.3927
  329MOL0     C44286   6.295   6.986  11.277 -0.2853 -0.1643 -1.0373
  329MOL0     C44287   6.356   7.108  11.309 -0.1050 -0.8172  0.8827
  329MOL0     O44288   6.468   7.099  11.386  0.4991 -0.3864 -0.7610
  329MOL0     C44289   6.518   7.218  11.453 -0.5523  0.3771 -1.0297
  329MOL0     C44290   6.601   7.183  11.581  0.6011 -0.0462 -0.4736
  329MOL0     C44291   6.752   7.141  11.554 -0.0345  0.3446 -0.0834
  329MOL0     C44292   6.841   7.257  11.511 -0.7281 -0.5466  0.5450
  329MOL0     C44293   6.992   7.224  11.508  0.1622 -0.2124 -0.1148
  329MOL0     C44294   7.030   7.099  11.425 -0.8906  0.9231  0.1625
  329MOL0     C44295   7.004   7.123  11.271  0.6024 -0.4948  0.0971
  329MOL0     C44296   7.076   7.252  11.219  0.1053 -0.7299  0.2536
  329MOL0     N44297   7.221   7.253  11.242 -0.1690 -0.2928  0.7749
  329MOL0     C44298   7.299   7.195  11.152 -0.3557 -0.3640  0.4102
  329MOL0     C44299   7.429   7.222  11.197  0.2428 -0.3928 -0.5404
  329MOL0     C44300   7.554   7.178  11.126  0.1449  0.2374 -0.6262
  329MOL0     C44301   7.555   7.020  11.122 -1.0643 -0.8498  0.5079
  329MOL0     C44302   7.701   6.966  11.096  0.0359  0.0225  0.0886
  329MOL0     C44303   7.749   7.000  10.962  0.6688  0.6994 -0.1249
  329MOL0     O44304   7.879   6.940  10.947  0.0073 -0.0757  0.2605
  329MOL0     C44305   7.980   6.977  10.863 -0.6943  0.0739 -1.3021
  329MOL0     C44306   7.975   7.099  10.791 -0.0259  0.5595 -0.1118
  329MOL0     C44307   8.093   7.145  10.734 -1.0140 -0.3844  1.2037
  329MOL0     C44308   8.216   7.068  10.743 -0.2340  0.4862 -0.1276
  329MOL0     C44309   8.340   7.126  10.691 -0.8070 -0.1719 -0.6095
  329MOL0     O44310   8.331   7.231  10.591  0.0470 -0.6262 -0.4581
  329MOL0     C44311   8.446   7.297  10.550 -0.3229 -0.2768 -0.8374
  329MOL0     C44312   8.507   7.389  10.635 -0.6224  0.2632 -0.1308
  329MOL0     C44313   8.613   7.460  10.589 -0.0711  0.4323  0.0564
  329MOL0     C44314   8.674   7.434  10.465  0.6020 -0.1874 -0.5136
  329MOL0     O44315   8.778   7.501  10.407  0.1225  0.3844 -0.1025
  329MOL0     C44316   8.834   7.618  10.479 -0.0386  0.6839  0.2357
  329MOL0     C44317   8.924   7.696  10.389  0.2060  0.5992  0.4692
  329MOL0     C44318   9.058   7.627  10.387 -0.4448 -0.6829  0.0222
  329MOL0     C44319   9.145   7.676  10.278 -0.9866 -1.0181 -0.0615
  329MOL0     C44320   9.281   7.602  10.276  0.2401 -0.4728 -0.8351
  329MOL0     C44321   9.359   7.658  10.159 -0.3479 -1.1318 -0.8998
  329MOL0     C44322   9.511   7.599  10.175  1.0929  0.0741 -0.5626
  329MOL0     C44323   9.590   7.614  10.051  0.4741 -0.0747 -0.4083
  329MOL0    Cl44324   9.620   7.785   9.999 -0.3049 -0.2913  0.1451
  329MOL0     C44325   8.616   7.339  10.387 -1.1341  0.6124 -0.2791
  329MOL0     C44326   8.487   7.279  10.411  0.3919  0.1510 -0.1461
  329MOL0     O44327   8.444   7.089  10.733 -0.4235  0.1292 -0.6209
  329MOL0     C44328   8.217   6.948  10.811  0.1192  0.8018  0.3370
  329MOL0     C44329   8.105   6.910  10.880 -0.4739  0.3424  0.6673
  329MOL0     N44330   7.414   7.302  11.311 -0.2555 -0.0448  0.4522
  329MOL0     N44331   7.287   7.320  11.331 -0.2553 -0.6773  0.3785
  329MOL0     C44332   6.294   7.228  11.259  0.5691 -0.2444 -0.4192
  329MOL0     C44333   6.180   7.216  11.179  0.1806  0.2982  0.3525
  329MOL0     C44334   5.943   7.042  10.839 -0.0542 -0.2715  0.3204
  329MOL0     C44335   5.827   6.981  10.905 -0.0123  0.9112 -0.5020
  329MOL0     C44336   5.737   6.914  10.826 -1.3226  0.5989  0.4861
  329MOL0     C44337   5.757   6.887  10.690 -0.4032 -0.2280  0.1602
  329MOL0     O44338   5.674   6.823  10.604  0.9419  0.7391  0.3382
  329MOL0     C44339   5.555   6.764  10.649  1.1690 -0.4234 -0.2700
  329MOL0     C44340   5.475   6.721  10.524 -0.0737  0.1823 -0.1349
  329MOL0     C44341   5.331   6.688  10.563 -0.5329 -0.3137  0.2502
  329MOL0     C44342   5.242   6.629  10.441 -0.6108 -0.3794  0.2712
  329MOL0     C44343   5.104   6.634  10.479  0.4020 -0.4687  0.2823
  329MOL0     C44344   4.982   6.641  10.476  0.6641  0.6720 -0.1712
  329MOL0     C44345   5.873   6.941  10.627  1.0338 -0.3869  0.7724
  329MOL0     C44346   5.956   7.032  10.701 -0.8377 -0.1529  0.9719
  329MOL0     C44347   6.067   7.086  10.618 -0.4028  0.2248  1.1104
  329MOL0     H44348   6.136   6.888  11.184 -0.0569  0.7072  1.2438
  329MOL0     H44349   6.341   6.900  11.326 -1.7435  0.1367  0.9853
  329MOL0     H44350   6.584   7.269  11.382  2.5429 -1.0391  0.6221
  329MOL0     H44351   6.437   7.278  11.496  0.3891  0.8553  0.1198
  329MOL0     H44352   6.544   7.106  11.633  0.3520 -0.7307 -1.7277
  329MOL0     H44353   6.597   7.269  11.650 -3.1548 -0.7089  0.3720
  329MOL0     H44354   6.749   7.079  11.465  0.5971  2.5553 -1.7272
  329MOL0     H44355   6.790   7.082  11.638  1.9949 -2.9182 -3.0206
  329MOL0     H44356   6.808   7.295  11.414 -1.2226  1.0689  1.3015
  329MOL0     H44357   6.838   7.341  11.581  0.0390  0.4275 -0.5554
  329MOL0     H44358   7.058   7.308  11.484  1.0056 -0.5117  1.0746
  329MOL0     H44359   7.007   7.191  11.611  4.0890 -0.4616 -0.5892
  329MOL0     H44360   7.137   7.078  11.429 -1.0580 -0.3817 -1.3850
  329MOL0     H44361   6.971   7.015  11.462 -0.0177  0.3124  0.1817
  329MOL0     H44362   6.897   7.125  11.248  0.9072  0.6627 -1.4102
  329MOL0     H44363   7.046   7.036  11.222  1.1519 -1.0488  1.5019
  329MOL0     H44364   7.050   7.265  11.114 -2.1314  0.2235  0.8652
  329MOL0     H44365   7.034   7.342  11.264 -2.0625 -0.7460 -1.6107
  329MOL0     H44366   7.280   7.154  11.053 -2.0274  0.3496  0.3991
  329MOL0     H44367   7.571   7.218  11.026  2.6199 -0.2717 -0.4799
  329MOL0     H44368   7.645   7.205  11.181  1.9065 -3.9048 -1.1321
  329MOL0     H44369   7.512   6.983  11.216 -3.1028  3.7480  1.6879
  329MOL0     H44370   7.489   6.980  11.045 -2.4836  1.5170  0.3624
  329MOL0     H44371   7.701   6.859  11.121  3.9943 -0.2172 -0.3663
  329MOL0     H44372   7.775   7.005  11.166  1.8147 -1.2717 -0.9990
  329MOL0     H44373   7.768   7.107  10.953  2.2771  0.4580  0.0727
  329MOL0     H44374   7.681   6.965  10.884  0.9479 -0.4351  0.1139
  329MOL0     H44375   7.881   7.146  10.765 -1.7425 -2.1454  0.7045
  329MOL0     H44376   8.097   7.235  10.674  0.6523 -1.7688 -0.9205
  329MOL0     H44377   8.469   7.401  10.736 -0.9767 -5.5663  0.7745
  329MOL0     H44378   8.666   7.528  10.656 -0.1478 -1.4828  2.1780
  329MOL0     H44379   8.750   7.684  10.504  0.3406  0.5804  1.8650
  329MOL0     H44380   8.884   7.590  10.572 -0.9616  0.9344  0.8200
  329MOL0     H44381   8.881   7.693  10.288  3.0671 -1.9969 -0.8268
  329MOL0     H44382   8.934   7.803  10.411 -0.9983  1.0613 -1.0088
  329MOL0     H44383   9.108   7.653  10.481 -0.6316  0.3875 -0.1638
  329MOL0     H44384   9.047   7.518  10.374 -0.9491 -0.3576 -2.7261
  329MOL0     H44385   9.163   7.783  10.293  3.1507 -1.6185  0.4935
  329MOL0     H44386   9.103   7.670  10.177  1.9261 -0.6260 -1.3880
  329MOL0     H44387   9.264   7.494  10.272  1.4795 -0.6695 -1.3129
  329MOL0     H44388   9.346   7.621  10.363  0.7137  1.0960 -1.4921
  329MOL0     H44389   9.317   7.628  10.063  1.0824 -6.8066 -0.1249
  329MOL0     H44390   9.368   7.767  10.163  0.6537 -1.0653 -3.2466
  329MOL0     H44391   9.497   7.492  10.192 -2.4229  0.7052  1.5623
  329MOL0     H44392   9.567   7.646  10.257  1.6554  0.4396 -1.1487
  329MOL0     H44393   9.685   7.561  10.056  0.2133 -0.6303 -1.1947
  329MOL0     H44394   9.535   7.566   9.969 -2.4853  0.9857  0.8272
  329MOL0     H44395   8.663   7.317  10.291  0.7264  4.1033 -0.3004
  329MOL0     H44396   8.423   7.238  10.335  0.5269  0.0651 -0.2147
  329MOL0     H44397   8.301   6.881  10.825 -1.8298 -1.4453  1.8791
  329MOL0     H44398   8.106   6.817  10.937 -3.8518  1.8255  3.5873
  329MOL0     H44399   6.333   7.325  11.288  0.7292 -0.8270  1.4533
  329MOL0     H44400   6.136   7.307  11.138  1.1465  1.2429  1.3245
  329MOL0     H44401   5.804   6.989  11.010  2.2206 -0.5387  0.1774
  329MOL0     H44402   5.648   6.879  10.877 -0.5196  0.5540  1.9212
  329MOL0     H44403   5.486   6.830  10.702  1.3898  0.3715 -0.9513
  329MOL0     H44404   5.568   6.679  10.717  0.0751  0.5064  1.1417
  329MOL0     H44405   5.523   6.632  10.483  0.5549  0.6029 -0.3308
  329MOL0     H44406   5.455   6.790  10.441 -0.8379 -1.4887 -1.4075
  329MOL0     H44407   5.285   6.781  10.598 -2.1258 -1.8531  2.5364
  329MOL0     H44408   5.341   6.615  10.643  2.1791 -1.2041 -0.7885
  329MOL0     H44409   5.255   6.688  10.349 -3.6482  0.4981  0.2989
  329MOL0     H44410   5.265   6.525  10.418  1.8661 -0.2285  1.7750
  329MOL0     H44411   4.875   6.634  10.472  0.3062  0.0383  4.6279
  329MOL0     H44412   5.896   6.905  10.527 -1.8029 -0.1470 -0.0570
  329MOL0     H44413   6.146   7.010  10.619 -3.8519 -3.6920  0.2940
  329MOL0     H44414   6.032   7.099  10.516  2.2992 -2.5232 -0.3180
  329MOL0     H44415   6.108   7.182  10.650 -2.5432  1.4493  0.3772
  330MOL0     O44416  10.217  10.155   3.432  0.1268  0.2014 -0.1034
  330MOL0     C44417  10.115  10.163   3.363  0.8293 -0.5208 -1.1140
  330MOL0     O44418  10.126  10.191   3.226 -0.7697  0.1117 -0.1518
  330MOL0     C44419  10.247  10.214   3.157 -0.7493 -0.3382 -0.2409
  330MOL0     C44420  10.236  10.239   3.025  0.4474  0.2411  1.2403
  330MOL0     C44421  10.336  10.282   2.946 -0.4744 -0.0223  0.6986
  330MOL0     C44422  10.464  10.291   2.990  0.6049  0.3549 -0.2955
  330MOL0     O44423  10.553  10.318   2.895  0.2177 -0.1981  0.4058
  330MOL0     C44424  10.688  10.302   2.919 -0.6580 -0.5904  0.5622
  330MOL0     C44425  10.741  10.409   3.030  0.0266  0.2936 -0.2596
  330MOL0     C44426  10.880  10.365   3.086 -0.2569  0.3305  0.1818
  330MOL0     C44427  10.967  10.469   3.145  0.9872  0.4567  0.1539
  330MOL0     C44428  11.103  10.402   3.184 -0.4120 -0.0225  0.3085
  330MOL0     C44429  11.204  10.521   3.205  0.5139 -0.4496  0.5161
  330MOL0     C44430  11.351  10.479   3.231 -0.5025 -0.3320  0.6780
  330MOL0     C44431  11.379  10.434   3.375 -0.1877  0.1661  0.7006
  330MOL0     N44432  11.524  10.405   3.388 -0.5202 -0.6204  0.1422
  330MOL0     C44433  11.582  10.287   3.413 -0.1322 -0.0096  1.0167
  330MOL0     C44434  11.711  10.320   3.407  0.7697  0.5782 -0.3579
  330MOL0     C44435  11.806  10.211   3.429  0.3846 -0.0532  0.5584
  330MOL0     C44436  11.942  10.257   3.470 -0.2371  0.1983 -0.8624
  330MOL0     C44437  12.012  10.334   3.352  0.2644 -0.2123 -0.4677
  330MOL0     C44438  12.156  10.355   3.388  0.1777 -0.0382 -0.3121
  330MOL0     O44439  12.228  10.229   3.405  0.4169  0.0992 -0.8017
  330MOL0     C44440  12.361  10.213   3.424 -0.4235  0.0141  0.5790
  330MOL0     C44441  12.457  10.314   3.459  0.7231  0.3567 -0.9723
  330MOL0     C44442  12.593  10.284   3.488  0.8524  0.4280 -0.2086
  330MOL0     C44443  12.637  10.152   3.471  0.8370  0.1756  0.3365
  330MOL0     C44444  12.778  10.120   3.514  0.1521 -0.6736  0.4102
  330MOL0     O44445  12.854  10.232   3.508 -0.6400  0.3166  0.4915
  330MOL0     C44446  12.996  10.232   3.510 -0.3275  0.1828  0.6557
  330MOL0     C44447  13.077  10.142   3.440  0.0102  1.1357 -0.3011
  330MOL0     C44448  13.215  10.144   3.452  0.1435  0.0361 -0.6314
  330MOL0     C44449  13.269  10.250   3.534 -0.4913  0.3090  0.1066
  330MOL0     O44450  13.395  10.277   3.559  0.2789 -0.2557 -0.0560
  330MOL0     C44451  13.501  10.187   3.525 -0.7325 -0.3799 -1.4404
  330MOL0     C44452  13.646  10.238   3.562 -0.5551 -0.2967  0.2060
  330MOL0     C44453  13.671  10.248   3.712  0.4468 -0.6721 -0.1722
  330MOL0     C44454  13.820  10.225   3.742 -0.1010  0.0839  0.6792
  330MOL0     C44455  13.850  10.211   3.883 -0.2043  0.1279 -0.1088
  330MOL0     C44456  14.000  10.219   3.901  0.5798 -0.1760 -0.1829
  330MOL0     C44457  14.034  10.200   4.053  1.1654  0.1452 -0.8397
  330MOL0     C44458  14.186  10.240   4.083 -0.1520  0.2558  0.2273
  330MOL0    Cl44459  14.311  10.130   4.005 -0.2674  0.1733 -0.1112
  330MOL0     C44460  13.188  10.348   3.589  0.0915  0.5599 -0.3845
  330MOL0     C44461  13.045  10.338   3.581 -0.1935 -0.5830 -0.5968
  330MOL0     O44462  12.815  10.007   3.527  0.7121 -0.0353  0.3292
  330MOL0     C44463  12.545  10.050   3.439 -0.0680  0.3711  0.3561
  330MOL0     C44464  12.410  10.079   3.416  0.6356 -0.3616 -0.2207
  330MOL0     N44465  11.730  10.452   3.371 -0.0815 -0.7992  0.8590
  330MOL0     N44466  11.617  10.500   3.370  0.3252 -0.8768 -0.7594
  330MOL0     C44467  10.488  10.239   3.121 -0.2085  0.8829  0.6475
  330MOL0     C44468  10.382  10.207   3.208  0.2509  0.8565 -0.2231
  330MOL0     C44469   9.979  10.171   3.437  0.4597 -0.7971  0.4749
  330MOL0     C44470   9.886  10.258   3.382  0.3229 -0.1948 -0.0577
  330MOL0     C44471   9.758  10.274   3.443  0.4016  0.1598  0.1936
  330MOL0     C44472   9.725  10.198   3.554  0.5455 -0.4935 -0.8068
  330MOL0     O44473   9.602  10.197   3.610  0.0328 -0.2992 -0.0192
  330MOL0     C44474   9.511  10.302   3.577 -0.5721  0.2905 -0.5425
  330MOL0     C44475   9.414  10.325   3.701  0.4271 -0.1598 -0.0538
  330MOL0     C44476   9.307  10.214   3.717  0.5755  0.7691 -0.7769
  330MOL0     C44477   9.198  10.263   3.813 -0.0226 -0.0187  0.3857
  330MOL0     C44478   9.233  10.269   3.953 -0.3897  0.7085 -0.6131
  330MOL0     C44479   9.258  10.275   4.069 -0.6856 -0.5744 -0.6688
  330MOL0     C44480   9.816  10.106   3.592  0.0549  0.9349  0.5335
  330MOL0     C44481   9.948  10.097   3.548  0.1502  0.6056 -0.1437
  330MOL0     C44482  10.047  10.011   3.619  0.1785 -0.7946 -0.1609
  330MOL0     H44483  10.143  10.258   2.971  1.6444  0.6258 -0.8055
  330MOL0     H44484  10.320  10.303   2.841 -1.4401 -1.5000  0.5214
  330MOL0     H44485  10.697  10.201   2.958 -0.3533 -0.0532  1.9196
  330MOL0     H44486  10.731  10.310   2.818  0.6606 -2.6857  0.8913
  330MOL0     H44487  10.669  10.432   3.110  0.6990  0.6608  0.2459
  330MOL0     H44488  10.746  10.509   2.985 -0.5061  1.2485  1.6678
  330MOL0     H44489  10.935  10.315   3.006 -0.5564  1.0517 -0.4868
  330MOL0     H44490  10.852  10.291   3.161 -0.8407  3.2518  3.0689
  330MOL0     H44491  10.990  10.546   3.070  2.1562 -0.4555 -0.4554
  330MOL0     H44492  10.918  10.512   3.232  0.9238  1.5630 -0.4015
  330MOL0     H44493  11.105  10.338   3.272 -3.2973 -1.1405 -0.3288
  330MOL0     H44494  11.142  10.348   3.096 -1.8191 -0.6949  0.0714
  330MOL0     H44495  11.213  10.575   3.110  1.0061 -1.4489 -0.0234
  330MOL0     H44496  11.168  10.593   3.279  0.3135 -1.1838  1.1452
  330MOL0     H44497  11.417  10.566   3.220  5.0183 -3.5828  3.5843
  330MOL0     H44498  11.382  10.414   3.149  0.9645  0.6990  0.3685
  330MOL0     H44499  11.349  10.512   3.445 -0.6843  0.6722 -0.0628
  330MOL0     H44500  11.313  10.349   3.397  0.4031 -0.2192  1.0249
  330MOL0     H44501  11.534  10.193   3.440  0.4702  0.2660  3.2732
  330MOL0     H44502  11.761  10.155   3.512  2.1780  0.3897  1.8929
  330MOL0     H44503  11.807  10.152   3.337  1.1839  0.1990  0.3998
  330MOL0     H44504  11.933  10.324   3.556 -2.6015 -1.2344  0.1113
  330MOL0     H44505  12.008  10.174   3.496  0.4664  1.4462  1.6629
  330MOL0     H44506  11.969  10.435   3.345 -0.2868 -0.4988 -1.2918
  330MOL0     H44507  12.003  10.276   3.260 -2.2454 -0.3080 -0.2246
  330MOL0     H44508  12.168  10.417   3.478  3.3163  0.1011 -0.7204
  330MOL0     H44509  12.198  10.404   3.300  0.1238  0.7312  0.0832
  330MOL0     H44510  12.426  10.410   3.498  2.8037  0.5152  0.4248
  330MOL0     H44511  12.650  10.368   3.525 -0.6251  1.0860  0.6600
  330MOL0     H44512  13.023  10.064   3.386  0.1515 -1.1687  2.5908
  330MOL0     H44513  13.290  10.082   3.404  0.7072 -0.2103  0.5393
  330MOL0     H44514  13.478  10.095   3.578 -4.2152  0.3699 -1.4109
  330MOL0     H44515  13.515  10.170   3.418 -0.1305 -3.9181 -0.9109
  330MOL0     H44516  13.710  10.155   3.531  0.1643  0.4063 -0.2226
  330MOL0     H44517  13.662  10.334   3.511  0.8573 -0.2035  0.7873
  330MOL0     H44518  13.633  10.341   3.753  0.5205 -0.3393 -0.8379
  330MOL0     H44519  13.619  10.162   3.756 -1.5748  1.3939  1.7084
  330MOL0     H44520  13.875  10.310   3.701  0.3184  0.1314  1.3310
  330MOL0     H44521  13.861  10.139   3.689 -0.4379  0.5391 -0.3566
  330MOL0     H44522  13.810  10.119   3.927  0.9751 -1.7490 -2.7388
  330MOL0     H44523  13.794  10.291   3.934  1.0626  0.2719  1.1100
  330MOL0     H44524  14.055  10.146   3.840 -1.4133 -3.6186  1.8555
  330MOL0     H44525  14.048  10.315   3.878  0.1115 -0.4450 -2.6199
  330MOL0     H44526  14.008  10.100   4.086 -0.3323  1.2004  1.3869
  330MOL0     H44527  13.975  10.259   4.123  1.4636  2.6566 -2.5744
  330MOL0     H44528  14.204  10.345   4.058  0.4723  0.6402  2.1702
  330MOL0     H44529  14.206  10.222   4.189 -0.2971 -0.6785  0.1061
  330MOL0     H44530  13.238  10.433   3.635  1.7258  0.0319 -1.1021
  330MOL0     H44531  12.997  10.420   3.634  0.4742 -1.9471  2.3239
  330MOL0     H44532  12.572   9.947   3.418  0.6289  0.6583 -0.2088
  330MOL0     H44533  12.350   9.994   3.385  0.1037  0.6122 -1.9785
  330MOL0     H44534  10.590  10.230   3.154 -0.4848 -1.3503  1.0194
  330MOL0     H44535  10.395  10.167   3.308 -0.7224  0.5312 -0.2093
  330MOL0     H44536   9.914  10.316   3.294 -5.7313  4.5533  0.4689
  330MOL0     H44537   9.681  10.322   3.384  1.0955  1.6681  0.4580
  330MOL0     H44538   9.472  10.279   3.478 -1.0206 -0.2188 -0.2451
  330MOL0     H44539   9.564  10.398   3.573 -0.9558  0.7358  2.6216
  330MOL0     H44540   9.365  10.422   3.687 -0.4859 -0.4694  0.8352
  330MOL0     H44541   9.475  10.322   3.791 -1.4254 -2.8695  1.2366
  330MOL0     H44542   9.354  10.125   3.760 -1.3097 -0.2999 -0.8023
  330MOL0     H44543   9.272  10.199   3.615 -1.9780  2.8366 -0.2965
  330MOL0     H44544   9.153  10.357   3.777 -1.3043 -0.0287  1.8600
  330MOL0     H44545   9.118  10.188   3.813  1.9776 -2.2540  0.6305
  330MOL0     H44546   9.279  10.258   4.173 -0.9910 -0.1479 -0.5338
  330MOL0     H44547   9.794  10.038   3.674 -0.3872  1.3942  0.8023
  330MOL0     H44548  10.134  10.067   3.655 -0.5796  0.5362 -0.3129
  330MOL0     H44549  10.002   9.986   3.715  2.8373 -0.1362  1.3543
  330MOL0     H44550  10.061   9.912   3.574  2.0619 -0.0698 -1.2760
  331MOL0     O44551   2.441   5.329   6.691 -0.4134  0.4547 -0.2249
  331MOL0     C44552   2.351   5.313   6.775 -0.0848  0.5963 -1.1107
  331MOL0     O44553   2.369   5.291   6.912  0.4748 -0.7956 -0.0435
  331MOL0     C44554   2.474   5.353   6.973 -0.2240 -0.0462  0.0198
  331MOL0     C44555   2.573   5.271   7.038  0.0656  0.3903  0.0147
  331MOL0     C44556   2.672   5.346   7.104 -0.0917  0.3146 -0.2310
  331MOL0     C44557   2.678   5.484   7.114  0.4928 -0.8145 -0.4308
  331MOL0     O44558   2.793   5.541   7.164  0.4335  0.3749  0.1044
  331MOL0     C44559   2.789   5.673   7.210  0.8928  0.1707  0.5456
  331MOL0     C44560   2.933   5.720   7.237  0.9913  0.5178 -0.7982
  331MOL0     C44561   3.006   5.615   7.340 -0.5299 -0.1624  0.3060
  331MOL0     C44562   2.958   5.620   7.483  1.2463 -0.0487  0.9304
  331MOL0     C44563   3.017   5.511   7.577 -0.4733  0.1839  0.0208
  331MOL0     C44564   3.170   5.495   7.567 -0.2915  1.1617 -0.2192
  331MOL0     C44565   3.214   5.380   7.657  0.4424 -0.5515 -0.4955
  331MOL0     C44566   3.190   5.411   7.817 -0.0701  0.8176 -0.9689
  331MOL0     N44567   3.257   5.301   7.892  0.6525 -0.1971  0.2353
  331MOL0     C44568   3.196   5.194   7.937  0.0614 -0.4401  0.1187
  331MOL0     C44569   3.288   5.108   7.982  0.0540 -0.6684  0.0600
  331MOL0     C44570   3.261   4.981   8.050 -0.5335  0.5024 -0.7948
  331MOL0     C44571   3.379   4.931   8.143 -0.4541 -0.2813 -0.2148
  331MOL0     C44572   3.459   4.822   8.069  0.3519  0.0589  0.8235
  331MOL0     C44573   3.606   4.824   8.089 -0.8112 -0.1677 -0.1180
  331MOL0     O44574   3.667   4.709   8.030  0.4679 -0.4156  0.2586
  331MOL0     C44575   3.805   4.695   8.041  0.1198 -0.1852  0.9101
  331MOL0     C44576   3.859   4.567   8.035 -0.1614  0.7827  0.1310
  331MOL0     C44577   4.003   4.546   8.055  0.5963  0.4572 -0.0657
  331MOL0     C44578   4.090   4.651   8.070 -1.0365  0.3980  0.2747
  331MOL0     C44579   4.235   4.642   8.063 -0.2996 -0.6086  0.6832
  331MOL0     O44580   4.297   4.519   8.034 -0.4407 -0.6704  0.0365
  331MOL0     C44581   4.425   4.504   8.074 -0.1144 -0.4162  0.5576
  331MOL0     C44582   4.508   4.429   7.988  0.7890  0.3777 -0.3957
  331MOL0     C44583   4.645   4.396   8.033 -0.1735 -0.3867  0.8356
  331MOL0     C44584   4.687   4.440   8.159  0.6850 -0.0450 -0.0729
  331MOL0     O44585   4.825   4.421   8.198  0.2514 -0.1387 -0.2331
  331MOL0     C44586   4.914   4.344   8.114  0.0237 -0.8985 -0.9596
  331MOL0     C44587   5.057   4.363   8.170  0.4223  0.4056 -0.3494
  331MOL0     C44588   5.169   4.308   8.071  0.2136 -0.2900 -0.1743
  331MOL0     C44589   5.286   4.276   8.156 -0.6453 -0.5237 -0.0011
  331MOL0     C44590   5.408   4.227   8.072 -0.4071 -0.0181 -0.1796
  331MOL0     C44591   5.533   4.219   8.167 -0.8155 -0.0375  0.2030
  331MOL0     C44592   5.637   4.119   8.117 -0.7608 -0.5868 -0.0908
  331MOL0     C44593   5.756   4.095   8.210  0.4266 -0.5710 -0.0481
  331MOL0    Cl44594   5.874   4.225   8.206  0.0763  0.1664 -0.3113
  331MOL0     C44595   4.599   4.509   8.235 -0.3547  0.1883 -0.4194
  331MOL0     C44596   4.466   4.535   8.203 -0.8650  0.3919 -0.9942
  331MOL0     O44597   4.299   4.743   8.080 -0.9855  0.1990  0.1580
  331MOL0     C44598   4.031   4.777   8.074 -0.2592  0.2005  0.0569
  331MOL0     C44599   3.893   4.803   8.068 -0.2981 -0.2376  1.0362
  331MOL0     N44600   3.409   5.165   7.940 -0.8032  0.4496  0.1084
  331MOL0     N44601   3.390   5.283   7.889  0.5110  0.0987 -0.2297
  331MOL0     C44602   2.565   5.554   7.072  0.3201  0.3282  0.1096
  331MOL0     C44603   2.468   5.491   6.998 -0.4121  0.2854  0.4161
  331MOL0     C44604   2.217   5.271   6.740 -0.2329  1.1521  0.7438
  331MOL0     C44605   2.170   5.153   6.786 -0.1774  0.8448 -0.6880
  331MOL0     C44606   2.047   5.106   6.750 -0.5318 -0.1453 -0.4834
  331MOL0     C44607   1.962   5.185   6.671  0.3750  0.3076  0.1679
  331MOL0     O44608   1.839   5.129   6.642  0.2688 -0.0761 -0.5728
  331MOL0     C44609   1.735   5.223   6.606  0.6328 -0.4025  0.2059
  331MOL0     C44610   1.604   5.143   6.589 -0.2067 -0.9166  0.0656
  331MOL0     C44611   1.523   5.130   6.715  0.7036  0.7986 -0.0677
  331MOL0     C44612   1.577   5.030   6.815  0.0586  0.1781  0.7337
  331MOL0     C44613   1.461   4.990   6.906  0.0566  0.5245  0.2845
  331MOL0     C44614   1.372   4.952   6.985 -0.0153  0.7450 -0.3896
  331MOL0     C44615   2.007   5.314   6.629  0.0703 -0.1571  0.9917
  331MOL0     C44616   2.138   5.355   6.659 -0.2305 -0.9178  0.3849
  331MOL0     C44617   2.181   5.496   6.624  0.0418 -0.6068  0.2520
  331MOL0     H44618   2.578   5.163   7.029  2.4947  0.3459  1.2519
  331MOL0     H44619   2.747   5.283   7.151 -0.5287  0.7921  1.1925
  331MOL0     H44620   2.745   5.742   7.138 -1.3042 -1.3651  0.3107
  331MOL0     H44621   2.728   5.674   7.301 -0.4441 -3.8000 -0.0999
  331MOL0     H44622   2.928   5.819   7.284 -0.6988  0.4273 -0.7371
  331MOL0     H44623   2.984   5.723   7.141  0.0721  0.5739 -1.2986
  331MOL0     H44624   3.112   5.643   7.344 -0.3771 -0.8102  2.4385
  331MOL0     H44625   2.994   5.511   7.310 -2.9256  0.4324 -1.0224
  331MOL0     H44626   2.964   5.722   7.520  0.1228  0.8292 -1.1648
  331MOL0     H44627   2.851   5.602   7.470  0.8178  3.1946 -0.8749
  331MOL0     H44628   2.982   5.523   7.680  1.0589 -2.9349  1.0537
  331MOL0     H44629   2.986   5.409   7.552  2.2583 -0.6367 -0.3274
  331MOL0     H44630   3.196   5.470   7.464 -2.7320  1.5789 -1.0218
  331MOL0     H44631   3.222   5.587   7.595  0.0572  0.5091  1.4023
  331MOL0     H44632   3.319   5.353   7.642 -0.5801 -3.6406 -3.3089
  331MOL0     H44633   3.158   5.290   7.632 -0.7974  0.4291 -1.3950
  331MOL0     H44634   3.237   5.506   7.846  3.2880 -1.2206  1.0194
  331MOL0     H44635   3.086   5.414   7.851  0.3173 -2.0091  0.7442
  331MOL0     H44636   3.088   5.186   7.944 -0.2048 -0.8390 -2.8252
  331MOL0     H44637   3.172   4.982   8.114 -0.9924 -1.9736 -1.2902
  331MOL0     H44638   3.244   4.906   7.972  1.9299 -0.1844 -0.7465
  331MOL0     H44639   3.437   5.020   8.168 -0.0711 -0.1678 -1.4392
  331MOL0     H44640   3.343   4.890   8.238  2.1262 -4.5890 -0.8453
  331MOL0     H44641   3.426   4.818   7.965 -2.6475 -2.0528  1.7348
  331MOL0     H44642   3.426   4.726   8.109  0.7420 -0.0383  0.9156
  331MOL0     H44643   3.627   4.822   8.196  1.5990  0.2129 -0.5347
  331MOL0     H44644   3.648   4.911   8.038  2.3368 -1.0622  0.7132
  331MOL0     H44645   3.785   4.489   8.023  1.4061 -0.6885 -0.3727
  331MOL0     H44646   4.049   4.447   8.050  2.0977  1.1231 -0.1339
  331MOL0     H44647   4.467   4.388   7.897  0.4062  0.7578 -0.3942
  331MOL0     H44648   4.705   4.337   7.965  0.4827  1.9432 -0.7186
  331MOL0     H44649   4.886   4.239   8.126 -0.8496 -0.4451  1.7867
  331MOL0     H44650   4.906   4.384   8.013 -5.0883 -0.0202 -0.4401
  331MOL0     H44651   5.071   4.471   8.180 -1.2349  0.9436 -2.8514
  331MOL0     H44652   5.060   4.314   8.267  0.8248 -1.2438 -1.1595
  331MOL0     H44653   5.128   4.216   8.028 -0.8079  0.3003 -0.5056
  331MOL0     H44654   5.189   4.371   7.984 -2.5980 -1.0475 -1.4998
  331MOL0     H44655   5.256   4.202   8.230  0.1153  1.4605  2.4300
  331MOL0     H44656   5.318   4.362   8.216 -2.9270 -0.4759  1.2330
  331MOL0     H44657   5.410   4.284   7.979 -0.1574  2.0348  1.0367
  331MOL0     H44658   5.380   4.124   8.045 -0.7507  0.0001  0.0917
  331MOL0     H44659   5.577   4.319   8.176 -2.0600  0.5147  0.3928
  331MOL0     H44660   5.499   4.196   8.268 -3.4872  2.7636  0.0920
  331MOL0     H44661   5.677   4.148   8.019 -0.6272  0.8525  0.3707
  331MOL0     H44662   5.594   4.018   8.118  2.1856 -1.9496  1.8861
  331MOL0     H44663   5.713   4.085   8.310 -4.1078  1.1672 -1.5402
  331MOL0     H44664   5.796   4.004   8.165  0.0201  0.0168 -1.6715
  331MOL0     H44665   4.634   4.538   8.334 -3.1853  0.3976  0.6248
  331MOL0     H44666   4.390   4.576   8.268 -1.0254 -2.3071  0.6816
  331MOL0     H44667   4.090   4.866   8.097  2.4575 -1.8426  1.5901
  331MOL0     H44668   3.866   4.907   8.088  2.3435  0.8314 -0.3690
  331MOL0     H44669   2.555   5.661   7.087 -1.0862  0.2023  0.2055
  331MOL0     H44670   2.388   5.557   6.967  0.9571  1.6689 -0.3271
  331MOL0     H44671   2.233   5.090   6.848 -2.6039  1.2877  2.4689
  331MOL0     H44672   2.003   5.015   6.789 -0.5165  0.7530  1.8102
  331MOL0     H44673   1.759   5.277   6.514 -3.8425  1.2120 -0.2698
  331MOL0     H44674   1.718   5.294   6.688 -1.2816 -2.3523  1.6174
  331MOL0     H44675   1.621   5.042   6.551 -2.5447 -1.9704  1.5832
  331MOL0     H44676   1.544   5.192   6.511 -0.8705 -1.3583  0.2865
  331MOL0     H44677   1.419   5.103   6.694  1.0032 -2.3146  1.8226
  331MOL0     H44678   1.516   5.228   6.762 -2.2466  1.2148 -1.1448
  331MOL0     H44679   1.624   4.944   6.768 -1.1445  0.6733 -1.5241
  331MOL0     H44680   1.656   5.076   6.875  1.7019 -1.7114  0.1234
  331MOL0     H44681   1.293   4.933   7.054 -0.0981  5.2154  1.0800
  331MOL0     H44682   1.957   5.381   6.559  2.1550  1.7373  1.1875
  331MOL0     H44683   2.287   5.515   6.643 -0.3892 -0.6574  3.0407
  331MOL0     H44684   2.154   5.518   6.520 -0.5737 -0.3778  0.4574
  331MOL0     H44685   2.126   5.565   6.688  2.2889 -0.9111  2.6932
  332MOL0     O44686   3.470   8.145   5.413 -0.3785  0.1935 -0.5975
  332MOL0     C44687   3.484   8.202   5.309  0.2295 -0.6860 -0.1257
  332MOL0     O44688   3.588   8.285   5.268  0.1308 -0.2259 -0.0663
  332MOL0     C44689   3.697   8.284   5.349  0.1225 -0.3382 -0.4299
  332MOL0     C44690   3.743   8.395   5.423 -0.3275 -0.4413 -0.1457
  332MOL0     C44691   3.851   8.395   5.502 -0.1373  0.3917 -0.3082
  332MOL0     C44692   3.919   8.275   5.515 -0.2110 -0.9477  0.5996
  332MOL0     O44693   4.019   8.259   5.611  0.2492 -0.5272  0.0293
  332MOL0     C44694   4.058   8.366   5.697  0.3553 -0.4094  0.2871
  332MOL0     C44695   4.179   8.338   5.787  0.6722 -0.0614 -0.6334
  332MOL0     C44696   4.152   8.240   5.905 -0.1839 -0.5408 -0.9279
  332MOL0     C44697   4.019   8.242   5.965  0.5673 -0.4176 -0.7514
  332MOL0     C44698   4.002   8.157   6.097 -0.9433  0.3140 -0.2724
  332MOL0     C44699   3.856   8.135   6.132  0.1460  0.4002 -0.4398
  332MOL0     C44700   3.854   8.062   6.278 -0.5513 -0.2296 -0.4403
  332MOL0     C44701   3.838   8.159   6.400  0.0976 -0.2204 -0.4190
  332MOL0     N44702   3.913   8.107   6.512  0.3440 -0.0986 -0.2636
  332MOL0     C44703   3.873   8.005   6.602 -0.0004 -0.6759 -0.2155
  332MOL0     C44704   3.968   8.013   6.706  0.2549  0.1525 -0.4172
  332MOL0     C44705   3.954   7.934   6.835 -0.2638  0.5085 -0.4560
  332MOL0     C44706   4.062   7.824   6.834  1.3606  0.6181 -1.1054
  332MOL0     C44707   4.205   7.853   6.809 -0.8220  0.2263  0.7871
  332MOL0     C44708   4.265   7.941   6.920 -0.1586  0.4130  0.9855
  332MOL0     O44709   4.383   8.017   6.880 -0.0913 -0.2001  0.4676
  332MOL0     C44710   4.505   7.962   6.896  0.6797 -0.4532 -0.0958
  332MOL0     C44711   4.612   8.049   6.865 -0.8101 -0.0667  0.1133
  332MOL0     C44712   4.741   7.994   6.870 -0.3330  0.2033 -0.9053
  332MOL0     C44713   4.765   7.856   6.901 -1.3740 -0.4834  0.4970
  332MOL0     C44714   4.904   7.812   6.919 -0.4251 -1.6845 -0.6836
  332MOL0     O44715   5.002   7.902   6.879 -0.3687 -0.1550 -0.1117
  332MOL0     C44716   5.128   7.853   6.885 -0.2483  0.9209  0.4047
  332MOL0     C44717   5.198   7.856   7.007  0.7707 -0.1641 -0.2183
  332MOL0     C44718   5.329   7.798   7.018 -0.0703  0.8241  0.2181
  332MOL0     C44719   5.386   7.741   6.903 -0.4350  0.2229  0.6462
  332MOL0     O44720   5.510   7.689   6.883  0.3353 -0.5271 -0.5430
  332MOL0     C44721   5.605   7.695   6.993 -0.2963 -0.5088 -0.0786
  332MOL0     C44722   5.739   7.637   6.932  0.6782  0.6605 -0.5767
  332MOL0     C44723   5.828   7.585   7.041  0.9708  0.4665 -0.4801
  332MOL0     C44724   5.904   7.462   6.989  0.0688 -0.3478  0.3047
  332MOL0     C44725   6.004   7.402   7.085  0.5486  0.0420  0.0774
  332MOL0     C44726   6.137   7.348   7.025 -0.2327  0.6504 -0.4208
  332MOL0     C44727   6.226   7.458   6.959 -0.6836 -0.0862  0.7805
  332MOL0     C44728   6.374   7.431   6.933  0.1018 -0.1103  0.3179
  332MOL0    Cl44729   6.384   7.283   6.823  0.2662 -0.1414 -0.3053
  332MOL0     C44730   5.312   7.737   6.786  0.5642 -0.0371 -0.4914
  332MOL0     C44731   5.181   7.790   6.768  0.3551 -1.2838  0.4348
  332MOL0     O44732   4.925   7.700   6.953  0.6558 -0.7347  0.4755
  332MOL0     C44733   4.652   7.772   6.923 -0.8568  0.3852  0.3564
  332MOL0     C44734   4.523   7.821   6.916  0.1681  0.3313 -0.0817
  332MOL0     N44735   4.056   8.112   6.680  0.1703  0.3731 -0.6922
  332MOL0     N44736   4.023   8.167   6.564  0.3763  0.0184 -0.1854
  332MOL0     C44737   3.894   8.167   5.431  1.1845  0.6344  0.5514
  332MOL0     C44738   3.779   8.176   5.350 -0.5245  1.0237 -0.4157
  332MOL0     C44739   3.365   8.191   5.218 -0.4029  0.5082  0.6621
  332MOL0     C44740   3.278   8.081   5.236  0.9859  0.3303  0.0193
  332MOL0     C44741   3.179   8.056   5.151 -0.6299  0.8422  0.0768
  332MOL0     C44742   3.146   8.133   5.041 -1.2414 -0.0462  0.8742
  332MOL0     O44743   3.043   8.092   4.958 -0.8021 -0.8259  0.5656
  332MOL0     C44744   3.009   8.175   4.848  0.3659 -0.0122 -0.6814
  332MOL0     C44745   2.911   8.105   4.746 -0.3441 -0.0212 -0.1942
  332MOL0     C44746   2.802   8.021   4.805 -0.2724 -0.1600 -0.3788
  332MOL0     C44747   2.717   7.960   4.692  0.4732 -0.0591 -0.2058
  332MOL0     C44748   2.609   8.057   4.657 -0.7526 -0.0591  0.2063
  332MOL0     C44749   2.526   8.127   4.619 -0.6061 -0.2829 -0.6136
  332MOL0     C44750   3.234   8.241   5.014 -0.2300 -0.4187  0.0096
  332MOL0     C44751   3.338   8.274   5.102  0.5698 -0.4546 -0.4447
  332MOL0     C44752   3.406   8.400   5.063 -0.4768  0.6065  0.2611
  332MOL0     H44753   3.681   8.484   5.422 -2.0985 -1.6193  0.0390
  332MOL0     H44754   3.864   8.481   5.567 -0.5752  0.9886 -1.0088
  332MOL0     H44755   4.084   8.445   5.626 -0.1246 -0.5669 -0.0679
  332MOL0     H44756   3.983   8.405   5.767  0.0577 -1.4397  0.5524
  332MOL0     H44757   4.226   8.429   5.825 -0.6492  1.9463 -3.4398
  332MOL0     H44758   4.256   8.288   5.727  0.9447  0.4054 -0.6838
  332MOL0     H44759   4.219   8.252   5.990 -0.9268 -2.2920 -0.0611
  332MOL0     H44760   4.174   8.141   5.863 -0.0131 -0.4843 -0.9732
  332MOL0     H44761   3.997   8.346   5.991 -1.4460 -1.2022  0.8709
  332MOL0     H44762   3.942   8.219   5.891 -0.0094  1.9396 -0.9824
  332MOL0     H44763   4.048   8.061   6.073 -3.1990 -0.7605 -0.6057
  332MOL0     H44764   4.049   8.208   6.182 -2.1155  1.5502 -0.3300
  332MOL0     H44765   3.809   8.232   6.143  1.9039  1.2110  0.3936
  332MOL0     H44766   3.810   8.069   6.058  1.5673 -2.2727  0.8852
  332MOL0     H44767   3.950   8.011   6.288 -0.2939  0.2906 -0.2344
  332MOL0     H44768   3.764   8.000   6.274 -2.1981  2.0534 -0.8422
  332MOL0     H44769   3.875   8.260   6.375 -0.6313  0.5507  1.4452
  332MOL0     H44770   3.735   8.168   6.433  1.0347  0.8034  2.5338
  332MOL0     H44771   3.784   7.945   6.587  0.6000 -1.4636 -0.7064
  332MOL0     H44772   3.979   8.004   6.915 -0.9362  0.0199  0.1958
  332MOL0     H44773   3.850   7.902   6.844  0.2758 -1.0181  0.9591
  332MOL0     H44774   4.055   7.783   6.935  0.7365  0.2051 -1.3069
  332MOL0     H44775   4.040   7.746   6.761  2.3147 -0.7400  0.0144
  332MOL0     H44776   4.207   7.900   6.710 -1.6197  3.6068  2.2399
  332MOL0     H44777   4.249   7.753   6.805 -2.6727 -0.7202  2.7274
  332MOL0     H44778   4.293   7.878   7.005  1.6313  0.3475  0.3955
  332MOL0     H44779   4.190   8.010   6.960  0.6129  0.4822  2.3895
  332MOL0     H44780   4.608   8.155   6.839  2.6350  0.1135 -0.1464
  332MOL0     H44781   4.831   8.050   6.847  2.0351 -2.6327  0.7712
  332MOL0     H44782   5.139   7.904   7.084  1.4715  1.3271 -0.5921
  332MOL0     H44783   5.398   7.804   7.101  1.3857  1.0225 -0.9822
  332MOL0     H44784   5.619   7.798   7.026 -1.3807 -0.4531  0.2596
  332MOL0     H44785   5.566   7.635   7.076  1.8752  1.0049  2.1825
  332MOL0     H44786   5.715   7.571   6.848 -2.5060 -0.4279  1.0421
  332MOL0     H44787   5.801   7.718   6.891  1.1569  0.7137  0.2147
  332MOL0     H44788   5.900   7.658   7.078  0.3459  1.9726 -2.1159
  332MOL0     H44789   5.768   7.551   7.126  0.0648  0.7767 -0.9864
  332MOL0     H44790   5.947   7.478   6.890 -0.6154  0.9790  0.2097
  332MOL0     H44791   5.825   7.387   6.976 -1.8009  1.4533  0.7640
  332MOL0     H44792   5.954   7.331   7.152  1.9202 -0.7962  0.2447
  332MOL0     H44793   6.023   7.488   7.151  0.0848 -0.0266  0.3042
  332MOL0     H44794   6.196   7.302   7.106 -0.5127 -1.5325 -1.3966
  332MOL0     H44795   6.105   7.270   6.956 -2.3019 -0.3586  1.5290
  332MOL0     H44796   6.229   7.553   7.014 -1.6588 -1.0792  2.6245
  332MOL0     H44797   6.178   7.490   6.866 -1.1390  2.0940  1.6860
  332MOL0     H44798   6.419   7.517   6.881  0.6571  0.3952  1.5999
  332MOL0     H44799   6.430   7.420   7.026  1.9341  1.5466 -0.5161
  332MOL0     H44800   5.364   7.710   6.695  0.7824  2.5049 -1.1821
  332MOL0     H44801   5.142   7.796   6.667  0.9561 -1.0669  0.2113
  332MOL0     H44802   4.658   7.666   6.942 -2.8290 -0.1337 -1.5331
  332MOL0     H44803   4.441   7.751   6.924  0.7223 -0.2279  0.8499
  332MOL0     H44804   3.950   8.074   5.438  0.3006  0.0956  0.7084
  332MOL0     H44805   3.741   8.104   5.279  2.3168 -0.1103 -0.9167
  332MOL0     H44806   3.280   7.997   5.305 -1.7879  0.4791  0.4111
  332MOL0     H44807   3.120   7.968   5.173  0.6932 -0.5076 -1.5356
  332MOL0     H44808   3.098   8.209   4.794  2.2173  1.6819  3.0870
  332MOL0     H44809   2.957   8.261   4.892  1.1563  0.1604 -0.0760
  332MOL0     H44810   2.965   8.046   4.672 -4.1394 -1.7503 -1.8770
  332MOL0     H44811   2.863   8.187   4.693  1.5492  0.2870 -1.5132
  332MOL0     H44812   2.741   8.072   4.880  1.7594  0.2314  1.1083
  332MOL0     H44813   2.849   7.942   4.864  3.3975  1.6024 -0.6738
  332MOL0     H44814   2.775   7.940   4.601  0.6754 -1.5724  0.2227
  332MOL0     H44815   2.673   7.866   4.726 -0.6346  0.4139 -0.2614
  332MOL0     H44816   2.441   8.188   4.599  0.6214  1.1258 -1.7927
  332MOL0     H44817   3.217   8.301   4.925  1.8182 -1.1016 -0.8871
  332MOL0     H44818   3.428   8.396   4.956  1.2322 -3.2176  0.5874
  332MOL0     H44819   3.345   8.485   5.093 -1.3491  0.0080  0.2148
  332MOL0     H44820   3.507   8.411   5.104 -0.6082 -0.4654  0.9089
  333MOL0     O44821   3.972   2.332   1.028 -0.0156 -0.0957  0.0923
  333MOL0     C44822   3.926   2.237   0.966  0.2541  0.8458  0.3621
  333MOL0     O44823   3.933   2.108   1.013  0.1286  0.8577 -0.5323
  333MOL0     C44824   4.030   2.061   1.101 -0.2507  0.4245 -0.3125
  333MOL0     C44825   4.007   1.941   1.162  1.1818 -0.6325 -0.1642
  333MOL0     C44826   4.098   1.895   1.259  0.1177  0.3714 -0.1008
  333MOL0     C44827   4.212   1.967   1.286 -0.5001  0.1451 -0.6341
  333MOL0     O44828   4.311   1.944   1.385  0.3933  0.0551 -0.2284
  333MOL0     C44829   4.283   1.888   1.512  0.1370  0.1017 -0.2631
  333MOL0     C44830   4.315   1.742   1.508 -0.8432 -0.3430  0.1970
  333MOL0     C44831   4.471   1.713   1.495  0.2816 -0.2924  0.4167
  333MOL0     C44832   4.526   1.742   1.348  0.2005 -0.6887 -0.0903
  333MOL0     C44833   4.674   1.706   1.339 -0.1679  0.8609  0.6693
  333MOL0     C44834   4.726   1.739   1.194  0.2736  0.6033 -0.6584
  333MOL0     C44835   4.857   1.667   1.167  0.2143  0.0179 -0.4494
  333MOL0     C44836   4.898   1.681   1.015  0.2550  0.2269 -0.0337
  333MOL0     N44837   4.951   1.816   0.983 -0.0320  0.3710  0.0637
  333MOL0     C44838   4.879   1.927   0.966 -0.1281  0.3015 -0.3711
  333MOL0     C44839   4.960   2.026   0.940  0.3473  0.0181 -0.9280
  333MOL0     C44840   4.908   2.161   0.894 -0.0592 -0.3684 -1.0463
  333MOL0     C44841   4.879   2.174   0.742  0.1941 -0.6007 -0.1904
  333MOL0     C44842   4.798   2.302   0.716  0.0264 -1.5721 -1.1064
  333MOL0     C44843   4.873   2.434   0.724  0.0042 -0.0168  0.0823
  333MOL0     O44844   4.982   2.439   0.631  0.5482  0.1164 -0.1317
  333MOL0     C44845   5.050   2.552   0.619 -1.0969 -0.1408  0.1773
  333MOL0     C44846   5.058   2.661   0.706 -0.4429  0.9070  0.5339
  333MOL0     C44847   5.143   2.770   0.690  0.1898 -0.1314 -0.8463
  333MOL0     C44848   5.227   2.776   0.581  0.2340  0.2373 -0.5484
  333MOL0     C44849   5.320   2.888   0.575 -0.4770  0.2640 -0.3948
  333MOL0     O44850   5.354   2.936   0.697 -0.3765  0.2957 -0.0887
  333MOL0     C44851   5.425   3.054   0.702  0.5033  0.7737  0.6554
  333MOL0     C44852   5.369   3.168   0.651  0.7369 -0.8675  0.5598
  333MOL0     C44853   5.434   3.289   0.661 -0.6905  0.2969 -0.8965
  333MOL0     C44854   5.558   3.305   0.726  0.0778  0.7050  0.0686
  333MOL0     O44855   5.616   3.426   0.750  0.4523  0.2612 -0.1132
  333MOL0     C44856   5.753   3.452   0.713  0.1967  0.2104  0.1714
  333MOL0     C44857   5.780   3.597   0.678 -0.9810  0.5689 -0.4922
  333MOL0     C44858   5.753   3.704   0.779 -0.0737  0.0880  0.4205
  333MOL0     C44859   5.608   3.739   0.798  0.1138  0.1581  0.6126
  333MOL0     C44860   5.588   3.807   0.935 -0.3104  0.7478  0.2937
  333MOL0     C44861   5.445   3.861   0.945 -0.2221  0.5415 -0.2885
  333MOL0     C44862   5.420   3.921   1.083 -0.1050 -1.0982  0.2208
  333MOL0     C44863   5.270   3.950   1.115  0.1882  0.3910  0.2208
  333MOL0    Cl44864   5.180   3.797   1.127  0.0137  0.2558 -0.2473
  333MOL0     C44865   5.616   3.188   0.773 -0.5704 -0.0674 -0.3034
  333MOL0     C44866   5.555   3.062   0.748  0.2759  0.2397  0.0766
  333MOL0     O44867   5.362   2.921   0.465 -1.3200 -0.4590 -0.0182
  333MOL0     C44868   5.216   2.672   0.481 -0.3347 -0.6029 -0.0852
  333MOL0     C44869   5.136   2.556   0.511  0.5045 -0.0690  0.0387
  333MOL0     N44870   5.087   1.978   0.957 -0.1273 -0.1425  0.0134
  333MOL0     N44871   5.086   1.858   0.987 -0.1166  0.5534  0.1147
  333MOL0     C44872   4.246   2.076   1.211  0.5836 -0.6459 -0.4196
  333MOL0     C44873   4.166   2.118   1.121  0.6517 -0.5771 -0.1673
  333MOL0     C44874   3.854   2.249   0.833  0.1551  0.2478  0.0571
  333MOL0     C44875   3.796   2.128   0.780  0.1596 -0.6015  0.1447
  333MOL0     C44876   3.739   2.128   0.647 -0.0474  0.4296  0.4030
  333MOL0     C44877   3.725   2.247   0.580 -0.6552 -0.0042  0.5136
  333MOL0     O44878   3.674   2.232   0.451  0.0911 -0.3102 -1.5437
  333MOL0     C44879   3.677   2.350   0.363 -1.2150 -0.9957  0.6673
  333MOL0     C44880   3.613   2.339   0.230  0.2727 -0.6947  0.3041
  333MOL0     C44881   3.477   2.411   0.232 -0.6639 -0.2315  0.2697
  333MOL0     C44882   3.406   2.412   0.094  0.3491 -0.1446 -0.4984
  333MOL0     C44883   3.265   2.438   0.117 -0.9667  0.0612  0.7823
  333MOL0     C44884   3.143   2.453   0.120  0.3135 -0.5404 -0.9402
  333MOL0     C44885   3.790   2.356   0.622 -0.5740  0.3842  0.2851
  333MOL0     C44886   3.849   2.363   0.748  0.5904 -0.1486  0.6980
  333MOL0     C44887   3.876   2.509   0.799  0.1121  1.0175  0.0381
  333MOL0     H44888   3.923   1.878   1.134  0.6665 -0.0987  0.1572
  333MOL0     H44889   4.068   1.801   1.302  0.0623 -0.2262 -1.3905
  333MOL0     H44890   4.338   1.928   1.598  0.1503 -0.0770 -0.1892
  333MOL0     H44891   4.176   1.895   1.532  0.3661  1.1511  0.7068
  333MOL0     H44892   4.268   1.692   1.423 -1.8306  4.3896 -2.4149
  333MOL0     H44893   4.286   1.692   1.601 -0.5345 -2.6701 -0.8721
  333MOL0     H44894   4.496   1.616   1.538  0.0861 -0.9347 -0.8738
  333MOL0     H44895   4.512   1.798   1.551 -0.5358  0.9417 -0.7961
  333MOL0     H44896   4.472   1.684   1.272 -0.1605 -0.1579 -0.2416
  333MOL0     H44897   4.520   1.846   1.316 -1.7085 -0.4178  1.0300
  333MOL0     H44898   4.742   1.759   1.406  1.8272 -0.6032 -0.1090
  333MOL0     H44899   4.683   1.597   1.348 -1.4119  0.5172 -1.6732
  333MOL0     H44900   4.650   1.712   1.121  0.6755  0.3253 -0.9755
  333MOL0     H44901   4.736   1.848   1.186 -0.7098  1.0094  2.2887
  333MOL0     H44902   4.851   1.560   1.188  3.3824  0.1274  1.5850
  333MOL0     H44903   4.939   1.707   1.227  2.2164 -1.5955 -1.9615
  333MOL0     H44904   4.967   1.603   0.983 -0.6592  0.0433 -1.6335
  333MOL0     H44905   4.812   1.682   0.948 -0.2926  0.5425  0.6652
  333MOL0     H44906   4.771   1.929   0.971 -0.1445 -1.5389  1.1660
  333MOL0     H44907   4.816   2.181   0.949  0.3954  1.5292 -0.9277
  333MOL0     H44908   4.984   2.235   0.920  0.6276 -2.0747  2.3954
  333MOL0     H44909   4.972   2.191   0.687 -0.1285  1.7943 -0.1015
  333MOL0     H44910   4.826   2.087   0.705 -2.1607 -0.6154  2.8059
  333MOL0     H44911   4.706   2.300   0.776  1.6797 -2.0029  1.6029
  333MOL0     H44912   4.757   2.306   0.615 -0.6308  0.2783 -0.8022
  333MOL0     H44913   4.910   2.443   0.826  0.0734  1.9431 -0.0765
  333MOL0     H44914   4.809   2.521   0.705 -0.7840 -0.2298  1.6399
  333MOL0     H44915   5.001   2.665   0.798  3.5261  2.4322  3.2074
  333MOL0     H44916   5.135   2.848   0.765  1.3237 -1.1638  0.3997
  333MOL0     H44917   5.271   3.164   0.603  0.7115 -0.2550  0.5536
  333MOL0     H44918   5.389   3.372   0.606  1.4665  0.8734 -1.9034
  333MOL0     H44919   5.810   3.412   0.798 -1.1991 -0.0890  1.0010
  333MOL0     H44920   5.796   3.401   0.627 -0.8310  1.6755 -1.2637
  333MOL0     H44921   5.887   3.602   0.652 -0.6112 -0.2665  0.7890
  333MOL0     H44922   5.728   3.617   0.584 -1.9514 -0.8380 -0.2891
  333MOL0     H44923   5.794   3.678   0.877 -2.4861  0.0587  1.4890
  333MOL0     H44924   5.802   3.798   0.753 -0.9404  0.9552  1.7683
  333MOL0     H44925   5.549   3.647   0.792  0.0680  0.1062  1.6419
  333MOL0     H44926   5.564   3.800   0.718  2.1577 -0.3478 -0.9842
  333MOL0     H44927   5.660   3.888   0.949 -2.1075  2.0733  2.4717
  333MOL0     H44928   5.606   3.737   1.017  2.3691 -2.9553 -3.0475
  333MOL0     H44929   5.433   3.942   0.872 -1.0450  0.0493 -0.7152
  333MOL0     H44930   5.373   3.781   0.921 -1.4519  1.5214  0.0093
  333MOL0     H44931   5.472   4.017   1.075 -0.3917 -1.0228 -0.9263
  333MOL0     H44932   5.463   3.864   1.166  1.3366 -0.2920  0.0639
  333MOL0     H44933   5.259   4.004   1.209 -0.0590 -0.9228  0.9789
  333MOL0     H44934   5.227   4.022   1.046  2.3117  3.9329  2.2939
  333MOL0     H44935   5.712   3.183   0.825 -0.4327  0.3031 -0.5224
  333MOL0     H44936   5.613   2.981   0.791  0.0708  0.9599  1.7995
  333MOL0     H44937   5.258   2.681   0.382  0.1297 -1.0783  0.0647
  333MOL0     H44938   5.122   2.471   0.444 -0.1687  1.5327 -1.9469
  333MOL0     H44939   4.336   2.130   1.238  1.1041 -2.4213  1.6970
  333MOL0     H44940   4.191   2.199   1.053  0.8158  0.3413  0.9549
  333MOL0     H44941   3.804   2.034   0.834  0.1680 -0.3887  0.5141
  333MOL0     H44942   3.706   2.030   0.614 -2.9383  0.8325  1.7990
  333MOL0     H44943   3.780   2.380   0.342 -1.2191 -1.2192  0.3294
  333MOL0     H44944   3.634   2.431   0.424 -2.2262 -0.7995 -0.2757
  333MOL0     H44945   3.580   2.235   0.219  0.5893 -0.9181  1.3755
  333MOL0     H44946   3.682   2.378   0.154  0.5918  2.5265  2.0765
  333MOL0     H44947   3.480   2.517   0.257  0.3797  0.4361 -2.3192
  333MOL0     H44948   3.420   2.359   0.310 -0.7314 -1.4172 -0.5369
  333MOL0     H44949   3.457   2.487   0.032 -0.7104  0.8107 -0.2439
  333MOL0     H44950   3.416   2.315   0.045  2.2660 -0.2869  0.0750
  333MOL0     H44951   3.038   2.473   0.122  0.5137  0.6889 -1.7105
  333MOL0     H44952   3.788   2.447   0.562 -0.7513 -0.6738 -1.3755
  333MOL0     H44953   3.943   2.514   0.885  0.6739  2.2656 -0.4488
  333MOL0     H44954   3.912   2.575   0.719  2.0565  0.1367  0.1332
  333MOL0     H44955   3.779   2.558   0.814  0.5337  3.2541 -3.3322
  334MOL0     O44956   9.036   4.251   8.132  0.3775 -0.5243 -0.2696
  334MOL0     C44957   8.969   4.150   8.134 -0.3069 -0.0932  0.4627
  334MOL0     O44958   9.003   4.036   8.064  0.2683 -0.2096  0.0918
  334MOL0     C44959   9.129   4.030   8.019 -0.5373  0.4868 -0.4391
  334MOL0     C44960   9.243   4.074   8.091  0.5983 -0.5659 -0.2978
  334MOL0     C44961   9.366   4.041   8.045  0.2287  0.3842  1.1662
  334MOL0     C44962   9.390   3.977   7.923  0.7140 -0.3971  0.0475
  334MOL0     O44963   9.519   3.955   7.892 -0.3546 -0.4168  0.5050
  334MOL0     C44964   9.567   3.926   7.755 -0.1957 -0.5953 -0.2735
  334MOL0     C44965   9.709   3.884   7.760  0.1249 -0.6258 -0.3232
  334MOL0     C44966   9.761   3.859   7.618 -0.0920  0.0171  0.4174
  334MOL0     C44967   9.909   3.836   7.602 -0.4770 -0.6023  0.8096
  334MOL0     C44968   9.944   3.810   7.451  0.3191  0.7041 -0.6174
  334MOL0     C44969   9.936   3.661   7.401 -0.4067 -0.2063  0.2080
  334MOL0     C44970   9.963   3.640   7.251 -0.2203  0.0150 -0.3794
  334MOL0     C44971  10.103   3.682   7.208  0.7283  0.5533  0.7149
  334MOL0     N44972  10.208   3.629   7.294 -0.4716  0.1328  0.0185
  334MOL0     C44973  10.303   3.705   7.362 -0.3405 -0.3152 -0.2345
  334MOL0     C44974  10.376   3.621   7.434 -0.7290  0.7404  0.0745
  334MOL0     C44975  10.485   3.656   7.541  0.2210  1.4514 -0.2026
  334MOL0     C44976  10.609   3.697   7.469 -0.3002  0.4706  0.2137
  334MOL0     C44977  10.675   3.589   7.405 -0.5834  0.2994  0.7916
  334MOL0     C44978  10.822   3.631   7.368 -0.0627  0.9708 -0.5241
  334MOL0     O44979  10.837   3.764   7.315  0.9732  0.2006  0.0992
  334MOL0     C44980  10.959   3.815   7.337  0.5346 -0.4326 -0.1193
  334MOL0     C44981  11.075   3.750   7.293 -0.4282  0.3698 -0.4990
  334MOL0     C44982  11.197   3.816   7.308  0.6861 -0.0235 -0.3437
  334MOL0     C44983  11.203   3.942   7.368 -0.1811  0.1067  0.7825
  334MOL0     C44984  11.336   4.003   7.382  0.2585 -0.9256 -1.4479
  334MOL0     O44985  11.434   3.943   7.317 -0.7224  0.1635  0.7882
  334MOL0     C44986  11.558   3.992   7.329 -0.2819 -0.1842  0.4550
  334MOL0     C44987  11.638   3.981   7.450  0.2972 -0.3102  0.2814
  334MOL0     C44988  11.773   4.012   7.460  0.0955 -0.1295  0.0578
  334MOL0     C44989  11.831   4.064   7.343  0.0510  0.7783  0.3652
  334MOL0     O44990  11.961   4.096   7.327 -0.6296 -0.1302  0.0915
  334MOL0     C44991  12.064   4.056   7.418 -0.7804 -0.3026  0.2209
  334MOL0     C44992  12.200   4.113   7.371 -0.6975 -0.6682  0.3537
  334MOL0     C44993  12.238   4.057   7.234  0.4039  0.5116 -0.4134
  334MOL0     C44994  12.385   4.081   7.207  0.5229 -0.1555  0.0751
  334MOL0     C44995  12.411   4.082   7.055  0.5029 -0.7930 -0.1873
  334MOL0     C44996  12.564   4.100   7.024 -0.0599  0.0046 -0.6335
  334MOL0     C44997  12.593   4.125   6.879  0.2102  0.1109  0.4236
  334MOL0     C44998  12.735   4.075   6.846  0.0197 -0.1441 -0.6526
  334MOL0    Cl44999  12.866   4.157   6.952 -0.1878 -0.2254 -0.4508
  334MOL0     C45000  11.756   4.090   7.224  0.4461  0.1245 -0.4539
  334MOL0     C45001  11.622   4.048   7.215 -0.1317 -0.6416 -0.6168
  334MOL0     O45002  11.347   4.101   7.463  0.1880 -0.6739  0.2862
  334MOL0     C45003  11.086   4.000   7.411  0.6245  0.2929  0.1570
  334MOL0     C45004  10.964   3.932   7.407  0.3787  0.4064  0.1009
  334MOL0     N45005  10.336   3.493   7.407  0.8046  1.0512 -0.8343
  334MOL0     N45006  10.227   3.500   7.329 -0.0798  0.0558 -0.1903
  334MOL0     C45007   9.278   3.943   7.847 -0.5478 -0.2653 -0.2146
  334MOL0     C45008   9.150   3.958   7.896 -0.3780 -0.1911 -0.0066
  334MOL0     C45009   8.830   4.158   8.183  0.1798 -0.1843 -0.1877
  334MOL0     C45010   8.727   4.080   8.121 -0.5532 -0.8171  0.4716
  334MOL0     C45011   8.595   4.083   8.167 -0.1199 -0.4252 -0.3670
  334MOL0     C45012   8.562   4.156   8.279  0.0626  0.1631  0.1453
  334MOL0     O45013   8.423   4.140   8.305  0.2610  0.0416 -0.1884
  334MOL0     C45014   8.373   4.184   8.423  0.1891  0.7410 -0.0118
  334MOL0     C45015   8.417   4.102   8.546 -0.4350 -0.2834 -0.9382
  334MOL0     C45016   8.399   3.945   8.533 -0.3803 -0.8654  0.5075
  334MOL0     C45017   8.268   3.896   8.473  0.0755 -0.4295 -0.1917
  334MOL0     C45018   8.146   3.951   8.545 -0.5795  0.0949 -0.6723
  334MOL0     C45019   8.042   4.002   8.583 -0.1087  0.1955 -0.5729
  334MOL0     C45020   8.661   4.238   8.347  0.7911 -0.5678  0.6460
  334MOL0     C45021   8.791   4.235   8.300  0.3088 -0.2482 -0.1643
  334MOL0     C45022   8.891   4.316   8.369 -0.7587  0.3586 -1.0645
  334MOL0     H45023   9.232   4.118   8.190  0.2328 -1.2560 -0.0206
  334MOL0     H45024   9.451   4.088   8.094  1.8309 -0.0675 -1.0636
  334MOL0     H45025   9.508   3.852   7.700 -1.6508 -0.1407  0.6042
  334MOL0     H45026   9.568   4.017   7.694  1.9824 -1.0805 -1.0392
  334MOL0     H45027   9.713   3.792   7.819  0.3907 -0.3474  0.0996
  334MOL0     H45028   9.764   3.959   7.818  1.6305 -0.3876 -1.9824
  334MOL0     H45029   9.741   3.944   7.552 -0.8995  1.0836  1.9575
  334MOL0     H45030   9.706   3.776   7.571  0.8807  0.8058 -2.3031
  334MOL0     H45031   9.949   3.930   7.639  1.9666 -1.4938  0.5981
  334MOL0     H45032   9.938   3.756   7.671  3.1354  0.9371  1.2957
  334MOL0     H45033   9.876   3.870   7.390  2.0086  1.4103 -1.8729
  334MOL0     H45034  10.048   3.843   7.443  0.5687  0.0647 -0.0983
  334MOL0     H45035  10.012   3.612   7.462  0.1204 -0.2840 -0.4870
  334MOL0     H45036   9.842   3.615   7.429  1.9371 -3.3556  3.8252
  334MOL0     H45037   9.889   3.693   7.189  0.3423  1.7435  0.3640
  334MOL0     H45038   9.954   3.534   7.229  1.6311  0.4046 -3.6771
  334MOL0     H45039  10.106   3.653   7.102 -2.3122 -2.2813  1.2094
  334MOL0     H45040  10.113   3.790   7.215 -1.9784  1.0593 -1.2969
  334MOL0     H45041  10.316   3.813   7.364  1.3455 -0.4777  2.0220
  334MOL0     H45042  10.451   3.736   7.607 -1.2426  0.5232  0.2165
  334MOL0     H45043  10.504   3.571   7.608  0.0860  0.8491 -0.9094
  334MOL0     H45044  10.585   3.790   7.417 -1.9215 -0.0120  0.0587
  334MOL0     H45045  10.683   3.732   7.542 -0.0993  3.1651 -1.1508
  334MOL0     H45046  10.628   3.565   7.309  0.2993  1.8459 -0.0635
  334MOL0     H45047  10.679   3.496   7.463 -2.9863  0.5782  1.5155
  334MOL0     H45048  10.866   3.557   7.300  2.9379  1.7357  0.4182
  334MOL0     H45049  10.873   3.622   7.464 -0.8876  0.2438 -0.1504
  334MOL0     H45050  11.062   3.657   7.239 -2.6783  0.5212 -0.2971
  334MOL0     H45051  11.286   3.775   7.262  1.7186  0.9143  0.7862
  334MOL0     H45052  11.584   3.940   7.534 -2.4801  2.6673  0.1922
  334MOL0     H45053  11.819   4.004   7.558 -0.2767  1.3045  0.3830
  334MOL0     H45054  12.049   4.086   7.523  3.7779 -3.3644  2.0453
  334MOL0     H45055  12.074   3.947   7.416 -2.0792 -0.4271 -1.7261
  334MOL0     H45056  12.181   4.220   7.359  1.4183 -0.2004  0.6467
  334MOL0     H45057  12.274   4.094   7.450 -0.9631 -0.9295  0.5397
  334MOL0     H45058  12.208   3.952   7.223 -1.0929  1.0897 -2.2394
  334MOL0     H45059  12.184   4.111   7.156  0.0621  1.8566  0.7118
  334MOL0     H45060  12.452   4.012   7.260  0.5235  0.2035  0.5483
  334MOL0     H45061  12.404   4.181   7.248 -0.5258 -0.0584  0.3459
  334MOL0     H45062  12.353   4.167   7.018 -2.0525 -1.8345  1.1434
  334MOL0     H45063  12.361   3.998   7.005 -2.8193  1.5351 -1.0978
  334MOL0     H45064  12.600   4.182   7.086 -2.0292  3.2110 -3.3730
  334MOL0     H45065  12.624   4.012   7.051  2.2733  1.6368 -0.2782
  334MOL0     H45066  12.589   4.234   6.868  2.9953  0.2327 -0.0765
  334MOL0     H45067  12.526   4.073   6.810  1.2000 -1.5454  0.6765
  334MOL0     H45068  12.750   3.966   6.846  0.4457 -0.0984 -1.9062
  334MOL0     H45069  12.748   4.110   6.744 -2.0271  2.4938 -0.1280
  334MOL0     H45070  11.802   4.142   7.141 -0.8330  0.6634 -0.8402
  334MOL0     H45071  11.564   4.070   7.126 -1.4748 -0.6417  0.2266
  334MOL0     H45072  11.086   4.096   7.462 -0.2575  0.2329  0.2900
  334MOL0     H45073  10.870   3.980   7.433 -1.1286 -1.6565 -1.2973
  334MOL0     H45074   9.284   3.888   7.753 -2.4523  1.9535 -1.7748
  334MOL0     H45075   9.071   3.918   7.834  0.0691  0.0900 -0.7830
  334MOL0     H45076   8.750   4.012   8.040 -2.1290 -0.2906 -0.4613
  334MOL0     H45077   8.511   4.026   8.130  0.0304  0.1788 -1.6963
  334MOL0     H45078   8.265   4.185   8.410 -0.0214  3.7115  1.1517
  334MOL0     H45079   8.399   4.289   8.436 -1.2034  1.1962 -0.8091
  334MOL0     H45080   8.355   4.139   8.629  1.8390  1.6874  0.0103
  334MOL0     H45081   8.517   4.126   8.582 -1.5571  1.4668  1.2273
  334MOL0     H45082   8.405   3.891   8.627 -1.8580 -2.2381 -0.1327
  334MOL0     H45083   8.485   3.916   8.471  0.6540  1.3420  0.8167
  334MOL0     H45084   8.261   3.935   8.371  0.9957 -0.5595 -0.3062
  334MOL0     H45085   8.268   3.787   8.480 -0.7282 -0.5900 -1.9511
  334MOL0     H45086   7.954   4.050   8.621  0.9685  1.6977  0.1289
  334MOL0     H45087   8.645   4.299   8.436 -2.0986  3.8243 -2.4367
  334MOL0     H45088   8.973   4.251   8.403 -1.8135 -1.5503 -2.0417
  334MOL0     H45089   8.928   4.393   8.300 -3.5439  2.6753 -0.1459
  334MOL0     H45090   8.852   4.368   8.457 -0.7962  0.7788 -1.3242
  335MOL0     O45091  10.545   5.570   5.369  0.0970 -0.5796 -0.0862
  335MOL0     C45092  10.539   5.458   5.408 -0.2184  0.0929 -0.3488
  335MOL0     O45093  10.652   5.385   5.421  0.1458  0.4761 -0.4314
  335MOL0     C45094  10.771   5.428   5.372 -0.5397  0.3437 -0.0542
  335MOL0     C45095  10.857   5.507   5.442  0.0463 -0.3193 -0.1164
  335MOL0     C45096  10.985   5.537   5.380 -1.0966  0.4152 -1.1184
  335MOL0     C45097  11.029   5.473   5.261  0.2435  0.2302  0.0175
  335MOL0     O45098  11.159   5.504   5.219  0.0242  0.2266 -0.9622
  335MOL0     C45099  11.230   5.393   5.156  0.1510  0.8286 -0.0540
  335MOL0     C45100  11.374   5.444   5.128 -0.4356  0.5070  0.4480
  335MOL0     C45101  11.464   5.331   5.060  0.1865 -0.8995 -0.5331
  335MOL0     C45102  11.609   5.364   5.078 -0.2149 -0.2132  0.9148
  335MOL0     C45103  11.695   5.244   5.025  0.4022 -0.9165  0.7054
  335MOL0     C45104  11.843   5.259   5.054  0.8959  0.5687  0.1448
  335MOL0     C45105  11.941   5.198   4.951  0.0845 -0.1045 -0.2246
  335MOL0     C45106  11.990   5.304   4.855  0.8700 -0.0270  0.3105
  335MOL0     N45107  12.105   5.259   4.782 -0.0881  0.6866 -0.5440
  335MOL0     C45108  12.233   5.235   4.837 -0.2142 -0.4076  0.0138
  335MOL0     C45109  12.316   5.192   4.742 -0.4440 -0.1547  0.4928
  335MOL0     C45110  12.470   5.179   4.748 -0.3694 -0.4974 -0.0087
  335MOL0     C45111  12.534   5.288   4.672 -0.2808 -0.0144  0.0979
  335MOL0     C45112  12.673   5.243   4.618  0.0016 -1.1254 -0.4040
  335MOL0     C45113  12.773   5.192   4.730  0.2724  0.2872 -0.5018
  335MOL0     O45114  12.903   5.156   4.673  0.4763  1.0764 -0.4388
  335MOL0     C45115  13.012   5.152   4.753  0.1422  0.2296 -0.1827
  335MOL0     C45116  13.027   5.229   4.868  0.1725 -0.8842  0.6572
  335MOL0     C45117  13.147   5.223   4.934  0.2630 -0.4212 -0.8330
  335MOL0     C45118  13.251   5.148   4.889 -0.1537 -0.1126  0.1227
  335MOL0     C45119  13.377   5.138   4.973 -1.4206 -0.3542 -0.2749
  335MOL0     O45120  13.464   5.043   4.927 -0.5692  0.1399 -0.4476
  335MOL0     C45121  13.567   5.016   5.012 -0.9190  0.1305 -0.0846
  335MOL0     C45122  13.694   5.047   4.960 -0.1157  0.2694  0.4571
  335MOL0     C45123  13.808   5.002   5.029 -0.0186  0.0015 -0.0779
  335MOL0     C45124  13.798   4.944   5.156  0.5435 -0.6561  0.1107
  335MOL0     O45125  13.906   4.899   5.228  0.0199  0.2245 -0.2000
  335MOL0     C45126  14.014   4.850   5.144 -1.0182 -0.8813  0.1106
  335MOL0     C45127  14.120   4.770   5.221 -0.4313  0.2795 -0.2231
  335MOL0     C45128  14.247   4.742   5.127  1.0503  0.5234 -0.9002
  335MOL0     C45129  14.346   4.645   5.192  0.2417 -0.4794 -0.6232
  335MOL0     C45130  14.491   4.651   5.127  0.4194 -0.3679 -0.1011
  335MOL0     C45131  14.585   4.606   5.229 -1.2571  0.4460  0.7378
  335MOL0     C45132  14.582   4.450   5.254  0.2175  0.1546  0.7557
  335MOL0     C45133  14.658   4.416   5.386  0.7508  0.7133 -0.4058
  335MOL0    Cl45134  14.833   4.444   5.381 -0.1324 -0.3799  0.0211
  335MOL0     C45135  13.672   4.917   5.212  0.6527  0.3939  0.6058
  335MOL0     C45136  13.557   4.952   5.137  1.1222  0.0124  0.3574
  335MOL0     O45137  13.391   5.213   5.069 -0.6693 -0.0241 -0.5285
  335MOL0     C45138  13.235   5.063   4.773 -0.2188 -0.3319 -0.7753
  335MOL0     C45139  13.110   5.065   4.706 -0.2414  0.1506 -0.0342
  335MOL0     N45140  12.234   5.174   4.624 -0.5750 -0.5133 -0.1638
  335MOL0     N45141  12.109   5.210   4.659  0.4221 -0.4262 -0.3656
  335MOL0     C45142  10.937   5.389   5.194  0.2386 -0.0932 -0.1482
  335MOL0     C45143  10.811   5.368   5.252  0.8850 -0.2590 -0.8275
  335MOL0     C45144  10.403   5.401   5.414  0.9919 -0.3620 -0.5531
  335MOL0     C45145  10.401   5.259   5.415  0.1861  0.2796 -0.0291
  335MOL0     C45146  10.278   5.185   5.420 -0.0516 -0.3632 -0.3367
  335MOL0     C45147  10.161   5.261   5.426 -0.0304 -0.4929  1.0804
  335MOL0     O45148  10.040   5.200   5.413  0.8550  0.0894 -0.8351
  335MOL0     C45149  10.025   5.056   5.388 -0.4094  0.1239  0.4117
  335MOL0     C45150   9.892   5.000   5.354 -0.5875 -0.0821  0.1061
  335MOL0     C45151   9.782   4.993   5.468  0.2771  0.7180  0.7051
  335MOL0     C45152   9.665   4.907   5.421 -0.2607  0.3469 -0.2578
  335MOL0     C45153   9.583   4.975   5.317 -0.3417  0.7247 -0.7709
  335MOL0     C45154   9.512   5.024   5.237  0.0640  0.1221  0.5231
  335MOL0     C45155  10.162   5.401   5.428 -0.1028  0.3382 -0.4455
  335MOL0     C45156  10.276   5.472   5.429  0.1975  0.2153  0.8654
  335MOL0     C45157  10.257   5.633   5.427  0.1744  0.5853 -0.7129
  335MOL0     H45158  10.824   5.550   5.536  1.0762 -1.1609  0.6652
  335MOL0     H45159  11.055   5.595   5.439  0.0603 -0.5450 -1.5201
  335MOL0     H45160  11.238   5.310   5.227  4.1570 -1.1447 -2.5028
  335MOL0     H45161  11.178   5.354   5.069  2.0253 -2.3963  0.1263
  335MOL0     H45162  11.428   5.493   5.210  0.0520  0.6407  0.0497
  335MOL0     H45163  11.349   5.521   5.054 -0.8140  1.6747  1.7448
  335MOL0     H45164  11.443   5.334   4.953  0.1502  0.1954 -0.5029
  335MOL0     H45165  11.453   5.231   5.104  3.0958 -0.8298  0.5742
  335MOL0     H45166  11.632   5.460   5.031 -2.1377  0.1566  0.6438
  335MOL0     H45167  11.634   5.369   5.185  0.6918  0.3903  0.6866
  335MOL0     H45168  11.658   5.146   5.056  0.5346 -1.0195  0.5411
  335MOL0     H45169  11.688   5.263   4.917 -3.3332 -1.5337  0.7253
  335MOL0     H45170  11.867   5.365   5.058  0.4544  0.6567  0.5322
  335MOL0     H45171  11.855   5.209   5.151 -2.0277 -2.0785 -0.6826
  335MOL0     H45172  11.880   5.124   4.898  1.2722 -1.4834  0.2711
  335MOL0     H45173  12.017   5.136   5.000 -0.7301 -0.1628  1.0067
  335MOL0     H45174  11.899   5.329   4.799  0.7742  2.0909  1.3162
  335MOL0     H45175  12.019   5.393   4.912  0.7863 -0.6606  1.3684
  335MOL0     H45176  12.274   5.261   4.934 -1.5710 -1.5987  0.9538
  335MOL0     H45177  12.505   5.193   4.850  2.8452 -2.5878 -0.6599
  335MOL0     H45178  12.496   5.078   4.713  1.3203  0.2920 -1.1487
  335MOL0     H45179  12.473   5.319   4.587  1.8648  1.3489 -1.0291
  335MOL0     H45180  12.549   5.376   4.736 -0.5753  1.8558 -2.2805
  335MOL0     H45181  12.708   5.328   4.558  2.2077 -1.7402 -0.0644
  335MOL0     H45182  12.664   5.153   4.555 -0.9977 -2.1012  1.0778
  335MOL0     H45183  12.725   5.111   4.787 -1.2419  0.7292 -1.0973
  335MOL0     H45184  12.780   5.274   4.801 -1.8776  0.2517 -0.1672
  335MOL0     H45185  12.951   5.298   4.903 -2.6897 -3.3564 -0.2021
  335MOL0     H45186  13.163   5.287   5.020 -0.2781 -0.9121 -0.3566
  335MOL0     H45187  13.700   5.084   4.858  2.1461 -0.3946  0.2884
  335MOL0     H45188  13.910   5.013   4.994 -0.6747  3.5821 -1.2695
  335MOL0     H45189  13.974   4.794   5.059 -5.6377  1.1392  0.6545
  335MOL0     H45190  14.070   4.933   5.101 -2.3856 -0.2782 -0.5925
  335MOL0     H45191  14.148   4.815   5.317 -1.2948 -0.0240  0.1823
  335MOL0     H45192  14.071   4.674   5.239 -0.1746  0.2859  0.5494
  335MOL0     H45193  14.220   4.715   5.025  0.1920  0.3643 -0.6437
  335MOL0     H45194  14.302   4.836   5.118  2.3988  0.4410  3.6422
  335MOL0     H45195  14.308   4.543   5.190 -1.6349  0.1792 -0.7404
  335MOL0     H45196  14.348   4.683   5.295 -0.6900  2.6274 -1.6373
  335MOL0     H45197  14.511   4.755   5.098 -1.3371 -0.0680 -0.3857
  335MOL0     H45198  14.506   4.593   5.036  1.1729  0.2271 -0.3679
  335MOL0     H45199  14.686   4.623   5.192 -1.5851  1.5473  0.2977
  335MOL0     H45200  14.585   4.664   5.321  2.3260 -1.6636  2.2647
  335MOL0     H45201  14.644   4.403   5.177  0.6521  1.8177  0.0443
  335MOL0     H45202  14.482   4.409   5.241 -1.0769  3.2955 -0.1186
  335MOL0     H45203  14.617   4.476   5.468  0.6174  0.9572 -0.6468
  335MOL0     H45204  14.633   4.313   5.410 -3.2283  1.4064 -0.8208
  335MOL0     H45205  13.656   4.868   5.307  1.3654 -0.0923  0.4806
  335MOL0     H45206  13.459   4.916   5.162  1.6347 -3.1449 -1.6291
  335MOL0     H45207  13.315   5.006   4.728  0.2403  0.5890 -1.1692
  335MOL0     H45208  13.104   5.012   4.612  3.6567  0.9386 -0.8814
  335MOL0     H45209  10.969   5.331   5.107 -0.5270  1.2891 -1.4027
  335MOL0     H45210  10.736   5.307   5.204  0.5551 -0.0174 -0.6238
  335MOL0     H45211  10.494   5.202   5.418 -0.6007 -1.0458 -0.0533
  335MOL0     H45212  10.292   5.077   5.425  1.9569 -0.1111  0.8217
  335MOL0     H45213  10.063   5.006   5.478 -1.0989 -0.4829  0.3684
  335MOL0     H45214  10.091   5.020   5.309 -1.0665 -2.8787  1.0786
  335MOL0     H45215   9.919   4.897   5.326  2.3620  0.5664  0.2298
  335MOL0     H45216   9.853   5.048   5.264 -0.5524  0.6395  0.4670
  335MOL0     H45217   9.760   5.093   5.507  1.1306  0.8581  0.8631
  335MOL0     H45218   9.830   4.941   5.552 -1.9900  1.6537  2.6925
  335MOL0     H45219   9.698   4.810   5.384 -0.8027  0.6555 -1.6165
  335MOL0     H45220   9.597   4.907   5.507  0.1179  0.9659  0.0431
  335MOL0     H45221   9.440   5.067   5.170  0.8766  0.4464 -0.1627
  335MOL0     H45222  10.073   5.463   5.423  0.3545  0.9002 -2.1923
  335MOL0     H45223  10.160   5.670   5.460  1.3021  1.5035  1.8524
  335MOL0     H45224  10.321   5.678   5.503 -1.5235  0.2605  0.9831
  335MOL0     H45225  10.279   5.672   5.328  0.0472 -2.8706 -2.2709
  336MOL0     O45226   1.883   0.788   2.638  0.0896 -0.2452 -0.0518
  336MOL0     C45227   1.814   0.827   2.546  0.1822  0.3116  0.3070
  336MOL0     O45228   1.851   0.937   2.470  0.9293 -0.0555 -0.0220
  336MOL0     C45229   1.992   0.943   2.455  1.1080  0.6240  0.7017
  336MOL0     C45230   2.071   0.831   2.433 -1.3572  0.1658  0.0952
  336MOL0     C45231   2.215   0.842   2.429 -0.5830  0.3773  0.8094
  336MOL0     C45232   2.277   0.971   2.427  0.1565 -0.2075 -0.3449
  336MOL0     O45233   2.412   1.008   2.410 -0.2657  0.5275  0.1714
  336MOL0     C45234   2.503   0.907   2.403  0.0327  0.0974 -0.4886
  336MOL0     C45235   2.645   0.965   2.409 -0.3420  1.2729 -0.3076
  336MOL0     C45236   2.689   1.045   2.283  0.3096  0.7836  0.1196
  336MOL0     C45237   2.830   1.105   2.285  0.4926  0.5659 -0.3228
  336MOL0     C45238   2.863   1.181   2.158 -0.1175  0.7016 -0.6088
  336MOL0     C45239   2.994   1.266   2.181 -0.2069 -0.1038  0.1958
  336MOL0     C45240   3.126   1.189   2.190  0.2594  0.1227 -0.2085
  336MOL0     C45241   3.179   1.157   2.048 -0.1382 -0.4540  0.1727
  336MOL0     N45242   3.325   1.168   2.040 -0.9166  0.2558  0.6567
  336MOL0     C45243   3.416   1.061   2.047  0.4033  0.6715 -0.7569
  336MOL0     C45244   3.537   1.105   1.991 -0.0356 -0.3478 -0.0925
  336MOL0     C45245   3.662   1.029   1.965  0.2612 -0.4703  0.5760
  336MOL0     C45246   3.795   1.109   1.994 -0.6624  0.5654 -0.2556
  336MOL0     C45247   3.849   1.085   2.126  0.0086 -0.2641  0.2461
  336MOL0     C45248   3.898   0.940   2.162  0.1138 -0.3564 -0.7480
  336MOL0     O45249   4.003   0.954   2.262  0.4406  0.2196 -0.4042
  336MOL0     C45250   4.136   0.972   2.224  0.6977  0.5112  0.0526
  336MOL0     C45251   4.246   0.973   2.311 -0.6563 -0.8120 -0.2223
  336MOL0     C45252   4.375   1.009   2.273 -0.1449  0.3144 -0.4511
  336MOL0     C45253   4.400   1.031   2.137  0.2446 -0.4148  0.0591
  336MOL0     C45254   4.539   1.066   2.091  0.0675  0.2654 -0.7639
  336MOL0     O45255   4.621   1.113   2.188  0.3694  0.2666  0.1793
  336MOL0     C45256   4.748   1.140   2.141  0.0222 -0.7113 -0.7662
  336MOL0     C45257   4.780   1.277   2.117  0.0621  0.2958 -0.8976
  336MOL0     C45258   4.904   1.311   2.067 -0.1629 -0.0422  0.2960
  336MOL0     C45259   4.997   1.214   2.036 -0.2819 -0.0499 -1.3327
  336MOL0     O45260   5.105   1.237   1.961 -0.5964  0.3359  0.0465
  336MOL0     C45261   5.120   1.150   1.850  0.0881 -0.3180 -0.5391
  336MOL0     C45262   5.009   1.172   1.745 -0.0097 -0.0139 -0.5983
  336MOL0     C45263   5.022   1.085   1.622  0.2521  0.4121  0.2370
  336MOL0     C45264   5.151   1.113   1.540 -0.0428 -0.2408 -0.1363
  336MOL0     C45265   5.113   1.132   1.393 -0.2449  0.2575  0.2993
  336MOL0     C45266   5.026   1.254   1.363 -0.5739 -0.2633 -0.5100
  336MOL0     C45267   5.086   1.391   1.419  0.4189 -0.1705 -0.1249
  336MOL0     C45268   5.221   1.424   1.344 -0.2980  0.0838 -0.3829
  336MOL0    Cl45269   5.179   1.433   1.172 -0.4113 -0.1737  0.4925
  336MOL0     C45270   4.978   1.078   2.089  1.3523 -0.8034 -0.5364
  336MOL0     C45271   4.851   1.042   2.139 -0.4299  0.0685  0.2247
  336MOL0     O45272   4.570   1.061   1.973 -1.0536  0.4010  0.9004
  336MOL0     C45273   4.291   1.015   2.040 -0.5992 -0.3804  0.8519
  336MOL0     C45274   4.165   0.988   2.089  0.3049  0.3511  0.3087
  336MOL0     N45275   3.518   1.235   1.950  0.1262  0.1491 -0.9614
  336MOL0     N45276   3.393   1.270   1.976 -0.5451  0.1571  0.8308
  336MOL0     C45277   2.199   1.086   2.429 -0.4950 -0.2762 -0.1605
  336MOL0     C45278   2.060   1.067   2.449 -0.1555 -0.2782 -0.0508
  336MOL0     C45279   1.678   0.775   2.531 -0.0827  1.1987  0.1165
  336MOL0     C45280   1.576   0.865   2.498 -0.3713 -0.3250  1.3718
  336MOL0     C45281   1.441   0.829   2.472 -0.7586 -0.4084 -0.7566
  336MOL0     C45282   1.400   0.695   2.489 -1.0363  0.0043 -1.2856
  336MOL0     O45283   1.274   0.653   2.475 -0.9541 -0.0560 -0.2784
  336MOL0     C45284   1.171   0.755   2.462 -0.4348 -0.1747  0.3632
  336MOL0     C45285   1.046   0.676   2.472 -0.0203 -0.1974  0.9397
  336MOL0     C45286   0.915   0.755   2.501  0.0074  0.1066 -0.1235
  336MOL0     C45287   0.799   0.653   2.489 -0.7337 -0.0005  0.0726
  336MOL0     C45288   0.677   0.735   2.508  0.6194 -0.3474 -0.5908
  336MOL0     C45289   0.586   0.811   2.529  0.3046  0.6677  0.4976
  336MOL0     C45290   1.498   0.604   2.528  0.4264  0.6331  0.7255
  336MOL0     C45291   1.634   0.640   2.547 -0.0987  0.3845  0.8618
  336MOL0     C45292   1.727   0.523   2.576 -1.0061  0.5718  0.0767
  336MOL0     H45293   2.025   0.734   2.416 -0.4037 -0.1560 -0.7799
  336MOL0     H45294   2.273   0.751   2.422  0.1605  0.9093 -0.2876
  336MOL0     H45295   2.482   0.834   2.481  0.5379  0.9765  0.4944
  336MOL0     H45296   2.493   0.850   2.310 -1.1723 -0.3110 -0.1254
  336MOL0     H45297   2.707   0.877   2.430 -0.3817  1.8313  2.5010
  336MOL0     H45298   2.663   1.021   2.500 -1.4051  0.1723  0.6269
  336MOL0     H45299   2.617   1.127   2.276  0.9117  1.2036 -1.7759
  336MOL0     H45300   2.673   0.993   2.189 -2.0646  0.3120  0.7332
  336MOL0     H45301   2.832   1.185   2.359  2.0923 -0.1289  0.4571
  336MOL0     H45302   2.904   1.033   2.324  0.0265  1.3388  2.1696
  336MOL0     H45303   2.873   1.105   2.080 -0.5303 -0.4040  0.3821
  336MOL0     H45304   2.785   1.256   2.140  0.3481  1.1637 -0.7021
  336MOL0     H45305   3.004   1.333   2.095 -1.1335 -0.6529 -0.3630
  336MOL0     H45306   2.988   1.323   2.275  0.3742 -2.8409  2.0134
  336MOL0     H45307   3.121   1.095   2.246  1.4561 -0.0662 -0.3937
  336MOL0     H45308   3.199   1.256   2.236  0.0873 -1.1140  2.0137
  336MOL0     H45309   3.150   1.056   2.018  2.7755 -0.9947 -1.1354
  336MOL0     H45310   3.147   1.234   1.978  0.4502 -2.0546 -1.9510
  336MOL0     H45311   3.397   0.958   2.073 -1.7140  0.3377 -3.2914
  336MOL0     H45312   3.668   0.934   2.018  0.5851 -1.9070 -1.8631
  336MOL0     H45313   3.671   1.004   1.859  0.4826  1.5983  0.0561
  336MOL0     H45314   3.870   1.072   1.923  0.3796 -1.7154  1.9014
  336MOL0     H45315   3.783   1.217   1.987 -2.0935  0.5760  1.6646
  336MOL0     H45316   3.774   1.104   2.203 -0.6117  0.0664 -0.4334
  336MOL0     H45317   3.940   1.147   2.132  1.5155 -1.9714 -2.6233
  336MOL0     H45318   3.902   0.873   2.075  0.0690 -3.1011  1.2342
  336MOL0     H45319   3.819   0.897   2.224 -0.8069  2.5016  0.1903
  336MOL0     H45320   4.211   0.940   2.407 -0.3055 -2.2700 -0.5719
  336MOL0     H45321   4.455   1.012   2.346 -1.0943  0.9933  0.6002
  336MOL0     H45322   4.694   1.344   2.123 -0.0567  0.0776 -0.1165
  336MOL0     H45323   4.918   1.415   2.038  1.5053  0.0030  1.1552
  336MOL0     H45324   5.212   1.189   1.805  0.3840  0.4058  0.6534
  336MOL0     H45325   5.132   1.046   1.880 -2.4435 -0.4611  0.2288
  336MOL0     H45326   4.907   1.155   1.781 -0.0768 -0.2696 -0.8965
  336MOL0     H45327   5.022   1.277   1.719  0.8064  0.2257  0.6680
  336MOL0     H45328   5.023   0.983   1.660 -0.0192  0.9854  1.8723
  336MOL0     H45329   4.936   1.091   1.555  2.3506  1.0695 -2.6462
  336MOL0     H45330   5.224   1.032   1.548  0.6123  0.5179  2.7025
  336MOL0     H45331   5.200   1.205   1.574  0.7454 -0.7262  0.0820
  336MOL0     H45332   5.057   1.043   1.361 -0.5048  0.7292 -0.5897
  336MOL0     H45333   5.203   1.133   1.330 -1.4913 -0.0932 -1.5926
  336MOL0     H45334   5.006   1.266   1.257 -1.6026 -1.7489 -0.5186
  336MOL0     H45335   4.928   1.248   1.411 -0.3834  0.7758  0.0606
  336MOL0     H45336   5.104   1.385   1.526 -2.0449  2.8754  0.6031
  336MOL0     H45337   5.016   1.475   1.408  2.7743  2.2363  1.8889
  336MOL0     H45338   5.270   1.518   1.374 -0.6114  0.3043 -0.5644
  336MOL0     H45339   5.294   1.343   1.357  0.4447  0.9363  1.2060
  336MOL0     H45340   5.057   1.003   2.087  1.4459 -0.6863 -1.3589
  336MOL0     H45341   4.817   0.943   2.166 -1.8062  0.5549  0.3221
  336MOL0     H45342   4.315   1.009   1.934  0.9672  1.0558  1.0854
  336MOL0     H45343   4.085   0.976   2.016 -0.3503 -2.9037  1.4113
  336MOL0     H45344   2.247   1.183   2.419 -0.2976 -0.3713 -0.1390
  336MOL0     H45345   2.014   1.164   2.466  1.7171  0.9403 -1.4858
  336MOL0     H45346   1.603   0.968   2.479 -0.1264 -0.2704  1.9850
  336MOL0     H45347   1.374   0.910   2.445 -2.7197 -2.3371 -2.0363
  336MOL0     H45348   1.178   0.807   2.366  0.4723 -1.4841 -0.3092
  336MOL0     H45349   1.180   0.835   2.536 -0.2219 -1.0807  1.3371
  336MOL0     H45350   1.051   0.591   2.541 -1.4347  1.8483  3.7864
  336MOL0     H45351   1.028   0.629   2.375  0.9700  0.1290  0.5885
  336MOL0     H45352   0.906   0.839   2.432  2.1637 -0.4383 -1.1679
  336MOL0     H45353   0.918   0.786   2.606 -1.4995 -1.2336  0.3622
  336MOL0     H45354   0.806   0.621   2.384  3.2285 -1.7427  0.7005
  336MOL0     H45355   0.801   0.575   2.565  1.0335 -0.6519 -0.5819
  336MOL0     H45356   0.499   0.873   2.540  1.6896  2.5354  1.3972
  336MOL0     H45357   1.462   0.503   2.545  1.5971  0.0672 -0.0082
  336MOL0     H45358   1.789   0.541   2.664 -3.5026 -0.7813  2.2650
  336MOL0     H45359   1.661   0.440   2.602 -2.4057  0.7667 -2.5051
  336MOL0     H45360   1.785   0.492   2.488 -2.5057 -0.6166 -0.5472
  337MOL0     O45361   6.208   0.102   4.742 -0.3120  0.2341  0.2192
  337MOL0     C45362   6.109   0.068   4.810  0.0187  0.2444 -0.1533
  337MOL0     O45363   6.092  -0.059   4.856 -0.2157 -0.3650 -0.0406
  337MOL0     C45364   6.186  -0.153   4.814 -0.4386 -0.1230  0.3956
  337MOL0     C45365   6.203  -0.185   4.678  0.8584  0.2269 -0.8720
  337MOL0     C45366   6.310  -0.261   4.635 -0.1250  0.2383  0.0249
  337MOL0     C45367   6.399  -0.316   4.727  0.0705  0.7872  0.1060
  337MOL0     O45368   6.503  -0.393   4.672 -0.1974 -0.7877  0.2492
  337MOL0     C45369   6.610  -0.422   4.762  0.2230  0.1211 -0.3130
  337MOL0     C45370   6.714  -0.523   4.707 -0.1853  0.1135 -0.8643
  337MOL0     C45371   6.830  -0.531   4.812  0.7422  0.0507 -0.6170
  337MOL0     C45372   6.949  -0.606   4.756 -0.4970  0.7227 -0.0531
  337MOL0     C45373   7.059  -0.602   4.865 -0.5403  0.6537  0.2362
  337MOL0     C45374   7.161  -0.710   4.820 -0.1872  0.3034  0.1934
  337MOL0     C45375   7.271  -0.738   4.918  0.5142 -0.3291  0.4060
  337MOL0     C45376   7.399  -0.786   4.852 -0.6616  0.0154 -0.2510
  337MOL0     N45377   7.382  -0.926   4.817 -0.0782 -0.7056  0.0152
  337MOL0     C45378   7.376  -1.020   4.911  0.5352  0.1620 -0.5481
  337MOL0     C45379   7.360  -1.135   4.854  0.2388  0.3231  0.6950
  337MOL0     C45380   7.364  -1.261   4.930 -0.0316 -0.7953  0.5922
  337MOL0     C45381   7.492  -1.288   5.010  1.2180 -0.2009 -0.5540
  337MOL0     C45382   7.625  -1.292   4.918 -0.2005 -0.1975  0.7186
  337MOL0     C45383   7.741  -1.278   5.016  0.2309 -0.0373 -0.3057
  337MOL0     O45384   7.860  -1.272   4.934  0.4075 -0.6679 -0.2380
  337MOL0     C45385   7.972  -1.231   5.006  0.4026 -0.5322  0.7450
  337MOL0     C45386   7.982  -1.219   5.151  0.0421 -0.3753  0.5436
  337MOL0     C45387   8.094  -1.168   5.207 -0.5649 -0.3699  0.3887
  337MOL0     C45388   8.204  -1.125   5.130  0.3115  0.4209  1.3838
  337MOL0     C45389   8.316  -1.061   5.206  0.5259  0.3949  0.2289
  337MOL0     O45390   8.421  -1.018   5.129  0.4541  0.3427 -0.0110
  337MOL0     C45391   8.545  -0.988   5.176 -0.1044 -0.7505 -0.3302
  337MOL0     C45392   8.596  -1.015   5.307  0.4588 -0.6449  0.0839
  337MOL0     C45393   8.719  -0.977   5.340 -0.3085 -0.4492 -0.4124
  337MOL0     C45394   8.811  -0.912   5.255 -0.5766  0.4908  0.3253
  337MOL0     O45395   8.919  -0.854   5.316  0.0968  0.0714  0.7963
  337MOL0     C45396   9.026  -0.834   5.222 -0.6753 -0.0479  0.0837
  337MOL0     C45397   9.159  -0.814   5.292 -0.0791 -0.1299  0.2855
  337MOL0     C45398   9.176  -0.660   5.324  0.1339  0.1314  0.1103
  337MOL0     C45399   9.070  -0.632   5.430  0.0992 -0.7490 -0.2102
  337MOL0     C45400   9.124  -0.507   5.509 -0.4531  0.0426 -0.1381
  337MOL0     C45401   9.029  -0.473   5.627  0.0371 -0.1138 -0.4722
  337MOL0     C45402   8.949  -0.340   5.603  0.6991  0.2897 -0.3137
  337MOL0     C45403   8.801  -0.377   5.614 -0.5813  0.5905 -0.4630
  337MOL0    Cl45404   8.745  -0.409   5.777 -0.0161  0.0676  0.0923
  337MOL0     C45405   8.766  -0.889   5.126  0.4804  0.0119 -1.4097
  337MOL0     C45406   8.632  -0.922   5.087  0.3686 -0.3247 -0.4974
  337MOL0     O45407   8.313  -1.046   5.328 -0.5368 -0.7835  0.2594
  337MOL0     C45408   8.195  -1.137   4.992 -0.1474 -0.1049 -0.2718
  337MOL0     C45409   8.085  -1.196   4.930  0.0378  0.1739  0.0304
  337MOL0     N45410   7.354  -1.108   4.716 -0.1947  0.0447  0.1203
  337MOL0     N45411   7.366  -0.981   4.691  0.0448 -0.3066  0.0341
  337MOL0     C45412   6.376  -0.287   4.864 -0.1549 -0.8953 -0.1116
  337MOL0     C45413   6.272  -0.209   4.908 -0.1784  0.3257 -0.2108
  337MOL0     C45414   6.004   0.179   4.827 -0.3035  0.7437 -0.5981
  337MOL0     C45415   6.036   0.310   4.789  0.6894  0.1869  0.3180
  337MOL0     C45416   5.941   0.417   4.798  0.3131 -0.7131 -0.5504
  337MOL0     C45417   5.806   0.387   4.836  0.2163  0.4314 -0.1869
  337MOL0     O45418   5.707   0.480   4.841  0.3865  0.2602  0.0825
  337MOL0     C45419   5.701   0.604   4.763  0.5264  0.2193  0.1973
  337MOL0     C45420   5.587   0.699   4.811 -0.5606  0.2791  0.0059
  337MOL0     C45421   5.458   0.628   4.834  0.0904 -0.4579 -0.7774
  337MOL0     C45422   5.349   0.735   4.861  0.3719 -0.9451  0.8877
  337MOL0     C45423   5.221   0.674   4.900  0.0124  0.3227 -0.4193
  337MOL0     C45424   5.114   0.622   4.920 -0.0677 -0.2367 -0.5208
  337MOL0     C45425   5.777   0.257   4.881 -0.1630  1.0332 -0.0851
  337MOL0     C45426   5.873   0.154   4.881  0.0243  0.8510  0.1194
  337MOL0     C45427   5.829   0.015   4.924  0.0121  0.2007  0.1706
  337MOL0     H45428   6.127  -0.153   4.607 -1.0873  0.7610  1.2960
  337MOL0     H45429   6.313  -0.285   4.530  0.7774 -0.1399  0.1300
  337MOL0     H45430   6.667  -0.330   4.780  0.5741 -0.4137  1.6091
  337MOL0     H45431   6.569  -0.461   4.856  0.0471  3.5356  1.1810
  337MOL0     H45432   6.763  -0.480   4.620  4.5788 -0.4518  1.2470
  337MOL0     H45433   6.665  -0.618   4.686  1.1683 -0.1006 -3.4733
  337MOL0     H45434   6.787  -0.586   4.897  0.6580 -0.0624 -0.7328
  337MOL0     H45435   6.853  -0.429   4.845 -3.2945  0.0852  3.0706
  337MOL0     H45436   6.910  -0.705   4.733 -0.1566  0.7256 -0.6825
  337MOL0     H45437   6.981  -0.562   4.661  0.6959 -2.3417 -1.1729
  337MOL0     H45438   7.100  -0.501   4.875 -1.5158  1.5177 -3.2784
  337MOL0     H45439   7.008  -0.630   4.958  0.6874 -1.0875  0.4288
  337MOL0     H45440   7.123  -0.808   4.791  0.6548  0.1480 -0.4547
  337MOL0     H45441   7.218  -0.671   4.734  0.1724 -0.0470  0.2665
  337MOL0     H45442   7.230  -0.812   4.987 -0.5640  0.4230  0.6013
  337MOL0     H45443   7.288  -0.643   4.969 -2.4409  1.4561 -1.5980
  337MOL0     H45444   7.433  -0.727   4.767  1.6290  1.5022  1.5729
  337MOL0     H45445   7.480  -0.774   4.924  1.0164 -1.5804 -1.7797
  337MOL0     H45446   7.384  -1.003   5.018  1.4525  3.1024 -0.9874
  337MOL0     H45447   7.281  -1.257   5.000 -1.2078 -0.4274 -0.7829
  337MOL0     H45448   7.332  -1.343   4.865 -1.9305 -0.7937  1.4555
  337MOL0     H45449   7.499  -1.207   5.084  1.6801 -1.4355  0.8009
  337MOL0     H45450   7.485  -1.377   5.073  2.2205  1.8105  2.6614
  337MOL0     H45451   7.627  -1.215   4.841 -4.2726 -0.1353  0.4276
  337MOL0     H45452   7.627  -1.387   4.864  2.0185 -0.0606  0.4648
  337MOL0     H45453   7.747  -1.359   5.088 -0.1939 -2.0865 -2.4693
  337MOL0     H45454   7.741  -1.179   5.063  3.0433 -0.8150  1.5775
  337MOL0     H45455   7.908  -1.248   5.225 -0.1585 -0.3273  0.3590
  337MOL0     H45456   8.109  -1.167   5.315  2.8137 -0.5865  0.0240
  337MOL0     H45457   8.543  -1.068   5.386  0.5440  0.8624  1.1804
  337MOL0     H45458   8.753  -0.997   5.441  1.8819  2.4057 -0.4663
  337MOL0     H45459   9.040  -0.918   5.153 -1.2126  0.7918 -1.0762
  337MOL0     H45460   9.002  -0.742   5.167 -0.2269  0.7548  1.1856
  337MOL0     H45461   9.172  -0.875   5.382 -1.0547  0.6944  1.0136
  337MOL0     H45462   9.243  -0.845   5.229 -0.0001  2.0447 -0.7525
  337MOL0     H45463   9.279  -0.653   5.361 -0.3007  0.6143  1.2445
  337MOL0     H45464   9.167  -0.596   5.236  1.7850  0.8960  0.4562
  337MOL0     H45465   9.066  -0.713   5.503 -1.1477 -0.5929 -0.0933
  337MOL0     H45466   8.970  -0.611   5.391  0.4027  3.2838  0.7711
  337MOL0     H45467   9.140  -0.417   5.449 -0.8070  0.1800 -0.0273
  337MOL0     H45468   9.217  -0.543   5.555 -0.1325 -1.2361 -1.6723
  337MOL0     H45469   8.961  -0.556   5.649  1.7782 -1.2852  0.8310
  337MOL0     H45470   9.088  -0.454   5.717 -1.1318 -1.7437  0.6919
  337MOL0     H45471   8.967  -0.310   5.500 -0.8153  1.1605 -0.3632
  337MOL0     H45472   8.972  -0.260   5.674 -0.4078 -1.7459  2.5181
  337MOL0     H45473   8.732  -0.301   5.577  0.0191  1.3885  0.0399
  337MOL0     H45474   8.791  -0.468   5.554  1.7365  1.0995 -1.7437
  337MOL0     H45475   8.822  -0.831   5.053  1.3178  2.4251  1.0154
  337MOL0     H45476   8.592  -0.909   4.987 -2.7768  0.4574  0.7411
  337MOL0     H45477   8.282  -1.103   4.937 -0.9443 -0.5847 -1.9022
  337MOL0     H45478   8.076  -1.201   4.822 -0.6254  2.5077 -0.0927
  337MOL0     H45479   6.427  -0.336   4.946 -3.3676  0.4162  2.9096
  337MOL0     H45480   6.270  -0.192   5.015  0.9974  0.1985 -0.1568
  337MOL0     H45481   6.134   0.337   4.752  1.4590  0.5211  2.4362
  337MOL0     H45482   5.961   0.520   4.770 -1.6498 -0.5050 -1.3453
  337MOL0     H45483   5.679   0.572   4.661  2.4939  1.1775 -0.5760
  337MOL0     H45484   5.793   0.663   4.768 -0.5520  1.9027  1.9350
  337MOL0     H45485   5.571   0.772   4.732 -1.2142 -0.6726 -0.7743
  337MOL0     H45486   5.628   0.741   4.904  0.7036 -0.5405 -0.1521
  337MOL0     H45487   5.455   0.557   4.917 -0.4662  1.6436  1.1134
  337MOL0     H45488   5.430   0.576   4.742  0.1909 -3.0887  0.5956
  337MOL0     H45489   5.380   0.797   4.945  1.8841 -0.7492  0.2054
  337MOL0     H45490   5.347   0.794   4.770 -1.4591 -0.9307  0.9017
  337MOL0     H45491   5.009   0.604   4.926  0.1441 -1.3943  0.1482
  337MOL0     H45492   5.693   0.236   4.947  0.9244  0.7290  1.2220
  337MOL0     H45493   5.725   0.021   4.957  0.1326 -1.2917  0.9398
  337MOL0     H45494   5.839  -0.064   4.849  1.2285  1.0948 -0.6406
  337MOL0     H45495   5.889  -0.012   5.012 -0.3463  1.2034  0.7309
  338MOL0     O45496  11.160   4.765   2.492  0.0030 -0.4940  0.4838
  338MOL0     C45497  11.124   4.724   2.600  0.5682 -0.5073 -0.1751
  338MOL0     O45498  11.152   4.599   2.643 -0.5084 -0.9703  0.0248
  338MOL0     C45499  11.231   4.520   2.560 -0.0432  0.1637 -0.3906
  338MOL0     C45500  11.351   4.483   2.614  0.1572  0.6617  0.6213
  338MOL0     C45501  11.437   4.397   2.546 -0.2943 -0.3134 -0.0668
  338MOL0     C45502  11.390   4.334   2.424 -0.2348 -0.3433 -0.1080
  338MOL0     O45503  11.472   4.245   2.362  0.6375  0.6593  0.5292
  338MOL0     C45504  11.460   4.212   2.225  0.5648  0.7308 -0.2881
  338MOL0     C45505  11.603   4.169   2.182  0.2478 -0.3314  0.6265
  338MOL0     C45506  11.615   4.193   2.027  0.7321 -0.6390 -0.3124
  338MOL0     C45507  11.692   4.074   1.966  1.1948  0.4693  0.0170
  338MOL0     C45508  11.833   4.044   2.028  0.2995 -0.4241 -0.3458
  338MOL0     C45509  11.943   4.144   2.004 -0.8271  0.5185 -0.9418
  338MOL0     C45510  12.081   4.087   2.036 -0.5786 -0.1787  0.1028
  338MOL0     C45511  12.105   4.040   2.187  0.4847 -0.4047  0.8911
  338MOL0     N45512  12.241   3.980   2.212 -0.3799 -0.8003  0.8095
  338MOL0     C45513  12.361   4.043   2.181 -0.2397  0.1021 -0.2665
  338MOL0     C45514  12.459   3.945   2.199  0.0304 -0.1153 -0.0381
  338MOL0     C45515  12.615   3.957   2.195 -0.3905  0.0472  0.9381
  338MOL0     C45516  12.686   4.056   2.280 -0.0363 -0.9115  0.0868
  338MOL0     C45517  12.833   4.035   2.297 -0.4495 -0.0305 -0.2770
  338MOL0     C45518  12.916   4.052   2.167  0.5516 -0.1318  0.6074
  338MOL0     O45519  13.053   4.088   2.211 -0.3355 -0.3049  0.1936
  338MOL0     C45520  13.134   4.103   2.105  0.2576  0.3360 -0.6340
  338MOL0     C45521  13.256   4.036   2.110  0.9150 -0.6959 -0.0230
  338MOL0     C45522  13.353   4.055   2.005  0.0919  0.7600  0.0459
  338MOL0     C45523  13.336   4.158   1.914 -0.0895  0.2560  0.0983
  338MOL0     C45524  13.451   4.183   1.815 -0.6512  0.4429 -0.8527
  338MOL0     O45525  13.559   4.105   1.825  0.1671  0.7161 -0.4886
  338MOL0     C45526  13.663   4.130   1.735  0.3162 -0.3740 -0.1897
  338MOL0     C45527  13.788   4.176   1.774 -0.5920 -0.5541 -0.4430
  338MOL0     C45528  13.891   4.200   1.681  0.0502  0.3751  0.2135
  338MOL0     C45529  13.867   4.186   1.543 -0.0345  0.6162  0.8343
  338MOL0     O45530  13.959   4.211   1.445  0.1632  0.3569  0.7107
  338MOL0     C45531  14.085   4.279   1.465  0.0425  0.1249 -0.3273
  338MOL0     C45532  14.162   4.275   1.336  0.2990 -0.3038 -0.0146
  338MOL0     C45533  14.293   4.366   1.353  0.6900 -0.4266  0.1027
  338MOL0     C45534  14.350   4.412   1.220 -0.8283  0.0320  0.2496
  338MOL0     C45535  14.458   4.523   1.243  0.4067 -0.0957  1.1819
  338MOL0     C45536  14.532   4.543   1.114  0.3619  0.0751 -0.6037
  338MOL0     C45537  14.667   4.621   1.134 -0.3718 -0.3471  0.0727
  338MOL0     C45538  14.640   4.772   1.174 -0.0702 -0.3023  0.0671
  338MOL0    Cl45539  14.555   4.861   1.044  0.6226  0.3682  0.1531
  338MOL0     C45540  13.742   4.123   1.501 -0.3853  0.0510 -0.1833
  338MOL0     C45541  13.646   4.100   1.598 -0.3532 -1.5159  0.1683
  338MOL0     O45542  13.432   4.275   1.737 -0.1131 -0.1456  0.9833
  338MOL0     C45543  13.204   4.217   1.901 -0.0063  0.0996 -0.0455
  338MOL0     C45544  13.110   4.189   2.002  0.2365  0.9556  0.7498
  338MOL0     N45545  12.395   3.828   2.230 -0.7825 -0.4628  0.7642
  338MOL0     N45546  12.276   3.849   2.246  0.9524  0.0731  0.0905
  338MOL0     C45547  11.273   4.379   2.369  0.1325  0.2598 -0.4903
  338MOL0     C45548  11.198   4.479   2.431 -0.2745  0.3692 -0.2783
  338MOL0     C45549  11.042   4.812   2.690 -1.1136  0.1881 -0.4347
  338MOL0     C45550  11.042   4.773   2.824 -0.0951 -0.5595  0.5583
  338MOL0     C45551  10.983   4.863   2.922 -0.8721  0.1213  0.2270
  338MOL0     C45552  10.919   4.984   2.882  0.6312  0.4022  0.0032
  338MOL0     O45553  10.847   5.068   2.961  0.2094  0.9466 -0.1863
  338MOL0     C45554  10.914   5.094   3.081 -0.2019 -0.4121 -0.2981
  338MOL0     C45555  10.836   5.211   3.135 -0.0711  0.1992  0.8435
  338MOL0     C45556  10.844   5.349   3.043  0.6689 -0.0301 -0.6064
  338MOL0     C45557  10.986   5.388   3.003  0.1602 -0.3323  0.3377
  338MOL0     C45558  10.997   5.527   2.959  0.2565 -0.8276  0.5864
  338MOL0     C45559  11.019   5.626   2.898  0.8155 -0.3787 -0.4939
  338MOL0     C45560  10.908   5.001   2.749 -0.3446  0.8099 -1.6487
  338MOL0     C45561  10.976   4.920   2.655 -0.5120 -0.2015  0.5860
  338MOL0     C45562  10.977   4.980   2.519 -0.1893 -0.5488  0.7655
  338MOL0     H45563  11.376   4.532   2.708 -2.1553  1.4768  0.8810
  338MOL0     H45564  11.529   4.361   2.589  1.3191  0.0381 -2.9560
  338MOL0     H45565  11.393   4.127   2.211 -0.8674  1.9854 -1.4695
  338MOL0     H45566  11.419   4.284   2.153 -1.1688 -0.9966 -1.1232
  338MOL0     H45567  11.623   4.065   2.207  0.5487 -0.8180 -1.4680
  338MOL0     H45568  11.672   4.246   2.216  1.3481  0.5910 -3.2140
  338MOL0     H45569  11.678   4.281   2.010 -0.4948  0.3735  0.1592
  338MOL0     H45570  11.515   4.212   1.987 -0.0195 -0.1822  1.6734
  338MOL0     H45571  11.633   3.985   1.988  1.2919  0.3361 -0.2550
  338MOL0     H45572  11.710   4.087   1.859  4.0573 -2.8460 -0.0794
  338MOL0     H45573  11.823   4.024   2.135 -0.2574 -0.7269 -0.4529
  338MOL0     H45574  11.859   3.948   1.983  0.1763 -2.4650  3.4717
  338MOL0     H45575  11.958   4.161   1.897  1.0134 -1.8521 -1.1370
  338MOL0     H45576  11.935   4.237   2.060  2.6546  1.9351 -2.5677
  338MOL0     H45577  12.165   4.153   2.012  2.9023 -3.4945  1.9118
  338MOL0     H45578  12.088   4.001   1.968 -2.4223  0.1767 -0.5971
  338MOL0     H45579  12.099   4.142   2.227 -1.8731  0.1019 -0.6016
  338MOL0     H45580  12.023   3.978   2.223 -0.0145  0.4937  1.3546
  338MOL0     H45581  12.388   4.145   2.156  1.3645 -0.2786 -0.1472
  338MOL0     H45582  12.649   3.858   2.224  0.3622 -0.2261 -0.7786
  338MOL0     H45583  12.642   3.976   2.090 -2.3278 -0.3957  0.3189
  338MOL0     H45584  12.666   4.155   2.238  2.4075  1.3889  3.7955
  338MOL0     H45585  12.649   4.057   2.383 -1.3737  0.6506 -0.3708
  338MOL0     H45586  12.864   3.940   2.341 -0.3173  0.9855  1.9429
  338MOL0     H45587  12.867   4.119   2.359  0.3101 -0.5124 -0.0328
  338MOL0     H45588  12.873   4.133   2.107  0.0537 -0.3445  0.6711
  338MOL0     H45589  12.914   3.962   2.106 -1.3557 -0.0579  0.5022
  338MOL0     H45590  13.262   3.965   2.193 -1.7966 -1.9459 -0.7735
  338MOL0     H45591  13.446   3.999   2.008 -0.3365 -0.0711 -1.2965
  338MOL0     H45592  13.806   4.184   1.881  1.2885 -1.5421 -0.6484
  338MOL0     H45593  13.984   4.243   1.715 -0.9927  2.6435  0.4173
  338MOL0     H45594  14.068   4.381   1.500 -1.0633  0.4997 -1.8770
  338MOL0     H45595  14.143   4.233   1.546 -0.8751 -1.0281 -0.2978
  338MOL0     H45596  14.197   4.173   1.319  2.3569  0.0543  1.5886
  338MOL0     H45597  14.100   4.314   1.255  2.1207  1.1098 -0.8286
  338MOL0     H45598  14.265   4.455   1.410 -0.5667  0.5050 -1.8229
  338MOL0     H45599  14.371   4.323   1.416  0.2552 -0.6538  0.4955
  338MOL0     H45600  14.266   4.445   1.158 -1.7738 -5.1915 -1.7876
  338MOL0     H45601  14.394   4.324   1.174  0.7799  0.4092  0.9849
  338MOL0     H45602  14.526   4.499   1.325  0.7993  1.2529  1.2824
  338MOL0     H45603  14.406   4.612   1.280  2.5076  1.0915  1.4559
  338MOL0     H45604  14.566   4.446   1.077  0.9156  0.2870 -0.6543
  338MOL0     H45605  14.468   4.581   1.034 -2.3228  0.7164  1.6560
  338MOL0     H45606  14.714   4.611   1.036  1.7718  1.4840  0.8319
  338MOL0     H45607  14.737   4.571   1.201  0.5496 -2.5024 -2.3156
  338MOL0     H45608  14.584   4.770   1.268 -0.0534 -3.2516  0.1291
  338MOL0     H45609  14.737   4.817   1.199 -1.2691  3.4691 -1.3954
  338MOL0     H45610  13.734   4.090   1.398 -3.0317 -0.8815  0.2211
  338MOL0     H45611  13.556   4.048   1.568 -1.3029 -1.7577  3.1040
  338MOL0     H45612  13.169   4.274   1.816 -0.9730 -1.1663 -0.5331
  338MOL0     H45613  13.015   4.241   2.002 -1.1836 -1.4840 -0.2564
  338MOL0     H45614  11.239   4.338   2.274  0.5374  0.9204 -0.9262
  338MOL0     H45615  11.108   4.522   2.391 -0.2446  0.5224 -0.1826
  338MOL0     H45616  11.087   4.677   2.850  2.5312  0.0086 -1.3977
  338MOL0     H45617  10.985   4.810   3.017  5.2377  0.2481  0.5905
  338MOL0     H45618  11.017   5.127   3.065 -0.9267  1.5953 -1.0661
  338MOL0     H45619  10.913   5.012   3.154  2.3671  0.2785  0.6218
  338MOL0     H45620  10.875   5.224   3.236  1.2045  0.4345  0.3476
  338MOL0     H45621  10.730   5.192   3.151 -0.2708  1.5200  1.2114
  338MOL0     H45622  10.798   5.433   3.095 -1.5892  0.3112 -2.9187
  338MOL0     H45623  10.792   5.332   2.948  1.0488  1.6127 -1.1319
  338MOL0     H45624  11.059   5.380   3.084 -0.0827  0.8893  0.7106
  338MOL0     H45625  11.015   5.325   2.919 -0.3156 -0.1273  0.0217
  338MOL0     H45626  11.045   5.721   2.855 -2.7296  1.6218  1.2415
  338MOL0     H45627  10.875   5.094   2.705 -2.0189  1.2155  0.3048
  338MOL0     H45628  11.072   5.034   2.514 -1.2844  1.4510  0.4594
  338MOL0     H45629  10.973   4.905   2.440 -2.5587  1.2115 -0.9608
  338MOL0     H45630  10.897   5.052   2.495  0.8170 -0.4752 -2.9554
  339MOL0     O45631   0.575   6.077   2.188 -0.1668  0.2227 -0.3883
  339MOL0     C45632   0.505   5.991   2.252 -0.8688  0.1400 -0.9151
  339MOL0     O45633   0.550   5.925   2.364  0.1204  0.2358 -0.3513
  339MOL0     C45634   0.678   5.926   2.411 -0.3196  0.1420 -0.1253
  339MOL0     C45635   0.794   5.953   2.326  0.2801  0.1099 -0.7595
  339MOL0     C45636   0.923   5.945   2.384 -0.3913 -0.2581  0.3228
  339MOL0     C45637   0.936   5.922   2.527 -0.7066  0.6737  0.4655
  339MOL0     O45638   1.057   5.912   2.583  0.3823 -0.2968 -0.3744
  339MOL0     C45639   1.173   5.948   2.508 -0.5073 -0.2919  0.0419
  339MOL0     C45640   1.292   5.968   2.610 -0.9055  0.5799 -0.3688
  339MOL0     C45641   1.434   5.945   2.554  0.5215 -0.2742  0.0414
  339MOL0     C45642   1.548   5.975   2.652 -0.0889  0.6429  0.3117
  339MOL0     C45643   1.690   5.966   2.576 -0.3080 -0.6221 -0.4387
  339MOL0     C45644   1.798   5.953   2.681  0.1512  0.7417  0.2128
  339MOL0     C45645   1.942   5.966   2.622 -0.0954  0.8444 -0.0136
  339MOL0     C45646   2.038   6.044   2.719 -0.2992 -0.0969  0.2395
  339MOL0     N45647   2.114   5.951   2.804 -0.2050  1.3460  1.1577
  339MOL0     C45648   2.232   5.887   2.764  0.2528  0.3615 -0.4038
  339MOL0     C45649   2.275   5.815   2.870  0.3185  0.7768  0.2183
  339MOL0     C45650   2.403   5.729   2.866 -0.0367 -1.3539  0.1939
  339MOL0     C45651   2.510   5.796   2.955 -0.4873  0.3795 -0.6286
  339MOL0     C45652   2.651   5.756   2.909 -0.1771  0.0166 -0.9649
  339MOL0     C45653   2.746   5.751   3.030  0.8193  0.0228 -0.1010
  339MOL0     O45654   2.874   5.755   2.974  0.1798 -0.1294  0.0775
  339MOL0     C45655   2.978   5.801   3.051 -0.4910 -0.1717 -0.7095
  339MOL0     C45656   3.102   5.813   2.983 -0.0198 -0.1049 -0.5412
  339MOL0     C45657   3.214   5.866   3.048  0.0788 -0.3121  0.0765
  339MOL0     C45658   3.202   5.905   3.183 -0.2276 -0.0698 -0.2387
  339MOL0     C45659   3.328   5.955   3.257  0.1609  0.1773  0.3446
  339MOL0     O45660   3.444   5.933   3.190 -0.1318 -0.4093  0.0407
  339MOL0     C45661   3.562   5.987   3.239  0.3951  0.2630  0.2274
  339MOL0     C45662   3.591   6.092   3.331 -0.8348  0.0631 -0.3834
  339MOL0     C45663   3.728   6.124   3.358 -0.9675  0.1757 -0.1744
  339MOL0     C45664   3.833   6.068   3.288  0.1740 -0.8731 -0.3647
  339MOL0     O45665   3.964   6.117   3.306 -1.0642  0.3119 -0.3957
  339MOL0     C45666   3.992   6.256   3.330 -0.0414  0.1356  0.6649
  339MOL0     C45667   4.033   6.282   3.475  0.4306  0.0793  0.4193
  339MOL0     C45668   4.155   6.206   3.511  0.0200 -0.1113 -0.0360
  339MOL0     C45669   4.221   6.251   3.638 -0.1257  0.4841  0.5688
  339MOL0     C45670   4.353   6.180   3.643  0.2177 -0.2659 -0.0749
  339MOL0     C45671   4.426   6.215   3.770 -0.0449 -0.2484  0.8242
  339MOL0     C45672   4.558   6.126   3.776 -0.2430  0.3730 -0.0569
  339MOL0     C45673   4.626   6.147   3.910 -0.7303  0.2454  0.7516
  339MOL0    Cl45674   4.709   6.312   3.921 -0.5460  0.0948 -0.6984
  339MOL0     C45675   3.801   5.966   3.197  0.2228  0.6121  0.1816
  339MOL0     C45676   3.669   5.931   3.167  0.1738 -1.6408 -0.6173
  339MOL0     O45677   3.316   6.001   3.371  0.4068 -0.2574 -0.5390
  339MOL0     C45678   3.081   5.894   3.254 -0.2703 -0.2743  0.1395
  339MOL0     C45679   2.975   5.832   3.196  0.5899  0.6123  0.7264
  339MOL0     N45680   2.182   5.829   2.960  0.1313  0.4243 -0.9869
  339MOL0     N45681   2.083   5.902   2.923 -0.9848  0.3649 -0.1618
  339MOL0     C45682   0.826   5.916   2.601 -0.5668 -0.3378 -0.4515
  339MOL0     C45683   0.701   5.903   2.546  0.3683  0.0595 -0.0605
  339MOL0     C45684   0.362   5.975   2.213 -0.3196  0.0742 -0.3920
  339MOL0     C45685   0.304   6.087   2.139 -0.5907 -0.0453  0.2084
  339MOL0     C45686   0.169   6.089   2.114  0.6088  0.7780  0.2550
  339MOL0     C45687   0.085   5.979   2.153  0.0146 -0.3608 -0.6617
  339MOL0     O45688  -0.050   5.978   2.126  0.0577 -0.2982 -1.0760
  339MOL0     C45689  -0.096   6.073   2.029 -0.5159  0.3224  0.2161
  339MOL0     C45690  -0.241   6.035   2.014 -0.0780 -0.6084  0.0048
  339MOL0     C45691  -0.299   6.091   1.883  0.0232 -0.1795 -0.1483
  339MOL0     C45692  -0.447   6.092   1.866  0.2072 -0.2529  0.4176
  339MOL0     C45693  -0.514   6.180   1.961  0.0370 -0.0507  0.3341
  339MOL0     C45694  -0.568   6.258   2.038  0.0964 -0.7589 -0.4085
  339MOL0     C45695   0.147   5.877   2.225 -0.5133 -0.5284 -0.2816
  339MOL0     C45696   0.280   5.868   2.253 -0.0977  0.7497 -0.1425
  339MOL0     C45697   0.323   5.741   2.328  0.3988 -0.2240 -0.6539
  339MOL0     H45698   0.797   5.981   2.221  2.1174  0.5703 -0.6186
  339MOL0     H45699   1.005   5.962   2.315  0.5240  1.5987  1.7609
  339MOL0     H45700   1.196   5.867   2.438 -1.5961  0.6407 -1.4724
  339MOL0     H45701   1.162   6.037   2.445  1.3003  1.6079  2.2421
  339MOL0     H45702   1.300   5.893   2.689  2.9763  1.4019  0.2329
  339MOL0     H45703   1.278   6.066   2.658  1.1981  0.2779  0.9965
  339MOL0     H45704   1.453   6.005   2.465 -0.1136 -0.7609 -0.4275
  339MOL0     H45705   1.443   5.841   2.523  0.6730 -0.3062  0.1857
  339MOL0     H45706   1.538   6.079   2.684 -0.7082  1.5368 -2.5473
  339MOL0     H45707   1.547   5.894   2.726  0.7054 -0.4579 -0.8265
  339MOL0     H45708   1.685   5.871   2.522  1.5636 -0.9092 -0.1700
  339MOL0     H45709   1.697   6.049   2.504 -1.3236 -1.8640 -2.0407
  339MOL0     H45710   1.786   6.034   2.753  0.3165  0.7973  0.1773
  339MOL0     H45711   1.779   5.856   2.728  0.9032  1.9001  3.1189
  339MOL0     H45712   1.948   6.029   2.533  3.8651 -0.7219 -1.0465
  339MOL0     H45713   1.989   5.872   2.594 -1.8702  0.0269 -0.3813
  339MOL0     H45714   2.111   6.097   2.657 -0.6229  0.8266  0.6353
  339MOL0     H45715   1.991   6.119   2.783  0.3746 -0.4336  1.1499
  339MOL0     H45716   2.276   5.903   2.666 -1.2066  0.6682 -1.0444
  339MOL0     H45717   2.389   5.626   2.899 -0.9340 -0.9539  1.1030
  339MOL0     H45718   2.430   5.730   2.760  2.2299  1.6874  0.6476
  339MOL0     H45719   2.502   5.905   2.950 -1.0897  0.3102 -4.1344
  339MOL0     H45720   2.497   5.768   3.059 -2.2470  4.4675  0.4559
  339MOL0     H45721   2.677   5.834   2.837 -2.6064  1.7313 -0.0939
  339MOL0     H45722   2.665   5.656   2.866  6.1521 -0.3463  0.8664
  339MOL0     H45723   2.734   5.660   3.090 -1.4011 -0.6296 -1.3963
  339MOL0     H45724   2.719   5.825   3.107 -0.6438  0.0436 -0.6146
  339MOL0     H45725   3.098   5.791   2.876 -1.2249 -0.7967 -0.3753
  339MOL0     H45726   3.309   5.873   2.996 -1.2283  1.0403 -2.2537
  339MOL0     H45727   3.516   6.152   3.383  1.3592  0.9769  1.9359
  339MOL0     H45728   3.759   6.195   3.435  0.8143  0.3088 -0.9663
  339MOL0     H45729   4.082   6.277   3.272 -0.3710 -1.9654 -0.7295
  339MOL0     H45730   3.915   6.322   3.288  1.1108 -0.2239 -2.3159
  339MOL0     H45731   4.052   6.386   3.506  0.5775 -0.1498  1.1301
  339MOL0     H45732   3.949   6.240   3.531  0.7034 -1.1213 -0.0459
  339MOL0     H45733   4.128   6.101   3.528  0.7125 -0.1792  0.6893
  339MOL0     H45734   4.229   6.199   3.431  1.8914 -2.6924  1.7376
  339MOL0     H45735   4.166   6.209   3.723  1.8162 -1.7506  0.8394
  339MOL0     H45736   4.236   6.359   3.645 -1.0060  0.5949  0.8229
  339MOL0     H45737   4.420   6.198   3.558 -0.4912 -2.0789 -1.0876
  339MOL0     H45738   4.339   6.071   3.644  0.5342 -0.3910 -2.2756
  339MOL0     H45739   4.451   6.322   3.769 -2.5750  0.4046  0.8560
  339MOL0     H45740   4.360   6.203   3.856  0.2719  0.1177  1.1201
  339MOL0     H45741   4.639   6.149   3.706 -0.0727 -4.4207 -1.7568
  339MOL0     H45742   4.536   6.021   3.760  0.7302  0.2880 -0.9489
  339MOL0     H45743   4.548   6.133   3.985 -0.9130  2.5535  1.0806
  339MOL0     H45744   4.711   6.081   3.931  0.8892  1.4826 -1.4027
  339MOL0     H45745   3.887   5.919   3.150  0.2316  1.6674 -0.9085
  339MOL0     H45746   3.638   5.861   3.091 -1.4093  1.6600 -3.2544
  339MOL0     H45747   3.082   5.932   3.356  0.2962 -0.3401  0.1637
  339MOL0     H45748   2.879   5.815   3.243  0.4622 -2.6581 -0.4410
  339MOL0     H45749   0.837   5.904   2.708  3.0410 -0.4916 -0.7162
  339MOL0     H45750   0.613   5.902   2.609 -2.1040  3.4865 -3.0117
  339MOL0     H45751   0.373   6.164   2.104 -0.9467  0.4783  0.6267
  339MOL0     H45752   0.133   6.176   2.060 -0.4293 -0.1922 -0.6621
  339MOL0     H45753  -0.045   6.060   1.934 -0.3207  2.2621  0.0329
  339MOL0     H45754  -0.089   6.177   2.062 -0.0947 -0.7998  4.2960
  339MOL0     H45755  -0.294   6.071   2.103  4.2310 -2.7613  3.8517
  339MOL0     H45756  -0.253   5.926   2.013  1.1816 -0.7495 -0.4722
  339MOL0     H45757  -0.260   6.026   1.804  1.0790 -0.8137  0.8621
  339MOL0     H45758  -0.255   6.188   1.863  1.8094 -0.8995  0.1161
  339MOL0     H45759  -0.474   6.133   1.768  1.1813 -1.7484 -0.5214
  339MOL0     H45760  -0.502   5.998   1.878  0.7644 -0.6386 -0.0067
  339MOL0     H45761  -0.599   6.334   2.107  2.8856  0.6380 -0.5533
  339MOL0     H45762   0.094   5.786   2.250 -0.6924 -0.7257 -1.3433
  339MOL0     H45763   0.351   5.765   2.431 -1.8678  0.6470 -0.1788
  339MOL0     H45764   0.248   5.664   2.345  1.6361 -0.8300  2.8757
  339MOL0     H45765   0.390   5.681   2.267 -0.4560 -1.7615 -0.1232
  340MOL0     O45766   5.955   1.062   2.188  0.4972 -0.2132 -0.5442
  340MOL0     C45767   5.862   1.139   2.176 -0.4494  0.8492 -0.0116
  340MOL0     O45768   5.871   1.261   2.119  0.3748  0.2616 -0.2086
  340MOL0     C45769   5.998   1.301   2.080 -0.1019  0.7878  0.2229
  340MOL0     C45770   6.036   1.286   1.948  0.2244  0.0122  0.3460
  340MOL0     C45771   6.163   1.324   1.903 -0.1379 -0.1612  0.0248
  340MOL0     C45772   6.259   1.379   1.990  0.1116 -0.0539  0.2076
  340MOL0     O45773   6.369   1.449   1.950 -1.3131 -0.4423 -0.6300
  340MOL0     C45774   6.425   1.447   1.817  0.0412 -0.7446  0.6295
  340MOL0     C45775   6.554   1.532   1.795  0.4349 -0.8708 -0.4443
  340MOL0     C45776   6.644   1.479   1.680  0.2984  0.5089 -0.1083
  340MOL0     C45777   6.768   1.564   1.640 -0.2560 -0.0818  0.0576
  340MOL0     C45778   6.879   1.486   1.557  0.7951 -0.4483  0.2583
  340MOL0     C45779   6.956   1.384   1.635 -0.6611  0.6224  0.1270
  340MOL0     C45780   7.086   1.335   1.563  0.8153 -0.2433  0.4002
  340MOL0     C45781   7.212   1.433   1.556 -0.3294 -0.0900 -0.0792
  340MOL0     N45782   7.247   1.488   1.689 -0.4294 -0.7449  0.7341
  340MOL0     C45783   7.277   1.423   1.807  0.5698  0.6362  0.0633
  340MOL0     C45784   7.266   1.515   1.904 -0.4794 -0.3783  0.2096
  340MOL0     C45785   7.295   1.499   2.044  0.3295 -0.4044 -0.3281
  340MOL0     C45786   7.436   1.515   2.092  0.4249  0.1122  0.4071
  340MOL0     C45787   7.500   1.651   2.075 -0.6141 -0.3657 -0.4967
  340MOL0     C45788   7.448   1.752   2.183  0.5733  0.6232 -0.1357
  340MOL0     O45789   7.476   1.718   2.317 -0.0006 -1.1931 -0.6627
  340MOL0     C45790   7.580   1.787   2.373 -0.1953  0.1000  0.0336
  340MOL0     C45791   7.720   1.770   2.352 -0.8155 -0.6325 -0.3939
  340MOL0     C45792   7.813   1.849   2.416  0.0177 -0.1562  0.2781
  340MOL0     C45793   7.767   1.951   2.500 -0.3815 -0.6177  0.6284
  340MOL0     C45794   7.862   2.048   2.559  0.2546 -0.5153  0.6289
  340MOL0     O45795   7.993   2.027   2.547 -0.3196 -0.0409  0.2151
  340MOL0     C45796   8.091   2.122   2.562 -0.6099  0.2725  0.0993
  340MOL0     C45797   8.064   2.260   2.552 -0.6378 -0.4064  0.1066
  340MOL0     C45798   8.169   2.349   2.566  0.0166  0.0047 -0.0909
  340MOL0     C45799   8.299   2.297   2.591 -0.4369 -0.0180 -0.3774
  340MOL0     O45800   8.413   2.373   2.595 -0.0288  0.0864  0.3617
  340MOL0     C45801   8.411   2.505   2.531 -0.0036  0.5285  0.2065
  340MOL0     C45802   8.552   2.555   2.519  0.9225  0.3322  0.5295
  340MOL0     C45803   8.614   2.505   2.387 -0.0355 -0.3092 -1.0588
  340MOL0     C45804   8.758   2.549   2.389 -0.2174  0.1534  0.9897
  340MOL0     C45805   8.850   2.459   2.477 -0.1830  0.3241  0.0168
  340MOL0     C45806   9.001   2.498   2.470 -0.0403  0.2934 -0.3757
  340MOL0     C45807   9.020   2.636   2.548  0.9646 -0.5389  0.6883
  340MOL0     C45808   9.174   2.666   2.575 -0.0360 -0.5437  0.3361
  340MOL0    Cl45809   9.279   2.679   2.423 -0.4470  0.3477 -0.0943
  340MOL0     C45810   8.324   2.163   2.600 -0.0657 -0.3049 -0.2278
  340MOL0     C45811   8.219   2.077   2.586 -0.6851  1.0912  0.5507
  340MOL0     O45812   7.815   2.148   2.617 -0.2762 -0.9700 -0.4203
  340MOL0     C45813   7.625   1.955   2.524  0.0073 -0.1128 -0.2035
  340MOL0     C45814   7.530   1.874   2.466 -0.8114  0.4079 -0.3754
  340MOL0     N45815   7.245   1.634   1.847  0.2516  0.3943  0.3251
  340MOL0     N45816   7.231   1.620   1.718  0.1324 -0.7749  0.0864
  340MOL0     C45817   6.225   1.387   2.125 -0.5775  0.4005 -0.4664
  340MOL0     C45818   6.091   1.348   2.167 -0.7418 -0.1426 -0.3367
  340MOL0     C45819   5.736   1.091   2.222  0.4583  0.1971 -1.2644
  340MOL0     C45820   5.693   0.958   2.193  0.1868 -0.8921  0.3815
  340MOL0     C45821   5.566   0.909   2.216 -0.2183  0.0212  0.3052
  340MOL0     C45822   5.486   0.982   2.297  0.2552 -0.4271  0.0790
  340MOL0     O45823   5.364   0.930   2.330  0.0173 -0.1034 -0.3233
  340MOL0     C45824   5.269   1.008   2.404 -0.6410 -0.5360 -0.6056
  340MOL0     C45825   5.145   0.930   2.427  0.1792 -0.0945 -0.2175
  340MOL0     C45826   5.021   1.016   2.443 -0.0943  0.1213  0.5341
  340MOL0     C45827   5.014   1.100   2.568  0.1185  0.5268 -0.0636
  340MOL0     C45828   4.895   1.184   2.551  1.0959  0.5545  0.9736
  340MOL0     C45829   4.793   1.248   2.528 -0.3829 -0.7688 -0.0371
  340MOL0     C45830   5.523   1.098   2.340  0.9218 -0.6761 -0.9457
  340MOL0     C45831   5.646   1.163   2.305  0.8028  1.0040 -0.1567
  340MOL0     C45832   5.677   1.296   2.370 -0.5448 -0.1090 -0.4352
  340MOL0     H45833   5.960   1.247   1.881 -0.1249  3.9655 -1.8195
  340MOL0     H45834   6.193   1.316   1.800  0.6261  1.6247  0.0651
  340MOL0     H45835   6.442   1.345   1.781  1.0103 -0.4365  0.1683
  340MOL0     H45836   6.346   1.487   1.752  1.7239  2.0211  0.0975
  340MOL0     H45837   6.610   1.523   1.889 -2.0202 -2.9950  0.9584
  340MOL0     H45838   6.527   1.636   1.774  0.3676 -1.0126 -1.0604
  340MOL0     H45839   6.578   1.458   1.596  0.0249  0.9864 -0.0160
  340MOL0     H45840   6.681   1.383   1.718  1.7313  1.5248  1.2200
  340MOL0     H45841   6.737   1.650   1.579  1.6925  2.3291  2.2471
  340MOL0     H45842   6.819   1.611   1.724  1.2522 -2.2721  0.4439
  340MOL0     H45843   6.847   1.441   1.463 -0.9134  1.2568 -0.0226
  340MOL0     H45844   6.953   1.564   1.537  2.3331 -1.4156  1.7878
  340MOL0     H45845   6.976   1.422   1.736 -0.7608 -0.7817  0.7061
  340MOL0     H45846   6.891   1.297   1.653 -0.9343  0.4045 -1.7565
  340MOL0     H45847   7.060   1.313   1.459  1.1279 -2.3099  0.7179
  340MOL0     H45848   7.124   1.240   1.603  3.6332 -0.2385 -1.9137
  340MOL0     H45849   7.293   1.366   1.525 -0.7589 -1.3955  1.4912
  340MOL0     H45850   7.196   1.516   1.487  0.8547  1.3088  1.2292
  340MOL0     H45851   7.289   1.317   1.824  0.0163  1.0880  4.6944
  340MOL0     H45852   7.226   1.556   2.106  0.5280 -0.1893 -0.3021
  340MOL0     H45853   7.258   1.398   2.061 -1.4449  0.3199  0.3315
  340MOL0     H45854   7.439   1.489   2.198  1.6615 -0.3929  0.2613
  340MOL0     H45855   7.490   1.438   2.036 -2.4833 -2.2213  0.5512
  340MOL0     H45856   7.486   1.692   1.975 -0.6639  1.2422  0.1288
  340MOL0     H45857   7.606   1.628   2.089 -1.1054 -2.6817 -0.2987
  340MOL0     H45858   7.342   1.769   2.164  0.6315 -1.5293 -2.8469
  340MOL0     H45859   7.499   1.845   2.154 -1.5008  1.4202 -1.4257
  340MOL0     H45860   7.754   1.689   2.288 -3.8429 -0.1254 -2.8816
  340MOL0     H45861   7.918   1.820   2.420 -0.5910 -2.4997  1.3318
  340MOL0     H45862   7.974   2.315   2.526 -0.0514  0.8850  0.6873
  340MOL0     H45863   8.163   2.457   2.555  2.6392  0.2358 -0.0796
  340MOL0     H45864   8.361   2.500   2.434  1.7156  1.5794 -0.7884
  340MOL0     H45865   8.349   2.570   2.594  0.6677  1.5693 -0.1878
  340MOL0     H45866   8.555   2.663   2.506 -0.5807  0.1563 -2.0886
  340MOL0     H45867   8.602   2.510   2.605  0.4497 -2.8407 -0.7086
  340MOL0     H45868   8.605   2.396   2.378  0.7732 -0.3395 -1.6300
  340MOL0     H45869   8.570   2.548   2.297 -1.1891  0.0072 -0.3629
  340MOL0     H45870   8.770   2.653   2.421  2.7806 -0.4759  2.2576
  340MOL0     H45871   8.797   2.545   2.287  1.8028  2.0493  1.6082
  340MOL0     H45872   8.837   2.354   2.452 -0.5120  0.4291 -0.2703
  340MOL0     H45873   8.815   2.478   2.579  0.5674 -0.9632  0.5360
  340MOL0     H45874   9.063   2.425   2.523 -2.9373 -0.8962  1.6300
  340MOL0     H45875   9.037   2.496   2.367  2.9590  1.7898  0.5413
  340MOL0     H45876   8.959   2.635   2.638  0.4325  0.3250  0.3421
  340MOL0     H45877   8.975   2.711   2.482 -0.1123  0.0011  2.0044
  340MOL0     H45878   9.183   2.759   2.632  2.9792  0.9585 -2.2574
  340MOL0     H45879   9.210   2.581   2.634  1.3439  0.1967  0.6058
  340MOL0     H45880   8.416   2.108   2.622  0.4902  0.5749 -0.3265
  340MOL0     H45881   8.232   1.970   2.598 -0.9382  1.0444  0.4233
  340MOL0     H45882   7.591   2.039   2.584 -1.0858  0.9430 -2.2243
  340MOL0     H45883   7.422   1.881   2.476 -0.9010  1.7811 -1.8780
  340MOL0     H45884   6.289   1.444   2.192  1.4461  0.9924 -2.7539
  340MOL0     H45885   6.066   1.365   2.272  1.5736  0.8700  0.1213
  340MOL0     H45886   5.765   0.885   2.156  0.7843 -0.8739  1.4621
  340MOL0     H45887   5.539   0.806   2.196  0.0500  0.2027 -1.0585
  340MOL0     H45888   5.241   1.104   2.360  1.6007  1.2810  1.6465
  340MOL0     H45889   5.319   1.042   2.495  1.4741  0.5597 -2.0992
  340MOL0     H45890   5.140   0.857   2.508 -1.0504  2.6857  2.3957
  340MOL0     H45891   5.123   0.872   2.337 -0.5556 -1.2966  0.7014
  340MOL0     H45892   4.943   0.941   2.428  1.2447 -0.8946 -1.9268
  340MOL0     H45893   5.023   1.091   2.364 -1.3351 -0.6733 -0.2893
  340MOL0     H45894   5.008   1.029   2.651 -0.4933 -1.6526 -1.8789
  340MOL0     H45895   5.107   1.157   2.577 -0.8438  1.9592  1.3406
  340MOL0     H45896   4.709   1.311   2.509  1.9131  2.4692 -0.3821
  340MOL0     H45897   5.468   1.158   2.412 -1.8766 -1.0825 -2.5978
  340MOL0     H45898   5.779   1.300   2.410 -0.4771  0.7166 -0.6703
  340MOL0     H45899   5.674   1.379   2.300  0.1214 -0.2423 -0.6283
  340MOL0     H45900   5.613   1.311   2.458  1.1405 -2.4536  1.3286
  341MOL0     O45901   4.811   9.587  10.834 -0.4086 -0.0139 -0.0662
  341MOL0     C45902   4.793   9.469  10.864 -0.2039  0.6228 -0.2742
  341MOL0     O45903   4.885   9.363  10.851  0.2140  0.0721 -0.3355
  341MOL0     C45904   5.018   9.393  10.845  0.3856  0.1271  0.6361
  341MOL0     C45905   5.076   9.476  10.740  0.1759 -1.2574 -0.0005
  341MOL0     C45906   5.205   9.516  10.732 -0.5794 -0.7439 -0.3395
  341MOL0     C45907   5.284   9.464  10.834 -0.4790  0.6133  0.2761
  341MOL0     O45908   5.414   9.507  10.833 -0.9497  0.2724  0.4516
  341MOL0     C45909   5.504   9.461  10.927  0.7077  0.1143 -0.4120
  341MOL0     C45910   5.641   9.513  10.918 -0.1587  0.8479  0.3554
  341MOL0     C45911   5.709   9.445  10.796 -0.2576  0.5326  0.1172
  341MOL0     C45912   5.860   9.471  10.803  1.4543  0.1522 -0.1327
  341MOL0     C45913   5.934   9.407  10.681  0.1951 -0.2731 -1.0021
  341MOL0     C45914   5.920   9.258  10.691 -1.0158  0.2992  0.1866
  341MOL0     C45915   6.010   9.195  10.582 -0.1287  0.7436  0.6309
  341MOL0     C45916   6.009   9.049  10.591 -0.0259  0.4917  0.8909
  341MOL0     N45917   6.075   8.991  10.472 -0.6689 -0.4771  0.0280
  341MOL0     C45918   6.022   8.890  10.396  0.3434  0.8008 -0.0837
  341MOL0     C45919   6.123   8.843  10.317  0.1301  0.8391  0.0473
  341MOL0     C45920   6.099   8.755  10.190 -0.3151 -0.2369  0.0391
  341MOL0     C45921   6.183   8.630  10.193 -0.8347  0.0283 -0.5025
  341MOL0     C45922   6.193   8.560  10.053  0.0293 -0.0553  0.3118
  341MOL0     C45923   6.281   8.434  10.051 -0.1396 -0.7163  0.4195
  341MOL0     O45924   6.415   8.473  10.098  0.4413 -0.3693  0.9535
  341MOL0     C45925   6.515   8.407  10.044  0.7969  0.1819  0.4462
  341MOL0     C45926   6.631   8.393  10.119 -0.4881  0.2939 -0.0127
  341MOL0     C45927   6.745   8.329  10.073  0.0862 -0.5461  0.5193
  341MOL0     C45928   6.751   8.271   9.951 -0.4343 -0.5873  0.1640
  341MOL0     C45929   6.882   8.210   9.912  0.1653 -0.6027  0.0319
  341MOL0     O45930   6.997   8.234   9.984  0.0503  0.7889 -0.4414
  341MOL0     C45931   7.114   8.195   9.921  0.8670  0.6712 -0.0794
  341MOL0     C45932   7.174   8.279   9.826 -0.2853 -0.0553  0.3143
  341MOL0     C45933   7.297   8.248   9.764  0.3652 -0.3062 -0.6374
  341MOL0     C45934   7.358   8.118   9.795 -0.3442  0.3483 -0.0920
  341MOL0     O45935   7.460   8.059   9.716 -0.1570 -0.7176 -0.0449
  341MOL0     C45936   7.525   8.144   9.613  0.2509 -0.7150 -0.3263
  341MOL0     C45937   7.620   8.237   9.681  0.6296 -0.0515 -0.0870
  341MOL0     C45938   7.707   8.321   9.579  0.0539 -0.0115 -0.0530
  341MOL0     C45939   7.789   8.437   9.657 -0.2879 -0.4136 -0.1505
  341MOL0     C45940   7.831   8.564   9.582  0.6718  0.4043  0.1573
  341MOL0     C45941   7.961   8.555   9.501  0.2338 -0.1976 -0.2387
  341MOL0     C45942   7.990   8.691   9.425 -0.0133 -0.2145 -0.2382
  341MOL0     C45943   7.902   8.711   9.311  0.1779 -0.7096  0.0069
  341MOL0    Cl45944   7.946   8.589   9.197 -0.0193  0.1003 -0.6469
  341MOL0     C45945   7.301   8.039   9.894  0.4807  0.7225 -0.0760
  341MOL0     C45946   7.184   8.079   9.959 -0.4214 -0.0638  0.1757
  341MOL0     O45947   6.867   8.129   9.823 -0.4396 -0.1322  0.0788
  341MOL0     C45948   6.637   8.288   9.865 -0.2878 -0.2345  0.7220
  341MOL0     C45949   6.525   8.359   9.906 -0.1690 -0.3455 -1.1588
  341MOL0     N45950   6.239   8.912  10.353 -0.1613  0.3959 -0.4097
  341MOL0     N45951   6.207   8.993  10.444  0.2943  0.5617 -0.7539
  341MOL0     C45952   5.234   9.384  10.938  0.2022 -0.0815 -0.0961
  341MOL0     C45953   5.100   9.361  10.946  0.4020 -0.0837  0.2238
  341MOL0     C45954   4.660   9.434  10.911  0.2253 -0.2371  0.1850
  341MOL0     C45955   4.642   9.321  10.998 -0.1887  0.3783  0.9765
  341MOL0     C45956   4.519   9.274  11.044 -0.4980 -0.4819 -0.5822
  341MOL0     C45957   4.403   9.342  11.017  0.3090  0.2030  0.6469
  341MOL0     O45958   4.291   9.284  11.065  0.4936  0.4065  0.1996
  341MOL0     C45959   4.164   9.351  11.060 -0.2248  0.3941 -0.7397
  341MOL0     C45960   4.161   9.449  11.169 -0.2964 -0.1871  0.0690
  341MOL0     C45961   4.046   9.556  11.165 -0.1770 -0.8966  0.4473
  341MOL0     C45962   4.033   9.627  11.032 -1.3985 -0.5348  0.0889
  341MOL0     C45963   4.152   9.709  10.995  0.0744  0.6737  0.0308
  341MOL0     C45964   4.248   9.786  10.992  0.2163  0.5955 -0.6350
  341MOL0     C45965   4.411   9.459  10.940 -0.0448 -0.8038 -0.2878
  341MOL0     C45966   4.534   9.503  10.888  0.1287 -0.5648 -0.0507
  341MOL0     C45967   4.531   9.628  10.812 -1.1247 -0.5271  0.2998
  341MOL0     H45968   5.004   9.518  10.670  1.0031  0.8350  0.3199
  341MOL0     H45969   5.255   9.572  10.653 -0.0910 -0.9935 -0.2115
  341MOL0     H45970   5.469   9.499  11.023  2.6883  0.0332  0.4017
  341MOL0     H45971   5.514   9.352  10.933  0.1755  0.1277  1.1896
  341MOL0     H45972   5.693   9.505  11.014 -1.2812  0.6126  0.9615
  341MOL0     H45973   5.637   9.621  10.899 -1.2174  0.5654 -1.2669
  341MOL0     H45974   5.666   9.480  10.702 -3.5432 -1.7386  0.5967
  341MOL0     H45975   5.699   9.337  10.809  1.8177  0.3997  1.0228
  341MOL0     H45976   5.871   9.579  10.792  0.7029  0.2857  0.3328
  341MOL0     H45977   5.894   9.436  10.901  1.9543  3.2173  0.9173
  341MOL0     H45978   5.900   9.458  10.591  1.6196  0.7232 -1.0032
  341MOL0     H45979   6.036   9.444  10.694 -0.5077  0.9007  1.9429
  341MOL0     H45980   5.938   9.223  10.793 -0.5893 -2.6989 -0.8228
  341MOL0     H45981   5.820   9.227  10.662 -0.6341 -1.6867  0.8317
  341MOL0     H45982   6.115   9.227  10.580 -0.2448  1.0872 -0.1431
  341MOL0     H45983   5.968   9.223  10.485  1.9282  0.7334 -0.3271
  341MOL0     H45984   6.059   9.011  10.680  2.4169  0.8806 -0.2403
  341MOL0     H45985   5.907   9.008  10.597  0.6387 -1.4627 -0.1863
  341MOL0     H45986   5.920   8.853  10.396  0.5073  0.3400 -0.9869
  341MOL0     H45987   5.993   8.731  10.181 -0.5584  0.1516  1.5409
  341MOL0     H45988   6.134   8.813  10.104  0.2543  0.8198  0.9448
  341MOL0     H45989   6.286   8.657  10.220 -0.8402 -0.0699 -0.3813
  341MOL0     H45990   6.138   8.567  10.271 -1.1272  0.9738  0.1147
  341MOL0     H45991   6.226   8.630   9.976  0.4030  0.6479  1.0903
  341MOL0     H45992   6.094   8.518  10.033 -1.7532  2.2553  3.3204
  341MOL0     H45993   6.279   8.380   9.956  2.4273 -1.3651  0.6772
  341MOL0     H45994   6.238   8.367  10.126 -1.6248  1.7002  1.8741
  341MOL0     H45995   6.621   8.431  10.220 -0.3080 -1.9408  0.9113
  341MOL0     H45996   6.823   8.319  10.148 -0.0706  1.1687  0.9707
  341MOL0     H45997   7.126   8.373   9.801 -0.3164 -0.2197 -0.2564
  341MOL0     H45998   7.338   8.311   9.685  0.1475  2.7623  1.5200
  341MOL0     H45999   7.585   8.082   9.546  2.7568 -0.5417  1.6187
  341MOL0     H46000   7.449   8.198   9.556 -2.1907 -0.8269  2.5321
  341MOL0     H46001   7.554   8.294   9.747 -1.9915 -1.3398 -1.4708
  341MOL0     H46002   7.681   8.179   9.751  0.1525  0.8789  1.1369
  341MOL0     H46003   7.785   8.250   9.551 -0.4992 -1.2957  1.5135
  341MOL0     H46004   7.648   8.361   9.496  0.2304  0.7465  0.1734
  341MOL0     H46005   7.882   8.399   9.700 -1.4824 -1.1815  1.9135
  341MOL0     H46006   7.730   8.472   9.743  0.1672  0.3970 -0.1576
  341MOL0     H46007   7.849   8.649   9.649 -1.2132 -0.4761  1.8625
  341MOL0     H46008   7.747   8.578   9.513  1.3417  3.0334 -0.2564
  341MOL0     H46009   8.039   8.516   9.566 -1.9030 -1.5104  1.7017
  341MOL0     H46010   7.954   8.478   9.424  0.8175 -0.8571  0.3550
  341MOL0     H46011   8.092   8.679   9.387  0.0527 -1.1616  0.1985
  341MOL0     H46012   7.989   8.775   9.496  1.0585  1.4765 -2.1337
  341MOL0     H46013   7.797   8.711   9.341  0.9067  1.9442  3.2285
  341MOL0     H46014   7.925   8.806   9.263 -0.5203  0.0856  1.1883
  341MOL0     H46015   7.344   7.943   9.920 -0.8840 -0.4361 -1.8360
  341MOL0     H46016   7.141   8.022  10.041  1.1161 -0.0184  1.0500
  341MOL0     H46017   6.658   8.252   9.764  4.9254 -0.8144  1.7330
  341MOL0     H46018   6.448   8.393   9.838  0.2588  0.0623 -1.4466
  341MOL0     H46019   5.298   9.355  11.020 -0.3800  1.7750  1.0659
  341MOL0     H46020   5.055   9.325  11.038 -2.0650  1.1978 -0.3808
  341MOL0     H46021   4.724   9.273  11.051 -2.1206 -1.7596  2.2275
  341MOL0     H46022   4.521   9.183  11.104 -3.4039  0.0122  0.4268
  341MOL0     H46023   4.081   9.283  11.080 -0.6450  1.0594 -0.1917
  341MOL0     H46024   4.144   9.398  10.963  0.3318  0.5739 -0.7729
  341MOL0     H46025   4.259   9.495  11.187 -0.4813 -0.0263  0.6822
  341MOL0     H46026   4.144   9.397  11.264 -1.4498 -0.6630 -0.3790
  341MOL0     H46027   4.059   9.629  11.245 -2.2771 -0.8401  0.7987
  341MOL0     H46028   3.957   9.496  11.188 -1.0139 -0.0517 -0.5232
  341MOL0     H46029   4.020   9.560  10.946  1.2496 -0.2439 -0.6516
  341MOL0     H46030   3.953   9.699  11.051 -2.1171 -1.3104  0.0334
  341MOL0     H46031   4.317   9.869  10.993  2.1569 -0.8772  2.5552
  341MOL0     H46032   4.319   9.512  10.919 -2.0323 -3.4549  1.0422
  341MOL0     H46033   4.573   9.602  10.714 -0.1560 -3.3893  1.3706
  341MOL0     H46034   4.430   9.661  10.790 -0.6929 -0.2601 -1.4257
  341MOL0     H46035   4.590   9.712  10.851 -0.8045  0.0550 -1.3376
  342MOL0     O46036   4.877   4.613   5.203  0.4516 -0.4643  0.2280
  342MOL0     C46037   4.878   4.503   5.249  0.2576 -0.9359 -0.3583
  342MOL0     O46038   4.991   4.434   5.270  0.0547 -0.1794 -0.2645
  342MOL0     C46039   5.104   4.508   5.234 -0.0014  0.3898 -1.5322
  342MOL0     C46040   5.161   4.595   5.328 -0.3067  0.0886  0.3110
  342MOL0     C46041   5.286   4.651   5.293 -1.2131  0.3473 -0.8231
  342MOL0     C46042   5.359   4.620   5.186 -0.3636  0.5098 -0.7459
  342MOL0     O46043   5.476   4.684   5.155 -0.4018 -0.0508 -0.4111
  342MOL0     C46044   5.570   4.631   5.071  0.0817  0.3287  0.0216
  342MOL0     C46045   5.704   4.696   5.075 -0.2022 -0.3782 -0.2095
  342MOL0     C46046   5.801   4.596   5.006  0.0864 -0.0626  0.8111
  342MOL0     C46047   5.942   4.632   5.039  1.0283 -0.2195  0.1409
  342MOL0     C46048   6.042   4.578   4.939 -0.4897  0.2517  0.1438
  342MOL0     C46049   6.183   4.593   5.009 -0.5962  0.1299  0.0335
  342MOL0     C46050   6.290   4.491   4.945  0.2584  0.0017  0.2109
  342MOL0     C46051   6.440   4.504   4.996  0.1021 -0.6201 -0.5166
  342MOL0     N46052   6.489   4.646   4.980 -0.0428 -0.2104  0.1591
  342MOL0     C46053   6.505   4.733   5.083  0.0291 -0.4152 -0.0867
  342MOL0     C46054   6.546   4.850   5.028 -0.7288 -0.9606 -0.8027
  342MOL0     C46055   6.550   4.983   5.108 -0.3180  0.3952 -0.5329
  342MOL0     C46056   6.686   5.006   5.169  0.2904  0.3385 -0.0914
  342MOL0     C46057   6.724   5.158   5.165  0.3012 -0.2805 -0.2630
  342MOL0     C46058   6.851   5.207   5.236  0.0202  0.7538 -0.3797
  342MOL0     O46059   6.961   5.168   5.153  0.6507 -0.0750 -0.2460
  342MOL0     C46060   7.086   5.187   5.201  0.0953 -0.3950  0.6587
  342MOL0     C46061   7.183   5.113   5.142  0.1846  0.2642  0.2209
  342MOL0     C46062   7.311   5.119   5.187 -0.1835 -0.0943  0.3714
  342MOL0     C46063   7.344   5.209   5.295 -0.4533  0.6537 -0.1072
  342MOL0     C46064   7.480   5.229   5.348 -0.6159 -0.3555 -0.4101
  342MOL0     O46065   7.576   5.149   5.291 -0.4010  0.8480 -0.0002
  342MOL0     C46066   7.714   5.158   5.302 -0.6147 -0.4098 -0.4516
  342MOL0     C46067   7.788   5.045   5.270 -0.0997 -0.2084  1.0775
  342MOL0     C46068   7.931   5.036   5.281 -0.3816 -0.2695  0.3506
  342MOL0     C46069   8.009   5.145   5.330  0.3685 -1.1335 -0.4966
  342MOL0     O46070   8.143   5.153   5.333 -0.3029  0.4659 -0.6026
  342MOL0     C46071   8.224   5.037   5.310  0.4909  0.1905 -0.7626
  342MOL0     C46072   8.367   5.060   5.322 -0.8090 -0.0851 -0.4284
  342MOL0     C46073   8.438   5.129   5.208 -0.0946  0.6033 -0.1264
  342MOL0     C46074   8.586   5.141   5.244 -0.4277  0.3634  0.0571
  342MOL0     C46075   8.670   5.244   5.168  0.4074 -0.4351 -0.5297
  342MOL0     C46076   8.658   5.245   5.019  0.0335  0.8478 -0.4028
  342MOL0     C46077   8.695   5.097   4.970  0.3033 -0.7213 -0.7319
  342MOL0     C46078   8.658   5.074   4.821 -0.4802 -0.9363 -0.0261
  342MOL0    Cl46079   8.745   5.176   4.703 -0.1935 -0.0211  0.3023
  342MOL0     C46080   7.930   5.263   5.362  0.1158 -0.4859  0.3622
  342MOL0     C46081   7.794   5.266   5.354  0.4245 -0.0693  0.5919
  342MOL0     O46082   7.495   5.314   5.438  0.2858  0.9113  0.6394
  342MOL0     C46083   7.248   5.281   5.358  0.3502  0.1879  0.7684
  342MOL0     C46084   7.115   5.274   5.309 -0.2028 -0.2360 -0.0522
  342MOL0     N46085   6.541   4.836   4.891  0.9108  0.3388 -0.1703
  342MOL0     N46086   6.505   4.718   4.861  0.1484  0.3164  0.1596
  342MOL0     C46087   5.310   4.522   5.104  0.1557  0.2706 -0.5866
  342MOL0     C46088   5.180   4.466   5.131 -0.4805 -0.1824 -0.1941
  342MOL0     C46089   4.747   4.424   5.281 -1.8023  0.2643  0.6697
  342MOL0     C46090   4.766   4.295   5.326  0.5394  0.7422 -0.4949
  342MOL0     C46091   4.655   4.210   5.332 -0.0501  0.6212  0.0891
  342MOL0     C46092   4.529   4.254   5.319  0.2550 -0.2062 -0.0776
  342MOL0     O46093   4.408   4.190   5.327  0.0043  0.3804 -0.4725
  342MOL0     C46094   4.391   4.052   5.349  0.1910  0.5385  0.0997
  342MOL0     C46095   4.447   3.998   5.485  1.1545  0.6043 -0.2449
  342MOL0     C46096   4.444   4.096   5.608 -0.1431  0.0388 -1.1115
  342MOL0     C46097   4.553   4.068   5.713  0.0288 -0.8031  0.3986
  342MOL0     C46098   4.529   3.937   5.787 -1.0418  0.7815  0.4548
  342MOL0     C46099   4.505   3.837   5.846  0.5027  0.8195 -0.3989
  342MOL0     C46100   4.510   4.395   5.281  0.5497  0.0406  0.5698
  342MOL0     C46101   4.619   4.470   5.250  0.0593  0.1005 -0.2773
  342MOL0     C46102   4.598   4.609   5.200  0.3442 -0.0283  0.5124
  342MOL0     H46103   5.117   4.609   5.426  0.4059  1.4494  0.4576
  342MOL0     H46104   5.326   4.727   5.360 -0.0414 -0.6477 -0.3555
  342MOL0     H46105   5.583   4.528   5.106 -0.1045  0.3617  0.1923
  342MOL0     H46106   5.525   4.643   4.972 -3.6089  4.3306  1.8221
  342MOL0     H46107   5.734   4.700   5.180  2.5876 -1.6711 -0.8731
  342MOL0     H46108   5.714   4.792   5.025  3.6674 -0.3335  0.3312
  342MOL0     H46109   5.772   4.592   4.900 -1.2388  1.4680  1.0752
  342MOL0     H46110   5.778   4.497   5.047 -0.7798 -0.0690  0.3431
  342MOL0     H46111   5.957   4.739   5.054 -0.3457  0.1455 -0.8779
  342MOL0     H46112   5.960   4.580   5.133  1.4929  3.1997  2.1161
  342MOL0     H46113   6.011   4.473   4.931 -0.3873  0.2952 -1.1605
  342MOL0     H46114   6.037   4.615   4.836 -2.0787 -1.6835 -0.5590
  342MOL0     H46115   6.222   4.693   4.985  1.7426 -1.1150 -1.7695
  342MOL0     H46116   6.173   4.582   5.117  0.7250 -1.1883  0.0601
  342MOL0     H46117   6.287   4.503   4.836 -3.6920 -0.1764  0.1424
  342MOL0     H46118   6.258   4.388   4.965  4.6849 -1.3944  1.0199
  342MOL0     H46119   6.452   4.471   5.099  2.1430 -2.7624 -1.3374
  342MOL0     H46120   6.501   4.441   4.930  0.6183 -0.0193 -0.6207
  342MOL0     H46121   6.490   4.714   5.189 -0.8996 -0.6953 -0.2581
  342MOL0     H46122   6.515   5.064   5.043 -2.6748 -1.5615 -1.8323
  342MOL0     H46123   6.476   4.982   5.188 -0.8672 -2.2536 -1.0073
  342MOL0     H46124   6.697   4.970   5.272  1.4068  0.3004 -0.2106
  342MOL0     H46125   6.771   4.956   5.121 -1.1213 -0.3890 -1.9643
  342MOL0     H46126   6.640   5.208   5.214 -0.0435 -0.2165 -0.9054
  342MOL0     H46127   6.719   5.200   5.064 -3.7108  1.1304  0.3333
  342MOL0     H46128   6.855   5.166   5.337  1.6063 -0.5227 -0.9205
  342MOL0     H46129   6.840   5.316   5.233 -2.1720  0.5605 -1.4763
  342MOL0     H46130   7.149   5.048   5.062 -0.2914  2.0920 -1.1333
  342MOL0     H46131   7.388   5.055   5.146  0.9998  0.5247  1.5823
  342MOL0     H46132   7.727   4.962   5.235 -1.7787  0.2547  2.7298
  342MOL0     H46133   7.975   4.940   5.256  0.1265  0.0012  0.1824
  342MOL0     H46134   8.183   4.974   5.390 -0.6463  0.7340 -0.8933
  342MOL0     H46135   8.193   5.004   5.211 -0.6304 -0.4692 -0.2162
  342MOL0     H46136   8.383   5.122   5.411 -1.4465  1.4521 -1.3621
  342MOL0     H46137   8.421   4.965   5.332 -0.6231 -0.3200 -3.0264
  342MOL0     H46138   8.435   5.078   5.111  0.3694  0.4559 -0.0654
  342MOL0     H46139   8.398   5.231   5.204 -1.9947 -0.0986 -0.1988
  342MOL0     H46140   8.642   5.048   5.231  0.5237  1.0684 -1.0755
  342MOL0     H46141   8.594   5.169   5.350  1.6518 -2.8984  0.9176
  342MOL0     H46142   8.776   5.228   5.190  0.5908 -0.5763 -1.4998
  342MOL0     H46143   8.651   5.346   5.202  1.5662  0.1154 -1.4799
  342MOL0     H46144   8.558   5.259   4.978 -0.4877  0.0752  0.5730
  342MOL0     H46145   8.724   5.325   4.985 -1.0101  1.7866 -0.2563
  342MOL0     H46146   8.642   5.020   5.026 -0.4435  1.3187  1.5497
  342MOL0     H46147   8.804   5.093   4.979  0.4542  1.9199 -0.4924
  342MOL0     H46148   8.693   4.972   4.800  2.3789 -0.4293  1.6785
  342MOL0     H46149   8.549   5.081   4.817 -0.5002 -1.2643 -0.1171
  342MOL0     H46150   7.986   5.353   5.384 -0.5012 -0.3750  1.5276
  342MOL0     H46151   7.749   5.355   5.396 -0.7031 -0.4526  0.2264
  342MOL0     H46152   7.275   5.356   5.432 -1.7715  0.3385  1.4465
  342MOL0     H46153   7.036   5.328   5.361 -1.4905 -2.5090  0.4997
  342MOL0     H46154   5.368   4.491   5.017  0.2059  0.8797 -0.7710
  342MOL0     H46155   5.152   4.382   5.068 -1.4927 -0.4178  0.5469
  342MOL0     H46156   4.864   4.249   5.321  0.1648  0.0594 -2.4871
  342MOL0     H46157   4.674   4.104   5.343  2.3606  0.8465 -1.1743
  342MOL0     H46158   4.448   4.003   5.270 -0.0805  0.1169  0.1610
  342MOL0     H46159   4.284   4.032   5.349 -0.1372  2.1247  0.6593
  342MOL0     H46160   4.551   3.978   5.457  1.2582 -2.1188  1.7220
  342MOL0     H46161   4.399   3.901   5.498  1.3255  0.2346 -2.0837
  342MOL0     H46162   4.344   4.084   5.651  0.8500  0.8398  1.6416
  342MOL0     H46163   4.447   4.199   5.573 -2.2783  0.8615  0.8520
  342MOL0     H46164   4.652   4.060   5.667  1.0318  1.8364  1.8609
  342MOL0     H46165   4.559   4.153   5.782 -4.5835 -0.8612  1.2253
  342MOL0     H46166   4.479   3.753   5.907  1.6103  1.6303  1.2565
  342MOL0     H46167   4.409   4.435   5.269 -0.3083 -2.3558 -0.7833
  342MOL0     H46168   4.656   4.682   5.257  0.7317  0.8829 -0.9899
  342MOL0     H46169   4.636   4.606   5.097 -1.9088 -0.5780 -0.3730
  342MOL0     H46170   4.494   4.639   5.187  1.2390  2.4599 -2.0335
  343MOL0     O46171   0.322   2.062   1.681 -0.0446 -0.1190  0.7509
  343MOL0     C46172   0.384   2.142   1.607 -0.1736  0.4239 -0.4888
  343MOL0     O46173   0.523   2.159   1.611  0.1779 -0.5191  0.3314
  343MOL0     C46174   0.578   2.096   1.714 -0.0818  0.2636 -0.0010
  343MOL0     C46175   0.571   2.146   1.846  0.9761  1.2059  1.6740
  343MOL0     C46176   0.635   2.082   1.953 -0.8877 -0.2594  0.1595
  343MOL0     C46177   0.716   1.968   1.924 -0.2726 -0.2975  0.6636
  343MOL0     O46178   0.774   1.913   2.031 -0.2114  0.0612 -0.3041
  343MOL0     C46179   0.895   1.841   2.012  0.6287 -0.9002  0.6127
  343MOL0     C46180   0.979   1.852   2.133 -0.3145  0.5321 -0.4364
  343MOL0     C46181   1.122   1.863   2.102  0.1456 -0.3238 -0.4002
  343MOL0     C46182   1.203   1.890   2.233  0.2834 -0.3713  0.0077
  343MOL0     C46183   1.350   1.895   2.208  0.0904  0.2535 -0.9066
  343MOL0     C46184   1.443   1.873   2.334  0.2151 -0.1778 -0.4770
  343MOL0     C46185   1.424   1.990   2.428  0.5418  0.3869  0.3389
  343MOL0     C46186   1.534   1.989   2.535 -0.7324  0.7704  0.2187
  343MOL0     N46187   1.652   2.061   2.491 -0.2116 -0.1316 -0.7817
  343MOL0     C46188   1.673   2.191   2.502 -0.1401  0.1811 -0.2507
  343MOL0     C46189   1.800   2.210   2.464 -0.1447 -0.6142 -0.8481
  343MOL0     C46190   1.859   2.342   2.446  1.1843  0.1747 -1.0187
  343MOL0     C46191   2.002   2.354   2.468  0.0858  0.2694 -0.1059
  343MOL0     C46192   2.069   2.310   2.338 -0.4074 -0.0752 -0.3531
  343MOL0     C46193   2.208   2.268   2.373  0.9314 -0.4621 -0.7056
  343MOL0     O46194   2.280   2.245   2.250 -0.5337 -0.4941 -0.2686
  343MOL0     C46195   2.413   2.239   2.265 -0.1978  0.3048  0.2542
  343MOL0     C46196   2.486   2.212   2.152 -0.6044 -0.1436  0.0693
  343MOL0     C46197   2.622   2.218   2.140  0.4382  0.6079 -0.2129
  343MOL0     C46198   2.701   2.254   2.252  0.0112  0.2673 -0.4406
  343MOL0     C46199   2.846   2.261   2.246 -0.7303 -0.2701 -0.1627
  343MOL0     O46200   2.907   2.232   2.361 -0.6221 -0.0988 -0.3372
  343MOL0     C46201   3.044   2.236   2.368  1.0078  0.3074  0.5972
  343MOL0     C46202   3.110   2.349   2.338 -0.7944 -0.2698  0.0094
  343MOL0     C46203   3.244   2.364   2.372 -0.3676  0.2804  0.7243
  343MOL0     C46204   3.313   2.260   2.440 -0.4288 -0.7934  0.0962
  343MOL0     O46205   3.443   2.268   2.479  0.1901  0.5460  0.0348
  343MOL0     C46206   3.520   2.375   2.426  0.6735 -1.2865  0.2293
  343MOL0     C46207   3.669   2.353   2.454  0.3263 -0.8623 -0.4459
  343MOL0     C46208   3.764   2.440   2.357 -0.3312  0.4384 -0.0201
  343MOL0     C46209   3.918   2.424   2.374  0.3594 -0.7041  0.0126
  343MOL0     C46210   4.005   2.510   2.277  0.3900  0.5273  0.0079
  343MOL0     C46211   3.966   2.660   2.269 -0.0561  0.3118 -0.6848
  343MOL0     C46212   4.087   2.739   2.229 -0.0206 -0.3692 -0.6221
  343MOL0     C46213   4.062   2.890   2.235 -0.1702  0.1943  0.4721
  343MOL0    Cl46214   3.924   2.940   2.124  0.2203 -0.1941  0.3606
  343MOL0     C46215   3.251   2.144   2.477 -1.2462 -0.9739  0.5577
  343MOL0     C46216   3.121   2.136   2.435  0.1638  0.0541 -0.6703
  343MOL0     O46217   2.900   2.273   2.134  0.2847  0.3555 -0.7564
  343MOL0     C46218   2.632   2.279   2.371 -0.1422  0.1894 -0.3897
  343MOL0     C46219   2.492   2.269   2.380  1.0251  0.5720 -0.2197
  343MOL0     N46220   1.852   2.087   2.427 -0.0092  0.1854 -0.0104
  343MOL0     N46221   1.762   1.992   2.440 -0.4338 -0.7882 -0.0758
  343MOL0     C46222   0.729   1.921   1.795  0.2373 -0.1264  0.2950
  343MOL0     C46223   0.661   1.984   1.693  0.6550  0.1557  0.2063
  343MOL0     C46224   0.311   2.218   1.505 -0.0405 -0.5191 -0.6712
  343MOL0     C46225   0.338   2.346   1.473  0.2125 -0.7071 -0.2839
  343MOL0     C46226   0.265   2.422   1.373  0.2307  0.0213 -0.4031
  343MOL0     C46227   0.157   2.367   1.301  0.6137 -0.7480 -0.2872
  343MOL0     O46228   0.088   2.446   1.210 -0.1940  0.2763  0.0280
  343MOL0     C46229   0.056   2.576   1.256 -0.8880  0.5409  0.6883
  343MOL0     C46230  -0.074   2.630   1.187 -0.7763  0.1035 -0.3955
  343MOL0     C46231  -0.105   2.771   1.229  0.0774 -0.5753 -0.6458
  343MOL0     C46232  -0.002   2.870   1.172 -0.2590  0.4756  0.3978
  343MOL0     C46233   0.117   2.889   1.261 -0.2540  0.2872 -0.4001
  343MOL0     C46234   0.225   2.891   1.316  0.0379  0.0213 -0.4557
  343MOL0     C46235   0.142   2.227   1.319 -0.1231 -0.3041  0.0997
  343MOL0     C46236   0.213   2.152   1.420 -0.3974 -0.2173  0.2384
  343MOL0     C46237   0.178   2.009   1.420 -0.0707  0.7747 -0.3547
  343MOL0     H46238   0.515   2.235   1.875  1.8753  2.0735  0.8591
  343MOL0     H46239   0.636   2.128   2.051 -1.7875  1.0015 -0.3855
  343MOL0     H46240   0.880   1.736   1.985 -1.4907  0.2073 -3.2767
  343MOL0     H46241   0.955   1.883   1.931 -1.1590  0.6284 -0.0025
  343MOL0     H46242   0.967   1.762   2.193  3.6660  1.4055  2.0895
  343MOL0     H46243   0.958   1.946   2.185 -0.1859  0.6870 -0.6632
  343MOL0     H46244   1.141   1.935   2.022  1.4569 -0.0314  0.1435
  343MOL0     H46245   1.158   1.765   2.069 -0.1180 -0.1669 -1.1585
  343MOL0     H46246   1.159   1.971   2.292  1.5188  0.6245 -0.3840
  343MOL0     H46247   1.185   1.802   2.297  2.2406  1.4010  3.3220
  343MOL0     H46248   1.371   1.817   2.134  1.0718 -1.6501  1.2801
  343MOL0     H46249   1.379   1.993   2.170  2.3162 -1.4448 -4.1260
  343MOL0     H46250   1.416   1.785   2.393  0.7134  0.2645  0.4349
  343MOL0     H46251   1.547   1.859   2.303  0.5050 -0.8463  0.7223
  343MOL0     H46252   1.323   1.981   2.469 -0.7821  4.4406 -1.5388
  343MOL0     H46253   1.433   2.081   2.369 -1.0879  1.6573  1.9260
  343MOL0     H46254   1.500   2.027   2.632 -0.0764 -2.0932  1.7158
  343MOL0     H46255   1.564   1.884   2.549 -0.1454  0.5571 -2.2809
  343MOL0     H46256   1.603   2.268   2.535  0.6080  0.8950 -0.3133
  343MOL0     H46257   1.820   2.392   2.357  3.0713  3.3580 -0.2142
  343MOL0     H46258   1.814   2.411   2.518  0.1716  1.3114 -2.6706
  343MOL0     H46259   2.036   2.458   2.481 -0.0200  0.1623  1.0846
  343MOL0     H46260   2.028   2.288   2.551  0.4877  3.5784  2.6310
  343MOL0     H46261   2.072   2.386   2.260  0.1976  0.5190  0.2373
  343MOL0     H46262   2.035   2.220   2.286 -1.6046  1.9015 -3.2409
  343MOL0     H46263   2.202   2.174   2.428 -0.0632 -0.1833 -0.3265
  343MOL0     H46264   2.245   2.351   2.433 -3.3656  1.8367 -0.8412
  343MOL0     H46265   2.435   2.206   2.056  1.3693  1.5610 -1.1789
  343MOL0     H46266   2.670   2.199   2.045 -1.3079  0.1602 -1.0474
  343MOL0     H46267   3.065   2.441   2.300  0.4689 -0.0054 -0.9327
  343MOL0     H46268   3.287   2.453   2.326 -2.2542 -0.5136 -2.9537
  343MOL0     H46269   3.502   2.373   2.319  0.0024  3.9087 -0.0259
  343MOL0     H46270   3.497   2.470   2.476 -1.2884 -2.0259  0.8333
  343MOL0     H46271   3.693   2.369   2.559 -0.2608 -2.4380 -0.0434
  343MOL0     H46272   3.680   2.245   2.437  2.7224 -1.6143  4.2949
  343MOL0     H46273   3.758   2.414   2.250 -3.2332 -0.7951  0.3624
  343MOL0     H46274   3.728   2.542   2.368  0.0594  0.5164  0.5809
  343MOL0     H46275   3.935   2.316   2.364 -2.2431 -1.1860 -0.0352
  343MOL0     H46276   3.940   2.459   2.475  2.6452  0.5016 -0.8458
  343MOL0     H46277   4.004   2.477   2.173 -2.6393  1.3427 -0.3424
  343MOL0     H46278   4.109   2.502   2.308  0.8076  0.7868 -1.2673
  343MOL0     H46279   3.880   2.668   2.202  0.3782  2.2876 -1.0957
  343MOL0     H46280   3.933   2.693   2.368 -0.6124 -1.4115 -0.2744
  343MOL0     H46281   4.119   2.716   2.127  3.0151  0.1883  0.1091
  343MOL0     H46282   4.161   2.715   2.306 -1.7613 -0.1675  1.2027
  343MOL0     H46283   4.024   2.909   2.336  0.3464  1.3925  0.4638
  343MOL0     H46284   4.158   2.941   2.219  0.4704 -0.8503  0.8364
  343MOL0     H46285   3.296   2.063   2.534 -0.5748 -0.3990  0.8554
  343MOL0     H46286   3.065   2.044   2.446 -0.6276  0.3114 -2.2501
  343MOL0     H46287   2.687   2.316   2.457  0.0871  1.7783 -1.1709
  343MOL0     H46288   2.439   2.277   2.475  0.6190  3.1286 -0.5971
  343MOL0     H46289   0.787   1.833   1.770 -1.7876 -0.7614 -2.6795
  343MOL0     H46290   0.681   1.940   1.596 -1.1738 -2.2596  0.8009
  343MOL0     H46291   0.406   2.404   1.535  0.8321 -2.2392  0.5213
  343MOL0     H46292   0.305   2.521   1.351  2.8613 -0.8275  0.1579
  343MOL0     H46293   0.144   2.637   1.237  0.1962  0.4495  4.6464
  343MOL0     H46294   0.053   2.571   1.365 -2.9302  2.1113  0.7727
  343MOL0     H46295  -0.158   2.568   1.220 -0.9116 -0.2163 -1.3127
  343MOL0     H46296  -0.053   2.616   1.081 -1.3488  0.3899 -0.5498
  343MOL0     H46297  -0.107   2.776   1.338  0.0903  0.9133 -0.6872
  343MOL0     H46298  -0.206   2.805   1.203 -0.1089 -0.5404  0.1029
  343MOL0     H46299   0.029   2.839   1.072 -0.3009  0.8472  0.2688
  343MOL0     H46300  -0.048   2.969   1.163 -2.2597 -0.1798  2.5233
  343MOL0     H46301   0.325   2.900   1.356  1.2144 -1.6711 -2.7422
  343MOL0     H46302   0.086   2.168   1.247 -0.4330 -2.1164  1.7603
  343MOL0     H46303   0.127   1.984   1.326  0.1929  0.8179 -0.5094
  343MOL0     H46304   0.266   1.946   1.428 -2.0164 -2.0226  0.8068
  343MOL0     H46305   0.116   1.984   1.506  2.8044 -0.3586  1.5232
  344MOL0     O46306  11.149   6.362   7.690 -0.9940  0.5039 -0.2354
  344MOL0     C46307  11.143   6.246   7.662 -0.0959  0.9844 -0.1535
  344MOL0     O46308  11.216   6.187   7.567  0.2381  0.2729  0.5595
  344MOL0     C46309  11.323   6.262   7.510 -0.0800  0.1199  0.0920
  344MOL0     C46310  11.448   6.234   7.561  0.1093 -0.6704  1.1328
  344MOL0     C46311  11.559   6.298   7.507  0.0896 -0.0169  0.3469
  344MOL0     C46312  11.551   6.388   7.399  0.0810 -0.1956  0.3177
  344MOL0     O46313  11.652   6.458   7.342 -0.7617  0.0776 -0.6955
  344MOL0     C46314  11.780   6.451   7.409  0.1822  0.3383 -0.4079
  344MOL0     C46315  11.876   6.517   7.312 -0.1803 -0.1930 -0.0861
  344MOL0     C46316  12.026   6.505   7.377 -0.0155 -0.6708 -0.2120
  344MOL0     C46317  12.133   6.581   7.289  0.5556 -0.6692 -0.0877
  344MOL0     C46318  12.269   6.566   7.349 -0.1382  0.4648  0.5464
  344MOL0     C46319  12.365   6.671   7.298 -0.5064  0.4511  0.3958
  344MOL0     C46320  12.517   6.641   7.331  0.6012 -0.0233  0.4846
  344MOL0     C46321  12.599   6.766   7.345  0.2842  0.6380  0.4498
  344MOL0     N46322  12.699   6.765   7.241  0.2470 -0.1178  0.4327
  344MOL0     C46323  12.805   6.678   7.257 -0.2415 -0.0167  0.3749
  344MOL0     C46324  12.855   6.671   7.130  0.9543  0.4594 -0.5445
  344MOL0     C46325  12.977   6.603   7.079  0.6222  0.1537 -0.3238
  344MOL0     C46326  13.076   6.555   7.190 -0.2132  0.4343  0.1104
  344MOL0     C46327  13.198   6.497   7.112 -0.1324  0.2265  0.4250
  344MOL0     C46328  13.303   6.433   7.210 -0.2599  0.1085 -0.6911
  344MOL0     O46329  13.378   6.542   7.272  0.5696 -0.3547 -0.0754
  344MOL0     C46330  13.449   6.528   7.386 -1.0649 -0.0158  0.0870
  344MOL0     C46331  13.450   6.414   7.474 -0.3262 -0.1742 -0.1485
  344MOL0     C46332  13.537   6.410   7.584 -0.9495  0.1961  0.4139
  344MOL0     C46333  13.621   6.517   7.612  0.4238  0.0669 -0.3751
  344MOL0     C46334  13.699   6.521   7.729  0.1054 -0.4837  0.0175
  344MOL0     O46335  13.743   6.647   7.765  0.0618  1.1601 -0.2582
  344MOL0     C46336  13.802   6.659   7.887  0.4436  0.0772  0.5129
  344MOL0     C46337  13.749   6.636   8.013  0.0718 -0.4073  0.4778
  344MOL0     C46338  13.822   6.670   8.135 -0.3128  0.3759 -0.6109
  344MOL0     C46339  13.955   6.718   8.120 -0.3324 -0.4810 -0.1264
  344MOL0     O46340  14.034   6.733   8.232 -0.0622 -0.0748  0.1765
  344MOL0     C46341  14.124   6.622   8.259  0.8113 -0.0802  0.5479
  344MOL0     C46342  14.240   6.668   8.341 -0.3113  1.3229 -0.8262
  344MOL0     C46343  14.330   6.558   8.390 -0.0415 -0.2073  0.2024
  344MOL0     C46344  14.456   6.627   8.447 -0.6216  0.0085  0.3792
  344MOL0     C46345  14.561   6.532   8.493  0.3530  0.1807  0.0384
  344MOL0     C46346  14.559   6.501   8.642  0.2934 -0.4521 -0.5715
  344MOL0     C46347  14.674   6.393   8.686 -0.3496  0.3697 -0.2284
  344MOL0     C46348  14.700   6.405   8.827 -0.4945 -0.7114  0.4848
  344MOL0    Cl46349  14.830   6.283   8.860 -0.2488  0.3893 -0.0646
  344MOL0     C46350  14.006   6.743   7.998 -0.3790  0.4865 -0.2522
  344MOL0     C46351  13.928   6.719   7.880 -1.1741 -0.8439 -1.2066
  344MOL0     O46352  13.723   6.415   7.788 -0.1848  0.4686 -0.4215
  344MOL0     C46353  13.615   6.626   7.528  0.3147 -0.4561 -0.7056
  344MOL0     C46354  13.537   6.635   7.416  0.4951  0.3400 -0.3613
  344MOL0     N46355  12.783   6.747   7.046  0.1911  1.3728  0.0680
  344MOL0     N46356  12.691   6.803   7.113  0.4408 -0.4624  0.3942
  344MOL0     C46357  11.424   6.410   7.340 -0.5074 -0.4821 -0.3472
  344MOL0     C46358  11.313   6.347   7.398  0.7930 -0.2952  0.0724
  344MOL0     C46359  11.025   6.169   7.727  0.0357  0.9802 -0.2068
  344MOL0     C46360  10.940   6.235   7.825 -0.1371  0.4391  0.1373
  344MOL0     C46361  10.830   6.175   7.882  0.2575 -0.1220  0.1367
  344MOL0     C46362  10.792   6.047   7.852 -0.2685 -0.3629 -0.8878
  344MOL0     O46363  10.682   6.002   7.918  0.2337 -0.5257  0.0669
  344MOL0     C46364  10.646   5.865   7.894  0.0035 -0.5687  0.3732
  344MOL0     C46365  10.541   5.815   7.988  0.2131 -0.3661 -0.5785
  344MOL0     C46366  10.402   5.886   7.978 -1.0414  0.0451 -0.8942
  344MOL0     C46367  10.305   5.820   8.076 -0.4656 -0.1256 -0.1151
  344MOL0     C46368  10.173   5.864   8.043  0.7778 -0.6197  0.5401
  344MOL0     C46369  10.069   5.929   8.027  0.8955  0.1571 -0.0521
  344MOL0     C46370  10.881   5.985   7.760  0.3127  0.8386  0.3508
  344MOL0     C46371  10.986   6.042   7.690  0.2972  0.4538  0.4777
  344MOL0     C46372  11.048   5.961   7.579  0.1777 -0.3182 -0.5210
  344MOL0     H46373  11.451   6.168   7.648  1.4224  0.3999  1.9443
  344MOL0     H46374  11.657   6.264   7.541  0.6566  2.3091  1.2515
  344MOL0     H46375  11.772   6.513   7.499 -0.8296 -1.3339  0.7083
  344MOL0     H46376  11.812   6.351   7.439 -0.5191  0.1667 -0.2186
  344MOL0     H46377  11.845   6.620   7.292 -0.4989 -0.7264 -2.8169
  344MOL0     H46378  11.879   6.454   7.222  0.1540  0.0360 -0.2370
  344MOL0     H46379  12.053   6.399   7.380  0.4340 -0.5573 -0.2307
  344MOL0     H46380  12.018   6.548   7.477  0.8935 -1.8099  0.3654
  344MOL0     H46381  12.130   6.550   7.184 -0.6347  2.3864 -1.0924
  344MOL0     H46382  12.112   6.689   7.285 -0.3696 -0.8223  0.4829
  344MOL0     H46383  12.267   6.562   7.458 -1.9594  0.3544  0.5291
  344MOL0     H46384  12.306   6.465   7.327  1.0914  1.1663 -0.7833
  344MOL0     H46385  12.356   6.669   7.189  2.0204 -1.8434  0.1134
  344MOL0     H46386  12.334   6.773   7.320 -1.8675  0.3880 -1.0641
  344MOL0     H46387  12.552   6.563   7.262 -3.8210  0.9358 -3.3528
  344MOL0     H46388  12.522   6.592   7.428 -1.7445  1.3420  1.3875
  344MOL0     H46389  12.543   6.859   7.340  3.2458  2.5222 -0.4910
  344MOL0     H46390  12.653   6.765   7.441  0.3969 -0.4504  0.3906
  344MOL0     H46391  12.839   6.620   7.342 -1.8529 -1.0719  0.3261
  344MOL0     H46392  12.945   6.511   7.029  2.1720 -0.6760  0.1217
  344MOL0     H46393  13.015   6.669   7.002 -2.3375  0.0512 -1.9993
  344MOL0     H46394  13.109   6.631   7.261 -0.3720  0.6903 -0.0902
  344MOL0     H46395  13.032   6.473   7.247 -0.7241  0.9733  0.5038
  344MOL0     H46396  13.251   6.585   7.073 -0.6485  0.5236  0.3855
  344MOL0     H46397  13.175   6.420   7.038  3.0685  0.2382 -0.7667
  344MOL0     H46398  13.376   6.381   7.147  1.4553  1.3865  0.1653
  344MOL0     H46399  13.252   6.369   7.282 -2.7287  3.9627  1.3475
  344MOL0     H46400  13.382   6.333   7.450 -0.9109  0.5896 -1.1963
  344MOL0     H46401  13.541   6.333   7.660  0.4171  0.2205  0.3900
  344MOL0     H46402  13.658   6.577   8.017 -0.6863  0.6889 -0.1500
  344MOL0     H46403  13.785   6.642   8.233 -0.5350  0.2897 -0.7184
  344MOL0     H46404  14.065   6.552   8.317 -0.5400 -1.5374 -2.3886
  344MOL0     H46405  14.161   6.593   8.160 -2.2844  4.9894 -2.5579
  344MOL0     H46406  14.308   6.733   8.286 -0.3760  2.9934  0.9572
  344MOL0     H46407  14.207   6.720   8.432 -0.2977  1.6781 -1.0210
  344MOL0     H46408  14.288   6.515   8.481 -2.2541  0.8554 -0.2359
  344MOL0     H46409  14.345   6.484   8.311  0.2872  2.1524 -2.0887
  344MOL0     H46410  14.443   6.697   8.529 -1.2288  0.2595  0.0767
  344MOL0     H46411  14.502   6.682   8.365  1.1025  1.2367  2.0947
  344MOL0     H46412  14.656   6.581   8.468  0.2744  0.7031  0.7557
  344MOL0     H46413  14.551   6.438   8.437  3.5538  1.2419 -2.6697
  344MOL0     H46414  14.576   6.592   8.700 -0.3576 -1.1545  0.7678
  344MOL0     H46415  14.467   6.457   8.682  1.8097 -1.6024  1.8771
  344MOL0     H46416  14.766   6.411   8.628  1.0893  1.0781  2.1208
  344MOL0     H46417  14.641   6.295   8.651  0.1428 -0.0232  0.3800
  344MOL0     H46418  14.736   6.504   8.853 -0.8959 -0.7449  1.1880
  344MOL0     H46419  14.617   6.381   8.895 -1.7528 -1.7993 -1.3249
  344MOL0     H46420  14.108   6.776   7.990 -0.5876  0.8416 -1.8883
  344MOL0     H46421  13.976   6.747   7.787 -1.0723 -0.2734 -0.9846
  344MOL0     H46422  13.670   6.718   7.549 -3.6998  1.9654  0.4778
  344MOL0     H46423  13.530   6.727   7.359 -0.6107  0.6745  0.2794
  344MOL0     H46424  11.416   6.475   7.254  0.3939  0.9717  0.6241
  344MOL0     H46425  11.215   6.346   7.350 -1.9834 -4.7429  4.8747
  344MOL0     H46426  10.964   6.336   7.855  3.7759 -0.0842 -0.6030
  344MOL0     H46427  10.757   6.218   7.950 -0.4439 -2.1025  0.6850
  344MOL0     H46428  10.733   5.800   7.908 -0.1947 -1.0081 -0.4055
  344MOL0     H46429  10.617   5.840   7.792  2.4037 -3.2193  0.2013
  344MOL0     H46430  10.572   5.833   8.092 -4.1602 -0.4554  0.9678
  344MOL0     H46431  10.537   5.706   7.977  1.0086 -0.4425 -0.1922
  344MOL0     H46432  10.369   5.891   7.873  2.3798  3.5520 -2.0339
  344MOL0     H46433  10.415   5.991   8.004  1.0153 -1.1092  3.5175
  344MOL0     H46434  10.299   5.712   8.060 -2.4565  0.0621 -0.8792
  344MOL0     H46435  10.326   5.836   8.183 -0.6654 -1.7921  0.2029
  344MOL0     H46436   9.980   5.988   8.031  0.4151 -0.5555  0.0211
  344MOL0     H46437  10.851   5.889   7.720  1.7976  0.5134 -0.0728
  344MOL0     H46438  10.984   5.875   7.557 -1.6117  0.7894  0.1662
  344MOL0     H46439  11.069   6.025   7.492 -2.3558 -0.5379 -1.3844
  344MOL0     H46440  11.145   5.923   7.612  1.3948  1.5364 -1.7195
  345MOL0     O46441   7.282   5.168   0.064 -0.3013 -0.1436 -0.1055
  345MOL0     C46442   7.232   5.081   0.133  0.4120  0.1093  0.1633
  345MOL0     O46443   7.299   4.978   0.199 -0.1009 -0.2975  0.7485
  345MOL0     C46444   7.436   4.995   0.207  0.8605 -0.1629  0.1537
  345MOL0     C46445   7.508   5.068   0.309 -0.0147 -0.2042 -1.0235
  345MOL0     C46446   7.658   5.076   0.313 -0.1988  0.2718  0.4041
  345MOL0     C46447   7.725   5.000   0.214 -0.1331  0.0152 -0.8038
  345MOL0     O46448   7.866   4.986   0.227  0.6699 -0.8320  0.2171
  345MOL0     C46449   7.940   5.116   0.228 -0.0815 -0.4131  0.8028
  345MOL0     C46450   8.029   5.128   0.352 -0.5542  0.3116  0.4574
  345MOL0     C46451   8.109   5.262   0.352  1.0033 -0.1492  0.7604
  345MOL0     C46452   8.224   5.248   0.454 -0.0899  0.1979  0.3440
  345MOL0     C46453   8.350   5.171   0.418 -0.2228 -1.0418 -0.5601
  345MOL0     C46454   8.452   5.266   0.352 -0.6487 -0.3009  0.0653
  345MOL0     C46455   8.569   5.196   0.292 -0.1785  0.2318 -0.0585
  345MOL0     C46456   8.699   5.267   0.280  0.7409  0.4714  1.1888
  345MOL0     N46457   8.685   5.401   0.223 -0.2689  0.1855  0.1765
  345MOL0     C46458   8.624   5.435   0.105 -0.6460 -0.2860 -0.1581
  345MOL0     C46459   8.669   5.560   0.078  0.1305 -0.0638  0.5860
  345MOL0     C46460   8.639   5.645  -0.041  0.5541  0.2037  0.1573
  345MOL0     C46461   8.596   5.567  -0.167 -0.0602 -0.6275 -0.5308
  345MOL0     C46462   8.709   5.481  -0.217  0.6572 -0.1435 -0.7238
  345MOL0     C46463   8.649   5.376  -0.313 -0.1917 -0.0771 -0.2118
  345MOL0     O46464   8.572   5.284  -0.238  0.0546 -0.0852 -0.4436
  345MOL0     C46465   8.627   5.163  -0.216  0.3969 -0.7419  1.4369
  345MOL0     C46466   8.537   5.061  -0.263  0.1327 -0.3088 -0.3078
  345MOL0     C46467   8.584   4.928  -0.270 -0.3206 -0.5289  0.0252
  345MOL0     C46468   8.718   4.906  -0.217  0.6524 -0.3390  0.0901
  345MOL0     C46469   8.776   4.774  -0.210 -0.7409  1.4411  0.5597
  345MOL0     O46470   8.919   4.777  -0.213 -0.3497  0.0717 -0.4508
  345MOL0     C46471   9.011   4.675  -0.214  0.5630  0.0515  0.8651
  345MOL0     C46472   9.140   4.710  -0.266 -0.1026  0.7554 -0.1090
  345MOL0     C46473   9.242   4.614  -0.260  0.3267 -0.3370  1.6184
  345MOL0     C46474   9.216   4.484  -0.235 -0.6150  0.2478  0.0289
  345MOL0     O46475   9.318   4.392  -0.241 -0.0522  0.0531  0.2230
  345MOL0     C46476   9.292   4.251  -0.241  0.4824  0.0709  0.3077
  345MOL0     C46477   9.413   4.194  -0.167  0.1206 -0.2693  0.0555
  345MOL0     C46478   9.399   4.044  -0.175  0.1189  1.1533 -0.9961
  345MOL0     C46479   9.517   3.982  -0.089  0.2705  0.7025  0.1101
  345MOL0     C46480   9.639   3.932  -0.168 -0.3266  0.2687  0.3484
  345MOL0     C46481   9.751   3.888  -0.074  0.4390 -0.4537  0.6842
  345MOL0     C46482   9.863   3.849  -0.174  0.0088 -0.4172  0.2214
  345MOL0     C46483   9.977   3.813  -0.081  0.2094 -0.5218 -0.1487
  345MOL0    Cl46484  10.140   3.782  -0.154 -0.0661 -0.6106 -0.3040
  345MOL0     C46485   9.084   4.450  -0.195 -0.2313  0.3224  0.0604
  345MOL0     C46486   8.975   4.544  -0.200  0.2403  0.1413 -0.5664
  345MOL0     O46487   8.703   4.681  -0.233 -0.9280 -0.1739 -0.4151
  345MOL0     C46488   8.790   5.008  -0.149  0.1462 -0.6312 -0.7963
  345MOL0     C46489   8.746   5.141  -0.151 -0.0094 -0.5432  0.0530
  345MOL0     N46490   8.757   5.605   0.175 -0.9197  0.5978  1.3971
  345MOL0     N46491   8.758   5.512   0.263 -0.3923  0.3418  0.3985
  345MOL0     C46492   7.658   4.914   0.132 -0.0312 -0.4451  0.3720
  345MOL0     C46493   7.518   4.917   0.119 -0.2804  0.0752 -0.3921
  345MOL0     C46494   7.086   5.067   0.123 -0.0999  1.6092 -0.4543
  345MOL0     C46495   7.030   4.936   0.140  0.1305  0.0556 -0.9131
  345MOL0     C46496   6.893   4.914   0.139  0.6688  0.7796 -0.3632
  345MOL0     C46497   6.804   5.013   0.107 -0.5854  0.3580 -0.3956
  345MOL0     O46498   6.666   4.995   0.093 -0.3200 -0.2999 -0.0181
  345MOL0     C46499   6.603   4.874   0.133 -0.0883  0.1706 -0.7689
  345MOL0     C46500   6.465   4.886   0.075  0.4087 -0.8565 -0.0456
  345MOL0     C46501   6.377   4.978   0.146 -0.0520 -0.3982  0.2315
  345MOL0     C46502   6.296   5.080   0.056 -0.1182 -0.7910  0.1690
  345MOL0     C46503   6.215   5.003  -0.039  0.1457  0.7980 -0.6692
  345MOL0     C46504   6.159   4.940  -0.128 -0.1310 -0.6843  0.4836
  345MOL0     C46505   6.859   5.145   0.076 -0.0521  0.1995  0.0796
  345MOL0     C46506   6.991   5.168   0.092 -0.7240  0.2145 -0.6322
  345MOL0     C46507   7.035   5.311   0.093 -0.0706 -0.7067  0.7393
  345MOL0     H46508   7.454   5.137   0.373  1.5297  1.0364 -1.0085
  345MOL0     H46509   7.716   5.126   0.390  2.6716 -1.8303 -0.2599
  345MOL0     H46510   8.000   5.127   0.137 -0.2477  0.1970  0.7641
  345MOL0     H46511   7.881   5.208   0.225  0.5960  0.0181  0.4607
  345MOL0     H46512   8.099   5.044   0.352  1.7995  2.1613  0.3697
  345MOL0     H46513   7.962   5.126   0.439 -0.9158  3.2750  0.3594
  345MOL0     H46514   8.032   5.330   0.389 -1.9402 -1.4691 -2.3760
  345MOL0     H46515   8.155   5.288   0.256  1.1101  0.8018  1.0598
  345MOL0     H46516   8.255   5.347   0.490 -0.9627  0.0119  1.6856
  345MOL0     H46517   8.177   5.201   0.541 -2.5004  2.2884  0.2828
  345MOL0     H46518   8.401   5.132   0.506  0.5962 -1.2510 -1.1142
  345MOL0     H46519   8.338   5.081   0.358  0.3691 -0.3175 -1.8159
  345MOL0     H46520   8.397   5.333   0.285 -1.0216  1.7441  2.2427
  345MOL0     H46521   8.482   5.344   0.424 -2.2522 -1.0516  1.6383
  345MOL0     H46522   8.546   5.182   0.186  1.7339  1.3948 -0.6745
  345MOL0     H46523   8.593   5.097   0.332  0.1663 -0.7692 -2.5615
  345MOL0     H46524   8.746   5.279   0.378  0.8107 -1.8360  1.4920
  345MOL0     H46525   8.765   5.201   0.223 -0.1071  3.8406 -4.4076
  345MOL0     H46526   8.545   5.387   0.047 -1.5341 -1.6801  2.1071
  345MOL0     H46527   8.555   5.707  -0.008  1.6777  1.6423  0.3985
  345MOL0     H46528   8.720   5.716  -0.060 -0.1177  1.4069  1.5790
  345MOL0     H46529   8.518   5.497  -0.136  1.0682 -1.2732  1.0024
  345MOL0     H46530   8.566   5.624  -0.255  2.9241 -2.2628 -2.8004
  345MOL0     H46531   8.750   5.436  -0.126  0.6962  1.6290  0.1697
  345MOL0     H46532   8.795   5.535  -0.258  2.1618  0.1422  2.5612
  345MOL0     H46533   8.732   5.342  -0.375  1.7365  0.8781  1.7257
  345MOL0     H46534   8.581   5.416  -0.389  1.7955  0.3395 -1.8428
  345MOL0     H46535   8.439   5.081  -0.304  0.6072  1.5831 -0.6068
  345MOL0     H46536   8.517   4.851  -0.306 -2.0950  1.3298 -0.8645
  345MOL0     H46537   9.163   4.812  -0.296  1.1504  0.3491 -0.6143
  345MOL0     H46538   9.339   4.645  -0.296 -0.3071 -1.3021 -1.1546
  345MOL0     H46539   9.198   4.204  -0.211  1.3370 -2.7839 -1.0985
  345MOL0     H46540   9.293   4.224  -0.347  0.7981  1.0905  0.0405
  345MOL0     H46541   9.511   4.211  -0.215  0.7473 -1.6195  0.8040
  345MOL0     H46542   9.411   4.238  -0.067  0.8895  1.9283 -0.8095
  345MOL0     H46543   9.304   4.002  -0.142 -0.7548  2.0726 -2.2677
  345MOL0     H46544   9.409   4.010  -0.278 -3.0341 -1.0498 -0.7210
  345MOL0     H46545   9.482   3.902  -0.023  0.6715 -0.2226 -0.7562
  345MOL0     H46546   9.565   4.061  -0.031  2.8905  0.5291 -1.6738
  345MOL0     H46547   9.680   4.011  -0.231  0.2818 -0.2625  0.0646
  345MOL0     H46548   9.609   3.855  -0.240 -0.5556  2.6995 -2.3177
  345MOL0     H46549   9.778   3.965  -0.001  0.5868 -1.4949  1.7581
  345MOL0     H46550   9.720   3.804  -0.011 -1.7311  0.2335  0.6042
  345MOL0     H46551   9.896   3.936  -0.232  0.5489  0.6690  2.0633
  345MOL0     H46552   9.826   3.768  -0.237 -0.3897  0.1069 -0.2342
  345MOL0     H46553   9.988   3.896  -0.010 -1.8641 -0.5150  0.2379
  345MOL0     H46554   9.948   3.725  -0.022  0.4814 -1.0313 -0.7616
  345MOL0     H46555   9.057   4.345  -0.190 -1.5856  0.6478  0.0986
  345MOL0     H46556   8.876   4.505  -0.181  0.4969 -1.6636 -2.6579
  345MOL0     H46557   8.885   4.990  -0.099 -0.7538  0.0759  1.2813
  345MOL0     H46558   8.813   5.212  -0.102  1.4512  0.0052 -2.5559
  345MOL0     H46559   7.724   4.852   0.071 -0.9139 -1.8028  0.7553
  345MOL0     H46560   7.467   4.862   0.041 -2.5364  1.7974 -0.2310
  345MOL0     H46561   7.084   4.845   0.161 -0.8904 -0.2785  0.4459
  345MOL0     H46562   6.853   4.814   0.156  0.0701  1.1301  0.3388
  345MOL0     H46563   6.616   4.848   0.238 -0.0819 -1.4471 -1.1411
  345MOL0     H46564   6.644   4.791   0.075  0.1587  0.5137 -1.0962
  345MOL0     H46565   6.414   4.789   0.080  2.0790 -1.7437  0.5390
  345MOL0     H46566   6.478   4.914  -0.030  1.6590 -1.2691 -0.0188
  345MOL0     H46567   6.430   5.036   0.223  2.2649 -0.1966 -1.4235
  345MOL0     H46568   6.290   4.929   0.190 -0.5495 -0.5305 -0.8776
  345MOL0     H46569   6.221   5.139   0.109 -1.0063 -1.5803 -0.1757
  345MOL0     H46570   6.363   5.147   0.001  0.1798  1.4682  3.0801
  345MOL0     H46571   6.093   4.885  -0.192 -0.1161 -1.2414  0.9343
  345MOL0     H46572   6.805   5.233   0.043  0.1147  0.0066 -0.7310
  345MOL0     H46573   7.104   5.332   0.176  1.7989 -2.5666 -0.2345
  345MOL0     H46574   7.082   5.343  -0.000 -1.1317 -2.4063 -0.4334
  345MOL0     H46575   6.958   5.389   0.097  1.6923  1.2082 -0.1467
  346MOL0     O46576   6.450   0.641  11.263 -0.6204 -0.1664 -0.5914
  346MOL0     C46577   6.409   0.731  11.337  0.3056 -0.4801 -0.6797
  346MOL0     O46578   6.471   0.779  11.452 -0.2365 -0.0837  0.6161
  346MOL0     C46579   6.608   0.752  11.471 -0.0191 -0.4174 -0.2347
  346MOL0     C46580   6.696   0.806  11.376  0.5050 -0.2377 -0.3458
  346MOL0     C46581   6.834   0.787  11.399  0.0396 -0.4438 -0.2371
  346MOL0     C46582   6.877   0.706  11.508 -0.4439 -0.1631  0.1385
  346MOL0     O46583   7.010   0.679  11.515 -0.0846 -0.1401 -0.0549
  346MOL0     C46584   7.079   0.784  11.580 -0.5219 -0.0370 -0.4278
  346MOL0     C46585   7.230   0.746  11.589  0.0408 -0.0946  1.0015
  346MOL0     C46586   7.304   0.774  11.461 -0.1116  0.0963 -0.2050
  346MOL0     C46587   7.453   0.787  11.481  0.2459 -0.0169 -0.1543
  346MOL0     C46588   7.528   0.793  11.349  0.3393  0.2590  0.4745
  346MOL0     C46589   7.679   0.771  11.382 -0.8722 -0.0926 -0.3527
  346MOL0     C46590   7.792   0.769  11.277 -0.0723 -0.3298  0.4645
  346MOL0     C46591   7.823   0.898  11.205  1.4585 -0.4621 -0.5202
  346MOL0     N46592   7.929   0.883  11.109 -0.3568 -0.4565  0.8193
  346MOL0     C46593   8.062   0.848  11.130  0.6458  0.5476 -0.4729
  346MOL0     C46594   8.110   0.832  11.012  0.5823 -0.1767 -0.1490
  346MOL0     C46595   8.249   0.787  10.970 -0.4581  0.0745  0.0492
  346MOL0     C46596   8.362   0.848  11.045  0.1579 -0.6515 -0.6622
  346MOL0     C46597   8.481   0.792  10.975 -0.5424 -0.4142 -0.3033
  346MOL0     C46598   8.617   0.833  11.031 -0.1362 -0.2925 -0.1507
  346MOL0     O46599   8.640   0.973  11.030  0.4593  0.4656  0.0784
  346MOL0     C46600   8.755   1.035  10.984  0.2519  0.2656  0.3714
  346MOL0     C46601   8.874   0.966  10.962  0.4858 -0.4232 -0.1058
  346MOL0     C46602   8.988   1.035  10.923 -0.4396 -0.3894 -0.0072
  346MOL0     C46603   8.978   1.175  10.920 -0.0530  0.1121  0.0556
  346MOL0     C46604   9.088   1.250  10.868  0.6330 -0.0460  0.0345
  346MOL0     O46605   9.052   1.368  10.810 -0.0284  0.2296  0.2924
  346MOL0     C46606   9.140   1.430  10.729  1.0295  0.8897 -0.3976
  346MOL0     C46607   9.122   1.569  10.717  0.1625  0.0690  0.2757
  346MOL0     C46608   9.206   1.645  10.634  0.1909 -0.1221  0.0533
  346MOL0     C46609   9.305   1.578  10.555  0.9410 -0.5498 -0.0198
  346MOL0     O46610   9.380   1.652  10.464  0.2007 -0.5543  0.7518
  346MOL0     C46611   9.422   1.787  10.501 -1.1529  0.3517 -0.2690
  346MOL0     C46612   9.562   1.821  10.444 -0.1099 -0.3523  0.6681
  346MOL0     C46613   9.658   1.704  10.467  0.2426 -0.0834 -0.3559
  346MOL0     C46614   9.806   1.755  10.451 -0.1773  0.9423 -1.0655
  346MOL0     C46615   9.901   1.664  10.541  0.1067 -0.4116 -0.1102
  346MOL0     C46616  10.045   1.714  10.550  0.2239 -0.4036 -0.1156
  346MOL0     C46617  10.119   1.611  10.642 -0.6310 -0.3487 -0.4305
  346MOL0     C46618  10.270   1.653  10.661 -0.4769 -1.1438 -0.6054
  346MOL0    Cl46619  10.367   1.660  10.510 -0.0156  0.2521 -0.1544
  346MOL0     C46620   9.325   1.444  10.561 -0.6022  0.1353  0.5786
  346MOL0     C46621   9.249   1.365  10.649  0.3292 -0.8114  0.1172
  346MOL0     O46622   9.198   1.209  10.887 -0.1725 -0.5049 -0.4850
  346MOL0     C46623   8.861   1.242  10.943  0.1577  0.0196  0.0628
  346MOL0     C46624   8.741   1.167  10.970  0.1690 -0.5462 -0.4596
  346MOL0     N46625   8.021   0.875  10.913 -0.1527  0.2131 -0.1724
  346MOL0     N46626   7.908   0.890  10.971 -0.2138 -0.7927 -0.2784
  346MOL0     C46627   6.783   0.648  11.590  1.5274 -0.3616  0.4012
  346MOL0     C46628   6.645   0.667  11.567  0.2163  0.0854  0.2978
  346MOL0     C46629   6.270   0.780  11.306 -0.2443 -0.3895 -0.5396
  346MOL0     C46630   6.169   0.687  11.276 -0.3596 -0.1456 -0.5817
  346MOL0     C46631   6.038   0.723  11.253 -1.0479  0.1443 -0.7873
  346MOL0     C46632   6.009   0.853  11.278  0.3544  0.9776 -1.5930
  346MOL0     O46633   5.881   0.894  11.251 -0.2093  0.2429 -0.0792
  346MOL0     C46634   5.762   0.798  11.246 -0.7502 -1.1774  0.2468
  346MOL0     C46635   5.690   0.801  11.380  1.2012 -0.1292 -0.1992
  346MOL0     C46636   5.535   0.754  11.382 -0.5461  0.1396  0.7752
  346MOL0     C46637   5.499   0.622  11.309  0.2585  0.3634 -0.8524
  346MOL0     C46638   5.589   0.510  11.341  0.0199  0.1698  0.6475
  346MOL0     C46639   5.658   0.409  11.348 -0.0061  0.4837  0.2603
  346MOL0     C46640   6.095   0.948  11.318  0.1678  0.2344 -0.3792
  346MOL0     C46641   6.230   0.913  11.326 -0.7474 -0.1880 -0.7638
  346MOL0     C46642   6.339   1.029  11.335  0.3752  0.7620  0.6999
  346MOL0     H46643   6.670   0.890  11.313  1.8174 -0.0465 -0.6450
  346MOL0     H46644   6.892   0.838  11.323  2.1214 -1.7868  0.3478
  346MOL0     H46645   7.068   0.885  11.539 -1.9401  1.1888  2.6510
  346MOL0     H46646   7.044   0.797  11.683  0.8631  1.4886 -0.0977
  346MOL0     H46647   7.247   0.642  11.616  0.9850 -0.2504 -0.1145
  346MOL0     H46648   7.269   0.816  11.664 -1.6088 -1.6641  3.4542
  346MOL0     H46649   7.273   0.873  11.426  1.4048  0.0145 -1.9801
  346MOL0     H46650   7.282   0.696  11.387  2.3395 -0.3094 -0.6144
  346MOL0     H46651   7.466   0.875  11.545  0.0697  1.4712 -2.0871
  346MOL0     H46652   7.488   0.699  11.535 -0.9087  0.0856  0.7927
  346MOL0     H46653   7.495   0.716  11.279  0.5057  0.3099  0.3383
  346MOL0     H46654   7.516   0.888  11.297  0.1370  0.1056  0.2394
  346MOL0     H46655   7.708   0.834  11.467  0.4891 -1.9982  0.6709
  346MOL0     H46656   7.679   0.671  11.425  0.1528 -0.3084 -0.8120
  346MOL0     H46657   7.776   0.698  11.195 -1.4209  3.0370 -2.4293
  346MOL0     H46658   7.880   0.744  11.337  0.2382 -1.2878 -0.3610
  346MOL0     H46659   7.731   0.925  11.151  3.5724  2.6317 -2.9079
  346MOL0     H46660   7.840   0.980  11.274  3.2920  0.8755 -2.4310
  346MOL0     H46661   8.096   0.816  11.228 -2.0994  0.2556  0.4713
  346MOL0     H46662   8.259   0.680  10.989  4.5499  0.3699  0.3852
  346MOL0     H46663   8.254   0.813  10.864  2.6618 -0.5873 -0.0429
  346MOL0     H46664   8.365   0.957  11.042  2.1694 -0.6866 -1.7642
  346MOL0     H46665   8.369   0.826  11.152  2.7659  0.4962 -0.5145
  346MOL0     H46666   8.487   0.826  10.872  2.9885 -0.7991 -0.3252
  346MOL0     H46667   8.474   0.683  10.968  0.3011 -0.3496 -2.7462
  346MOL0     H46668   8.702   0.787  10.981  1.9054  0.8606  2.0390
  346MOL0     H46669   8.626   0.787  11.130  1.0293 -1.3529 -0.7219
  346MOL0     H46670   8.886   0.863  10.994  2.1867 -0.0721  0.4771
  346MOL0     H46671   9.082   0.992  10.890 -0.6447  0.0491 -1.1994
  346MOL0     H46672   9.040   1.608  10.778 -1.0191 -0.8178 -0.6925
  346MOL0     H46673   9.200   1.753  10.635  2.4361  0.0449  0.1975
  346MOL0     H46674   9.344   1.860  10.478 -0.6426  1.1435  0.4314
  346MOL0     H46675   9.430   1.785  10.611 -0.7580  0.3597 -0.2963
  346MOL0     H46676   9.546   1.845  10.338  0.5048 -2.0275  0.1682
  346MOL0     H46677   9.604   1.910  10.492 -1.3317  0.0738  0.9784
  346MOL0     H46678   9.635   1.676  10.570 -2.0864 -0.3968 -0.9232
  346MOL0     H46679   9.624   1.623  10.403 -1.1875  1.3521 -1.4813
  346MOL0     H46680   9.811   1.862  10.473  2.2023  1.0228 -1.7450
  346MOL0     H46681   9.852   1.734  10.353  2.8995 -2.7553  0.8902
  346MOL0     H46682   9.882   1.563  10.504 -1.7018 -0.4860  0.9035
  346MOL0     H46683   9.857   1.672  10.641  0.0304 -0.6717 -0.1220
  346MOL0     H46684  10.093   1.726  10.452  0.7546  0.6057  0.2489
  346MOL0     H46685  10.037   1.811  10.600 -3.9179 -0.4455 -0.4117
  346MOL0     H46686  10.124   1.515  10.590  0.4820 -0.3741 -0.2915
  346MOL0     H46687  10.073   1.609  10.741 -2.1076 -0.4640 -1.0954
  346MOL0     H46688  10.262   1.748  10.716  0.3613 -1.8378  0.7569
  346MOL0     H46689  10.326   1.586  10.726  2.5869  1.6416 -0.0993
  346MOL0     H46690   9.396   1.401  10.493  0.6486  2.6255  0.1760
  346MOL0     H46691   9.264   1.258  10.647  3.2979 -0.5247  1.2599
  346MOL0     H46692   8.852   1.350  10.942 -1.7917 -0.0899  1.1401
  346MOL0     H46693   8.644   1.214  10.986  0.1775 -0.6012 -0.2358
  346MOL0     H46694   6.807   0.581  11.672 -0.1137  0.3264  1.5025
  346MOL0     H46695   6.565   0.620  11.623 -0.9283  0.8233 -0.6726
  346MOL0     H46696   6.201   0.585  11.263  1.4582  0.3041  0.1395
  346MOL0     H46697   5.971   0.648  11.212  1.2245 -2.9707  0.8385
  346MOL0     H46698   5.783   0.695  11.214 -1.3641 -0.6796 -1.9584
  346MOL0     H46699   5.688   0.844  11.180 -0.7359 -0.2078  0.8977
  346MOL0     H46700   5.699   0.899  11.428 -0.2088  0.7654 -1.6617
  346MOL0     H46701   5.748   0.732  11.442  0.7240  0.6865  1.2217
  346MOL0     H46702   5.480   0.839  11.342 -0.2220  0.2065  0.4595
  346MOL0     H46703   5.510   0.748  11.488  2.9647  1.5840  1.8351
  346MOL0     H46704   5.401   0.594  11.349 -0.8267  1.8800 -2.3301
  346MOL0     H46705   5.487   0.627  11.201 -2.5568 -0.3066 -0.6720
  346MOL0     H46706   5.711   0.316  11.355 -0.4079  0.3352  1.6417
  346MOL0     H46707   6.054   1.048  11.330 -2.6549 -0.5677 -2.3561
  346MOL0     H46708   6.345   1.068  11.437 -1.0795 -0.6338  1.3579
  346MOL0     H46709   6.435   0.994  11.296 -0.7529  0.0598 -1.6569
  346MOL0     H46710   6.295   1.107  11.272 -1.3482 -0.8310 -0.1687
  347MOL0     O46711  10.429   4.370   6.283 -0.3532  0.0830  0.1700
  347MOL0     C46712  10.400   4.383   6.163 -0.8997  0.1184 -0.3811
  347MOL0     O46713  10.447   4.482   6.079  0.0607 -0.3159  0.1518
  347MOL0     C46714  10.551   4.559   6.121 -0.4409 -0.0286 -1.2827
  347MOL0     C46715  10.515   4.681   6.181  0.5887  0.2552 -0.1595
  347MOL0     C46716  10.615   4.766   6.226  0.5060 -0.0836 -0.3020
  347MOL0     C46717  10.751   4.720   6.235 -0.0233  0.1331 -0.0671
  347MOL0     O46718  10.850   4.794   6.296 -0.5124 -0.5410 -0.2949
  347MOL0     C46719  10.823   4.935   6.316  0.1954 -1.1693 -0.2348
  347MOL0     C46720  10.956   4.981   6.367 -0.6382  0.2731 -0.0126
  347MOL0     C46721  11.089   4.950   6.302  0.4191  0.2289 -0.4789
  347MOL0     C46722  11.115   5.050   6.191  0.4490  0.0086 -0.2067
  347MOL0     C46723  11.253   5.025   6.136  0.2267 -0.0096 -0.1998
  347MOL0     C46724  11.270   4.885   6.084  0.0458 -1.2785 -0.3433
  347MOL0     C46725  11.357   4.895   5.956  0.1288 -0.0397 -0.0228
  347MOL0     C46726  11.342   4.774   5.871  0.1126 -0.8096 -0.2526
  347MOL0     N46727  11.402   4.789   5.738  1.5932 -0.2167 -0.6171
  347MOL0     C46728  11.525   4.747   5.704  0.1713  0.3927  0.3537
  347MOL0     C46729  11.521   4.739   5.568  0.5595 -0.0102 -0.5187
  347MOL0     C46730  11.626   4.689   5.477  0.4043  0.5105 -0.0636
  347MOL0     C46731  11.712   4.810   5.449 -0.2031  0.6224 -0.1166
  347MOL0     C46732  11.810   4.787   5.328  0.9947 -0.0979 -0.1156
  347MOL0     C46733  11.919   4.888   5.340 -0.5103  0.2064  0.4624
  347MOL0     O46734  12.006   4.873   5.221  0.1144 -0.2067  0.6217
  347MOL0     C46735  12.100   4.772   5.205 -0.6629 -0.1961  0.0429
  347MOL0     C46736  12.168   4.765   5.080 -0.6807 -0.0574  0.1138
  347MOL0     C46737  12.268   4.669   5.056  0.1773 -0.6426 -0.4711
  347MOL0     C46738  12.311   4.588   5.160 -0.1411 -0.1563  0.6669
  347MOL0     C46739  12.417   4.502   5.136  0.2649  0.0888 -0.0448
  347MOL0     O46740  12.528   4.498   5.225 -0.3410 -0.3835  0.1952
  347MOL0     C46741  12.646   4.442   5.189 -0.5226 -0.1669 -0.2409
  347MOL0     C46742  12.724   4.355   5.275  0.3001  1.2222 -0.2700
  347MOL0     C46743  12.852   4.308   5.219  0.2561  0.2682 -0.2832
  347MOL0     C46744  12.903   4.364   5.098 -0.0156  0.3982 -0.3947
  347MOL0     O46745  13.027   4.338   5.046  0.0043  0.4158  0.3203
  347MOL0     C46746  13.109   4.246   5.117 -0.1882  0.1071 -0.9302
  347MOL0     C46747  13.241   4.206   5.049 -0.6641 -0.5292  0.2566
  347MOL0     C46748  13.323   4.325   4.978  0.1063  0.2521  0.3837
  347MOL0     C46749  13.447   4.291   4.907  0.5428  1.3604 -0.1236
  347MOL0     C46750  13.548   4.212   4.994  0.0759 -0.5941  0.1087
  347MOL0     C46751  13.689   4.227   4.948 -0.5475  0.4284  0.3171
  347MOL0     C46752  13.712   4.164   4.810 -0.7007 -0.4922  0.8332
  347MOL0     C46753  13.863   4.140   4.780  0.4918 -0.1587  0.0080
  347MOL0    Cl46754  13.926   4.016   4.886  0.1095  0.5809 -0.1981
  347MOL0     C46755  12.825   4.453   5.024 -0.1918  0.1923  0.0012
  347MOL0     C46756  12.698   4.487   5.066 -0.0887  0.2830 -0.2403
  347MOL0     O46757  12.413   4.434   5.031  0.1899  0.1980 -0.1134
  347MOL0     C46758  12.254   4.599   5.288  0.2222 -0.2938  0.6246
  347MOL0     C46759  12.142   4.685   5.309 -0.5748 -0.5111  0.0425
  347MOL0     N46760  11.394   4.780   5.533 -0.4921 -0.3141 -0.6635
  347MOL0     N46761  11.330   4.830   5.639  0.0936  0.0737 -0.7073
  347MOL0     C46762  10.784   4.592   6.194  0.1997  0.1206  1.0354
  347MOL0     C46763  10.694   4.520   6.114  0.3452 -0.4353 -0.5777
  347MOL0     C46764  10.287   4.302   6.117 -0.0141 -0.6664  1.5751
  347MOL0     C46765  10.245   4.332   5.981 -0.4877 -0.4253 -0.2420
  347MOL0     C46766  10.132   4.276   5.932  0.2726 -0.4423 -0.7057
  347MOL0     C46767  10.060   4.174   5.998 -1.0117 -0.5509  0.2311
  347MOL0     O46768   9.949   4.123   5.946  0.0863 -0.0794 -0.3530
  347MOL0     C46769   9.947   4.065   5.816 -0.2986 -0.1296  0.8200
  347MOL0     C46770   9.847   3.945   5.811 -0.1996  0.3504 -0.4743
  347MOL0     C46771   9.707   3.985   5.850  0.1838  0.4060 -0.5385
  347MOL0     C46772   9.615   3.854   5.850 -0.6336 -0.1311  0.0759
  347MOL0     C46773   9.473   3.891   5.879  0.3308 -0.1641  1.1384
  347MOL0     C46774   9.372   3.942   5.915  0.7600  0.1588 -0.2906
  347MOL0     C46775  10.098   4.142   6.133  0.0628  0.0872 -1.1730
  347MOL0     C46776  10.213   4.208   6.192 -0.0954  0.4693 -0.5119
  347MOL0     C46777  10.253   4.151   6.326  0.5469 -0.2812  0.0865
  347MOL0     H46778  10.417   4.723   6.200  0.9428  1.2580 -0.5084
  347MOL0     H46779  10.576   4.857   6.271 -2.2226 -1.5630  0.5710
  347MOL0     H46780  10.801   4.973   6.216 -1.9501  0.5703  0.8281
  347MOL0     H46781  10.745   4.956   6.389 -0.0617  3.0029 -1.4614
  347MOL0     H46782  10.969   4.928   6.462 -0.5471  3.2553  1.7559
  347MOL0     H46783  10.936   5.088   6.381 -3.1816  0.0376 -1.4430
  347MOL0     H46784  11.072   4.848   6.264  2.5255  0.0518 -1.0877
  347MOL0     H46785  11.180   4.940   6.363  1.1399  0.4270 -1.4975
  347MOL0     H46786  11.040   5.033   6.113 -0.2669  0.1074  0.4448
  347MOL0     H46787  11.116   5.153   6.226  0.1464 -0.2791  0.6833
  347MOL0     H46788  11.261   5.092   6.049 -1.5407  0.8794  0.2563
  347MOL0     H46789  11.327   5.053   6.212  1.2637  0.6248 -1.3960
  347MOL0     H46790  11.318   4.824   6.161  0.5636  0.3765  0.6915
  347MOL0     H46791  11.168   4.846   6.072 -1.3421  2.3630 -1.6763
  347MOL0     H46792  11.460   4.919   5.984 -0.4398  3.5128 -0.4684
  347MOL0     H46793  11.320   4.976   5.892  0.7051  0.4716  0.2730
  347MOL0     H46794  11.392   4.689   5.919 -0.0684 -0.9205 -0.2585
  347MOL0     H46795  11.238   4.744   5.856  0.3946 -2.1748  0.3567
  347MOL0     H46796  11.602   4.694   5.760 -0.6867 -1.4591 -0.1188
  347MOL0     H46797  11.670   4.596   5.515 -2.9892 -0.6389  1.4133
  347MOL0     H46798  11.585   4.665   5.379 -2.2341 -0.2969  1.1507
  347MOL0     H46799  11.649   4.894   5.417 -1.1503 -0.8394 -2.2989
  347MOL0     H46800  11.768   4.843   5.537 -1.7341  3.3872 -0.0694
  347MOL0     H46801  11.757   4.798   5.233 -1.1886  1.4818  1.1863
  347MOL0     H46802  11.861   4.690   5.327  1.6698  0.2546  0.1838
  347MOL0     H46803  11.980   4.872   5.429  2.2459  6.7046  0.2958
  347MOL0     H46804  11.879   4.989   5.346  1.1971  0.8769  1.1780
  347MOL0     H46805  12.136   4.828   4.997  4.2021  1.8639 -0.6325
  347MOL0     H46806  12.315   4.669   4.958 -1.7400  2.0352 -1.5145
  347MOL0     H46807  12.691   4.334   5.376 -0.1943  0.5447 -0.5619
  347MOL0     H46808  12.916   4.240   5.274  1.4907 -0.6261 -2.6702
  347MOL0     H46809  13.121   4.286   5.219  1.4434 -1.9738 -0.2193
  347MOL0     H46810  13.056   4.153   5.137  2.2589 -1.4535 -1.2889
  347MOL0     H46811  13.305   4.160   5.125 -3.3451 -1.6583  2.0070
  347MOL0     H46812  13.207   4.125   4.985 -3.2491 -2.6432  3.8818
  347MOL0     H46813  13.247   4.356   4.906 -0.7919 -0.1491  1.1488
  347MOL0     H46814  13.336   4.401   5.056 -4.8441  1.3970  0.3857
  347MOL0     H46815  13.499   4.380   4.868  3.2266 -0.0563 -0.0071
  347MOL0     H46816  13.439   4.229   4.818  1.4542 -0.1245  0.7806
  347MOL0     H46817  13.524   4.106   4.990  2.4036 -1.1702 -0.0790
  347MOL0     H46818  13.540   4.256   5.094  0.0416  0.3948 -0.3170
  347MOL0     H46819  13.715   4.334   4.949  1.2683  0.0473 -0.7132
  347MOL0     H46820  13.753   4.186   5.027 -0.0406  2.1365  0.8452
  347MOL0     H46821  13.666   4.241   4.747 -2.4518  0.0040  2.6167
  347MOL0     H46822  13.647   4.078   4.795 -1.5671  0.2202  0.3606
  347MOL0     H46823  13.868   4.105   4.676 -0.0996  1.0103 -0.4292
  347MOL0     H46824  13.925   4.230   4.786 -0.4277  0.3985  3.2201
  347MOL0     H46825  12.868   4.482   4.929 -2.8525 -0.5216 -1.5348
  347MOL0     H46826  12.643   4.557   5.004 -2.0787 -2.0531 -1.3002
  347MOL0     H46827  12.301   4.539   5.365  5.0737 -0.7778 -2.2690
  347MOL0     H46828  12.101   4.686   5.409 -1.2392  0.6865 -0.2168
  347MOL0     H46829  10.885   4.559   6.212  0.2677  0.0398  0.5254
  347MOL0     H46830  10.714   4.422   6.073  0.3641 -0.5147 -0.3844
  347MOL0     H46831  10.295   4.409   5.924 -3.3116  4.0267  2.6563
  347MOL0     H46832  10.121   4.314   5.831 -0.0393  1.1194 -0.1108
  347MOL0     H46833  10.048   4.037   5.785 -1.8124  0.1398 -5.7744
  347MOL0     H46834   9.917   4.141   5.743  1.0968 -0.6706 -0.3475
  347MOL0     H46835   9.882   3.882   5.893  0.1651 -0.6958 -1.4251
  347MOL0     H46836   9.856   3.881   5.723 -1.7722 -2.6323  1.3871
  347MOL0     H46837   9.678   4.058   5.774  2.4305  0.3747 -1.5123
  347MOL0     H46838   9.700   4.028   5.951 -2.4456  0.3827 -0.6642
  347MOL0     H46839   9.626   3.806   5.752  0.7169 -0.3648  0.3315
  347MOL0     H46840   9.654   3.791   5.930 -0.7772  2.4717  2.3347
  347MOL0     H46841   9.276   3.977   5.948  0.0573 -2.1262  0.2785
  347MOL0     H46842  10.043   4.061   6.180  1.0761  2.4013  5.0609
  347MOL0     H46843  10.349   4.099   6.318  1.6415  1.8657 -2.5123
  347MOL0     H46844  10.265   4.241   6.387 -0.6403  0.5205 -0.8178
  347MOL0     H46845  10.175   4.095   6.378  0.9722 -0.2837  0.7344
  348MOL0     O46846   4.503   3.869   6.184 -1.0592 -0.7981  0.0023
  348MOL0     C46847   4.474   3.992   6.194  0.1287  0.0797 -0.1954
  348MOL0     O46848   4.543   4.095   6.251 -0.4965 -0.2645  0.4249
  348MOL0     C46849   4.680   4.091   6.278  0.3065 -0.3821 -0.2584
  348MOL0     C46850   4.718   4.195   6.369 -0.2065 -0.2412 -0.1928
  348MOL0     C46851   4.854   4.201   6.407 -0.1127 -0.6717 -0.9203
  348MOL0     C46852   4.955   4.110   6.354  0.2529 -0.7433 -0.2480
  348MOL0     O46853   5.085   4.125   6.402  0.0955 -0.0191 -0.4876
  348MOL0     C46854   5.192   4.068   6.324 -0.5401  0.1895 -0.1468
  348MOL0     C46855   5.318   4.106   6.413  1.5513  0.3111  0.4523
  348MOL0     C46856   5.447   4.067   6.354  0.2347 -0.3640 -0.5241
  348MOL0     C46857   5.566   4.080   6.455  0.0670 -0.0780  0.3259
  348MOL0     C46858   5.702   4.027   6.396  0.1028 -0.5879  0.4987
  348MOL0     C46859   5.770   4.119   6.287 -0.2921  0.1817 -1.0272
  348MOL0     C46860   5.919   4.084   6.280  0.0821 -0.1592  0.4329
  348MOL0     C46861   5.976   4.148   6.155  1.2298 -0.0401 -0.5271
  348MOL0     N46862   6.114   4.116   6.131 -0.5215 -0.9693  0.1412
  348MOL0     C46863   6.225   4.177   6.189 -0.9829  1.2689  0.4493
  348MOL0     C46864   6.327   4.100   6.143 -0.2317 -0.0230  0.2033
  348MOL0     C46865   6.468   4.126   6.191 -0.5920 -0.1787 -0.1189
  348MOL0     C46866   6.538   4.196   6.076  0.7449  0.9864 -0.6286
  348MOL0     C46867   6.584   4.113   5.960 -0.2979 -0.1546 -0.4190
  348MOL0     C46868   6.690   4.011   6.005  0.4290  0.2886 -0.1146
  348MOL0     O46869   6.800   4.082   6.064  0.1386 -0.3258  0.0855
  348MOL0     C46870   6.917   4.009   6.078 -0.2479  0.5611  0.2262
  348MOL0     C46871   6.984   4.049   6.193 -0.1020 -0.1286 -0.3183
  348MOL0     C46872   7.101   3.993   6.242 -0.0942  0.2209  0.0410
  348MOL0     C46873   7.157   3.880   6.179 -0.4651  0.4928  0.4369
  348MOL0     C46874   7.260   3.811   6.245 -0.4584  0.7127 -0.1254
  348MOL0     O46875   7.291   3.688   6.204  0.0813  0.8731 -0.3396
  348MOL0     C46876   7.368   3.606   6.282 -0.3150 -0.4921  0.2344
  348MOL0     C46877   7.335   3.587   6.422 -0.5954 -0.2914  0.3133
  348MOL0     C46878   7.408   3.497   6.503 -0.0359  0.9029  0.0040
  348MOL0     C46879   7.499   3.415   6.441 -0.1931  1.1071 -0.1404
  348MOL0     O46880   7.582   3.325   6.494  0.1188 -0.0808 -0.0832
  348MOL0     C46881   7.562   3.279   6.624  0.3521  0.6803  0.3327
  348MOL0     C46882   7.615   3.382   6.724  0.0652  0.0345 -0.1351
  348MOL0     C46883   7.760   3.422   6.705  0.6464 -0.4173  0.2788
  348MOL0     C46884   7.866   3.314   6.697 -0.1680  0.4093 -0.9550
  348MOL0     C46885   8.006   3.364   6.681 -0.0156  0.1258 -0.2396
  348MOL0     C46886   8.098   3.255   6.661  0.2848  0.5548 -0.1723
  348MOL0     C46887   8.244   3.312   6.630  0.7881 -0.9177 -0.1009
  348MOL0     C46888   8.346   3.199   6.632 -0.6558 -0.0428  1.0052
  348MOL0    Cl46889   8.494   3.256   6.553 -0.6061 -0.0565 -0.1571
  348MOL0     C46890   7.519   3.427   6.300 -0.0108  0.2269 -0.1583
  348MOL0     C46891   7.456   3.526   6.225  0.3164  0.7879 -0.0174
  348MOL0     O46892   7.313   3.861   6.341 -0.3813 -0.6370  0.0413
  348MOL0     C46893   7.099   3.853   6.046  0.2810  0.2197 -0.6930
  348MOL0     C46894   6.985   3.917   5.996  0.2436  0.2104 -0.8235
  348MOL0     N46895   6.274   4.006   6.053 -0.4565 -0.2783  0.4259
  348MOL0     N46896   6.153   4.026   6.033  0.2280  0.2843 -0.5219
  348MOL0     C46897   4.912   4.017   6.263  1.5339  0.5196 -1.4869
  348MOL0     C46898   4.778   4.005   6.223  0.4718  1.1088  0.8254
  348MOL0     C46899   4.345   4.034   6.144  0.2965 -0.8265  0.9059
  348MOL0     C46900   4.322   4.166   6.113  0.9463 -0.4303  0.8191
  348MOL0     C46901   4.199   4.218   6.075 -0.4223 -0.3936 -0.4124
  348MOL0     C46902   4.085   4.145   6.073 -0.1560 -0.3546  0.2195
  348MOL0     O46903   3.964   4.208   6.044 -0.7329  0.8730 -0.3530
  348MOL0     C46904   3.847   4.113   6.020  0.1358  0.6874  0.0187
  348MOL0     C46905   3.723   4.193   5.974 -0.3355 -0.2122  0.3212
  348MOL0     C46906   3.749   4.258   5.837  0.9993 -0.0135 -0.4892
  348MOL0     C46907   3.637   4.338   5.786  0.3789 -0.0518  0.0282
  348MOL0     C46908   3.510   4.255   5.778  0.4455 -0.0625  0.1508
  348MOL0     C46909   3.396   4.203   5.798 -0.3657 -0.1342 -0.1385
  348MOL0     C46910   4.103   4.010   6.105  0.0114  0.3967 -0.6243
  348MOL0     C46911   4.228   3.953   6.137 -0.3197  0.5847  0.3799
  348MOL0     C46912   4.232   3.816   6.200 -0.2812  0.3300 -0.7259
  348MOL0     H46913   4.648   4.263   6.416  0.3994  0.0515  0.3096
  348MOL0     H46914   4.893   4.271   6.479 -1.2675 -0.3880 -0.5497
  348MOL0     H46915   5.181   3.959   6.324  0.4733  0.0476 -1.8896
  348MOL0     H46916   5.195   4.105   6.221  1.7556  0.8121  0.0824
  348MOL0     H46917   5.301   4.082   6.518  1.0229 -1.2354  0.0460
  348MOL0     H46918   5.315   4.215   6.408  0.8473  0.2725 -0.1294
  348MOL0     H46919   5.458   4.128   6.264 -0.7975  1.3612  0.4730
  348MOL0     H46920   5.447   3.961   6.324  0.9121 -1.1772  2.0833
  348MOL0     H46921   5.584   4.183   6.485  2.1225  1.0627 -4.0670
  348MOL0     H46922   5.550   4.015   6.542  3.4155 -0.2275  0.9809
  348MOL0     H46923   5.776   4.017   6.476  0.4141 -2.0990  0.0586
  348MOL0     H46924   5.680   3.928   6.355 -0.2126  1.3725 -4.9259
  348MOL0     H46925   5.724   4.091   6.191  0.4758 -1.4762 -0.9415
  348MOL0     H46926   5.762   4.226   6.306  1.5039  0.0896  0.5032
  348MOL0     H46927   5.929   3.975   6.272  0.1247 -0.1373  0.1898
  348MOL0     H46928   5.958   4.124   6.374 -3.9053  0.6327  1.9384
  348MOL0     H46929   5.924   4.130   6.060 -0.5772  0.0659  0.4021
  348MOL0     H46930   5.969   4.257   6.158  1.1618 -0.0506  2.6446
  348MOL0     H46931   6.220   4.254   6.265 -1.9324  0.0400  1.6927
  348MOL0     H46932   6.467   4.205   6.267 -0.9411  0.8377 -1.1428
  348MOL0     H46933   6.517   4.037   6.232  0.7378 -0.2855 -1.8438
  348MOL0     H46934   6.479   4.272   6.025  3.7041  2.9092 -1.4376
  348MOL0     H46935   6.620   4.255   6.118 -1.1965  1.5626  2.7537
  348MOL0     H46936   6.628   4.174   5.880 -1.4160 -1.5372 -2.1657
  348MOL0     H46937   6.496   4.061   5.920  1.8371 -1.6913 -3.5373
  348MOL0     H46938   6.724   3.958   5.916 -0.0020 -2.4210  1.1867
  348MOL0     H46939   6.657   3.940   6.082  1.0948  0.1378  0.0347
  348MOL0     H46940   6.958   4.136   6.253 -1.9102 -0.3801 -0.6878
  348MOL0     H46941   7.145   4.027   6.335  0.2282 -0.7021  0.2393
  348MOL0     H46942   7.254   3.647   6.462 -0.3060  1.2555 -1.2673
  348MOL0     H46943   7.380   3.486   6.608  2.5215 -2.2146  0.5212
  348MOL0     H46944   7.456   3.261   6.643  0.0846  1.6659 -0.1784
  348MOL0     H46945   7.613   3.181   6.626  1.1314  1.0000 -1.3578
  348MOL0     H46946   7.556   3.474   6.726  0.0565  0.0759 -1.3904
  348MOL0     H46947   7.604   3.341   6.825  1.1318  1.1522  0.4532
  348MOL0     H46948   7.769   3.477   6.611  0.7228 -0.7701  0.0783
  348MOL0     H46949   7.789   3.489   6.787  2.6339 -0.1365 -0.5834
  348MOL0     H46950   7.837   3.240   6.621 -0.1298 -0.2657 -0.3277
  348MOL0     H46951   7.868   3.266   6.796 -1.2154  2.5922  0.1851
  348MOL0     H46952   8.020   3.430   6.768 -5.1304  2.6081 -0.9174
  348MOL0     H46953   8.013   3.435   6.599 -0.1326  3.4194  2.3775
  348MOL0     H46954   8.101   3.200   6.756  1.6603  1.8741  0.5920
  348MOL0     H46955   8.066   3.190   6.579 -0.9848 -0.4393  1.0537
  348MOL0     H46956   8.279   3.382   6.707 -0.1033  0.8952 -1.2761
  348MOL0     H46957   8.244   3.366   6.535 -0.3455  1.1839  1.0177
  348MOL0     H46958   8.375   3.158   6.730  0.7697  1.5796  1.3199
  348MOL0     H46959   8.306   3.117   6.572  0.3616  0.0941  0.1125
  348MOL0     H46960   7.579   3.350   6.254  1.9018  0.7917  1.2757
  348MOL0     H46961   7.479   3.527   6.119  1.0130 -2.6957 -0.0254
  348MOL0     H46962   7.145   3.768   5.996 -0.4142 -0.2929 -0.4780
  348MOL0     H46963   6.945   3.874   5.904 -1.4030 -0.0947  0.0018
  348MOL0     H46964   4.976   3.958   6.199 -1.1653 -3.7802 -0.6406
  348MOL0     H46965   4.746   3.937   6.145  1.4096  1.1059  0.4160
  348MOL0     H46966   4.400   4.242   6.113 -0.5438  1.2107  2.4416
  348MOL0     H46967   4.188   4.323   6.053  0.0092  1.0344  4.8782
  348MOL0     H46968   3.820   4.042   6.098  2.6921 -2.2169 -1.5169
  348MOL0     H46969   3.889   4.042   5.948  4.0053  1.9985  0.7075
  348MOL0     H46970   3.712   4.280   6.040  0.6791  0.1830 -0.0076
  348MOL0     H46971   3.629   4.139   5.966 -0.9378  0.3523  2.7805
  348MOL0     H46972   3.767   4.187   5.755  1.3485  0.6799 -1.0294
  348MOL0     H46973   3.831   4.328   5.855 -0.4489  1.5921  0.1415
  348MOL0     H46974   3.619   4.419   5.858 -1.3821  0.5926 -1.0789
  348MOL0     H46975   3.673   4.373   5.689  3.0294  0.1608  1.0056
  348MOL0     H46976   3.303   4.157   5.824 -1.4305  2.2651  0.4703
  348MOL0     H46977   4.017   3.944   6.109 -0.4877  1.0390 -0.6534
  348MOL0     H46978   4.275   3.815   6.300 -0.8902  1.3822 -0.4379
  348MOL0     H46979   4.130   3.778   6.214 -0.4142 -0.0877 -2.5880
  348MOL0     H46980   4.285   3.744   6.137  1.2399 -0.9284  1.8230
  349MOL0     O46981   8.866   5.950   7.346  0.0255 -0.0254  0.2100
  349MOL0     C46982   8.882   5.885   7.451  0.0000  0.0321 -0.3262
  349MOL0     O46983   8.798   5.793   7.500  0.4261  0.0462  0.1558
  349MOL0     C46984   8.679   5.796   7.439 -0.3840  0.9832 -0.0548
  349MOL0     C46985   8.641   5.691   7.349 -0.3985  0.0547 -0.6094
  349MOL0     C46986   8.512   5.698   7.286 -0.7897 -0.3341 -0.2337
  349MOL0     C46987   8.423   5.804   7.314 -1.3250  0.1609  0.3656
  349MOL0     O46988   8.300   5.816   7.256  0.1040 -0.6386 -0.6531
  349MOL0     C46989   8.202   5.709   7.268  0.1748 -0.1174 -0.3037
  349MOL0     C46990   8.056   5.756   7.294 -0.3059 -0.0789 -0.3413
  349MOL0     C46991   8.060   5.861   7.400  0.3992 -0.5162  0.4701
  349MOL0     C46992   8.100   5.806   7.538 -1.1975  0.3366 -0.2036
  349MOL0     C46993   8.021   5.676   7.576 -0.2849  0.4587 -0.4372
  349MOL0     C46994   8.081   5.626   7.709 -0.0051 -0.8952  0.4082
  349MOL0     C46995   8.054   5.476   7.754 -0.0312 -0.7448  0.6560
  349MOL0     C46996   8.124   5.435   7.878 -0.3678 -0.7774  0.2437
  349MOL0     N46997   8.186   5.303   7.854  0.2504  0.5257 -0.6498
  349MOL0     C46998   8.311   5.280   7.803 -0.6530  0.2846  0.6822
  349MOL0     C46999   8.327   5.144   7.788 -0.6897  0.1709 -0.7606
  349MOL0     C47000   8.445   5.074   7.734  0.4536 -0.4827  0.4400
  349MOL0     C47001   8.562   5.077   7.833 -0.4220 -0.2678  0.7020
  349MOL0     C47002   8.682   5.032   7.747  0.4440 -0.2437 -0.1134
  349MOL0     C47003   8.786   4.948   7.822 -0.7694 -0.3000  0.6903
  349MOL0     O47004   8.807   5.005   7.953  0.3667 -1.2713  0.7016
  349MOL0     C47005   8.928   5.019   8.002  0.0933 -0.8561  0.4452
  349MOL0     C47006   9.019   4.916   8.001 -0.0157  0.8605  0.5317
  349MOL0     C47007   9.145   4.935   8.056 -0.6621 -0.0588 -0.1111
  349MOL0     C47008   9.184   5.060   8.098 -0.0559  0.0375 -0.2054
  349MOL0     C47009   9.332   5.084   8.130 -0.1818 -1.0637 -0.2450
  349MOL0     O47010   9.405   4.986   8.179 -0.0851  0.3110 -0.1472
  349MOL0     C47011   9.535   4.991   8.224 -0.3451 -0.4191  0.3083
  349MOL0     C47012   9.603   4.871   8.235 -0.1269  1.0920  0.3398
  349MOL0     C47013   9.738   4.871   8.281 -0.4938 -0.8402  0.2414
  349MOL0     C47014   9.795   4.991   8.340  0.6192  1.1399  0.4309
  349MOL0     O47015   9.921   4.990   8.396  0.5637  0.0724 -0.3962
  349MOL0     C47016   9.953   5.096   8.486 -0.7138  0.4763 -0.0336
  349MOL0     C47017  10.104   5.095   8.530  0.6476 -0.2319 -0.9158
  349MOL0     C47018  10.154   5.233   8.568 -0.4537  0.5934  0.1605
  349MOL0     C47019  10.311   5.219   8.601  0.0613 -0.7905 -0.3275
  349MOL0     C47020  10.368   5.349   8.654 -0.2320  0.2098  0.3109
  349MOL0     C47021  10.520   5.352   8.625  0.3893 -1.1729  0.4347
  349MOL0     C47022  10.607   5.273   8.720 -0.3466  0.0912 -0.1464
  349MOL0     C47023  10.748   5.299   8.692 -0.1140 -0.0772  0.7228
  349MOL0    Cl47024  10.790   5.467   8.759 -0.1192  0.0444  0.0074
  349MOL0     C47025   9.717   5.107   8.327  0.0866 -0.4093 -0.2479
  349MOL0     C47026   9.594   5.112   8.267 -0.5333 -0.2978 -0.1762
  349MOL0     O47027   9.367   5.198   8.109  0.2024  0.1182 -0.1705
  349MOL0     C47028   9.098   5.168   8.094 -0.0578 -0.2886  0.7667
  349MOL0     C47029   8.971   5.143   8.042 -0.0646  0.0903 -0.0501
  349MOL0     N47030   8.203   5.089   7.830  0.3239  0.2050  0.4187
  349MOL0     N47031   8.121   5.184   7.870  0.2720  0.0117 -0.0916
  349MOL0     C47032   8.459   5.912   7.395 -0.4125 -0.1885  0.1016
  349MOL0     C47033   8.586   5.907   7.454 -0.3625  0.4632 -0.5156
  349MOL0     C47034   9.013   5.889   7.532 -0.4756 -0.6110  0.0198
  349MOL0     C47035   9.030   5.787   7.624 -0.2626  0.5058 -0.1284
  349MOL0     C47036   9.141   5.779   7.702 -1.2819 -0.2588  0.4651
  349MOL0     C47037   9.239   5.876   7.700  0.3034  0.4039  0.0668
  349MOL0     O47038   9.357   5.883   7.765 -0.4464  0.1117  0.5150
  349MOL0     C47039   9.444   5.761   7.759  0.9595  0.1417  0.8984
  349MOL0     C47040   9.530   5.746   7.635 -0.4111 -0.0992  0.1600
  349MOL0     C47041   9.625   5.858   7.628 -0.8281 -0.1353 -0.1800
  349MOL0     C47042   9.741   5.824   7.718 -0.4119  0.0020  0.1927
  349MOL0     C47043   9.820   5.943   7.755  0.8065 -0.2862 -0.3703
  349MOL0     C47044   9.880   6.044   7.787  0.2967 -0.0360  0.4573
  349MOL0     C47045   9.219   5.986   7.617 -0.0569 -0.1765  0.3722
  349MOL0     C47046   9.112   5.991   7.527  0.8363  0.1676  0.0623
  349MOL0     C47047   9.112   6.097   7.417 -0.6608 -1.2603  0.0100
  349MOL0     H47048   8.708   5.608   7.329 -0.4547 -0.0129 -0.5129
  349MOL0     H47049   8.491   5.618   7.215  2.3866 -0.6403 -0.9862
  349MOL0     H47050   8.214   5.641   7.183  1.7422  2.2260 -2.0816
  349MOL0     H47051   8.234   5.648   7.353  1.7264  1.4741  0.3281
  349MOL0     H47052   7.988   5.676   7.325  1.1118 -0.5477  1.7218
  349MOL0     H47053   8.012   5.792   7.200 -0.5457 -2.4933 -1.2390
  349MOL0     H47054   7.958   5.900   7.406 -0.2907 -1.6737 -2.3710
  349MOL0     H47055   8.131   5.940   7.375 -0.7146  0.1238 -0.8466
  349MOL0     H47056   8.207   5.787   7.531 -1.2739  0.1280 -0.7665
  349MOL0     H47057   8.078   5.871   7.623 -1.9909 -0.4749  0.2259
  349MOL0     H47058   7.915   5.703   7.572 -0.6266 -0.8546 -1.2459
  349MOL0     H47059   8.033   5.602   7.495 -0.0040  1.2138 -1.0985
  349MOL0     H47060   8.188   5.645   7.718  0.3275 -3.2948  3.3756
  349MOL0     H47061   8.033   5.689   7.785 -0.7832 -0.7467 -0.1904
  349MOL0     H47062   8.080   5.423   7.662 -1.4189 -0.0245 -0.1832
  349MOL0     H47063   7.946   5.466   7.772 -0.4386 -1.9694 -2.0465
  349MOL0     H47064   8.200   5.508   7.909 -1.3521 -0.1823  1.3169
  349MOL0     H47065   8.059   5.423   7.965 -0.4075  1.6313  0.6135
  349MOL0     H47066   8.390   5.352   7.783 -0.1698 -0.3835  0.1685
  349MOL0     H47067   8.423   4.969   7.711  1.4139 -0.5663 -0.1701
  349MOL0     H47068   8.468   5.134   7.645 -0.8371 -0.4280  0.1294
  349MOL0     H47069   8.589   5.176   7.869  1.2819 -0.5448  0.2978
  349MOL0     H47070   8.557   5.012   7.921  1.7847  0.9299  1.8152
  349MOL0     H47071   8.730   5.126   7.718  0.0292 -0.0745 -0.2580
  349MOL0     H47072   8.653   4.972   7.660  2.1225  0.2964 -1.0957
  349MOL0     H47073   8.871   4.963   7.754 -1.3741  0.7453  0.1423
  349MOL0     H47074   8.755   4.843   7.822  1.3144 -1.0290  2.7927
  349MOL0     H47075   8.985   4.821   7.960 -1.8653  1.6367  0.1483
  349MOL0     H47076   9.215   4.853   8.056  1.0772  1.3491  1.0590
  349MOL0     H47077   9.565   4.772   8.208  2.2617 -0.5766  2.5745
  349MOL0     H47078   9.798   4.780   8.286 -0.8780 -1.0889  0.3565
  349MOL0     H47079   9.938   5.191   8.433 -0.4485  0.6315  0.1703
  349MOL0     H47080   9.884   5.096   8.571  0.5825  0.2140  1.0389
  349MOL0     H47081  10.102   5.039   8.624 -3.2034  2.2510  0.7913
  349MOL0     H47082  10.164   5.045   8.454 -0.0567 -2.1005 -0.3041
  349MOL0     H47083  10.158   5.296   8.479  1.9101 -1.6687 -1.4966
  349MOL0     H47084  10.102   5.278   8.653 -1.5501 -0.0689 -0.1547
  349MOL0     H47085  10.361   5.186   8.509  1.1073 -2.3768  0.7657
  349MOL0     H47086  10.322   5.137   8.673  2.5886 -0.8388 -0.6982
  349MOL0     H47087  10.366   5.354   8.763  1.0016 -0.6463  0.3963
  349MOL0     H47088  10.323   5.435   8.604  1.2073  1.2884  0.8139
  349MOL0     H47089  10.543   5.305   8.529  1.1065 -1.9917  0.9914
  349MOL0     H47090  10.558   5.452   8.601  1.8900 -1.7477  0.2991
  349MOL0     H47091  10.580   5.168   8.713  0.4392 -0.1624  0.5030
  349MOL0     H47092  10.578   5.304   8.821  1.2915  0.1418  0.3302
  349MOL0     H47093  10.808   5.217   8.733 -0.0220 -0.4813 -0.1928
  349MOL0     H47094  10.758   5.302   8.583 -3.7932 -2.7775  0.0774
  349MOL0     H47095   9.760   5.199   8.363  0.5119 -0.8114  0.2922
  349MOL0     H47096   9.548   5.208   8.243  4.1589  2.0259 -1.2267
  349MOL0     H47097   9.118   5.266   8.136  1.2305 -1.2270  2.4560
  349MOL0     H47098   8.895   5.220   8.037  1.4262  1.5585 -1.6028
  349MOL0     H47099   8.394   5.999   7.409 -2.5410 -1.9887  2.3193
  349MOL0     H47100   8.622   5.983   7.523 -2.0725 -0.7081  1.7998
  349MOL0     H47101   8.965   5.701   7.622  1.1935 -0.6233 -0.8466
  349MOL0     H47102   9.143   5.705   7.781  0.1302 -0.3348  0.3793
  349MOL0     H47103   9.377   5.676   7.777 -0.2819  0.9383  0.1811
  349MOL0     H47104   9.514   5.757   7.843  0.8125 -1.5383  0.9839
  349MOL0     H47105   9.467   5.747   7.546  0.6473 -4.3823 -0.8723
  349MOL0     H47106   9.584   5.651   7.631  0.2512  0.2998 -0.6840
  349MOL0     H47107   9.583   5.950   7.667 -0.2199  0.3666 -0.6807
  349MOL0     H47108   9.651   5.875   7.523 -0.4368  1.8570  0.1982
  349MOL0     H47109   9.720   5.782   7.817  0.0371 -0.1934  0.2065
  349MOL0     H47110   9.808   5.755   7.666  2.2781  2.9402 -0.5415
  349MOL0     H47111   9.935   6.135   7.782 -0.6200  0.6115  1.7849
  349MOL0     H47112   9.294   6.064   7.626 -2.1000  1.7623  1.4753
  349MOL0     H47113   9.208   6.147   7.405 -0.4441 -1.4633  0.8342
  349MOL0     H47114   9.095   6.050   7.319 -1.3269  0.7040 -0.8584
  349MOL0     H47115   9.041   6.174   7.447 -0.3626 -1.8692  2.4649
  350MOL0     O47116   0.401   5.453   0.878 -0.1694  0.0306 -0.3364
  350MOL0     C47117   0.358   5.352   0.942  0.0902 -0.2214  0.9102
  350MOL0     O47118   0.424   5.247   0.980  0.5939  1.2445 -0.5908
  350MOL0     C47119   0.554   5.219   0.948  0.3944 -0.6326  0.2290
  350MOL0     C47120   0.600   5.243   0.817  0.0478 -1.3276 -0.2821
  350MOL0     C47121   0.735   5.217   0.798 -0.1080 -0.1566  0.5220
  350MOL0     C47122   0.828   5.198   0.901  0.6170  0.0373  0.0566
  350MOL0     O47123   0.950   5.158   0.881 -0.6766 -0.0071 -0.5083
  350MOL0     C47124   1.024   5.216   0.776 -0.9936 -0.1483  1.2461
  350MOL0     C47125   1.172   5.226   0.810 -0.9894  0.5964 -0.1172
  350MOL0     C47126   1.204   5.322   0.924  0.9848 -0.1953 -0.1824
  350MOL0     C47127   1.353   5.345   0.953  0.1986  0.8682  1.0889
  350MOL0     C47128   1.381   5.447   1.060 -0.8825 -0.0878 -0.4422
  350MOL0     C47129   1.537   5.456   1.082  0.2613  0.3863 -0.1218
  350MOL0     C47130   1.570   5.589   1.154 -0.2652 -0.1881  0.4003
  350MOL0     C47131   1.704   5.566   1.232  0.2151 -0.1285 -0.3232
  350MOL0     N47132   1.763   5.702   1.248  0.3218 -1.3005 -0.7205
  350MOL0     C47133   1.810   5.789   1.153  0.9423  0.4988  0.6472
  350MOL0     C47134   1.878   5.883   1.215 -0.0361 -0.4636 -0.3780
  350MOL0     C47135   1.943   6.002   1.148 -0.7570 -0.7974 -0.7554
  350MOL0     C47136   2.091   6.014   1.184 -0.2079  0.3373 -0.2931
  350MOL0     C47137   2.168   6.107   1.090 -0.3327 -0.5651 -0.0992
  350MOL0     C47138   2.308   6.133   1.137 -0.5198  0.1359 -0.0693
  350MOL0     O47139   2.401   6.020   1.130  0.2818  0.0346  0.2193
  350MOL0     C47140   2.535   6.039   1.158 -0.2609  0.1506 -0.0459
  350MOL0     C47141   2.616   5.928   1.146  0.2239 -0.0003  0.1061
  350MOL0     C47142   2.757   5.939   1.147  0.2828 -0.8753  0.0874
  350MOL0     C47143   2.815   6.063   1.186  0.0897 -0.2255 -0.0196
  350MOL0     C47144   2.961   6.078   1.201 -0.0038  1.4261 -0.5201
  350MOL0     O47145   3.042   5.963   1.199 -0.0778  0.0812 -0.4365
  350MOL0     C47146   3.176   5.962   1.166  0.2278  0.3354  0.2745
  350MOL0     C47147   3.224   5.878   1.061 -0.0632  0.5384  0.7367
  350MOL0     C47148   3.353   5.886   1.016  0.4390 -0.2031  0.1251
  350MOL0     C47149   3.443   5.954   1.099  0.5321 -0.6326 -0.5398
  350MOL0     O47150   3.579   5.941   1.065  0.2377  0.3724 -0.0381
  350MOL0     C47151   3.653   5.876   1.168  0.1698 -0.2204 -0.4660
  350MOL0     C47152   3.760   5.791   1.099 -0.8053 -1.1476 -0.8679
  350MOL0     C47153   3.851   5.746   1.218 -0.8122  0.2216 -0.0967
  350MOL0     C47154   3.977   5.828   1.219 -0.3620  0.8534 -0.1253
  350MOL0     C47155   4.073   5.760   1.321 -0.1778 -0.0967  0.2071
  350MOL0     C47156   4.202   5.839   1.319 -0.5016  0.0040 -0.5125
  350MOL0     C47157   4.286   5.786   1.212 -0.7854  0.6075  0.1193
  350MOL0     C47158   4.445   5.786   1.237  0.7381  0.0964  0.5694
  350MOL0    Cl47159   4.499   5.637   1.311 -0.1743 -0.2665 -0.4254
  350MOL0     C47160   3.401   6.024   1.209  0.0603 -0.1806  0.5762
  350MOL0     C47161   3.268   6.029   1.245 -0.3475 -0.0750 -0.0278
  350MOL0     O47162   3.001   6.192   1.214 -0.0934 -0.4717  0.1039
  350MOL0     C47163   2.732   6.175   1.203  0.1337  0.0546  0.0364
  350MOL0     C47164   2.597   6.164   1.192  0.7247 -0.1151  0.3888
  350MOL0     N47165   1.869   5.859   1.352  0.1799  1.0096  0.1484
  350MOL0     N47166   1.802   5.743   1.368 -0.4656 -0.4378 -0.2268
  350MOL0     C47167   0.782   5.188   1.028  0.4084 -0.3912  1.2775
  350MOL0     C47168   0.645   5.192   1.052  0.5756 -0.5159  0.7128
  350MOL0     C47169   0.215   5.346   0.962 -0.5180  0.2294 -0.1254
  350MOL0     C47170   0.141   5.462   0.979 -0.4112  0.1387  0.4644
  350MOL0     C47171   0.007   5.470   1.005  0.0991  0.5073 -0.3271
  350MOL0     C47172  -0.066   5.364   1.036  0.4639 -0.5080 -0.4599
  350MOL0     O47173  -0.194   5.397   1.071  0.3481 -0.1019 -0.4343
  350MOL0     C47174  -0.293   5.299   1.112  0.2020 -0.4582  0.2545
  350MOL0     C47175  -0.426   5.388   1.111  0.7775 -0.2321 -0.0906
  350MOL0     C47176  -0.551   5.299   1.116 -0.9954  0.3538 -0.1354
  350MOL0     C47177  -0.689   5.367   1.101 -0.3251  0.6020 -0.0912
  350MOL0     C47178  -0.673   5.484   1.014  0.7093  0.9706  0.1180
  350MOL0     C47179  -0.664   5.570   0.924  0.1368  0.0859  0.6853
  350MOL0     C47180   0.001   5.242   1.019 -0.1203 -0.0540  0.6172
  350MOL0     C47181   0.135   5.230   0.976 -0.2953  0.2304  0.5517
  350MOL0     C47182   0.190   5.089   0.954  0.8747 -0.6291 -0.4976
  350MOL0     H47183   0.533   5.276   0.739 -1.0217 -0.7186  0.8500
  350MOL0     H47184   0.775   5.216   0.697  0.0713 -0.0398  0.5901
  350MOL0     H47185   1.014   5.150   0.690  1.1778 -1.7845  2.1579
  350MOL0     H47186   0.988   5.316   0.753  2.6656  0.5287 -2.8544
  350MOL0     H47187   1.215   5.273   0.721 -2.1384 -1.2520 -1.7285
  350MOL0     H47188   1.225   5.132   0.824  0.1405  0.9156 -1.8922
  350MOL0     H47189   1.155   5.300   1.019 -2.1755 -1.7287 -2.0216
  350MOL0     H47190   1.158   5.409   0.875 -0.1381  0.0076  1.1598
  350MOL0     H47191   1.404   5.253   0.982  1.1504  1.4880  1.4548
  350MOL0     H47192   1.397   5.389   0.863  0.1939  2.5414  1.8664
  350MOL0     H47193   1.351   5.546   1.024  0.5822 -0.4466 -2.9167
  350MOL0     H47194   1.330   5.417   1.152 -2.6552  0.1353 -1.3091
  350MOL0     H47195   1.567   5.372   1.145  1.2459  0.6849 -0.1719
  350MOL0     H47196   1.588   5.457   0.985 -2.7961 -0.0835 -1.8852
  350MOL0     H47197   1.490   5.615   1.223 -2.1747 -1.0307 -1.4021
  350MOL0     H47198   1.580   5.667   1.077  1.0672 -0.3265  0.4011
  350MOL0     H47199   1.686   5.517   1.328  2.9658 -1.3554 -0.3380
  350MOL0     H47200   1.767   5.500   1.170  0.6206 -1.4673  1.4262
  350MOL0     H47201   1.775   5.788   1.050 -2.7412  0.4460  1.7667
  350MOL0     H47202   1.931   6.005   1.040  2.3639  1.4215 -1.1780
  350MOL0     H47203   1.882   6.088   1.178 -1.0818 -1.1103 -0.4943
  350MOL0     H47204   2.089   6.063   1.282 -1.1085  0.3961 -0.3365
  350MOL0     H47205   2.144   5.918   1.187  0.6217  0.7502 -1.2956
  350MOL0     H47206   2.113   6.202   1.089 -1.6506 -1.2832  1.0352
  350MOL0     H47207   2.169   6.077   0.984  0.9823  1.2439 -0.6521
  350MOL0     H47208   2.303   6.158   1.243  0.0288 -0.4856  0.1103
  350MOL0     H47209   2.361   6.212   1.084  0.9771 -0.4889  0.4509
  350MOL0     H47210   2.563   5.843   1.104  0.6450 -0.7139  0.9803
  350MOL0     H47211   2.812   5.847   1.132  0.3614 -0.9891  1.0339
  350MOL0     H47212   3.149   5.824   1.005  0.2256  0.5151  0.3655
  350MOL0     H47213   3.382   5.828   0.929 -1.5985 -0.1191 -0.6579
  350MOL0     H47214   3.700   5.956   1.225 -0.7716  1.4251 -1.9110
  350MOL0     H47215   3.583   5.825   1.235  0.2376 -0.9531 -0.9374
  350MOL0     H47216   3.701   5.703   1.072 -1.9569 -1.1293  1.3267
  350MOL0     H47217   3.812   5.854   1.027  3.3127  0.7757  3.2488
  350MOL0     H47218   3.800   5.761   1.314  0.6223  0.2897  0.6966
  350MOL0     H47219   3.873   5.639   1.216 -1.4960  0.0904 -0.6066
  350MOL0     H47220   3.950   5.931   1.245 -3.8169  0.3111 -1.0455
  350MOL0     H47221   4.026   5.821   1.121  0.9135  1.5901  0.4413
  350MOL0     H47222   4.089   5.654   1.301  0.0387 -0.2631  1.2067
  350MOL0     H47223   4.027   5.774   1.419 -0.6931  1.1583 -0.1895
  350MOL0     H47224   4.177   5.941   1.288 -2.4409 -0.2080  0.1827
  350MOL0     H47225   4.256   5.842   1.414 -0.7417 -1.1719 -0.3226
  350MOL0     H47226   4.262   5.840   1.120 -0.9652 -3.9712 -2.8355
  350MOL0     H47227   4.254   5.683   1.197  1.4663 -0.0883 -0.3582
  350MOL0     H47228   4.496   5.785   1.141 -1.4697 -0.8563 -0.6611
  350MOL0     H47229   4.472   5.876   1.293  0.2575 -0.4529  1.7370
  350MOL0     H47230   3.474   6.057   1.281  0.7472  1.1051 -0.6710
  350MOL0     H47231   3.229   6.083   1.331 -0.3875 -1.8430  1.1237
  350MOL0     H47232   2.789   6.264   1.229  1.0773 -1.1023  2.1899
  350MOL0     H47233   2.527   6.243   1.221  0.4915 -0.5259  0.9628
  350MOL0     H47234   0.856   5.165   1.103  0.4236 -1.6512  0.8923
  350MOL0     H47235   0.603   5.165   1.149 -0.4615 -1.8592 -0.0858
  350MOL0     H47236   0.202   5.551   0.968  1.0780 -0.7594  1.2861
  350MOL0     H47237  -0.042   5.565   1.023 -3.3286 -0.9326 -1.2118
  350MOL0     H47238  -0.289   5.264   1.216  1.4187  0.9405  0.7170
  350MOL0     H47239  -0.294   5.214   1.043 -0.0192  1.1894 -1.8637
  350MOL0     H47240  -0.416   5.446   1.018 -1.8876 -2.2038 -1.7479
  350MOL0     H47241  -0.418   5.457   1.195  3.0957  0.5192 -0.8400
  350MOL0     H47242  -0.554   5.256   1.217  0.9358 -0.9041 -0.5579
  350MOL0     H47243  -0.538   5.221   1.041 -0.7242 -1.6602  1.8966
  350MOL0     H47244  -0.764   5.301   1.057  0.6913  1.3090 -3.1539
  350MOL0     H47245  -0.741   5.393   1.193 -3.2674  2.6891 -2.1540
  350MOL0     H47246  -0.664   5.635   0.839 -0.7037  0.1598  0.7252
  350MOL0     H47247  -0.058   5.152   1.034  0.6195 -1.4324 -3.5576
  350MOL0     H47248   0.111   5.039   0.897 -0.8750 -1.0372  2.1340
  350MOL0     H47249   0.282   5.085   0.894  1.3629 -3.2123  0.2700
  350MOL0     H47250   0.204   5.047   1.054 -0.5662  0.4455  0.1912
  351MOL0     O47251  11.012   9.922   3.580 -0.4970  1.0624 -0.2898
  351MOL0     C47252  10.966  10.031   3.558 -0.8717  0.1881  0.1723
  351MOL0     O47253  11.015  10.113   3.468  0.3450 -0.0776 -0.1576
  351MOL0     C47254  11.140  10.081   3.412  0.2879 -0.1717 -0.2407
  351MOL0     C47255  11.250  10.050   3.484  0.0035 -0.7897  0.0533
  351MOL0     C47256  11.380  10.018   3.427  0.0456 -1.3492  0.4573
  351MOL0     C47257  11.395  10.025   3.288  0.1344  0.4879  0.6239
  351MOL0     O47258  11.516  10.007   3.235 -0.2595  1.1885  0.4980
  351MOL0     C47259  11.547  10.016   3.094 -0.5894  0.4553 -0.2417
  351MOL0     C47260  11.689  10.030   3.049 -0.3122  0.0037 -0.1601
  351MOL0     C47261  11.765   9.900   3.074 -0.2503 -0.2378  0.0238
  351MOL0     C47262  11.914   9.931   3.057  0.3017 -0.9374  0.8918
  351MOL0     C47263  11.998   9.816   3.094  0.3450  0.0073 -1.2331
  351MOL0     C47264  12.145   9.850   3.087  0.2884  0.7841 -0.5931
  351MOL0     C47265  12.224   9.743   3.164 -0.8092 -0.8111 -0.3335
  351MOL0     C47266  12.371   9.768   3.159 -0.3286 -0.2599  0.3653
  351MOL0     N47267  12.443   9.718   3.037  0.1050 -0.0520  0.7197
  351MOL0     C47268  12.517   9.795   2.949  0.6797 -0.0556 -1.0577
  351MOL0     C47269  12.600   9.711   2.897 -0.4391  0.0737 -0.4251
  351MOL0     C47270  12.711   9.754   2.802  0.0508 -0.6122  0.2777
  351MOL0     C47271  12.853   9.707   2.844  0.3376  0.1912  0.0044
  351MOL0     C47272  12.893   9.718   2.990  0.1364  0.5141  0.6820
  351MOL0     C47273  13.043   9.702   3.023 -0.2654 -0.0739  0.3895
  351MOL0     O47274  13.106   9.807   2.943 -0.5405  0.8261 -0.3723
  351MOL0     C47275  13.210   9.863   2.995 -0.3007  0.2989 -0.1360
  351MOL0     C47276  13.315   9.785   3.066  0.7206  0.0424 -0.4235
  351MOL0     C47277  13.421   9.857   3.126 -0.0627 -0.2496  0.0007
  351MOL0     C47278  13.419   9.991   3.127 -0.6185 -0.1718 -0.6515
  351MOL0     C47279  13.547  10.059   3.175  0.6188 -0.0888  0.1131
  351MOL0     O47280  13.536  10.193   3.187 -0.5364 -0.7383  0.4205
  351MOL0     C47281  13.650  10.271   3.187  0.4133 -0.2802 -0.1893
  351MOL0     C47282  13.768  10.236   3.124 -0.0975  0.5437  0.3474
  351MOL0     C47283  13.877  10.315   3.134  0.0074 -0.4902 -0.3486
  351MOL0     C47284  13.872  10.446   3.185 -0.3995 -0.3382 -0.0014
  351MOL0     O47285  13.981  10.526   3.195 -1.0129 -0.4783 -0.4424
  351MOL0     C47286  14.108  10.458   3.243 -0.4583 -0.2224  0.4044
  351MOL0     C47287  14.226  10.559   3.238 -0.0344  0.6202 -0.5842
  351MOL0     C47288  14.356  10.490   3.265 -0.7181 -0.0923 -0.6054
  351MOL0     C47289  14.469  10.588   3.243  1.1629  0.2394 -0.1901
  351MOL0     C47290  14.588  10.503   3.218 -0.4640  0.2259 -0.1312
  351MOL0     C47291  14.722  10.570   3.264 -0.4133  0.3040 -0.0213
  351MOL0     C47292  14.840  10.492   3.201  0.2258  0.7591 -0.5269
  351MOL0     C47293  14.967  10.528   3.268 -0.4030 -0.5299 -0.3576
  351MOL0    Cl47294  15.101  10.471   3.166 -0.1923  0.0835 -0.0521
  351MOL0     C47295  13.750  10.490   3.251  0.1674  0.8932  0.1137
  351MOL0     C47296  13.641  10.398   3.251 -0.0825  0.0159 -0.2650
  351MOL0     O47297  13.647   9.996   3.203 -1.2584 -0.1823 -0.5718
  351MOL0     C47298  13.322  10.063   3.049 -0.5836  0.5100  0.3012
  351MOL0     C47299  13.216  10.003   2.984  0.5746 -0.3820 -0.2074
  351MOL0     N47300  12.571   9.583   2.942 -0.6863  0.9648  0.6375
  351MOL0     N47301  12.481   9.589   3.023  0.3163  0.8079 -0.3790
  351MOL0     C47302  11.283  10.053   3.213 -0.3733  0.5804  0.0457
  351MOL0     C47303  11.159  10.080   3.273 -0.7710  0.1845  0.2659
  351MOL0     C47304  10.844  10.067   3.629 -0.1446 -0.4777  0.2098
  351MOL0     C47305  10.736  10.113   3.558  0.2090  0.1890 -0.0259
  351MOL0     C47306  10.613  10.143   3.616 -0.0260 -0.1165 -0.0750
  351MOL0     C47307  10.592  10.130   3.753 -0.6327  0.5023  0.1959
  351MOL0     O47308  10.468  10.165   3.797 -0.3260 -0.6304 -0.4596
  351MOL0     C47309  10.458  10.166   3.944  0.5303 -0.9025  0.1220
  351MOL0     C47310  10.324  10.221   3.985  0.8790  0.4433  0.5723
  351MOL0     C47311  10.319  10.372   3.969 -0.0287  0.9372 -0.3685
  351MOL0     C47312  10.176  10.427   3.964  0.7980  0.3192 -0.1316
  351MOL0     C47313  10.105  10.456   4.090  0.4020  0.0736 -0.1973
  351MOL0     C47314  10.030  10.491   4.178 -0.1489  0.7288 -0.0878
  351MOL0     C47315  10.693  10.081   3.830  0.2018 -0.2121 -0.0443
  351MOL0     C47316  10.818  10.047   3.772 -0.1287  0.1140 -0.4224
  351MOL0     C47317  10.926  10.009   3.870 -0.4873 -0.4315 -0.7898
  351MOL0     H47318  11.242  10.052   3.593 -2.5376 -0.0139 -0.0831
  351MOL0     H47319  11.465   9.991   3.489 -0.4465  0.4130  1.9908
  351MOL0     H47320  11.512   9.926   3.044  0.4581 -0.2198  0.2130
  351MOL0     H47321  11.501  10.106   3.052 -2.8858 -1.1528 -1.3720
  351MOL0     H47322  11.735  10.117   3.095  1.2126 -0.4666 -0.7117
  351MOL0     H47323  11.689  10.066   2.945 -0.8325  1.2102  0.2440
  351MOL0     H47324  11.740   9.818   3.006  2.3036  0.0008 -1.3434
  351MOL0     H47325  11.753   9.868   3.177 -0.3428 -1.3626 -0.3199
  351MOL0     H47326  11.935   9.955   2.952  0.9544 -1.0808  0.9828
  351MOL0     H47327  11.944  10.021   3.112  0.3301  1.7310 -3.0271
  351MOL0     H47328  11.973   9.793   3.198  0.3870 -1.2647 -1.4917
  351MOL0     H47329  11.964   9.729   3.037 -3.9367  0.8610 -0.3208
  351MOL0     H47330  12.183   9.844   2.985 -1.1845 -0.0725 -1.1247
  351MOL0     H47331  12.167   9.948   3.130 -0.6874  0.2601  1.1912
  351MOL0     H47332  12.219   9.645   3.115 -0.9086 -1.5306  1.0706
  351MOL0     H47333  12.197   9.738   3.270 -1.5713 -2.2037 -0.5725
  351MOL0     H47334  12.381   9.877   3.165 -3.5353  0.2733 -1.3093
  351MOL0     H47335  12.428   9.713   3.234 -1.0200  1.1381  1.9852
  351MOL0     H47336  12.502   9.898   2.921 -0.3937  0.5893  1.5520
  351MOL0     H47337  12.686   9.709   2.705  2.1377  1.4147 -1.3377
  351MOL0     H47338  12.724   9.863   2.797  3.7309 -0.8418  1.4382
  351MOL0     H47339  12.857   9.597   2.843  0.4305  0.1994 -0.3617
  351MOL0     H47340  12.928   9.749   2.776 -0.5991 -0.7035 -1.6458
  351MOL0     H47341  12.830   9.645   3.041 -2.8015  2.5145  0.1773
  351MOL0     H47342  12.864   9.815   3.030 -1.9309  0.3132 -0.2240
  351MOL0     H47343  13.078   9.602   2.996  0.4678 -0.1578  1.5861
  351MOL0     H47344  13.043   9.720   3.131 -1.2607  0.5846  0.2926
  351MOL0     H47345  13.307   9.678   3.080 -0.5226  0.3025  1.1523
  351MOL0     H47346  13.507   9.810   3.172 -0.0967 -0.7659 -0.4543
  351MOL0     H47347  13.771  10.139   3.075 -1.6210  0.5599  0.1813
  351MOL0     H47348  13.964  10.278   3.081 -0.5423 -0.7454 -1.0885
  351MOL0     H47349  14.096  10.417   3.343  0.7559 -1.3400  0.1116
  351MOL0     H47350  14.130  10.381   3.168  2.3702 -0.7266  1.6275
  351MOL0     H47351  14.224  10.605   3.139 -0.0828  0.3741 -0.6974
  351MOL0     H47352  14.217  10.640   3.311 -1.9390  2.0926 -2.3368
  351MOL0     H47353  14.370  10.441   3.362  0.4328 -2.4838 -1.8733
  351MOL0     H47354  14.365  10.417   3.184 -0.6616  0.9890 -1.6011
  351MOL0     H47355  14.478  10.655   3.328  0.3241 -0.9903  0.8996
  351MOL0     H47356  14.448  10.652   3.156  3.2479 -1.5051 -2.0962
  351MOL0     H47357  14.598  10.471   3.113  1.3240  1.3942 -0.3599
  351MOL0     H47358  14.578  10.414   3.280 -0.4172  1.3914  1.6256
  351MOL0     H47359  14.729  10.677   3.243  0.4076  0.4509  0.9045
  351MOL0     H47360  14.747  10.556   3.369  2.3683 -1.0599 -0.7646
  351MOL0     H47361  14.836  10.507   3.093 -1.1156 -0.9911 -0.7651
  351MOL0     H47362  14.827  10.384   3.215 -0.6036  0.9824  0.5695
  351MOL0     H47363  14.972  10.637   3.268  2.9462 -0.5902 -1.6163
  351MOL0     H47364  14.989  10.484   3.367  1.5044  0.2215 -0.4056
  351MOL0     H47365  13.745  10.593   3.282 -0.4301  0.4535  1.5540
  351MOL0     H47366  13.549  10.429   3.300  0.2327  2.5481 -1.1449
  351MOL0     H47367  13.335  10.171   3.046 -1.6398  0.6403 -0.0414
  351MOL0     H47368  13.168  10.066   2.910  1.9616 -1.5232 -2.2021
  351MOL0     H47369  11.282  10.056   3.104 -1.4630  1.2850  0.0555
  351MOL0     H47370  11.083  10.101   3.199  0.1036 -1.7541 -1.2828
  351MOL0     H47371  10.761  10.136   3.455  1.6845  1.3482  0.5535
  351MOL0     H47372  10.539  10.189   3.551 -0.1862 -1.8814 -1.2001
  351MOL0     H47373  10.536  10.219   3.999  1.8030  0.4781 -2.7635
  351MOL0     H47374  10.450  10.064   3.982  0.2441 -0.4542  1.2910
  351MOL0     H47375  10.301  10.188   4.086 -1.1124  0.9359  0.3227
  351MOL0     H47376  10.242  10.175   3.930  0.6583  1.3297  0.1355
  351MOL0     H47377  10.381  10.403   3.884  1.0358 -0.2455 -0.0589
  351MOL0     H47378  10.364  10.413   4.060 -2.9816 -0.7449  2.0212
  351MOL0     H47379  10.186  10.524   3.914 -0.6897 -0.2944 -1.7143
  351MOL0     H47380  10.115  10.361   3.903  1.6320 -0.6388  0.0455
  351MOL0     H47381   9.970  10.524   4.260 -0.5513  2.8509 -1.1623
  351MOL0     H47382  10.682  10.082   3.938 -1.8007  1.7883 -0.1856
  351MOL0     H47383  10.912   9.905   3.902  0.3339  0.2135  2.0060
  351MOL0     H47384  11.025  10.038   3.835 -0.2674  2.1713  1.6554
  351MOL0     H47385  10.916  10.066   3.963 -0.7823 -2.9399  0.8318
  352MOL0     O47386   7.131   0.439  10.632 -0.5460  0.4606 -0.0974
  352MOL0     C47387   7.060   0.434  10.539 -0.2053  0.3499 -0.1626
  352MOL0     O47388   7.100   0.401  10.409 -0.3855  0.6298 -0.2239
  352MOL0     C47389   7.240   0.409  10.382  0.0877  0.6619  0.1188
  352MOL0     C47390   7.314   0.524  10.402 -0.4348  0.1490  0.0005
  352MOL0     C47391   7.434   0.538  10.348  0.2929 -0.7543  0.0352
  352MOL0     C47392   7.486   0.429  10.269 -0.0570  0.6603  0.2821
  352MOL0     O47393   7.611   0.444  10.217 -1.1633 -0.3782 -0.1238
  352MOL0     C47394   7.689   0.329  10.212 -0.1091 -0.2438  0.7394
  352MOL0     C47395   7.842   0.345  10.199 -0.7370 -0.5509 -0.3630
  352MOL0     C47396   7.892   0.429  10.078  0.2561 -0.4262 -0.7142
  352MOL0     C47397   8.022   0.499  10.122 -1.1305  0.4933 -1.3520
  352MOL0     C47398   8.084   0.545   9.995 -0.0582 -0.0277  0.2325
  352MOL0     C47399   8.203   0.627  10.035 -0.2606  0.2381 -0.6109
  352MOL0     C47400   8.316   0.623   9.926 -0.0608  0.5203 -0.3137
  352MOL0     C47401   8.432   0.704   9.976 -0.6039 -0.7570  0.4784
  352MOL0     N47402   8.541   0.706   9.879 -0.7707 -0.1655 -0.0302
  352MOL0     C47403   8.635   0.607   9.876 -0.0150  0.1498  0.0822
  352MOL0     C47404   8.729   0.661   9.783 -0.6359  0.6947 -0.3078
  352MOL0     C47405   8.852   0.590   9.746  0.4214  0.2139 -0.6767
  352MOL0     C47406   8.893   0.614   9.598 -0.1735  0.4661 -0.0222
  352MOL0     C47407   9.032   0.562   9.558 -0.2495 -0.8123 -0.0675
  352MOL0     C47408   9.048   0.570   9.405  0.7386 -0.4649 -0.6452
  352MOL0     O47409   9.054   0.709   9.360  0.6320  0.0666 -0.1513
  352MOL0     C47410   9.096   0.742   9.234  0.6770  0.7336 -0.3428
  352MOL0     C47411   9.088   0.876   9.200  0.1252  0.6504 -0.4507
  352MOL0     C47412   9.137   0.928   9.083 -0.2424  0.1272  1.2388
  352MOL0     C47413   9.184   0.838   8.984  0.8494  0.9513  0.2605
  352MOL0     C47414   9.230   0.884   8.852  0.0631  0.3371 -0.3844
  352MOL0     O47415   9.207   1.019   8.831 -0.1772 -0.3081 -0.6533
  352MOL0     C47416   9.263   1.082   8.721 -0.2171 -0.1230  0.6147
  352MOL0     C47417   9.393   1.055   8.684  0.2107 -0.2079  0.6700
  352MOL0     C47418   9.449   1.115   8.574 -0.9410  0.8196 -0.1404
  352MOL0     C47419   9.375   1.199   8.491 -0.4733 -0.4859 -0.4916
  352MOL0     O47420   9.424   1.256   8.380 -0.3720 -0.6586 -0.5361
  352MOL0     C47421   9.552   1.216   8.319  0.0207  0.9108 -0.4837
  352MOL0     C47422   9.574   1.283   8.181  0.0114  0.5023  0.5763
  352MOL0     C47423   9.490   1.407   8.162  0.4439  0.2960 -0.0745
  352MOL0     C47424   9.487   1.448   8.016 -0.0388  0.1597  0.7712
  352MOL0     C47425   9.461   1.599   8.005  0.2397 -0.4204  0.5263
  352MOL0     C47426   9.458   1.624   7.852 -0.1215  0.0610  0.0571
  352MOL0     C47427   9.396   1.760   7.812  0.1537  0.2696  0.7050
  352MOL0     C47428   9.480   1.881   7.841 -0.2680 -0.5308  0.2595
  352MOL0    Cl47429   9.592   1.929   7.722 -0.6842 -0.3328 -0.2207
  352MOL0     C47430   9.246   1.226   8.529  1.3384 -0.5864 -1.0158
  352MOL0     C47431   9.183   1.171   8.647  0.0388  0.0128  0.3655
  352MOL0     O47432   9.284   0.804   8.773 -0.1786  0.1394 -0.3515
  352MOL0     C47433   9.188   0.699   9.017 -0.0649  0.7763  1.4099
  352MOL0     C47434   9.142   0.652   9.140  0.3539  0.2029 -0.1429
  352MOL0     N47435   8.679   0.777   9.731  0.4372 -0.2163  0.1533
  352MOL0     N47436   8.568   0.807   9.789 -0.2337  0.4364 -0.1540
  352MOL0     C47437   7.415   0.309  10.262  0.3945 -0.7303 -0.0363
  352MOL0     C47438   7.289   0.300  10.310  0.4287 -0.0896 -0.5617
  352MOL0     C47439   6.918   0.468  10.568  0.9583  0.1425  0.2645
  352MOL0     C47440   6.866   0.432  10.687  0.8268  0.7981  0.1090
  352MOL0     C47441   6.732   0.453  10.717 -0.1575 -0.8129 -0.2451
  352MOL0     C47442   6.643   0.507  10.623 -0.0436  0.3320  0.5310
  352MOL0     O47443   6.511   0.522  10.660 -0.4222 -0.0530 -0.0756
  352MOL0     C47444   6.420   0.605  10.585  0.5008 -0.0192 -0.6484
  352MOL0     C47445   6.331   0.530  10.485 -0.4035  0.4086  0.1117
  352MOL0     C47446   6.251   0.415  10.561 -0.8407 -0.3621  0.2361
  352MOL0     C47447   6.106   0.462  10.588  0.5738  0.8378 -0.3516
  352MOL0     C47448   6.029   0.428  10.472  0.2351 -0.9815  0.2737
  352MOL0     C47449   5.969   0.401  10.370  0.1367 -0.4419  0.7191
  352MOL0     C47450   6.691   0.535  10.500 -0.4314 -0.7494 -0.3733
  352MOL0     C47451   6.828   0.527  10.473 -0.2424 -0.0214  0.0802
  352MOL0     C47452   6.884   0.573  10.335 -0.4492 -1.2889  1.0997
  352MOL0     H47453   7.271   0.609  10.454  1.5777  1.4641 -0.3638
  352MOL0     H47454   7.481   0.636  10.356  0.5158 -0.6278 -2.3316
  352MOL0     H47455   7.683   0.279  10.309 -0.8736  2.5050  2.2291
  352MOL0     H47456   7.654   0.257  10.138  2.4146 -1.8439  0.9954
  352MOL0     H47457   7.880   0.243  10.192  0.8510 -0.2059  1.8803
  352MOL0     H47458   7.883   0.386  10.293  0.7495 -3.0292  0.1719
  352MOL0     H47459   7.833   0.517  10.050 -0.0285 -0.6136 -0.7031
  352MOL0     H47460   7.916   0.370   9.989 -1.7536  0.4842 -1.9460
  352MOL0     H47461   8.004   0.575  10.198  0.4149  0.4743 -0.9278
  352MOL0     H47462   8.082   0.422  10.171 -1.8955  0.0978 -1.0230
  352MOL0     H47463   8.108   0.459   9.931 -1.4098 -1.9237  2.1286
  352MOL0     H47464   8.015   0.599   9.929  1.7068  1.6453 -0.3327
  352MOL0     H47465   8.182   0.731  10.061  1.8898  0.4748  0.3795
  352MOL0     H47466   8.252   0.591  10.126  5.1395  2.9977 -1.9906
  352MOL0     H47467   8.286   0.670   9.832  2.1099  3.1406  0.2138
  352MOL0     H47468   8.348   0.519   9.914  1.0689  0.8670 -0.4406
  352MOL0     H47469   8.415   0.808  10.005 -0.0318 -0.1138 -1.3755
  352MOL0     H47470   8.472   0.657  10.067 -1.0342 -0.5913  0.7576
  352MOL0     H47471   8.643   0.519   9.939 -0.4444  0.5331  0.6787
  352MOL0     H47472   8.926   0.627   9.817 -1.1077 -0.2611  1.2539
  352MOL0     H47473   8.833   0.487   9.777  0.5817  0.4795  0.3227
  352MOL0     H47474   8.819   0.566   9.533  0.6150 -0.8495  0.0123
  352MOL0     H47475   8.876   0.721   9.585 -1.9914  0.7546  3.4444
  352MOL0     H47476   9.039   0.456   9.586 -1.8532 -0.6775  0.9542
  352MOL0     H47477   9.114   0.618   9.603  1.0414 -2.6515 -0.0283
  352MOL0     H47478   8.959   0.523   9.363  0.6437 -0.1069 -0.8461
  352MOL0     H47479   9.139   0.511   9.391  2.0812  0.6178  2.5903
  352MOL0     H47480   9.037   0.941   9.271 -1.5532  0.1327 -1.1320
  352MOL0     H47481   9.141   1.036   9.079  0.8291  0.0690  0.3139
  352MOL0     H47482   9.446   0.978   8.740  1.3275 -1.1344 -1.5294
  352MOL0     H47483   9.553   1.090   8.554 -0.2996  4.1269 -1.5481
  352MOL0     H47484   9.643   1.240   8.375 -1.2797  0.0068  2.2052
  352MOL0     H47485   9.557   1.108   8.304  2.5004  0.7998  0.7341
  352MOL0     H47486   9.678   1.314   8.171  1.1279 -3.3865 -2.0260
  352MOL0     H47487   9.557   1.205   8.106 -1.4663  0.2171  1.1778
  352MOL0     H47488   9.386   1.402   8.194 -0.0340  0.9908 -1.4343
  352MOL0     H47489   9.534   1.484   8.225  0.1615  1.0268 -0.7563
  352MOL0     H47490   9.406   1.397   7.964  1.2799 -0.8460 -0.3968
  352MOL0     H47491   9.575   1.413   7.959 -0.8622  0.9264 -1.0547
  352MOL0     H47492   9.530   1.666   8.057 -1.0250  1.1191  0.2935
  352MOL0     H47493   9.361   1.623   8.043  0.1340  4.4905 -2.0241
  352MOL0     H47494   9.559   1.622   7.811  0.1447 -0.2816  0.7161
  352MOL0     H47495   9.395   1.553   7.796 -0.0615 -1.3304  1.6480
  352MOL0     H47496   9.301   1.768   7.864  0.7887  1.6052  1.7207
  352MOL0     H47497   9.372   1.748   7.706  0.4986 -2.2827  0.8500
  352MOL0     H47498   9.415   1.969   7.842  0.3310  0.1349 -3.3285
  352MOL0     H47499   9.518   1.866   7.942 -4.2625  1.2925  2.2558
  352MOL0     H47500   9.188   1.294   8.466  3.1341  1.6897 -0.3697
  352MOL0     H47501   9.081   1.194   8.677  0.1621  0.1783  0.6513
  352MOL0     H47502   9.211   0.619   8.947 -1.7443 -0.7121  2.4553
  352MOL0     H47503   9.144   0.546   9.164 -2.3024 -0.3808 -2.0848
  352MOL0     H47504   7.448   0.223  10.203  1.7077 -1.7776  2.1036
  352MOL0     H47505   7.227   0.211  10.302 -0.5832  0.7230 -2.4324
  352MOL0     H47506   6.938   0.389  10.756  0.7453 -0.1392 -0.3709
  352MOL0     H47507   6.688   0.420  10.811  1.0571  0.7055  0.8935
  352MOL0     H47508   6.467   0.684  10.527 -0.7156  1.8144  0.7478
  352MOL0     H47509   6.352   0.644  10.661  1.7357  1.7248 -0.3780
  352MOL0     H47510   6.395   0.487  10.407 -3.5621 -1.3541 -1.7526
  352MOL0     H47511   6.261   0.596  10.433  0.9794  0.3293 -2.0077
  352MOL0     H47512   6.294   0.398  10.660 -1.1037 -1.5523  0.1587
  352MOL0     H47513   6.256   0.333  10.489 -2.4041  0.7344 -1.2117
  352MOL0     H47514   6.067   0.402  10.670  0.0163  1.3908 -0.2066
  352MOL0     H47515   6.103   0.566  10.622  2.0366  0.6959  0.3225
  352MOL0     H47516   5.929   0.382  10.272 -0.3599  1.7295  0.4473
  352MOL0     H47517   6.634   0.568  10.413  1.2712  1.3001 -0.8162
  352MOL0     H47518   6.819   0.649  10.289  0.9936 -2.0309 -2.4926
  352MOL0     H47519   6.986   0.610  10.343  0.0097 -1.6955 -1.8205
  352MOL0     H47520   6.895   0.491  10.263  1.4006 -1.2107  1.2619
  353MOL0     O47521   4.630   6.647   1.520  0.3293  0.2706 -0.0914
  353MOL0     C47522   4.568   6.716   1.444  0.0786 -0.7172  0.5482
  353MOL0     O47523   4.625   6.836   1.386 -0.0722  0.2043  0.7638
  353MOL0     C47524   4.749   6.858   1.432 -1.4420 -0.5535  0.6701
  353MOL0     C47525   4.857   6.824   1.348 -0.4186 -0.1048 -0.1213
  353MOL0     C47526   4.989   6.830   1.392 -1.3624  0.1234  0.4404
  353MOL0     C47527   5.022   6.892   1.513 -0.5683  0.5573 -0.3082
  353MOL0     O47528   5.150   6.917   1.549 -0.2072  0.0542  1.0959
  353MOL0     C47529   5.186   7.010   1.650 -0.3629 -0.4248  0.1489
  353MOL0     C47530   5.202   6.926   1.785  0.4539 -0.1733 -0.2704
  353MOL0     C47531   5.261   7.008   1.898 -0.2130  0.8506  0.2300
  353MOL0     C47532   5.270   6.932   2.033 -0.7194  0.0714  0.7899
  353MOL0     C47533   5.357   7.004   2.142  0.3465  0.8924  0.3754
  353MOL0     C47534   5.398   6.899   2.244  0.0272  0.2227 -0.4288
  353MOL0     C47535   5.490   6.951   2.360  0.6064  0.3543 -0.1171
  353MOL0     C47536   5.623   6.996   2.309  0.0317 -0.0381 -0.5975
  353MOL0     N47537   5.708   7.017   2.425 -0.9392  0.1664 -0.6447
  353MOL0     C47538   5.694   7.124   2.515 -0.2667  0.7772 -0.0128
  353MOL0     C47539   5.819   7.106   2.585 -0.8053  0.5334  0.0623
  353MOL0     C47540   5.879   7.197   2.689 -0.0248 -0.5808 -0.0671
  353MOL0     C47541   5.877   7.338   2.653 -0.2136  0.3022  0.4213
  353MOL0     C47542   5.972   7.384   2.535  0.1846  0.1326  0.5848
  353MOL0     C47543   6.118   7.371   2.578 -0.3592 -0.3726 -0.3408
  353MOL0     O47544   6.128   7.464   2.688 -0.1949  0.1622  0.2853
  353MOL0     C47545   6.255   7.500   2.728 -0.5906  0.4049  0.3296
  353MOL0     C47546   6.363   7.540   2.645  0.2590 -0.2738  0.7462
  353MOL0     C47547   6.484   7.582   2.698  0.4126 -1.0200 -0.1696
  353MOL0     C47548   6.493   7.598   2.832  0.7682  0.2839 -0.3145
  353MOL0     C47549   6.626   7.648   2.883  0.5441  1.0433  0.0100
  353MOL0     O47550   6.724   7.658   2.786 -0.1004  0.3034  0.5517
  353MOL0     C47551   6.854   7.678   2.819 -0.2027 -1.0573  0.2905
  353MOL0     C47552   6.935   7.571   2.858  0.5777  0.3138 -0.0176
  353MOL0     C47553   7.065   7.593   2.890  0.3655 -0.4786 -0.0103
  353MOL0     C47554   7.122   7.723   2.879 -0.7318  0.2578  0.4301
  353MOL0     O47555   7.253   7.746   2.920 -0.8413 -0.8072  0.6030
  353MOL0     C47556   7.350   7.783   2.820 -0.4858 -0.3558  0.1012
  353MOL0     C47557   7.485   7.765   2.883  0.4423 -0.1275 -0.2897
  353MOL0     C47558   7.594   7.789   2.771  0.1693  0.3359  0.0548
  353MOL0     C47559   7.648   7.650   2.721  0.3878 -0.1983  0.4004
  353MOL0     C47560   7.766   7.663   2.623 -0.3026 -0.7176  0.5603
  353MOL0     C47561   7.702   7.687   2.483 -0.2779 -0.5857  0.2021
  353MOL0     C47562   7.807   7.683   2.375 -0.3009 -0.9005  0.2179
  353MOL0     C47563   7.879   7.822   2.372 -0.5587  0.0517  0.2508
  353MOL0    Cl47564   7.766   7.966   2.341  0.2118  0.2560  0.3002
  353MOL0     C47565   7.046   7.827   2.827  0.4364 -0.0656  0.1759
  353MOL0     C47566   6.912   7.807   2.802  0.9516  0.6913  0.5582
  353MOL0     O47567   6.639   7.685   2.993 -0.3102 -0.1119 -0.6583
  353MOL0     C47568   6.385   7.582   2.920  0.4999 -0.6114  0.4046
  353MOL0     C47569   6.262   7.529   2.865 -0.3269 -0.7043 -0.0901
  353MOL0     N47570   5.888   6.995   2.538 -0.2516 -0.7616 -0.0706
  353MOL0     N47571   5.825   6.946   2.439 -0.0126 -0.1066 -0.0635
  353MOL0     C47572   4.913   6.914   1.598 -0.3115  0.8938  0.5989
  353MOL0     C47573   4.780   6.907   1.556 -0.2388  0.4116 -0.5235
  353MOL0     C47574   4.429   6.688   1.404  0.5033  0.3250  0.3734
  353MOL0     C47575   4.371   6.765   1.305  1.1895 -0.1627  0.1825
  353MOL0     C47576   4.241   6.737   1.270  0.5734 -0.0963  0.1034
  353MOL0     C47577   4.154   6.646   1.338 -0.3431 -0.1722 -0.5584
  353MOL0     O47578   4.018   6.657   1.329  0.0181 -0.0713 -0.0989
  353MOL0     C47579   3.940   6.538   1.377 -0.7722 -0.6523 -0.1098
  353MOL0     C47580   3.807   6.538   1.307 -0.7998  0.1056 -0.6207
  353MOL0     C47581   3.703   6.628   1.370 -0.0532  0.3598 -0.3233
  353MOL0     C47582   3.572   6.634   1.285 -0.0690  0.6058 -0.2750
  353MOL0     C47583   3.499   6.506   1.264  0.1933 -0.2462  0.5390
  353MOL0     C47584   3.441   6.407   1.237  0.0196  0.5844 -0.2835
  353MOL0     C47585   4.222   6.561   1.421  0.1030 -0.8597  0.5714
  353MOL0     C47586   4.357   6.573   1.453 -1.5192  0.1707  0.5033
  353MOL0     C47587   4.401   6.465   1.556  0.3157 -0.2632  0.0671
  353MOL0     H47588   4.841   6.785   1.248  0.0214 -2.6400  0.7156
  353MOL0     H47589   5.071   6.801   1.327 -1.0555  1.3863  0.2282
  353MOL0     H47590   5.286   7.049   1.628 -0.5721 -0.2149 -0.4362
  353MOL0     H47591   5.128   7.101   1.665  0.0572 -0.6241  3.8823
  353MOL0     H47592   5.259   6.835   1.763  0.9018 -0.0178  0.2165
  353MOL0     H47593   5.105   6.891   1.821 -1.1404  4.5855  0.8513
  353MOL0     H47594   5.188   7.086   1.922 -0.5896  0.2570  1.0900
  353MOL0     H47595   5.360   7.046   1.875  0.0058  1.0289  1.3777
  353MOL0     H47596   5.176   6.894   2.073  0.4036 -3.7064  0.2636
  353MOL0     H47597   5.315   6.837   2.003 -0.0514  0.7369 -0.4339
  353MOL0     H47598   5.447   7.048   2.097  0.4576  1.2706  0.9530
  353MOL0     H47599   5.295   7.084   2.183  0.6690  1.6386 -0.5565
  353MOL0     H47600   5.311   6.853   2.290  1.5518 -1.3762  1.0117
  353MOL0     H47601   5.446   6.816   2.191  0.3755  0.9718 -1.3249
  353MOL0     H47602   5.511   6.864   2.422  1.1900 -0.7242 -1.7795
  353MOL0     H47603   5.451   7.035   2.419  1.0400 -0.0843  0.8133
  353MOL0     H47604   5.667   6.919   2.245 -0.6828  0.0525 -1.2042
  353MOL0     H47605   5.604   7.079   2.242  1.4077  2.1201  1.4961
  353MOL0     H47606   5.622   7.205   2.512 -1.6848 -0.4272  0.0495
  353MOL0     H47607   5.815   7.203   2.777  0.3126 -0.2989  0.1597
  353MOL0     H47608   5.976   7.156   2.718  0.9890  0.5766 -1.6626
  353MOL0     H47609   5.771   7.363   2.640 -0.7116 -1.4332  0.8955
  353MOL0     H47610   5.892   7.399   2.743  2.1624  0.2253  0.1382
  353MOL0     H47611   5.946   7.487   2.507 -0.3722  0.5047  2.3479
  353MOL0     H47612   5.973   7.319   2.447  0.4151 -2.4510  2.4062
  353MOL0     H47613   6.182   7.401   2.495  2.7053 -0.3434  1.8650
  353MOL0     H47614   6.150   7.270   2.605  0.4679  0.0378  0.2441
  353MOL0     H47615   6.345   7.539   2.538  0.1253 -1.6628  0.7584
  353MOL0     H47616   6.565   7.602   2.628 -1.5499  0.0850 -2.2706
  353MOL0     H47617   6.884   7.475   2.859 -0.0714  0.6559  0.8056
  353MOL0     H47618   7.115   7.512   2.943 -1.4790  0.2751  3.0664
  353MOL0     H47619   7.340   7.714   2.737 -2.5740  0.6751 -0.5653
  353MOL0     H47620   7.329   7.887   2.794  1.9940  0.1946  0.0604
  353MOL0     H47621   7.491   7.839   2.963 -0.1152 -1.4384  1.0177
  353MOL0     H47622   7.494   7.667   2.931 -1.2716 -2.3279 -4.0228
  353MOL0     H47623   7.574   7.852   2.684  0.9175 -0.7734 -0.9551
  353MOL0     H47624   7.669   7.851   2.822 -1.2368  2.6019 -0.4822
  353MOL0     H47625   7.569   7.589   2.676  1.3317 -1.7566  0.7997
  353MOL0     H47626   7.676   7.594   2.810  1.5697 -3.3857 -1.7960
  353MOL0     H47627   7.823   7.570   2.626  0.2747 -0.3477  1.5419
  353MOL0     H47628   7.826   7.744   2.665 -1.5031 -0.6930  2.3356
  353MOL0     H47629   7.643   7.599   2.455 -0.0192 -1.8342  3.2289
  353MOL0     H47630   7.639   7.777   2.481  2.7939  1.7261 -1.6718
  353MOL0     H47631   7.759   7.654   2.280 -0.6609 -1.1524  0.4755
  353MOL0     H47632   7.883   7.609   2.400  0.2129 -0.0310  1.3126
  353MOL0     H47633   7.938   7.844   2.461 -2.0139  1.8848  0.8296
  353MOL0     H47634   7.944   7.825   2.284 -1.0577  2.9737 -0.1354
  353MOL0     H47635   7.088   7.926   2.812  2.3613  0.0512  4.5813
  353MOL0     H47636   6.841   7.882   2.769 -1.5404 -0.5560  2.6926
  353MOL0     H47637   6.391   7.611   3.025  0.1716  1.0173 -0.0012
  353MOL0     H47638   6.171   7.514   2.922  0.1433 -1.2902  0.5238
  353MOL0     H47639   4.922   6.951   1.699  1.1604 -0.7168  1.1242
  353MOL0     H47640   4.706   6.932   1.632  0.5500  1.4727 -0.0724
  353MOL0     H47641   4.426   6.853   1.276  1.2535 -1.3176 -3.6716
  353MOL0     H47642   4.197   6.799   1.192  1.8319  1.8100  0.8475
  353MOL0     H47643   3.919   6.548   1.484  0.7021 -1.6356  0.3055
  353MOL0     H47644   4.003   6.450   1.361 -0.8456 -0.6243 -0.5835
  353MOL0     H47645   3.765   6.438   1.295 -2.3554  0.6746 -0.1874
  353MOL0     H47646   3.829   6.573   1.206  0.0151  0.2603 -0.3966
  353MOL0     H47647   3.747   6.728   1.381  0.0397  0.5286 -1.9887
  353MOL0     H47648   3.672   6.590   1.467  1.3494  1.7379  0.7309
  353MOL0     H47649   3.503   6.709   1.325 -2.5329  0.5995 -3.9635
  353MOL0     H47650   3.598   6.676   1.188  2.2003  0.5716  0.2804
  353MOL0     H47651   3.376   6.333   1.196 -0.3056  0.0696  1.0932
  353MOL0     H47652   4.173   6.482   1.478  0.7057 -1.7361 -0.1086
  353MOL0     H47653   4.434   6.376   1.502  3.4130 -1.1197  3.0207
  353MOL0     H47654   4.480   6.500   1.623 -1.1531  0.3730  1.5294
  353MOL0     H47655   4.325   6.438   1.629 -1.0562  0.3249 -1.0843
  354MOL0     O47656   2.920   6.053  11.184  0.0941  0.1463 -0.4168
  354MOL0     C47657   2.847   6.060  11.080  0.3991 -0.2263  0.1034
  354MOL0     O47658   2.898   6.078  10.954 -0.2669  0.1904 -0.5729
  354MOL0     C47659   3.030   6.121  10.945 -0.3051 -0.1130 -0.0591
  354MOL0     C47660   3.135   6.030  10.922 -0.0361  0.7480  0.3865
  354MOL0     C47661   3.270   6.081  10.911  0.0251 -0.5438 -0.1950
  354MOL0     C47662   3.295   6.218  10.920 -0.0969 -0.1874 -0.1482
  354MOL0     O47663   3.431   6.265  10.897 -0.1184  0.3888 -0.4110
  354MOL0     C47664   3.465   6.400  10.931  0.6304 -0.2752 -0.0694
  354MOL0     C47665   3.605   6.448  10.906  1.0281 -0.1605  0.6056
  354MOL0     C47666   3.708   6.367  10.981 -0.5956  0.2558 -0.1509
  354MOL0     C47667   3.848   6.414  10.941 -0.2416  0.9419 -0.3425
  354MOL0     C47668   3.913   6.520  11.033  0.2449 -0.5175 -0.1608
  354MOL0     C47669   3.954   6.466  11.169  0.2270  0.1429  0.3272
  354MOL0     C47670   4.022   6.571  11.250  0.3022  0.1283  0.1098
  354MOL0     C47671   4.073   6.505  11.377 -0.1921  0.0274 -0.1060
  354MOL0     N47672   4.151   6.589  11.462 -0.1261 -0.0584  0.0486
  354MOL0     C47673   4.111   6.709  11.513 -0.1654 -0.9947  0.1693
  354MOL0     C47674   4.226   6.758  11.565  0.7566 -0.2221  0.6818
  354MOL0     C47675   4.268   6.881  11.643  0.9347  0.2186 -0.2453
  354MOL0     C47676   4.391   6.947  11.579  0.3762  0.5996  0.2158
  354MOL0     C47677   4.431   7.073  11.661  0.1110  0.7952  0.5502
  354MOL0     C47678   4.578   7.092  11.662  0.4978 -0.2098  0.6231
  354MOL0     O47679   4.639   7.143  11.545  0.1308 -0.8464  0.1164
  354MOL0     C47680   4.762   7.199  11.556  0.2349 -0.2673 -0.2760
  354MOL0     C47681   4.831   7.216  11.677 -0.6453  0.0146  0.4842
  354MOL0     C47682   4.962   7.272  11.673 -0.0137 -0.3278 -0.1473
  354MOL0     C47683   5.020   7.320  11.560  0.4871 -0.1117  0.6853
  354MOL0     C47684   5.148   7.400  11.566 -0.1179  0.9848 -0.6677
  354MOL0     O47685   5.211   7.446  11.448  0.4418 -0.0599 -1.0426
  354MOL0     C47686   5.336   7.499  11.454 -1.0050  0.0727 -1.0135
  354MOL0     C47687   5.360   7.620  11.385  0.0812  0.0679 -0.3957
  354MOL0     C47688   5.480   7.696  11.395 -0.2554  0.6044 -0.1951
  354MOL0     C47689   5.587   7.638  11.456 -0.6410  0.3076  0.0920
  354MOL0     O47690   5.710   7.699  11.469 -1.0015  0.6690  0.0013
  354MOL0     C47691   5.723   7.835  11.426 -0.1225 -0.1894 -0.1017
  354MOL0     C47692   5.870   7.871  11.441 -0.2895 -0.2484  0.1800
  354MOL0     C47693   5.916   7.861  11.584 -0.1992 -1.0800 -0.3893
  354MOL0     C47694   6.038   7.957  11.598  0.2252  0.9135  0.9581
  354MOL0     C47695   6.030   8.028  11.726  0.6900  0.1955 -0.4399
  354MOL0     C47696   6.149   8.116  11.747 -0.5420  0.2064 -0.8318
  354MOL0     C47697   6.190   8.148  11.895  0.4771 -0.2310  0.1147
  354MOL0     C47698   6.336   8.186  11.902  0.9877 -0.1599  1.5219
  354MOL0    Cl47699   6.376   8.314  11.790 -0.0463  0.2300 -0.1911
  354MOL0     C47700   5.573   7.503  11.508 -0.1192 -1.4193 -0.6362
  354MOL0     C47701   5.451   7.434  11.516 -0.1076 -0.4045  0.9061
  354MOL0     O47702   5.194   7.412  11.680  0.0552 -0.5340 -0.2732
  354MOL0     C47703   4.953   7.312  11.442 -0.3319 -0.0887 -0.7304
  354MOL0     C47704   4.823   7.256  11.442 -0.0052 -0.8159 -0.2455
  354MOL0     N47705   4.328   6.660  11.552 -0.2041 -0.1264  0.1894
  354MOL0     N47706   4.279   6.561  11.488 -0.8495  0.7552 -0.2712
  354MOL0     C47707   3.187   6.306  10.933 -0.0800 -0.0565 -0.4793
  354MOL0     C47708   3.057   6.255  10.937 -0.0674 -0.0250  0.3656
  354MOL0     C47709   2.703   6.042  11.089  0.0050 -0.5772 -0.1356
  354MOL0     C47710   2.617   6.061  10.975 -0.2279  0.4034  0.0844
  354MOL0     C47711   2.482   6.035  10.979  1.1671 -0.8245  0.1501
  354MOL0     C47712   2.419   5.980  11.090 -0.3487 -0.2956 -0.2064
  354MOL0     O47713   2.282   5.958  11.094 -0.1071 -0.2923  0.4182
  354MOL0     C47714   2.191   6.014  10.996 -0.7618  0.9758  0.0878
  354MOL0     C47715   2.042   6.028  11.046 -0.6811 -0.5976  0.1788
  354MOL0     C47716   1.964   5.895  11.071  0.4384 -0.2843  0.5883
  354MOL0     C47717   1.814   5.905  11.075 -0.4051 -0.3875 -0.2544
  354MOL0     C47718   1.739   5.778  11.058  0.0985 -0.4804 -0.4271
  354MOL0     C47719   1.696   5.662  11.047  0.2484 -0.5088 -0.3805
  354MOL0     C47720   2.499   5.964  11.202  0.7152  1.1993 -0.3749
  354MOL0     C47721   2.636   6.003  11.205 -0.0693  0.1093  0.6772
  354MOL0     C47722   2.704   5.986  11.336  0.7534  0.3558 -0.1412
  354MOL0     H47723   3.115   5.925  10.909  2.4356  0.3492 -0.7335
  354MOL0     H47724   3.353   6.015  10.888 -0.6793 -1.2722 -0.6574
  354MOL0     H47725   3.401   6.465  10.870  0.4890 -0.0012  0.3729
  354MOL0     H47726   3.441   6.414  11.036 -0.7462  0.0470 -0.3963
  354MOL0     H47727   3.614   6.556  10.920  1.5614  0.5268 -3.8180
  354MOL0     H47728   3.610   6.451  10.797 -0.1432 -1.6501  0.4752
  354MOL0     H47729   3.689   6.263  10.954  0.8262 -0.2633  0.7270
  354MOL0     H47730   3.696   6.370  11.090  5.4174  0.5798  0.8462
  354MOL0     H47731   3.914   6.327  10.946  2.6016  3.0206  0.9893
  354MOL0     H47732   3.850   6.451  10.838  1.3506  1.2138 -0.2356
  354MOL0     H47733   3.998   6.556  10.975 -0.4225 -2.8132 -2.7790
  354MOL0     H47734   3.843   6.602  11.054  2.2167  0.3883  3.8024
  354MOL0     H47735   3.862   6.441  11.224  0.3171 -0.1219  0.3604
  354MOL0     H47736   4.018   6.380  11.151 -0.0331  0.2797 -1.4273
  354MOL0     H47737   3.952   6.651  11.276 -0.0002 -0.8122  2.4844
  354MOL0     H47738   4.112   6.614  11.205 -0.0645  0.4006 -0.3644
  354MOL0     H47739   3.983   6.465  11.424  0.7994 -2.2146 -0.0181
  354MOL0     H47740   4.137   6.419  11.357  0.5859  0.8108 -1.1083
  354MOL0     H47741   4.014   6.759  11.519  0.1180 -0.4260  0.0538
  354MOL0     H47742   4.177   6.942  11.645 -0.6147 -1.9919  1.0338
  354MOL0     H47743   4.286   6.853  11.747 -0.0541  0.3501 -0.0201
  354MOL0     H47744   4.481   6.885  11.580  0.4214  0.6462  1.8608
  354MOL0     H47745   4.378   6.985  11.477 -5.2148  1.5977  0.9778
  354MOL0     H47746   4.396   7.047  11.761  2.8957 -1.0183  1.1417
  354MOL0     H47747   4.380   7.167  11.634  0.1468  0.8200  0.5687
  354MOL0     H47748   4.632   7.004  11.698  2.5935  1.3212  1.4305
  354MOL0     H47749   4.590   7.168  11.740 -1.3678 -0.3456  1.0885
  354MOL0     H47750   4.799   7.169  11.769  0.9145 -0.1304  0.9824
  354MOL0     H47751   5.012   7.293  11.767 -1.5436  0.4825  0.5214
  354MOL0     H47752   5.276   7.662  11.330 -0.2725  0.6060  0.5182
  354MOL0     H47753   5.486   7.789  11.340  0.3533 -0.1637 -1.4940
  354MOL0     H47754   5.702   7.855  11.321  0.5690  1.2610  0.0224
  354MOL0     H47755   5.670   7.901  11.495  0.3213 -0.2773  0.3243
  354MOL0     H47756   5.937   7.809  11.380  1.4270 -0.3602  2.0813
  354MOL0     H47757   5.888   7.974  11.408 -1.1305  0.4982  1.9411
  354MOL0     H47758   5.840   7.888  11.658 -0.2778 -0.4543 -0.6927
  354MOL0     H47759   5.946   7.760  11.616 -0.8437 -0.2540  3.3580
  354MOL0     H47760   6.039   8.036  11.522 -0.9618  0.6490  0.6420
  354MOL0     H47761   6.127   7.897  11.575 -0.9950 -0.2918 -0.9208
  354MOL0     H47762   6.023   7.951  11.804  1.2338  1.0510  0.4819
  354MOL0     H47763   5.936   8.080  11.744  0.5882 -0.1797  0.1626
  354MOL0     H47764   6.232   8.056  11.710  1.7728  0.0139  3.8765
  354MOL0     H47765   6.139   8.208  11.689  0.2766 -0.2024 -1.6299
  354MOL0     H47766   6.156   8.070  11.964 -0.7480 -0.4983 -0.7482
  354MOL0     H47767   6.134   8.236  11.924  0.8059  0.2350 -0.6300
  354MOL0     H47768   6.357   8.221  12.003  1.8586 -3.5995  2.6666
  354MOL0     H47769   6.399   8.097  11.894 -0.8742 -1.3407 -2.7760
  354MOL0     H47770   5.660   7.457  11.554  0.5202 -2.4067 -2.6996
  354MOL0     H47771   5.438   7.335  11.558 -2.9817 -0.3286  0.4238
  354MOL0     H47772   4.997   7.352  11.351 -0.2246  0.2255 -0.5442
  354MOL0     H47773   4.764   7.245  11.351  0.0048 -0.3823 -0.3064
  354MOL0     H47774   3.200   6.413  10.932 -0.5091 -0.0021 -0.6714
  354MOL0     H47775   2.965   6.310  10.920 -1.0397 -1.0961  1.8734
  354MOL0     H47776   2.646   6.090  10.875 -1.6151  0.9997 -0.1700
  354MOL0     H47777   2.428   6.050  10.885 -0.3399 -1.1546  0.9275
  354MOL0     H47778   2.195   5.953  10.905 -2.9914 -0.8876  1.1384
  354MOL0     H47779   2.230   6.111  10.965 -0.3252  0.6391 -0.4385
  354MOL0     H47780   1.993   6.083  10.966 -1.0427  1.6481  1.8424
  354MOL0     H47781   2.022   6.085  11.137  1.0129 -0.1865  0.3265
  354MOL0     H47782   1.989   5.836  11.160 -0.0189 -1.2194  0.1129
  354MOL0     H47783   1.985   5.842  10.978 -0.6966 -0.9031  0.6755
  354MOL0     H47784   1.780   5.945  11.171  0.8674 -1.2405  0.5807
  354MOL0     H47785   1.792   5.986  11.005  2.9076  1.6511  0.7817
  354MOL0     H47786   1.649   5.566  11.061 -3.0823  1.2739  1.8991
  354MOL0     H47787   2.449   5.922  11.288  1.2348  0.9388 -0.1962
  354MOL0     H47788   2.746   6.083  11.362 -0.1478  1.9187 -3.8501
  354MOL0     H47789   2.630   5.965  11.414  1.4068 -3.2878 -0.3303
  354MOL0     H47790   2.779   5.907  11.334  1.4615  1.0325 -0.5102
  355MOL0     O47791   5.571   5.419   7.240 -0.3634 -0.4752 -0.1344
  355MOL0     C47792   5.538   5.528   7.287 -0.0425  1.0611 -0.2179
  355MOL0     O47793   5.623   5.623   7.323 -0.4209  0.1090 -0.3571
  355MOL0     C47794   5.756   5.607   7.280  0.1866  0.4223 -0.0231
  355MOL0     C47795   5.810   5.684   7.183  0.5651  0.2094  0.6092
  355MOL0     C47796   5.939   5.652   7.144 -0.5909  0.1562  0.0210
  355MOL0     C47797   6.018   5.552   7.207  0.5859 -0.1915  0.3044
  355MOL0     O47798   6.144   5.516   7.163 -0.0594  0.1981  0.5739
  355MOL0     C47799   6.180   5.549   7.030  0.8451 -0.9972  0.0136
  355MOL0     C47800   6.307   5.471   7.005  0.0804  0.4707  0.4935
  355MOL0     C47801   6.383   5.516   6.879 -0.2791  0.0679 -1.0989
  355MOL0     C47802   6.529   5.535   6.910 -0.8759 -0.0641 -0.1602
  355MOL0     C47803   6.611   5.554   6.779  0.9604 -0.2466 -0.2349
  355MOL0     C47804   6.599   5.704   6.738  0.7532 -0.0209  0.1813
  355MOL0     C47805   6.687   5.801   6.814  0.2962  0.1831  0.2512
  355MOL0     C47806   6.665   5.942   6.775 -0.0277  0.3391  0.3715
  355MOL0     N47807   6.765   6.031   6.827  0.5881 -0.7275 -0.6609
  355MOL0     C47808   6.769   6.086   6.951  0.6888  0.1399 -0.2143
  355MOL0     C47809   6.874   6.170   6.954  0.2416 -1.0589  0.2413
  355MOL0     C47810   6.915   6.261   7.075  1.3204  0.2497  0.6506
  355MOL0     C47811   6.836   6.392   7.086 -0.7154  0.2387  0.2665
  355MOL0     C47812   6.843   6.476   6.957  0.0674  0.4018  1.0274
  355MOL0     C47813   6.788   6.615   6.990  0.5660  1.0042  0.4705
  355MOL0     O47814   6.872   6.711   7.044 -0.0945  0.6484  0.1299
  355MOL0     C47815   6.971   6.780   6.976  0.0959  0.2744 -0.9082
  355MOL0     C47816   7.016   6.757   6.841 -0.8517  0.4978 -0.4291
  355MOL0     C47817   7.121   6.837   6.790 -0.0821  0.4133 -0.6276
  355MOL0     C47818   7.183   6.940   6.865  0.1680  0.2140 -0.0975
  355MOL0     C47819   7.288   7.025   6.805  0.0869  0.4517 -0.6978
  355MOL0     O47820   7.341   6.979   6.685 -0.2435 -0.8640 -0.1121
  355MOL0     C47821   7.468   7.027   6.649 -0.0854  0.3363  0.4026
  355MOL0     C47822   7.591   6.962   6.677  0.8423 -0.6160  0.4833
  355MOL0     C47823   7.711   7.001   6.613  0.0352  0.7838 -1.4424
  355MOL0     C47824   7.715   7.122   6.547 -0.0973 -0.1378  0.1650
  355MOL0     O47825   7.833   7.188   6.506  0.5677 -0.2607  0.1254
  355MOL0     C47826   7.955   7.142   6.560 -0.5315  0.0551  0.6925
  355MOL0     C47827   8.066   7.243   6.524  0.1248  0.0673  0.3687
  355MOL0     C47828   8.215   7.200   6.498 -0.6752  0.2113  0.0942
  355MOL0     C47829   8.312   7.318   6.472 -0.1594  0.0478 -0.2976
  355MOL0     C47830   8.447   7.273   6.432  0.9555  0.7877  0.1984
  355MOL0     C47831   8.547   7.382   6.417  0.1144  0.0145 -0.5008
  355MOL0     C47832   8.676   7.320   6.383  1.2693 -0.2987  0.6171
  355MOL0     C47833   8.781   7.423   6.372 -0.6950  0.2178 -1.0269
  355MOL0    Cl47834   8.942   7.356   6.311 -0.2805  0.4292  0.6540
  355MOL0     C47835   7.591   7.189   6.523  0.1895  0.5266  0.1283
  355MOL0     C47836   7.470   7.134   6.567  0.7640 -0.9672  0.2811
  355MOL0     O47837   7.321   7.132   6.854  0.1590  0.3800  0.2383
  355MOL0     C47838   7.130   6.966   6.986  0.9312  0.0443 -0.0258
  355MOL0     C47839   7.034   6.882   7.051  0.1726 -0.2303  0.5543
  355MOL0     N47840   6.929   6.174   6.824 -0.6784 -0.1338  0.0456
  355MOL0     N47841   6.861   6.092   6.754 -0.6016 -0.6742  0.0599
  355MOL0     C47842   5.966   5.495   7.320 -0.8780  0.2359  0.2737
  355MOL0     C47843   5.839   5.520   7.359  0.8872  0.3400  0.5587
  355MOL0     C47844   5.395   5.560   7.306 -0.2363  0.4823 -0.5212
  355MOL0     C47845   5.311   5.534   7.198  0.3663 -0.2998  0.5049
  355MOL0     C47846   5.179   5.566   7.201  0.8357 -0.0168 -0.2827
  355MOL0     C47847   5.124   5.610   7.319 -0.0635 -0.8121 -0.2843
  355MOL0     O47848   4.997   5.661   7.317  0.8894 -0.0310 -0.1766
  355MOL0     C47849   4.913   5.600   7.418 -0.0290 -0.5696 -0.3935
  355MOL0     C47850   4.766   5.624   7.396  0.0829  0.1230  0.4549
  355MOL0     C47851   4.717   5.541   7.276  0.2505  0.6329 -0.2521
  355MOL0     C47852   4.566   5.560   7.258  0.3075 -0.0098  0.1067
  355MOL0     C47853   4.516   5.698   7.274 -1.0326 -0.2219  0.2126
  355MOL0     C47854   4.470   5.806   7.289 -0.0234 -0.2527  0.4509
  355MOL0     C47855   5.202   5.622   7.437 -0.1877  0.1766  0.2687
  355MOL0     C47856   5.341   5.601   7.429 -0.2619 -0.9108 -0.1544
  355MOL0     C47857   5.434   5.618   7.546 -0.1727 -0.1663  0.1019
  355MOL0     H47858   5.755   5.759   7.127 -0.3625 -2.6391 -2.6581
  355MOL0     H47859   5.974   5.708   7.057  0.7249 -0.0021  0.4194
  355MOL0     H47860   6.104   5.513   6.960 -0.4767  0.5227  0.5817
  355MOL0     H47861   6.201   5.654   7.008  0.7336 -1.2865 -1.5984
  355MOL0     H47862   6.275   5.370   6.979 -1.5805  0.4937  2.2163
  355MOL0     H47863   6.362   5.463   7.100 -1.6659  0.9722  1.5938
  355MOL0     H47864   6.345   5.612   6.842 -5.5447 -1.6868 -1.1009
  355MOL0     H47865   6.368   5.440   6.803 -1.4544 -2.3519  1.3789
  355MOL0     H47866   6.561   5.612   6.980  2.9568 -2.7455  1.3938
  355MOL0     H47867   6.553   5.444   6.966 -2.0471  0.3232  1.0330
  355MOL0     H47868   6.718   5.535   6.791  1.1689  0.8378 -0.2049
  355MOL0     H47869   6.562   5.494   6.703  1.9265 -2.1653  0.6011
  355MOL0     H47870   6.614   5.713   6.630 -0.1890  2.2346  0.1867
  355MOL0     H47871   6.494   5.733   6.746 -0.0459 -2.5762 -0.3774
  355MOL0     H47872   6.791   5.781   6.786 -0.6540 -1.0319 -2.7206
  355MOL0     H47873   6.675   5.796   6.923 -2.3455  1.9501  0.1279
  355MOL0     H47874   6.664   5.932   6.666 -0.4279 -1.2925  0.5074
  355MOL0     H47875   6.565   5.978   6.801 -0.4729 -0.4893 -0.1639
  355MOL0     H47876   6.700   6.073   7.034  2.7553 -0.1554  1.5541
  355MOL0     H47877   6.901   6.206   7.169  1.7455 -2.2865 -0.6816
  355MOL0     H47878   7.020   6.285   7.060  1.1582 -0.2699 -1.7151
  355MOL0     H47879   6.731   6.379   7.113 -1.0365  1.5412 -0.2862
  355MOL0     H47880   6.872   6.447   7.174 -0.4615 -2.2887  1.8545
  355MOL0     H47881   6.775   6.438   6.880  1.2226  2.9826 -1.4055
  355MOL0     H47882   6.943   6.472   6.915 -1.1926 -1.5526 -2.1168
  355MOL0     H47883   6.698   6.610   7.052 -0.9340  2.3264 -1.4417
  355MOL0     H47884   6.751   6.655   6.894  0.1319 -0.0191  0.1992
  355MOL0     H47885   6.979   6.669   6.790 -2.5789  0.6224  0.5337
  355MOL0     H47886   7.164   6.806   6.696 -1.7472  2.2808 -2.0907
  355MOL0     H47887   7.587   6.872   6.736 -0.6737 -0.4876  0.6199
  355MOL0     H47888   7.798   6.947   6.651 -0.1898  0.4795 -1.3473
  355MOL0     H47889   7.939   7.132   6.668  0.1629 -2.3804  0.6379
  355MOL0     H47890   7.982   7.040   6.533 -0.3640 -0.5225  2.8181
  355MOL0     H47891   8.046   7.269   6.420  1.2037 -0.0641  0.1208
  355MOL0     H47892   8.056   7.330   6.590 -1.6142 -0.9264  1.5058
  355MOL0     H47893   8.251   7.134   6.578 -1.8326  0.7259  1.0734
  355MOL0     H47894   8.208   7.123   6.421  0.6721 -1.1991  1.3121
  355MOL0     H47895   8.315   7.369   6.569 -1.6095 -0.7879  0.2346
  355MOL0     H47896   8.285   7.390   6.394 -2.1730  0.8240  1.0343
  355MOL0     H47897   8.444   7.214   6.340  0.6435 -0.8767  1.2503
  355MOL0     H47898   8.500   7.210   6.503 -0.0751 -2.1918 -1.5034
  355MOL0     H47899   8.518   7.445   6.332 -2.7346  1.2439  1.2533
  355MOL0     H47900   8.534   7.435   6.511 -1.4309  0.1070 -0.7342
  355MOL0     H47901   8.667   7.272   6.285 -1.4945  0.7588  0.2652
  355MOL0     H47902   8.709   7.265   6.471  0.0835  0.5999  1.6489
  355MOL0     H47903   8.754   7.508   6.309  2.2928  0.4093 -2.2084
  355MOL0     H47904   8.794   7.470   6.470 -1.7787 -1.4508 -0.0221
  355MOL0     H47905   7.572   7.284   6.476 -2.3979  0.1511  0.2664
  355MOL0     H47906   7.375   7.178   6.538  0.8411 -1.4238 -0.7158
  355MOL0     H47907   7.160   7.049   7.049  3.2357 -1.7262  1.3887
  355MOL0     H47908   7.000   6.897   7.154  4.6795  0.8479  2.1205
  355MOL0     H47909   6.031   5.435   7.382  1.9771  1.8213 -0.9970
  355MOL0     H47910   5.795   5.470   7.445 -0.6853  0.8397  0.0799
  355MOL0     H47911   5.362   5.495   7.111 -0.4109 -1.9343  0.7373
  355MOL0     H47912   5.118   5.551   7.113  1.3380 -4.9800 -0.0727
  355MOL0     H47913   4.935   5.648   7.513  1.2940  2.2220 -1.9835
  355MOL0     H47914   4.927   5.493   7.437 -1.8709 -1.2371 -2.2984
  355MOL0     H47915   4.751   5.731   7.383  2.1320  0.5350  1.1766
  355MOL0     H47916   4.708   5.583   7.480 -0.1006 -2.8735 -0.9745
  355MOL0     H47917   4.749   5.437   7.286  1.8065  1.1727  0.7301
  355MOL0     H47918   4.764   5.577   7.184 -1.7313 -0.8642 -1.9210
  355MOL0     H47919   4.539   5.526   7.158 -1.6966  1.7702 -0.0429
  355MOL0     H47920   4.514   5.494   7.327 -0.1572  0.8529  0.6084
  355MOL0     H47921   4.432   5.902   7.317  1.2102 -0.0183  1.4055
  355MOL0     H47922   5.157   5.653   7.531  1.3242  3.8415 -0.0491
  355MOL0     H47923   5.374   5.641   7.634 -1.1127 -0.8413 -0.3344
  355MOL0     H47924   5.483   5.520   7.558  2.8562  1.0109 -1.4899
  355MOL0     H47925   5.518   5.687   7.537 -0.1984  0.1737  2.1645
  356MOL0     O47926   3.645   5.836   4.872 -0.2951 -0.0743  0.2903
  356MOL0     C47927   3.685   5.841   4.987 -1.0830 -0.1641  0.3246
  356MOL0     O47928   3.811   5.889   5.030  0.2058 -0.1821  0.0952
  356MOL0     C47929   3.914   5.924   4.943  0.6236 -1.0167  0.1050
  356MOL0     C47930   4.047   5.924   4.995 -0.0885  0.1402 -0.5580
  356MOL0     C47931   4.153   5.968   4.916 -0.5010  0.2022  0.3824
  356MOL0     C47932   4.139   6.034   4.795  0.1954 -0.0107  0.4937
  356MOL0     O47933   4.251   6.082   4.735 -0.4497  0.2066  0.0795
  356MOL0     C47934   4.248   6.109   4.599  0.1637  0.3364  0.2540
  356MOL0     C47935   4.390   6.157   4.544  0.8245  0.1076  0.0997
  356MOL0     C47936   4.418   6.137   4.393 -0.3919 -0.2620 -0.0245
  356MOL0     C47937   4.337   6.224   4.290  0.4239 -0.1426  0.0402
  356MOL0     C47938   4.219   6.134   4.236 -0.0791 -1.5021  0.0366
  356MOL0     C47939   4.102   6.229   4.174  0.7623  0.5581  0.2572
  356MOL0     C47940   3.999   6.143   4.084 -0.1374 -0.0653 -0.2644
  356MOL0     C47941   3.871   6.083   4.158 -0.3039 -0.0291 -0.0119
  356MOL0     N47942   3.795   6.190   4.230 -0.3633  0.6099 -0.8397
  356MOL0     C47943   3.789   6.192   4.368 -0.6285  0.4428  0.0790
  356MOL0     C47944   3.720   6.300   4.397 -0.4322 -0.4181  0.1990
  356MOL0     C47945   3.668   6.350   4.531  0.4428  0.0934  0.3560
  356MOL0     C47946   3.772   6.454   4.590  0.8864 -0.3363 -0.0291
  356MOL0     C47947   3.893   6.391   4.650 -1.1193 -0.4927 -1.1535
  356MOL0     C47948   4.016   6.482   4.625  0.9438  0.8234 -0.5599
  356MOL0     O47949   4.112   6.457   4.730 -0.0555 -0.2269  0.3228
  356MOL0     C47950   4.234   6.518   4.735  0.4317  0.3551 -0.0375
  356MOL0     C47951   4.339   6.444   4.790  0.2365  0.9708  0.1946
  356MOL0     C47952   4.462   6.500   4.828  0.0317  0.5559 -0.6632
  356MOL0     C47953   4.484   6.635   4.788 -0.4879 -0.2059  0.0562
  356MOL0     C47954   4.616   6.698   4.814  0.4002  0.0269 -0.2326
  356MOL0     O47955   4.717   6.609   4.848  0.1888 -0.2349  0.2767
  356MOL0     C47956   4.846   6.643   4.825  0.0956 -0.4642  0.4717
  356MOL0     C47957   4.930   6.625   4.933  0.2490 -0.6571 -0.2907
  356MOL0     C47958   5.064   6.649   4.912 -0.1321 -0.1279 -0.0075
  356MOL0     C47959   5.119   6.726   4.806 -0.3908  0.7336  0.0297
  356MOL0     O47960   5.255   6.738   4.798  0.3917  0.1665 -0.2647
  356MOL0     C47961   5.319   6.825   4.699  0.6606 -0.2622  0.5328
  356MOL0     C47962   5.465   6.832   4.742  0.0537  0.3617 -0.1551
  356MOL0     C47963   5.566   6.852   4.622  0.3999  0.5985 -0.6379
  356MOL0     C47964   5.699   6.893   4.666  0.1502  1.0035 -0.9673
  356MOL0     C47965   5.798   6.889   4.552 -1.5500  0.7063 -0.6610
  356MOL0     C47966   5.944   6.916   4.588 -0.1694  0.2720 -0.2832
  356MOL0     C47967   5.968   7.068   4.615 -0.4366 -0.6072  0.4467
  356MOL0     C47968   6.123   7.097   4.630  0.6531 -0.2106  0.7436
  356MOL0    Cl47969   6.175   7.083   4.461 -0.3640  0.1579 -0.2809
  356MOL0     C47970   5.028   6.753   4.705 -0.5386 -0.0121  0.8326
  356MOL0     C47971   4.898   6.713   4.712  0.5095 -0.4764 -0.9765
  356MOL0     O47972   4.624   6.819   4.796 -0.6294 -0.0527 -0.1354
  356MOL0     C47973   4.375   6.713   4.730 -0.2002  0.2008 -0.2441
  356MOL0     C47974   4.252   6.652   4.705 -0.6138 -0.1692 -0.8708
  356MOL0     N47975   3.691   6.372   4.278 -0.2853 -0.1994 -0.3785
  356MOL0     N47976   3.744   6.304   4.180  0.3876  1.4038  0.0330
  356MOL0     C47977   4.011   6.034   4.742  1.0466 -0.1970  0.2435
  356MOL0     C47978   3.900   5.987   4.817 -0.6804 -0.8122 -0.5522
  356MOL0     C47979   3.586   5.788   5.088  0.3057 -0.8212  0.1982
  356MOL0     C47980   3.586   5.845   5.215  0.0935 -0.3939 -1.2606
  356MOL0     C47981   3.497   5.808   5.318 -0.2775  0.0927 -0.2342
  356MOL0     C47982   3.399   5.718   5.295  0.1930 -0.7058 -0.7535
  356MOL0     O47983   3.305   5.697   5.393  1.2985 -0.5313 -0.0096
  356MOL0     C47984   3.348   5.670   5.521  0.3581 -0.3794 -0.3458
  356MOL0     C47985   3.407   5.529   5.515  0.6241 -1.0910 -0.3430
  356MOL0     C47986   3.433   5.495   5.658  0.6409  0.0794  0.2918
  356MOL0     C47987   3.459   5.346   5.658 -0.5694  0.6523  0.2377
  356MOL0     C47988   3.494   5.298   5.789  0.3258  0.1741 -0.1485
  356MOL0     C47989   3.534   5.255   5.896 -0.3143 -0.0653  0.3982
  356MOL0     C47990   3.388   5.668   5.167 -0.6695  0.5071  0.4815
  356MOL0     C47991   3.488   5.687   5.064  0.3201  0.6781 -0.6452
  356MOL0     C47992   3.460   5.602   4.937 -0.1551  0.1152 -0.1078
  356MOL0     H47993   4.075   5.900   5.097  0.2350  0.2805 -0.6130
  356MOL0     H47994   4.251   5.969   4.963  0.5123  2.0588 -1.5962
  356MOL0     H47995   4.206   6.022   4.548  1.0371  0.4496 -0.7071
  356MOL0     H47996   4.179   6.192   4.583  1.2715  0.9354 -1.7164
  356MOL0     H47997   4.466   6.099   4.597  1.5685  0.9698  0.0019
  356MOL0     H47998   4.398   6.264   4.567  1.9232  0.2542 -0.8442
  356MOL0     H47999   4.412   6.031   4.368  4.1962 -0.5154 -0.9948
  356MOL0     H48000   4.526   6.155   4.387 -0.0323 -1.2996  2.1400
  356MOL0     H48001   4.298   6.310   4.346  3.9606  0.4920  1.8325
  356MOL0     H48002   4.398   6.256   4.205  0.7279 -1.0691 -0.0954
  356MOL0     H48003   4.267   6.067   4.166  2.3792 -1.6437  1.7334
  356MOL0     H48004   4.177   6.072   4.317 -1.4931  2.3298  2.5486
  356MOL0     H48005   4.046   6.280   4.254 -0.7653  1.3122 -1.2297
  356MOL0     H48006   4.145   6.305   4.110  3.0115 -2.3717 -1.9982
  356MOL0     H48007   4.055   6.063   4.034  2.2612  0.2068  1.7648
  356MOL0     H48008   3.951   6.201   4.005 -1.7618 -3.2128 -1.7565
  356MOL0     H48009   3.805   6.035   4.086 -0.2368 -1.4464  0.8345
  356MOL0     H48010   3.913   6.014   4.232  0.5402 -0.7133 -1.0952
  356MOL0     H48011   3.816   6.105   4.427  0.8198 -2.6669 -4.5893
  356MOL0     H48012   3.571   6.396   4.511  0.2624  0.5435  2.1185
  356MOL0     H48013   3.645   6.267   4.599  0.0329 -0.0404  0.0547
  356MOL0     H48014   3.796   6.513   4.501  1.1238 -1.5627 -0.8082
  356MOL0     H48015   3.727   6.520   4.665  1.4881 -2.9187  2.8061
  356MOL0     H48016   3.903   6.291   4.608 -1.6135 -0.3207 -1.7023
  356MOL0     H48017   3.887   6.388   4.759  4.3872  0.6627 -0.5472
  356MOL0     H48018   3.990   6.588   4.631  1.4012  0.8827  0.4579
  356MOL0     H48019   4.051   6.457   4.524 -0.2517 -1.7808 -0.4136
  356MOL0     H48020   4.323   6.340   4.817  2.5411  0.7668  1.0202
  356MOL0     H48021   4.523   6.429   4.881 -0.1260  0.0472 -1.1495
  356MOL0     H48022   4.902   6.567   5.020 -3.4360 -0.9490 -1.4628
  356MOL0     H48023   5.135   6.609   4.983 -2.7147 -1.2225  2.1088
  356MOL0     H48024   5.315   6.773   4.603 -0.0369 -0.8016  0.8481
  356MOL0     H48025   5.277   6.926   4.691  2.4680  0.4509 -0.4271
  356MOL0     H48026   5.460   6.923   4.802  1.1877  0.1152  0.3445
  356MOL0     H48027   5.497   6.753   4.812  2.0867  0.9111 -0.3939
  356MOL0     H48028   5.561   6.763   4.559 -0.1556 -0.5157  0.9088
  356MOL0     H48029   5.534   6.937   4.562 -2.0706  0.9556  1.0020
  356MOL0     H48030   5.731   6.826   4.746 -2.1552  1.1848  0.1926
  356MOL0     H48031   5.696   6.995   4.706  0.9283  1.1489 -1.2784
  356MOL0     H48032   5.771   6.957   4.471  0.9501  0.9343 -1.3900
  356MOL0     H48033   5.797   6.785   4.519 -3.1540  1.5023 -3.3906
  356MOL0     H48034   5.971   6.860   4.678 -0.4897  1.5189  0.6223
  356MOL0     H48035   6.007   6.877   4.508  1.3216  1.6362  0.1684
  356MOL0     H48036   5.908   7.091   4.704 -0.7844 -1.9963  0.5962
  356MOL0     H48037   5.927   7.121   4.529  1.2475  0.7332  0.4260
  356MOL0     H48038   6.136   7.201   4.661 -1.2303 -0.4454  2.5099
  356MOL0     H48039   6.175   7.023   4.691 -0.5900 -0.8058  1.1311
  356MOL0     H48040   5.063   6.794   4.610 -3.9365  0.6432 -0.3122
  356MOL0     H48041   4.831   6.730   4.628 -0.7478  2.0501  0.4266
  356MOL0     H48042   4.387   6.821   4.719  2.9641 -0.0767 -0.3777
  356MOL0     H48043   4.165   6.714   4.689 -0.3541  0.5057  0.1984
  356MOL0     H48044   3.997   6.070   4.640 -0.3620  0.5774  0.6884
  356MOL0     H48045   3.802   6.000   4.771 -0.4355  1.9616 -0.4633
  356MOL0     H48046   3.664   5.914   5.246 -0.5125 -1.1631  2.4457
  356MOL0     H48047   3.506   5.861   5.413  0.5848  2.6672 -1.6367
  356MOL0     H48048   3.259   5.677   5.584 -1.8787 -2.8071 -2.9697
  356MOL0     H48049   3.423   5.739   5.561  1.7621 -1.4735 -0.9569
  356MOL0     H48050   3.507   5.533   5.471  1.7912 -2.0068  2.1149
  356MOL0     H48051   3.347   5.455   5.461  0.2512 -0.3219 -1.0310
  356MOL0     H48052   3.350   5.512   5.728  0.4400 -0.0519  0.0854
  356MOL0     H48053   3.514   5.553   5.702 -0.5020  1.9108  0.0822
  356MOL0     H48054   3.368   5.300   5.619 -0.8930 -1.5660  3.1871
  356MOL0     H48055   3.543   5.317   5.595 -0.8344  0.8065 -0.1838
  356MOL0     H48056   3.572   5.216   5.988  0.6801  0.8989  0.4131
  356MOL0     H48057   3.306   5.599   5.153  1.4727 -2.0174 -0.7156
  356MOL0     H48058   3.404   5.509   4.952 -1.0501  0.5580 -0.6395
  356MOL0     H48059   3.418   5.671   4.863 -0.4862  0.5397  0.4667
  356MOL0     H48060   3.551   5.561   4.892 -0.3677 -0.5926  0.0887
  357MOL0     O48061   5.747   8.117  10.402 -0.8309 -0.2659 -0.5568
  357MOL0     C48062   5.815   8.092  10.497  0.0855 -0.1951  0.0110
  357MOL0     O48063   5.811   8.152  10.619 -0.4120 -0.2361 -0.3751
  357MOL0     C48064   5.718   8.257  10.648 -0.0634  0.1796 -0.4621
  357MOL0     C48065   5.591   8.273  10.593  0.5831 -0.6137  0.0774
  357MOL0     C48066   5.497   8.364  10.642 -0.1860  0.2900  0.0814
  357MOL0     C48067   5.532   8.449  10.749  0.2194  0.7719 -0.3718
  357MOL0     O48068   5.454   8.528  10.815  1.1396  0.3290 -0.4165
  357MOL0     C48069   5.311   8.519  10.800 -0.0853 -0.3978  0.4939
  357MOL0     C48070   5.246   8.599  10.910 -0.1130  0.4237  0.6230
  357MOL0     C48071   5.091   8.593  10.909 -0.5392  0.1531 -0.6352
  357MOL0     C48072   5.035   8.450  10.914  0.2870 -0.2955  0.5318
  357MOL0     C48073   4.876   8.457  10.903 -0.2323  0.2817  0.2156
  357MOL0     C48074   4.835   8.536  10.774  0.4631  0.2374  0.2140
  357MOL0     C48075   4.682   8.533  10.757 -1.2166 -0.6992  0.2302
  357MOL0     C48076   4.623   8.418  10.687  0.6092 -0.3060 -0.0264
  357MOL0     N48077   4.474   8.434  10.678  0.0089  1.1093  0.1030
  357MOL0     C48078   4.398   8.393  10.572 -0.3025 -0.6726  0.7614
  357MOL0     C48079   4.268   8.369  10.617 -0.1509  0.4121 -0.1993
  357MOL0     C48080   4.160   8.324  10.524  1.4935 -0.3172  0.2003
  357MOL0     C48081   4.016   8.298  10.596 -0.1859  0.2931 -0.1400
  357MOL0     C48082   3.917   8.236  10.503 -0.2197 -0.6302  0.9506
  357MOL0     C48083   3.798   8.217  10.589 -0.6732  0.2133  0.0886
  357MOL0     O48084   3.705   8.150  10.498  0.1796 -0.4978  0.6173
  357MOL0     C48085   3.574   8.157  10.522 -0.3412 -0.4078 -0.1017
  357MOL0     C48086   3.514   8.185  10.647  0.3342 -0.1305 -0.0275
  357MOL0     C48087   3.371   8.203  10.659  0.6604 -0.3549 -0.4410
  357MOL0     C48088   3.283   8.198  10.546 -0.1397  0.0181 -0.0271
  357MOL0     C48089   3.135   8.224  10.565 -0.2112  0.2658  0.5733
  357MOL0     O48090   3.089   8.259  10.693 -0.1298 -0.1196 -0.0815
  357MOL0     C48091   2.960   8.296  10.725 -0.4355 -0.2104 -0.3392
  357MOL0     C48092   2.870   8.374  10.651 -0.7235 -0.2216  0.5298
  357MOL0     C48093   2.738   8.386  10.686  0.3068  0.5143 -0.2272
  357MOL0     C48094   2.694   8.345  10.814  1.2521  0.3019  0.1881
  357MOL0     O48095   2.575   8.383  10.872 -0.4801  0.1045 -0.0686
  357MOL0     C48096   2.482   8.479  10.812  0.3009  0.1384  1.0075
  357MOL0     C48097   2.398   8.384  10.725  0.9150 -0.3205 -0.6553
  357MOL0     C48098   2.282   8.444  10.652  0.9028  0.1148 -1.0633
  357MOL0     C48099   2.150   8.434  10.734 -0.1775 -0.3095  0.3833
  357MOL0     C48100   2.035   8.481  10.648  0.2086 -0.6494 -0.5794
  357MOL0     C48101   1.903   8.450  10.714 -0.5544 -0.5212  0.4171
  357MOL0     C48102   1.872   8.300  10.708  0.6225  0.5773  0.0662
  357MOL0     C48103   1.744   8.258  10.780  0.6804 -0.8383  0.1776
  357MOL0    Cl48104   1.629   8.384  10.787 -0.0712 -0.2696  0.4149
  357MOL0     C48105   2.782   8.265  10.886  0.1858  0.2000  0.1407
  357MOL0     C48106   2.912   8.250  10.847 -0.0521 -0.6337  0.3105
  357MOL0     O48107   3.068   8.220  10.461 -0.2789 -0.6022 -0.2703
  357MOL0     C48108   3.347   8.178  10.421 -0.0721 -0.6348  0.8365
  357MOL0     C48109   3.489   8.141  10.403 -0.4972 -0.3929 -0.0765
  357MOL0     N48110   4.273   8.393  10.753  0.9789 -0.3688  0.2136
  357MOL0     N48111   4.388   8.426  10.788  0.1938  0.8904  0.1881
  357MOL0     C48112   5.661   8.440  10.799 -1.4460  0.5952 -0.2828
  357MOL0     C48113   5.748   8.338  10.758 -0.0008  0.1069 -0.8335
  357MOL0     C48114   5.911   7.978  10.475 -0.4256  0.0730 -0.2562
  357MOL0     C48115   5.854   7.877  10.397  0.1509  0.4891  0.4654
  357MOL0     C48116   5.929   7.771  10.366 -0.6340  0.0292 -0.5744
  357MOL0     C48117   6.053   7.750  10.424 -0.2572 -0.0415  0.1451
  357MOL0     O48118   6.118   7.636  10.401 -0.0644  0.8571 -0.4785
  357MOL0     C48119   6.235   7.586  10.469  0.1447 -0.8009  0.0141
  357MOL0     C48120   6.372   7.631  10.415 -0.1386  0.0828  0.3537
  357MOL0     C48121   6.484   7.523  10.413  0.1230  0.4180  0.0904
  357MOL0     C48122   6.556   7.495  10.545 -0.4586  0.2650  0.3451
  357MOL0     C48123   6.474   7.403  10.616 -0.4123 -0.0758  0.1729
  357MOL0     C48124   6.391   7.339  10.677 -0.2637 -0.6684  0.9970
  357MOL0     C48125   6.105   7.846  10.506 -0.6316  0.2939  0.4156
  357MOL0     C48126   6.038   7.969  10.533  0.6318 -0.1093 -0.8270
  357MOL0     C48127   6.087   8.067  10.626 -0.0041 -1.1036 -0.0005
  357MOL0     H48128   5.569   8.214  10.505  2.7769 -1.2013 -0.1320
  357MOL0     H48129   5.394   8.359  10.607 -0.3238 -0.4120  0.5524
  357MOL0     H48130   5.296   8.551  10.696  3.2596  2.6371  0.7263
  357MOL0     H48131   5.282   8.414  10.810  1.2139 -0.9323 -0.9803
  357MOL0     H48132   5.288   8.700  10.915  0.5384  0.1230  1.4350
  357MOL0     H48133   5.270   8.551  11.005 -0.9878 -1.5223 -0.0773
  357MOL0     H48134   5.074   8.639  10.811  0.0695 -2.5019 -2.0745
  357MOL0     H48135   5.054   8.653  10.993  0.9129 -0.8120  0.7564
  357MOL0     H48136   5.074   8.394  10.828  1.2372  0.9299  0.1300
  357MOL0     H48137   5.062   8.392  11.002  1.9935  1.7412  1.4332
  357MOL0     H48138   4.833   8.357  10.904  0.9958 -0.2592  1.2459
  357MOL0     H48139   4.829   8.505  10.989 -3.4970  1.1532 -1.8370
  357MOL0     H48140   4.858   8.643  10.783  1.7522 -0.1223  1.6798
  357MOL0     H48141   4.900   8.506  10.692 -1.1665 -1.8048 -0.4054
  357MOL0     H48142   4.655   8.619  10.695  0.0245 -1.9706 -2.2156
  357MOL0     H48143   4.638   8.557  10.854 -1.9100 -1.7350  0.1925
  357MOL0     H48144   4.664   8.411  10.586  0.3965  2.3753 -0.3642
  357MOL0     H48145   4.640   8.332  10.753  0.5619  1.6295  2.6991
  357MOL0     H48146   4.431   8.373  10.471  0.4887 -0.7656  1.0276
  357MOL0     H48147   4.155   8.403  10.448  2.6112  0.6299  1.0657
  357MOL0     H48148   4.189   8.240  10.461 -0.4507  0.8995 -2.5522
  357MOL0     H48149   4.019   8.233  10.684 -4.2696  1.0527  0.7608
  357MOL0     H48150   3.969   8.395  10.615 -3.8772 -0.3512 -4.3893
  357MOL0     H48151   3.938   8.140  10.454 -1.2988 -0.4072  0.0236
  357MOL0     H48152   3.897   8.303  10.419  0.3066  1.5180  2.4463
  357MOL0     H48153   3.767   8.314  10.630  1.9604  1.8841 -1.6080
  357MOL0     H48154   3.818   8.143  10.667  0.5304  0.1250 -0.2872
  357MOL0     H48155   3.574   8.199  10.736 -3.5022  2.9738  2.4157
  357MOL0     H48156   3.335   8.223  10.760  3.3945  2.0587  0.2229
  357MOL0     H48157   2.899   8.418  10.556 -2.6138  1.2488  0.5697
  357MOL0     H48158   2.679   8.449  10.620 -1.6567 -0.3179  0.6440
  357MOL0     H48159   2.418   8.528  10.887  0.1652  1.0430  0.3198
  357MOL0     H48160   2.531   8.558  10.754 -2.2387 -0.4732 -2.2319
  357MOL0     H48161   2.464   8.349  10.645  1.3161 -0.9499 -0.0662
  357MOL0     H48162   2.374   8.291  10.778  3.6191 -0.3300  0.7305
  357MOL0     H48163   2.297   8.550  10.629  1.6456  0.0773 -0.7982
  357MOL0     H48164   2.274   8.386  10.560 -1.0491 -0.2185 -0.7272
  357MOL0     H48165   2.172   8.490  10.825  1.6986 -1.4111  0.6576
  357MOL0     H48166   2.127   8.332  10.765  1.7849 -0.6606  0.8226
  357MOL0     H48167   2.042   8.441  10.546  0.1931  1.6055 -1.5244
  357MOL0     H48168   2.040   8.588  10.630 -1.6258 -0.4859 -0.3576
  357MOL0     H48169   1.903   8.481  10.819 -1.4346  2.1939 -0.2980
  357MOL0     H48170   1.826   8.511  10.666  0.1140 -0.0478 -0.0764
  357MOL0     H48171   1.956   8.239  10.744  0.2719 -0.1851 -0.3846
  357MOL0     H48172   1.855   8.276  10.602  4.0411  1.5211 -0.8257
  357MOL0     H48173   1.706   8.173  10.722  0.1846 -1.3336  1.2092
  357MOL0     H48174   1.762   8.218  10.880 -1.9331 -1.7294  0.3666
  357MOL0     H48175   2.745   8.235  10.984 -0.0155  1.9400  0.6401
  357MOL0     H48176   2.977   8.191  10.912  1.6303  0.7076 -0.0730
  357MOL0     H48177   3.287   8.157  10.333 -0.8247  0.3438  1.0924
  357MOL0     H48178   3.529   8.105  10.309 -1.7311 -2.2129  0.0550
  357MOL0     H48179   5.686   8.516  10.873  0.7787 -1.6793  1.4709
  357MOL0     H48180   5.848   8.322  10.798 -0.2733 -0.5773 -0.4156
  357MOL0     H48181   5.750   7.880  10.365  0.9572 -0.3343 -2.5531
  357MOL0     H48182   5.898   7.696  10.293  0.9055 -0.5861 -0.6269
  357MOL0     H48183   6.227   7.477  10.475  0.4483 -0.7339  2.9148
  357MOL0     H48184   6.235   7.612  10.575  1.1144 -1.3572  0.1620
  357MOL0     H48185   6.417   7.722  10.457 -2.5343  2.8404 -2.5122
  357MOL0     H48186   6.356   7.644  10.307  0.2268 -0.0934  0.2785
  357MOL0     H48187   6.564   7.544  10.341  1.0298 -0.6278  0.7666
  357MOL0     H48188   6.451   7.424  10.380  1.7712 -0.7965  1.9105
  357MOL0     H48189   6.649   7.446  10.517 -0.3596  1.2353 -1.1489
  357MOL0     H48190   6.596   7.580  10.601  1.6216 -0.8963  0.6928
  357MOL0     H48191   6.319   7.276  10.724 -1.5077  1.4612  2.1323
  357MOL0     H48192   6.205   7.834  10.546 -0.4670  2.2076  0.6686
  357MOL0     H48193   6.061   8.167  10.591  0.0416 -1.3345 -0.6986
  357MOL0     H48194   6.030   8.049  10.718 -1.5917  1.4988 -0.3651
  357MOL0     H48195   6.196   8.063  10.622  0.2157  2.3570 -1.1388
  358MOL0     O48196   7.175   0.176   3.507  0.2640  0.6479 -0.0401
  358MOL0     C48197   7.077   0.179   3.582  0.8324  0.3654  0.0860
  358MOL0     O48198   7.048   0.283   3.663 -0.6079  0.4794  0.0747
  358MOL0     C48199   7.143   0.380   3.687 -0.4683 -0.4965 -0.1843
  358MOL0     C48200   7.095   0.511   3.714 -0.6792  0.4554  1.3364
  358MOL0     C48201   7.176   0.617   3.749 -0.6441 -0.0362  1.0996
  358MOL0     C48202   7.311   0.595   3.767  0.4077 -0.0088  0.5366
  358MOL0     O48203   7.382   0.704   3.804 -0.2293 -0.1347 -0.1073
  358MOL0     C48204   7.530   0.685   3.829 -0.1064  0.3599 -0.2182
  358MOL0     C48205   7.572   0.825   3.880 -0.1250  0.3616  0.0445
  358MOL0     C48206   7.712   0.825   3.943 -0.4532  0.0117 -0.2338
  358MOL0     C48207   7.744   0.952   4.024  0.1329  0.6300  0.4639
  358MOL0     C48208   7.845   0.910   4.140  0.0693 -0.3093  0.8434
  358MOL0     C48209   7.948   0.803   4.109  0.4593 -0.2849 -0.4401
  358MOL0     C48210   8.053   0.807   4.227 -1.1075 -0.0696  0.5860
  358MOL0     C48211   8.146   0.926   4.209 -0.2297 -0.1907  0.4039
  358MOL0     N48212   8.276   0.902   4.268  0.0335  0.0165 -0.7073
  358MOL0     C48213   8.377   0.828   4.227 -1.3176  0.2212  0.4757
  358MOL0     C48214   8.472   0.841   4.324  0.2127  0.3452 -0.4022
  358MOL0     C48215   8.603   0.766   4.331 -1.3102 -0.3412 -0.5746
  358MOL0     C48216   8.724   0.844   4.250  0.2097 -0.9535 -0.6518
  358MOL0     C48217   8.868   0.793   4.285  0.2584 -0.4126  0.4762
  358MOL0     C48218   8.910   0.789   4.431  0.4949  0.3337 -0.6507
  358MOL0     O48219   8.956   0.918   4.468 -0.0450  0.2496 -0.8261
  358MOL0     C48220   9.093   0.955   4.453  0.7360  0.1677  0.3557
  358MOL0     C48221   9.197   0.880   4.399  0.3236 -0.0413 -0.7253
  358MOL0     C48222   9.324   0.933   4.358 -0.3915  0.6022  0.1026
  358MOL0     C48223   9.351   1.070   4.387  0.0800 -0.2959  0.1874
  358MOL0     C48224   9.478   1.137   4.344  0.7498  0.4211 -0.0375
  358MOL0     O48225   9.571   1.052   4.299  0.3382  0.6602  0.1103
  358MOL0     C48226   9.695   1.102   4.259  0.3977  0.3363 -0.5214
  358MOL0     C48227   9.706   1.189   4.154  0.3793  1.4701  0.6886
  358MOL0     C48228   9.824   1.246   4.117 -0.1129 -0.4413  0.0497
  358MOL0     C48229   9.942   1.221   4.194 -0.0305 -0.1827  0.1480
  358MOL0     O48230  10.069   1.285   4.169 -0.4578  0.7532  0.1363
  358MOL0     C48231  10.110   1.305   4.034  0.3973  0.7319  0.0265
  358MOL0     C48232  10.261   1.295   4.043  0.2715 -0.8925 -0.5667
  358MOL0     C48233  10.324   1.295   3.906  0.4946 -0.5152  0.2130
  358MOL0     C48234  10.474   1.339   3.894  0.6407  0.3131  0.2299
  358MOL0     C48235  10.500   1.300   3.743  0.1702  0.3199 -0.2890
  358MOL0     C48236  10.652   1.324   3.703 -0.1387  0.0516 -0.2217
  358MOL0     C48237  10.676   1.279   3.551 -0.0229 -0.8880 -0.1298
  358MOL0     C48238  10.822   1.283   3.519  0.2087  0.2098  0.5864
  358MOL0    Cl48239  10.904   1.141   3.606  0.1830 -0.0988  0.1313
  358MOL0     C48240   9.928   1.127   4.298 -0.1855 -0.2358 -0.3422
  358MOL0     C48241   9.807   1.066   4.326  0.1325  0.5674  0.2496
  358MOL0     O48242   9.489   1.257   4.364 -0.6570 -0.2747  0.1514
  358MOL0     C48243   9.244   1.145   4.448 -1.0236  0.4285 -0.6966
  358MOL0     C48244   9.122   1.089   4.489  0.6783  0.2705 -0.4942
  358MOL0     N48245   8.436   0.920   4.424  1.0266  0.1229 -0.7370
  358MOL0     N48246   8.323   0.965   4.386 -0.6218 -0.7391 -0.6380
  358MOL0     C48247   7.367   0.471   3.742  0.6995  0.9257  0.0912
  358MOL0     C48248   7.282   0.359   3.711  0.6331 -0.6136 -0.6657
  358MOL0     C48249   6.978   0.068   3.577 -0.4861 -0.4499  0.2538
  358MOL0     C48250   6.846   0.093   3.643  0.5688  0.2396 -0.2952
  358MOL0     C48251   6.743   0.001   3.630  0.4700 -0.5190 -0.8511
  358MOL0     C48252   6.766  -0.114   3.570  0.7332  0.1415  0.2198
  358MOL0     O48253   6.661  -0.199   3.572  0.1082 -0.3239  0.1209
  358MOL0     C48254   6.651  -0.303   3.465 -0.0667 -0.0281  0.9028
  358MOL0     C48255   6.509  -0.360   3.456 -0.8337 -0.6491 -0.0075
  358MOL0     C48256   6.414  -0.296   3.346  0.2822 -0.7115 -0.3299
  358MOL0     C48257   6.291  -0.387   3.329 -0.0828  0.0774 -0.1863
  358MOL0     C48258   6.198  -0.326   3.239 -0.6112  0.3135  0.4705
  358MOL0     C48259   6.110  -0.286   3.164 -0.3670  0.2552 -0.4939
  358MOL0     C48260   6.890  -0.156   3.518  0.3729 -0.3600 -0.0386
  358MOL0     C48261   6.997  -0.060   3.511  1.2957  0.6258 -0.0014
  358MOL0     C48262   7.131  -0.111   3.460  0.2173  0.1788  0.0443
  358MOL0     H48263   6.992   0.534   3.689 -0.4683 -0.3075 -0.3160
  358MOL0     H48264   7.122   0.708   3.772 -0.8950 -0.0365  0.5295
  358MOL0     H48265   7.551   0.625   3.918 -1.6558  3.9715  2.8799
  358MOL0     H48266   7.583   0.662   3.737 -2.0503 -2.8266 -0.7116
  358MOL0     H48267   7.493   0.849   3.952 -1.8161 -2.3116 -0.7750
  358MOL0     H48268   7.576   0.891   3.792  1.9046  1.1271  0.6679
  358MOL0     H48269   7.792   0.817   3.869 -0.5300  0.9931 -0.4421
  358MOL0     H48270   7.703   0.736   4.006 -2.9120 -2.5732 -3.8716
  358MOL0     H48271   7.787   1.030   3.960  0.5202 -2.9015 -4.1389
  358MOL0     H48272   7.648   0.985   4.064  0.0415 -0.3032  1.0507
  358MOL0     H48273   7.890   1.003   4.176  0.8924 -1.6920  3.6492
  358MOL0     H48274   7.786   0.877   4.225 -1.0559 -0.8424 -0.1088
  358MOL0     H48275   7.910   0.701   4.103 -0.9628  0.0675  1.4123
  358MOL0     H48276   7.997   0.838   4.018 -1.4179  0.0360 -1.3504
  358MOL0     H48277   8.102   0.709   4.218 -2.0204 -0.9447  3.8068
  358MOL0     H48278   7.995   0.806   4.320 -2.3467  0.3532 -0.1582
  358MOL0     H48279   8.155   0.961   4.106 -1.1645  1.3619  0.8179
  358MOL0     H48280   8.100   1.008   4.265  0.2911  0.0134  0.5365
  358MOL0     H48281   8.394   0.777   4.133 -2.2994 -0.7825  0.8294
  358MOL0     H48282   8.630   0.746   4.436  1.0457 -0.7040 -1.1876
  358MOL0     H48283   8.585   0.668   4.287 -0.1421 -0.5422 -0.6336
  358MOL0     H48284   8.708   0.855   4.142  2.9699  1.1985 -0.9567
  358MOL0     H48285   8.723   0.947   4.285  0.8872 -1.6528  1.5935
  358MOL0     H48286   8.945   0.853   4.236  2.0003 -3.3845 -0.6499
  358MOL0     H48287   8.871   0.690   4.250 -1.9584 -0.7026  0.9900
  358MOL0     H48288   8.990   0.715   4.443 -2.1554 -2.6358  0.2169
  358MOL0     H48289   8.836   0.752   4.502 -0.4403 -0.4718 -1.9878
  358MOL0     H48290   9.169   0.777   4.378 -0.9685  0.6210 -2.5523
  358MOL0     H48291   9.401   0.872   4.313  0.0283  1.6173 -0.5866
  358MOL0     H48292   9.609   1.201   4.107  0.1669 -3.2050 -0.6461
  358MOL0     H48293   9.831   1.317   4.036 -0.2392  0.0851  0.4899
  358MOL0     H48294  10.068   1.226   3.972 -1.7403  0.7380  1.3483
  358MOL0     H48295  10.073   1.397   3.989  0.3012  0.7234  0.0879
  358MOL0     H48296  10.299   1.385   4.093 -0.3962  0.5254 -2.4945
  358MOL0     H48297  10.292   1.210   4.105 -0.5747  0.5385  1.9772
  358MOL0     H48298  10.311   1.193   3.869 -2.7110 -0.1572  0.0633
  358MOL0     H48299  10.271   1.360   3.836 -0.1802 -0.7922  0.4597
  358MOL0     H48300  10.535   1.274   3.958  1.5788  0.3996 -0.5413
  358MOL0     H48301  10.495   1.444   3.913  0.8025  0.1346  1.1087
  358MOL0     H48302  10.433   1.358   3.679 -1.7876 -0.2588  1.1537
  358MOL0     H48303  10.478   1.194   3.731 -0.5636  0.6312 -2.1004
  358MOL0     H48304  10.687   1.427   3.701  1.0249 -0.3015 -2.6175
  358MOL0     H48305  10.713   1.266   3.773 -0.7486 -2.0074 -1.3137
  358MOL0     H48306  10.632   1.356   3.486 -0.2114 -1.2595 -0.4471
  358MOL0     H48307  10.633   1.181   3.531  0.4364 -0.6951 -2.3906
  358MOL0     H48308  10.824   1.274   3.410  0.6534 -2.1042  0.7335
  358MOL0     H48309  10.870   1.377   3.548 -1.2485  0.5053  2.1554
  358MOL0     H48310  10.006   1.093   4.366 -0.4767  1.5951  1.0062
  358MOL0     H48311   9.807   0.991   4.405  2.5890  0.1657 -0.0600
  358MOL0     H48312   9.267   1.249   4.468  2.6703  0.0038 -1.8884
  358MOL0     H48313   9.038   1.153   4.513  0.1336 -0.3358 -0.7362
  358MOL0     H48314   7.473   0.454   3.756  0.7735 -1.3474 -2.3382
  358MOL0     H48315   7.314   0.255   3.704  1.5854 -0.3195 -0.9025
  358MOL0     H48316   6.839   0.178   3.710 -1.5293 -0.3286  0.2609
  358MOL0     H48317   6.647   0.029   3.672 -0.6318 -3.5911 -1.0629
  358MOL0     H48318   6.717  -0.389   3.477  0.1845  0.3415  2.4072
  358MOL0     H48319   6.671  -0.257   3.368 -1.0428  0.3172  0.8515
  358MOL0     H48320   6.453  -0.362   3.550 -0.0496  0.1659  0.4962
  358MOL0     H48321   6.525  -0.464   3.427 -1.6355 -0.8865  0.3940
  358MOL0     H48322   6.471  -0.283   3.253 -0.9830  0.3709 -0.9976
  358MOL0     H48323   6.383  -0.197   3.378 -0.7071 -0.6447 -1.4302
  358MOL0     H48324   6.315  -0.488   3.295 -1.1556 -0.9030  1.7781
  358MOL0     H48325   6.239  -0.400   3.425 -0.5269 -0.2499 -0.4704
  358MOL0     H48326   6.037  -0.262   3.090 -0.6499 -3.2062 -1.4797
  358MOL0     H48327   6.903  -0.258   3.484  0.9141 -0.2266 -0.2511
  358MOL0     H48328   7.124  -0.214   3.426 -1.8940 -0.1472  1.2671
  358MOL0     H48329   7.170  -0.054   3.375 -0.2915 -1.3342 -1.2476
  358MOL0     H48330   7.213  -0.097   3.532 -1.3752  4.0956  1.3769
  359MOL0     O48331   6.076  10.787   7.076  0.3762 -0.7301 -0.0573
  359MOL0     C48332   6.011  10.901   7.079 -0.0570 -0.4138  0.6517
  359MOL0     O48333   6.061  11.017   7.048  0.2469 -0.6493  0.2054
  359MOL0     C48334   6.188  11.028   7.001  0.0317 -0.3909  0.2376
  359MOL0     C48335   6.294  11.021   7.085  0.6813 -0.4258 -0.3502
  359MOL0     C48336   6.414  11.046   7.027  0.5378  0.5063 -0.3266
  359MOL0     C48337   6.433  11.096   6.893 -0.9690  0.0289  0.1206
  359MOL0     O48338   6.568  11.120   6.868  0.1130  0.0108 -0.2888
  359MOL0     C48339   6.596  11.189   6.748 -0.0154 -0.4171  0.5350
  359MOL0     C48340   6.730  11.261   6.757 -0.4127  0.0455  0.1925
  359MOL0     C48341   6.847  11.157   6.773  0.0627 -0.1939 -0.4305
  359MOL0     C48342   6.979  11.245   6.793 -0.0193 -0.2811  0.4918
  359MOL0     C48343   7.099  11.156   6.826 -0.4189 -0.4145 -0.5510
  359MOL0     C48344   7.183  11.098   6.705  0.5468  0.3159 -0.2588
  359MOL0     C48345   7.110  10.962   6.669  0.1010 -0.7528  0.6166
  359MOL0     C48346   7.209  10.846   6.651  0.4467  0.5552  0.1063
  359MOL0     N48347   7.318  10.871   6.559 -0.3787 -0.3421  0.5665
  359MOL0     C48348   7.455  10.880   6.598  0.1661 -0.6240  0.5061
  359MOL0     C48349   7.525  10.902   6.481 -0.1217  0.2199 -0.2350
  359MOL0     C48350   7.672  10.907   6.474  1.5234  0.0222  0.3726
  359MOL0     C48351   7.728  10.782   6.403 -0.4442 -0.3951 -0.1290
  359MOL0     C48352   7.880  10.776   6.397 -0.4234 -0.8540 -0.6280
  359MOL0     C48353   7.931  10.639   6.396  0.2413  0.5133 -0.2449
  359MOL0     O48354   8.070  10.656   6.373  0.2664  0.0247 -0.5124
  359MOL0     C48355   8.131  10.549   6.312 -0.1767 -0.9164 -0.1101
  359MOL0     C48356   8.107  10.415   6.332  0.0259  0.2490 -0.8831
  359MOL0     C48357   8.174  10.316   6.263 -0.4500  0.0251 -0.9399
  359MOL0     C48358   8.277  10.334   6.171  0.4011 -0.3709 -0.1765
  359MOL0     C48359   8.348  10.236   6.093 -0.0755  0.0024 -0.1484
  359MOL0     O48360   8.459  10.278   6.027 -0.5267 -0.5827 -0.1457
  359MOL0     C48361   8.525  10.195   5.946 -0.3951  0.4744 -0.6716
  359MOL0     C48362   8.639  10.138   5.994  0.2020 -0.1218  0.5420
  359MOL0     C48363   8.710  10.047   5.910  0.6259 -0.3638  1.2377
  359MOL0     C48364   8.663  10.014   5.784  0.4026  0.4991  0.0391
  359MOL0     O48365   8.733   9.925   5.708 -0.0959  0.9697  0.5277
  359MOL0     C48366   8.727   9.923   5.566  0.0480 -0.0523 -0.6807
  359MOL0     C48367   8.729   9.776   5.532  0.2076 -0.2809  0.8078
  359MOL0     C48368   8.608   9.707   5.591  0.2418  0.7104  0.7489
  359MOL0     C48369   8.609   9.550   5.564  0.5998 -0.8993 -0.5982
  359MOL0     C48370   8.481   9.479   5.618  1.2354 -0.3440  0.1561
  359MOL0     C48371   8.491   9.329   5.603 -0.0780  0.2968  0.2179
  359MOL0     C48372   8.361   9.265   5.666 -0.4372  0.1424 -0.1983
  359MOL0     C48373   8.380   9.111   5.668  0.5272 -0.2629  0.1033
  359MOL0    Cl48374   8.226   9.051   5.727 -0.1958  0.4939  0.4997
  359MOL0     C48375   8.544  10.062   5.738  1.0115  0.3661 -0.1611
  359MOL0     C48376   8.470  10.156   5.819  0.2896 -1.2434  0.3819
  359MOL0     O48377   8.292  10.125   6.075  0.0990  0.3737 -0.4809
  359MOL0     C48378   8.300  10.473   6.149 -0.1440  0.0422  0.0605
  359MOL0     C48379   8.234  10.577   6.222  0.0296 -0.6319 -0.3757
  359MOL0     N48380   7.432  10.915   6.377  0.6838  0.2508 -0.0242
  359MOL0     N48381   7.304  10.894   6.426  0.2229  0.2023 -0.0462
  359MOL0     C48382   6.322  11.102   6.811 -0.0184  0.5457  0.0009
  359MOL0     C48383   6.198  11.071   6.867  0.1662  0.7468  0.0673
  359MOL0     C48384   5.870  10.895   7.123  0.5959 -0.3633  0.7851
  359MOL0     C48385   5.819  10.762   7.134  0.6715  0.3967 -1.1285
  359MOL0     C48386   5.697  10.744   7.193  0.1059  0.1445 -0.5977
  359MOL0     C48387   5.608  10.857   7.222 -0.1761  0.2795 -0.1895
  359MOL0     O48388   5.490  10.823   7.280  0.2793 -0.1498 -0.0920
  359MOL0     C48389   5.389  10.922   7.296 -0.2649  0.0477 -0.2038
  359MOL0     C48390   5.277  10.850   7.339  0.8640  0.8119 -0.0947
  359MOL0     C48391   5.226  10.740   7.232  0.1323 -0.7908 -0.3655
  359MOL0     C48392   5.089  10.684   7.269 -0.0651  0.6989  0.3116
  359MOL0     C48393   5.083  10.606   7.393  0.2895  0.7684 -0.0668
  359MOL0     C48394   5.075  10.536   7.486  0.5365  0.6048 -0.0486
  359MOL0     C48395   5.656  10.983   7.209 -0.5470 -0.2324 -0.3407
  359MOL0     C48396   5.791  11.001   7.160  0.3802 -0.5090 -0.1463
  359MOL0     C48397   5.834  11.143   7.153  0.4226  0.0513  0.6588
  359MOL0     H48398   6.282  10.980   7.184 -1.9032 -0.0423 -0.4244
  359MOL0     H48399   6.502  11.032   7.088  0.6461 -4.4626 -1.1461
  359MOL0     H48400   6.582  11.119   6.665  2.1995  1.5641 -1.6558
  359MOL0     H48401   6.526  11.271   6.728  1.8117  0.8638 -0.8420
  359MOL0     H48402   6.746  11.335   6.837  2.0776  0.0166 -0.1929
  359MOL0     H48403   6.744  11.311   6.660 -0.6716  0.7486  0.5078
  359MOL0     H48404   6.856  11.091   6.685  0.2649 -1.5908  0.6016
  359MOL0     H48405   6.835  11.092   6.860 -0.6331 -0.6600 -0.8581
  359MOL0     H48406   6.995  11.299   6.700 -1.1108 -0.7091  0.0402
  359MOL0     H48407   6.971  11.312   6.879  3.1021  1.3221 -0.2995
  359MOL0     H48408   7.167  11.219   6.884 -2.3373  2.4188 -1.1806
  359MOL0     H48409   7.060  11.076   6.889  2.0067 -0.6115  0.8509
  359MOL0     H48410   7.186  11.166   6.620  1.7314 -0.4078 -0.8187
  359MOL0     H48411   7.287  11.096   6.738  0.0721 -0.7666  1.2946
  359MOL0     H48412   7.067  10.985   6.571 -1.5962  0.5053  1.6191
  359MOL0     H48413   7.029  10.942   6.740 -2.9777 -3.7342 -3.2427
  359MOL0     H48414   7.260  10.825   6.745  0.4972 -1.6227 -0.3418
  359MOL0     H48415   7.157  10.752   6.629 -0.3115  0.2257  2.8551
  359MOL0     H48416   7.493  10.868   6.699  0.6333  1.6901  0.6692
  359MOL0     H48417   7.701  10.989   6.408 -0.6520  0.2912 -0.3360
  359MOL0     H48418   7.715  10.917   6.574  2.3038 -0.6473  0.1174
  359MOL0     H48419   7.700  10.684   6.444  1.5087 -1.1447 -0.5167
  359MOL0     H48420   7.684  10.799   6.304 -1.2773  0.5511  0.3808
  359MOL0     H48421   7.932  10.825   6.480 -3.2662  1.3416  0.0434
  359MOL0     H48422   7.920  10.818   6.304  0.5317 -1.2183 -0.3888
  359MOL0     H48423   7.885  10.579   6.316  1.0190 -1.6591  0.8505
  359MOL0     H48424   7.904  10.592   6.491 -0.2640 -0.6966 -0.9512
  359MOL0     H48425   8.047  10.381   6.416  1.2166 -4.0679 -1.5719
  359MOL0     H48426   8.158  10.213   6.294  0.6389  0.1725  0.1865
  359MOL0     H48427   8.672  10.152   6.096  2.1857 -0.5087 -0.0094
  359MOL0     H48428   8.798  10.002   5.953  1.7462  3.1804  3.0766
  359MOL0     H48429   8.641   9.971   5.518  0.2504  1.7764  0.6703
  359MOL0     H48430   8.817   9.977   5.533 -0.5699  0.7405 -1.1133
  359MOL0     H48431   8.720   9.767   5.423 -3.5755  0.6107  0.9081
  359MOL0     H48432   8.823   9.726   5.559  0.6162 -0.4012 -0.7111
  359MOL0     H48433   8.596   9.729   5.698  1.4929 -2.7791  1.7485
  359MOL0     H48434   8.520   9.739   5.536 -0.3107 -1.5184  0.2092
  359MOL0     H48435   8.681   9.502   5.631 -0.4547 -0.5012  0.8768
  359MOL0     H48436   8.612   9.526   5.457 -3.1264 -0.3062 -0.9436
  359MOL0     H48437   8.396   9.518   5.561 -0.5080 -5.2241 -1.0531
  359MOL0     H48438   8.465   9.487   5.726  1.0918 -2.7256  0.3504
  359MOL0     H48439   8.491   9.294   5.499 -1.9158  0.5533  0.0982
  359MOL0     H48440   8.583   9.300   5.653  0.5077  1.4911 -0.1331
  359MOL0     H48441   8.279   9.296   5.601  0.5618  1.1892 -0.9983
  359MOL0     H48442   8.351   9.295   5.771  3.9712 -0.2504  0.5458
  359MOL0     H48443   8.408   9.072   5.569 -0.3389  0.4040 -0.4186
  359MOL0     H48444   8.452   9.066   5.737 -0.5715 -3.7878 -0.8309
  359MOL0     H48445   8.490  10.027   5.651  0.0481  2.4390 -0.4623
  359MOL0     H48446   8.367  10.188   5.804  0.7585  1.4990  2.3424
  359MOL0     H48447   8.368  10.508   6.072 -1.8917  1.0797 -1.0794
  359MOL0     H48448   8.263  10.681   6.213  1.4184 -1.1172 -2.1687
  359MOL0     H48449   6.321  11.139   6.709  1.0041  0.3936 -0.0701
  359MOL0     H48450   6.109  11.089   6.808 -1.0202  1.1917  1.9063
  359MOL0     H48451   5.873  10.672   7.105 -0.2501 -0.8701  0.8454
  359MOL0     H48452   5.650  10.646   7.195  1.2393 -0.4663  3.3180
  359MOL0     H48453   5.368  10.979   7.205  0.0549 -0.8846 -0.8777
  359MOL0     H48454   5.428  10.991   7.370  3.2132 -0.3907 -1.4426
  359MOL0     H48455   5.198  10.922   7.360  2.7637  1.7883  5.7310
  359MOL0     H48456   5.279  10.805   7.439 -0.8126  2.6347  0.8328
  359MOL0     H48457   5.298  10.658   7.227  1.8355  0.6645 -0.7502
  359MOL0     H48458   5.214  10.780   7.131 -3.0223 -0.8588 -0.1417
  359MOL0     H48459   5.012  10.762   7.265  1.0050  1.7913  0.3560
  359MOL0     H48460   5.058  10.618   7.187 -2.2682  0.7268  1.0400
  359MOL0     H48461   5.052  10.476   7.571 -3.5902  0.1204 -1.2524
  359MOL0     H48462   5.592  11.061   7.249 -0.8563 -1.1694  1.0704
  359MOL0     H48463   5.851  11.169   7.048  1.2507  3.2641  1.4864
  359MOL0     H48464   5.753  11.206   7.192 -2.8149 -1.2737 -3.2110
  359MOL0     H48465   5.929  11.156   7.206  0.7310  0.7226 -0.0453
  360MOL0     O48466   7.266   3.279   0.827  0.1240 -0.5009 -0.2728
  360MOL0     C48467   7.215   3.277   0.941 -1.2384 -0.4169 -0.2105
  360MOL0     O48468   7.278   3.262   1.058  0.6566 -0.5195 -0.2174
  360MOL0     C48469   7.418   3.272   1.056  0.1938  0.2558  0.1610
  360MOL0     C48470   7.480   3.389   1.004 -0.3361 -0.4371  1.0347
  360MOL0     C48471   7.623   3.385   0.994 -0.1024 -0.6617  0.0519
  360MOL0     C48472   7.700   3.280   1.054 -0.0247  0.0368  0.0612
  360MOL0     O48473   7.834   3.269   1.026  0.5419 -1.0246 -0.3303
  360MOL0     C48474   7.902   3.139   1.034  0.1237 -0.2200 -0.2089
  360MOL0     C48475   7.954   3.095   1.171 -0.2113 -0.1564  0.0543
  360MOL0     C48476   8.038   3.209   1.238 -0.3223 -0.2324  0.3607
  360MOL0     C48477   8.163   3.246   1.150  0.6816  0.6348 -0.3878
  360MOL0     C48478   8.265   3.334   1.225  0.5830 -0.5025 -0.1453
  360MOL0     C48479   8.206   3.480   1.255  0.6752  1.0782  0.5168
  360MOL0     C48480   8.232   3.555   1.119  0.1670 -0.5570 -0.2157
  360MOL0     C48481   8.171   3.696   1.117 -0.0138  1.1459  0.7979
  360MOL0     N48482   8.227   3.786   1.224 -0.5566 -0.0891  0.9038
  360MOL0     C48483   8.344   3.853   1.213  0.3738  0.8236  0.8730
  360MOL0     C48484   8.376   3.880   1.342 -0.8191 -0.0283 -0.3454
  360MOL0     C48485   8.509   3.928   1.385 -0.1936  0.2194 -0.0149
  360MOL0     C48486   8.568   3.846   1.499  0.2565  0.0404 -0.0732
  360MOL0     C48487   8.619   3.715   1.453 -0.1139 -1.1943  0.0291
  360MOL0     C48488   8.695   3.637   1.561  0.3705  0.3105 -0.3354
  360MOL0     O48489   8.811   3.704   1.611 -0.0456 -0.0125 -0.1520
  360MOL0     C48490   8.852   3.672   1.743 -0.5855 -0.0086 -0.4999
  360MOL0     C48491   8.827   3.539   1.802 -1.0589 -0.3386  0.2097
  360MOL0     C48492   8.877   3.518   1.937  0.1718 -0.2429  0.6063
  360MOL0     C48493   8.969   3.614   1.997 -0.4860  0.8848  0.2704
  360MOL0     C48494   9.042   3.580   2.122 -0.0686  0.2447 -0.6791
  360MOL0     O48495   9.126   3.671   2.172 -0.3581 -0.0312 -0.2043
  360MOL0     C48496   9.203   3.648   2.283 -0.2529 -0.2517  0.5897
  360MOL0     C48497   9.237   3.767   2.352  0.3309 -1.3699  0.4669
  360MOL0     C48498   9.325   3.759   2.462 -0.1920 -0.4247  0.4557
  360MOL0     C48499   9.386   3.644   2.496 -0.2230  0.5471  0.2200
  360MOL0     O48500   9.469   3.624   2.608 -0.1078 -0.0872 -0.3416
  360MOL0     C48501   9.511   3.735   2.684 -0.1649  0.2804 -0.8235
  360MOL0     C48502   9.605   3.689   2.800 -0.3300 -0.3741  0.1710
  360MOL0     C48503   9.665   3.813   2.869 -0.0964 -0.5653 -0.3617
  360MOL0     C48504   9.737   3.778   3.003 -0.2156  0.0564  0.9749
  360MOL0     C48505   9.830   3.887   3.054  0.2654 -0.3517 -0.1029
  360MOL0     C48506   9.907   3.857   3.184 -0.1966  0.3211 -0.2820
  360MOL0     C48507  10.030   3.949   3.212  0.4308 -0.5264  0.2486
  360MOL0     C48508  10.087   3.902   3.343 -0.0149 -0.8766  0.5446
  360MOL0    Cl48509  10.207   4.021   3.390  0.2628 -0.3224 -0.0161
  360MOL0     C48510   9.361   3.525   2.430 -0.0005  0.1720 -0.0290
  360MOL0     C48511   9.268   3.523   2.321 -0.3574  0.0129  0.3188
  360MOL0     O48512   9.033   3.461   2.158 -0.0450 -0.3745  0.3678
  360MOL0     C48513   8.995   3.736   1.927  0.4112  0.2680 -0.0422
  360MOL0     C48514   8.926   3.769   1.807  0.4762  0.2436 -0.5867
  360MOL0     N48515   8.264   3.850   1.425  0.1099  0.4994  0.2584
  360MOL0     N48516   8.176   3.787   1.348  0.1121  0.4862 -0.2298
  360MOL0     C48517   7.637   3.170   1.117 -0.1301  0.3527  0.4966
  360MOL0     C48518   7.494   3.171   1.115  0.2211  0.5603 -0.3715
  360MOL0     C48519   7.066   3.282   0.932  1.2982  0.3410  0.8855
  360MOL0     C48520   6.999   3.332   0.814 -0.2554 -0.4039 -0.1383
  360MOL0     C48521   6.863   3.337   0.800  0.1175 -0.4297 -0.1449
  360MOL0     C48522   6.780   3.289   0.902  0.5545  1.1449 -0.3320
  360MOL0     O48523   6.644   3.282   0.879 -0.1989  0.0637  0.2353
  360MOL0     C48524   6.596   3.265   0.744  0.1440 -0.2383  0.5871
  360MOL0     C48525   6.444   3.271   0.757  0.1063  0.0006  0.4115
  360MOL0     C48526   6.382   3.405   0.792 -0.3956 -0.4531 -0.5816
  360MOL0     C48527   6.253   3.389   0.878  0.0905 -0.0957  0.3953
  360MOL0     C48528   6.157   3.313   0.797 -0.0107 -0.0705  0.7451
  360MOL0     C48529   6.090   3.230   0.734  0.3067  0.4089  0.2974
  360MOL0     C48530   6.844   3.248   1.028 -0.4363 -0.3563 -0.0729
  360MOL0     C48531   6.988   3.245   1.041 -0.6655 -0.0250  0.2152
  360MOL0     C48532   7.037   3.194   1.175  0.1698  0.5079 -0.7859
  360MOL0     H48533   7.422   3.473   0.967  0.0197 -0.5019  0.3078
  360MOL0     H48534   7.677   3.463   0.941 -2.0269 -2.1788 -4.5629
  360MOL0     H48535   7.837   3.067   0.983  0.9686  1.0556 -3.3530
  360MOL0     H48536   7.995   3.148   0.976  0.5921  0.5254  0.6311
  360MOL0     H48537   8.025   3.012   1.159  1.4839  1.3054 -0.4856
  360MOL0     H48538   7.871   3.066   1.235 -0.0210  0.6393  0.6726
  360MOL0     H48539   8.070   3.171   1.335  1.3706  0.4335  0.0912
  360MOL0     H48540   7.966   3.291   1.250 -1.2457 -0.9621 -0.0164
  360MOL0     H48541   8.215   3.152   1.127 -1.3399 -1.3506  2.4271
  360MOL0     H48542   8.125   3.295   1.060  0.5240 -0.1964 -0.7793
  360MOL0     H48543   8.285   3.282   1.319  1.2091 -1.2476 -0.6827
  360MOL0     H48544   8.359   3.344   1.169  0.5322  1.1784  0.0042
  360MOL0     H48545   8.103   3.482   1.292  0.3695 -0.2521 -0.1894
  360MOL0     H48546   8.256   3.532   1.337 -0.3045  2.7296  0.1184
  360MOL0     H48547   8.196   3.493   1.037 -1.1722 -0.4273  0.2405
  360MOL0     H48548   8.340   3.566   1.105  0.2461  1.3687  1.4365
  360MOL0     H48549   8.175   3.756   1.026 -2.3614  3.2946  1.9773
  360MOL0     H48550   8.065   3.688   1.142 -0.1849  1.8182  0.2948
  360MOL0     H48551   8.411   3.851   1.127  1.5288 -0.9949  1.7635
  360MOL0     H48552   8.572   3.937   1.296  0.2265  0.1741  0.2717
  360MOL0     H48553   8.506   4.029   1.428  2.1544  0.3562 -0.0601
  360MOL0     H48554   8.655   3.902   1.536  2.3577 -3.3379  0.5128
  360MOL0     H48555   8.499   3.830   1.582  0.8336  0.2455  0.4625
  360MOL0     H48556   8.698   3.729   1.378 -1.3361 -1.7004 -1.3940
  360MOL0     H48557   8.537   3.652   1.420 -1.1831 -1.7965  3.3996
  360MOL0     H48558   8.729   3.539   1.525  0.3060  0.2371 -0.1970
  360MOL0     H48559   8.614   3.619   1.632  0.0388 -1.7690 -1.1795
  360MOL0     H48560   8.771   3.464   1.747 -1.4786  0.0114  0.1559
  360MOL0     H48561   8.863   3.422   1.984 -0.7132  0.6244  2.1889
  360MOL0     H48562   9.192   3.857   2.311 -1.1037 -1.7534  1.1218
  360MOL0     H48563   9.346   3.852   2.514 -4.0602  0.2853  1.0251
  360MOL0     H48564   9.557   3.805   2.613  1.7092  1.3812  1.3284
  360MOL0     H48565   9.432   3.794   2.732  0.9370  2.1303 -1.1904
  360MOL0     H48566   9.543   3.640   2.876  1.1103  2.8769  3.8031
  360MOL0     H48567   9.688   3.630   2.761 -0.8637 -1.1923  0.2612
  360MOL0     H48568   9.747   3.853   2.809 -0.9576  0.5640 -0.8241
  360MOL0     H48569   9.594   3.895   2.880  0.8878  0.0140  2.5824
  360MOL0     H48570   9.790   3.684   2.988  0.1286  0.5441 -1.2254
  360MOL0     H48571   9.661   3.774   3.082 -1.0160 -0.7144  0.1848
  360MOL0     H48572   9.772   3.977   3.074  0.5984 -0.2012  0.1774
  360MOL0     H48573   9.898   3.904   2.970 -0.4144 -2.3838 -1.1530
  360MOL0     H48574   9.837   3.882   3.263  3.2432  0.3204  3.0585
  360MOL0     H48575   9.931   3.751   3.189 -4.0471 -0.6334  0.6346
  360MOL0     H48576   9.994   4.052   3.223 -0.2257 -0.9437  2.4695
  360MOL0     H48577  10.111   3.944   3.139  0.2458  1.7300 -0.1834
  360MOL0     H48578  10.012   3.910   3.422  1.2008 -0.1819  1.6629
  360MOL0     H48579  10.135   3.803   3.337  1.9145  0.0832 -1.1886
  360MOL0     H48580   9.415   3.437   2.461  2.3171  1.9158  1.1669
  360MOL0     H48581   9.231   3.431   2.277  0.4485 -0.1039 -0.1306
  360MOL0     H48582   9.080   3.793   1.961  0.4668 -0.6640  1.4736
  360MOL0     H48583   8.962   3.855   1.752  0.1193 -0.1301 -1.4133
  360MOL0     H48584   7.683   3.080   1.156 -3.1635 -0.4127  2.7222
  360MOL0     H48585   7.434   3.094   1.162  0.7164 -1.3878 -2.7139
  360MOL0     H48586   7.069   3.374   0.743  0.0804  0.7605  0.8460
  360MOL0     H48587   6.840   3.376   0.701  2.7509 -1.9023 -1.4241
  360MOL0     H48588   6.621   3.170   0.697  0.1083 -1.0679  2.1780
  360MOL0     H48589   6.620   3.353   0.683  0.1665  0.0562  1.0146
  360MOL0     H48590   6.423   3.207   0.843  0.8274 -1.0677 -0.1712
  360MOL0     H48591   6.404   3.239   0.661 -0.3350 -0.1024  0.6261
  360MOL0     H48592   6.362   3.465   0.703  3.0409  2.0579  0.1526
  360MOL0     H48593   6.451   3.463   0.854 -1.3850  0.4209 -0.2719
  360MOL0     H48594   6.273   3.330   0.968 -0.3003  1.1872  1.3677
  360MOL0     H48595   6.219   3.488   0.912 -0.5342 -0.1767  0.0275
  360MOL0     H48596   6.056   3.140   0.686 -0.1182  1.2481 -1.0043
  360MOL0     H48597   6.779   3.211   1.106 -0.7575  1.5815  0.6187
  360MOL0     H48598   6.952   3.174   1.241 -0.5840  0.7682 -1.6574
  360MOL0     H48599   7.095   3.103   1.160 -1.0811 -0.0487 -2.5839
  360MOL0     H48600   7.102   3.270   1.220 -0.2288  0.1397  0.4614
  361MOL0     O48601   5.179  10.753   6.231 -0.2068  0.4591  0.0923
  361MOL0     C48602   5.134  10.781   6.348  0.7838  0.7422 -0.5240
  361MOL0     O48603   5.206  10.850   6.442 -0.1286  0.1459 -0.4401
  361MOL0     C48604   5.339  10.877   6.429 -1.1011  0.7339  0.1464
  361MOL0     C48605   5.382  11.000   6.436  0.0990 -0.7865  0.2666
  361MOL0     C48606   5.516  11.041   6.418  0.8855  0.1884  0.7878
  361MOL0     C48607   5.607  10.946   6.368  0.9517 -1.3462  0.2567
  361MOL0     O48608   5.737  10.973   6.345  0.0877  0.0540  0.0609
  361MOL0     C48609   5.775  11.091   6.272 -0.1865 -1.0633  0.0026
  361MOL0     C48610   5.888  11.057   6.190 -0.3422  1.1335  0.0864
  361MOL0     C48611   5.936  11.175   6.104  0.6660 -0.3602 -0.1577
  361MOL0     C48612   6.041  11.276   6.168  0.7148  1.1273  0.0118
  361MOL0     C48613   6.110  11.352   6.058 -0.3538  0.5949  0.1997
  361MOL0     C48614   6.215  11.285   5.967  0.6647  0.2286 -0.1920
  361MOL0     C48615   6.322  11.214   6.055 -0.2665 -0.4040  0.7363
  361MOL0     C48616   6.427  11.149   5.965 -1.2127  0.1131  0.8473
  361MOL0     N48617   6.540  11.239   5.933 -0.2458 -0.0454  0.1625
  361MOL0     C48618   6.630  11.301   6.023  0.2532  0.2832  0.9479
  361MOL0     C48619   6.713  11.374   5.945 -0.7383 -0.7025  0.4366
  361MOL0     C48620   6.838  11.462   5.998 -0.1956 -0.1228  0.0068
  361MOL0     C48621   6.969  11.433   5.925  0.7652  0.5326  0.2035
  361MOL0     C48622   7.084  11.513   5.983  0.0144 -0.1657  0.5069
  361MOL0     C48623   7.214  11.474   5.912 -1.0713  0.4867  0.0797
  361MOL0     O48624   7.320  11.511   6.000 -0.5622  0.1025 -0.5856
  361MOL0     C48625   7.447  11.488   5.964  0.5950 -0.4726 -0.1856
  361MOL0     C48626   7.540  11.545   6.048 -0.1991 -0.2006 -1.5762
  361MOL0     C48627   7.682  11.549   6.019  0.6234  0.5142  0.4326
  361MOL0     C48628   7.724  11.468   5.908  0.0235  0.2936 -0.2330
  361MOL0     C48629   7.868  11.434   5.891 -0.3911  0.7896 -0.6737
  361MOL0     O48630   7.961  11.492   5.971 -0.4109 -0.1000  0.6780
  361MOL0     C48631   8.099  11.465   5.961  0.0643  0.8497 -0.4071
  361MOL0     C48632   8.191  11.546   6.026  0.4696  0.0861 -0.3327
  361MOL0     C48633   8.332  11.534   6.011  0.2295  0.4832 -0.1234
  361MOL0     C48634   8.385  11.428   5.941  0.7578 -0.2836  0.3396
  361MOL0     O48635   8.514  11.396   5.915 -0.0954  0.2964  0.0343
  361MOL0     C48636   8.611  11.483   5.960  0.1834  0.6876  1.0119
  361MOL0     C48637   8.758  11.440   5.923  0.0838  0.6244  0.0300
  361MOL0     C48638   8.850  11.538   5.997 -0.5651 -0.2840  0.8436
  361MOL0     C48639   8.989  11.523   5.933  0.2787  0.0734  0.3438
  361MOL0     C48640   9.101  11.575   6.021  0.4511 -0.0803  0.0338
  361MOL0     C48641   9.238  11.556   5.967  0.4019  0.5697  0.9301
  361MOL0     C48642   9.326  11.675   5.980 -0.7941 -0.1863 -0.3177
  361MOL0     C48643   9.469  11.644   5.937  0.9365  0.7107  0.1503
  361MOL0    Cl48644   9.478  11.661   5.761 -0.4185  0.0349  0.2675
  361MOL0     C48645   8.291  11.337   5.884  0.1071 -0.1969 -0.2344
  361MOL0     C48646   8.156  11.348   5.902  0.2698  0.0664 -0.0360
  361MOL0     O48647   7.886  11.342   5.813  0.4673  0.0800  0.1821
  361MOL0     C48648   7.623  11.413   5.813 -0.3350  0.4135 -0.3573
  361MOL0     C48649   7.491  11.417   5.851  0.0171 -0.2429  0.1123
  361MOL0     N48650   6.676  11.354   5.817  0.0322 -0.8164  0.2754
  361MOL0     N48651   6.575  11.273   5.808  0.7249  0.4596  0.4569
  361MOL0     C48652   5.573  10.814   6.370 -0.5095 -0.0586 -0.1435
  361MOL0     C48653   5.443  10.778   6.412  0.3264 -0.2098  0.1029
  361MOL0     C48654   4.991  10.748   6.374 -0.7301  0.0081 -0.1593
  361MOL0     C48655   4.903  10.739   6.263 -0.1861 -1.1465  0.3955
  361MOL0     C48656   4.772  10.689   6.283 -0.2149  0.7299  0.2822
  361MOL0     C48657   4.725  10.651   6.409  0.0294 -0.1128 -0.6455
  361MOL0     O48658   4.607  10.587   6.435  0.5637  0.1819  0.1458
  361MOL0     C48659   4.514  10.566   6.333 -0.5200  0.2890 -0.0145
  361MOL0     C48660   4.556  10.423   6.286  0.4818 -0.4610  0.1504
  361MOL0     C48661   4.439  10.374   6.190  0.0826  0.6490 -0.0798
  361MOL0     C48662   4.470  10.236   6.136 -1.1497  0.4142  0.7438
  361MOL0     C48663   4.599  10.214   6.067  0.1764  0.2834 -0.1521
  361MOL0     C48664   4.708  10.205   6.016 -0.8249  0.0762 -0.3062
  361MOL0     C48665   4.808  10.674   6.517 -0.0942 -1.2323 -0.1447
  361MOL0     C48666   4.942  10.722   6.497 -0.1568  0.1721 -0.3258
  361MOL0     C48667   5.032  10.728   6.621  0.3005  0.8455  0.4589
  361MOL0     H48668   5.301  11.065   6.467  1.0322 -0.9913  3.4969
  361MOL0     H48669   5.545  11.143   6.440  0.0159  0.2502  1.7335
  361MOL0     H48670   5.691  11.123   6.209  0.9009  3.5432  0.5765
  361MOL0     H48671   5.790  11.172   6.343 -1.3813  1.7187 -2.6971
  361MOL0     H48672   5.860  10.971   6.128 -2.0997  0.1631  2.1017
  361MOL0     H48673   5.972  11.024   6.253 -0.5513  0.1622 -0.1253
  361MOL0     H48674   5.854  11.237   6.066  1.2413  0.3255 -0.3012
  361MOL0     H48675   5.978  11.130   6.013  3.1371  3.2753 -1.0509
  361MOL0     H48676   5.993  11.344   6.238 -1.5811 -0.4628  0.1178
  361MOL0     H48677   6.107  11.209   6.223 -0.3018  1.2950  1.4856
  361MOL0     H48678   6.032  11.385   5.989 -0.4257  1.7687  0.8315
  361MOL0     H48679   6.150  11.440   6.108  0.2520  0.8302 -0.6787
  361MOL0     H48680   6.167  11.206   5.908  0.7810 -1.9975  2.4361
  361MOL0     H48681   6.259  11.361   5.901 -0.5623  1.6384  0.5661
  361MOL0     H48682   6.277  11.132   6.113 -0.0937 -1.3857 -0.4636
  361MOL0     H48683   6.375  11.290   6.113 -0.1578 -1.2007  1.7315
  361MOL0     H48684   6.468  11.061   6.016  0.9687  2.5100  3.5522
  361MOL0     H48685   6.373  11.113   5.877 -0.8032  0.3189  0.5075
  361MOL0     H48686   6.627  11.286   6.130  1.0917 -0.8612  0.8415
  361MOL0     H48687   6.810  11.566   5.981  4.2661  1.6316  1.8974
  361MOL0     H48688   6.854  11.439   6.104 -0.9774  2.4347  0.7455
  361MOL0     H48689   6.984  11.325   5.939  4.0379  0.8581 -0.0964
  361MOL0     H48690   6.954  11.451   5.818  0.7981 -0.7734 -0.0423
  361MOL0     H48691   7.090  11.488   6.089  0.7713 -1.3345  0.2126
  361MOL0     H48692   7.074  11.622   5.979 -2.9751 -0.3083  1.7003
  361MOL0     H48693   7.224  11.523   5.814 -2.8807  1.1753  0.2080
  361MOL0     H48694   7.215  11.365   5.911 -1.6742  0.4407  1.8368
  361MOL0     H48695   7.502  11.594   6.137  0.1749 -0.1932 -1.4209
  361MOL0     H48696   7.752  11.589   6.092  4.9578 -2.9736 -1.4301
  361MOL0     H48697   8.165  11.629   6.091 -2.1383 -1.4247  0.6980
  361MOL0     H48698   8.404  11.598   6.063  0.5106 -0.1639  0.2898
  361MOL0     H48699   8.597  11.580   5.911 -1.6792 -1.2637 -2.7548
  361MOL0     H48700   8.599  11.490   6.069  0.9481  1.3587  1.0578
  361MOL0     H48701   8.774  11.340   5.963  3.7713  0.6439 -1.0600
  361MOL0     H48702   8.757  11.437   5.813  0.3603 -2.4913  0.0209
  361MOL0     H48703   8.815  11.642   5.991 -0.6320 -0.1388  2.8730
  361MOL0     H48704   8.847  11.508   6.102  0.4153  0.4627  1.0981
  361MOL0     H48705   8.979  11.579   5.840 -1.4416  0.4731  0.7354
  361MOL0     H48706   9.007  11.421   5.898  0.2685  1.1538 -3.2121
  361MOL0     H48707   9.100  11.534   6.122  0.0628 -2.1270 -0.7626
  361MOL0     H48708   9.086  11.683   6.028 -2.6142 -0.2467 -2.0203
  361MOL0     H48709   9.280  11.464   6.009 -2.8932 -1.4025  0.2867
  361MOL0     H48710   9.231  11.535   5.860  2.4920  0.1688  0.8220
  361MOL0     H48711   9.332  11.716   6.081  2.0701  3.8729 -1.8618
  361MOL0     H48712   9.289  11.761   5.923  0.5840  0.1912 -0.6922
  361MOL0     H48713   9.540  11.705   5.993 -0.5582 -1.9481  5.6370
  361MOL0     H48714   9.492  11.543   5.972 -1.3070  0.4266  0.9032
  361MOL0     H48715   8.327  11.255   5.822  1.0052 -0.0360  0.0494
  361MOL0     H48716   8.096  11.272   5.854 -1.1576 -0.1500  1.9686
  361MOL0     H48717   7.648  11.365   5.719  1.3876 -1.4575  0.9732
  361MOL0     H48718   7.419  11.366   5.788 -1.1425  0.1779  1.0455
  361MOL0     H48719   5.649  10.741   6.346 -0.7772  0.7219 -4.0263
  361MOL0     H48720   5.410  10.675   6.420 -1.0024  0.0635 -1.3772
  361MOL0     H48721   4.938  10.751   6.162  0.2593  1.1042  0.7679
  361MOL0     H48722   4.710  10.665   6.197  2.2719  1.3550 -1.7834
  361MOL0     H48723   4.517  10.647   6.259 -0.8665 -0.5946 -1.0210
  361MOL0     H48724   4.412  10.559   6.371 -0.0932 -0.9819  0.9427
  361MOL0     H48725   4.574  10.356   6.370 -1.4327 -0.1575  0.8524
  361MOL0     H48726   4.641  10.438   6.219 -0.6772  3.0212 -0.7802
  361MOL0     H48727   4.430  10.436   6.100  0.2759 -1.5534 -1.7077
  361MOL0     H48728   4.341  10.383   6.238 -0.4715 -0.8382 -0.8492
  361MOL0     H48729   4.462  10.159   6.214  0.2373  1.4346  1.9470
  361MOL0     H48730   4.397  10.210   6.059 -0.0591 -0.0684 -0.1553
  361MOL0     H48731   4.797  10.200   5.956 -2.4159 -0.4118 -2.7887
  361MOL0     H48732   4.763  10.643   6.610 -1.5919  0.1591 -0.3714
  361MOL0     H48733   4.985  10.687   6.711 -0.2090 -3.0352 -1.3490
  361MOL0     H48734   5.122  10.667   6.613  0.6295  1.2357  1.1266
  361MOL0     H48735   5.058  10.830   6.651  1.1163 -0.0242  2.9358
  362MOL0     O48736   7.462  10.731  10.208  0.4152 -0.4314  0.1427
  362MOL0     C48737   7.478  10.657  10.115 -0.0766  0.4964  0.7220
  362MOL0     O48738   7.597  10.585  10.082  0.4399 -0.0223  0.0583
  362MOL0     C48739   7.720  10.597  10.141 -0.4526  0.4924 -0.1094
  362MOL0     C48740   7.831  10.537  10.074 -0.1824 -0.5067 -0.0741
  362MOL0     C48741   7.966  10.550  10.115 -0.8525 -0.9488 -0.3115
  362MOL0     C48742   7.994  10.617  10.232 -0.1384  0.7771 -0.3939
  362MOL0     O48743   8.111  10.653  10.271  0.7483  0.1271 -0.4945
  362MOL0     C48744   8.168  10.748  10.181 -0.0898  0.4937  0.1892
  362MOL0     C48745   8.286  10.675  10.116  0.0049  0.1400  0.3811
  362MOL0     C48746   8.398  10.784  10.083  0.1283 -0.2772 -0.1041
  362MOL0     C48747   8.522  10.718  10.020 -1.3048 -0.6378 -0.2011
  362MOL0     C48748   8.615  10.826   9.961  0.0265  0.6295  0.5273
  362MOL0     C48749   8.741  10.759   9.904 -0.2006  0.0257  0.7076
  362MOL0     C48750   8.863  10.851   9.885  0.0406  0.5942 -0.3770
  362MOL0     C48751   8.856  10.931   9.759  0.6731  0.2682 -0.4014
  362MOL0     N48752   8.950  11.040   9.770  0.0263 -0.1329 -0.5521
  362MOL0     C48753   9.089  11.032   9.781 -0.0814  0.2162  0.1616
  362MOL0     C48754   9.132  11.161   9.790  0.1308  0.6892 -0.2712
  362MOL0     C48755   9.273  11.204   9.768  0.3853  0.5280 -1.2511
  362MOL0     C48756   9.315  11.195   9.625 -0.6098 -0.1420 -1.2072
  362MOL0     C48757   9.452  11.274   9.600 -0.2320  0.5286  0.3465
  362MOL0     C48758   9.574  11.193   9.628 -0.2913 -0.4453 -0.3511
  362MOL0     O48759   9.677  11.237   9.539 -0.0786 -0.2345 -0.0142
  362MOL0     C48760   9.767  11.345   9.566  0.5452 -0.1281 -0.5830
  362MOL0     C48761   9.885  11.367   9.480  0.0475  0.3877 -1.0175
  362MOL0     C48762   9.961  11.480   9.497 -0.2881 -1.3345  0.0837
  362MOL0     C48763   9.939  11.573   9.603  0.3844  0.5414 -0.0520
  362MOL0     C48764  10.026  11.686   9.625 -0.1272 -0.5837 -0.0765
  362MOL0     O48765  10.154  11.691   9.577 -0.1240 -0.1743  0.7325
  362MOL0     C48766  10.227  11.806   9.588 -0.2431 -0.2480  0.8869
  362MOL0     C48767  10.358  11.806   9.628 -1.0119  0.0589 -0.0087
  362MOL0     C48768  10.436  11.920   9.617  0.6499 -0.2498 -0.3231
  362MOL0     C48769  10.387  12.040   9.580 -0.5668  0.0412  0.2668
  362MOL0     O48770  10.469  12.150   9.602 -0.5509  0.4749  0.5194
  362MOL0     C48771  10.456  12.265   9.514 -0.2634 -0.5069  0.8333
  362MOL0     C48772  10.598  12.326   9.513 -0.2198 -0.3496  0.1883
  362MOL0     C48773  10.592  12.458   9.431  0.9537 -0.3696  0.5288
  362MOL0     C48774  10.714  12.550   9.454  0.0403  0.1308  0.3665
  362MOL0     C48775  10.685  12.696   9.419  0.3948 -0.5521 -0.5854
  362MOL0     C48776  10.804  12.754   9.356 -0.0298  0.0958  0.1182
  362MOL0     C48777  10.768  12.895   9.316  0.6689 -0.6030 -0.8112
  362MOL0     C48778  10.878  12.978   9.250 -0.3296  0.3305 -0.2842
  362MOL0    Cl48779  11.003  13.018   9.378  0.2566  0.1962  0.1380
  362MOL0     C48780  10.258  12.049   9.548  0.4001  0.5220 -0.8157
  362MOL0     C48781  10.183  11.929   9.543  0.5020  0.2558  0.1651
  362MOL0     O48782   9.974  11.776   9.693 -0.5021 -0.1852  0.6592
  362MOL0     C48783   9.826  11.552   9.691 -0.0413  0.2962 -0.2397
  362MOL0     C48784   9.741  11.440   9.666 -0.4428 -0.0805 -0.6808
  362MOL0     N48785   9.025  11.249   9.787 -0.2524  0.6404 -0.1717
  362MOL0     N48786   8.919  11.171   9.778 -0.4376  0.2721  0.3957
  362MOL0     C48787   7.888  10.662  10.310  0.5965 -0.3208 -0.2093
  362MOL0     C48788   7.747  10.648  10.270  0.7087  0.1697 -0.4937
  362MOL0     C48789   7.364  10.610  10.027  0.3281 -0.6841 -0.7458
  362MOL0     C48790   7.239  10.664  10.069  0.7440  0.5110 -0.0745
  362MOL0     C48791   7.128  10.648   9.986 -0.0114 -0.2652 -0.0406
  362MOL0     C48792   7.135  10.572   9.869  0.2517 -0.0391  0.3393
  362MOL0     O48793   7.009  10.545   9.812  0.9077  0.2640 -0.0897
  362MOL0     C48794   6.978  10.412   9.791 -1.1233  0.4337 -0.3323
  362MOL0     C48795   6.865  10.384   9.695 -0.2733  0.8567  0.2053
  362MOL0     C48796   6.738  10.465   9.739 -0.0686  0.2935 -0.3296
  362MOL0     C48797   6.604  10.431   9.661 -0.4775  0.3205  0.5512
  362MOL0     C48798   6.542  10.319   9.726  0.2823 -0.1024 -0.0256
  362MOL0     C48799   6.492  10.224   9.779  0.0777 -0.5222 -0.3013
  362MOL0     C48800   7.254  10.521   9.829  0.5649  0.2144  0.4480
  362MOL0     C48801   7.368  10.539   9.904 -0.8046  0.1840 -0.2365
  362MOL0     C48802   7.495  10.507   9.822  0.3795 -0.1238 -0.5167
  362MOL0     H48803   7.806  10.484   9.982 -2.7206 -0.9789  0.8003
  362MOL0     H48804   8.035  10.502  10.047 -0.7170 -1.7243  0.3650
  362MOL0     H48805   8.112  10.773  10.090 -2.1106  0.7720  1.4650
  362MOL0     H48806   8.204  10.839  10.230  2.5008 -0.1739 -0.3075
  362MOL0     H48807   8.249  10.626  10.026  1.0923 -0.5622  0.3005
  362MOL0     H48808   8.319  10.598  10.186 -2.1301  0.6780  2.0704
  362MOL0     H48809   8.423  10.832  10.179 -3.3435 -2.3153  2.0464
  362MOL0     H48810   8.345  10.861  10.027 -0.4803 -0.5640  0.0675
  362MOL0     H48811   8.570  10.669  10.106 -0.3133  0.3511 -0.1641
  362MOL0     H48812   8.503  10.641   9.946  1.5202 -0.9060 -0.7887
  362MOL0     H48813   8.556  10.883   9.889  0.3627 -0.9129 -1.0540
  362MOL0     H48814   8.651  10.880  10.049  0.4081 -1.6720  1.8850
  362MOL0     H48815   8.763  10.672   9.967  0.1120 -0.6691 -0.3406
  362MOL0     H48816   8.711  10.718   9.807 -4.7134 -0.3542  2.0029
  362MOL0     H48817   8.955  10.794   9.895 -0.9674 -1.0120  0.0708
  362MOL0     H48818   8.861  10.926   9.964  1.1492 -2.5318  2.8609
  362MOL0     H48819   8.877  10.872   9.669  0.4064 -3.4754  1.7637
  362MOL0     H48820   8.757  10.976   9.744  0.5432 -0.2735 -1.2176
  362MOL0     H48821   9.154  10.945   9.779  0.2211  0.2977  2.9001
  362MOL0     H48822   9.282  11.305   9.809 -2.0753  0.6576 -0.8502
  362MOL0     H48823   9.332  11.131   9.824 -2.0597  1.3767  2.8625
  362MOL0     H48824   9.321  11.091   9.592  2.3681  0.2722 -2.2725
  362MOL0     H48825   9.246  11.246   9.558 -0.4704  0.9884 -0.5225
  362MOL0     H48826   9.455  11.372   9.649  3.3749  0.5615  0.3644
  362MOL0     H48827   9.448  11.288   9.492  1.9300 -0.9872 -0.0002
  362MOL0     H48828   9.552  11.088   9.606 -0.1061 -0.0392 -2.8595
  362MOL0     H48829   9.610  11.198   9.731 -3.6660 -2.4446  1.0998
  362MOL0     H48830   9.895  11.293   9.401 -1.3682 -0.0604 -0.8057
  362MOL0     H48831  10.025  11.519   9.417 -0.6255  0.9182  0.8246
  362MOL0     H48832  10.402  11.710   9.649 -1.8016 -0.5031 -0.8505
  362MOL0     H48833  10.541  11.905   9.640  0.2365 -2.4876  0.3237
  362MOL0     H48834  10.428  12.229   9.415 -1.7579 -0.9489  1.3909
  362MOL0     H48835  10.381  12.334   9.553  0.3279  0.5516  0.1319
  362MOL0     H48836  10.624  12.370   9.609 -0.6709  1.2368 -0.3912
  362MOL0     H48837  10.676  12.261   9.473 -1.0155 -0.7703 -0.7253
  362MOL0     H48838  10.583  12.437   9.324  0.4740  2.9804 -0.1873
  362MOL0     H48839  10.497  12.508   9.454  1.9480  0.9054  2.0652
  362MOL0     H48840  10.801  12.520   9.395  0.6887  3.9971 -0.9401
  362MOL0     H48841  10.753  12.541   9.556  1.2373  0.6474 -0.0222
  362MOL0     H48842  10.654  12.750   9.509 -3.2011  0.9728 -2.5064
  362MOL0     H48843  10.602  12.698   9.348 -3.1494  0.1875  3.2157
  362MOL0     H48844  10.886  12.760   9.428 -2.5476  0.7660  3.1482
  362MOL0     H48845  10.836  12.702   9.266  2.5061  0.9653  0.4223
  362MOL0     H48846  10.736  12.962   9.396  1.3901 -0.5834 -0.5402
  362MOL0     H48847  10.679  12.891   9.252 -0.2467 -1.5701  0.4715
  362MOL0     H48848  10.919  12.918   9.168  1.5349  0.6713  0.3497
  362MOL0     H48849  10.844  13.072   9.207 -0.6903  1.2550  1.8759
  362MOL0     H48850  10.201  12.140   9.535 -1.0795 -0.6007 -2.6316
  362MOL0     H48851  10.088  11.921   9.492  1.0356  0.6912 -0.9144
  362MOL0     H48852   9.804  11.611   9.780 -0.9881  1.1539 -1.0265
  362MOL0     H48853   9.660  11.421   9.737 -0.3157 -4.8602 -1.4515
  362MOL0     H48854   7.909  10.712  10.403 -1.8480  1.6464 -0.6195
  362MOL0     H48855   7.668  10.671  10.341  1.3926 -0.8583  0.6501
  362MOL0     H48856   7.234  10.730  10.155 -0.0041  1.4394 -0.8072
  362MOL0     H48857   7.031  10.695  10.001 -1.6133 -1.5638 -4.6002
  362MOL0     H48858   6.957  10.364   9.887  1.1691 -0.9499 -0.4515
  362MOL0     H48859   7.058  10.362   9.734 -0.3801  1.7699 -0.4864
  362MOL0     H48860   6.853  10.276   9.681  1.0745  0.9458 -2.1647
  362MOL0     H48861   6.887  10.405   9.590 -2.0076 -1.6840 -0.7799
  362MOL0     H48862   6.771  10.568   9.720  2.3829 -0.2011  0.8442
  362MOL0     H48863   6.728  10.458   9.848  0.3296  0.5473 -0.2755
  362MOL0     H48864   6.541  10.518   9.643  1.2840  1.6899  0.6833
  362MOL0     H48865   6.631  10.395   9.562  0.2824  0.3657  0.7353
  362MOL0     H48866   6.440  10.138   9.817  1.0739 -0.4170  1.3909
  362MOL0     H48867   7.256  10.452   9.745 -0.1673 -0.6130  1.0809
  362MOL0     H48868   7.469  10.452   9.731 -1.8669  1.2128 -0.7453
  362MOL0     H48869   7.538  10.599   9.781 -2.9147  0.6516 -2.6041
  362MOL0     H48870   7.580  10.462   9.874  0.9047  0.6536 -0.6860
  363MOL0     O48871   5.309   4.174   0.857  0.9226  0.0242 -0.3574
  363MOL0     C48872   5.245   4.118   0.764  0.1193 -0.6058  0.2036
  363MOL0     O48873   5.275   4.129   0.626 -0.0410  0.7043 -0.1307
  363MOL0     C48874   5.385   4.191   0.591 -0.0279 -0.8216 -0.8438
  363MOL0     C48875   5.381   4.314   0.524  0.2916  0.4607 -0.0153
  363MOL0     C48876   5.498   4.373   0.479 -0.1710 -0.1777  0.5054
  363MOL0     C48877   5.618   4.304   0.492 -0.0603  0.2115  0.0654
  363MOL0     O48878   5.736   4.362   0.447  0.9751  0.5037 -0.8739
  363MOL0     C48879   5.867   4.296   0.462  0.3370  0.6709  0.0390
  363MOL0     C48880   5.966   4.389   0.404  1.0205  0.3757  0.4947
  363MOL0     C48881   6.098   4.318   0.391  0.2055  0.1643 -0.5874
  363MOL0     C48882   6.186   4.325   0.524 -0.6280  0.0924  1.0756
  363MOL0     C48883   6.315   4.238   0.503  0.5712 -0.4924 -0.2909
  363MOL0     C48884   6.404   4.257   0.627  0.5152 -0.9861 -0.4075
  363MOL0     C48885   6.540   4.189   0.603  0.4650  0.4506  0.5573
  363MOL0     C48886   6.640   4.284   0.522 -0.0532  0.2412  0.9571
  363MOL0     N48887   6.752   4.215   0.444  0.4621  0.6587 -0.6104
  363MOL0     C48888   6.818   4.097   0.472 -0.5417  0.4799 -0.7879
  363MOL0     C48889   6.892   4.064   0.370  0.1294  0.3198 -0.5848
  363MOL0     C48890   6.997   3.958   0.372 -0.5089  0.0767 -0.6797
  363MOL0     C48891   7.115   4.004   0.452  0.3077 -0.2686 -0.3283
  363MOL0     C48892   7.205   4.114   0.387  0.6746 -0.1132 -0.5523
  363MOL0     C48893   7.254   4.075   0.250 -0.6380 -0.2504  0.0998
  363MOL0     O48894   7.383   4.135   0.218  0.3124 -0.3701  0.7889
  363MOL0     C48895   7.503   4.088   0.268  0.1815  0.7154 -0.4559
  363MOL0     C48896   7.618   4.138   0.213 -1.0305 -0.7920 -0.5433
  363MOL0     C48897   7.746   4.092   0.254  0.1584 -0.3931 -0.5804
  363MOL0     C48898   7.754   3.996   0.360 -0.1769  0.1934  0.0621
  363MOL0     C48899   7.887   3.944   0.404 -0.7742  0.5437  0.8290
  363MOL0     O48900   7.901   3.812   0.432  0.4698 -0.3506 -0.3620
  363MOL0     C48901   8.021   3.772   0.485 -0.0321  0.5874 -1.0341
  363MOL0     C48902   8.136   3.746   0.407 -0.2517 -0.3670  0.3112
  363MOL0     C48903   8.252   3.709   0.465 -0.5654  0.4627  0.9501
  363MOL0     C48904   8.260   3.693   0.595 -0.5697 -0.4030  0.0464
  363MOL0     O48905   8.382   3.652   0.650 -0.0748 -0.6303  0.3517
  363MOL0     C48906   8.403   3.653   0.791  0.5714 -0.3811  0.4189
  363MOL0     C48907   8.553   3.645   0.811 -0.9526 -0.0728 -0.3088
  363MOL0     C48908   8.612   3.516   0.748  0.6829 -0.8941  1.2364
  363MOL0     C48909   8.758   3.509   0.768  0.1626  0.9106  0.4436
  363MOL0     C48910   8.812   3.378   0.709 -0.2041  0.0629 -0.1044
  363MOL0     C48911   8.963   3.371   0.737  0.2020 -0.9062  0.4494
  363MOL0     C48912   9.011   3.237   0.683  0.0733 -0.4057  0.1878
  363MOL0     C48913   9.097   3.172   0.796 -0.7378  0.1643 -0.0245
  363MOL0    Cl48914   9.243   3.281   0.813 -0.1724  0.1337  0.2510
  363MOL0     C48915   8.147   3.713   0.673  0.8342  0.4043  0.4096
  363MOL0     C48916   8.026   3.758   0.621 -0.6740  0.5307 -0.6676
  363MOL0     O48917   7.975   4.031   0.407  0.2988 -0.3043 -0.2442
  363MOL0     C48918   7.634   3.938   0.407 -0.0765 -0.4885 -0.0212
  363MOL0     C48919   7.512   3.987   0.367  0.7185  0.2044 -0.9582
  363MOL0     N48920   6.875   4.164   0.271 -0.0052 -0.5447 -0.2190
  363MOL0     N48921   6.793   4.247   0.321  0.1975  0.0067 -0.2807
  363MOL0     C48922   5.621   4.172   0.557 -0.6216 -0.1697 -0.1115
  363MOL0     C48923   5.503   4.120   0.604 -0.5592  0.9483  0.6087
  363MOL0     C48924   5.128   4.039   0.801  0.0008  0.4966 -0.1110
  363MOL0     C48925   5.039   4.099   0.895 -0.4003  0.6352  0.6884
  363MOL0     C48926   4.919   4.033   0.932 -0.2302 -0.7548  0.4184
  363MOL0     C48927   4.889   3.909   0.871  0.0366  0.0421  0.3928
  363MOL0     O48928   4.780   3.838   0.915 -0.4050  0.6757  0.2899
  363MOL0     C48929   4.811   3.735   1.009 -0.2102  0.2881 -0.1758
  363MOL0     C48930   4.685   3.715   1.099  0.5332  0.0075 -0.3849
  363MOL0     C48931   4.590   3.608   1.036  0.4272 -0.1727 -1.0337
  363MOL0     C48932   4.460   3.589   1.120  0.2276 -0.1800  0.3250
  363MOL0     C48933   4.361   3.509   1.047 -0.2292  0.5715 -0.1322
  363MOL0     C48934   4.283   3.441   0.987 -0.1825 -0.2617 -0.0851
  363MOL0     C48935   4.974   3.855   0.776  0.6268  0.6134 -0.2168
  363MOL0     C48936   5.095   3.915   0.740  0.3077 -0.2119 -0.0219
  363MOL0     C48937   5.189   3.852   0.640  0.4282  0.1556 -1.0488
  363MOL0     H48938   5.288   4.364   0.501  0.1541  0.0986 -0.2637
  363MOL0     H48939   5.486   4.466   0.425 -0.9747 -1.3657 -1.4312
  363MOL0     H48940   5.891   4.269   0.566  1.3102  2.7004  0.3982
  363MOL0     H48941   5.866   4.205   0.401  1.6535  0.4541  0.3120
  363MOL0     H48942   5.959   4.479   0.467 -0.6242  1.1169 -0.6795
  363MOL0     H48943   5.931   4.419   0.305 -1.2922  0.6034  1.3213
  363MOL0     H48944   6.148   4.368   0.308 -0.6802  2.1871  0.0349
  363MOL0     H48945   6.087   4.210   0.374  1.2071 -0.2712  1.2586
  363MOL0     H48946   6.216   4.429   0.542 -0.4722  0.6526 -1.9020
  363MOL0     H48947   6.135   4.291   0.614  0.0785  0.4632  1.6179
  363MOL0     H48948   6.292   4.132   0.489  0.6995 -0.6254  0.4388
  363MOL0     H48949   6.371   4.273   0.416 -1.8565  0.0754 -1.7019
  363MOL0     H48950   6.420   4.363   0.646  0.2512 -1.1755  0.9183
  363MOL0     H48951   6.354   4.212   0.713  0.7491  1.4135  1.0513
  363MOL0     H48952   6.528   4.091   0.555 -0.4758  0.5070  0.6646
  363MOL0     H48953   6.593   4.169   0.697  0.3948  2.1888  0.9876
  363MOL0     H48954   6.581   4.329   0.441  2.0293  0.0268 -0.7783
  363MOL0     H48955   6.684   4.354   0.593  3.1045  0.3667 -0.9222
  363MOL0     H48956   6.815   4.049   0.570 -1.2778 -1.6735 -1.8043
  363MOL0     H48957   6.964   3.868   0.424  0.9820  1.0837  2.2226
  363MOL0     H48958   7.022   3.936   0.267 -1.2302  0.0410 -0.8479
  363MOL0     H48959   7.084   4.044   0.549 -1.9745 -0.8397 -0.7642
  363MOL0     H48960   7.171   3.912   0.472 -3.4532 -3.0724 -1.4840
  363MOL0     H48961   7.288   4.130   0.456 -2.5984  3.4959  3.0793
  363MOL0     H48962   7.159   4.213   0.378  0.5772 -0.3002 -2.8105
  363MOL0     H48963   7.186   4.107   0.170  0.4877  1.9144 -0.0579
  363MOL0     H48964   7.275   3.968   0.246  3.6871  0.2850  2.9646
  363MOL0     H48965   7.618   4.217   0.138 -0.2152 -1.9197 -1.7794
  363MOL0     H48966   7.835   4.141   0.214  0.4055 -0.4205 -0.0745
  363MOL0     H48967   8.123   3.752   0.300 -2.9074 -0.3461  0.5896
  363MOL0     H48968   8.344   3.703   0.408 -2.0256  0.3169 -1.5363
  363MOL0     H48969   8.354   3.740   0.837 -0.9894 -0.0580 -1.6977
  363MOL0     H48970   8.357   3.568   0.841  0.6717 -0.2581  0.7234
  363MOL0     H48971   8.598   3.731   0.761 -1.4667 -1.1372 -2.7908
  363MOL0     H48972   8.560   3.645   0.920 -2.9652 -0.4770 -0.1347
  363MOL0     H48973   8.572   3.432   0.807  0.1129 -1.1669  0.4738
  363MOL0     H48974   8.586   3.508   0.642 -0.9160  2.5946  1.2555
  363MOL0     H48975   8.781   3.530   0.873 -0.9653  0.5295  0.7845
  363MOL0     H48976   8.808   3.583   0.705  0.9581  1.1596  1.3423
  363MOL0     H48977   8.804   3.375   0.600  2.9886 -0.0029 -0.4251
  363MOL0     H48978   8.764   3.289   0.750  1.0611 -0.7352 -0.3098
  363MOL0     H48979   9.020   3.453   0.692 -2.3511  0.1303 -1.0815
  363MOL0     H48980   8.978   3.379   0.845 -1.3109  0.0605  0.6056
  363MOL0     H48981   9.071   3.262   0.595  1.2097  2.2578  1.6117
  363MOL0     H48982   8.932   3.170   0.646  0.7887 -1.2342  0.1304
  363MOL0     H48983   9.048   3.170   0.893 -0.2704  0.0317  0.2098
  363MOL0     H48984   9.128   3.072   0.764 -1.4340  1.1873 -4.6210
  363MOL0     H48985   8.141   3.697   0.780  1.4546 -2.8993  0.0535
  363MOL0     H48986   7.947   3.779   0.693 -0.2109  0.8945 -0.2560
  363MOL0     H48987   7.647   3.870   0.491  0.5407  1.0214  1.1344
  363MOL0     H48988   7.423   3.931   0.396 -1.1492  2.4114 -2.0828
  363MOL0     H48989   5.709   4.111   0.571 -0.6587 -0.7867 -2.2874
  363MOL0     H48990   5.502   4.022   0.650 -0.2476  0.7688  0.2313
  363MOL0     H48991   5.068   4.196   0.935  0.4985  1.4132 -1.6379
  363MOL0     H48992   4.850   4.076   1.004  0.8694 -0.7078  1.4799
  363MOL0     H48993   4.894   3.754   1.077  0.0853  0.3481 -0.5453
  363MOL0     H48994   4.842   3.644   0.957  2.3588  0.0760  1.5378
  363MOL0     H48995   4.628   3.808   1.105  1.4255  0.5434  0.0613
  363MOL0     H48996   4.718   3.684   1.198 -3.1606 -1.8827  0.4142
  363MOL0     H48997   4.638   3.510   1.031  1.6260  0.4452 -2.0997
  363MOL0     H48998   4.556   3.643   0.938 -0.6880  2.0523  0.0768
  363MOL0     H48999   4.486   3.548   1.218  1.6516  2.4208  1.1463
  363MOL0     H49000   4.410   3.683   1.146 -1.7059 -1.5340  1.7434
  363MOL0     H49001   4.213   3.380   0.933  1.1208  0.2744 -2.4898
  363MOL0     H49002   4.945   3.761   0.731  0.7868  1.6143 -2.5531
  363MOL0     H49003   5.162   3.749   0.616  0.5419  0.5544 -3.0810
  363MOL0     H49004   5.190   3.904   0.543  0.9842  2.1760 -0.0176
  363MOL0     H49005   5.296   3.850   0.662  0.0967 -0.8942  0.5971
  364MOL0     O49006   1.041   6.062   8.851  0.0550 -0.2865  0.5387
  364MOL0     C49007   0.964   5.986   8.908  0.3772  0.8290 -0.2088
  364MOL0     O49008   0.926   5.860   8.864 -0.2166 -0.5448 -0.3143
  364MOL0     C49009   0.991   5.803   8.752 -0.6263  1.2379  0.5741
  364MOL0     C49010   0.919   5.689   8.705  0.2155 -0.6703 -0.0197
  364MOL0     C49011   0.964   5.613   8.599 -0.9289  0.1039 -0.2370
  364MOL0     C49012   1.092   5.648   8.539  0.2476 -0.2700  0.2812
  364MOL0     O49013   1.144   5.575   8.435 -0.1684 -0.2592  0.0114
  364MOL0     C49014   1.049   5.502   8.353 -0.3766 -0.2445  0.7614
  364MOL0     C49015   1.114   5.456   8.224 -0.1718  0.6084  1.2230
  364MOL0     C49016   1.030   5.355   8.147 -0.2556 -0.4338 -0.8619
  364MOL0     C49017   0.923   5.424   8.067  0.0456 -1.6849  0.0330
  364MOL0     C49018   0.843   5.344   7.971  0.3451  0.0072  0.6632
  364MOL0     C49019   0.724   5.263   8.026  0.1871 -0.1507 -0.0205
  364MOL0     C49020   0.646   5.191   7.912 -0.5029  0.1017 -0.4989
  364MOL0     C49021   0.717   5.051   7.889  0.1305 -0.1407  0.2325
  364MOL0     N49022   0.653   4.957   7.801  0.7631  0.6220  0.6580
  364MOL0     C49023   0.521   4.933   7.776 -0.4745 -0.6576 -0.0291
  364MOL0     C49024   0.509   4.840   7.680 -0.6966  0.3095  0.3088
  364MOL0     C49025   0.387   4.792   7.612  0.0103  0.2585 -0.1183
  364MOL0     C49026   0.373   4.635   7.603  0.0410 -0.0222 -0.3410
  364MOL0     C49027   0.250   4.585   7.518  0.0113  0.1933 -0.1779
  364MOL0     C49028   0.124   4.600   7.609 -0.7650 -0.3943 -0.2983
  364MOL0     O49029   0.008   4.557   7.547  0.5150  0.2558 -0.0357
  364MOL0     C49030  -0.107   4.553   7.630 -1.0166 -0.3273  0.7612
  364MOL0     C49031  -0.219   4.520   7.563 -0.3939 -0.3248  0.2068
  364MOL0     C49032  -0.348   4.525   7.621  0.5135  1.1029  0.4643
  364MOL0     C49033  -0.362   4.579   7.753  0.0980  0.5353  1.3994
  364MOL0     C49034  -0.490   4.621   7.806  1.4621 -0.3772  0.6200
  364MOL0     O49035  -0.495   4.712   7.905 -0.0276  0.4323 -0.7886
  364MOL0     C49036  -0.620   4.751   7.957 -0.1828 -0.0615  0.1852
  364MOL0     C49037  -0.642   4.754   8.095 -0.0131 -0.6968 -0.5128
  364MOL0     C49038  -0.757   4.811   8.150 -0.1539 -0.4588  0.4173
  364MOL0     C49039  -0.853   4.876   8.065  0.0576  0.0861  0.5195
  364MOL0     O49040  -0.970   4.928   8.122  0.2311 -0.1570 -0.0982
  364MOL0     C49041  -1.057   4.827   8.178  0.7218 -0.6033  0.2804
  364MOL0     C49042  -1.153   4.774   8.068  0.2352 -0.9477 -0.0913
  364MOL0     C49043  -1.269   4.700   8.126 -1.0206 -0.1848  0.4324
  364MOL0     C49044  -1.376   4.674   8.015 -0.9228 -0.1274  0.8452
  364MOL0     C49045  -1.470   4.561   8.047  0.5288  0.7648  0.2211
  364MOL0     C49046  -1.408   4.418   8.051  0.2183 -0.7703 -0.2414
  364MOL0     C49047  -1.533   4.318   8.052  0.5850  1.2368  0.1320
  364MOL0     C49048  -1.480   4.178   8.096  0.5816  0.3441 -0.3689
  364MOL0    Cl49049  -1.324   4.134   8.015  0.0019  0.2115 -0.1175
  364MOL0     C49050  -0.826   4.883   7.924  0.1635 -1.0479  0.0321
  364MOL0     C49051  -0.709   4.824   7.875  0.4674 -0.2742  0.8015
  364MOL0     O49052  -0.594   4.578   7.750 -0.4420  0.4896  0.0477
  364MOL0     C49053  -0.246   4.606   7.818 -0.2364  0.6436 -0.2467
  364MOL0     C49054  -0.118   4.592   7.762  0.0159 -0.3791  0.0490
  364MOL0     N49055   0.644   4.808   7.647 -0.4250 -0.0916  0.1599
  364MOL0     N49056   0.730   4.878   7.714  0.3104 -0.6726 -0.5412
  364MOL0     C49057   1.162   5.761   8.588  0.6255 -0.4344 -0.3957
  364MOL0     C49058   1.118   5.838   8.694  0.7909 -0.0845 -0.1718
  364MOL0     C49059   0.909   6.029   9.041 -0.8095  0.4864  0.7995
  364MOL0     C49060   0.857   5.923   9.117 -0.0020  0.2064  1.0623
  364MOL0     C49061   0.792   5.949   9.240  0.2951 -0.6118  0.0045
  364MOL0     C49062   0.763   6.080   9.286  0.3078 -0.2254  0.0971
  364MOL0     O49063   0.713   6.117   9.406 -0.2500 -0.0589 -0.1802
  364MOL0     C49064   0.646   6.015   9.489 -0.9360 -0.3909  0.2808
  364MOL0     C49065   0.511   5.970   9.440 -0.2674  0.2221 -0.6155
  364MOL0     C49066   0.416   5.925   9.554 -0.8210  0.3468  0.5901
  364MOL0     C49067   0.414   5.770   9.574  0.1365 -0.4360  0.2815
  364MOL0     C49068   0.358   5.715   9.701  0.3662  0.5062 -1.0136
  364MOL0     C49069   0.298   5.684   9.803 -0.7377 -0.7586  0.1464
  364MOL0     C49070   0.790   6.186   9.199 -0.2996 -0.3638  0.4448
  364MOL0     C49071   0.872   6.163   9.079 -0.4473 -0.9422  0.1824
  364MOL0     C49072   0.893   6.283   8.981 -0.0048 -0.0261  0.0576
  364MOL0     H49073   0.817   5.676   8.741 -0.3830 -0.8829 -1.7205
  364MOL0     H49074   0.900   5.530   8.570 -0.8892 -0.3015  0.8217
  364MOL0     H49075   1.022   5.410   8.405  2.2790  0.1546  3.0432
  364MOL0     H49076   0.964   5.570   8.339 -1.8685 -1.9038  1.4474
  364MOL0     H49077   1.194   5.393   8.265 -0.7118 -1.3258 -0.5287
  364MOL0     H49078   1.155   5.545   8.175  0.6164 -1.3051 -1.9169
  364MOL0     H49079   0.987   5.287   8.221  3.5085  0.6256  2.6603
  364MOL0     H49080   1.100   5.294   8.089  0.0725 -2.0996  1.1879
  364MOL0     H49081   0.846   5.467   8.131 -0.0128  1.3946 -1.8815
  364MOL0     H49082   0.966   5.512   8.018  0.1565 -2.1128 -0.6467
  364MOL0     H49083   0.797   5.409   7.896  2.0307 -0.9166 -1.2786
  364MOL0     H49084   0.906   5.290   7.901  0.5137  3.5469 -2.1911
  364MOL0     H49085   0.759   5.194   8.103  1.6475  1.2119  0.5961
  364MOL0     H49086   0.659   5.342   8.066 -0.6347  0.4328 -2.3274
  364MOL0     H49087   0.655   5.256   7.825  1.1315 -0.3120 -0.6642
  364MOL0     H49088   0.539   5.173   7.930 -1.0473 -0.4413 -3.6416
  364MOL0     H49089   0.822   5.068   7.862  0.1432  0.2526  0.5202
  364MOL0     H49090   0.726   4.994   7.982  0.9845 -0.1155  0.1743
  364MOL0     H49091   0.438   4.978   7.830  0.1163  0.9779 -0.4320
  364MOL0     H49092   0.298   4.832   7.661 -0.1706  0.9452 -0.9982
  364MOL0     H49093   0.390   4.820   7.507  0.4212  3.4916  0.6755
  364MOL0     H49094   0.458   4.588   7.554 -0.7887 -0.1566 -1.7082
  364MOL0     H49095   0.360   4.591   7.702 -2.2913  0.9162 -0.1618
  364MOL0     H49096   0.251   4.479   7.492 -1.2194 -0.1981  1.2215
  364MOL0     H49097   0.233   4.635   7.422  0.0815 -0.4203 -0.5134
  364MOL0     H49098   0.093   4.702   7.636  0.6878  0.1984 -0.7849
  364MOL0     H49099   0.146   4.545   7.701 -0.2521  1.9728  1.0654
  364MOL0     H49100  -0.219   4.489   7.459 -1.0481 -2.6736  0.8540
  364MOL0     H49101  -0.435   4.498   7.563  1.0666 -1.1167  0.5697
  364MOL0     H49102  -0.560   4.724   8.159 -0.4620 -3.4605 -1.0910
  364MOL0     H49103  -0.752   4.831   8.256 -1.4863  1.3520  0.1765
  364MOL0     H49104  -1.000   4.740   8.211  1.9065  0.6732  1.7853
  364MOL0     H49105  -1.113   4.871   8.260 -2.8287  1.0316 -2.7084
  364MOL0     H49106  -1.197   4.858   8.014 -0.1999 -0.1862  1.3863
  364MOL0     H49107  -1.087   4.716   8.003  3.3777  0.0335  2.0033
  364MOL0     H49108  -1.217   4.608   8.155  0.8974  0.6126 -0.2806
  364MOL0     H49109  -1.307   4.750   8.215 -4.6833 -1.3189 -0.3164
  364MOL0     H49110  -1.324   4.655   7.921  0.2990 -1.3148  1.7203
  364MOL0     H49111  -1.441   4.761   8.001 -1.9014 -0.9073  0.4359
  364MOL0     H49112  -1.551   4.558   7.975  0.7878  1.5692 -0.1093
  364MOL0     H49113  -1.512   4.585   8.145  0.4920 -1.3407  0.7638
  364MOL0     H49114  -1.332   4.408   7.973  3.6635  1.1371  2.5166
  364MOL0     H49115  -1.351   4.409   8.145  0.1425 -1.0539 -0.2237
  364MOL0     H49116  -1.562   4.310   7.947 -0.7612 -0.6107  0.5958
  364MOL0     H49117  -1.624   4.350   8.103 -0.6467 -0.7973 -0.6849
  364MOL0     H49118  -1.468   4.179   8.205  2.1965 -0.6282 -0.5106
  364MOL0     H49119  -1.555   4.101   8.079  0.3259  0.2139  1.1958
  364MOL0     H49120  -0.894   4.926   7.852  1.3612 -0.8359 -0.9973
  364MOL0     H49121  -0.678   4.833   7.771  0.2008 -0.2028  0.7286
  364MOL0     H49122  -0.239   4.646   7.918  0.4522  1.5845 -0.6600
  364MOL0     H49123  -0.041   4.627   7.830 -0.2178 -2.2838  1.3500
  364MOL0     H49124   1.250   5.779   8.526 -0.0018 -0.7560 -1.4114
  364MOL0     H49125   1.177   5.927   8.716 -0.2329 -0.2111  3.8689
  364MOL0     H49126   0.870   5.819   9.091  0.2180  0.1428  1.4187
  364MOL0     H49127   0.779   5.864   9.305  2.4265 -1.0039 -0.0110
  364MOL0     H49128   0.625   6.065   9.584 -1.5727 -1.4146  0.6950
  364MOL0     H49129   0.713   5.932   9.515 -1.3319 -1.0375 -0.6907
  364MOL0     H49130   0.518   5.900   9.357  1.0623  0.3188 -0.6027
  364MOL0     H49131   0.471   6.062   9.398 -0.3803  1.0429  1.1696
  364MOL0     H49132   0.314   5.947   9.519  0.2200  0.3377 -2.7722
  364MOL0     H49133   0.440   5.968   9.652  2.9705  1.2802 -0.5811
  364MOL0     H49134   0.360   5.720   9.492  1.4056 -1.4656  0.0336
  364MOL0     H49135   0.517   5.737   9.554  0.2359  0.0807 -0.0883
  364MOL0     H49136   0.241   5.642   9.883  2.4114 -3.0070  1.4563
  364MOL0     H49137   0.753   6.285   9.223  2.2825  0.6380  0.6822
  364MOL0     H49138   0.879   6.261   8.874 -0.2542 -0.5885  0.2012
  364MOL0     H49139   0.821   6.358   9.018  0.0621 -0.3251  0.8000
  364MOL0     H49140   0.991   6.329   8.990  0.8491 -1.6945 -0.3823
  365MOL0     O49141   1.336  10.259   7.073 -0.6412 -0.1514 -0.1156
  365MOL0     C49142   1.333  10.186   7.173  0.0777  0.3168 -0.5222
  365MOL0     O49143   1.441  10.123   7.227  0.6849  0.0149  0.2982
  365MOL0     C49144   1.573  10.152   7.207 -0.6512 -0.4683 -0.4408
  365MOL0     C49145   1.624  10.274   7.174  0.1951 -0.6184 -0.3709
  365MOL0     C49146   1.759  10.301   7.146 -0.1422 -0.2020 -0.3219
  365MOL0     C49147   1.855  10.198   7.151  0.5701  0.0709 -0.3441
  365MOL0     O49148   1.983  10.229   7.135 -0.1886 -0.5386 -0.3235
  365MOL0     C49149   2.080  10.145   7.195 -1.1318  0.4941 -0.5685
  365MOL0     C49150   2.213  10.192   7.135 -0.1406 -0.0210 -0.2198
  365MOL0     C49151   2.217  10.172   6.982 -0.9685  0.1178  0.2942
  365MOL0     C49152   2.357  10.229   6.940 -0.3198 -0.0242 -0.1301
  365MOL0     C49153   2.348  10.259   6.789  0.3032  0.5958  0.2926
  365MOL0     C49154   2.482  10.329   6.742 -0.7001 -0.3746 -0.1376
  365MOL0     C49155   2.486  10.348   6.589  0.6335  0.0085  0.1579
  365MOL0     C49156   2.629  10.418   6.555  0.1857  0.3066  0.0706
  365MOL0     N49157   2.734  10.328   6.574 -0.4073  0.9213  0.3293
  365MOL0     C49158   2.804  10.319   6.687 -0.1464 -0.5903 -0.3755
  365MOL0     C49159   2.916  10.249   6.663  0.1372 -0.1225 -0.3197
  365MOL0     C49160   3.025  10.214   6.757  0.9926 -0.8446 -0.2512
  365MOL0     C49161   3.164  10.280   6.727 -0.5066  0.1685  0.4919
  365MOL0     C49162   3.271  10.225   6.819  0.1269  0.7133  0.2905
  365MOL0     C49163   3.413  10.287   6.802 -1.1255 -0.7333 -0.1273
  365MOL0     O49164   3.474  10.188   6.719  0.3003 -0.3488 -0.1454
  365MOL0     C49165   3.605  10.194   6.674 -0.0886 -1.1173 -0.1941
  365MOL0     C49166   3.662  10.088   6.617 -0.3145 -0.0752  0.0313
  365MOL0     C49167   3.807  10.065   6.610  0.3557  0.1946 -0.0083
  365MOL0     C49168   3.896  10.157   6.655 -0.5087 -0.0560  0.1394
  365MOL0     C49169   4.043  10.150   6.653  0.2633  0.9031  0.3143
  365MOL0     O49170   4.102  10.241   6.731  0.0165 -0.2523  0.6577
  365MOL0     C49171   4.241  10.222   6.736  0.1227  0.6307 -1.1476
  365MOL0     C49172   4.304  10.141   6.827 -0.4000  0.5579  0.4382
  365MOL0     C49173   4.443  10.131   6.827 -0.5060  0.4064  0.5124
  365MOL0     C49174   4.526  10.206   6.742  0.9751 -0.3886 -0.1356
  365MOL0     O49175   4.658  10.191   6.769 -0.5070  0.9643  0.5676
  365MOL0     C49176   4.734  10.305   6.727  0.2857  0.2288  0.1892
  365MOL0     C49177   4.883  10.294   6.774 -0.0528  0.5501  0.3580
  365MOL0     C49178   4.981  10.376   6.687 -0.3236 -0.3245 -0.1523
  365MOL0     C49179   5.120  10.389   6.754 -1.0677 -0.1894  0.0975
  365MOL0     C49180   5.131  10.458   6.895 -0.3143  0.1523  0.4653
  365MOL0     C49181   5.268  10.484   6.947  1.1954 -0.3074 -0.1004
  365MOL0     C49182   5.384  10.504   6.845  0.3797  0.0146 -0.0288
  365MOL0     C49183   5.513  10.529   6.925  0.2751  0.5769 -0.6339
  365MOL0    Cl49184   5.569  10.371   6.975  0.1017  0.3093  0.0143
  365MOL0     C49185   4.457  10.285   6.639  0.3147 -0.3782 -0.0447
  365MOL0     C49186   4.315  10.289   6.638 -0.3632  0.3395 -0.0199
  365MOL0     O49187   4.102  10.050   6.596  1.1886  0.1149 -0.3297
  365MOL0     C49188   3.832  10.281   6.709  0.4477  1.0175 -0.1764
  365MOL0     C49189   3.691  10.292   6.722 -0.5703  0.1702 -0.2881
  365MOL0     N49190   2.918  10.233   6.526 -0.2884 -0.6068 -0.0669
  365MOL0     N49191   2.808  10.281   6.472 -0.1365 -0.4710 -0.2395
  365MOL0     C49192   1.804  10.069   7.201  0.2398 -0.5352  0.1544
  365MOL0     C49193   1.673  10.047   7.227  1.3032 -0.4960 -0.9611
  365MOL0     C49194   1.196  10.156   7.227 -0.7152 -0.2815  0.8106
  365MOL0     C49195   1.106  10.263   7.229  1.1970  0.0976  0.3044
  365MOL0     C49196   0.982  10.246   7.305 -0.7156 -0.1927  1.0128
  365MOL0     C49197   0.943  10.116   7.337 -0.0709 -0.2025 -0.0578
  365MOL0     O49198   0.827  10.108   7.405  0.3115 -0.1791 -0.5594
  365MOL0     C49199   0.778   9.983   7.443  0.1517  0.3417  0.3836
  365MOL0     C49200   0.638  10.002   7.503 -0.1181  0.2572  0.9762
  365MOL0     C49201   0.644  10.086   7.636  0.1410 -0.4975 -0.0695
  365MOL0     C49202   0.509  10.127   7.699 -0.1180  0.9058  0.1023
  365MOL0     C49203   0.421  10.187   7.602 -0.1570  0.6721  0.6623
  365MOL0     C49204   0.346  10.231   7.522  1.3078 -0.0005  0.3200
  365MOL0     C49205   1.028  10.005   7.309  0.0789  0.1613 -0.1482
  365MOL0     C49206   1.156  10.019   7.258 -0.8725 -1.2661 -0.5700
  365MOL0     C49207   1.234   9.901   7.220  0.5254 -0.0692 -0.0811
  365MOL0     H49208   1.557  10.357   7.159  0.4462  0.1956  2.4826
  365MOL0     H49209   1.786  10.393   7.095 -1.2184 -0.9973 -2.4042
  365MOL0     H49210   2.067  10.153   7.304  0.8818 -0.1015 -0.2267
  365MOL0     H49211   2.057  10.039   7.177 -0.3268 -0.4222  2.8757
  365MOL0     H49212   2.286  10.126   7.183 -0.8394 -3.0906 -3.0515
  365MOL0     H49213   2.225  10.299   7.157 -2.1483  0.3126 -0.5454
  365MOL0     H49214   2.132  10.225   6.939 -1.8933 -1.0883  0.6097
  365MOL0     H49215   2.212  10.066   6.957  1.7030  0.1563 -0.8115
  365MOL0     H49216   2.369  10.329   6.983 -1.4591  0.5857 -1.1961
  365MOL0     H49217   2.448  10.177   6.972  0.1719  2.5882  3.4401
  365MOL0     H49218   2.344  10.165   6.734  0.9520  0.8125 -0.1387
  365MOL0     H49219   2.264  10.323   6.761 -2.5519 -3.1396 -0.4779
  365MOL0     H49220   2.491  10.423   6.798  1.1863 -0.4024 -0.3355
  365MOL0     H49221   2.569  10.272   6.775  0.9422  1.9195 -0.2862
  365MOL0     H49222   2.411  10.423   6.560  0.1219 -0.7093 -0.3927
  365MOL0     H49223   2.466  10.255   6.535  1.2015  0.1043 -0.2236
  365MOL0     H49224   2.634  10.461   6.455  1.3855 -2.0955 -0.9905
  365MOL0     H49225   2.649  10.492   6.632  3.4510 -1.2806  0.9441
  365MOL0     H49226   2.768  10.346   6.785  0.7146  1.2334 -0.5108
  365MOL0     H49227   2.996  10.235   6.861 -2.3112 -0.2632 -1.1774
  365MOL0     H49228   3.034  10.107   6.739 -1.0335 -0.9162 -1.1388
  365MOL0     H49229   3.207  10.258   6.629  2.0415  2.8600  0.8544
  365MOL0     H49230   3.167  10.387   6.751  2.0520 -0.2410  2.4189
  365MOL0     H49231   3.284  10.118   6.798 -3.0706  0.3004 -0.1118
  365MOL0     H49232   3.231  10.245   6.919 -4.4249  1.4044 -1.4189
  365MOL0     H49233   3.472  10.282   6.894 -1.0952  3.3602  0.2318
  365MOL0     H49234   3.414  10.390   6.765 -1.5054  0.3041  2.5540
  365MOL0     H49235   3.605  10.001   6.584  1.1555 -1.9975  2.1932
  365MOL0     H49236   3.839   9.980   6.551  3.1575  0.2432  1.3404
  365MOL0     H49237   4.255  10.083   6.904 -0.4562  1.3464  1.0044
  365MOL0     H49238   4.490  10.065   6.899 -0.2418 -1.1151 -0.9660
  365MOL0     H49239   4.733  10.297   6.618  0.6204  2.3285 -0.0237
  365MOL0     H49240   4.698  10.403   6.760  0.0517 -0.0091  0.6491
  365MOL0     H49241   4.890  10.323   6.880  1.5391  3.2048 -0.3651
  365MOL0     H49242   4.916  10.190   6.773 -2.6194 -0.3322 -1.1194
  365MOL0     H49243   4.987  10.327   6.590  0.0672 -0.2767 -0.1551
  365MOL0     H49244   4.940  10.475   6.665 -1.3448 -0.3931  1.2671
  365MOL0     H49245   5.178  10.451   6.686 -3.3174  2.0323  0.0582
  365MOL0     H49246   5.172  10.293   6.767 -0.1508  0.5161  1.9164
  365MOL0     H49247   5.081  10.383   6.956 -1.6853  1.1039  0.5474
  365MOL0     H49248   5.069  10.548   6.889  0.6434  0.8739  1.0649
  365MOL0     H49249   5.250  10.571   7.011  0.7800  1.2663 -2.2667
  365MOL0     H49250   5.288  10.397   7.011 -2.0325 -0.0742  1.4238
  365MOL0     H49251   5.364  10.592   6.783 -0.1806 -1.1907 -1.6296
  365MOL0     H49252   5.395  10.415   6.783 -1.9400 -2.3765  2.6893
  365MOL0     H49253   5.594  10.573   6.866  1.3758  0.4127  0.7035
  365MOL0     H49254   5.502  10.586   7.017  1.1084 -0.9723  0.4766
  365MOL0     H49255   4.510  10.354   6.574 -1.7756  0.0048 -1.4275
  365MOL0     H49256   4.267  10.351   6.563  2.9162  4.0275  0.6129
  365MOL0     H49257   3.886  10.363   6.754 -2.7557  1.5105  3.3445
  365MOL0     H49258   3.651  10.382   6.767 -1.1801 -0.7193  0.9991
  365MOL0     H49259   1.876   9.988   7.202  2.4065  1.3091  2.0706
  365MOL0     H49260   1.635   9.951   7.262  2.0375 -0.9177 -1.3025
  365MOL0     H49261   1.144  10.362   7.209  0.8659 -0.1550 -1.8155
  365MOL0     H49262   0.916  10.330   7.323 -0.7040  0.9426 -3.0970
  365MOL0     H49263   0.843   9.935   7.518  2.8343  0.0400 -1.9382
  365MOL0     H49264   0.764   9.928   7.349  0.1953  0.7453  0.1394
  365MOL0     H49265   0.593   9.904   7.521 -2.1621  1.1638  1.1559
  365MOL0     H49266   0.579  10.048   7.424  0.2929 -3.8415 -2.0251
  365MOL0     H49267   0.690  10.181   7.606 -0.9961 -0.4024 -1.6273
  365MOL0     H49268   0.702  10.035   7.713 -0.5616 -0.7288  0.3113
  365MOL0     H49269   0.469  10.039   7.750 -1.3550 -0.5800 -3.1848
  365MOL0     H49270   0.522  10.206   7.775  2.0835  1.6697 -0.9688
  365MOL0     H49271   0.290  10.277   7.443  0.6944 -1.0564  0.1303
  365MOL0     H49272   0.996   9.902   7.322  0.5102 -0.0232 -0.5233
  365MOL0     H49273   1.325   9.880   7.277  1.1784  2.2299 -0.1959
  365MOL0     H49274   1.175   9.812   7.243 -1.2089  1.5106  2.1328
  365MOL0     H49275   1.261   9.915   7.115  2.0287  0.3647  0.3427
  366MOL0     O49276   3.066   1.871   7.717 -0.4201 -0.4912  0.2645
  366MOL0     C49277   3.084   1.890   7.598  0.9587 -0.0382 -0.4925
  366MOL0     O49278   3.202   1.889   7.534 -0.7727  0.0420 -0.1769
  366MOL0     C49279   3.315   1.850   7.610  0.1582  0.8803 -0.0229
  366MOL0     C49280   3.332   1.718   7.662  0.6071 -0.6329  0.1073
  366MOL0     C49281   3.452   1.682   7.721 -0.9910 -1.1718  0.0382
  366MOL0     C49282   3.550   1.782   7.758  0.8009  0.5447  0.3662
  366MOL0     O49283   3.672   1.766   7.824 -0.0162  1.0669  0.0287
  366MOL0     C49284   3.686   1.636   7.890  0.0778  0.0429  0.4314
  366MOL0     C49285   3.746   1.530   7.796 -0.6742 -0.9872  0.2194
  366MOL0     C49286   3.816   1.412   7.869 -0.4086 -0.1794  0.0230
  366MOL0     C49287   3.951   1.450   7.918  0.0402  0.4974  0.6420
  366MOL0     C49288   4.036   1.328   7.950 -0.2541 -0.1221  0.6651
  366MOL0     C49289   4.180   1.354   7.981 -0.3779  0.6135 -0.6656
  366MOL0     C49290   4.250   1.223   8.019  0.2766  0.6256  0.8093
  366MOL0     C49291   4.401   1.227   8.045  0.2230 -0.5696 -0.0688
  366MOL0     N49292   4.446   1.320   8.151  0.0539 -0.0384  0.6236
  366MOL0     C49293   4.494   1.272   8.271 -0.1581  0.3908 -0.7424
  366MOL0     C49294   4.547   1.386   8.328  0.3299  0.3525 -0.7450
  366MOL0     C49295   4.629   1.391   8.456  0.0440 -0.4445  0.2121
  366MOL0     C49296   4.781   1.381   8.434 -0.0292 -0.3226  0.1756
  366MOL0     C49297   4.868   1.431   8.553 -1.2753 -0.5646 -0.1352
  366MOL0     C49298   5.020   1.415   8.516 -0.2659 -0.6447  0.4271
  366MOL0     O49299   5.050   1.274   8.499  0.0269 -0.3315 -0.0992
  366MOL0     C49300   5.190   1.251   8.491  0.7248 -0.1824 -0.0191
  366MOL0     C49301   5.263   1.250   8.610 -0.2259  0.3923 -0.5762
  366MOL0     C49302   5.402   1.231   8.602  0.2049  0.0999  0.2360
  366MOL0     C49303   5.468   1.211   8.482  0.7190 -0.2256  0.0356
  366MOL0     C49304   5.608   1.189   8.466 -1.2921 -0.4049  0.9684
  366MOL0     O49305   5.656   1.182   8.342 -0.5569 -0.3766  0.4829
  366MOL0     C49306   5.781   1.126   8.327 -0.9139  0.3354 -0.2375
  366MOL0     C49307   5.891   1.168   8.404  0.0724  0.7584 -0.5915
  366MOL0     C49308   6.020   1.109   8.388  0.2675  0.0093  0.3985
  366MOL0     C49309   6.040   1.004   8.296  0.8234  0.4340  0.4969
  366MOL0     O49310   6.158   0.926   8.293  0.6653 -0.5075 -0.3932
  366MOL0     C49311   6.248   0.928   8.405 -0.0002 -0.0964 -0.4421
  366MOL0     C49312   6.363   0.825   8.390  0.9588 -0.1459 -0.3088
  366MOL0     C49313   6.467   0.867   8.295 -0.4917  0.6390 -0.2653
  366MOL0     C49314   6.559   0.969   8.363 -0.0562 -0.6591 -0.1027
  366MOL0     C49315   6.689   1.003   8.285 -0.7449  0.2209 -0.7272
  366MOL0     C49316   6.779   0.886   8.238 -0.1385  0.5567  0.1455
  366MOL0     C49317   6.918   0.928   8.183  0.0478 -0.4294  0.0602
  366MOL0     C49318   7.007   0.808   8.175  0.4620 -0.5278  0.0815
  366MOL0    Cl49319   7.153   0.881   8.102 -0.1039  0.6162  0.0980
  366MOL0     C49320   5.931   0.968   8.212  0.2099  0.3323  0.4177
  366MOL0     C49321   5.804   1.030   8.224 -1.0292 -0.4837  0.2001
  366MOL0     O49322   5.672   1.172   8.573 -0.1447  0.5036  0.1856
  366MOL0     C49323   5.389   1.218   8.367  0.3191 -0.3957  0.4038
  366MOL0     C49324   5.251   1.241   8.363  0.3137  1.0625  0.5294
  366MOL0     N49325   4.514   1.498   8.253 -0.0683 -0.0448 -0.8133
  366MOL0     N49326   4.446   1.453   8.148 -0.8694  0.3170 -0.6167
  366MOL0     C49327   3.523   1.919   7.717 -0.6503  0.6262  0.0187
  366MOL0     C49328   3.407   1.951   7.645  0.3403  0.7682  0.0260
  366MOL0     C49329   2.954   1.907   7.518 -0.0658  0.4629 -0.1565
  366MOL0     C49330   2.833   1.903   7.588  0.3239 -0.8791  0.4074
  366MOL0     C49331   2.712   1.942   7.529 -0.1532 -1.0549  0.2800
  366MOL0     C49332   2.702   1.957   7.395 -0.1493  0.1863 -0.0645
  366MOL0     O49333   2.583   1.993   7.342 -0.4927 -0.2452  0.3319
  366MOL0     C49334   2.501   1.882   7.311 -0.5060  0.6002  0.7699
  366MOL0     C49335   2.382   1.928   7.236  0.1065  0.2203 -0.2161
  366MOL0     C49336   2.276   1.985   7.334  0.1749  0.8091  0.3365
  366MOL0     C49337   2.149   2.040   7.273  0.2244  0.1489  0.7696
  366MOL0     C49338   2.144   2.102   7.140 -0.7286 -0.1481 -0.6662
  366MOL0     C49339   2.137   2.147   7.030 -0.6053 -0.3011 -0.3792
  366MOL0     C49340   2.820   1.929   7.316 -0.6256 -0.2934  0.2063
  366MOL0     C49341   2.942   1.919   7.377  0.0131  0.3425  0.1597
  366MOL0     C49342   3.066   1.944   7.287 -0.2115 -0.5092 -0.3018
  366MOL0     H49343   3.264   1.637   7.639  1.5445 -1.4547  0.1484
  366MOL0     H49344   3.467   1.577   7.743 -2.9162 -1.9066 -1.8058
  366MOL0     H49345   3.757   1.642   7.972  1.4694 -0.0427 -0.7252
  366MOL0     H49346   3.589   1.609   7.933  0.6246  0.4732  1.9836
  366MOL0     H49347   3.809   1.587   7.727 -2.7919  2.5109  0.9037
  366MOL0     H49348   3.665   1.487   7.736 -0.1568 -1.4843 -0.1329
  366MOL0     H49349   3.834   1.322   7.810  0.9139 -0.9817  1.5949
  366MOL0     H49350   3.762   1.396   7.963  0.3439  1.5163  0.7851
  366MOL0     H49351   4.013   1.498   7.842  2.8942 -0.7396  2.0366
  366MOL0     H49352   3.934   1.526   7.995 -2.0357  1.3606 -0.5925
  366MOL0     H49353   3.989   1.280   8.037 -3.6123  1.3352 -0.1452
  366MOL0     H49354   4.033   1.252   7.872  1.6442  0.7174 -0.2706
  366MOL0     H49355   4.231   1.397   7.894 -1.0300  1.9776 -0.4025
  366MOL0     H49356   4.192   1.422   8.066 -0.4969  0.2369 -0.3456
  366MOL0     H49357   4.230   1.162   7.931 -0.6892 -0.1354  1.5357
  366MOL0     H49358   4.190   1.184   8.102  0.3600 -1.4339 -0.0507
  366MOL0     H49359   4.423   1.127   8.082  1.0697 -0.8903 -1.3872
  366MOL0     H49360   4.456   1.244   7.953 -2.3813 -2.5047 -2.1474
  366MOL0     H49361   4.512   1.174   8.314 -0.8478 -0.0973 -1.5425
  366MOL0     H49362   4.597   1.479   8.512 -0.2995 -1.1075  1.0900
  366MOL0     H49363   4.605   1.305   8.519 -0.8911  0.1734  0.7162
  366MOL0     H49364   4.809   1.278   8.410  0.2100 -0.1227 -0.4185
  366MOL0     H49365   4.807   1.442   8.347  3.5174 -2.4058 -0.3978
  366MOL0     H49366   4.844   1.374   8.643 -1.0761 -0.7612 -0.2060
  366MOL0     H49367   4.853   1.539   8.565  1.0698 -0.2671  0.8854
  366MOL0     H49368   5.089   1.455   8.591  0.5688 -1.3783  0.0627
  366MOL0     H49369   5.041   1.465   8.421 -0.8543 -0.5760  0.3319
  366MOL0     H49370   5.220   1.273   8.706 -0.8039  0.8470 -0.9356
  366MOL0     H49371   5.461   1.233   8.693 -1.7799  0.4063  1.5656
  366MOL0     H49372   5.903   1.252   8.471  5.0506  1.7344 -2.2278
  366MOL0     H49373   6.110   1.130   8.444  3.0784 -3.5127 -2.2491
  366MOL0     H49374   6.293   1.028   8.416  0.9369 -0.5283 -0.2624
  366MOL0     H49375   6.183   0.893   8.486 -1.1320 -1.1574 -1.7700
  366MOL0     H49376   6.414   0.814   8.486  1.5145 -0.9189 -0.6816
  366MOL0     H49377   6.323   0.729   8.356  0.6694 -0.4114  0.7674
  366MOL0     H49378   6.528   0.778   8.283  1.8516  1.9836  0.9898
  366MOL0     H49379   6.427   0.901   8.199  1.8488  0.6458 -1.3074
  366MOL0     H49380   6.592   0.930   8.459  0.2227 -1.9772 -0.7191
  366MOL0     H49381   6.495   1.058   8.359 -2.8800 -2.5913 -1.9425
  366MOL0     H49382   6.756   1.056   8.353 -3.1495  3.1559 -0.4029
  366MOL0     H49383   6.665   1.065   8.198 -2.1775  1.1513  0.2749
  366MOL0     H49384   6.791   0.827   8.329 -1.0611  0.4339  0.1962
  366MOL0     H49385   6.738   0.826   8.157  0.0206 -2.3908  2.1122
  366MOL0     H49386   6.971   0.992   8.254 -0.4153 -1.3682  1.2858
  366MOL0     H49387   6.904   0.975   8.085  0.6862 -0.3773 -0.0105
  366MOL0     H49388   7.029   0.772   8.276 -1.0375 -1.3207  0.1529
  366MOL0     H49389   6.983   0.721   8.113  2.5148 -1.6355  0.7369
  366MOL0     H49390   5.937   0.897   8.131 -2.6683 -0.7763  1.0476
  366MOL0     H49391   5.715   0.995   8.172 -0.9953  1.9011 -1.6214
  366MOL0     H49392   5.438   1.208   8.270 -0.5158  0.7070 -0.1575
  366MOL0     H49393   5.193   1.250   8.272  0.9806  0.0162 -0.0160
  366MOL0     H49394   3.598   1.994   7.741 -1.0359  1.1011 -0.2634
  366MOL0     H49395   3.395   2.050   7.600  1.1360 -0.5720 -3.4923
  366MOL0     H49396   2.826   1.869   7.691  4.3970 -2.2946  0.3975
  366MOL0     H49397   2.628   1.943   7.598  0.2600  1.1215  0.8273
  366MOL0     H49398   2.480   1.831   7.405 -0.0438  3.2740  2.4429
  366MOL0     H49399   2.562   1.831   7.235  0.4163  2.8075 -0.0736
  366MOL0     H49400   2.325   1.847   7.190  1.4219 -2.0996  1.9947
  366MOL0     H49401   2.405   2.008   7.165 -0.4557  0.8754  0.3236
  366MOL0     H49402   2.318   2.074   7.382  0.3032 -0.1972  2.1808
  366MOL0     H49403   2.253   1.897   7.394  0.4251 -2.0823 -3.4555
  366MOL0     H49404   2.065   1.970   7.271  1.5450 -1.5287 -1.4639
  366MOL0     H49405   2.106   2.107   7.348 -0.8762 -0.0892  0.3768
  366MOL0     H49406   2.141   2.193   6.934 -1.9783 -0.4750 -0.5425
  366MOL0     H49407   2.810   1.936   7.209 -2.0857 -1.6009  0.2251
  366MOL0     H49408   3.129   1.855   7.289 -0.2791 -0.5549 -0.2211
  366MOL0     H49409   3.039   1.965   7.183 -0.8682 -1.9990 -0.4578
  366MOL0     H49410   3.114   2.033   7.329 -0.7729 -0.4981  0.3377
  367MOL0     O49411   0.569   6.472   5.480 -0.5441 -0.0405 -0.2538
  367MOL0     C49412   0.508   6.367   5.482 -0.0633 -0.2790  0.7701
  367MOL0     O49413   0.571   6.243   5.473  0.2020 -0.4538  0.1331
  367MOL0     C49414   0.711   6.241   5.485  0.1925 -0.6058 -0.1867
  367MOL0     C49415   0.789   6.277   5.375 -0.1609  0.6149 -0.2350
  367MOL0     C49416   0.934   6.267   5.393  0.1239 -0.3357  0.9334
  367MOL0     C49417   0.980   6.235   5.520  0.5617  0.9898  0.0855
  367MOL0     O49418   1.115   6.218   5.543 -1.3242  0.0793 -0.2831
  367MOL0     C49419   1.204   6.326   5.489  1.2730 -0.1026  0.1989
  367MOL0     C49420   1.287   6.388   5.602  0.6687  0.0297 -0.0137
  367MOL0     C49421   1.410   6.304   5.644  0.1240 -0.1281  0.2271
  367MOL0     C49422   1.542   6.375   5.619 -0.2530  0.0408 -0.1975
  367MOL0     C49423   1.662   6.290   5.650 -0.2596  0.1612 -1.2140
  367MOL0     C49424   1.788   6.378   5.662  0.7689  0.9497 -0.0950
  367MOL0     C49425   1.926   6.332   5.621  0.0316  0.2445  0.0390
  367MOL0     C49426   2.022   6.417   5.690  0.0798  0.0674  0.4682
  367MOL0     N49427   2.163   6.386   5.672 -0.3142 -0.8016  0.6439
  367MOL0     C49428   2.253   6.479   5.671 -0.5661 -0.8503  0.2355
  367MOL0     C49429   2.371   6.424   5.622  0.7828  0.5405 -0.7093
  367MOL0     C49430   2.496   6.493   5.581 -0.5479 -0.2722 -0.7269
  367MOL0     C49431   2.620   6.426   5.622 -0.1059  0.6802 -0.9470
  367MOL0     C49432   2.634   6.431   5.777  0.0617 -0.6190 -0.7986
  367MOL0     C49433   2.769   6.362   5.820 -0.0995  0.4700 -0.1592
  367MOL0     O49434   2.885   6.420   5.749  0.1811  0.5453 -0.0686
  367MOL0     C49435   2.955   6.521   5.805 -0.1364 -0.3438  0.1717
  367MOL0     C49436   3.072   6.552   5.738 -0.0437  0.3144  0.3373
  367MOL0     C49437   3.157   6.655   5.773 -0.7012  0.6242 -0.2248
  367MOL0     C49438   3.127   6.727   5.889  0.3859 -0.5751 -1.1137
  367MOL0     C49439   3.195   6.856   5.923  0.0661  0.6313  0.4544
  367MOL0     O49440   3.294   6.884   5.842  0.0964 -0.4773 -0.0361
  367MOL0     C49441   3.367   7.004   5.863  0.3080  0.3385 -0.4313
  367MOL0     C49442   3.460   7.019   5.967  0.4900 -0.3683 -0.0681
  367MOL0     C49443   3.535   7.139   5.985 -0.4387 -0.2047 -0.6085
  367MOL0     C49444   3.514   7.246   5.903  1.0261  0.4198 -0.0855
  367MOL0     O49445   3.594   7.359   5.915  0.7523 -0.2624 -0.0829
  367MOL0     C49446   3.707   7.350   5.831  0.1382 -0.3571  0.4357
  367MOL0     C49447   3.834   7.409   5.903  0.3296 -0.8722  0.3645
  367MOL0     C49448   3.908   7.294   5.984  0.2972 -0.4009  0.6016
  367MOL0     C49449   4.012   7.366   6.068 -0.7792  0.3763  0.5457
  367MOL0     C49450   4.126   7.274   6.116  0.0134 -0.1012 -0.1467
  367MOL0     C49451   4.198   7.205   5.999 -0.1843  0.0082 -0.2795
  367MOL0     C49452   4.346   7.168   6.023 -0.2538 -0.2617  0.7257
  367MOL0     C49453   4.439   7.272   6.080 -1.4032  0.3067 -0.2459
  367MOL0    Cl49454   4.600   7.200   6.080  1.0599  0.2752  0.5327
  367MOL0     C49455   3.413   7.232   5.805 -0.3523  0.0968  0.2221
  367MOL0     C49456   3.346   7.112   5.783 -0.2431  0.4684 -0.5537
  367MOL0     O49457   3.173   6.915   6.028  0.0493 -0.9015 -0.9688
  367MOL0     C49458   3.017   6.690   5.969  0.5192  0.3987  0.3233
  367MOL0     C49459   2.930   6.585   5.927  0.5981 -0.1114  0.9817
  367MOL0     N49460   2.345   6.291   5.600  0.3501  0.4276  0.4201
  367MOL0     N49461   2.218   6.274   5.618 -0.1954  0.2021 -0.3468
  367MOL0     C49462   0.896   6.202   5.623 -0.6888  0.1958 -0.0139
  367MOL0     C49463   0.758   6.207   5.606  0.3516  0.3403 -1.1844
  367MOL0     C49464   0.361   6.366   5.488 -0.0094  0.3874  0.3356
  367MOL0     C49465   0.298   6.251   5.530  1.1357  0.5318  0.8949
  367MOL0     C49466   0.162   6.244   5.538  1.2519  0.1368 -0.2140
  367MOL0     C49467   0.080   6.357   5.512 -0.6199 -0.6273 -0.1068
  367MOL0     O49468  -0.055   6.353   5.521  0.9317  0.5237 -0.0575
  367MOL0     C49469  -0.138   6.277   5.621  0.2972 -0.4081  0.0843
  367MOL0     C49470  -0.235   6.203   5.540 -0.0227 -0.0177 -0.3860
  367MOL0     C49471  -0.167   6.099   5.456 -0.2283 -0.2724 -0.2217
  367MOL0     C49472  -0.274   6.019   5.375 -0.0290  0.5811  0.3416
  367MOL0     C49473  -0.342   5.939   5.477  0.6302 -0.2391 -0.3871
  367MOL0     C49474  -0.418   5.879   5.545 -0.3898 -0.4048 -0.6109
  367MOL0     C49475   0.146   6.472   5.463  0.5405 -0.7053  0.1493
  367MOL0     C49476   0.283   6.486   5.460 -0.1484  0.1925 -0.5655
  367MOL0     C49477   0.333   6.614   5.411 -1.0366 -0.3049 -0.2336
  367MOL0     H49478   0.744   6.299   5.279 -1.8169 -1.1333  0.0760
  367MOL0     H49479   1.003   6.276   5.310 -0.9682  1.8633  0.1672
  367MOL0     H49480   1.272   6.302   5.406  1.2322 -1.1702  0.4666
  367MOL0     H49481   1.146   6.411   5.449 -0.8769 -2.0509 -1.1143
  367MOL0     H49482   1.229   6.411   5.691 -0.0802  2.2981 -1.0092
  367MOL0     H49483   1.331   6.478   5.557  0.8924  0.0188  0.1797
  367MOL0     H49484   1.397   6.211   5.588 -1.5075 -2.6693  4.3548
  367MOL0     H49485   1.409   6.275   5.749  2.9850  0.7967  0.6027
  367MOL0     H49486   1.555   6.408   5.516  0.0614 -2.3774 -0.9843
  367MOL0     H49487   1.547   6.463   5.684  1.9445  0.1367 -0.4405
  367MOL0     H49488   1.637   6.241   5.744  1.2428 -1.3770 -1.5738
  367MOL0     H49489   1.677   6.214   5.572  1.1528 -1.4742  0.5690
  367MOL0     H49490   1.760   6.474   5.616 -2.0018 -0.4293 -1.5706
  367MOL0     H49491   1.795   6.402   5.769 -0.0473  0.2668  0.1201
  367MOL0     H49492   1.944   6.345   5.514  1.5302 -1.2782  0.0698
  367MOL0     H49493   1.938   6.227   5.650 -2.9600 -0.4938 -0.9408
  367MOL0     H49494   2.008   6.512   5.637 -2.2280 -1.6501 -2.3388
  367MOL0     H49495   2.012   6.437   5.797 -2.0745 -2.0949  0.7674
  367MOL0     H49496   2.232   6.581   5.701  0.9187 -0.3478 -0.3434
  367MOL0     H49497   2.502   6.513   5.473  2.9690  0.0658 -0.5955
  367MOL0     H49498   2.494   6.594   5.623 -1.4630  0.2695 -1.9865
  367MOL0     H49499   2.624   6.320   5.593  0.2680 -0.2438  2.1889
  367MOL0     H49500   2.707   6.474   5.574  1.4415  0.8577  1.8296
  367MOL0     H49501   2.547   6.386   5.826  0.4470 -0.7632 -0.2439
  367MOL0     H49502   2.638   6.533   5.816 -0.7177 -1.2946  1.1691
  367MOL0     H49503   2.766   6.255   5.800  1.9958  0.3318  0.0667
  367MOL0     H49504   2.770   6.375   5.929 -0.8475 -2.3342  0.2563
  367MOL0     H49505   3.103   6.489   5.655 -1.1539  0.6216 -0.3153
  367MOL0     H49506   3.238   6.682   5.705 -0.0871 -1.5077 -0.4143
  367MOL0     H49507   3.473   6.931   6.031  0.3142  1.2019  2.2641
  367MOL0     H49508   3.610   7.143   6.063 -1.0672  1.2173 -0.0224
  367MOL0     H49509   3.730   7.244   5.818  2.1742 -0.0101  0.8124
  367MOL0     H49510   3.694   7.410   5.740  1.9540  2.1511  1.7084
  367MOL0     H49511   3.902   7.456   5.831  1.3336  1.3618  2.6467
  367MOL0     H49512   3.795   7.486   5.969  0.7004  0.3580 -0.8042
  367MOL0     H49513   3.842   7.231   6.044 -2.1359  0.3920 -1.0974
  367MOL0     H49514   3.947   7.237   5.899 -2.8515 -1.8547 -0.0183
  367MOL0     H49515   3.955   7.417   6.147  1.7115  1.5188  1.7279
  367MOL0     H49516   4.059   7.437   6.000  2.5091 -2.0939 -0.0155
  367MOL0     H49517   4.094   7.194   6.182 -1.9647  0.2796 -0.5782
  367MOL0     H49518   4.195   7.329   6.181 -0.9928 -1.3359  2.0652
  367MOL0     H49519   4.151   7.111   5.968 -1.9963  0.9995 -0.6680
  367MOL0     H49520   4.197   7.290   5.931 -1.0180  2.5622  2.7129
  367MOL0     H49521   4.376   7.131   5.925  1.5947  1.7114  0.4820
  367MOL0     H49522   4.348   7.088   6.097  0.6877  1.9958  3.3342
  367MOL0     H49523   4.430   7.363   6.019  2.5948  1.3335  0.3732
  367MOL0     H49524   4.420   7.305   6.183  0.7551 -1.2388  0.7333
  367MOL0     H49525   3.394   7.311   5.732  0.5330 -1.5541 -1.8953
  367MOL0     H49526   3.274   7.112   5.702 -0.5266  2.4485 -0.3405
  367MOL0     H49527   2.998   6.749   6.058 -0.6818 -0.0668  0.3817
  367MOL0     H49528   2.844   6.567   5.990 -1.7766  0.3715 -1.8927
  367MOL0     H49529   0.927   6.183   5.726 -1.8525  0.5957  0.4270
  367MOL0     H49530   0.695   6.201   5.694  2.8245  1.1758  0.7843
  367MOL0     H49531   0.361   6.163   5.544  1.0976  0.3583  0.0432
  367MOL0     H49532   0.137   6.143   5.568  0.0392  0.6644  0.6379
  367MOL0     H49533  -0.200   6.336   5.689 -1.8957  0.2909 -2.3223
  367MOL0     H49534  -0.079   6.213   5.686  0.4807  1.1336  1.5067
  367MOL0     H49535  -0.281   6.266   5.463  0.0012 -2.2678 -2.3852
  367MOL0     H49536  -0.321   6.160   5.592  2.2186 -3.1012  1.1482
  367MOL0     H49537  -0.096   6.040   5.514  0.8604  1.3015  0.1266
  367MOL0     H49538  -0.091   6.130   5.383  2.5963 -3.0673  1.2773
  367MOL0     H49539  -0.345   6.075   5.314 -1.1539 -0.4306  0.6962
  367MOL0     H49540  -0.224   5.947   5.310 -1.7584  1.3794 -2.0232
  367MOL0     H49541  -0.489   5.829   5.608  0.7449 -0.1041  0.9849
  367MOL0     H49542   0.081   6.555   5.437  1.4425  0.4899  1.5807
  367MOL0     H49543   0.367   6.604   5.307  0.3141 -0.4890  0.1959
  367MOL0     H49544   0.252   6.687   5.413  1.3674  2.6476  3.7323
  367MOL0     H49545   0.415   6.653   5.471 -2.3042  0.1326  1.2506
  368MOL0     O49546   9.406   9.857   3.816 -0.2874 -0.7081  0.7523
  368MOL0     C49547   9.352   9.750   3.845 -0.4449 -0.5316  0.6664
  368MOL0     O49548   9.417   9.628   3.835 -0.1524 -0.5069 -0.3056
  368MOL0     C49549   9.553   9.623   3.798 -0.1615 -1.1903  0.9238
  368MOL0     C49550   9.649   9.722   3.831  0.5622  0.2050  0.2339
  368MOL0     C49551   9.784   9.704   3.785 -0.1584 -0.5138 -0.4586
  368MOL0     C49552   9.829   9.590   3.718  1.2233 -1.1908  0.3447
  368MOL0     O49553   9.961   9.572   3.694 -1.0850 -0.4513  0.0245
  368MOL0     C49554  10.011   9.453   3.632 -1.1406  0.4483 -0.1908
  368MOL0     C49555  10.144   9.474   3.567 -0.2615 -0.0062  0.0242
  368MOL0     C49556  10.143   9.559   3.440  0.4964 -0.3805  0.1923
  368MOL0     C49557  10.261   9.656   3.432 -0.4395 -0.6879  0.3494
  368MOL0     C49558  10.252   9.739   3.310 -0.0000  0.3377  0.1205
  368MOL0     C49559  10.353   9.850   3.311 -0.7449 -0.4498 -0.3029
  368MOL0     C49560  10.493   9.794   3.289  0.9585  0.4375 -0.4806
  368MOL0     C49561  10.590   9.910   3.319  0.8388 -0.5593 -1.3257
  368MOL0     N49562  10.724   9.872   3.278  0.3565 -0.2565 -0.2667
  368MOL0     C49563  10.812   9.786   3.346 -1.1980  0.6679  0.9423
  368MOL0     C49564  10.923   9.790   3.272 -1.0107 -0.4718  0.3714
  368MOL0     C49565  11.051   9.715   3.297 -0.8450  0.2261 -0.0685
  368MOL0     C49566  11.150   9.698   3.176  0.9744 -0.5142  0.2346
  368MOL0     C49567  11.249   9.597   3.190  0.5375 -0.1140  0.1796
  368MOL0     C49568  11.316   9.559   3.056  0.1870  0.2397 -0.1199
  368MOL0     O49569  11.397   9.442   3.081 -0.0684  0.2991  0.0910
  368MOL0     C49570  11.511   9.443   3.151  0.6820 -0.4151 -0.0526
  368MOL0     C49571  11.575   9.561   3.179  0.1412  0.0167 -0.1861
  368MOL0     C49572  11.701   9.563   3.230  0.4381  0.3037  0.1280
  368MOL0     C49573  11.764   9.444   3.274 -0.3725  0.3646 -0.8308
  368MOL0     C49574  11.901   9.436   3.322 -0.4023  0.0131  0.3273
  368MOL0     O49575  11.964   9.314   3.315 -0.4517  0.6020  0.3605
  368MOL0     C49576  12.098   9.319   3.327  0.1822 -0.0551  0.0548
  368MOL0     C49577  12.183   9.309   3.217  0.4606  0.4814  0.1017
  368MOL0     C49578  12.327   9.314   3.237 -0.3983  0.3731  0.0942
  368MOL0     C49579  12.376   9.337   3.365  0.4244  0.8515 -0.5860
  368MOL0     O49580  12.508   9.330   3.385  0.0421 -0.6719  0.6588
  368MOL0     C49581  12.564   9.280   3.497  0.3815  0.2376 -0.2372
  368MOL0     C49582  12.710   9.285   3.485 -0.1750 -0.1619 -0.3794
  368MOL0     C49583  12.773   9.425   3.463  0.0165 -0.2471  0.6999
  368MOL0     C49584  12.921   9.413   3.430  0.5209  0.9605  0.5605
  368MOL0     C49585  12.989   9.542   3.383 -1.0429  1.1042 -0.0636
  368MOL0     C49586  12.954   9.658   3.470  0.7047  0.8194 -1.0612
  368MOL0     C49587  13.049   9.779   3.460 -0.4268  0.3229 -0.4200
  368MOL0     C49588  13.198   9.757   3.466 -0.7955 -0.0516 -0.3163
  368MOL0    Cl49589  13.253   9.657   3.601 -0.0825  0.1593  0.2959
  368MOL0     C49590  12.284   9.350   3.471  0.1129 -0.0292 -0.3316
  368MOL0     C49591  12.147   9.341   3.452 -0.0574 -0.2391 -0.0945
  368MOL0     O49592  11.950   9.544   3.352  0.3245 -0.3638 -0.7775
  368MOL0     C49593  11.700   9.323   3.242  0.4628  0.5592 -0.2931
  368MOL0     C49594  11.577   9.324   3.186 -0.3624 -0.3246 -0.6580
  368MOL0     N49595  10.899   9.867   3.160  0.8301 -0.3399 -0.3159
  368MOL0     N49596  10.780   9.922   3.169  0.4891 -0.1879 -0.0885
  368MOL0     C49597   9.728   9.495   3.684  0.2562 -0.8713  0.3148
  368MOL0     C49598   9.598   9.508   3.723  0.4879 -0.5096 -0.0820
  368MOL0     C49599   9.204   9.752   3.871  0.4919 -0.4014  0.2277
  368MOL0     C49600   9.144   9.879   3.882  0.4953  0.7954  0.4880
  368MOL0     C49601   9.009   9.899   3.884  0.0386  0.3412  0.1805
  368MOL0     C49602   8.928   9.794   3.877  1.1342  1.0030 -0.3131
  368MOL0     O49603   8.791   9.819   3.868  0.2718 -0.7718  0.8362
  368MOL0     C49604   8.713   9.713   3.799 -1.1189 -0.2462 -0.3375
  368MOL0     C49605   8.584   9.772   3.737  0.4808  0.3182 -0.1637
  368MOL0     C49606   8.620   9.888   3.639  0.5668  0.3577  0.5782
  368MOL0     C49607   8.496   9.915   3.550 -1.1223 -0.0321 -0.6563
  368MOL0     C49608   8.379   9.946   3.631  0.4055 -0.1437  0.6838
  368MOL0     C49609   8.263   9.961   3.679 -0.1927  0.2388 -0.2392
  368MOL0     C49610   8.982   9.664   3.878  0.7316 -1.1514  0.3029
  368MOL0     C49611   9.122   9.635   3.877  0.4240 -1.1429  0.0827
  368MOL0     C49612   9.166   9.489   3.893  0.7381 -0.5780  0.5777
  368MOL0     H49613   9.624   9.809   3.891  0.0389  1.2041 -1.3476
  368MOL0     H49614   9.866   9.769   3.811  2.2068 -3.6121  0.4536
  368MOL0     H49615  10.036   9.383   3.713  0.5789  0.3567 -0.7535
  368MOL0     H49616   9.939   9.404   3.566 -0.6938 -2.7314  1.4865
  368MOL0     H49617  10.192   9.379   3.540 -0.4044 -0.3751  1.0187
  368MOL0     H49618  10.198   9.535   3.640 -1.2557  0.7556  0.1348
  368MOL0     H49619  10.049   9.615   3.436  0.6680 -0.1269 -0.4110
  368MOL0     H49620  10.146   9.494   3.353  1.1043  1.6148 -1.3614
  368MOL0     H49621  10.264   9.710   3.527 -1.8633 -2.7541  1.6693
  368MOL0     H49622  10.347   9.589   3.431  1.0734  1.1498 -2.0740
  368MOL0     H49623  10.262   9.669   3.226 -0.7189 -2.5519  2.2997
  368MOL0     H49624  10.149   9.772   3.296 -0.1431 -0.7944 -1.8525
  368MOL0     H49625  10.329   9.921   3.231  2.2061  2.0198  0.7800
  368MOL0     H49626  10.337   9.906   3.403 -0.3038  0.5127 -0.7937
  368MOL0     H49627  10.493   9.758   3.186  3.5232  0.2631 -0.4752
  368MOL0     H49628  10.507   9.710   3.358 -3.3033  1.2058  1.7035
  368MOL0     H49629  10.557   9.998   3.263 -0.8797 -1.6628 -2.1709
  368MOL0     H49630  10.599   9.936   3.425 -2.1669 -0.8423 -0.9066
  368MOL0     H49631  10.788   9.719   3.428  0.4167 -0.7692  0.3051
  368MOL0     H49632  11.103   9.768   3.378 -0.2632  0.0442 -0.3200
  368MOL0     H49633  11.017   9.618   3.335 -1.3415  0.4564  0.0890
  368MOL0     H49634  11.081   9.681   3.093 -0.1276  4.4610 -0.1572
  368MOL0     H49635  11.204   9.789   3.147 -1.6549  1.1804  0.2873
  368MOL0     H49636  11.198   9.512   3.236  4.2049 -1.7338  1.5860
  368MOL0     H49637  11.323   9.631   3.263 -0.3589 -2.0863  2.1349
  368MOL0     H49638  11.377   9.643   3.020  1.7204 -1.3075 -1.2883
  368MOL0     H49639  11.243   9.547   2.975 -1.8314 -0.1425  1.6530
  368MOL0     H49640  11.533   9.658   3.151 -0.2288  0.5591  2.0979
  368MOL0     H49641  11.751   9.659   3.246 -0.5365  0.9715 -0.6925
  368MOL0     H49642  12.141   9.271   3.125  1.4319 -1.7634  0.5185
  368MOL0     H49643  12.401   9.308   3.158 -2.4753 -2.0374 -1.8222
  368MOL0     H49644  12.528   9.345   3.577 -0.2452 -1.6149  1.0424
  368MOL0     H49645  12.532   9.176   3.505  1.4089 -0.0069  1.0884
  368MOL0     H49646  12.756   9.241   3.575 -1.7639 -1.0650  0.0254
  368MOL0     H49647  12.745   9.221   3.404  1.5548 -0.1630  0.3021
  368MOL0     H49648  12.731   9.479   3.377  4.8245  0.8708 -1.2824
  368MOL0     H49649  12.768   9.481   3.557  0.6567  0.6385  0.2316
  368MOL0     H49650  12.932   9.334   3.354 -2.9701  0.8054  0.0365
  368MOL0     H49651  12.964   9.374   3.522  1.0093 -1.2773 -0.5379
  368MOL0     H49652  12.969   9.566   3.279  1.3302  1.4311 -0.4978
  368MOL0     H49653  13.098   9.529   3.384 -0.6966  3.4689  1.1769
  368MOL0     H49654  12.851   9.691   3.461  0.5872  0.9992  0.6596
  368MOL0     H49655  12.970   9.618   3.570 -0.1388 -1.1955 -1.6826
  368MOL0     H49656  13.021   9.845   3.543  0.6687 -1.5961  1.5797
  368MOL0     H49657  13.035   9.824   3.361 -1.1079  4.0696  1.2047
  368MOL0     H49658  13.235   9.711   3.374 -1.2351  1.5184 -1.3190
  368MOL0     H49659  13.250   9.852   3.483 -0.2088 -0.7906  2.4924
  368MOL0     H49660  12.321   9.373   3.570 -2.9869 -1.7679  1.3942
  368MOL0     H49661  12.071   9.365   3.526  1.2805  1.7625  0.7160
  368MOL0     H49662  11.755   9.229   3.242 -0.2212  0.1547 -0.0572
  368MOL0     H49663  11.516   9.236   3.168 -1.4328  0.8386 -3.1851
  368MOL0     H49664   9.751   9.413   3.616  4.4699  0.9251 -0.7352
  368MOL0     H49665   9.526   9.430   3.702 -1.4375  1.4504 -1.2161
  368MOL0     H49666   9.208   9.966   3.894  1.2227  0.1766  1.2259
  368MOL0     H49667   8.969  10.000   3.884  0.5346  0.5423  0.3979
  368MOL0     H49668   8.687   9.632   3.867 -0.5412 -1.1001 -1.1002
  368MOL0     H49669   8.764   9.656   3.720  1.4261 -4.0764  3.5939
  368MOL0     H49670   8.516   9.810   3.814 -1.9057 -1.9409 -1.0260
  368MOL0     H49671   8.539   9.695   3.674  1.9419  0.8216 -1.8920
  368MOL0     H49672   8.704   9.869   3.570  0.4624 -0.0926  0.5782
  368MOL0     H49673   8.645   9.980   3.693 -0.5930  0.8471  0.2953
  368MOL0     H49674   8.522   9.997   3.482 -0.4994  1.2499  1.0743
  368MOL0     H49675   8.475   9.821   3.497 -0.4160 -0.5990  0.0490
  368MOL0     H49676   8.172   9.981   3.731 -0.3516 -1.0178 -0.0065
  368MOL0     H49677   8.911   9.583   3.877 -0.3435 -0.2272 -0.3522
  368MOL0     H49678   9.216   9.457   3.801 -1.2045 -0.3514 -0.6219
  368MOL0     H49679   9.222   9.475   3.986  1.9114  2.4019  0.4125
  368MOL0     H49680   9.079   9.423   3.885  0.0642  0.2926  0.5611
  369MOL0     O49681   4.517  11.048  10.681 -0.3201  0.4000 -0.1254
  369MOL0     C49682   4.489  10.978  10.590 -0.0531 -0.1581  0.4493
  369MOL0     O49683   4.574  10.907  10.509  0.9981 -0.3132 -0.8572
  369MOL0     C49684   4.707  10.915  10.540  0.3678 -1.2295  0.0709
  369MOL0     C49685   4.752  10.844  10.645 -0.3640 -0.3951  0.4130
  369MOL0     C49686   4.890  10.815  10.668  1.0536 -0.2750 -0.3749
  369MOL0     C49687   4.984  10.882  10.592  0.2641 -0.5400  0.6712
  369MOL0     O49688   5.122  10.847  10.616  0.8500 -0.7335 -0.0572
  369MOL0     C49689   5.226  10.887  10.525 -0.0426  0.5340  0.8933
  369MOL0     C49690   5.302  11.008  10.571 -0.1311 -0.4873  0.4479
  369MOL0     C49691   5.435  11.024  10.510 -0.3945 -0.0282  0.0640
  369MOL0     C49692   5.550  10.948  10.580  0.2327  0.4793  0.4474
  369MOL0     C49693   5.679  10.996  10.521 -0.0312 -0.0462  0.1725
  369MOL0     C49694   5.786  10.923  10.602 -0.3142  0.7265  1.2536
  369MOL0     C49695   5.929  10.960  10.561  0.2132  0.5967  0.3647
  369MOL0     C49696   6.038  10.929  10.664 -0.5466  0.8296  0.7976
  369MOL0     N49697   6.072  10.785  10.651 -0.6540 -0.1537  0.4276
  369MOL0     C49698   6.003  10.683  10.702 -0.0844 -0.2908 -0.5054
  369MOL0     C49699   6.053  10.565  10.649  0.1204 -0.2390  0.6761
  369MOL0     C49700   5.999  10.427  10.672  0.5078 -0.6470  0.0799
  369MOL0     C49701   5.863  10.416  10.737  0.4708 -0.5616 -0.6585
  369MOL0     C49702   5.749  10.476  10.642 -0.3774  0.0067 -0.0538
  369MOL0     C49703   5.615  10.478  10.709  0.6886 -0.3716  0.7661
  369MOL0     O49704   5.614  10.593  10.798  0.0786 -0.3151  0.2846
  369MOL0     C49705   5.493  10.643  10.837  1.0042  0.3041  0.5425
  369MOL0     C49706   5.370  10.570  10.835  0.4556  0.0942 -0.3691
  369MOL0     C49707   5.247  10.634  10.883 -0.5442  0.5614  0.2858
  369MOL0     C49708   5.256  10.763  10.920  0.2793  0.2415  0.3786
  369MOL0     C49709   5.133  10.823  10.979 -0.5382 -0.6081 -0.2325
  369MOL0     O49710   5.018  10.745  10.983  0.1160  1.0059 -0.1172
  369MOL0     C49711   4.911  10.806  11.039 -0.1912 -0.4471 -0.5852
  369MOL0     C49712   4.847  10.738  11.148  0.5174 -0.2522  0.6010
  369MOL0     C49713   4.723  10.788  11.192 -0.9057 -0.2344  0.2273
  369MOL0     C49714   4.665  10.899  11.138 -1.0074 -0.1063  0.2710
  369MOL0     O49715   4.561  10.962  11.188  0.0467 -0.1415  0.3418
  369MOL0     C49716   4.489  10.910  11.301  0.5552  0.3055  0.3039
  369MOL0     C49717   4.346  10.966  11.301 -0.0075  0.1446 -0.3989
  369MOL0     C49718   4.270  10.938  11.168  0.5957 -0.1598  0.6513
  369MOL0     C49719   4.133  11.016  11.168  0.3505  0.1592  0.4169
  369MOL0     C49720   4.071  11.012  11.031  0.8215  0.5771  0.4180
  369MOL0     C49721   3.958  11.115  11.030  1.3002 -0.3886  0.0546
  369MOL0     C49722   3.908  11.110  10.888  0.6175  0.2713 -0.3943
  369MOL0     C49723   3.785  11.199  10.877  0.5377 -0.4949  0.4985
  369MOL0    Cl49724   3.756  11.206  10.693 -0.2838  0.2712 -0.0648
  369MOL0     C49725   4.735  10.964  11.041  0.1201  0.4569 -0.6563
  369MOL0     C49726   4.855  10.923  10.989  0.6208 -0.0534 -0.5445
  369MOL0     O49727   5.146  10.934  11.036  0.8920 -0.0806  0.5313
  369MOL0     C49728   5.373  10.836  10.916 -0.8640  0.5681  0.0200
  369MOL0     C49729   5.497  10.774  10.880  0.2145  0.1193 -0.9558
  369MOL0     N49730   6.147  10.607  10.554 -0.3561  0.6137 -0.1067
  369MOL0     N49731   6.152  10.736  10.554  0.2625  0.0053  0.0825
  369MOL0     C49732   4.940  10.967  10.487  0.6660 -0.4971  0.4137
  369MOL0     C49733   4.801  10.968  10.449  0.7099  0.1167 -0.6436
  369MOL0     C49734   4.341  10.959  10.573 -0.8168 -0.6183 -0.1805
  369MOL0     C49735   4.275  10.939  10.690 -1.1285 -0.5072 -0.1883
  369MOL0     C49736   4.139  10.916  10.694 -0.1756 -0.4559 -0.7115
  369MOL0     C49737   4.067  10.901  10.574 -0.4706 -0.9628  0.3589
  369MOL0     O49738   3.933  10.884  10.591  0.1410 -0.0897  0.3432
  369MOL0     C49739   3.843  10.864  10.477  0.3852  0.2641 -0.6474
  369MOL0     C49740   3.854  10.710  10.433  0.4801 -0.1699 -0.6791
  369MOL0     C49741   3.783  10.627  10.543  0.6989  0.1403 -0.5931
  369MOL0     C49742   3.770  10.483  10.506 -0.5312  0.1256  0.1848
  369MOL0     C49743   3.636  10.464  10.440  0.2427  0.2419 -0.3055
  369MOL0     C49744   3.532  10.441  10.389 -0.5136  0.3166  0.3078
  369MOL0     C49745   4.136  10.925  10.455  0.0934  0.5357 -0.0235
  369MOL0     C49746   4.273  10.944  10.457  0.3300 -0.2295 -0.2498
  369MOL0     C49747   4.335  10.956  10.324 -0.5643 -0.1812 -0.2981
  369MOL0     H49748   4.677  10.799  10.708 -0.7928 -0.5746 -0.2169
  369MOL0     H49749   4.918  10.745  10.746 -1.3251 -0.3848  0.4730
  369MOL0     H49750   5.294  10.804  10.542 -0.6047  0.0968  1.0221
  369MOL0     H49751   5.197  10.900  10.420  0.3917  0.6709  0.7867
  369MOL0     H49752   5.320  11.015  10.679  2.3847  0.2066  0.0462
  369MOL0     H49753   5.242  11.099  10.556  0.7838  0.4420  2.1577
  369MOL0     H49754   5.469  11.128  10.502 -0.6213  0.0394 -0.0306
  369MOL0     H49755   5.424  10.994  10.406 -1.6961  2.7842 -0.7123
  369MOL0     H49756   5.562  10.964  10.688  2.1126 -1.1595  0.5446
  369MOL0     H49757   5.537  10.841  10.567  1.3992  0.4953 -1.1492
  369MOL0     H49758   5.671  10.970  10.415 -3.8820  0.1526  0.2747
  369MOL0     H49759   5.696  11.104  10.527  0.9548 -0.0520 -1.6295
  369MOL0     H49760   5.768  10.946  10.708 -0.4314 -2.3542  1.9971
  369MOL0     H49761   5.770  10.816  10.588 -0.3317  0.6056  2.1386
  369MOL0     H49762   5.914  11.068  10.554 -0.5430  0.4001 -3.0473
  369MOL0     H49763   5.953  10.926  10.459  0.0509 -0.4003  0.6495
  369MOL0     H49764   6.124  10.989  10.634 -0.3646  0.6610  0.9787
  369MOL0     H49765   6.010  10.953  10.767 -3.6704 -2.4136  0.8872
  369MOL0     H49766   5.924  10.690  10.776  0.4884 -0.1997  0.1097
  369MOL0     H49767   5.996  10.395  10.568  2.3270  0.5211 -0.3898
  369MOL0     H49768   6.064  10.370  10.739 -0.8222  1.4890  3.4843
  369MOL0     H49769   5.838  10.311  10.752  3.5462 -1.1350  1.3137
  369MOL0     H49770   5.854  10.465  10.834 -0.0793 -1.2615 -0.3511
  369MOL0     H49771   5.749  10.414  10.552 -2.5574 -0.6257  0.3124
  369MOL0     H49772   5.774  10.577  10.610 -2.0717  0.4226 -0.1716
  369MOL0     H49773   5.582  10.382  10.751  1.6962 -1.3457 -0.5522
  369MOL0     H49774   5.542  10.495  10.630  2.3853 -1.6199 -1.1844
  369MOL0     H49775   5.375  10.469  10.797 -2.5116 -0.4363  0.4328
  369MOL0     H49776   5.152  10.584  10.892 -0.0166 -0.4889  0.1535
  369MOL0     H49777   4.893  10.648  11.188 -2.1706 -1.2572  1.6356
  369MOL0     H49778   4.676  10.741  11.278 -2.0061 -0.4856 -0.5028
  369MOL0     H49779   4.495  10.801  11.297  4.4547  0.4002 -0.1794
  369MOL0     H49780   4.538  10.942  11.393  0.8754 -2.6160  1.2278
  369MOL0     H49781   4.292  10.921  11.385  0.4809  1.4415  0.6480
  369MOL0     H49782   4.340  11.075  11.311 -0.2166  0.0875  0.0903
  369MOL0     H49783   4.327  10.979  11.084  2.0184 -1.1951  1.0823
  369MOL0     H49784   4.245  10.833  11.153 -4.7199  0.1660  4.2927
  369MOL0     H49785   4.173  11.112  11.200  1.3238 -0.7733  2.1945
  369MOL0     H49786   4.065  10.981  11.247  0.2585  0.4979  0.4861
  369MOL0     H49787   4.033  10.909  11.027  0.6666  0.6354  0.4098
  369MOL0     H49788   4.144  11.022  10.950  0.1633 -2.1307 -0.6394
  369MOL0     H49789   3.874  11.086  11.094  0.3375 -0.3716 -1.1616
  369MOL0     H49790   3.986  11.216  11.061 -4.0265  0.8512  1.9189
  369MOL0     H49791   3.888  11.011  10.846 -0.5012  0.5525 -0.5562
  369MOL0     H49792   3.986  11.155  10.825  0.5777  3.3747  1.5812
  369MOL0     H49793   3.697  11.163  10.931 -1.7487  1.9525 -1.3530
  369MOL0     H49794   3.807  11.299  10.915  2.0631  0.3349 -2.2612
  369MOL0     H49795   4.686  11.053  11.003  2.7546  1.2866 -2.4005
  369MOL0     H49796   4.894  10.984  10.907 -0.2172 -1.4766 -2.0664
  369MOL0     H49797   5.373  10.944  10.924 -0.1779  0.5232  0.8714
  369MOL0     H49798   5.594  10.822  10.876  0.1980  0.1544 -0.9313
  369MOL0     H49799   5.009  11.022  10.424 -1.1445  0.0205 -1.2003
  369MOL0     H49800   4.767  11.031  10.367 -3.6982 -0.4867  0.4487
  369MOL0     H49801   4.328  10.942  10.785 -0.6377  0.3987 -0.4757
  369MOL0     H49802   4.099  10.905  10.794  1.4236  2.0334  0.2927
  369MOL0     H49803   3.859  10.940  10.400 -0.2614  0.9705 -0.1036
  369MOL0     H49804   3.746  10.887  10.523  1.0844  0.7060  0.6684
  369MOL0     H49805   3.959  10.680  10.421  0.8874  1.0936 -0.4810
  369MOL0     H49806   3.795  10.712  10.342 -1.9919  2.1001  0.8060
  369MOL0     H49807   3.689  10.675  10.569 -0.3780 -2.3185  0.3505
  369MOL0     H49808   3.847  10.639  10.631  1.9613  2.4761 -1.7280
  369MOL0     H49809   3.843  10.445  10.434  1.3169  0.4243  1.8154
  369MOL0     H49810   3.778  10.428  10.600  0.1601  0.1152  0.1246
  369MOL0     H49811   3.437  10.416  10.347 -0.7897  2.3791 -0.4148
  369MOL0     H49812   4.081  10.907  10.363 -3.4377  1.4359  1.7050
  369MOL0     H49813   4.387  11.052  10.327 -1.6496  0.5027 -1.8646
  369MOL0     H49814   4.410  10.878  10.310 -0.0881 -0.2432  2.1351
  369MOL0     H49815   4.258  10.956  10.245  1.0193 -0.4311 -1.9150
  370MOL0     O49816   5.437   7.756   6.454 -0.1491  0.4396  0.6019
  370MOL0     C49817   5.443   7.856   6.390  0.1124  0.9267 -0.3840
  370MOL0     O49818   5.549   7.916   6.344 -0.5358 -0.4188  0.2262
  370MOL0     C49819   5.684   7.880   6.370 -0.1860  0.5219  0.5016
  370MOL0     C49820   5.781   7.940   6.286 -1.2076  0.6583 -0.1043
  370MOL0     C49821   5.920   7.910   6.311  0.1293 -0.6786 -1.0031
  370MOL0     C49822   5.966   7.824   6.411  0.2213  0.1501 -0.3100
  370MOL0     O49823   6.099   7.804   6.417 -0.2326  0.1365 -0.8560
  370MOL0     C49824   6.130   7.687   6.488  0.3329  0.7783 -0.2205
  370MOL0     C49825   6.287   7.681   6.498  0.0592  0.2374  0.0823
  370MOL0     C49826   6.352   7.806   6.567 -0.4714 -0.1122  0.3337
  370MOL0     C49827   6.505   7.786   6.579  0.0836 -0.1952 -0.3700
  370MOL0     C49828   6.584   7.876   6.676  0.4113  0.6340  0.9487
  370MOL0     C49829   6.561   8.019   6.641  0.9644  0.7567  0.1143
  370MOL0     C49830   6.597   8.109   6.753 -0.5406 -0.8339  0.1685
  370MOL0     C49831   6.743   8.089   6.804  0.9003 -0.0487 -0.6146
  370MOL0     N49832   6.786   8.196   6.895 -0.3305 -0.5031 -0.9329
  370MOL0     C49833   6.836   8.318   6.870  0.6422  0.4118  0.2663
  370MOL0     C49834   6.905   8.359   6.980  0.3159  0.3000  0.0798
  370MOL0     C49835   6.985   8.485   7.012 -0.0898 -1.1133  0.5096
  370MOL0     C49836   7.140   8.456   7.015 -0.3170  0.9905  0.6480
  370MOL0     C49837   7.217   8.566   7.082  1.1449 -0.4839 -0.9432
  370MOL0     C49838   7.362   8.564   7.082 -0.5209  0.4341  0.2181
  370MOL0     O49839   7.429   8.468   7.174  0.1234  0.4772  0.2149
  370MOL0     C49840   7.567   8.478   7.175  0.7074  0.5251  0.2059
  370MOL0     C49841   7.651   8.542   7.081 -0.3820 -0.5362 -0.6380
  370MOL0     C49842   7.788   8.528   7.083  0.3264  0.4076  0.0127
  370MOL0     C49843   7.858   8.460   7.185 -0.7546 -0.0071 -0.2156
  370MOL0     C49844   8.001   8.461   7.190  0.8022 -0.0068 -0.3252
  370MOL0     O49845   8.064   8.440   7.069 -0.2344 -0.1869  0.1670
  370MOL0     C49846   8.199   8.428   7.068  0.1797 -0.0604  0.4261
  370MOL0     C49847   8.284   8.523   7.132 -1.0597 -0.5767 -0.3287
  370MOL0     C49848   8.424   8.517   7.127  0.2407  0.0085 -0.4836
  370MOL0     C49849   8.485   8.406   7.068 -0.4373 -0.2117 -0.0328
  370MOL0     O49850   8.627   8.407   7.061  0.3702  0.4276  0.0192
  370MOL0     C49851   8.700   8.469   7.174  0.0480  0.4017 -0.1849
  370MOL0     C49852   8.840   8.412   7.184  0.4136  0.3269 -0.5337
  370MOL0     C49853   8.922   8.463   7.296 -0.1240 -0.1735 -0.3619
  370MOL0     C49854   8.851   8.461   7.438  0.1545 -1.1572 -0.4371
  370MOL0     C49855   8.930   8.437   7.565 -0.0660  0.4145  0.4950
  370MOL0     C49856   9.022   8.557   7.583 -1.0371  0.2529 -0.5604
  370MOL0     C49857   9.159   8.506   7.639  0.3273  0.5033 -0.0592
  370MOL0     C49858   9.271   8.609   7.615 -0.6986  0.2985 -0.6863
  370MOL0    Cl49859   9.296   8.639   7.442  0.0604  0.0445  0.1827
  370MOL0     C49860   8.413   8.305   7.003  0.5025  0.2515  1.2335
  370MOL0     C49861   8.267   8.318   7.004 -1.0074 -0.1801 -0.1051
  370MOL0     O49862   8.053   8.455   7.298  0.0980  0.6951  0.5889
  370MOL0     C49863   7.782   8.405   7.289 -0.1360  0.4781  0.5964
  370MOL0     C49864   7.641   8.411   7.279 -0.4534  0.1519  0.0694
  370MOL0     N49865   6.887   8.268   7.077 -0.2211 -0.3547 -0.0061
  370MOL0     N49866   6.823   8.176   7.031  0.3936  0.2133  0.3327
  370MOL0     C49867   5.864   7.758   6.495  0.6678  0.6587 -0.1267
  370MOL0     C49868   5.724   7.780   6.467  0.8259 -0.4694  0.0672
  370MOL0     C49869   5.306   7.907   6.339  1.3665  0.2893  0.4022
  370MOL0     C49870   5.198   7.828   6.345 -0.7518  0.2534  0.1139
  370MOL0     C49871   5.072   7.870   6.298 -0.3722  0.1190  0.9056
  370MOL0     C49872   5.043   8.003   6.270  0.1101 -0.3688 -0.6709
  370MOL0     O49873   4.916   8.034   6.228  0.0916  0.0885 -0.1100
  370MOL0     C49874   4.888   8.168   6.181 -0.1373 -0.3770 -0.3558
  370MOL0     C49875   4.759   8.183   6.098  0.2647 -0.0627 -0.8861
  370MOL0     C49876   4.631   8.142   6.174  0.6440 -0.3670 -0.3478
  370MOL0     C49877   4.517   8.127   6.069 -0.0764  0.8531 -0.2086
  370MOL0     C49878   4.415   8.050   6.134  0.4334 -0.0391  0.5331
  370MOL0     C49879   4.316   7.982   6.166  0.3336 -0.4081  1.0105
  370MOL0     C49880   5.158   8.086   6.267  0.2475  0.6254  0.2568
  370MOL0     C49881   5.285   8.032   6.285  0.4665 -0.6449 -0.2748
  370MOL0     C49882   5.393   8.120   6.238  0.2666 -0.3841 -0.2024
  370MOL0     H49883   5.751   8.006   6.205 -1.8023 -0.5411 -0.8988
  370MOL0     H49884   6.000   7.941   6.245  0.6446 -2.5001 -1.2968
  370MOL0     H49885   6.093   7.694   6.591 -0.8880 -1.2659 -0.4836
  370MOL0     H49886   6.093   7.593   6.448 -2.1041  1.4482  0.2954
  370MOL0     H49887   6.340   7.657   6.406  0.7943  0.7957  0.3442
  370MOL0     H49888   6.303   7.596   6.566  0.1643 -1.4186 -1.9291
  370MOL0     H49889   6.301   7.835   6.659 -0.9467  0.7611 -0.1880
  370MOL0     H49890   6.329   7.891   6.502  0.0506 -0.5969 -0.5078
  370MOL0     H49891   6.513   7.685   6.620  3.2887 -0.6746 -1.8345
  370MOL0     H49892   6.556   7.783   6.482  0.9994  2.0763 -0.0244
  370MOL0     H49893   6.540   7.859   6.775  1.3069  1.8504  1.5787
  370MOL0     H49894   6.691   7.859   6.670  0.0637 -1.1756 -1.0935
  370MOL0     H49895   6.616   8.048   6.551 -0.4097  0.4285 -0.8676
  370MOL0     H49896   6.456   8.040   6.616  1.0801  2.6539  1.0289
  370MOL0     H49897   6.526   8.095   6.835  0.0466  2.6550  1.4299
  370MOL0     H49898   6.580   8.207   6.707  1.9656  0.1056  1.0731
  370MOL0     H49899   6.751   7.988   6.847  0.0739  0.7798  1.6607
  370MOL0     H49900   6.816   8.080   6.723  1.1174 -0.8312 -0.3370
  370MOL0     H49901   6.833   8.359   6.769  2.2806  0.5337  0.2291
  370MOL0     H49902   6.958   8.562   6.939  0.2883 -1.9839 -0.5739
  370MOL0     H49903   6.957   8.517   7.113  0.1032  0.6595  0.0374
  370MOL0     H49904   7.168   8.357   7.053  0.1375  0.9271  0.1638
  370MOL0     H49905   7.178   8.446   6.913  0.1434 -1.3640  0.9857
  370MOL0     H49906   7.177   8.588   7.182  2.1223 -2.1336 -0.1466
  370MOL0     H49907   7.177   8.652   7.028 -3.2173 -2.1282 -0.7333
  370MOL0     H49908   7.400   8.664   7.104 -1.7974  1.8294 -3.1774
  370MOL0     H49909   7.386   8.545   6.976  1.1694  0.7059  0.5272
  370MOL0     H49910   7.606   8.592   6.995  0.4068 -0.6557 -1.1344
  370MOL0     H49911   7.850   8.570   7.004  2.6727 -3.1538 -0.2756
  370MOL0     H49912   8.236   8.615   7.165 -4.6210 -1.0634 -3.5277
  370MOL0     H49913   8.473   8.598   7.180  0.5749 -0.1418 -0.5578
  370MOL0     H49914   8.702   8.577   7.156  1.5905  0.0642 -2.4545
  370MOL0     H49915   8.645   8.449   7.267 -0.4969  3.1838  0.1723
  370MOL0     H49916   8.831   8.306   7.206 -1.2040  0.9459  2.3760
  370MOL0     H49917   8.895   8.434   7.092  0.7833  0.0308 -0.3857
  370MOL0     H49918   9.019   8.414   7.302 -0.8496 -1.4955  3.1440
  370MOL0     H49919   8.941   8.569   7.274 -3.8879  0.8005  0.2502
  370MOL0     H49920   8.776   8.381   7.428 -0.5192 -0.5318 -0.5240
  370MOL0     H49921   8.791   8.550   7.463  0.3494 -1.0654 -0.3034
  370MOL0     H49922   8.983   8.342   7.553  0.2108  0.7197 -0.8180
  370MOL0     H49923   8.875   8.422   7.659 -0.5311 -1.1455 -0.0030
  370MOL0     H49924   9.039   8.597   7.482 -0.1397  0.4801 -0.3226
  370MOL0     H49925   8.972   8.635   7.641 -2.5485 -0.5319 -0.7318
  370MOL0     H49926   9.184   8.413   7.588 -2.6242 -0.1007 -0.5881
  370MOL0     H49927   9.158   8.487   7.747 -0.0555 -0.2638 -0.1941
  370MOL0     H49928   9.242   8.707   7.654 -3.0183  1.0837 -3.9409
  370MOL0     H49929   9.360   8.569   7.664 -1.7800 -0.6974  0.5248
  370MOL0     H49930   8.458   8.222   6.948  2.1917  2.8046 -1.5551
  370MOL0     H49931   8.206   8.249   6.947 -1.8907  1.2388 -0.9419
  370MOL0     H49932   7.818   8.370   7.385 -0.2061  1.5208  1.0178
  370MOL0     H49933   7.582   8.361   7.355 -2.2137 -1.9617 -2.5056
  370MOL0     H49934   5.890   7.701   6.583  0.0176  0.9164  0.2357
  370MOL0     H49935   5.655   7.726   6.531  0.8684  1.1707  1.5966
  370MOL0     H49936   5.215   7.730   6.386 -0.9112  0.4479  0.6527
  370MOL0     H49937   4.987   7.803   6.301 -0.1639 -0.3017 -1.3135
  370MOL0     H49938   4.969   8.201   6.115  0.3058  3.4689  1.8240
  370MOL0     H49939   4.878   8.229   6.271 -1.2224  0.5198 -1.0488
  370MOL0     H49940   4.772   8.129   6.003  0.5513  0.1341 -0.9585
  370MOL0     H49941   4.758   8.288   6.068  2.4571 -0.0643 -1.1526
  370MOL0     H49942   4.596   8.207   6.255  0.6643 -2.6367  1.5843
  370MOL0     H49943   4.648   8.049   6.228  0.8040  0.4571  1.0897
  370MOL0     H49944   4.482   8.230   6.055  0.0481  0.7068 -1.8626
  370MOL0     H49945   4.561   8.093   5.975  2.5356 -1.8017  1.7705
  370MOL0     H49946   4.228   7.930   6.197  0.3159 -0.0236  1.6040
  370MOL0     H49947   5.152   8.189   6.236  1.7937  1.7881  3.4130
  370MOL0     H49948   5.364   8.182   6.153  3.3493  2.6077  0.6759
  370MOL0     H49949   5.436   8.173   6.324  1.0201  0.3412 -0.9994
  370MOL0     H49950   5.474   8.069   6.184 -0.8334 -0.4119 -1.8804
  371MOL0     O49951  10.807  10.567   6.356 -0.3960  0.2634  0.8895
  371MOL0     C49952  10.761  10.596   6.463 -0.0550  0.1209 -0.3682
  371MOL0     O49953  10.820  10.576   6.579 -0.3299 -0.8714 -0.5578
  371MOL0     C49954  10.944  10.521   6.595  0.2043  0.8215  0.1607
  371MOL0     C49955  11.059  10.554   6.513  1.1358  0.3546  0.1593
  371MOL0     C49956  11.191  10.522   6.549 -0.8489 -0.0813  1.1700
  371MOL0     C49957  11.220  10.457   6.668 -0.2630 -0.2454  0.0800
  371MOL0     O49958  11.341  10.427   6.721 -0.8701  0.2107 -0.3947
  371MOL0     C49959  11.454  10.510   6.680  0.3597  0.4301  0.6800
  371MOL0     C49960  11.584  10.451   6.741  0.0756  1.0739  0.3472
  371MOL0     C49961  11.705  10.550   6.740 -0.1798 -0.0682 -0.5898
  371MOL0     C49962  11.812  10.507   6.841  0.0524  0.4939 -0.4982
  371MOL0     C49963  11.950  10.579   6.811  0.1153  0.1399 -0.2090
  371MOL0     C49964  12.049  10.512   6.905  0.6118  0.5347 -0.2111
  371MOL0     C49965  12.181  10.592   6.898 -0.1918  0.4673  0.4874
  371MOL0     C49966  12.260  10.526   7.006 -0.8898 -0.2786 -0.0521
  371MOL0     N49967  12.390  10.593   7.016 -0.2580 -0.3356  0.2793
  371MOL0     C49968  12.513  10.529   6.986 -0.4650  0.1803  0.0981
  371MOL0     C49969  12.605  10.628   7.006  0.9876 -0.4878 -0.5740
  371MOL0     C49970  12.749  10.622   6.957  0.0940  0.2744 -0.3762
  371MOL0     C49971  12.857  10.695   7.042  0.4932  0.0617  0.1902
  371MOL0     C49972  12.972  10.710   6.943 -0.3733 -0.2361  0.5719
  371MOL0     C49973  13.105  10.761   7.015  0.9700  0.0357 -0.4558
  371MOL0     O49974  13.146  10.663   7.112 -0.7743  0.0013 -0.1632
  371MOL0     C49975  13.271  10.675   7.162  0.1285  0.6112  0.7784
  371MOL0     C49976  13.303  10.594   7.271  0.3305 -0.7845  0.0563
  371MOL0     C49977  13.427  10.599   7.337  0.4594  1.1659  0.0547
  371MOL0     C49978  13.519  10.694   7.292 -0.0937 -0.6200  1.0961
  371MOL0     C49979  13.651  10.712   7.356 -0.1245 -0.7067  0.7389
  371MOL0     O49980  13.684  10.619   7.451 -0.7984 -0.1076 -0.2167
  371MOL0     C49981  13.802  10.649   7.519 -0.0062 -0.2603 -0.1056
  371MOL0     C49982  13.800  10.731   7.628  0.4641  0.4618  0.6354
  371MOL0     C49983  13.910  10.766   7.705 -0.3129 -0.0570  0.1867
  371MOL0     C49984  14.034  10.731   7.652  0.5458  0.1962 -0.4166
  371MOL0     O49985  14.146  10.766   7.724 -0.4065  0.5487 -0.8890
  371MOL0     C49986  14.271  10.693   7.701 -0.5237 -0.4475  0.2820
  371MOL0     C49987  14.386  10.716   7.802  0.0243  0.2063 -0.0101
  371MOL0     C49988  14.502  10.624   7.772 -0.5753  0.1346 -0.3914
  371MOL0     C49989  14.635  10.668   7.843  0.0071  0.7038  0.1052
  371MOL0     C49990  14.732  10.733   7.745  0.7602  0.0137  0.7022
  371MOL0     C49991  14.858  10.791   7.809 -0.2831  0.1992 -0.5203
  371MOL0     C49992  14.884  10.939   7.772  0.4489 -0.8049  0.3274
  371MOL0     C49993  14.797  11.033   7.853  0.1572  0.2144  0.3774
  371MOL0    Cl49994  14.830  11.042   8.035 -0.0640  0.0866  0.1391
  371MOL0     C49995  14.044  10.656   7.531  0.0474  0.0876  0.6403
  371MOL0     C49996  13.926  10.607   7.473 -0.3387 -0.1001  0.3053
  371MOL0     O49997  13.728  10.802   7.311 -0.4113 -0.1583  0.8154
  371MOL0     C49998  13.484  10.782   7.185 -0.9284  0.4947 -0.2534
  371MOL0     C49999  13.361  10.773   7.121 -0.6044  0.0691 -0.3968
  371MOL0     N50000  12.538  10.741   7.044  0.0446 -0.0188 -0.6843
  371MOL0     N50001  12.414  10.724   7.052  0.2117 -0.5818  0.4551
  371MOL0     C50002  11.108  10.411   6.741 -0.2452  0.1003  1.1905
  371MOL0     C50003  10.977  10.451   6.712 -0.2944 -0.2443 -0.4970
  371MOL0     C50004  10.623  10.663   6.466 -0.2170 -0.2590 -0.6279
  371MOL0     C50005  10.581  10.714   6.586 -0.0921  0.2885 -0.2403
  371MOL0     C50006  10.453  10.770   6.602 -0.0356 -0.0762  0.3435
  371MOL0     C50007  10.362  10.782   6.503 -0.3353  0.7301  0.5436
  371MOL0     O50008  10.237  10.840   6.514 -0.2763  0.3377 -0.0161
  371MOL0     C50009  10.164  10.842   6.637 -1.3428 -0.0878  0.0933
  371MOL0     C50010  10.146  10.707   6.697  0.6759 -0.1169 -0.1916
  371MOL0     C50011  10.082  10.718   6.842 -0.9023  0.1376 -0.4831
  371MOL0     C50012  10.070  10.590   6.925 -0.5606  0.0758  1.5480
  371MOL0     C50013   9.966  10.505   6.864  0.4674 -0.3511 -0.3485
  371MOL0     C50014   9.879  10.448   6.804  0.3488  0.1539 -0.6097
  371MOL0     C50015  10.403  10.731   6.379  0.5195 -0.7993 -0.2542
  371MOL0     C50016  10.528  10.668   6.359 -0.8290 -0.0013  0.4314
  371MOL0     C50017  10.544  10.598   6.224 -0.3999  0.0572 -0.0971
  371MOL0     H50018  11.037  10.610   6.424  0.4820  1.0116  0.7223
  371MOL0     H50019  11.271  10.556   6.484  0.1367 -2.3541  1.0715
  371MOL0     H50020  11.472  10.512   6.572  1.9578  1.4062  0.9335
  371MOL0     H50021  11.429  10.613   6.707 -3.0898 -0.3078  0.7700
  371MOL0     H50022  11.613  10.358   6.690  0.9829  1.8019 -0.5150
  371MOL0     H50023  11.567  10.431   6.847  0.5206  1.2553  0.4550
  371MOL0     H50024  11.665  10.649   6.762  3.3351  2.0845 -2.8490
  371MOL0     H50025  11.744  10.549   6.638  0.7721 -0.8114 -0.2365
  371MOL0     H50026  11.780  10.530   6.943 -0.5568 -0.8628 -0.3639
  371MOL0     H50027  11.830  10.399   6.842 -0.5647  0.3229  2.6403
  371MOL0     H50028  11.975  10.566   6.706 -1.8704  2.0718 -0.9957
  371MOL0     H50029  11.933  10.684   6.837 -1.8356 -0.3810  0.8480
  371MOL0     H50030  12.003  10.527   7.003  0.2484  1.1856 -0.4730
  371MOL0     H50031  12.048  10.405   6.881 -0.7382  0.3862  0.4506
  371MOL0     H50032  12.163  10.698   6.913  2.1025  1.1880 -1.2475
  371MOL0     H50033  12.228  10.585   6.799 -2.3051  0.6792 -0.5788
  371MOL0     H50034  12.220  10.533   7.107  0.3642 -2.6457  0.6751
  371MOL0     H50035  12.271  10.421   6.979 -0.1936 -0.7422  1.9262
  371MOL0     H50036  12.534  10.431   6.945  1.9040  0.9101 -0.5702
  371MOL0     H50037  12.784  10.520   6.942  0.4713 -0.0928  2.4710
  371MOL0     H50038  12.746  10.673   6.860  0.6043 -2.3878 -1.8994
  371MOL0     H50039  12.829  10.800   7.057 -0.7201 -0.5193  2.3413
  371MOL0     H50040  12.890  10.641   7.131  3.5907  2.1190  0.4783
  371MOL0     H50041  12.950  10.778   6.860  1.9004  1.9778  1.6841
  371MOL0     H50042  13.003  10.618   6.893  1.3417  1.3370 -1.4693
  371MOL0     H50043  13.085  10.860   7.057  0.7092 -0.4104  0.4957
  371MOL0     H50044  13.181  10.771   6.937 -0.8269 -0.2547 -2.3203
  371MOL0     H50045  13.227  10.520   7.295  0.3513  0.1292  3.4911
  371MOL0     H50046  13.449  10.530   7.417 -0.5762 -2.7660 -2.7722
  371MOL0     H50047  13.698  10.750   7.661 -1.1880 -4.4919 -0.7546
  371MOL0     H50048  13.915  10.811   7.804  0.4521 -1.4576  0.8030
  371MOL0     H50049  14.233  10.590   7.703 -3.4552  0.5241  0.2333
  371MOL0     H50050  14.310  10.727   7.605 -0.8755  2.0074  0.9534
  371MOL0     H50051  14.417  10.819   7.786  0.3583 -0.0481 -1.0218
  371MOL0     H50052  14.351  10.712   7.906  1.4617 -1.1938  0.4583
  371MOL0     H50053  14.480  10.521   7.800 -2.9927  1.1269  1.6533
  371MOL0     H50054  14.518  10.622   7.664 -1.2349  0.0178 -0.4868
  371MOL0     H50055  14.681  10.571   7.861  0.5803  0.6269 -1.5707
  371MOL0     H50056  14.610  10.730   7.930 -1.7893  1.2068 -0.7052
  371MOL0     H50057  14.676  10.813   7.696 -1.2596 -2.0968 -0.6209
  371MOL0     H50058  14.749  10.663   7.663 -0.5196 -2.0991  2.1440
  371MOL0     H50059  14.846  10.778   7.917 -3.0005  1.4488 -0.5934
  371MOL0     H50060  14.944  10.732   7.775  1.2493  1.0798  1.6043
  371MOL0     H50061  14.879  10.949   7.664  0.2917 -1.7915  0.2306
  371MOL0     H50062  14.989  10.954   7.799  0.3665  0.7458 -0.1217
  371MOL0     H50063  14.826  11.130   7.813  0.4055 -0.3442 -0.8526
  371MOL0     H50064  14.689  11.023   7.836  0.3295 -1.4305  0.0771
  371MOL0     H50065  14.135  10.604   7.501 -0.6955 -0.7962 -0.1392
  371MOL0     H50066  13.929  10.528   7.398 -1.2560  0.5523 -0.4456
  371MOL0     H50067  13.551  10.866   7.171  0.5494 -0.6090 -0.0664
  371MOL0     H50068  13.343  10.847   7.044 -1.7752  1.5515  1.2040
  371MOL0     H50069  11.123  10.343   6.825 -1.3796 -0.3515  1.0539
  371MOL0     H50070  10.904  10.420   6.787  0.0726 -1.8790 -0.7781
  371MOL0     H50071  10.640  10.717   6.677  0.1926  0.3209 -0.4273
  371MOL0     H50072  10.434  10.822   6.695  0.9801 -0.7545  0.9529
  371MOL0     H50073  10.064  10.885   6.627 -1.5383 -0.9473 -2.2094
  371MOL0     H50074  10.227  10.903   6.704  1.6900 -0.4439 -2.2369
  371MOL0     H50075  10.248  10.668   6.707  1.2914  1.9508  3.3088
  371MOL0     H50076  10.092  10.635   6.635  2.6165 -3.9469  2.2369
  371MOL0     H50077   9.987  10.772   6.840 -0.0430  1.7645  0.6541
  371MOL0     H50078  10.147  10.784   6.900  0.4537 -0.4290 -1.3185
  371MOL0     H50079  10.166  10.539   6.919 -1.0036 -0.5877 -0.4368
  371MOL0     H50080  10.051  10.611   7.031  0.0143  1.0164  1.4831
  371MOL0     H50081   9.806  10.395   6.746  0.3630 -0.0067 -0.4818
  371MOL0     H50082  10.323  10.739   6.306  0.3123  1.0488  0.1286
  371MOL0     H50083  10.585  10.671   6.153 -0.2561  1.9163  1.7691
  371MOL0     H50084  10.613  10.513   6.226 -1.4016 -0.7891 -1.0414
  371MOL0     H50085  10.447  10.559   6.192 -0.8561  0.3254  0.9103
  372MOL0     O50086   4.880   4.494   1.119  0.8050  0.7857  0.2765
  372MOL0     C50087   4.784   4.495   1.194  0.1203  0.1673 -0.1579
  372MOL0     O50088   4.792   4.539   1.320  0.3508 -0.2207  0.2826
  372MOL0     C50089   4.909   4.596   1.367  1.1060 -1.0276  0.1973
  372MOL0     C50090   4.949   4.552   1.485  0.4680  0.7353 -0.6926
  372MOL0     C50091   5.065   4.601   1.544  0.3975 -0.4185 -0.6359
  372MOL0     C50092   5.140   4.700   1.481  0.0279  0.7379 -0.3945
  372MOL0     O50093   5.253   4.728   1.553 -0.2182  0.1883  0.0952
  372MOL0     C50094   5.356   4.819   1.505  0.1552  0.6894  0.1975
  372MOL0     C50095   5.437   4.859   1.629  0.3170  0.4147  0.9441
  372MOL0     C50096   5.579   4.896   1.582  0.6911  0.8325 -0.8529
  372MOL0     C50097   5.681   4.909   1.695  0.5671  0.0105 -0.7662
  372MOL0     C50098   5.814   4.910   1.623  0.6850  0.6584 -0.8074
  372MOL0     C50099   5.853   5.047   1.567  0.4861  0.7642  0.4723
  372MOL0     C50100   6.015   5.054   1.546  0.6131  0.2031 -0.6438
  372MOL0     C50101   6.062   5.190   1.499  0.6992 -0.1294  0.4820
  372MOL0     N50102   6.016   5.240   1.361 -0.0327  0.1931 -0.4624
  372MOL0     C50103   5.997   5.166   1.245  0.7164 -0.4849 -0.1130
  372MOL0     C50104   5.964   5.262   1.158 -0.1227  0.6312  0.1090
  372MOL0     C50105   5.938   5.245   1.012  0.2365  0.1518 -0.1678
  372MOL0     C50106   6.073   5.235   0.929  0.2887 -0.4087  0.8914
  372MOL0     C50107   6.043   5.153   0.799  0.4522  0.1352 -0.1128
  372MOL0     C50108   6.155   5.135   0.696 -0.4135 -0.9504 -0.2266
  372MOL0     O50109   6.213   5.011   0.704  0.0504  0.1914  0.0219
  372MOL0     C50110   6.342   4.990   0.660 -0.7266 -0.1386 -0.5303
  372MOL0     C50111   6.402   4.881   0.711  0.2404  0.3103 -0.3887
  372MOL0     C50112   6.533   4.836   0.676 -0.1349  0.8604  0.0757
  372MOL0     C50113   6.610   4.907   0.581  0.2667 -0.4106 -0.0027
  372MOL0     C50114   6.729   4.860   0.520 -0.3858  0.4536 -0.3480
  372MOL0     O50115   6.760   4.727   0.548 -0.1543 -0.0704 -0.1141
  372MOL0     C50116   6.884   4.688   0.522  0.6517  0.2898  1.2676
  372MOL0     C50117   6.996   4.771   0.550  0.4264 -0.8567  0.1759
  372MOL0     C50118   7.127   4.725   0.519  0.4859 -1.1693 -0.2320
  372MOL0     C50119   7.148   4.599   0.469 -0.3035  1.1284  0.1898
  372MOL0     O50120   7.275   4.557   0.439  0.8309  0.4060 -0.5111
  372MOL0     C50121   7.306   4.540   0.301 -0.2447  0.0958  0.1245
  372MOL0     C50122   7.446   4.592   0.281 -0.2188  0.8369  0.1245
  372MOL0     C50123   7.554   4.494   0.329 -0.1898 -0.2645 -0.1359
  372MOL0     C50124   7.688   4.561   0.304 -0.1971  0.8287 -0.8107
  372MOL0     C50125   7.802   4.474   0.362 -0.3753  0.7837  0.6331
  372MOL0     C50126   7.941   4.548   0.354  0.2133 -0.3282  0.2752
  372MOL0     C50127   8.042   4.470   0.437  0.4307  0.2766 -1.0595
  372MOL0     C50128   8.181   4.455   0.368 -1.0448 -0.0151  0.4014
  372MOL0    Cl50129   8.267   4.607   0.340  0.1292 -0.3144 -0.2457
  372MOL0     C50130   7.038   4.516   0.441  0.2350 -0.1236 -0.1364
  372MOL0     C50131   6.904   4.561   0.464  0.5401 -0.8092 -0.0073
  372MOL0     O50132   6.794   4.935   0.445 -0.3801 -0.4154 -0.1964
  372MOL0     C50133   6.552   5.029   0.537  0.4038 -0.1537  0.4707
  372MOL0     C50134   6.420   5.068   0.574 -0.2780 -0.2978  0.1038
  372MOL0     N50135   5.965   5.387   1.207  0.0384 -0.1950  0.3508
  372MOL0     N50136   5.982   5.368   1.333 -0.8055 -0.5081 -0.2561
  372MOL0     C50137   5.091   4.760   1.363 -0.7126  0.0294 -0.4095
  372MOL0     C50138   4.976   4.706   1.304 -0.5691  0.1262 -0.1219
  372MOL0     C50139   4.660   4.435   1.155  0.6586  0.0588 -0.9191
  372MOL0     C50140   4.547   4.445   1.239  0.5640 -0.3646  0.6654
  372MOL0     C50141   4.430   4.386   1.206  0.4012  0.1960  0.9682
  372MOL0     C50142   4.417   4.312   1.088 -0.8313 -0.5029  0.2576
  372MOL0     O50143   4.295   4.254   1.066  0.3492 -0.0192  0.8742
  372MOL0     C50144   4.301   4.112   1.081 -0.3196 -0.7718  0.0402
  372MOL0     C50145   4.275   4.079   1.232 -0.1412 -0.6269  0.2034
  372MOL0     C50146   4.330   3.949   1.292  0.1727  0.0631  0.0875
  372MOL0     C50147   4.335   3.943   1.446  0.4809 -0.2947 -0.2174
  372MOL0     C50148   4.201   3.945   1.505  0.3539 -0.3407 -0.0917
  372MOL0     C50149   4.088   3.929   1.551  0.7632 -0.5292 -0.9654
  372MOL0     C50150   4.522   4.310   0.997  0.7651  0.9948  0.5973
  372MOL0     C50151   4.643   4.368   1.032 -0.1733 -0.4213 -0.3165
  372MOL0     C50152   4.750   4.347   0.928 -0.1064  0.3567  0.6161
  372MOL0     H50153   4.900   4.478   1.547 -2.1847  2.2625 -0.7910
  372MOL0     H50154   5.101   4.574   1.643 -1.0589  2.8454  0.9684
  372MOL0     H50155   5.411   4.757   1.434  0.2889 -0.2857  1.1222
  372MOL0     H50156   5.294   4.898   1.462 -1.1015 -0.8692 -1.0077
  372MOL0     H50157   5.454   4.775   1.698  0.8209 -2.0108 -1.9099
  372MOL0     H50158   5.395   4.948   1.675 -2.5654  1.6522 -3.5098
  372MOL0     H50159   5.576   4.985   1.518 -1.8429  0.9664 -0.6453
  372MOL0     H50160   5.617   4.809   1.526  0.2302  0.1895 -0.1777
  372MOL0     H50161   5.667   5.004   1.747 -2.1373 -1.1092  0.7376
  372MOL0     H50162   5.670   4.835   1.774 -1.8818  0.8233 -0.2601
  372MOL0     H50163   5.890   4.892   1.700  0.3053  1.4028 -0.2571
  372MOL0     H50164   5.818   4.831   1.547  0.5068  0.2604 -0.4041
  372MOL0     H50165   5.800   5.076   1.476 -1.1790  0.9417  1.4455
  372MOL0     H50166   5.839   5.123   1.644  0.5265 -0.1911  1.4482
  372MOL0     H50167   6.047   4.979   1.474  0.1766 -0.7177  0.0951
  372MOL0     H50168   6.061   5.026   1.642 -0.9879  0.0500  0.1149
  372MOL0     H50169   6.033   5.263   1.574  0.6226  4.1672 -3.3012
  372MOL0     H50170   6.171   5.188   1.484  0.8709 -0.9617  1.7158
  372MOL0     H50171   6.004   5.058   1.240  1.0638 -0.4748  0.0740
  372MOL0     H50172   5.872   5.159   1.000  1.4666 -0.9362  0.5676
  372MOL0     H50173   5.880   5.330   0.973  0.1937 -1.1143 -3.1246
  372MOL0     H50174   6.096   5.337   0.900 -4.0265 -0.2367 -3.1040
  372MOL0     H50175   6.157   5.210   0.994 -0.5904  0.4668  2.4140
  372MOL0     H50176   5.956   5.201   0.754 -1.6803 -3.6254 -0.4318
  372MOL0     H50177   6.010   5.053   0.829 -0.1814  0.3834  0.0345
  372MOL0     H50178   6.220   5.218   0.724 -1.3916 -0.0019 -0.7080
  372MOL0     H50179   6.102   5.149   0.601 -1.0259 -0.4329  0.1830
  372MOL0     H50180   6.340   4.823   0.778  1.8161  0.6304  1.4437
  372MOL0     H50181   6.579   4.744   0.712  1.1624  0.8512 -1.4772
  372MOL0     H50182   6.976   4.869   0.594 -5.3158 -2.0725  1.0441
  372MOL0     H50183   7.203   4.801   0.531 -1.2563  0.5095  0.7197
  372MOL0     H50184   7.302   4.434   0.274 -2.2021  0.1048  0.2692
  372MOL0     H50185   7.241   4.603   0.240  1.2919  2.2585  0.5919
  372MOL0     H50186   7.462   4.602   0.173  0.1589 -1.6813 -0.1195
  372MOL0     H50187   7.451   4.693   0.321  0.9544  0.6195  0.5619
  372MOL0     H50188   7.543   4.476   0.436 -0.3765 -2.1503 -0.4249
  372MOL0     H50189   7.559   4.399   0.275  1.8998  1.0839 -2.5432
  372MOL0     H50190   7.697   4.662   0.345 -0.2385  0.6359 -0.3199
  372MOL0     H50191   7.716   4.567   0.198  1.6120 -0.2663 -0.4456
  372MOL0     H50192   7.802   4.378   0.309 -0.3457  2.4591 -2.6757
  372MOL0     H50193   7.774   4.449   0.464 -1.1796 -1.6729 -0.1161
  372MOL0     H50194   7.987   4.553   0.255 -1.0056  0.8684 -0.2651
  372MOL0     H50195   7.929   4.651   0.390  0.4664 -0.2851  0.2383
  372MOL0     H50196   7.998   4.371   0.451 -1.0664  1.0972  0.3531
  372MOL0     H50197   8.042   4.505   0.540 -1.7758 -1.3553 -0.4267
  372MOL0     H50198   8.250   4.388   0.421  3.5306  3.9394  0.1595
  372MOL0     H50199   8.168   4.419   0.266  0.3070  0.2888  0.1084
  372MOL0     H50200   7.050   4.421   0.390  0.9976 -0.9355  1.4785
  372MOL0     H50201   6.816   4.519   0.418 -0.9014  1.4793  0.5432
  372MOL0     H50202   6.580   5.098   0.458 -3.2304 -0.9211 -1.7094
  372MOL0     H50203   6.370   5.154   0.532 -0.1368  0.4533  1.4206
  372MOL0     H50204   5.145   4.844   1.320  1.6259 -2.0760 -1.8668
  372MOL0     H50205   4.930   4.748   1.215 -1.9648 -0.3988  0.3222
  372MOL0     H50206   4.551   4.493   1.337 -0.9877 -1.3960  1.2747
  372MOL0     H50207   4.347   4.394   1.275 -1.0989 -2.6811 -0.3271
  372MOL0     H50208   4.393   4.066   1.044 -1.6922 -3.1797 -0.6191
  372MOL0     H50209   4.220   4.056   1.033 -0.5747  0.0576 -0.5093
  372MOL0     H50210   4.167   4.083   1.250  0.1431  2.5791  1.8151
  372MOL0     H50211   4.320   4.158   1.292  0.9563 -0.8904 -0.2518
  372MOL0     H50212   4.436   3.941   1.266 -0.2470 -1.4232 -1.3380
  372MOL0     H50213   4.280   3.855   1.266  3.1694 -1.3796 -0.9482
  372MOL0     H50214   4.391   3.854   1.475 -0.1759 -0.6573 -0.0361
  372MOL0     H50215   4.395   4.025   1.486  1.4343 -1.5186  0.9522
  372MOL0     H50216   3.995   3.912   1.601 -0.5630 -1.0284 -3.4636
  372MOL0     H50217   4.516   4.258   0.901 -2.2097  1.0676  0.6427
  372MOL0     H50218   4.719   4.276   0.851  1.2102  0.7909 -0.3486
  372MOL0     H50219   4.785   4.440   0.882  1.5796 -1.2930 -1.6543
  372MOL0     H50220   4.838   4.295   0.967 -0.0683 -2.2522 -2.5732
  373MOL0     O50221   6.174   5.085   3.009  0.2220 -0.5768  0.4079
  373MOL0     C50222   6.076   5.097   3.080 -0.0843  0.8472 -0.2942
  373MOL0     O50223   6.078   5.095   3.223  0.9101 -0.0007 -0.0261
  373MOL0     C50224   6.196   5.077   3.287  0.9528  0.9209 -0.2950
  373MOL0     C50225   6.249   5.187   3.351 -0.0634 -0.0387 -0.2877
  373MOL0     C50226   6.375   5.172   3.407  0.6514 -0.2042  0.4783
  373MOL0     C50227   6.430   5.038   3.426  0.5512 -0.1699 -0.8585
  373MOL0     O50228   6.553   5.032   3.489  0.0877  0.0976 -0.1390
  373MOL0     C50229   6.625   4.910   3.472 -0.4742 -0.2488 -0.4969
  373MOL0     C50230   6.699   4.912   3.330 -0.0016  1.2702 -0.7034
  373MOL0     C50231   6.789   5.041   3.317  0.4338  0.8286 -0.1563
  373MOL0     C50232   6.909   5.019   3.413  0.9231  0.6376 -0.2316
  373MOL0     C50233   7.027   5.105   3.383  0.3210  0.4313  0.9448
  373MOL0     C50234   7.151   5.058   3.455 -0.0666 -0.7708 -0.5243
  373MOL0     C50235   7.232   4.937   3.400  0.4041  1.3724 -0.6039
  373MOL0     C50236   7.357   4.971   3.319  0.2734 -0.5688 -0.1331
  373MOL0     N50237   7.473   5.005   3.401  0.4945  0.3202 -0.0452
  373MOL0     C50238   7.531   5.125   3.416  0.6839  1.2595  0.0956
  373MOL0     C50239   7.642   5.107   3.495  0.4240  0.4389 -0.1442
  373MOL0     C50240   7.743   5.208   3.524  0.0113  0.0198 -0.7147
  373MOL0     C50241   7.705   5.355   3.486 -0.6143  0.0668  0.1389
  373MOL0     C50242   7.811   5.464   3.504  0.1068 -0.0373 -0.0493
  373MOL0     C50243   7.842   5.486   3.653 -0.6778 -0.1383  0.3254
  373MOL0     O50244   7.916   5.375   3.708  0.2252 -0.3273 -0.2065
  373MOL0     C50245   8.048   5.355   3.670  0.3803  0.6165  0.0390
  373MOL0     C50246   8.131   5.453   3.614  0.3435  0.5213 -1.0096
  373MOL0     C50247   8.267   5.427   3.602  0.4475 -0.1590 -0.0275
  373MOL0     C50248   8.323   5.299   3.632  0.5663 -0.6263  0.1476
  373MOL0     C50249   8.463   5.279   3.624 -0.5009  0.2963  0.7223
  373MOL0     O50250   8.521   5.152   3.631  0.2186  0.0144 -0.5173
  373MOL0     C50251   8.656   5.141   3.607  0.3187 -0.1365  0.6055
  373MOL0     C50252   8.719   5.210   3.494 -0.3718 -0.2749 -0.0267
  373MOL0     C50253   8.859   5.202   3.475 -0.5069  0.1066  0.3898
  373MOL0     C50254   8.939   5.118   3.556  0.6742  0.5405 -0.4764
  373MOL0     O50255   9.077   5.112   3.563  0.3770 -0.0319  0.2085
  373MOL0     C50256   9.152   5.147   3.449  0.1396 -0.8214  0.5146
  373MOL0     C50257   9.292   5.091   3.464  0.0391  0.2390  0.0711
  373MOL0     C50258   9.366   5.090   3.328  0.1828  0.4375 -0.2667
  373MOL0     C50259   9.503   5.018   3.319 -0.1700 -0.5430 -0.0286
  373MOL0     C50260   9.561   4.996   3.177  0.6422 -0.4095 -0.1368
  373MOL0     C50261   9.700   4.925   3.193 -0.8065 -0.3252 -0.8151
  373MOL0     C50262   9.746   4.870   3.055  0.1476 -0.3322 -0.4590
  373MOL0     C50263   9.797   4.975   2.946  0.0522  0.4756 -0.5644
  373MOL0    Cl50264   9.940   5.040   3.005 -0.1538  0.1823 -0.0814
  373MOL0     C50265   8.873   5.041   3.648  0.4338 -0.0928  0.3195
  373MOL0     C50266   8.738   5.057   3.678 -0.0648  0.6340  0.8390
  373MOL0     O50267   8.532   5.377   3.607 -0.2837  0.6604  0.5913
  373MOL0     C50268   8.241   5.200   3.680  0.4362  0.0673  0.0919
  373MOL0     C50269   8.103   5.232   3.692  0.0767 -0.5577 -0.1949
  373MOL0     N50270   7.662   4.968   3.506 -0.3599 -0.5109 -0.6532
  373MOL0     N50271   7.554   4.908   3.453  0.7740  0.3165  1.0322
  373MOL0     C50272   6.362   4.929   3.377  0.8700  0.4425 -0.6105
  373MOL0     C50273   6.243   4.940   3.308 -0.4311 -0.5043 -0.2553
  373MOL0     C50274   5.942   5.097   3.018 -0.6173  0.3684 -0.1697
  373MOL0     C50275   5.837   5.140   3.095 -0.1803  0.2703 -0.6185
  373MOL0     C50276   5.707   5.138   3.048  1.0372 -0.2374 -0.3127
  373MOL0     C50277   5.677   5.109   2.915  0.1388 -0.1513 -1.1054
  373MOL0     O50278   5.543   5.107   2.875  0.0796 -0.0263  0.4744
  373MOL0     C50279   5.517   5.135   2.729 -0.1645  0.3567 -0.4950
  373MOL0     C50280   5.544   5.281   2.697 -0.1068 -0.1493 -0.3131
  373MOL0     C50281   5.451   5.321   2.582 -0.2424 -0.1915 -0.6418
  373MOL0     C50282   5.306   5.358   2.623 -0.2681 -0.1520  0.7094
  373MOL0     C50283   5.201   5.256   2.624  0.2596  0.4380 -0.2541
  373MOL0     C50284   5.120   5.170   2.632  0.2810 -0.1685 -0.0569
  373MOL0     C50285   5.779   5.057   2.842  0.3232  0.1735 -0.2736
  373MOL0     C50286   5.915   5.046   2.883  0.6129 -0.2861 -0.5946
  373MOL0     C50287   6.012   4.985   2.799 -0.9010  0.6226 -0.4838
  373MOL0     H50288   6.200   5.283   3.343 -0.2102  0.1309  2.0033
  373MOL0     H50289   6.427   5.258   3.447 -0.7940 -0.0884  2.2675
  373MOL0     H50290   6.702   4.900   3.549  0.9910 -0.8719 -1.9907
  373MOL0     H50291   6.558   4.823   3.482  2.1475 -2.2470  0.8629
  373MOL0     H50292   6.623   4.904   3.251 -0.7407  0.0513  0.0851
  373MOL0     H50293   6.765   4.824   3.333 -0.5697  0.8398 -0.5537
  373MOL0     H50294   6.736   5.131   3.348  1.0252  1.1017  0.0830
  373MOL0     H50295   6.819   5.046   3.212 -0.9090 -0.1921 -0.6149
  373MOL0     H50296   6.884   5.043   3.517  0.8898  0.8158 -0.2798
  373MOL0     H50297   6.935   4.913   3.407 -0.6869 -0.0243  2.5214
  373MOL0     H50298   7.032   5.099   3.274 -3.6555 -0.1303  0.6234
  373MOL0     H50299   6.983   5.200   3.413 -3.7733 -1.1390  0.5772
  373MOL0     H50300   7.217   5.145   3.459 -3.1795  1.7414  0.3031
  373MOL0     H50301   7.118   5.047   3.559  1.0719  3.8227  0.5570
  373MOL0     H50302   7.166   4.871   3.343 -0.2989  0.2335  1.4392
  373MOL0     H50303   7.277   4.877   3.480  1.9292 -0.2974 -2.5810
  373MOL0     H50304   7.382   4.880   3.264  0.2886 -1.5993  1.5170
  373MOL0     H50305   7.339   5.048   3.243  4.7653 -0.6431 -1.5342
  373MOL0     H50306   7.495   5.216   3.368  0.8074  1.8649  1.1150
  373MOL0     H50307   7.758   5.218   3.632  1.6696  1.3454 -1.0236
  373MOL0     H50308   7.836   5.195   3.468  1.2228  0.4138  1.1142
  373MOL0     H50309   7.675   5.361   3.381  1.8748 -0.0746 -0.6557
  373MOL0     H50310   7.617   5.376   3.547 -1.7217  0.3436 -1.4919
  373MOL0     H50311   7.764   5.553   3.459 -1.4847 -0.9878 -0.3358
  373MOL0     H50312   7.903   5.444   3.449 -1.4542  2.7428 -4.2355
  373MOL0     H50313   7.746   5.495   3.704 -1.4251 -0.1268 -1.0532
  373MOL0     H50314   7.902   5.577   3.660  0.2640 -0.7030 -0.1447
  373MOL0     H50315   8.084   5.549   3.592  1.6595  1.5705  0.4878
  373MOL0     H50316   8.329   5.505   3.558 -0.0581 -0.3642 -1.1356
  373MOL0     H50317   8.655   5.269   3.430 -0.1450  0.6267  0.5598
  373MOL0     H50318   8.900   5.266   3.398  0.5078 -1.3929 -0.3867
  373MOL0     H50319   9.103   5.122   3.354 -1.0561  2.5447  0.0839
  373MOL0     H50320   9.161   5.256   3.442 -2.3126 -0.6262 -0.3757
  373MOL0     H50321   9.342   5.147   3.543 -1.1341  2.3621 -0.6035
  373MOL0     H50322   9.264   4.991   3.497 -3.5315  0.8198 -0.7886
  373MOL0     H50323   9.302   5.050   3.248  1.4301 -3.0721  0.3194
  373MOL0     H50324   9.378   5.191   3.287 -2.1417  0.4485 -1.1098
  373MOL0     H50325   9.489   4.925   3.375 -1.5181 -0.4106 -0.1032
  373MOL0     H50326   9.576   5.069   3.383 -0.0790  0.5457 -0.9759
  373MOL0     H50327   9.584   5.091   3.128 -1.6985  0.5414  0.4612
  373MOL0     H50328   9.492   4.943   3.110 -0.7607 -1.2649  1.8683
  373MOL0     H50329   9.777   4.986   3.242  0.4795 -1.7013 -1.0407
  373MOL0     H50330   9.678   4.840   3.258  1.5595 -1.4340 -1.3715
  373MOL0     H50331   9.677   4.801   3.007  0.3558  0.8222 -2.5610
  373MOL0     H50332   9.830   4.805   3.083  1.1564  0.2572 -1.9412
  373MOL0     H50333   9.811   4.917   2.854 -0.8995 -0.4559 -0.1439
  373MOL0     H50334   9.713   5.045   2.943 -1.2387 -0.6310  3.2188
  373MOL0     H50335   8.929   4.958   3.690  0.9795  1.3195  2.5744
  373MOL0     H50336   8.696   4.987   3.749 -0.2185  1.0846  1.1966
  373MOL0     H50337   8.281   5.104   3.712  0.2889 -0.3194 -0.8585
  373MOL0     H50338   8.038   5.153   3.730  1.6151 -1.5396  0.4876
  373MOL0     H50339   6.390   4.825   3.370 -0.8636  0.0098 -1.8342
  373MOL0     H50340   6.182   4.861   3.265 -1.4565 -1.0184  1.9954
  373MOL0     H50341   5.849   5.179   3.196  1.1280  2.8959 -1.6974
  373MOL0     H50342   5.625   5.170   3.110  0.9792  1.7364 -1.3196
  373MOL0     H50343   5.409   5.123   2.715 -0.9802  0.2759  4.2754
  373MOL0     H50344   5.572   5.068   2.661  2.3961 -0.9620  2.6072
  373MOL0     H50345   5.652   5.284   2.685  0.2889  1.0346  2.7284
  373MOL0     H50346   5.515   5.348   2.778 -0.7981  0.5016 -1.0856
  373MOL0     H50347   5.449   5.234   2.515  2.4716 -1.0726  0.3159
  373MOL0     H50348   5.497   5.407   2.533  3.0785 -2.0428 -1.1081
  373MOL0     H50349   5.298   5.421   2.712 -0.3423  1.9572 -0.7167
  373MOL0     H50350   5.268   5.424   2.544  0.4572  0.9235  1.2197
  373MOL0     H50351   5.028   5.114   2.639 -0.9788  1.8793  0.9458
  373MOL0     H50352   5.756   5.004   2.751 -1.0484 -1.0207  0.7131
  373MOL0     H50353   6.060   4.901   2.850  0.7099  0.7313 -1.7489
  373MOL0     H50354   5.958   4.952   2.710 -3.5455  0.7529  0.9617
  373MOL0     H50355   6.097   5.047   2.768  0.5868 -1.0507  0.1247
  374MOL0     O50356   9.541   2.479   7.180  0.2895  0.2205 -0.6484
  374MOL0     C50357   9.517   2.593   7.208 -0.0242  0.0366  1.0444
  374MOL0     O50358   9.591   2.701   7.174 -0.1944  0.5635 -0.4775
  374MOL0     C50359   9.725   2.681   7.133  0.6308 -0.5606  0.2877
  374MOL0     C50360   9.816   2.573   7.151  0.3522 -0.4132  0.3109
  374MOL0     C50361   9.947   2.582   7.089  0.1829  0.5737 -0.1180
  374MOL0     C50362   9.981   2.694   7.014  0.1342  0.3166 -0.0999
  374MOL0     O50363  10.100   2.699   6.940 -0.5578 -0.1427 -0.0721
  374MOL0     C50364  10.173   2.582   6.910 -0.8081  0.2914 -0.3104
  374MOL0     C50365  10.287   2.623   6.811  0.2289  0.3502  0.3599
  374MOL0     C50366  10.392   2.519   6.806 -0.0917  0.3659 -0.9632
  374MOL0     C50367  10.339   2.379   6.780 -0.2823 -0.7548  0.0711
  374MOL0     C50368  10.460   2.293   6.747  0.5242 -0.9319 -0.4895
  374MOL0     C50369  10.419   2.166   6.677 -0.5400  0.2085 -0.0369
  374MOL0     C50370  10.315   2.079   6.757  0.8263 -0.8438 -0.1222
  374MOL0     C50371  10.307   1.930   6.712 -0.4464 -0.3221  0.0910
  374MOL0     N50372  10.251   1.924   6.574 -0.5800 -0.2711  0.0718
  374MOL0     C50373  10.314   1.943   6.457 -0.2547 -0.1606  0.1182
  374MOL0     C50374  10.222   1.923   6.362  0.0164  0.6814  0.4050
  374MOL0     C50375  10.226   1.964   6.217  0.2698  0.0279  0.1602
  374MOL0     C50376  10.369   1.997   6.170  0.0492  0.4102  0.4692
  374MOL0     C50377  10.464   1.875   6.191  0.9399 -0.1170 -0.4716
  374MOL0     C50378  10.604   1.924   6.151 -0.0896  0.2994  0.0614
  374MOL0     O50379  10.636   2.048   6.210 -0.0016 -0.7579  0.1854
  374MOL0     C50380  10.763   2.093   6.197  0.8700  0.1274  1.3707
  374MOL0     C50381  10.848   2.068   6.088 -0.7224 -0.2800 -0.2673
  374MOL0     C50382  10.974   2.140   6.092  0.6892  0.4022  0.3408
  374MOL0     C50383  11.017   2.224   6.200  0.1754  0.1544  0.1612
  374MOL0     C50384  11.144   2.297   6.200 -0.5389 -0.2172 -0.0469
  374MOL0     O50385  11.233   2.268   6.097  0.2861  0.0511  0.0333
  374MOL0     C50386  11.364   2.288   6.124  0.1894  0.3624 -0.2182
  374MOL0     C50387  11.462   2.187   6.146 -0.3750  0.5352  0.0192
  374MOL0     C50388  11.596   2.214   6.180 -1.1001 -0.1864  0.7716
  374MOL0     C50389  11.637   2.351   6.177  0.2051  0.0791  0.2541
  374MOL0     O50390  11.769   2.392   6.182 -0.5887  0.3486  0.5823
  374MOL0     C50391  11.850   2.320   6.270 -0.2850  0.1382 -0.1850
  374MOL0     C50392  11.984   2.396   6.267  0.7547 -0.3808  0.2874
  374MOL0     C50393  12.088   2.313   6.322 -0.6146  0.2047 -0.1815
  374MOL0     C50394  12.199   2.386   6.399  0.6633 -0.5854 -0.2850
  374MOL0     C50395  12.279   2.288   6.492 -0.1899  0.5415 -0.0184
  374MOL0     C50396  12.371   2.359   6.585 -1.2719  0.2371  0.1744
  374MOL0     C50397  12.456   2.263   6.677  0.4135 -0.1360  0.0437
  374MOL0     C50398  12.558   2.348   6.764 -0.5008  0.5868  0.6654
  374MOL0    Cl50399  12.679   2.227   6.824 -0.3120 -0.0627  0.3139
  374MOL0     C50400  11.542   2.449   6.162 -0.6894 -0.1026  0.4270
  374MOL0     C50401  11.407   2.419   6.150 -0.6044  0.9513 -1.3120
  374MOL0     O50402  11.169   2.374   6.291 -0.3380  0.2339  0.4563
  374MOL0     C50403  10.933   2.230   6.307 -0.0157  0.0264 -0.1359
  374MOL0     C50404  10.804   2.176   6.299  0.3451  0.3581 -0.8332
  374MOL0     N50405  10.110   1.872   6.425 -0.4598  0.6385  0.3897
  374MOL0     N50406  10.125   1.884   6.549 -0.1442  0.7939  0.2456
  374MOL0     C50407   9.896   2.796   6.996 -0.5001 -1.0484 -0.3031
  374MOL0     C50408   9.772   2.792   7.061 -0.9056  0.0838  1.1166
  374MOL0     C50409   9.395   2.612   7.289 -0.2769 -0.8397 -0.3729
  374MOL0     C50410   9.293   2.521   7.272 -0.0648 -0.1236  0.2218
  374MOL0     C50411   9.177   2.515   7.352 -0.3983  0.2584 -0.0883
  374MOL0     C50412   9.150   2.616   7.457  0.0688  0.4867 -0.2573
  374MOL0     O50413   9.033   2.619   7.525  0.7166 -0.7272 -0.9827
  374MOL0     C50414   8.916   2.562   7.463 -0.7943 -0.3182  0.0259
  374MOL0     C50415   8.791   2.603   7.529  0.1410 -0.3970 -0.1517
  374MOL0     C50416   8.675   2.504   7.499  0.1313 -0.4250  0.6752
  374MOL0     C50417   8.539   2.551   7.569 -0.2124  0.1617  0.3330
  374MOL0     C50418   8.440   2.449   7.538 -0.7985  0.0490 -0.2546
  374MOL0     C50419   8.364   2.363   7.500 -0.4607  0.0615 -0.0840
  374MOL0     C50420   9.256   2.712   7.469  0.4030 -0.2675  0.3283
  374MOL0     C50421   9.368   2.720   7.382 -0.1574  0.0044  0.1760
  374MOL0     C50422   9.459   2.835   7.408 -0.6796 -0.4045 -0.2206
  374MOL0     H50423   9.784   2.481   7.199 -0.0115 -2.0339 -2.7973
  374MOL0     H50424  10.020   2.502   7.086  0.2378  0.6504 -1.3835
  374MOL0     H50425  10.207   2.539   7.005 -1.6429 -0.9672 -0.5726
  374MOL0     H50426  10.106   2.503   6.876 -2.0309  0.4368  1.5780
  374MOL0     H50427  10.328   2.721   6.836 -1.1248  0.3875  2.7179
  374MOL0     H50428  10.250   2.634   6.708 -0.5258 -1.2463  0.4300
  374MOL0     H50429  10.466   2.520   6.887  1.8914 -2.3636 -2.5657
  374MOL0     H50430  10.454   2.546   6.720  1.2978  2.4294  0.5699
  374MOL0     H50431  10.283   2.349   6.869 -1.2509 -2.6587 -1.1090
  374MOL0     H50432  10.270   2.392   6.695  0.3241  3.2001 -0.0230
  374MOL0     H50433  10.518   2.347   6.672 -1.7528  1.2469 -0.8274
  374MOL0     H50434  10.517   2.277   6.839  1.8352  2.8510 -0.5020
  374MOL0     H50435  10.373   2.183   6.580 -1.6372 -0.1536  0.4085
  374MOL0     H50436  10.516   2.116   6.663 -0.1122  0.9865  0.0922
  374MOL0     H50437  10.211   2.114   6.758  0.4042 -1.8462 -2.5898
  374MOL0     H50438  10.340   2.079   6.864  1.3934  2.1147 -0.1673
  374MOL0     H50439  10.405   1.884   6.729 -0.6724 -0.7015  0.3833
  374MOL0     H50440  10.234   1.872   6.768  0.5946 -0.7835  1.0068
  374MOL0     H50441  10.411   1.988   6.440 -0.1564 -0.5983 -0.5101
  374MOL0     H50442  10.188   1.890   6.146  2.1981 -1.1467  0.2965
  374MOL0     H50443  10.167   2.057   6.210  0.9256  0.6661  2.4164
  374MOL0     H50444  10.369   2.023   6.063 -0.4148  0.1247  0.3936
  374MOL0     H50445  10.406   2.083   6.226 -2.0386  0.7375  1.4302
  374MOL0     H50446  10.420   1.791   6.136  0.0702  0.8938 -1.3747
  374MOL0     H50447  10.463   1.836   6.293  0.4863 -0.4085 -0.5814
  374MOL0     H50448  10.604   1.943   6.043  0.2217  1.9507  0.3217
  374MOL0     H50449  10.675   1.843   6.163  0.6874  0.5023 -2.5165
  374MOL0     H50450  10.820   2.011   6.000 -0.5175  0.2814 -0.7026
  374MOL0     H50451  11.039   2.132   6.005 -1.8310  0.5103 -1.6451
  374MOL0     H50452  11.424   2.086   6.156 -1.2166  1.0584  3.2257
  374MOL0     H50453  11.662   2.134   6.212 -0.5612  0.5544  1.5586
  374MOL0     H50454  11.806   2.311   6.370  0.4571  0.6743  0.2055
  374MOL0     H50455  11.860   2.218   6.231 -3.6265 -0.6615  0.7325
  374MOL0     H50456  12.014   2.421   6.165 -0.2769  0.1650  0.0936
  374MOL0     H50457  11.979   2.492   6.320 -3.3192 -0.2930  0.1133
  374MOL0     H50458  12.043   2.231   6.378  1.2439 -0.2529  0.7176
  374MOL0     H50459  12.145   2.271   6.238 -0.7824  2.5999 -1.5751
  374MOL0     H50460  12.160   2.471   6.456 -0.2136 -0.3094 -1.2562
  374MOL0     H50461  12.268   2.435   6.330 -0.4143 -0.1218 -1.0627
  374MOL0     H50462  12.343   2.222   6.433 -1.5294  1.1624 -2.2807
  374MOL0     H50463  12.208   2.227   6.549  1.0770 -1.1554 -0.1894
  374MOL0     H50464  12.443   2.416   6.526  0.0894 -1.5977 -0.0315
  374MOL0     H50465  12.318   2.431   6.648 -0.4788  0.2080  0.8933
  374MOL0     H50466  12.520   2.201   6.614  1.5807  2.4046 -1.4368
  374MOL0     H50467  12.400   2.198   6.744 -0.9498 -1.7948 -2.5238
  374MOL0     H50468  12.615   2.432   6.723  3.0567 -0.7441  2.4156
  374MOL0     H50469  12.494   2.386   6.844  0.1935 -1.7025  2.4211
  374MOL0     H50470  11.562   2.555   6.153 -0.2466 -0.1313  0.9419
  374MOL0     H50471  11.343   2.505   6.130  0.0422  1.4011 -1.4705
  374MOL0     H50472  10.958   2.291   6.393 -0.6008 -0.8811  0.6978
  374MOL0     H50473  10.741   2.191   6.386  0.1388  0.1694 -0.9477
  374MOL0     H50474   9.925   2.875   6.929  0.6222 -1.0597  0.1449
  374MOL0     H50475   9.711   2.881   7.049  1.9167  2.1661  1.3177
  374MOL0     H50476   9.312   2.434   7.211 -0.7576 -0.5932  0.6688
  374MOL0     H50477   9.111   2.434   7.323  0.6451 -0.7320  0.2173
  374MOL0     H50478   8.922   2.454   7.478  2.5181 -0.1431  0.7223
  374MOL0     H50479   8.909   2.587   7.356  2.7272  0.3071 -0.1732
  374MOL0     H50480   8.760   2.707   7.519 -1.0952 -0.8673 -1.6409
  374MOL0     H50481   8.806   2.587   7.636 -0.5306  3.0148  0.5660
  374MOL0     H50482   8.707   2.403   7.522  2.2266 -0.1195 -0.6639
  374MOL0     H50483   8.643   2.507   7.394  0.8807 -2.2325  0.3684
  374MOL0     H50484   8.545   2.551   7.678  1.2713  2.2305  0.3125
  374MOL0     H50485   8.512   2.651   7.535 -0.5748  0.0566  0.3113
  374MOL0     H50486   8.315   2.273   7.469 -0.0463 -1.0788  2.3308
  374MOL0     H50487   9.238   2.790   7.542 -2.8750 -0.3671 -0.2203
  374MOL0     H50488   9.409   2.917   7.460  0.0281 -0.0585 -0.0822
  374MOL0     H50489   9.544   2.802   7.468 -0.5135  2.0243  0.9901
  374MOL0     H50490   9.495   2.876   7.313 -2.9461  0.1560 -0.9130
  375MOL0     O50491   9.063   4.701   0.212  0.1198 -0.0707 -0.1211
  375MOL0     C50492   9.001   4.623   0.146 -0.7542  1.0279 -1.7323
  375MOL0     O50493   9.059   4.508   0.097  0.3562 -0.0895 -0.3483
  375MOL0     C50494   9.191   4.481   0.126 -0.4762  0.0809  0.3391
  375MOL0     C50495   9.293   4.574   0.120  0.0395 -0.5356  0.1067
  375MOL0     C50496   9.412   4.545   0.185  0.3499 -0.2012  0.9991
  375MOL0     C50497   9.436   4.425   0.247  0.4619 -0.5433 -0.6972
  375MOL0     O50498   9.545   4.386   0.317  0.2858  0.0356  0.1145
  375MOL0     C50499   9.633   4.488   0.354 -0.1763  0.1439 -0.0834
  375MOL0     C50500   9.724   4.440   0.465 -0.1036  0.6763  0.2486
  375MOL0     C50501   9.865   4.405   0.413 -0.0373 -0.6874 -0.1581
  375MOL0     C50502   9.957   4.362   0.517 -0.9870 -0.0672  0.0026
  375MOL0     C50503  10.096   4.322   0.461 -0.1108 -0.7593 -0.0689
  375MOL0     C50504  10.197   4.280   0.572  0.5404 -0.1192 -0.6206
  375MOL0     C50505  10.337   4.240   0.521  0.5891 -0.3706 -0.7583
  375MOL0     C50506  10.419   4.360   0.498 -0.5283  0.6185  0.2438
  375MOL0     N50507  10.553   4.317   0.465  0.3127  0.0934  0.2205
  375MOL0     C50508  10.586   4.248   0.355 -0.2191 -0.3282  0.4337
  375MOL0     C50509  10.723   4.220   0.372  0.5990  0.3522 -0.0019
  375MOL0     C50510  10.829   4.143   0.301  1.1987  0.0610 -0.5374
  375MOL0     C50511  10.968   4.217   0.312  0.2799  0.0581 -0.2035
  375MOL0     C50512  11.083   4.134   0.265 -0.5484 -0.4050 -0.3991
  375MOL0     C50513  11.120   4.022   0.361  0.7247  0.4370  0.1527
  375MOL0     O50514  11.212   3.934   0.288  0.5539  0.3662  0.0335
  375MOL0     C50515  11.338   3.967   0.253  0.6712 -0.4437 -0.4540
  375MOL0     C50516  11.423   4.039   0.337  0.1747 -0.8845  0.3090
  375MOL0     C50517  11.557   4.071   0.300  0.9046  0.2900 -0.1171
  375MOL0     C50518  11.607   4.019   0.181  0.2389  0.0277 -0.0649
  375MOL0     C50519  11.743   4.053   0.132 -0.3496  0.0900  1.0166
  375MOL0     O50520  11.797   3.980   0.025 -0.6509 -0.0269  0.1743
  375MOL0     C50521  11.916   3.996  -0.039 -0.2318  0.3359 -0.9066
  375MOL0     C50522  11.966   3.883  -0.104  0.0041  0.6754 -0.1409
  375MOL0     C50523  12.096   3.887  -0.170 -0.4998 -1.2484 -0.2865
  375MOL0     C50524  12.171   4.005  -0.151  0.9960 -0.0169 -0.1504
  375MOL0     O50525  12.296   4.006  -0.207  0.6609 -0.1224 -0.4645
  375MOL0     C50526  12.396   4.109  -0.180 -0.2704 -0.5138  0.3477
  375MOL0     C50527  12.523   4.063  -0.246  0.5428 -0.3722 -0.6659
  375MOL0     C50528  12.523   4.053  -0.391  0.8200 -0.0418  0.4655
  375MOL0     C50529  12.492   4.182  -0.467 -0.1417  0.6515 -0.3143
  375MOL0     C50530  12.529   4.179  -0.616  0.0273 -0.3805  0.9938
  375MOL0     C50531  12.473   4.311  -0.683  0.1818  0.4421  0.0642
  375MOL0     C50532  12.522   4.337  -0.820  0.4860 -0.5195 -0.0383
  375MOL0     C50533  12.665   4.379  -0.822 -0.2616 -0.2304 -0.1750
  375MOL0    Cl50534  12.681   4.560  -0.791  0.0102  0.1192 -0.8747
  375MOL0     C50535  12.112   4.112  -0.093  0.2938 -0.4216  0.3057
  375MOL0     C50536  11.985   4.112  -0.034 -0.4110  0.9346 -0.4615
  375MOL0     O50537  11.802   4.124   0.204  0.3072  0.4531  0.6167
  375MOL0     C50538  11.515   3.942   0.103 -0.1868 -0.1893 -0.8321
  375MOL0     C50539  11.382   3.911   0.139 -0.3148  0.5264  0.6317
  375MOL0     N50540  10.759   4.267   0.497  0.3299 -0.1056  0.2901
  375MOL0     N50541  10.654   4.304   0.556 -0.3886 -0.5243 -0.3291
  375MOL0     C50542   9.335   4.324   0.248 -0.5667 -0.8476  0.5730
  375MOL0     C50543   9.213   4.352   0.185 -0.5532 -1.1991  0.3756
  375MOL0     C50544   8.853   4.635   0.141  0.3018 -0.7724  0.6429
  375MOL0     C50545   8.772   4.528   0.090 -0.2795 -0.6253  0.6720
  375MOL0     C50546   8.632   4.550   0.062  0.0398 -0.1492 -0.5911
  375MOL0     C50547   8.572   4.672   0.086 -0.5416  0.1188 -0.1258
  375MOL0     O50548   8.439   4.687   0.057 -0.0626  0.0216 -0.2435
  375MOL0     C50549   8.390   4.822   0.042 -0.1970 -0.5604  0.6471
  375MOL0     C50550   8.257   4.834  -0.028  0.0226  1.5525  0.2560
  375MOL0     C50551   8.147   4.771   0.047  0.4532 -0.1981  0.6012
  375MOL0     C50552   8.010   4.750  -0.024 -0.0502  0.1467  0.5760
  375MOL0     C50553   8.014   4.705  -0.161 -0.3965 -0.1560 -0.1591
  375MOL0     C50554   8.014   4.657  -0.271  0.7619  0.5036 -0.1383
  375MOL0     C50555   8.650   4.766   0.154 -0.2937  0.0446  0.1172
  375MOL0     C50556   8.784   4.757   0.186 -0.3610  0.2032 -0.0223
  375MOL0     C50557   8.836   4.881   0.248  0.1882 -0.0306 -0.0960
  375MOL0     H50558   9.269   4.664   0.065 -0.7666 -1.7543 -1.6430
  375MOL0     H50559   9.492   4.618   0.179  0.8096 -0.6445  1.5590
  375MOL0     H50560   9.680   4.517   0.260  1.0975 -3.0550 -0.5673
  375MOL0     H50561   9.578   4.574   0.391 -0.0479  1.0237 -1.8618
  375MOL0     H50562   9.683   4.347   0.506 -3.0952  1.1688 -1.3488
  375MOL0     H50563   9.731   4.525   0.533 -0.0718 -1.3187  2.8891
  375MOL0     H50564   9.914   4.492   0.368  3.9789 -1.6199  1.9660
  375MOL0     H50565   9.862   4.325   0.339 -1.2846 -2.6229  1.8639
  375MOL0     H50566   9.970   4.447   0.585 -3.7173 -0.1343  0.7195
  375MOL0     H50567   9.908   4.287   0.581 -0.8536  1.0049  1.4166
  375MOL0     H50568  10.094   4.240   0.389  3.0293 -1.0636  0.0517
  375MOL0     H50569  10.146   4.407   0.414 -2.2861  0.1393 -0.8999
  375MOL0     H50570  10.201   4.367   0.638  0.6332 -0.1001 -0.6515
  375MOL0     H50571  10.153   4.191   0.617  1.1857 -0.5027 -0.7474
  375MOL0     H50572  10.346   4.176   0.432 -0.7174 -0.9892 -0.4587
  375MOL0     H50573  10.369   4.184   0.609 -2.3401  0.3449  0.8761
  375MOL0     H50574  10.378   4.428   0.422  0.4563 -0.3473 -1.2124
  375MOL0     H50575  10.415   4.431   0.581 -2.1861  1.2628 -0.3352
  375MOL0     H50576  10.518   4.226   0.273  0.5019 -2.0457  0.2625
  375MOL0     H50577  10.828   4.043   0.347 -0.8884  1.4275  2.8392
  375MOL0     H50578  10.800   4.129   0.197  2.6584 -2.0454 -0.7212
  375MOL0     H50579  10.963   4.306   0.247  1.0268  0.8039  0.7405
  375MOL0     H50580  10.985   4.255   0.413 -2.1355  1.0744 -0.0916
  375MOL0     H50581  11.170   4.198   0.248 -0.7085  0.3076  1.2465
  375MOL0     H50582  11.048   4.101   0.167  0.3028  1.2888 -1.3107
  375MOL0     H50583  11.029   3.967   0.385 -0.9714  2.6241 -0.8873
  375MOL0     H50584  11.163   4.058   0.455  0.3855  0.9082  0.1298
  375MOL0     H50585  11.377   4.080   0.427  1.3039  1.4440 -0.1077
  375MOL0     H50586  11.616   4.136   0.364  1.6282  0.0866 -0.5578
  375MOL0     H50587  11.898   3.799  -0.116  0.9684 -0.0927 -0.3989
  375MOL0     H50588  12.121   3.801  -0.232  0.9785 -0.7008 -0.4987
  375MOL0     H50589  12.363   4.200  -0.231  0.6422 -2.5821 -4.5867
  375MOL0     H50590  12.412   4.131  -0.074  1.7011 -1.0026  0.1954
  375MOL0     H50591  12.601   4.128  -0.205 -0.4728  0.6291 -0.2647
  375MOL0     H50592  12.544   3.960  -0.216  0.5470 -0.7044 -1.7816
  375MOL0     H50593  12.626   4.021  -0.411  0.4388 -0.7991 -0.3731
  375MOL0     H50594  12.455   3.975  -0.426  0.1488 -0.2312  2.0654
  375MOL0     H50595  12.543   4.270  -0.426 -0.2124  1.7972 -2.5129
  375MOL0     H50596  12.382   4.187  -0.463 -0.1051  2.0840 -0.3847
  375MOL0     H50597  12.489   4.089  -0.665 -0.4183  0.1602  0.3394
  375MOL0     H50598  12.638   4.186  -0.621  0.0063  0.0651  1.1764
  375MOL0     H50599  12.364   4.302  -0.684  0.2725 -0.8955  0.0502
  375MOL0     H50600  12.484   4.401  -0.622 -1.7367  0.4353  0.4688
  375MOL0     H50601  12.454   4.410  -0.867  1.1238  0.9369  1.2311
  375MOL0     H50602  12.518   4.242  -0.874  1.1637 -2.0618  2.4793
  375MOL0     H50603  12.729   4.323  -0.753 -0.2601  1.0327  0.8870
  375MOL0     H50604  12.693   4.363  -0.927 -1.7331  2.1778 -1.0241
  375MOL0     H50605  12.149   4.213  -0.086 -3.4722  1.0279  2.3179
  375MOL0     H50606  11.954   4.199   0.022  1.5400  1.7955 -0.6368
  375MOL0     H50607  11.546   3.924   0.001 -1.9630  0.3890 -1.5173
  375MOL0     H50608  11.311   3.853   0.081  1.1564  1.0834 -1.8331
  375MOL0     H50609   9.348   4.229   0.300 -0.8139 -1.7752 -0.9945
  375MOL0     H50610   9.132   4.280   0.189 -1.3022 -0.3302  1.7790
  375MOL0     H50611   8.824   4.436   0.067  0.1726  0.0348 -1.1340
  375MOL0     H50612   8.563   4.475   0.025 -2.2331  0.4028  2.2462
  375MOL0     H50613   8.457   4.885  -0.017 -2.0752 -0.0378 -1.0463
  375MOL0     H50614   8.368   4.867   0.139  0.6274 -0.7377  0.9173
  375MOL0     H50615   8.271   4.787  -0.125  0.5954  2.7614 -0.2664
  375MOL0     H50616   8.245   4.943  -0.039  2.1076  1.6988 -1.0888
  375MOL0     H50617   8.130   4.829   0.138  0.2692  1.1905 -0.2843
  375MOL0     H50618   8.191   4.675   0.073  0.0656 -0.5203  0.0798
  375MOL0     H50619   7.952   4.685   0.042  0.7997 -0.4531  0.7498
  375MOL0     H50620   7.965   4.849  -0.034  2.1742  1.2411  0.8664
  375MOL0     H50621   8.020   4.613  -0.368  2.4051 -0.2944  0.3059
  375MOL0     H50622   8.596   4.853   0.188 -0.5297 -0.0217 -0.0861
  375MOL0     H50623   8.922   4.870   0.314  0.4353 -3.4997 -0.7836
  375MOL0     H50624   8.863   4.954   0.171 -0.4944  0.6054  0.2638
  375MOL0     H50625   8.766   4.924   0.320  1.3813 -0.9352  1.6724
  376MOL0     O50626  11.244   0.826   9.451  0.1803 -0.6789  0.0668
  376MOL0     C50627  11.209   0.838   9.336 -0.1859 -0.7198 -0.6466
  376MOL0     O50628  11.289   0.881   9.232  0.2247 -0.0351  0.0115
  376MOL0     C50629  11.425   0.889   9.260  0.6499 -0.8834  0.1654
  376MOL0     C50630  11.489   1.017   9.268 -0.1587  0.2912  0.3950
  376MOL0     C50631  11.626   1.014   9.292 -0.4933 -0.3556 -0.4337
  376MOL0     C50632  11.699   0.896   9.302  0.6418  0.5821 -0.4448
  376MOL0     O50633  11.834   0.898   9.336  0.8510 -0.0337  0.3758
  376MOL0     C50634  11.917   1.014   9.306  0.1479  0.0591  0.0261
  376MOL0     C50635  12.062   0.980   9.277 -0.1747  0.3679  0.2004
  376MOL0     C50636  12.122   0.906   9.401  0.9674  0.2520  0.9359
  376MOL0     C50637  12.272   0.870   9.368 -0.1266  0.2605 -0.4312
  376MOL0     C50638  12.333   0.847   9.507  0.0025 -0.0503  0.8598
  376MOL0     C50639  12.477   0.821   9.495  0.1743 -0.2068  0.2227
  376MOL0     C50640  12.548   0.814   9.631  0.0662  0.7155  0.8425
  376MOL0     C50641  12.690   0.769   9.603  1.8196  0.1918 -0.5780
  376MOL0     N50642  12.772   0.772   9.728 -0.1247  0.7734 -0.0902
  376MOL0     C50643  12.784   0.672   9.831  0.2719 -0.4081  0.3009
  376MOL0     C50644  12.884   0.721   9.908  0.3568 -0.5085 -0.3828
  376MOL0     C50645  12.948   0.654  10.027  0.1378 -0.2005  1.4256
  376MOL0     C50646  13.095   0.642  10.012 -0.1296 -0.2765  0.1027
  376MOL0     C50647  13.131   0.532   9.916  0.5368  0.1824  0.1821
  376MOL0     C50648  13.277   0.485   9.938  0.3440  0.7396 -0.0230
  376MOL0     O50649  13.362   0.596   9.915  0.5778  0.4444  0.7566
  376MOL0     C50650  13.502   0.573   9.925  0.4228  0.0212  0.5806
  376MOL0     C50651  13.552   0.451   9.968 -0.1070 -0.5166 -0.9732
  376MOL0     C50652  13.694   0.432   9.976  0.3968  0.1295 -0.5333
  376MOL0     C50653  13.781   0.537   9.946 -0.2914  0.4434  0.1780
  376MOL0     C50654  13.929   0.527   9.984 -0.0742  0.9408  0.2099
  376MOL0     O50655  13.959   0.418  10.063  0.8322 -0.1399  0.6525
  376MOL0     C50656  14.075   0.427  10.137  0.2871 -0.0955 -0.1574
  376MOL0     C50657  14.067   0.432  10.274 -0.9544 -0.3472 -0.0173
  376MOL0     C50658  14.188   0.433  10.351  0.3506 -0.1850  0.2107
  376MOL0     C50659  14.313   0.417  10.292 -0.3403  0.8630  0.6522
  376MOL0     O50660  14.415   0.408  10.383  0.0145  0.2000 -0.2122
  376MOL0     C50661  14.530   0.491  10.373  0.2628  0.5538 -0.1934
  376MOL0     C50662  14.659   0.401  10.421 -0.7883 -0.1904  0.3279
  376MOL0     C50663  14.788   0.478  10.379 -0.3775  0.7928 -1.1634
  376MOL0     C50664  14.909   0.399  10.421  0.1816 -0.5946 -0.7594
  376MOL0     C50665  15.043   0.466  10.379  0.0103  0.1993  0.2851
  376MOL0     C50666  15.171   0.392  10.420 -0.9414  0.2934 -0.3656
  376MOL0     C50667  15.187   0.256  10.348  0.2280 -0.2895  0.0923
  376MOL0     C50668  15.183   0.267  10.195 -0.1621 -0.5050  0.6222
  376MOL0    Cl50669  15.318   0.355  10.122 -0.1860  0.1821 -0.4632
  376MOL0     C50670  14.325   0.401  10.152 -0.4556  0.3536  0.6405
  376MOL0     C50671  14.202   0.407  10.074 -0.6869  0.2069 -0.1516
  376MOL0     O50672  14.000   0.615   9.946  0.0932 -0.0485 -0.2297
  376MOL0     C50673  13.725   0.663   9.904 -0.4274 -0.0301 -0.6315
  376MOL0     C50674  13.582   0.676   9.895  0.1707 -0.1270  0.0432
  376MOL0     N50675  12.927   0.834   9.841 -0.0595 -1.0731 -0.3429
  376MOL0     N50676  12.869   0.865   9.743 -0.0382 -0.0548 -0.0610
  376MOL0     C50677  11.631   0.773   9.301  0.2589  0.0898  0.5464
  376MOL0     C50678  11.495   0.768   9.280 -0.2775  0.6016  1.1285
  376MOL0     C50679  11.072   0.801   9.292 -0.5270  0.2157  0.3964
  376MOL0     C50680  11.059   0.733   9.161 -0.5039 -0.8820 -0.4094
  376MOL0     C50681  10.940   0.681   9.116  0.3370 -0.3983  1.0041
  376MOL0     C50682  10.828   0.679   9.203  0.1021  0.6340  0.4738
  376MOL0     O50683  10.723   0.602   9.154  0.5631 -0.6217  0.5531
  376MOL0     C50684  10.594   0.641   9.198  0.2977  0.1460  0.3094
  376MOL0     C50685  10.556   0.794   9.165  0.3036  1.4626 -0.4677
  376MOL0     C50686  10.581   0.828   9.014  0.4046  0.3139  0.0022
  376MOL0     C50687  10.550   0.973   8.986 -0.0166 -0.5203  0.1191
  376MOL0     C50688  10.621   1.025   8.867 -0.5051 -0.4062 -0.2543
  376MOL0     C50689  10.668   1.062   8.758 -0.7681 -0.0059 -0.2679
  376MOL0     C50690  10.841   0.734   9.325  0.5102 -0.3825 -0.9286
  376MOL0     C50691  10.954   0.801   9.367 -0.2462 -0.4582 -0.9069
  376MOL0     C50692  10.946   0.864   9.508 -0.1545  0.2017  0.1581
  376MOL0     H50693  11.445   1.116   9.271  2.2018  1.4070  2.3956
  376MOL0     H50694  11.675   1.109   9.310 -0.7340 -0.3376  0.1178
  376MOL0     H50695  11.874   1.045   9.210 -1.6133 -2.0524  0.0487
  376MOL0     H50696  11.916   1.094   9.381 -2.6483 -1.6203  2.0014
  376MOL0     H50697  12.121   1.070   9.258 -0.6555  0.0997 -3.1228
  376MOL0     H50698  12.066   0.907   9.195 -2.1979  1.9711 -1.4453
  376MOL0     H50699  12.073   0.810   9.422 -0.1686  0.2597 -1.3107
  376MOL0     H50700  12.127   0.981   9.480  1.2285  4.7193 -2.9265
  376MOL0     H50701  12.266   0.781   9.305 -3.1927  1.4900 -2.0975
  376MOL0     H50702  12.319   0.953   9.315  0.0557  0.4060 -0.0481
  376MOL0     H50703  12.311   0.925   9.580  1.5300  0.5976  0.6538
  376MOL0     H50704  12.290   0.750   9.536 -3.1975  0.3407 -1.9624
  376MOL0     H50705  12.489   0.739   9.423  0.8995 -0.1762  0.3020
  376MOL0     H50706  12.530   0.905   9.449  0.0015  0.0997  0.5846
  376MOL0     H50707  12.503   0.736   9.693  0.8261 -0.5588 -0.1591
  376MOL0     H50708  12.546   0.914   9.674  0.2705  1.7168 -1.3378
  376MOL0     H50709  12.690   0.669   9.559  1.5640 -0.2132  0.3356
  376MOL0     H50710  12.731   0.838   9.528 -2.1546  2.7633 -0.6465
  376MOL0     H50711  12.720   0.585   9.846 -0.0985  0.1307  2.1867
  376MOL0     H50712  12.936   0.711  10.119  1.6153  0.8884  0.9904
  376MOL0     H50713  12.903   0.555  10.035 -0.2036 -0.3094 -0.9299
  376MOL0     H50714  13.145   0.735   9.983 -1.1975 -0.0751 -1.2506
  376MOL0     H50715  13.138   0.613  10.108 -1.3808 -0.1529  0.7263
  376MOL0     H50716  13.132   0.578   9.817 -3.3532  2.7423  1.0992
  376MOL0     H50717  13.054   0.454   9.910 -0.0804  0.5549  2.2256
  376MOL0     H50718  13.311   0.418   9.858  0.8825  1.4630 -0.4181
  376MOL0     H50719  13.286   0.441  10.038 -0.9994  0.3841 -0.0461
  376MOL0     H50720  13.498   0.362   9.997 -1.7257  0.1790 -1.7305
  376MOL0     H50721  13.735   0.340  10.016 -2.8668 -0.6361  1.4294
  376MOL0     H50722  13.968   0.444  10.318 -1.2666 -0.6557 -0.6241
  376MOL0     H50723  14.182   0.427  10.459 -2.3452  0.3938  0.1530
  376MOL0     H50724  14.540   0.522  10.269 -1.7003  0.6024 -0.3978
  376MOL0     H50725  14.518   0.581  10.435  1.2198  0.9194 -0.5247
  376MOL0     H50726  14.647   0.363  10.523 -3.2755  1.6553  0.8587
  376MOL0     H50727  14.655   0.311  10.360  1.2883 -1.1039  1.4798
  376MOL0     H50728  14.791   0.483  10.270  0.9698 -1.4125 -1.2948
  376MOL0     H50729  14.787   0.576  10.428  1.5984  0.9527 -1.3489
  376MOL0     H50730  14.911   0.294  10.388  1.2867 -1.2838  1.2686
  376MOL0     H50731  14.906   0.387  10.530 -0.1109 -1.9917 -0.8998
  376MOL0     H50732  15.041   0.565  10.427  0.7587  1.3020 -1.8309
  376MOL0     H50733  15.050   0.487  10.272  0.2190 -4.5347 -0.8343
  376MOL0     H50734  15.257   0.454  10.395 -0.1153  0.3123  2.2531
  376MOL0     H50735  15.171   0.377  10.529  2.7074  1.5825 -0.0554
  376MOL0     H50736  15.100   0.195  10.375 -0.6909  1.2785  0.8428
  376MOL0     H50737  15.283   0.211  10.376  1.1160 -0.9349 -3.4827
  376MOL0     H50738  15.182   0.167  10.152  3.8297 -0.9783  1.1783
  376MOL0     H50739  15.086   0.308  10.165  0.1614 -0.1102  0.0995
  376MOL0     H50740  14.420   0.394  10.101 -1.5662  1.2375 -1.6598
  376MOL0     H50741  14.220   0.385   9.970 -1.6070  1.7940 -0.6837
  376MOL0     H50742  13.785   0.751   9.880 -1.8724  2.2058  3.0616
  376MOL0     H50743  13.543   0.770   9.857  0.1859 -0.6267 -1.2839
  376MOL0     H50744  11.693   0.686   9.319  0.9447  0.1915 -1.1814
  376MOL0     H50745  11.441   0.675   9.267  0.4598  0.4817 -1.8640
  376MOL0     H50746  11.152   0.716   9.108  0.8934  0.8875  1.3338
  376MOL0     H50747  10.934   0.638   9.016 -0.7428 -1.2854  1.4374
  376MOL0     H50748  10.580   0.631   9.306 -0.5504 -3.1047  0.0208
  376MOL0     H50749  10.524   0.570   9.154  0.4113  0.1269  0.1579
  376MOL0     H50750  10.623   0.850   9.230  0.2863  0.6245  0.2999
  376MOL0     H50751  10.452   0.827   9.175 -0.8790 -1.3906 -2.0466
  376MOL0     H50752  10.522   0.759   8.954 -1.1307  1.1920  0.4447
  376MOL0     H50753  10.683   0.800   8.986 -0.5705 -2.0023 -1.5516
  376MOL0     H50754  10.443   0.994   8.976  0.4057  1.8323 -0.0399
  376MOL0     H50755  10.585   1.030   9.072 -1.6988  0.3423  0.2841
  376MOL0     H50756  10.711   1.085   8.663 -1.3678 -1.6577 -0.9661
  376MOL0     H50757  10.754   0.749   9.389  1.5525  2.5173 -0.0524
  376MOL0     H50758  11.040   0.840   9.558 -0.8380 -1.1878  0.8288
  376MOL0     H50759  10.924   0.971   9.516  0.9753  0.5687 -1.1400
  376MOL0     H50760  10.878   0.795   9.559 -0.1916 -2.3458 -2.9854
  377MOL0     O50761   5.247   4.750   6.437 -0.0277 -0.1897  0.1568
  377MOL0     C50762   5.226   4.644   6.500 -0.2586 -0.7165  0.9013
  377MOL0     O50763   5.297   4.524   6.480  0.5023 -0.6948  0.0054
  377MOL0     C50764   5.401   4.522   6.392  0.0934  0.3291  1.1209
  377MOL0     C50765   5.384   4.467   6.270  0.7410 -0.3153 -0.0037
  377MOL0     C50766   5.488   4.439   6.178 -0.9331 -0.9477  0.1653
  377MOL0     C50767   5.613   4.490   6.212 -0.1470  0.2998  0.4408
  377MOL0     O50768   5.720   4.496   6.127 -0.3614  0.4886 -0.4726
  377MOL0     C50769   5.700   4.492   5.981 -0.2767 -1.4660 -0.5490
  377MOL0     C50770   5.777   4.380   5.909 -0.8251 -0.4206 -0.7843
  377MOL0     C50771   5.934   4.409   5.918  1.0038  0.0403 -1.1293
  377MOL0     C50772   6.010   4.310   5.840 -0.2470 -0.5123 -1.0970
  377MOL0     C50773   6.155   4.340   5.834 -0.0234  0.8176  0.5530
  377MOL0     C50774   6.215   4.225   5.747  0.0195 -0.1778 -1.0214
  377MOL0     C50775   6.362   4.228   5.717 -0.2350  0.0403  0.7340
  377MOL0     C50776   6.392   4.306   5.595  0.1888 -0.1971  0.1744
  377MOL0     N50777   6.540   4.310   5.579  0.2483 -0.2072 -0.1183
  377MOL0     C50778   6.616   4.202   5.559 -0.6063 -0.5528  0.4069
  377MOL0     C50779   6.737   4.251   5.564  0.2072  0.6381 -0.2105
  377MOL0     C50780   6.856   4.176   5.533 -0.7675 -0.3645  0.1712
  377MOL0     C50781   6.940   4.184   5.659 -0.4230 -0.5689  0.4873
  377MOL0     C50782   7.072   4.104   5.656 -0.1731 -0.4165  0.0675
  377MOL0     C50783   7.160   4.134   5.782  0.1777  0.0592 -0.4773
  377MOL0     O50784   7.262   4.027   5.762 -0.0364 -0.4119 -0.5880
  377MOL0     C50785   7.345   4.014   5.862 -0.1796  0.0643 -0.3910
  377MOL0     C50786   7.402   3.890   5.877  0.4241  0.0565 -0.3310
  377MOL0     C50787   7.490   3.870   5.979 -0.7193 -0.0762  0.5179
  377MOL0     C50788   7.528   3.974   6.073 -0.2920 -0.3600 -0.3575
  377MOL0     C50789   7.627   3.956   6.186 -0.1407  0.4230  0.1247
  377MOL0     O50790   7.667   3.830   6.221 -0.0010  0.6110  0.7255
  377MOL0     C50791   7.754   3.802   6.332 -0.8927 -0.5919 -0.1401
  377MOL0     C50792   7.891   3.750   6.302  0.0756 -0.3575  0.0331
  377MOL0     C50793   7.977   3.715   6.405 -0.0681  0.6781 -0.3115
  377MOL0     C50794   7.932   3.712   6.537  0.4837 -0.0096 -0.7718
  377MOL0     O50795   8.011   3.665   6.636 -0.1850 -0.3092  0.0487
  377MOL0     C50796   8.123   3.745   6.665  0.1436 -0.2869 -0.9589
  377MOL0     C50797   8.207   3.696   6.790  0.3001  0.4975 -0.2419
  377MOL0     C50798   8.359   3.718   6.770 -1.0168 -0.0175 -0.3161
  377MOL0     C50799   8.409   3.856   6.776 -0.5951  1.0459 -0.6229
  377MOL0     C50800   8.553   3.870   6.719  0.3846 -0.7517 -0.0624
  377MOL0     C50801   8.657   3.781   6.800  0.4944 -0.0194 -0.0861
  377MOL0     C50802   8.793   3.832   6.741  0.5985  0.3519 -0.4863
  377MOL0     C50803   8.821   3.768   6.608 -0.0910 -0.7862 -0.8052
  377MOL0    Cl50804   8.920   3.622   6.635  0.2032 -0.1112  0.3671
  377MOL0     C50805   7.800   3.745   6.562 -0.9783 -0.2717 -0.2635
  377MOL0     C50806   7.710   3.792   6.462  0.0676 -0.3958 -0.3332
  377MOL0     O50807   7.687   4.055   6.220 -1.2519  0.0356  0.7341
  377MOL0     C50808   7.459   4.100   6.064  0.2211 -0.7589 -0.6995
  377MOL0     C50809   7.362   4.111   5.964  0.7772  0.8114 -0.7067
  377MOL0     N50810   6.732   4.392   5.587 -1.1982 -0.0320  0.7886
  377MOL0     N50811   6.609   4.432   5.592 -0.7070  1.0492 -0.5997
  377MOL0     C50812   5.635   4.561   6.326  1.1391  0.8051 -0.4523
  377MOL0     C50813   5.526   4.576   6.415 -0.1757  0.4855 -0.1253
  377MOL0     C50814   5.113   4.646   6.599  0.6504 -0.0207 -0.0555
  377MOL0     C50815   5.026   4.758   6.611  0.5738 -0.2629  0.9426
  377MOL0     C50816   4.908   4.762   6.688  0.5120  1.0820  0.0089
  377MOL0     C50817   4.874   4.646   6.760 -0.4591  1.2820  0.0138
  377MOL0     O50818   4.766   4.635   6.843  0.5043  0.6405  0.4012
  377MOL0     C50819   4.706   4.761   6.894 -0.5004 -0.3885  0.2497
  377MOL0     C50820   4.597   4.716   6.999  0.0383 -0.5831  0.2966
  377MOL0     C50821   4.520   4.833   7.055 -0.1438  0.7409  0.4846
  377MOL0     C50822   4.437   4.806   7.181  0.2177  0.0693  0.3343
  377MOL0     C50823   4.312   4.743   7.151 -0.4141  0.7397 -0.1233
  377MOL0     C50824   4.199   4.696   7.163  0.0591  0.1329  0.2768
  377MOL0     C50825   4.959   4.534   6.757 -0.1509 -0.3428  0.5095
  377MOL0     C50826   5.082   4.539   6.685  0.3703  0.3284  0.3499
  377MOL0     C50827   5.167   4.419   6.710  0.0742 -0.3097  0.3931
  377MOL0     H50828   5.287   4.435   6.230  1.2699 -0.3438 -1.3316
  377MOL0     H50829   5.482   4.382   6.086  0.1108  2.8738 -2.4665
  377MOL0     H50830   5.592   4.496   5.967 -0.6789  0.1559  2.3337
  377MOL0     H50831   5.734   4.588   5.941  0.5781 -1.9510 -1.0308
  377MOL0     H50832   5.744   4.374   5.805 -0.1572  2.1043 -1.2202
  377MOL0     H50833   5.758   4.287   5.962 -0.2884  1.0105  2.1429
  377MOL0     H50834   5.961   4.406   6.024 -1.6511  0.2049 -0.3735
  377MOL0     H50835   5.957   4.507   5.877  2.2325  0.4499  0.4400
  377MOL0     H50836   5.987   4.209   5.874  1.7668 -0.1228  1.7599
  377MOL0     H50837   5.966   4.305   5.740 -1.6956 -0.2205 -0.4985
  377MOL0     H50838   6.170   4.431   5.776 -4.0643  0.2813 -1.6728
  377MOL0     H50839   6.204   4.339   5.932  0.9362  1.1777  0.0853
  377MOL0     H50840   6.212   4.131   5.804  5.6695 -1.8328 -2.7710
  377MOL0     H50841   6.162   4.193   5.657 -0.2662 -1.8080 -0.3202
  377MOL0     H50842   6.397   4.125   5.723 -1.2134 -0.3067  0.6207
  377MOL0     H50843   6.406   4.284   5.801 -0.5443  0.3892  0.6637
  377MOL0     H50844   6.343   4.257   5.511  2.3658 -0.4207 -1.0311
  377MOL0     H50845   6.356   4.408   5.611 -1.8463 -0.8958  0.2969
  377MOL0     H50846   6.582   4.101   5.541 -1.3613 -0.0984 -0.8681
  377MOL0     H50847   6.836   4.070   5.512  0.5159 -0.2452 -1.9559
  377MOL0     H50848   6.900   4.216   5.441 -2.8859 -3.4011 -2.3965
  377MOL0     H50849   6.972   4.288   5.666 -1.6010 -0.2380  1.2947
  377MOL0     H50850   6.880   4.150   5.744 -1.1305 -0.0733  0.1971
  377MOL0     H50851   7.134   4.133   5.570 -0.4542 -0.5523 -0.1828
  377MOL0     H50852   7.050   3.997   5.650  0.3366 -0.8463  3.6484
  377MOL0     H50853   7.111   4.133   5.880 -1.0562 -2.2962 -1.0412
  377MOL0     H50854   7.206   4.232   5.774  2.0484 -0.8577 -1.5535
  377MOL0     H50855   7.381   3.817   5.799  0.2651  0.7028 -0.9069
  377MOL0     H50856   7.537   3.772   5.985  2.2209  1.0664 -1.3883
  377MOL0     H50857   7.929   3.754   6.200  0.4438 -1.7949  0.0948
  377MOL0     H50858   8.078   3.684   6.383 -0.7508 -1.4726 -0.5821
  377MOL0     H50859   8.183   3.749   6.573  0.0322  0.2218 -1.0149
  377MOL0     H50860   8.098   3.849   6.685  0.0684 -0.6196  0.7761
  377MOL0     H50861   8.175   3.750   6.880  1.3564  2.2440 -0.8681
  377MOL0     H50862   8.188   3.588   6.793  1.0105  0.3558 -0.6035
  377MOL0     H50863   8.407   3.652   6.844 -2.0453  1.7694  2.1009
  377MOL0     H50864   8.383   3.673   6.674 -0.4473  0.2084 -0.2856
  377MOL0     H50865   8.412   3.895   6.878  3.5863 -0.3298 -0.0148
  377MOL0     H50866   8.340   3.917   6.718  0.6264  1.3911 -1.7749
  377MOL0     H50867   8.586   3.972   6.737  1.4917 -1.4100  2.0112
  377MOL0     H50868   8.542   3.842   6.614 -1.0740  0.2918 -0.2209
  377MOL0     H50869   8.648   3.817   6.903 -1.2969  2.1159 -0.8911
  377MOL0     H50870   8.638   3.674   6.790 -2.4711  0.5458 -1.5476
  377MOL0     H50871   8.878   3.808   6.806  1.6443 -1.3436 -2.3796
  377MOL0     H50872   8.796   3.942   6.746  1.0569  0.3370  4.5397
  377MOL0     H50873   8.730   3.742   6.553 -0.5050 -1.4258  0.1477
  377MOL0     H50874   8.885   3.837   6.554 -2.4696  1.0275 -1.4853
  377MOL0     H50875   7.765   3.738   6.664 -0.8152  1.8529 -0.0206
  377MOL0     H50876   7.610   3.818   6.497  0.9361  0.4447  1.6683
  377MOL0     H50877   7.471   4.188   6.127 -0.7425 -0.9849 -0.1744
  377MOL0     H50878   7.316   4.210   5.960 -2.0623 -0.2441  1.8675
  377MOL0     H50879   5.732   4.604   6.348  0.9771  1.7660 -1.5179
  377MOL0     H50880   5.543   4.625   6.511  0.7234 -0.2952  0.1186
  377MOL0     H50881   5.055   4.846   6.555  1.4632  0.3851  2.3723
  377MOL0     H50882   4.844   4.850   6.689  1.3197  1.7967 -2.6400
  377MOL0     H50883   4.661   4.814   6.810 -0.2526 -0.7722 -0.1258
  377MOL0     H50884   4.783   4.824   6.939 -0.4521  0.8237 -1.4538
  377MOL0     H50885   4.638   4.646   7.074 -1.1616 -0.6736  0.8965
  377MOL0     H50886   4.527   4.646   6.952 -2.1010  1.8978 -0.4292
  377MOL0     H50887   4.458   4.878   6.977  1.0691 -0.4342 -1.2194
  377MOL0     H50888   4.601   4.903   7.079  1.5394 -0.4766 -1.3075
  377MOL0     H50889   4.484   4.740   7.254  0.3491 -0.0958  0.1026
  377MOL0     H50890   4.420   4.905   7.224  1.7134  0.1463  0.8202
  377MOL0     H50891   4.105   4.648   7.177 -0.4298  1.5399  2.1597
  377MOL0     H50892   4.930   4.450   6.819 -0.4808 -0.0755  0.7235
  377MOL0     H50893   5.149   4.343   6.633 -0.0729  1.0597 -0.9708
  377MOL0     H50894   5.270   4.451   6.722  1.1413 -2.9712 -0.7864
  377MOL0     H50895   5.156   4.369   6.807 -2.4824  0.7522  0.7454
  378MOL0     O50896   4.983   5.439   5.736 -0.2124  0.7826  0.2941
  378MOL0     C50897   4.872   5.387   5.710  0.2225 -0.0115 -0.2556
  378MOL0     O50898   4.846   5.297   5.609 -0.4605 -0.6917 -0.6577
  378MOL0     C50899   4.955   5.230   5.567  0.3039 -0.3252 -0.2848
  378MOL0     C50900   5.052   5.289   5.489  0.3420  0.3511  0.0237
  378MOL0     C50901   5.167   5.216   5.453 -0.4455 -0.4435 -0.7833
  378MOL0     C50902   5.189   5.085   5.499 -0.3522  0.5020  0.4257
  378MOL0     O50903   5.300   5.010   5.480 -0.9681  0.6990  0.3215
  378MOL0     C50904   5.419   5.078   5.445 -0.2532 -0.2684 -0.1537
  378MOL0     C50905   5.530   4.986   5.470  1.1576  0.2581 -0.2554
  378MOL0     C50906   5.669   5.034   5.414  0.1590  0.6129 -0.6757
  378MOL0     C50907   5.780   4.956   5.478 -0.4757  0.1021  0.6313
  378MOL0     C50908   5.906   5.039   5.465 -0.5822  0.0417 -0.6036
  378MOL0     C50909   5.944   5.069   5.318  0.8969 -0.0373  0.0107
  378MOL0     C50910   6.096   5.103   5.301  0.3178  1.1061  0.1380
  378MOL0     C50911   6.132   5.237   5.370  0.3444 -0.5846 -0.9575
  378MOL0     N50912   6.257   5.298   5.329 -0.0314  0.0341  0.6990
  378MOL0     C50913   6.281   5.397   5.239  0.3085  0.2834 -0.9462
  378MOL0     C50914   6.420   5.419   5.255 -0.0574  0.5209 -0.9908
  378MOL0     C50915   6.482   5.530   5.185  0.3154 -0.8786 -0.3633
  378MOL0     C50916   6.637   5.544   5.212  0.3580 -0.0538 -0.0886
  378MOL0     C50917   6.695   5.680   5.163 -0.8153 -0.1086  0.0483
  378MOL0     C50918   6.678   5.699   5.011 -0.3434  0.8246  0.2889
  378MOL0     O50919   6.765   5.609   4.940  0.0533  0.0290 -1.0827
  378MOL0     C50920   6.901   5.613   4.952  0.2530  0.1202 -0.6736
  378MOL0     C50921   6.975   5.492   4.977 -0.1851 -0.8773  0.4260
  378MOL0     C50922   7.117   5.494   4.980  0.2666 -0.5771  1.0495
  378MOL0     C50923   7.192   5.616   4.948  0.2137  0.2378 -0.3082
  378MOL0     C50924   7.337   5.599   4.937 -1.0241 -0.6983 -0.1310
  378MOL0     O50925   7.393   5.480   4.927 -0.3100  0.4889  0.2547
  378MOL0     C50926   7.527   5.464   4.914  0.4401 -0.4384  0.0429
  378MOL0     C50927   7.608   5.536   4.822  0.8481  0.0612  0.0696
  378MOL0     C50928   7.747   5.541   4.828  0.2661  0.0187  0.6543
  378MOL0     C50929   7.812   5.456   4.919  0.2267 -0.0599 -0.5175
  378MOL0     O50930   7.949   5.463   4.925 -0.1544 -0.0988 -0.2174
  378MOL0     C50931   8.009   5.387   5.026 -0.0328 -0.3212  0.5988
  378MOL0     C50932   8.165   5.384   5.038  0.0740  0.0059  0.4896
  378MOL0     C50933   8.220   5.515   5.098 -0.1870  0.3436  0.5558
  378MOL0     C50934   8.373   5.507   5.119  0.2459 -0.9362 -0.1821
  378MOL0     C50935   8.424   5.662   5.120  0.2492  0.2600  0.7028
  378MOL0     C50936   8.571   5.694   5.089  0.5009  0.1813  0.3946
  378MOL0     C50937   8.670   5.654   5.197  0.4866 -0.8079 -0.6468
  378MOL0     C50938   8.782   5.754   5.199  0.7413  0.3863 -0.4846
  378MOL0    Cl50939   8.896   5.669   5.317  0.1145  0.0429  0.4319
  378MOL0     C50940   7.735   5.375   5.004  0.0213  0.8222  0.3060
  378MOL0     C50941   7.597   5.381   5.001 -0.0342  0.7304 -0.0194
  378MOL0     O50942   7.402   5.708   4.938 -0.4645 -0.2453  0.4139
  378MOL0     C50943   7.113   5.730   4.917  0.0499 -0.5590  0.4557
  378MOL0     C50944   6.976   5.726   4.921 -0.3155 -0.7335 -0.9323
  378MOL0     N50945   6.467   5.324   5.339 -0.1314  0.3648 -1.4573
  378MOL0     N50946   6.373   5.252   5.389  0.5214 -0.5974 -0.2237
  378MOL0     C50947   5.089   5.034   5.573  0.0157 -0.8598  0.2302
  378MOL0     C50948   4.971   5.097   5.610 -0.4442  0.2314 -0.1632
  378MOL0     C50949   4.767   5.420   5.802  0.5302 -0.0315  0.0428
  378MOL0     C50950   4.644   5.466   5.748 -0.3704 -1.0222  0.0389
  378MOL0     C50951   4.550   5.544   5.820  0.0327  0.6247  0.0386
  378MOL0     C50952   4.563   5.557   5.955  0.0632  0.4535 -0.1896
  378MOL0     O50953   4.464   5.614   6.027  0.1228 -0.0852 -0.4083
  378MOL0     C50954   4.356   5.529   6.068 -0.7261 -1.3505 -0.4660
  378MOL0     C50955   4.371   5.490   6.215  0.2604 -0.1427 -0.2281
  378MOL0     C50956   4.249   5.409   6.265 -0.0234 -0.6242 -0.6100
  378MOL0     C50957   4.268   5.371   6.415 -0.0951  0.9511  0.6770
  378MOL0     C50958   4.146   5.326   6.467 -0.3757 -0.2672  0.1791
  378MOL0     C50959   4.037   5.292   6.500  0.0023  0.1055  0.0290
  378MOL0     C50960   4.671   5.494   6.021 -0.7638 -0.4413  1.1224
  378MOL0     C50961   4.769   5.420   5.947 -0.2891 -0.3194  0.2423
  378MOL0     C50962   4.890   5.375   6.017 -0.5719 -0.1049  0.0901
  378MOL0     H50963   5.038   5.394   5.463 -1.7934  0.5154  1.5697
  378MOL0     H50964   5.249   5.256   5.394 -0.2961  1.4877  0.6647
  378MOL0     H50965   5.417   5.104   5.339  2.9331 -0.6527 -0.4138
  378MOL0     H50966   5.436   5.161   5.514 -1.2127 -0.5143  0.4033
  378MOL0     H50967   5.506   4.889   5.425  0.0850 -1.1409  3.0320
  378MOL0     H50968   5.539   4.976   5.578  1.5576  0.4934 -0.2639
  378MOL0     H50969   5.686   5.140   5.434 -0.0002  0.2036  1.9322
  378MOL0     H50970   5.678   5.022   5.306  0.5359  0.9674 -0.6870
  378MOL0     H50971   5.763   4.932   5.583  1.6697 -0.9658  0.7884
  378MOL0     H50972   5.781   4.861   5.424 -0.0996  1.5712 -2.1224
  378MOL0     H50973   5.879   5.134   5.512 -3.7373 -0.8069 -0.4807
  378MOL0     H50974   5.982   4.988   5.524  1.3019  0.2355 -2.6962
  378MOL0     H50975   5.922   4.974   5.267  0.9833 -1.2487  2.0995
  378MOL0     H50976   5.878   5.147   5.278  0.7695 -0.5532 -0.8157
  378MOL0     H50977   6.119   5.108   5.194  0.2825  0.7805  0.1152
  378MOL0     H50978   6.149   5.017   5.341 -1.5667  0.1570  0.6912
  378MOL0     H50979   6.051   5.307   5.347 -0.2222 -1.5299 -1.9820
  378MOL0     H50980   6.130   5.232   5.479  1.3284  1.3284 -0.8282
  378MOL0     H50981   6.205   5.454   5.186 -0.5464 -0.2504 -0.2972
  378MOL0     H50982   6.462   5.503   5.081  0.8638 -2.4602 -0.0809
  378MOL0     H50983   6.429   5.621   5.213 -2.9975 -2.1899 -1.9044
  378MOL0     H50984   6.649   5.529   5.319  0.7067 -2.3306 -0.4067
  378MOL0     H50985   6.695   5.464   5.165  2.0276  0.8772  0.2823
  378MOL0     H50986   6.803   5.682   5.183 -1.0465 -1.7969  1.6247
  378MOL0     H50987   6.645   5.759   5.220 -1.2568 -2.6383  3.4731
  378MOL0     H50988   6.701   5.803   4.987 -1.1583  1.2180  1.1231
  378MOL0     H50989   6.574   5.681   4.981  0.2498  0.4678 -1.6377
  378MOL0     H50990   6.925   5.399   5.000  0.9294 -1.2059  1.6314
  378MOL0     H50991   7.173   5.404   5.000  2.6414 -0.0505 -2.3594
  378MOL0     H50992   7.559   5.585   4.738  1.0289 -0.7727 -0.5330
  378MOL0     H50993   7.807   5.608   4.768  0.9373 -0.1641  1.1140
  378MOL0     H50994   7.983   5.429   5.124  0.9366 -3.7526  2.5165
  378MOL0     H50995   7.973   5.284   5.033  0.3992 -0.4059  1.8878
  378MOL0     H50996   8.195   5.302   5.105  1.0700  0.1015  0.1840
  378MOL0     H50997   8.213   5.364   4.942  1.2432 -1.3917  1.3181
  378MOL0     H50998   8.193   5.587   5.021 -1.4385 -0.4268  0.2391
  378MOL0     H50999   8.180   5.547   5.194  0.3585  0.4302  0.7591
  378MOL0     H51000   8.426   5.471   5.030  0.6159  1.5230 -1.0659
  378MOL0     H51001   8.397   5.466   5.217  0.8956 -0.6782 -0.2255
  378MOL0     H51002   8.391   5.717   5.209  1.7324 -1.8965  2.7306
  378MOL0     H51003   8.373   5.710   5.036 -1.6137  0.2703  1.7896
  378MOL0     H51004   8.590   5.645   4.994 -0.9513  1.2672 -0.5003
  378MOL0     H51005   8.577   5.803   5.081 -0.2073  0.2176  0.3011
  378MOL0     H51006   8.708   5.553   5.177 -0.7329 -1.2159 -0.9852
  378MOL0     H51007   8.627   5.660   5.298  0.0786 -0.8960 -0.8141
  378MOL0     H51008   8.831   5.787   5.107  1.5158  0.7075  0.0316
  378MOL0     H51009   8.748   5.840   5.256 -2.7259 -1.0911 -0.0574
  378MOL0     H51010   7.769   5.304   5.079 -1.7683  0.9781  1.3120
  378MOL0     H51011   7.542   5.311   5.062  2.1292 -0.2659  0.8788
  378MOL0     H51012   7.165   5.824   4.901  1.9208 -1.8344 -1.6329
  378MOL0     H51013   6.924   5.821   4.906 -0.8968 -0.5710  1.5956
  378MOL0     H51014   5.112   4.931   5.599  1.3168 -0.2234  1.7202
  378MOL0     H51015   4.890   5.052   5.667 -0.5098  0.0960 -0.3608
  378MOL0     H51016   4.644   5.459   5.639  1.4781  0.8625 -0.1297
  378MOL0     H51017   4.461   5.582   5.772  0.2044 -1.4293 -2.1178
  378MOL0     H51018   4.362   5.432   6.016  0.7767 -1.5925  0.0956
  378MOL0     H51019   4.258   5.570   6.042 -0.1507 -0.9267 -2.0920
  378MOL0     H51020   4.376   5.592   6.254 -0.8212  0.2929 -1.1784
  378MOL0     H51021   4.464   5.437   6.236 -0.4207 -1.7927 -1.2332
  378MOL0     H51022   4.237   5.314   6.213  0.9462 -1.8774  1.3427
  378MOL0     H51023   4.164   5.477   6.255  0.4034 -0.1700 -1.2839
  378MOL0     H51024   4.348   5.298   6.429  0.4317  1.3148 -0.3267
  378MOL0     H51025   4.302   5.459   6.470  0.7442  1.1820 -0.1752
  378MOL0     H51026   3.938   5.260   6.527  1.4830 -3.1277  2.1753
  378MOL0     H51027   4.680   5.490   6.129  1.4722 -1.0148  0.9641
  378MOL0     H51028   4.924   5.279   5.977  1.3108  0.1097  1.0640
  378MOL0     H51029   4.963   5.456   6.011 -0.3467  0.0557  3.2843
  378MOL0     H51030   4.873   5.351   6.123  0.2040 -1.3226 -0.0389
  379MOL0     O51031  10.996   6.013   4.781 -0.0482  0.2228 -0.1561
  379MOL0     C51032  10.897   6.030   4.720 -0.0701 -0.3080 -1.2211
  379MOL0     O51033  10.830   5.935   4.644 -0.1899  0.4983  0.0670
  379MOL0     C51034  10.869   5.805   4.636  0.0116  0.0243  0.1260
  379MOL0     C51035  11.005   5.766   4.633 -0.6635  0.0392  0.8732
  379MOL0     C51036  11.045   5.626   4.614 -0.1186 -0.2407 -0.3230
  379MOL0     C51037  10.951   5.529   4.586 -0.3641 -0.1923 -0.0326
  379MOL0     O51038  10.998   5.397   4.580  0.1539 -0.9797 -0.0418
  379MOL0     C51039  10.937   5.313   4.478 -0.3558  0.0859 -0.6748
  379MOL0     C51040  11.043   5.219   4.425  0.4463  0.1801 -0.5814
  379MOL0     C51041  10.996   5.139   4.308 -0.5074 -0.6437 -0.2476
  379MOL0     C51042  11.060   5.189   4.177  0.1250 -0.6975  0.4086
  379MOL0     C51043  11.201   5.140   4.154  0.6214 -0.0536 -0.3482
  379MOL0     C51044  11.214   4.985   4.117 -0.4057  0.4503  0.3314
  379MOL0     C51045  11.361   4.966   4.087  0.5977  0.0118  0.1414
  379MOL0     C51046  11.405   4.828   4.138 -0.4221 -0.0716  0.1936
  379MOL0     N51047  11.532   4.782   4.082  0.4382  0.3090  0.2240
  379MOL0     C51048  11.560   4.657   4.032  0.4574  0.9721  0.5042
  379MOL0     C51049  11.663   4.681   3.941  0.1830 -0.6731  0.7049
  379MOL0     C51050  11.721   4.589   3.845 -1.0759  0.0533  0.1159
  379MOL0     C51051  11.865   4.566   3.891 -0.5796  0.1805 -0.2021
  379MOL0     C51052  11.863   4.517   4.038 -0.1016 -0.0997  0.3446
  379MOL0     C51053  11.964   4.407   4.078 -0.5061  0.0401 -0.3402
  379MOL0     O51054  12.099   4.412   4.016 -0.0827 -0.6020 -0.4459
  379MOL0     C51055  12.194   4.494   4.075  0.4014 -0.0566 -0.5535
  379MOL0     C51056  12.170   4.602   4.162 -0.2594  0.1623  0.0598
  379MOL0     C51057  12.273   4.668   4.217  0.0815 -0.8006 -0.4834
  379MOL0     C51058  12.407   4.621   4.195 -0.3647 -0.2221 -0.0601
  379MOL0     C51059  12.522   4.688   4.272  0.5516 -0.0118  0.7254
  379MOL0     O51060  12.640   4.633   4.257 -0.0960 -0.0523  0.1517
  379MOL0     C51061  12.757   4.687   4.299  0.1859  0.5124 -0.8878
  379MOL0     C51062  12.783   4.794   4.389 -0.2061 -0.4047  0.0797
  379MOL0     C51063  12.915   4.849   4.407  0.2089  0.3312  0.3336
  379MOL0     C51064  13.023   4.792   4.343 -0.7433  0.0266 -1.1723
  379MOL0     O51065  13.148   4.840   4.363 -0.2147 -0.0667  0.9098
  379MOL0     C51066  13.267   4.783   4.313  0.2060 -0.0784  0.8385
  379MOL0     C51067  13.379   4.883   4.311 -0.0920 -0.4792 -0.7008
  379MOL0     C51068  13.512   4.823   4.301 -0.8921 -0.6053 -0.3198
  379MOL0     C51069  13.632   4.912   4.257 -1.0732 -0.0882  0.1879
  379MOL0     C51070  13.754   4.822   4.266 -0.3679  0.1249 -0.4925
  379MOL0     C51071  13.885   4.889   4.220 -0.4563  0.6065  0.1351
  379MOL0     C51072  14.021   4.818   4.257 -0.4211  0.6237  0.7504
  379MOL0     C51073  14.112   4.891   4.355  0.2793 -0.1806 -0.1021
  379MOL0    Cl51074  14.281   4.824   4.394 -0.1512 -0.0672 -0.1721
  379MOL0     C51075  12.991   4.689   4.254  0.6999  0.7722  1.0341
  379MOL0     C51076  12.861   4.634   4.235  1.0049  0.5222 -0.3172
  379MOL0     O51077  12.491   4.787   4.339 -1.2200  0.2576  0.2331
  379MOL0     C51078  12.434   4.515   4.103  0.4225 -0.3231 -0.3645
  379MOL0     C51079  12.325   4.451   4.044 -0.0252  0.0381  0.4757
  379MOL0     N51080  11.699   4.813   3.945  0.3610  0.1896 -0.4593
  379MOL0     N51081  11.625   4.872   4.026  0.0736 -0.0430 -0.1755
  379MOL0     C51082  10.818   5.568   4.582  0.3013 -0.4231 -0.2817
  379MOL0     C51083  10.771   5.699   4.605 -0.6036  0.0768 -0.1070
  379MOL0     C51084  10.826   6.157   4.753  0.0812 -0.9717 -0.4863
  379MOL0     C51085  10.691   6.153   4.774 -0.2294  0.8878 -0.3856
  379MOL0     C51086  10.614   6.265   4.792  0.1233 -0.0235  0.4662
  379MOL0     C51087  10.671   6.394   4.782  0.6294  1.0921 -0.1875
  379MOL0     O51088  10.608   6.514   4.794  0.7690 -0.0519  0.0619
  379MOL0     C51089  10.481   6.524   4.743 -0.0552  0.3590 -0.1269
  379MOL0     C51090  10.466   6.476   4.599 -0.3083 -0.2769  0.0511
  379MOL0     C51091  10.324   6.503   4.550  0.0366 -0.0070  0.6367
  379MOL0     C51092  10.314   6.475   4.394 -0.2945 -0.4291  0.0021
  379MOL0     C51093  10.343   6.332   4.352 -0.0333 -0.1042  0.1090
  379MOL0     C51094  10.378   6.220   4.331 -0.2098  0.5617 -0.9796
  379MOL0     C51095  10.814   6.402   4.778  0.2779  0.8966  0.1547
  379MOL0     C51096  10.891   6.285   4.764  0.8082 -0.4138 -0.2777
  379MOL0     C51097  11.043   6.295   4.745  0.2458  0.0477 -0.7359
  379MOL0     H51098  11.085   5.838   4.639  1.1360 -1.6496 -1.4390
  379MOL0     H51099  11.151   5.607   4.628  0.8766  4.3510 -0.2031
  379MOL0     H51100  10.852   5.268   4.529 -2.1074  2.6864 -1.1163
  379MOL0     H51101  10.897   5.361   4.388  0.1582 -1.0111 -1.5132
  379MOL0     H51102  11.062   5.150   4.508 -1.0441  0.8228  0.3576
  379MOL0     H51103  11.142   5.256   4.400  0.8316 -0.1132  0.4533
  379MOL0     H51104  10.887   5.127   4.308 -0.7204  0.8311  1.4033
  379MOL0     H51105  11.044   5.041   4.313  0.8089 -0.2749 -3.4294
  379MOL0     H51106  10.997   5.149   4.097  2.5790  1.5317 -2.8650
  379MOL0     H51107  11.045   5.296   4.162 -0.4647 -0.7004  0.9051
  379MOL0     H51108  11.232   5.203   4.070 -0.1487 -0.7077 -1.1513
  379MOL0     H51109  11.268   5.169   4.235  0.8914 -0.7730 -0.3012
  379MOL0     H51110  11.190   4.917   4.199 -0.8735 -2.1382 -1.8146
  379MOL0     H51111  11.153   4.965   4.029 -2.8395  0.0204  2.0178
  379MOL0     H51112  11.419   5.032   4.152  0.4903 -0.8297  1.1217
  379MOL0     H51113  11.379   4.984   3.981  0.2131  0.5943  0.1694
  379MOL0     H51114  11.433   4.839   4.243  0.0940 -0.8122  0.1384
  379MOL0     H51115  11.326   4.754   4.124  1.7413 -2.9899  2.1390
  379MOL0     H51116  11.503   4.566   4.047 -0.3609  1.4196  0.2169
  379MOL0     H51117  11.664   4.496   3.833  2.3204 -2.1588 -0.5138
  379MOL0     H51118  11.729   4.632   3.745  0.9307  0.2609  0.3174
  379MOL0     H51119  11.903   4.491   3.821  0.0037  1.1284 -0.9231
  379MOL0     H51120  11.925   4.656   3.877 -1.1556  1.1907  3.0255
  379MOL0     H51121  11.762   4.483   4.065  0.5198 -0.7483  1.9914
  379MOL0     H51122  11.880   4.612   4.090  2.4982 -1.0529  1.3942
  379MOL0     H51123  11.913   4.313   4.052 -0.0097 -0.8866  1.8254
  379MOL0     H51124  11.974   4.416   4.187 -2.3916  0.7594 -0.1858
  379MOL0     H51125  12.068   4.623   4.194 -0.0462  0.7664  0.3460
  379MOL0     H51126  12.250   4.743   4.292  1.1510 -1.9151  1.0140
  379MOL0     H51127  12.703   4.836   4.450  0.9633  2.7705 -0.3798
  379MOL0     H51128  12.929   4.931   4.477  0.4672  0.8673 -0.3434
  379MOL0     H51129  13.300   4.706   4.384  0.7389 -0.4575  0.1959
  379MOL0     H51130  13.257   4.738   4.214 -1.1340  1.5992  0.1561
  379MOL0     H51131  13.369   4.943   4.220  0.4123  1.0315  0.1993
  379MOL0     H51132  13.380   4.954   4.394  0.0534 -0.6671 -0.5426
  379MOL0     H51133  13.533   4.775   4.397  1.0224  2.1425  0.7642
  379MOL0     H51134  13.497   4.738   4.234 -4.6863  0.9030 -1.6641
  379MOL0     H51135  13.642   5.003   4.318  1.0106 -0.3083  0.2402
  379MOL0     H51136  13.627   4.951   4.155  0.3605 -1.0024 -0.2690
  379MOL0     H51137  13.743   4.736   4.201  0.4349 -0.1141 -0.3302
  379MOL0     H51138  13.761   4.790   4.371 -1.6633 -2.4694 -1.1343
  379MOL0     H51139  13.879   4.891   4.111 -1.5695 -0.1383  0.1614
  379MOL0     H51140  13.884   4.990   4.262  0.9153 -0.0015  1.7429
  379MOL0     H51141  14.078   4.803   4.164  1.0598  0.7642  1.6035
  379MOL0     H51142  14.002   4.726   4.314  2.3500 -1.1503 -0.9430
  379MOL0     H51143  14.125   4.984   4.299 -2.2391  0.3786  0.0991
  379MOL0     H51144  14.044   4.927   4.432 -1.2498 -3.3890  0.2174
  379MOL0     H51145  13.070   4.657   4.187 -2.0340 -2.3521 -0.9625
  379MOL0     H51146  12.858   4.549   4.168  1.4651  0.6988 -0.5721
  379MOL0     H51147  12.534   4.480   4.080  1.0324  1.5624 -0.7356
  379MOL0     H51148  12.354   4.360   3.993 -0.5241  0.4878 -0.6297
  379MOL0     H51149  10.748   5.486   4.565 -1.0747  0.9089 -1.3300
  379MOL0     H51150  10.666   5.721   4.594 -0.2723  2.1267  0.3965
  379MOL0     H51151  10.651   6.052   4.783  0.8437  0.2580 -2.1779
  379MOL0     H51152  10.507   6.256   4.802  0.0598  1.7134  1.8523
  379MOL0     H51153  10.458   6.631   4.745 -0.5562  0.2526 -0.1141
  379MOL0     H51154  10.416   6.469   4.813 -0.8239 -0.0244 -1.1112
  379MOL0     H51155  10.479   6.368   4.591  1.2179  0.0316 -3.6972
  379MOL0     H51156  10.550   6.516   4.542 -0.0803 -3.2418 -1.9145
  379MOL0     H51157  10.291   6.605   4.571 -0.6315  0.2655 -1.4329
  379MOL0     H51158  10.257   6.441   4.610  0.8906 -2.5926 -0.9406
  379MOL0     H51159  10.217   6.502   4.351 -1.1520 -3.3404 -0.1666
  379MOL0     H51160  10.381   6.545   4.345  1.3652  0.4716  3.2657
  379MOL0     H51161  10.409   6.119   4.315 -1.8807 -0.4551  1.5287
  379MOL0     H51162  10.868   6.496   4.774  1.3198  0.3233  0.3887
  379MOL0     H51163  11.077   6.233   4.662  3.1273  1.4058 -0.7173
  379MOL0     H51164  11.065   6.398   4.715 -0.6700  0.6631  0.5630
  379MOL0     H51165  11.110   6.272   4.829  3.1082  1.5395 -2.4282
  380MOL0     O51166   3.709   3.316   8.230  0.4420 -0.1894  0.5660
  380MOL0     C51167   3.673   3.257   8.127  0.4946  0.2443  0.1342
  380MOL0     O51168   3.750   3.176   8.048 -0.5871 -0.1858  0.1965
  380MOL0     C51169   3.886   3.178   8.082  0.2799  0.2870  1.1498
  380MOL0     C51170   3.968   3.292   8.075  0.5457  0.0965 -0.6720
  380MOL0     C51171   4.096   3.291   8.136  0.0178 -0.0548 -0.2920
  380MOL0     C51172   4.146   3.167   8.182 -1.0303  0.2685 -0.2897
  380MOL0     O51173   4.270   3.155   8.244 -0.4020 -0.6682 -0.2379
  380MOL0     C51174   4.337   3.273   8.270 -0.9125 -0.3024 -0.0169
  380MOL0     C51175   4.451   3.239   8.370  0.0396  0.4451 -0.0295
  380MOL0     C51176   4.559   3.143   8.316 -0.3343  0.2075  0.3414
  380MOL0     C51177   4.672   3.117   8.424  0.2508 -0.7520 -0.7933
  380MOL0     C51178   4.774   3.013   8.382  0.2199 -0.2262  0.2506
  380MOL0     C51179   4.900   3.080   8.325  0.2269 -0.2628 -0.1052
  380MOL0     C51180   5.003   2.971   8.289 -0.1039  0.3625 -0.5924
  380MOL0     C51181   5.126   3.025   8.229 -0.2740 -0.6131 -0.7352
  380MOL0     N51182   5.246   2.935   8.239  0.2676 -0.6256 -0.4141
  380MOL0     C51183   5.249   2.798   8.234 -0.0276  0.6694 -0.2004
  380MOL0     C51184   5.382   2.771   8.205  0.0624 -0.6043 -0.0650
  380MOL0     C51185   5.424   2.639   8.150  0.1917  0.7384  1.0122
  380MOL0     C51186   5.464   2.538   8.262 -0.2620 -0.8815 -0.3589
  380MOL0     C51187   5.573   2.602   8.363 -0.2480 -0.6506  0.1090
  380MOL0     C51188   5.608   2.502   8.467 -0.4402 -0.3779  0.9334
  380MOL0     O51189   5.709   2.415   8.422  0.6188 -0.5123 -0.8947
  380MOL0     C51190   5.842   2.452   8.437 -0.8982  0.4580 -0.2069
  380MOL0     C51191   5.941   2.362   8.384  0.1483  0.6134 -0.5316
  380MOL0     C51192   6.068   2.398   8.369 -1.0839  1.0493  0.1684
  380MOL0     C51193   6.107   2.529   8.396 -0.3253  0.3394 -0.0018
  380MOL0     C51194   6.241   2.573   8.367  0.0969  0.3074 -1.1564
  380MOL0     O51195   6.316   2.479   8.311 -0.2915 -0.1526  0.1718
  380MOL0     C51196   6.446   2.514   8.271  0.0904 -0.3822 -0.4612
  380MOL0     C51197   6.494   2.447   8.163 -0.4176  0.0807 -0.2761
  380MOL0     C51198   6.625   2.475   8.124  1.1193  0.0465  0.6421
  380MOL0     C51199   6.716   2.549   8.199  0.4243  0.2229 -0.2704
  380MOL0     O51200   6.844   2.564   8.152 -0.1246 -0.2513 -0.6260
  380MOL0     C51201   6.948   2.538   8.244  0.2931  0.2131  0.3371
  380MOL0     C51202   7.077   2.497   8.176  0.0551  0.8905 -0.3642
  380MOL0     C51203   7.212   2.545   8.244  0.2625  0.9527  0.7383
  380MOL0     C51204   7.243   2.448   8.362 -0.9042  0.5679 -0.1846
  380MOL0     C51205   7.382   2.490   8.418 -0.3371 -0.8376 -0.5806
  380MOL0     C51206   7.416   2.391   8.533  0.8797 -0.3228 -0.4794
  380MOL0     C51207   7.534   2.441   8.616  0.2646  0.1851 -0.2954
  380MOL0     C51208   7.545   2.373   8.753  0.4342 -0.4908 -0.0443
  380MOL0    Cl51209   7.601   2.204   8.748  0.1432  0.0284 -0.1281
  380MOL0     C51210   6.668   2.604   8.321  0.8369 -0.1227  0.1291
  380MOL0     C51211   6.535   2.594   8.354 -0.0526  0.3775  1.1481
  380MOL0     O51212   6.274   2.684   8.404  0.2424  0.0359 -0.5224
  380MOL0     C51213   6.017   2.617   8.448  0.1753  0.5421 -0.1137
  380MOL0     C51214   5.892   2.579   8.470  0.2999 -0.9699  0.4162
  380MOL0     N51215   5.449   2.891   8.202  0.0611  0.5981 -0.3652
  380MOL0     N51216   5.370   2.982   8.236  0.3187  0.3849  0.2904
  380MOL0     C51217   4.066   3.054   8.175  0.5359  0.1198 -0.3419
  380MOL0     C51218   3.936   3.055   8.123  0.2455 -0.2988 -0.4289
  380MOL0     C51219   3.527   3.274   8.094 -0.0353 -0.2708 -0.2462
  380MOL0     C51220   3.471   3.151   8.058 -0.6551  0.3942 -0.9081
  380MOL0     C51221   3.336   3.152   8.022  0.3445 -1.0096  0.9368
  380MOL0     C51222   3.261   3.268   8.017  0.5903 -0.5043  0.2396
  380MOL0     O51223   3.126   3.263   7.993  0.3598 -0.0904 -0.5208
  380MOL0     C51224   3.056   3.226   8.114  0.2544 -0.1367 -0.8582
  380MOL0     C51225   2.905   3.223   8.093  0.2778  0.1778  0.5990
  380MOL0     C51226   2.863   3.080   8.051 -0.1624 -0.1766 -0.8167
  380MOL0     C51227   2.751   3.068   7.958 -0.9246  0.0550  1.4340
  380MOL0     C51228   2.621   3.109   8.015 -0.0534 -0.2939 -0.1867
  380MOL0     C51229   2.516   3.161   8.059  0.0039 -0.0282  0.3174
  380MOL0     C51230   3.314   3.389   8.062  0.6192  0.0431 -0.4629
  380MOL0     C51231   3.451   3.386   8.097  0.7844 -0.2032  0.3638
  380MOL0     C51232   3.496   3.522   8.141  0.7533 -0.8494  0.6087
  380MOL0     H51233   3.926   3.386   8.042  1.2360 -0.5277 -3.6720
  380MOL0     H51234   4.153   3.383   8.142 -0.8560  0.4624  0.4400
  380MOL0     H51235   4.374   3.307   8.173 -1.4886 -2.4954 -1.0508
  380MOL0     H51236   4.271   3.345   8.321 -1.5004 -2.6485  2.7975
  380MOL0     H51237   4.400   3.198   8.458  0.2477  2.3307  1.0344
  380MOL0     H51238   4.483   3.338   8.404  0.6809  0.1815  0.1561
  380MOL0     H51239   4.607   3.177   8.225  1.6157 -0.2538  1.1555
  380MOL0     H51240   4.517   3.048   8.281  2.2075 -1.1925  0.8512
  380MOL0     H51241   4.716   3.214   8.449 -3.1131  0.4476  1.0781
  380MOL0     H51242   4.618   3.096   8.517  0.6264  2.7724  0.3399
  380MOL0     H51243   4.788   2.947   8.468 -1.5871 -0.4196  0.4274
  380MOL0     H51244   4.724   2.955   8.305  1.1053 -3.4406  1.8848
  380MOL0     H51245   4.873   3.132   8.232  1.4530  0.6890  0.0511
  380MOL0     H51246   4.943   3.154   8.393  0.2802  1.6073 -2.0684
  380MOL0     H51247   4.949   2.900   8.225 -0.5840 -0.8288  1.0583
  380MOL0     H51248   5.040   2.928   8.382 -1.9320  2.9427  1.4734
  380MOL0     H51249   5.111   3.062   8.127 -1.3993 -3.9157 -1.8808
  380MOL0     H51250   5.150   3.115   8.287 -0.3811 -0.9578 -0.1495
  380MOL0     H51251   5.163   2.731   8.240 -2.1836  3.1646 -1.1664
  380MOL0     H51252   5.346   2.597   8.086  2.3043 -0.2595 -1.0484
  380MOL0     H51253   5.519   2.650   8.097  0.6870  0.2096  1.7664
  380MOL0     H51254   5.376   2.521   8.325  1.4294  0.8980  2.7171
  380MOL0     H51255   5.503   2.451   8.208 -0.3760 -1.3456  0.3048
  380MOL0     H51256   5.530   2.682   8.424 -0.8865  1.7835 -3.2556
  380MOL0     H51257   5.657   2.633   8.300  1.1319 -0.3761  2.0065
  380MOL0     H51258   5.518   2.442   8.487 -1.1314  0.1742 -0.3747
  380MOL0     H51259   5.623   2.552   8.563  1.5619  0.6746  0.1284
  380MOL0     H51260   5.911   2.264   8.347  0.0186  1.1224 -1.8297
  380MOL0     H51261   6.137   2.324   8.330 -2.4556 -1.8566  2.8283
  380MOL0     H51262   6.441   2.384   8.093  2.4694 -1.5174 -1.1428
  380MOL0     H51263   6.656   2.437   8.028 -0.0770  0.9488 -0.1394
  380MOL0     H51264   6.965   2.635   8.291 -2.8143  1.2981 -0.5591
  380MOL0     H51265   6.919   2.459   8.314 -1.2675 -2.3246 -2.8747
  380MOL0     H51266   7.075   2.387   8.170 -0.2576  0.7036  2.2107
  380MOL0     H51267   7.070   2.549   8.080 -1.5860  0.7304 -0.3551
  380MOL0     H51268   7.294   2.552   8.172 -1.0599  0.8258 -0.8334
  380MOL0     H51269   7.190   2.645   8.283  0.3526  0.4002  2.2495
  380MOL0     H51270   7.255   2.342   8.336  0.5912  0.1017  2.1053
  380MOL0     H51271   7.166   2.451   8.439 -0.2652  1.7248  0.4343
  380MOL0     H51272   7.379   2.590   8.462 -0.0078 -0.2333 -1.8889
  380MOL0     H51273   7.466   2.500   8.349  0.8185  0.3387  0.9273
  380MOL0     H51274   7.326   2.383   8.596  0.9892 -2.0355 -0.4803
  380MOL0     H51275   7.436   2.295   8.484 -0.6360 -1.1579  0.4440
  380MOL0     H51276   7.526   2.547   8.641  1.4372 -0.4046  2.9686
  380MOL0     H51277   7.633   2.426   8.572  0.0489 -1.9357 -0.1320
  380MOL0     H51278   7.620   2.429   8.810 -0.4859 -0.5965  1.3163
  380MOL0     H51279   7.449   2.378   8.806 -0.4447  0.1996 -1.6366
  380MOL0     H51280   6.729   2.659   8.393  1.4994 -0.0699 -0.4667
  380MOL0     H51281   6.501   2.634   8.448 -1.0058  1.1241  0.5037
  380MOL0     H51282   6.048   2.713   8.488 -0.9759  1.6246 -1.7245
  380MOL0     H51283   5.820   2.651   8.507 -0.8060 -1.2633 -1.0675
  380MOL0     H51284   4.111   2.962   8.211  1.6611 -0.1780 -2.3574
  380MOL0     H51285   3.860   2.978   8.128 -0.9325  0.8910  1.9391
  380MOL0     H51286   3.518   3.053   8.060 -0.9986  0.2432  0.7013
  380MOL0     H51287   3.293   3.060   7.982  3.8046 -1.8952 -1.1416
  380MOL0     H51288   3.080   3.298   8.194 -0.0314 -3.3882  2.4373
  380MOL0     H51289   3.089   3.130   8.155  1.9187  1.6768  2.5466
  380MOL0     H51290   2.872   3.304   8.028 -2.3513  1.0147  2.7616
  380MOL0     H51291   2.857   3.253   8.187  1.9898  1.5268  1.0827
  380MOL0     H51292   2.823   3.023   8.136 -0.7295 -0.9502 -1.5908
  380MOL0     H51293   2.948   3.027   8.008 -0.3037  0.3955 -1.8216
  380MOL0     H51294   2.789   3.135   7.880  1.5424 -0.4005  2.1320
  380MOL0     H51295   2.749   2.965   7.923  1.6810  1.4562 -3.7943
  380MOL0     H51296   2.427   3.204   8.100 -0.5693  0.6953 -1.5751
  380MOL0     H51297   3.249   3.474   8.076  0.9432  0.0156  1.3724
  380MOL0     H51298   3.452   3.598   8.076  2.7080  1.0845  1.3866
  380MOL0     H51299   3.482   3.540   8.248  0.0238 -2.9385  0.9045
  380MOL0     H51300   3.604   3.526   8.120  1.4129  1.8659  3.6506
  381MOL0     O51301   3.531   9.589   1.294 -0.1881  0.1162 -0.9999
  381MOL0     C51302   3.443   9.527   1.230 -0.6810 -0.1781 -0.1733
  381MOL0     O51303   3.437   9.388   1.232  0.9808 -0.3535  0.0138
  381MOL0     C51304   3.544   9.314   1.261 -0.9689  0.9483  1.4597
  381MOL0     C51305   3.552   9.258   1.383 -0.5529  0.6375 -0.4105
  381MOL0     C51306   3.672   9.187   1.416 -0.4028 -0.6978  0.4152
  381MOL0     C51307   3.786   9.184   1.333 -0.0826  0.4052 -0.1665
  381MOL0     O51308   3.892   9.108   1.390  0.7695  0.1246  0.0579
  381MOL0     C51309   4.020   9.168   1.366  0.3318  0.1469 -0.2787
  381MOL0     C51310   4.127   9.063   1.378 -0.1510  0.3954  0.0567
  381MOL0     C51311   4.260   9.121   1.343  0.4207  0.1895 -0.0070
  381MOL0     C51312   4.384   9.040   1.391  0.2445  0.5364  0.8828
  381MOL0     C51313   4.380   8.903   1.315  0.4781  0.1513  0.0185
  381MOL0     C51314   4.497   8.812   1.349 -0.3882  0.0759 -0.3947
  381MOL0     C51315   4.488   8.778   1.493 -0.0715 -0.6450 -0.0515
  381MOL0     C51316   4.574   8.661   1.527  0.6938  0.3730  0.7206
  381MOL0     N51317   4.719   8.669   1.500  0.1851  0.8048 -0.8807
  381MOL0     C51318   4.793   8.590   1.410 -0.2677 -0.4425  0.0378
  381MOL0     C51319   4.916   8.642   1.423 -0.3509  0.0774  0.7199
  381MOL0     C51320   5.027   8.597   1.329  0.5368  0.1634  0.1658
  381MOL0     C51321   5.150   8.682   1.333  0.7337 -0.1695  0.5577
  381MOL0     C51322   5.246   8.650   1.446  0.0502 -0.3431 -0.4923
  381MOL0     C51323   5.342   8.767   1.456 -0.0337 -0.1816  0.5679
  381MOL0     O51324   5.443   8.728   1.555  1.2581 -0.0830 -0.5861
  381MOL0     C51325   5.569   8.715   1.501 -0.0998 -0.4147 -0.0332
  381MOL0     C51326   5.656   8.825   1.503 -0.2930  0.0173 -0.0554
  381MOL0     C51327   5.783   8.829   1.454 -0.2500 -0.1318  0.2678
  381MOL0     C51328   5.834   8.714   1.395 -0.1763  0.5713  0.1056
  381MOL0     C51329   5.968   8.698   1.335  0.0452 -0.8636  0.3772
  381MOL0     O51330   6.048   8.591   1.357  0.6321 -0.1374 -0.9543
  381MOL0     C51331   6.179   8.588   1.307  0.7167  0.1766  0.9640
  381MOL0     C51332   6.270   8.695   1.294 -0.4550  0.6103  0.0338
  381MOL0     C51333   6.394   8.682   1.221  0.3139  1.0989 -0.4767
  381MOL0     C51334   6.423   8.561   1.156 -0.0832  0.9312  0.3814
  381MOL0     O51335   6.537   8.565   1.082  0.1587  0.2291 -0.0531
  381MOL0     C51336   6.580   8.438   1.040 -0.6056 -0.0797  0.8131
  381MOL0     C51337   6.724   8.457   0.963  0.1018 -0.1655  0.7194
  381MOL0     C51338   6.828   8.520   1.065  0.6258 -0.1723 -0.1080
  381MOL0     C51339   6.971   8.497   1.013  0.6437  0.2543 -0.1098
  381MOL0     C51340   7.080   8.531   1.116  0.0110 -0.2955  0.6264
  381MOL0     C51341   7.216   8.483   1.062  0.4525  0.7044 -0.0249
  381MOL0     C51342   7.336   8.517   1.139  0.4594 -0.7370  0.4221
  381MOL0     C51343   7.338   8.462   1.285  0.1614 -0.1371 -0.6036
  381MOL0    Cl51344   7.301   8.295   1.279  1.0173  0.3034 -0.2092
  381MOL0     C51345   6.337   8.451   1.184  0.4321 -0.2241  0.0771
  381MOL0     C51346   6.215   8.464   1.259 -0.1947  0.2666  0.7030
  381MOL0     O51347   5.988   8.796   1.260 -0.0115 -0.1786  0.1155
  381MOL0     C51348   5.758   8.595   1.413 -0.2834  0.2289  0.1239
  381MOL0     C51349   5.623   8.595   1.454 -0.9036 -0.3047 -0.5754
  381MOL0     N51350   4.922   8.722   1.532 -0.5712 -0.5409  0.5887
  381MOL0     N51351   4.801   8.744   1.575  0.3759  1.0567 -0.6333
  381MOL0     C51352   3.780   9.246   1.205  0.0695 -0.2797 -0.3583
  381MOL0     C51353   3.657   9.308   1.175  0.8944  0.4212  1.0735
  381MOL0     C51354   3.319   9.590   1.168 -0.3220 -0.0703 -0.3767
  381MOL0     C51355   3.214   9.510   1.126 -0.3105  1.2458 -0.3009
  381MOL0     C51356   3.096   9.570   1.090 -0.0812 -0.8516 -0.8804
  381MOL0     C51357   3.071   9.707   1.101  1.2477  0.2651 -0.6693
  381MOL0     O51358   2.946   9.763   1.085 -0.0216 -0.8372 -0.1209
  381MOL0     C51359   2.832   9.667   1.074  0.2380 -0.1994 -0.2358
  381MOL0     C51360   2.698   9.736   1.079 -0.4718 -0.1595  0.7050
  381MOL0     C51361   2.593   9.631   1.069  0.2868  0.0343  0.0859
  381MOL0     C51362   2.445   9.691   1.083 -0.1031  0.5382 -0.6305
  381MOL0     C51363   2.404   9.786   0.982  0.3548 -0.1473  0.5657
  381MOL0     C51364   2.391   9.862   0.888 -0.8690 -1.0119  0.0131
  381MOL0     C51365   3.166   9.792   1.139 -0.6370  0.4868 -0.4045
  381MOL0     C51366   3.295   9.730   1.159 -1.0531 -0.3427  0.2051
  381MOL0     C51367   3.398   9.833   1.204 -0.1781  0.2357 -0.0490
  381MOL0     H51368   3.464   9.274   1.446 -0.1771 -2.1718  0.9643
  381MOL0     H51369   3.684   9.137   1.512  3.9032 -0.7302  0.0399
  381MOL0     H51370   4.031   9.217   1.268 -0.8584  0.0334 -0.4780
  381MOL0     H51371   4.029   9.239   1.449 -0.2327 -1.9679  1.6770
  381MOL0     H51372   4.109   8.983   1.306 -0.0530 -1.1524  1.6867
  381MOL0     H51373   4.126   9.008   1.473  0.1819 -2.5437 -1.5261
  381MOL0     H51374   4.268   9.225   1.377  4.4117  1.3864 -3.7664
  381MOL0     H51375   4.264   9.126   1.234  1.9048  1.1014  0.0631
  381MOL0     H51376   4.479   9.083   1.360  0.6881 -0.9519  0.0855
  381MOL0     H51377   4.383   9.029   1.500  2.4388  3.3850  1.2999
  381MOL0     H51378   4.288   8.847   1.337 -0.0028  0.7562 -0.3851
  381MOL0     H51379   4.384   8.924   1.207 -0.7716 -1.9366 -0.5042
  381MOL0     H51380   4.490   8.724   1.285  0.1121  1.9586 -3.1991
  381MOL0     H51381   4.587   8.871   1.329  0.2411 -0.7206  0.0126
  381MOL0     H51382   4.385   8.749   1.513 -0.1409  0.8259  2.0265
  381MOL0     H51383   4.497   8.864   1.560 -2.8757 -1.4258  1.4879
  381MOL0     H51384   4.562   8.628   1.630 -1.2224 -0.1145  0.3795
  381MOL0     H51385   4.539   8.580   1.463 -1.3267  2.0796 -0.4875
  381MOL0     H51386   4.756   8.524   1.331  1.9954  0.1038 -1.5711
  381MOL0     H51387   5.049   8.492   1.355 -3.4175 -0.3060  2.4409
  381MOL0     H51388   4.999   8.596   1.223  3.9689  0.3679 -0.8969
  381MOL0     H51389   5.201   8.667   1.237  0.6729 -2.8984  0.8902
  381MOL0     H51390   5.129   8.788   1.349  2.9384  0.2324  1.1920
  381MOL0     H51391   5.298   8.557   1.421 -2.5698 -1.6969 -1.3370
  381MOL0     H51392   5.192   8.631   1.539  0.3072  2.9147  0.4663
  381MOL0     H51393   5.301   8.868   1.472 -2.1036 -1.2455  2.5125
  381MOL0     H51394   5.378   8.777   1.353 -1.3253  1.8039  0.2465
  381MOL0     H51395   5.608   8.912   1.547  0.8793  0.8212 -0.3314
  381MOL0     H51396   5.837   8.923   1.465  0.4410 -0.5206  0.2413
  381MOL0     H51397   6.245   8.784   1.350 -0.4283 -0.1923  1.3610
  381MOL0     H51398   6.459   8.769   1.211  1.3721  0.0449 -4.3492
  381MOL0     H51399   6.596   8.361   1.116  0.5586 -2.3242 -1.5559
  381MOL0     H51400   6.511   8.402   0.963  0.4770 -1.0866  0.2854
  381MOL0     H51401   6.766   8.361   0.930 -2.6412 -1.3230  0.2108
  381MOL0     H51402   6.704   8.523   0.878 -2.2589  0.7290  1.8664
  381MOL0     H51403   6.815   8.628   1.078  2.0463  0.5866 -3.7457
  381MOL0     H51404   6.820   8.467   1.160 -1.1395 -0.4434 -0.3689
  381MOL0     H51405   6.985   8.546   0.916 -3.3923 -0.4199 -1.2057
  381MOL0     H51406   6.978   8.388   1.001  0.4743  0.5053 -3.6698
  381MOL0     H51407   7.066   8.481   1.213  0.6313  1.8221  1.8674
  381MOL0     H51408   7.079   8.640   1.121 -2.3845 -0.2064 -0.4855
  381MOL0     H51409   7.217   8.374   1.049  1.0418  0.6549  0.4137
  381MOL0     H51410   7.234   8.538   0.969 -1.8623  1.4240 -0.1150
  381MOL0     H51411   7.332   8.626   1.145 -0.5086 -0.6537 -1.2285
  381MOL0     H51412   7.428   8.492   1.086  1.3663  0.6819  1.2647
  381MOL0     H51413   7.437   8.481   1.326  0.4666 -1.6576 -0.5654
  381MOL0     H51414   7.271   8.520   1.348  1.9128  0.2963  0.9227
  381MOL0     H51415   6.347   8.348   1.152 -0.2256 -0.3799  0.3460
  381MOL0     H51416   6.147   8.380   1.265 -1.0434  0.7481 -1.2901
  381MOL0     H51417   5.809   8.501   1.391  2.1746  1.8331 -1.5939
  381MOL0     H51418   5.559   8.509   1.471 -0.2537 -0.7251 -0.2054
  381MOL0     H51419   3.849   9.235   1.121 -1.5311 -0.4190 -1.7084
  381MOL0     H51420   3.651   9.372   1.087 -0.5529  1.0292  1.5865
  381MOL0     H51421   3.225   9.402   1.121 -1.4057  1.1342 -0.5530
  381MOL0     H51422   3.012   9.505   1.070  0.4976 -1.1756 -2.3711
  381MOL0     H51423   2.831   9.589   1.151  0.2097  1.3352  1.3898
  381MOL0     H51424   2.849   9.617   0.978  2.1985  1.7988 -1.0161
  381MOL0     H51425   2.685   9.818   1.008 -4.0127 -0.4132  0.9175
  381MOL0     H51426   2.706   9.783   1.178 -0.2470  0.7232  0.2837
  381MOL0     H51427   2.615   9.559   1.149  0.6520  2.4672  2.3109
  381MOL0     H51428   2.600   9.593   0.967  0.1109  0.2942 -0.0242
  381MOL0     H51429   2.375   9.607   1.074  3.2480 -2.4041 -1.8684
  381MOL0     H51430   2.420   9.727   1.184 -2.4323 -0.2636 -0.8448
  381MOL0     H51431   2.379   9.928   0.804  0.1323  1.3160  1.6029
  381MOL0     H51432   3.140   9.896   1.157 -2.5539  0.0586 -0.4997
  381MOL0     H51433   3.487   9.822   1.141  1.6195  0.2003  2.3634
  381MOL0     H51434   3.359   9.933   1.181  0.1896  0.8158  1.7163
  381MOL0     H51435   3.435   9.826   1.306  2.6429 -1.5611 -1.0734
  382MOL0     O51436   1.204   1.831   0.242 -0.6172 -0.3497 -1.1602
  382MOL0     C51437   1.147   1.916   0.174 -0.1280  0.3605  0.4450
  382MOL0     O51438   1.178   2.054   0.175  0.2399  0.2898 -0.1260
  382MOL0     C51439   1.275   2.079   0.267 -0.6413 -0.2357  0.5403
  382MOL0     C51440   1.408   2.028   0.243  0.5986  0.6049 -0.7080
  382MOL0     C51441   1.507   2.052   0.335 -0.6227  0.3528  0.8175
  382MOL0     C51442   1.493   2.117   0.457 -0.1090 -0.5582 -0.2491
  382MOL0     O51443   1.580   2.132   0.563  0.2921  0.4754 -0.9968
  382MOL0     C51444   1.699   2.050   0.573  0.1431  0.1489 -0.5710
  382MOL0     C51445   1.713   1.964   0.693  0.5325  0.2628 -0.9690
  382MOL0     C51446   1.610   1.849   0.714  0.5679  0.4639  0.7042
  382MOL0     C51447   1.598   1.759   0.593  0.0342  1.3949  0.5393
  382MOL0     C51448   1.491   1.646   0.601 -0.2197  0.5966 -1.1610
  382MOL0     C51449   1.345   1.696   0.590 -0.9525 -0.0894  0.1892
  382MOL0     C51450   1.236   1.587   0.602 -0.0143 -0.8195 -0.7686
  382MOL0     C51451   1.214   1.534   0.457  0.0038  0.1283 -0.4908
  382MOL0     N51452   1.086   1.464   0.443  0.8458 -0.2077  0.6277
  382MOL0     C51453   0.970   1.536   0.434  0.4697  0.5502  0.0825
  382MOL0     C51454   0.884   1.435   0.434  0.6573  0.0579  0.0932
  382MOL0     C51455   0.740   1.441   0.409  0.8460 -0.0317 -0.1562
  382MOL0     C51456   0.670   1.509   0.522 -0.0160  0.3537 -0.3646
  382MOL0     C51457   0.649   1.426   0.646 -0.0945  0.0222  0.9163
  382MOL0     C51458   0.598   1.512   0.760  0.6720 -0.1201 -0.7822
  382MOL0     O51459   0.691   1.612   0.812  0.4826 -0.1348 -0.1989
  382MOL0     C51460   0.779   1.567   0.906 -0.7789 -0.3613  0.8433
  382MOL0     C51461   0.743   1.566   1.043  0.2572  0.0348 -0.1453
  382MOL0     C51462   0.847   1.547   1.142  0.1033  0.7397 -0.0245
  382MOL0     C51463   0.986   1.525   1.103 -0.5763 -0.4651 -0.2933
  382MOL0     C51464   1.093   1.507   1.211 -0.1777  0.4875  0.1787
  382MOL0     O51465   1.221   1.548   1.177 -0.7309  0.6157 -0.3912
  382MOL0     C51466   1.329   1.520   1.257  0.2420 -0.4217 -0.0735
  382MOL0     C51467   1.449   1.498   1.194 -0.4228  0.5192 -0.6546
  382MOL0     C51468   1.563   1.462   1.256  0.4758  1.0535  0.5984
  382MOL0     C51469   1.566   1.451   1.388 -0.6358  0.2427 -0.0750
  382MOL0     O51470   1.690   1.407   1.440 -0.4386  0.0243  0.3315
  382MOL0     C51471   1.683   1.365   1.575  0.4989  0.3753 -0.3107
  382MOL0     C51472   1.809   1.304   1.625 -0.0751 -0.6246 -0.0513
  382MOL0     C51473   1.904   1.406   1.680 -0.1287 -0.1137 -0.0207
  382MOL0     C51474   1.971   1.491   1.559  1.0287 -0.1621  0.4268
  382MOL0     C51475   2.124   1.516   1.580  0.1703  0.2289 -0.4684
  382MOL0     C51476   2.177   1.638   1.500 -0.0653  0.2847  1.2547
  382MOL0     C51477   2.332   1.638   1.488 -0.2317 -0.8989  0.2303
  382MOL0     C51478   2.405   1.671   1.625 -0.2824 -0.3170  0.0384
  382MOL0    Cl51479   2.583   1.646   1.618  0.2855 -0.1847 -0.3062
  382MOL0     C51480   1.454   1.490   1.460  0.0499 -0.4150  0.6713
  382MOL0     C51481   1.334   1.517   1.399 -0.4078 -0.2113 -0.4724
  382MOL0     O51482   1.069   1.432   1.301  0.6835  0.3293 -0.0962
  382MOL0     C51483   1.013   1.537   0.963 -0.4814  0.8088 -0.4718
  382MOL0     C51484   0.916   1.554   0.863  0.0478 -0.2963 -0.3046
  382MOL0     N51485   0.944   1.314   0.457  0.2713  0.7222 -0.5289
  382MOL0     N51486   1.067   1.333   0.462 -0.5932  0.6850 -0.6058
  382MOL0     C51487   1.367   2.175   0.477  0.0213 -0.3927  0.5823
  382MOL0     C51488   1.262   2.162   0.379 -0.6746 -0.9747  0.8789
  382MOL0     C51489   1.021   1.880   0.095 -0.8415 -0.0312 -0.5576
  382MOL0     C51490   0.923   1.970   0.062 -0.1116  0.3165  0.3229
  382MOL0     C51491   0.798   1.932   0.008 -0.5635 -0.0071  0.1369
  382MOL0     C51492   0.776   1.803  -0.013  0.0323  0.0900 -0.0088
  382MOL0     O51493   0.669   1.738  -0.076  0.2680 -0.6692 -0.7153
  382MOL0     C51494   0.550   1.826  -0.091 -0.4707 -0.5717 -0.1678
  382MOL0     C51495   0.493   1.868   0.046  0.3790  0.8413  1.0319
  382MOL0     C51496   0.453   1.733   0.112 -0.7887  0.2526  0.4825
  382MOL0     C51497   0.346   1.641   0.044  0.3889 -1.3525 -0.3527
  382MOL0     C51498   0.242   1.726  -0.022 -0.2532  0.7641 -0.2240
  382MOL0     C51499   0.158   1.792  -0.077  0.3639 -0.4068 -0.1124
  382MOL0     C51500   0.884   1.716   0.001  0.7201 -0.3453  0.8359
  382MOL0     C51501   1.009   1.750   0.047  0.3592  0.4343  0.4313
  382MOL0     C51502   1.112   1.645   0.059 -0.2135  0.1114 -0.2384
  382MOL0     H51503   1.412   1.966   0.154  0.0474  2.3184 -1.9866
  382MOL0     H51504   1.603   2.007   0.311 -0.2811  1.6370 -0.3845
  382MOL0     H51505   1.720   1.983   0.489 -1.1864  1.3450 -1.9305
  382MOL0     H51506   1.785   2.116   0.584  1.1158 -1.2725  0.7526
  382MOL0     H51507   1.703   2.024   0.784 -1.3735 -1.3016 -0.0567
  382MOL0     H51508   1.806   1.906   0.686  0.2366 -0.5041  0.9384
  382MOL0     H51509   1.508   1.886   0.728 -0.1746 -0.2654 -2.0690
  382MOL0     H51510   1.636   1.787   0.799 -2.0452 -0.7153  0.7357
  382MOL0     H51511   1.568   1.829   0.514 -0.8174  0.5350  0.0734
  382MOL0     H51512   1.694   1.712   0.570 -1.7370 -2.5134  0.3014
  382MOL0     H51513   1.506   1.571   0.522 -0.3630 -2.5997  1.6395
  382MOL0     H51514   1.495   1.592   0.696 -2.9014 -0.4152 -1.5480
  382MOL0     H51515   1.322   1.768   0.669  1.2608 -1.0080  1.8166
  382MOL0     H51516   1.334   1.760   0.503  0.2577  1.3205  1.0168
  382MOL0     H51517   1.155   1.643   0.650  0.9193  0.9103 -1.1303
  382MOL0     H51518   1.268   1.509   0.672 -1.0257 -0.2542  0.3589
  382MOL0     H51519   1.228   1.606   0.376  4.2261 -4.0911 -4.1378
  382MOL0     H51520   1.286   1.453   0.444 -1.7469 -2.3451  3.2965
  382MOL0     H51521   0.946   1.641   0.422 -1.7706  0.0217 -0.5464
  382MOL0     H51522   0.716   1.512   0.329  2.2837  2.5206  1.5276
  382MOL0     H51523   0.697   1.345   0.379 -3.6731  1.2464  1.3608
  382MOL0     H51524   0.722   1.603   0.546  0.2819 -0.2513  1.5258
  382MOL0     H51525   0.566   1.534   0.498  0.2824  1.2262 -0.7943
  382MOL0     H51526   0.746   1.387   0.680  0.3210  1.1629  1.0730
  382MOL0     H51527   0.579   1.344   0.627 -0.4153  0.4251  0.3330
  382MOL0     H51528   0.573   1.450   0.846 -2.6886  1.4979 -0.4086
  382MOL0     H51529   0.511   1.570   0.728 -0.1592 -1.4602 -1.0355
  382MOL0     H51530   0.642   1.579   1.079  0.2174  1.0240 -0.5732
  382MOL0     H51531   0.814   1.528   1.244  2.3087 -2.0158  0.3091
  382MOL0     H51532   1.445   1.510   1.086 -1.1399 -4.0095 -1.3086
  382MOL0     H51533   1.657   1.442   1.205  0.3002 -2.7094  1.5126
  382MOL0     H51534   1.669   1.454   1.637  0.6847  0.4278 -0.3446
  382MOL0     H51535   1.608   1.286   1.589 -0.5181  1.6391  1.8292
  382MOL0     H51536   1.789   1.239   1.710  1.1184  0.7037  1.2951
  382MOL0     H51537   1.846   1.244   1.541 -3.3220 -0.6231 -1.6291
  382MOL0     H51538   1.849   1.476   1.743 -3.9765 -1.0310 -2.0873
  382MOL0     H51539   1.987   1.348   1.723 -1.3409 -2.6061 -0.8608
  382MOL0     H51540   1.918   1.587   1.554 -1.7142 -1.5943  0.6125
  382MOL0     H51541   1.964   1.425   1.472  1.7065 -0.2856  0.4636
  382MOL0     H51542   2.185   1.428   1.556  0.3070  0.0625  0.4418
  382MOL0     H51543   2.138   1.532   1.687 -3.6130  0.1909  0.1563
  382MOL0     H51544   2.142   1.639   1.397 -0.0799 -2.0500  1.1964
  382MOL0     H51545   2.145   1.735   1.539  0.6330  2.1968 -2.5439
  382MOL0     H51546   2.366   1.716   1.420 -3.6483 -0.3804 -1.0653
  382MOL0     H51547   2.370   1.539   1.463 -2.1134 -1.4431 -0.6210
  382MOL0     H51548   2.382   1.772   1.661 -1.5911 -0.7459  0.4506
  382MOL0     H51549   2.365   1.610   1.706 -1.2165 -0.0198 -0.1868
  382MOL0     H51550   1.461   1.493   1.568  0.5673 -0.2146  0.6389
  382MOL0     H51551   1.247   1.548   1.455  0.7670  3.0871 -0.2773
  382MOL0     H51552   1.115   1.513   0.934 -0.7924  0.2259 -1.1271
  382MOL0     H51553   0.947   1.546   0.760 -2.2042 -0.9867 -0.9815
  382MOL0     H51554   1.354   2.252   0.552  1.6033 -0.1715  0.6472
  382MOL0     H51555   1.165   2.202   0.405  0.0890  1.2639  0.5580
  382MOL0     H51556   0.930   2.075   0.086  0.9152  0.8492 -2.0507
  382MOL0     H51557   0.718   2.004  -0.005  0.0814  0.9340  1.1209
  382MOL0     H51558   0.473   1.765  -0.139  1.5746 -2.8533 -0.7627
  382MOL0     H51559   0.574   1.913  -0.153 -0.1650 -0.6694 -0.1925
  382MOL0     H51560   0.409   1.935   0.029 -0.9173 -1.0846 -0.5446
  382MOL0     H51561   0.565   1.916   0.113  0.9246  0.8820  0.4181
  382MOL0     H51562   0.413   1.757   0.211  0.4063 -2.7560  1.7996
  382MOL0     H51563   0.539   1.677   0.147  1.2504  3.1607  0.5026
  382MOL0     H51564   0.398   1.576  -0.027 -0.4500 -3.1100  0.5687
  382MOL0     H51565   0.295   1.568   0.109  0.6952 -0.5691  0.7867
  382MOL0     H51566   0.088   1.850  -0.133  1.2949  0.9729  0.0874
  382MOL0     H51567   0.890   1.615  -0.038 -0.5044  0.0088 -0.3525
  382MOL0     H51568   1.097   1.578  -0.026 -1.1225  1.4263 -1.1494
  382MOL0     H51569   1.212   1.689   0.048  0.7244 -2.0779 -0.9612
  382MOL0     H51570   1.097   1.585   0.149  0.4013 -2.1010 -1.5409
  383MOL0     O51571   6.997   0.650   0.639  0.7036 -1.1219  0.0292
  383MOL0     C51572   6.913   0.744   0.655  0.1344  0.1570  0.0508
  383MOL0     O51573   6.934   0.881   0.626 -0.0704 -0.3805 -0.8527
  383MOL0     C51574   7.061   0.940   0.621  0.2564  1.2629  0.5915
  383MOL0     C51575   7.067   1.062   0.568  0.4010 -0.8371  0.4857
  383MOL0     C51576   7.184   1.131   0.540  0.1547 -0.3540  0.1920
  383MOL0     C51577   7.304   1.075   0.583 -0.1372  0.1741 -0.4338
  383MOL0     O51578   7.413   1.150   0.575 -0.6265  0.1756  0.3508
  383MOL0     C51579   7.548   1.089   0.587  0.6322 -0.1599  1.2024
  383MOL0     C51580   7.637   1.209   0.578 -0.5025 -0.0374 -0.5438
  383MOL0     C51581   7.784   1.180   0.601 -0.1701 -0.4657  0.7399
  383MOL0     C51582   7.866   1.301   0.549 -0.3719 -0.7271  0.7731
  383MOL0     C51583   8.011   1.293   0.578  0.9478 -0.0189  0.4748
  383MOL0     C51584   8.087   1.400   0.505  0.9575 -0.0225 -0.1973
  383MOL0     C51585   8.234   1.365   0.497 -0.3611  0.0155  0.5330
  383MOL0     C51586   8.299   1.344   0.635  0.6267 -0.2913  0.1936
  383MOL0     N51587   8.444   1.319   0.620  0.6067 -0.2900  0.3871
  383MOL0     C51588   8.492   1.195   0.644 -0.0302 -0.3762  0.0022
  383MOL0     C51589   8.629   1.220   0.633 -0.2371 -0.3629  0.0585
  383MOL0     C51590   8.732   1.117   0.667 -1.1936  0.2543 -0.2446
  383MOL0     C51591   8.778   1.046   0.537 -0.8798  0.5265  0.7612
  383MOL0     C51592   8.780   0.890   0.546  0.2816  0.0028 -0.0119
  383MOL0     C51593   8.918   0.845   0.606  1.4187 -0.2759  0.1684
  383MOL0     O51594   8.884   0.727   0.682 -0.3740  0.5634 -0.3425
  383MOL0     C51595   8.964   0.613   0.676 -0.2783  1.1671  0.2250
  383MOL0     C51596   8.911   0.490   0.700 -0.0574  0.2480 -0.3559
  383MOL0     C51597   9.000   0.374   0.674  0.3290 -0.0215 -0.7385
  383MOL0     C51598   9.131   0.392   0.638 -0.6185  0.1571 -0.1981
  383MOL0     C51599   9.216   0.281   0.611 -0.4485 -0.1413 -0.2826
  383MOL0     O51600   9.326   0.311   0.536 -0.1740 -0.6280  0.3127
  383MOL0     C51601   9.417   0.218   0.525  0.2138  0.5870  0.2561
  383MOL0     C51602   9.468   0.189   0.395 -1.1136  0.8324  0.3503
  383MOL0     C51603   9.577   0.093   0.382  0.3564  0.2726 -0.2106
  383MOL0     C51604   9.632   0.039   0.497  0.0728  0.1204 -0.3846
  383MOL0     O51605   9.735  -0.054   0.478 -0.2801  0.2970 -0.7439
  383MOL0     C51606   9.797  -0.108   0.596  0.6804 -0.6269  0.3191
  383MOL0     C51607   9.916  -0.192   0.564 -0.1313  0.0301  0.1086
  383MOL0     C51608   9.886  -0.310   0.487 -0.4549  0.1978  0.5308
  383MOL0     C51609  10.000  -0.367   0.408 -1.2482  1.0810  0.4917
  383MOL0     C51610   9.975  -0.497   0.339  0.3716 -0.0069 -0.4079
  383MOL0     C51611  10.102  -0.572   0.291  0.2944  1.0633  0.2422
  383MOL0     C51612  10.089  -0.695   0.191 -0.1101 -0.4460 -0.5799
  383MOL0     C51613   9.994  -0.803   0.247 -0.6726  0.1038  0.2519
  383MOL0    Cl51614   9.827  -0.744   0.232  0.0157  0.1476  0.1023
  383MOL0     C51615   9.589   0.079   0.627  0.0056 -0.7550 -0.0628
  383MOL0     C51616   9.482   0.163   0.638 -0.4940  0.0762  0.4906
  383MOL0     O51617   9.180   0.166   0.648 -0.1670 -0.3890 -0.6875
  383MOL0     C51618   9.185   0.515   0.636  0.4101 -0.8174  1.0157
  383MOL0     C51619   9.102   0.626   0.652 -0.6203  0.4400 -0.0945
  383MOL0     N51620   8.646   1.351   0.608 -0.1139 -0.2605  0.3068
  383MOL0     N51621   8.533   1.414   0.583  0.7086 -0.4570 -0.7185
  383MOL0     C51622   7.300   0.947   0.633  0.0550  0.8250 -0.1885
  383MOL0     C51623   7.185   0.878   0.654  0.9153  0.1974 -0.4150
  383MOL0     C51624   6.780   0.704   0.693  0.2346  0.0055 -0.4785
  383MOL0     C51625   6.729   0.579   0.662 -0.5002  0.7039  0.3012
  383MOL0     C51626   6.593   0.556   0.670  0.0807 -0.2518  0.1689
  383MOL0     C51627   6.502   0.645   0.719  0.9986 -0.4058 -0.5885
  383MOL0     O51628   6.377   0.595   0.718  0.2956 -0.2243 -0.1509
  383MOL0     C51629   6.262   0.686   0.742  0.4046  0.6037 -0.0788
  383MOL0     C51630   6.218   0.748   0.605 -0.1866 -0.1578 -1.2140
  383MOL0     C51631   6.153   0.641   0.521 -0.2056  0.0657  0.0346
  383MOL0     C51632   6.130   0.683   0.374  0.3699  0.8174  0.7191
  383MOL0     C51633   6.028   0.787   0.354  0.4689  0.2721 -0.3245
  383MOL0     C51634   5.942   0.864   0.322 -0.2080  0.1741  0.8129
  383MOL0     C51635   6.556   0.764   0.774  0.2600  0.1733  0.6465
  383MOL0     C51636   6.695   0.792   0.761  0.8242  0.0285 -0.0881
  383MOL0     C51637   6.739   0.909   0.853 -1.1502  0.3221  0.0401
  383MOL0     H51638   6.966   1.098   0.550  1.5189  1.3539 -2.0125
  383MOL0     H51639   7.186   1.230   0.497 -0.0993 -0.9072 -1.1245
  383MOL0     H51640   7.574   1.034   0.678  0.8008  0.8332  1.7618
  383MOL0     H51641   7.570   1.016   0.508  3.9676  0.8072  1.1237
  383MOL0     H51642   7.591   1.277   0.649 -1.0741 -2.3408  1.3939
  383MOL0     H51643   7.630   1.254   0.478  1.9614 -2.8565 -2.1369
  383MOL0     H51644   7.812   1.094   0.540 -3.0913 -1.4776  0.6933
  383MOL0     H51645   7.814   1.162   0.705  0.0852 -0.8230  0.6053
  383MOL0     H51646   7.840   1.308   0.443 -1.8499 -1.7447  1.0434
  383MOL0     H51647   7.825   1.395   0.586 -2.1494 -0.7784 -0.9119
  383MOL0     H51648   8.030   1.313   0.684 -0.1810 -0.4726  0.7766
  383MOL0     H51649   8.054   1.202   0.535  1.4509  1.7359 -3.1318
  383MOL0     H51650   8.048   1.414   0.404 -1.7654  0.6974  0.8600
  383MOL0     H51651   8.067   1.498   0.550  0.3474 -0.3486  0.2651
  383MOL0     H51652   8.293   1.446   0.452 -0.2660  0.5673  1.6012
  383MOL0     H51653   8.260   1.292   0.420  0.7005  1.6148 -0.7247
  383MOL0     H51654   8.293   1.441   0.685 -2.5193 -0.2780 -0.0209
  383MOL0     H51655   8.262   1.269   0.706  1.9429 -0.2742  0.9281
  383MOL0     H51656   8.451   1.101   0.679 -3.2593  1.3633  1.3306
  383MOL0     H51657   8.815   1.166   0.719 -1.1429 -0.0278 -0.0564
  383MOL0     H51658   8.683   1.051   0.738  1.7154  1.1276  2.8126
  383MOL0     H51659   8.708   1.069   0.456 -0.4986 -0.1305  0.2295
  383MOL0     H51660   8.878   1.071   0.499 -0.4177 -2.1489 -0.0082
  383MOL0     H51661   8.765   0.858   0.443 -1.8785  2.5405 -0.6100
  383MOL0     H51662   8.694   0.863   0.609 -1.2742 -1.3691 -2.5658
  383MOL0     H51663   8.959   0.915   0.679  3.3102 -0.1265 -0.9843
  383MOL0     H51664   8.986   0.828   0.522 -0.0370 -2.0649 -0.7514
  383MOL0     H51665   8.804   0.471   0.707 -0.2191  1.2530  0.1136
  383MOL0     H51666   8.962   0.273   0.686  1.2567 -0.4996 -1.6709
  383MOL0     H51667   9.437   0.241   0.305 -1.7691 -0.8715 -0.4506
  383MOL0     H51668   9.617   0.066   0.285 -1.2052 -0.1943 -0.7553
  383MOL0     H51669   9.836  -0.029   0.661  0.3073  1.3325 -1.7350
  383MOL0     H51670   9.725  -0.155   0.663  0.3913  2.4571  2.3721
  383MOL0     H51671   9.988  -0.142   0.498  1.6354 -2.7108 -0.1956
  383MOL0     H51672   9.973  -0.229   0.649  1.5916  3.1088  0.4533
  383MOL0     H51673   9.848  -0.391   0.549  0.2282  0.0110  0.7124
  383MOL0     H51674   9.804  -0.290   0.417 -0.0263 -2.0960 -0.7227
  383MOL0     H51675  10.087  -0.370   0.473 -1.4081 -0.7401  0.6863
  383MOL0     H51676  10.044  -0.299   0.335  0.6801 -0.0114  0.5845
  383MOL0     H51677   9.913  -0.475   0.252 -2.0698 -2.1646  0.6447
  383MOL0     H51678   9.914  -0.565   0.400  0.4180  0.2426 -0.0861
  383MOL0     H51679  10.164  -0.498   0.240 -0.6467  1.2031 -0.7609
  383MOL0     H51680  10.146  -0.613   0.382 -0.0235 -0.6283 -0.3148
  383MOL0     H51681  10.189  -0.739   0.184  1.2216  2.1016  0.8501
  383MOL0     H51682  10.054  -0.654   0.096 -1.1132  3.1792  1.1497
  383MOL0     H51683  10.011  -0.893   0.187 -0.9772  0.3098 -0.1447
  383MOL0     H51684  10.011  -0.825   0.353  2.0894 -1.1102 -0.3393
  383MOL0     H51685   9.617   0.026   0.717  0.4371 -3.6937 -1.7919
  383MOL0     H51686   9.455   0.183   0.741  3.4367  1.3391  1.4397
  383MOL0     H51687   9.288   0.535   0.608  0.0519  0.3063  0.4611
  383MOL0     H51688   9.142   0.726   0.640  0.2084  0.1013 -0.2581
  383MOL0     H51689   7.384   0.891   0.674 -2.2901 -0.0262  4.0205
  383MOL0     H51690   7.198   0.785   0.708  1.4379  1.7444  2.2860
  383MOL0     H51691   6.786   0.501   0.612  1.6450  1.5438  1.2904
  383MOL0     H51692   6.559   0.461   0.629 -0.0709 -0.2753  0.3491
  383MOL0     H51693   6.285   0.765   0.814 -1.0598  1.2135 -0.2410
  383MOL0     H51694   6.186   0.628   0.795 -2.6221  2.6474 -1.8888
  383MOL0     H51695   6.305   0.787   0.551  1.0346 -1.5796 -0.3503
  383MOL0     H51696   6.137   0.817   0.631 -0.1453 -0.3144 -0.6604
  383MOL0     H51697   6.061   0.606   0.570 -0.4443  0.0776 -0.3960
  383MOL0     H51698   6.213   0.550   0.516 -2.0508 -1.1473 -1.6399
  383MOL0     H51699   6.228   0.707   0.332 -0.8607  3.7442 -0.7991
  383MOL0     H51700   6.092   0.598   0.318  1.1492  1.1975 -0.4320
  383MOL0     H51701   5.857   0.924   0.295 -1.8855 -2.1810  0.5691
  383MOL0     H51702   6.494   0.845   0.810  2.3569  2.1202  0.0870
  383MOL0     H51703   6.730   1.001   0.794 -0.1658  0.2454 -0.2431
  383MOL0     H51704   6.674   0.903   0.941 -0.5662 -1.6887  0.3837
  383MOL0     H51705   6.838   0.907   0.899 -1.3345  1.6629  0.5420
  384MOL0     O51706   5.854   8.711   8.357 -0.2431 -0.4519 -0.5839
  384MOL0     C51707   5.766   8.652   8.292  0.5545 -0.2469  0.0399
  384MOL0     O51708   5.784   8.527   8.236 -0.2914 -0.3701 -0.2610
  384MOL0     C51709   5.839   8.434   8.318 -0.1652  0.0162  0.5011
  384MOL0     C51710   5.854   8.438   8.456 -0.6280  0.5786 -0.8601
  384MOL0     C51711   5.923   8.343   8.522  0.3610 -0.8370 -0.2574
  384MOL0     C51712   5.977   8.237   8.455  0.1320  0.2492 -0.8096
  384MOL0     O51713   6.050   8.129   8.509  0.0718 -0.5910 -0.6755
  384MOL0     C51714   6.063   8.118   8.655 -0.2775 -0.6080 -0.5656
  384MOL0     C51715   6.158   7.999   8.684  0.0989 -0.2075 -0.2312
  384MOL0     C51716   6.302   8.035   8.663 -0.2441 -0.1882 -0.4080
  384MOL0     C51717   6.347   8.080   8.527  0.1153  0.4872  0.2650
  384MOL0     C51718   6.497   8.084   8.504 -0.1464 -0.3153 -0.5684
  384MOL0     C51719   6.529   8.162   8.378  0.5032 -0.6015  0.3413
  384MOL0     C51720   6.682   8.156   8.347  0.6970  0.4006 -0.2517
  384MOL0     C51721   6.724   8.233   8.230 -0.0347  0.1476  0.1022
  384MOL0     N51722   6.864   8.223   8.196 -0.0322  0.4757 -0.4481
  384MOL0     C51723   6.934   8.107   8.192 -0.2821 -0.2422 -1.0438
  384MOL0     C51724   7.053   8.153   8.151  0.4056  0.1721 -0.0279
  384MOL0     C51725   7.156   8.058   8.096 -0.2782  0.0241 -0.3641
  384MOL0     C51726   7.296   8.106   8.129  0.1629  0.2393  0.3149
  384MOL0     C51727   7.394   8.001   8.069 -0.5610 -0.2057  0.2596
  384MOL0     C51728   7.541   8.055   8.085  0.3018 -0.3431  0.3413
  384MOL0     O51729   7.574   8.043   8.217 -0.0243 -0.7050  0.5166
  384MOL0     C51730   7.688   8.094   8.262 -0.9934 -0.6995 -0.0663
  384MOL0     C51731   7.713   8.089   8.396 -0.2524 -1.4310 -0.8092
  384MOL0     C51732   7.833   8.137   8.446  0.2882  1.0303  0.4057
  384MOL0     C51733   7.934   8.170   8.361 -0.5041  0.9364  0.1008
  384MOL0     C51734   8.061   8.218   8.417  0.2372  0.3353  0.3535
  384MOL0     O51735   8.136   8.284   8.327  0.2244 -0.6094 -0.2402
  384MOL0     C51736   8.268   8.310   8.351 -0.3784 -0.6121  0.2362
  384MOL0     C51737   8.355   8.283   8.245 -0.2054 -0.4044  0.9260
  384MOL0     C51738   8.480   8.342   8.240  0.5078 -0.0035  0.1673
  384MOL0     C51739   8.532   8.407   8.343  0.1489 -0.4967  0.0204
  384MOL0     O51740   8.659   8.450   8.342  0.2914 -1.1258 -0.4338
  384MOL0     C51741   8.714   8.548   8.435 -0.2808  0.0953  0.7400
  384MOL0     C51742   8.813   8.634   8.360  0.0169 -0.1262  0.4345
  384MOL0     C51743   8.741   8.717   8.244  0.1013 -0.6687 -0.1496
  384MOL0     C51744   8.837   8.821   8.187 -0.1109  0.7129 -0.1811
  384MOL0     C51745   8.937   8.768   8.080 -0.3063 -0.7736 -0.2455
  384MOL0     C51746   9.068   8.853   8.062 -0.0137 -0.1869 -0.7370
  384MOL0     C51747   9.156   8.817   7.952 -0.7673 -0.1251 -0.1474
  384MOL0     C51748   9.219   8.682   7.971  0.2334 -0.1385 -0.6531
  384MOL0    Cl51749   9.314   8.680   8.127 -0.1611  0.1430  0.0496
  384MOL0     C51750   8.443   8.434   8.453  0.4091 -0.2676  0.1397
  384MOL0     C51751   8.312   8.380   8.459  0.2181 -0.3088  0.6913
  384MOL0     O51752   8.090   8.190   8.529 -1.0341 -0.2385 -0.0374
  384MOL0     C51753   7.911   8.162   8.221  0.2082  0.1951 -1.0092
  384MOL0     C51754   7.789   8.129   8.176  0.5822 -0.4461 -0.2588
  384MOL0     N51755   7.046   8.286   8.111  0.3190  1.1302  0.3295
  384MOL0     N51756   6.926   8.328   8.141  0.3783 -0.3882  0.0365
  384MOL0     C51757   5.959   8.230   8.320 -0.0801 -0.7736  0.1758
  384MOL0     C51758   5.900   8.326   8.245 -0.3091 -0.6745  0.3923
  384MOL0     C51759   5.646   8.736   8.255 -0.4839 -0.6798 -0.5225
  384MOL0     C51760   5.664   8.879   8.242 -0.0564  0.4742 -0.3233
  384MOL0     C51761   5.558   8.961   8.190 -0.6721  0.1751 -0.5304
  384MOL0     C51762   5.427   8.906   8.179  0.0993 -0.3805 -0.1307
  384MOL0     O51763   5.336   9.006   8.148  0.5808  0.1880  0.4275
  384MOL0     C51764   5.208   8.971   8.081  0.2555 -0.1845  0.8178
  384MOL0     C51765   5.130   9.093   8.045 -0.4982  1.0851 -0.0638
  384MOL0     C51766   5.223   9.193   7.976  0.5866  0.2152 -0.1912
  384MOL0     C51767   5.156   9.315   7.920  0.0036 -0.5717 -0.7048
  384MOL0     C51768   5.259   9.418   7.904 -0.1030 -0.7062 -0.5221
  384MOL0     C51769   5.336   9.508   7.887 -0.8891  0.0679 -0.7599
  384MOL0     C51770   5.405   8.770   8.203  0.2693 -0.2261  0.2727
  384MOL0     C51771   5.510   8.684   8.244  0.2260  0.8433 -0.5052
  384MOL0     C51772   5.488   8.541   8.274 -0.0020  0.5898 -0.9515
  384MOL0     H51773   5.798   8.509   8.516 -0.7717  1.5717 -2.1229
  384MOL0     H51774   5.917   8.345   8.630  3.0013 -2.5470 -0.0023
  384MOL0     H51775   6.101   8.210   8.701 -2.2929  0.1128 -0.2671
  384MOL0     H51776   5.965   8.103   8.702  0.0799  1.5981  1.0690
  384MOL0     H51777   6.122   7.908   8.634 -4.6072  1.3080 -0.0527
  384MOL0     H51778   6.151   7.973   8.790 -2.1196  1.7347  0.1640
  384MOL0     H51779   6.368   7.949   8.682 -2.7801 -2.2020 -0.2154
  384MOL0     H51780   6.327   8.109   8.739 -0.4170 -1.0981  0.5630
  384MOL0     H51781   6.296   8.014   8.456  2.4233 -0.4642 -0.5935
  384MOL0     H51782   6.309   8.181   8.513  0.7143  0.6322 -0.4148
  384MOL0     H51783   6.538   8.119   8.599 -1.7630 -3.9514  1.6757
  384MOL0     H51784   6.519   7.978   8.490 -2.9480 -1.3899  1.9710
  384MOL0     H51785   6.470   8.114   8.299 -1.6950  1.6190  0.4845
  384MOL0     H51786   6.484   8.262   8.380 -0.8540 -1.1460 -0.6269
  384MOL0     H51787   6.721   8.054   8.338  0.8698  0.4332  0.1072
  384MOL0     H51788   6.730   8.194   8.437 -0.6784 -0.8747  1.0955
  384MOL0     H51789   6.660   8.199   8.148  3.6762 -0.3502 -2.8580
  384MOL0     H51790   6.709   8.340   8.248  2.2949  0.5128  0.1984
  384MOL0     H51791   6.911   8.003   8.209 -1.4540  0.1461 -0.0686
  384MOL0     H51792   7.135   7.958   8.134  0.4416 -0.3301 -0.8784
  384MOL0     H51793   7.140   8.061   7.988 -3.4129  3.1345 -0.0044
  384MOL0     H51794   7.320   8.207   8.094  1.5882  0.7248  2.4845
  384MOL0     H51795   7.304   8.109   8.238 -3.4525  1.6222  0.6631
  384MOL0     H51796   7.379   7.964   7.968  4.0648  1.7681 -1.4491
  384MOL0     H51797   7.400   7.916   8.138  1.4933  0.1932  0.6553
  384MOL0     H51798   7.561   8.151   8.038  0.0943 -0.7127 -0.5237
  384MOL0     H51799   7.606   7.988   8.027  3.3481  2.5852  0.0825
  384MOL0     H51800   7.631   8.065   8.462 -0.4255 -0.9277 -0.8424
  384MOL0     H51801   7.844   8.138   8.554  3.0240 -0.1179  0.2308
  384MOL0     H51802   8.325   8.232   8.154 -1.6518 -0.2910  1.3153
  384MOL0     H51803   8.521   8.325   8.142 -1.2449 -0.9378 -0.4514
  384MOL0     H51804   8.631   8.613   8.465  0.3682  2.2777 -1.8444
  384MOL0     H51805   8.764   8.504   8.522 -2.3185 -0.0678  1.8857
  384MOL0     H51806   8.858   8.713   8.421  1.1333  0.0380 -0.5501
  384MOL0     H51807   8.892   8.573   8.316  0.8872  0.9462  0.4507
  384MOL0     H51808   8.708   8.648   8.166 -1.2589 -2.2469  1.7203
  384MOL0     H51809   8.653   8.773   8.276 -0.8162  0.2494 -3.8482
  384MOL0     H51810   8.893   8.878   8.262  2.6366  2.4207 -3.2688
  384MOL0     H51811   8.779   8.895   8.131 -0.2062  1.7943  1.2805
  384MOL0     H51812   8.900   8.757   7.978  1.6118 -0.5582 -1.0120
  384MOL0     H51813   8.969   8.673   8.125 -2.8998 -1.2484  0.7600
  384MOL0     H51814   9.043   8.959   8.053 -0.0101 -0.2856 -2.0897
  384MOL0     H51815   9.132   8.855   8.151  1.4183 -0.8100 -1.7137
  384MOL0     H51816   9.234   8.895   7.952 -0.4958 -0.3922 -0.6424
  384MOL0     H51817   9.104   8.833   7.857 -2.3841 -2.5223  0.2613
  384MOL0     H51818   9.143   8.605   7.977  0.8261 -0.7219 -0.4953
  384MOL0     H51819   9.291   8.659   7.892  1.8214  0.9162  0.3974
  384MOL0     H51820   8.480   8.491   8.538 -0.2982  0.9479 -0.3441
  384MOL0     H51821   8.248   8.412   8.541 -1.1160  2.4144 -1.2483
  384MOL0     H51822   7.997   8.194   8.162  1.3979 -0.4881  0.3107
  384MOL0     H51823   7.781   8.135   8.068  2.1380  2.4573 -0.3297
  384MOL0     H51824   6.000   8.148   8.260 -0.5659  0.4937 -1.9937
  384MOL0     H51825   5.891   8.323   8.137  2.0611 -1.1988  0.1758
  384MOL0     H51826   5.757   8.928   8.271 -1.0758  0.2711  4.0080
  384MOL0     H51827   5.579   9.067   8.184  1.6429 -0.0753  1.6305
  384MOL0     H51828   5.151   8.912   8.154  1.6525 -0.4325  1.7584
  384MOL0     H51829   5.223   8.906   7.995  2.9086 -1.6300  2.2388
  384MOL0     H51830   5.090   9.132   8.139  1.4962 -0.6166  1.5978
  384MOL0     H51831   5.056   9.065   7.970  0.7877  0.8071 -1.2719
  384MOL0     H51832   5.280   9.149   7.894  1.5872 -0.8182  1.0175
  384MOL0     H51833   5.299   9.224   8.048  1.5793 -0.8827 -0.7384
  384MOL0     H51834   5.108   9.296   7.824 -1.2558  0.0712 -0.2109
  384MOL0     H51835   5.083   9.351   7.993  4.0033  0.5205  3.1768
  384MOL0     H51836   5.397   9.593   7.865 -0.1175 -0.2845 -0.0390
  384MOL0     H51837   5.306   8.730   8.185 -0.0957  0.4705  0.7057
  384MOL0     H51838   5.531   8.468   8.204 -1.4328 -1.2286 -0.0160
  384MOL0     H51839   5.504   8.522   8.380 -1.7210  2.1742 -0.3471
  384MOL0     H51840   5.382   8.517   8.263 -0.0320  0.2447  0.0002
  385MOL0     O51841   9.796   1.229   8.852 -0.0797  0.1023 -0.0163
  385MOL0     C51842   9.693   1.288   8.810 -0.6032  0.0215 -0.1744
  385MOL0     O51843   9.685   1.372   8.695 -0.7316  0.6110  0.1779
  385MOL0     C51844   9.802   1.418   8.635  0.3288  0.3466  1.0292
  385MOL0     C51845   9.919   1.442   8.701 -0.1213  0.0156  0.0373
  385MOL0     C51846  10.017   1.532   8.650  1.1131  0.3492 -0.0511
  385MOL0     C51847   9.998   1.589   8.526  0.0924 -0.6611  0.5250
  385MOL0     O51848  10.080   1.679   8.472 -0.6582 -0.2187 -0.1370
  385MOL0     C51849  10.201   1.716   8.538 -0.1619 -1.2563 -0.0833
  385MOL0     C51850  10.261   1.844   8.466  0.2736  0.2978  0.5356
  385MOL0     C51851  10.401   1.891   8.499 -0.3402  0.2437 -0.0179
  385MOL0     C51852  10.511   1.812   8.427 -0.4458  0.9728 -0.2801
  385MOL0     C51853  10.652   1.857   8.474  0.1911  0.2275  0.3522
  385MOL0     C51854  10.775   1.774   8.415 -0.2411 -0.1604  0.5091
  385MOL0     C51855  10.907   1.829   8.460 -0.6057 -1.2204  0.1975
  385MOL0     C51856  11.022   1.760   8.393 -0.4641 -0.6140  0.6392
  385MOL0     N51857  11.146   1.785   8.471 -0.8215  0.2063  0.2835
  385MOL0     C51858  11.191   1.910   8.508  0.1549  0.5435  0.4709
  385MOL0     C51859  11.279   1.883   8.606 -0.6966  0.6017 -0.1085
  385MOL0     C51860  11.357   1.999   8.665  0.5154  0.2275  0.1279
  385MOL0     C51861  11.498   1.987   8.633  0.0959 -0.1217  0.0129
  385MOL0     C51862  11.581   2.121   8.624 -0.5271  0.4176 -0.1366
  385MOL0     C51863  11.732   2.089   8.600  0.1546 -0.0263 -0.0780
  385MOL0     O51864  11.806   2.207   8.636 -0.2701 -0.1850 -0.2141
  385MOL0     C51865  11.937   2.210   8.603  1.2757  0.2363 -0.0584
  385MOL0     C51866  11.989   2.177   8.476 -0.0656  0.8354 -0.0233
  385MOL0     C51867  12.131   2.169   8.459  0.4408 -0.4246  0.0343
  385MOL0     C51868  12.221   2.212   8.566 -0.2805  1.4369  0.9849
  385MOL0     C51869  12.360   2.235   8.548  0.2301 -0.4105  0.9518
  385MOL0     O51870  12.435   2.288   8.654  1.2696 -0.0518  0.3911
  385MOL0     C51871  12.562   2.306   8.617 -0.0470 -0.5503  0.4570
  385MOL0     C51872  12.608   2.437   8.566 -0.1835  0.4996 -0.4495
  385MOL0     C51873  12.741   2.471   8.549  0.5318 -0.0636  0.5039
  385MOL0     C51874  12.837   2.373   8.564 -0.1977 -0.4101  0.6034
  385MOL0     O51875  12.971   2.406   8.544 -0.5939 -0.2230 -0.5379
  385MOL0     C51876  13.036   2.527   8.593 -0.6484 -0.2142 -0.1158
  385MOL0     C51877  13.184   2.511   8.618  0.2654 -0.6673 -0.3851
  385MOL0     C51878  13.202   2.442   8.749 -1.2899  0.3169 -0.4570
  385MOL0     C51879  13.348   2.403   8.776  0.3416 -0.5652  0.3585
  385MOL0     C51880  13.359   2.307   8.895 -1.5345 -0.0415 -0.3258
  385MOL0     C51881  13.504   2.263   8.914 -1.1865  0.0021  0.3467
  385MOL0     C51882  13.530   2.134   8.999 -0.1000 -0.2996  0.6640
  385MOL0     C51883  13.684   2.109   9.018  0.2074 -0.0715  0.4395
  385MOL0    Cl51884  13.781   2.249   9.075  0.2813 -0.2852 -0.1427
  385MOL0     C51885  12.797   2.239   8.591 -0.5999 -0.9230 -0.5635
  385MOL0     C51886  12.663   2.206   8.625 -1.0113 -0.0546  0.9801
  385MOL0     O51887  12.405   2.210   8.436  0.4337 -0.6107 -0.0852
  385MOL0     C51888  12.163   2.246   8.683 -0.6145  0.4590  0.6969
  385MOL0     C51889  12.024   2.256   8.696  0.0357 -0.2207  0.2140
  385MOL0     N51890  11.302   1.746   8.618  0.3434  0.9148  0.2269
  385MOL0     N51891  11.220   1.687   8.529  0.0448  0.0655 -0.5847
  385MOL0     C51892   9.878   1.562   8.451 -0.5221  1.0046  0.2816
  385MOL0     C51893   9.781   1.470   8.505 -0.1068 -0.1605 -0.0363
  385MOL0     C51894   9.569   1.275   8.880  0.6024  0.3056  0.9864
  385MOL0     C51895   9.466   1.368   8.851 -0.0711 -0.1822  0.0214
  385MOL0     C51896   9.347   1.379   8.928 -0.5996  0.0747  0.2666
  385MOL0     C51897   9.327   1.284   9.033  0.2918 -0.5672 -0.3366
  385MOL0     O51898   9.219   1.276   9.116 -0.2314 -0.2074 -0.5504
  385MOL0     C51899   9.106   1.373   9.107 -0.1199  0.0201 -0.0069
  385MOL0     C51900   8.962   1.311   9.119 -0.3724  0.8351 -0.1747
  385MOL0     C51901   8.935   1.252   9.260 -0.6040 -0.3902 -0.1083
  385MOL0     C51902   8.788   1.198   9.265  0.3371 -0.1290 -0.5851
  385MOL0     C51903   8.768   1.103   9.374 -0.3915  0.7853 -0.7557
  385MOL0     C51904   8.716   1.037   9.465 -0.1986  0.3484 -0.3544
  385MOL0     C51905   9.432   1.198   9.064 -0.2127 -0.4214  0.2391
  385MOL0     C51906   9.541   1.182   8.990 -0.0879 -0.4030  0.5803
  385MOL0     C51907   9.619   1.063   9.030 -0.4082  0.0775  0.0369
  385MOL0     H51908   9.935   1.420   8.806  2.1335 -3.1871 -0.8332
  385MOL0     H51909  10.097   1.560   8.719  1.1060  0.2114  0.0136
  385MOL0     H51910  10.182   1.724   8.646 -2.8152 -2.5647 -0.3589
  385MOL0     H51911  10.269   1.632   8.526  1.9044  0.1408  1.1858
  385MOL0     H51912  10.191   1.927   8.477 -3.6241 -2.4643 -1.1882
  385MOL0     H51913  10.273   1.809   8.363  2.8761 -1.2584  1.2559
  385MOL0     H51914  10.406   1.879   8.608 -1.1824 -2.5901 -0.2101
  385MOL0     H51915  10.432   1.996   8.490  1.4266  0.3226  4.4035
  385MOL0     H51916  10.504   1.705   8.451  2.0144  0.6089 -0.9879
  385MOL0     H51917  10.504   1.812   8.318 -0.6112  1.8217 -0.2755
  385MOL0     H51918  10.651   1.962   8.444 -0.6534  0.3652  0.8601
  385MOL0     H51919  10.660   1.857   8.583  1.9660 -1.8925  0.2900
  385MOL0     H51920  10.764   1.665   8.425  2.3954 -0.5304  0.0053
  385MOL0     H51921  10.774   1.780   8.306 -1.2271 -0.5127  0.4803
  385MOL0     H51922  10.920   1.830   8.569 -1.4648 -1.0719  0.3105
  385MOL0     H51923  10.914   1.929   8.418 -0.9161 -2.3339 -2.7694
  385MOL0     H51924  11.000   1.653   8.387  0.0262 -0.6387 -1.1437
  385MOL0     H51925  11.028   1.789   8.288 -1.4192 -1.8630  0.2183
  385MOL0     H51926  11.150   2.002   8.468  1.9610  0.9051 -0.6886
  385MOL0     H51927  11.319   2.094   8.625  1.3285  0.9708  1.0553
  385MOL0     H51928  11.333   2.006   8.771 -1.1994 -0.8072 -0.1524
  385MOL0     H51929  11.536   1.921   8.712 -1.4419  2.1550  2.8345
  385MOL0     H51930  11.504   1.945   8.532 -1.0215  1.0915 -0.5896
  385MOL0     H51931  11.579   2.181   8.715  2.6027  1.0947 -0.4137
  385MOL0     H51932  11.545   2.180   8.539  2.7369 -1.4853 -3.1104
  385MOL0     H51933  11.743   2.061   8.495 -1.0407  1.4470 -0.6231
  385MOL0     H51934  11.769   2.002   8.654 -0.0058 -0.4724 -0.6669
  385MOL0     H51935  11.929   2.145   8.391  0.8447 -4.0184  0.8963
  385MOL0     H51936  12.171   2.143   8.362 -0.5237 -0.7503 -0.2908
  385MOL0     H51937  12.532   2.511   8.542  0.6958  0.7730 -2.6744
  385MOL0     H51938  12.783   2.571   8.542  4.7033 -1.4831  2.2610
  385MOL0     H51939  13.021   2.605   8.517 -2.4212  2.1021  2.4302
  385MOL0     H51940  12.990   2.574   8.680  1.0749  0.2441  0.5868
  385MOL0     H51941  13.227   2.454   8.535 -0.5150 -2.3088  0.2877
  385MOL0     H51942  13.242   2.603   8.613  1.4129 -1.2938  0.6411
  385MOL0     H51943  13.165   2.510   8.827  0.1938  2.0708 -1.2104
  385MOL0     H51944  13.128   2.362   8.757 -1.6001  0.6821  0.5823
  385MOL0     H51945  13.406   2.493   8.795  0.1326  0.2166 -2.2586
  385MOL0     H51946  13.401   2.358   8.692  0.5752 -1.2618  0.8750
  385MOL0     H51947  13.300   2.216   8.879 -2.7400  0.6666  0.0329
  385MOL0     H51948  13.318   2.355   8.984 -2.3847  0.9429 -1.2209
  385MOL0     H51949  13.553   2.257   8.816  1.4273  2.0004  1.4326
  385MOL0     H51950  13.552   2.349   8.961 -1.4367 -1.5817  3.8494
  385MOL0     H51951  13.491   2.046   8.945  3.5578 -1.4975 -0.3334
  385MOL0     H51952  13.485   2.144   9.098  0.7112 -1.2982  1.1536
  385MOL0     H51953  13.695   2.018   9.078 -1.4342  0.6225  1.8882
  385MOL0     H51954  13.716   2.070   8.921 -0.3929  0.5899 -0.0376
  385MOL0     H51955  12.871   2.161   8.605 -0.1439 -0.9548 -2.7767
  385MOL0     H51956  12.642   2.102   8.650  1.1541 -0.5239  1.0338
  385MOL0     H51957  12.219   2.290   8.766 -0.1816 -0.6846  1.0318
  385MOL0     H51958  11.989   2.302   8.788  1.6358 -1.5290  1.5319
  385MOL0     H51959   9.861   1.602   8.352  0.4780  0.1059 -0.2685
  385MOL0     H51960   9.692   1.439   8.451  1.9303 -2.3949 -2.3893
  385MOL0     H51961   9.486   1.448   8.780 -2.0811  0.4933  0.1682
  385MOL0     H51962   9.275   1.453   8.894 -1.2236 -1.4183 -1.9014
  385MOL0     H51963   9.113   1.414   9.006 -0.8109 -1.8496 -0.8590
  385MOL0     H51964   9.119   1.453   9.180  0.7096  0.9922 -1.1986
  385MOL0     H51965   8.961   1.220   9.058  2.3153 -0.1164  1.0512
  385MOL0     H51966   8.879   1.379   9.097  0.5880  1.5156 -1.8086
  385MOL0     H51967   8.943   1.329   9.337  1.6510  0.2230 -0.8534
  385MOL0     H51968   9.006   1.172   9.282  0.3251  0.1246 -1.1039
  385MOL0     H51969   8.713   1.277   9.271 -2.1037 -2.4081  1.0884
  385MOL0     H51970   8.765   1.141   9.174 -3.6278 -3.7679  2.2958
  385MOL0     H51971   8.659   0.976   9.532 -1.0710  1.0062 -0.4867
  385MOL0     H51972   9.413   1.138   9.152  1.7783  2.2737  2.7039
  385MOL0     H51973   9.569   0.974   8.989  2.0845 -2.1594  1.5200
  385MOL0     H51974   9.724   1.059   8.999  0.8176 -0.0511  3.7250
  385MOL0     H51975   9.619   1.040   9.137 -0.6876  1.3090  0.3205
  386MOL0     O51976   2.840  10.159   7.560 -0.3070 -0.4472  0.3974
  386MOL0     C51977   2.818  10.239   7.648  0.1222 -0.5548  0.1251
  386MOL0     O51978   2.918  10.313   7.709 -0.3120  0.4037 -0.3372
  386MOL0     C51979   3.045  10.287   7.668  0.9422  0.0324 -1.0538
  386MOL0     C51980   3.095  10.354   7.555  0.0630 -1.1349  0.4819
  386MOL0     C51981   3.227  10.339   7.516  0.1698 -0.7435 -1.3566
  386MOL0     C51982   3.317  10.267   7.596  0.0287  0.5433  0.2054
  386MOL0     O51983   3.444  10.240   7.547 -0.1604  0.6762 -0.6136
  386MOL0     C51984   3.532  10.352   7.538  0.4523  0.0673  0.0392
  386MOL0     C51985   3.580  10.394   7.683  0.3511 -0.4105  0.0662
  386MOL0     C51986   3.659  10.273   7.745 -0.5441 -0.7141  0.7947
  386MOL0     C51987   3.687  10.311   7.896  1.3913 -0.0567 -0.2180
  386MOL0     C51988   3.752  10.187   7.960 -0.6632  0.0678 -0.2592
  386MOL0     C51989   3.889  10.138   7.914  0.2101  0.1661 -0.1839
  386MOL0     C51990   4.014  10.204   7.981 -0.5329 -0.1782 -0.1668
  386MOL0     C51991   4.013  10.353   7.960 -0.9221 -0.0716  0.0792
  386MOL0     N51992   4.138  10.422   7.984  0.1541  0.4875  0.0038
  386MOL0     C51993   4.231  10.371   8.067 -0.6883  0.7885 -0.4742
  386MOL0     C51994   4.343  10.445   8.041 -0.2943 -0.3185 -0.1128
  386MOL0     C51995   4.463  10.446   8.132 -0.3482  0.7269 -0.7833
  386MOL0     C51996   4.591  10.396   8.047 -0.1756 -0.5284  0.2100
  386MOL0     C51997   4.719  10.404   8.126  0.5585 -0.4125  0.0539
  386MOL0     C51998   4.844  10.391   8.038  0.3406 -0.3692  0.2105
  386MOL0     O51999   4.952  10.442   8.111 -0.3041 -0.2408  0.1680
  386MOL0     C52000   5.079  10.387   8.079  0.3123  0.0743 -0.7435
  386MOL0     C52001   5.118  10.300   7.969  0.7963 -0.3431 -0.1087
  386MOL0     C52002   5.253  10.282   7.945 -0.2944 -0.1886  0.9705
  386MOL0     C52003   5.355  10.326   8.030 -0.1677 -0.2405  0.0965
  386MOL0     C52004   5.500  10.298   8.002 -0.1308 -0.0212 -0.1674
  386MOL0     O52005   5.577  10.299   8.109 -0.4358 -0.3560 -0.5649
  386MOL0     C52006   5.711  10.272   8.089 -0.5647 -0.9200  0.8452
  386MOL0     C52007   5.803  10.364   8.130  0.0777 -0.3265 -0.9098
  386MOL0     C52008   5.939  10.334   8.138  0.4942 -0.4290 -0.0466
  386MOL0     C52009   5.990  10.215   8.090 -0.0584  0.0260  0.3313
  386MOL0     O52010   6.123  10.177   8.086  0.0445 -0.3363 -0.2547
  386MOL0     C52011   6.210  10.278   8.032  0.0029  0.2242 -0.1420
  386MOL0     C52012   6.324  10.227   7.938  0.2109 -0.8960  0.0398
  386MOL0     C52013   6.444  10.188   8.014 -0.7270  0.1762 -0.0602
  386MOL0     C52014   6.541  10.107   7.927 -0.8221 -0.7554  0.9468
  386MOL0     C52015   6.683  10.098   7.998  0.0517  0.3464 -0.0063
  386MOL0     C52016   6.772  10.005   7.922  0.2140 -0.0026 -0.0733
  386MOL0     C52017   6.922  10.011   7.964  0.2985  0.0750 -0.2568
  386MOL0     C52018   7.009   9.897   7.909 -0.2260 -0.2301  0.8331
  386MOL0    Cl52019   6.995   9.878   7.735  0.1208 -0.2149  0.1602
  386MOL0     C52020   5.900  10.123   8.041 -0.7813 -0.1598  0.9277
  386MOL0     C52021   5.763  10.149   8.047 -0.1978  0.8184 -0.0793
  386MOL0     O52022   5.539  10.277   7.888 -0.1434  0.0123  0.0102
  386MOL0     C52023   5.316  10.404   8.141  0.3083  0.0202 -0.7697
  386MOL0     C52024   5.185  10.436   8.161  0.0664  0.1719  0.8658
  386MOL0     N52025   4.318  10.527   7.937 -0.1187 -0.5727  0.3043
  386MOL0     N52026   4.198  10.502   7.898 -0.2665 -0.4999  0.0628
  386MOL0     C52027   3.269  10.194   7.703 -0.2303 -0.1373 -0.3900
  386MOL0     C52028   3.138  10.209   7.742 -0.1900  0.5338  0.1137
  386MOL0     C52029   2.674  10.267   7.695 -0.5570  0.2524 -0.1860
  386MOL0     C52030   2.659  10.379   7.783 -0.0352  0.8517 -1.0824
  386MOL0     C52031   2.531  10.419   7.831  0.4131  0.5189 -0.1700
  386MOL0     C52032   2.423  10.357   7.779  0.3668 -0.9446  0.5685
  386MOL0     O52033   2.293  10.400   7.816 -0.6735 -0.1249 -0.1553
  386MOL0     C52034   2.184  10.359   7.739 -0.2197 -0.5691  0.4936
  386MOL0     C52035   2.115  10.232   7.801  0.0346 -0.2609  0.4363
  386MOL0     C52036   2.029  10.272   7.926  0.1176 -0.5277 -0.2072
  386MOL0     C52037   1.945  10.157   7.982 -0.6111 -0.4653  0.0882
  386MOL0     C52038   2.024  10.041   8.009 -0.7146  0.1509 -1.3432
  386MOL0     C52039   2.076   9.935   8.016  0.0513  0.5432 -1.2628
  386MOL0     C52040   2.437  10.248   7.693  0.4286  0.7505 -0.5185
  386MOL0     C52041   2.559  10.198   7.650 -0.4349  0.6830  0.4369
  386MOL0     C52042   2.554  10.067   7.564 -0.1881 -0.8346 -0.1237
  386MOL0     H52043   3.027  10.416   7.498 -0.4540 -1.0923  1.1417
  386MOL0     H52044   3.261  10.387   7.424 -0.4765 -0.8129 -1.6418
  386MOL0     H52045   3.623  10.332   7.481  1.3825  2.5651  0.5446
  386MOL0     H52046   3.484  10.439   7.494  1.4127 -1.0766 -3.5953
  386MOL0     H52047   3.495  10.415   7.748  1.2213 -1.1738  1.5234
  386MOL0     H52048   3.644  10.483   7.695  2.0129 -1.3159 -1.4669
  386MOL0     H52049   3.749  10.250   7.688  1.1088  0.0570  2.9812
  386MOL0     H52050   3.600  10.181   7.744  1.1734 -1.8579  0.5425
  386MOL0     H52051   3.750  10.400   7.905 -1.7793  2.3404  0.1463
  386MOL0     H52052   3.598  10.333   7.956  1.4136 -0.1551 -0.1491
  386MOL0     H52053   3.760  10.201   8.069 -0.8125  2.9356 -0.5446
  386MOL0     H52054   3.684  10.109   7.925  0.4034 -0.2065 -1.8181
  386MOL0     H52055   3.898  10.030   7.925  1.6732  0.3322  0.6037
  386MOL0     H52056   3.901  10.169   7.809  2.6552  1.3210  0.3494
  386MOL0     H52057   4.104  10.156   7.942 -1.7512 -2.6527 -0.1844
  386MOL0     H52058   4.008  10.182   8.088 -1.5207  0.5120 -0.0625
  386MOL0     H52059   3.982  10.384   7.859 -0.9400  0.6351  0.2941
  386MOL0     H52060   3.937  10.402   8.022  1.5503  1.3601  2.1489
  386MOL0     H52061   4.218  10.284   8.131  1.3668 -0.3849 -1.5508
  386MOL0     H52062   4.494  10.543   8.171  2.2091  0.0498 -0.9693
  386MOL0     H52063   4.457  10.373   8.213  1.7154 -0.2256 -1.4113
  386MOL0     H52064   4.568  10.295   8.011  1.9677 -0.3370 -1.8999
  386MOL0     H52065   4.600  10.460   7.959  2.7945 -0.7479  0.2631
  386MOL0     H52066   4.719  10.349   8.221  1.6999  3.9923  2.9217
  386MOL0     H52067   4.715  10.503   8.174 -1.0132  0.0357 -0.9260
  386MOL0     H52068   4.820  10.447   7.948 -0.4817 -1.0063  0.0210
  386MOL0     H52069   4.864  10.289   8.003 -0.4687 -0.9744  1.4293
  386MOL0     H52070   5.047  10.263   7.896  0.8466 -2.0581  0.6654
  386MOL0     H52071   5.281  10.225   7.858 -1.2333  2.2765 -1.0880
  386MOL0     H52072   5.776  10.461   8.171  0.0768 -2.0777  4.0008
  386MOL0     H52073   6.013  10.399   8.183  0.1802  0.5148 -0.8420
  386MOL0     H52074   6.152  10.351   7.974 -1.0343  0.1640  0.7749
  386MOL0     H52075   6.264  10.333   8.110 -1.2092 -0.7644  1.4491
  386MOL0     H52076   6.286  10.141   7.881 -3.1563 -0.5339  1.5066
  386MOL0     H52077   6.346  10.304   7.864 -0.0557  0.4280  1.3038
  386MOL0     H52078   6.488  10.277   8.059 -0.7096 -1.3756  3.2822
  386MOL0     H52079   6.416  10.125   8.099  2.6708  2.6549  3.2158
  386MOL0     H52080   6.544  10.167   7.836 -2.8749 -0.9593  0.7022
  386MOL0     H52081   6.492  10.010   7.915  0.5171 -1.3925  0.3799
  386MOL0     H52082   6.683  10.062   8.101  0.3161 -3.6017 -1.2350
  386MOL0     H52083   6.735  10.194   7.999  0.6834  0.0211  2.3164
  386MOL0     H52084   6.733   9.905   7.942 -0.7379 -0.1774 -2.5004
  386MOL0     H52085   6.774  10.030   7.815  1.1877  2.9830  0.5367
  386MOL0     H52086   6.918  10.014   8.073  2.5433 -0.5909 -0.1193
  386MOL0     H52087   6.969  10.108   7.943 -1.2731  1.5381  2.3412
  386MOL0     H52088   7.114   9.906   7.937 -0.2448 -0.6699  1.0495
  386MOL0     H52089   6.968   9.807   7.955 -1.2889  0.2519  0.8689
  386MOL0     H52090   5.940  10.035   7.991  3.0548  0.5606  2.3729
  386MOL0     H52091   5.690  10.072   8.021 -1.4101  1.6881  0.6516
  386MOL0     H52092   5.398  10.450   8.195 -1.1572  0.0442  1.5771
  386MOL0     H52093   5.155  10.490   8.250 -1.7196  0.4746  0.1270
  386MOL0     H52094   3.319  10.127   7.772  0.6765 -0.4327 -1.3026
  386MOL0     H52095   3.122  10.165   7.840  0.0203  0.6330  0.1942
  386MOL0     H52096   2.741  10.439   7.820 -0.2751  0.4224  0.2113
  386MOL0     H52097   2.522  10.500   7.903 -0.0660  0.5133 -0.2208
  386MOL0     H52098   2.219  10.352   7.635 -0.4041  1.8758  0.2111
  386MOL0     H52099   2.111  10.440   7.733  1.7227  1.3159  1.2197
  386MOL0     H52100   2.190  10.160   7.835  1.3461  1.2166  0.7744
  386MOL0     H52101   2.058  10.172   7.729  2.1555  0.3200 -1.9041
  386MOL0     H52102   1.958  10.351   7.901 -1.3474 -1.5114  0.7185
  386MOL0     H52103   2.099  10.307   8.003  0.8680 -0.3668 -0.9483
  386MOL0     H52104   1.906  10.186   8.080  0.6308  4.7756 -0.6822
  386MOL0     H52105   1.868  10.121   7.914 -1.9401  0.6491  0.9443
  386MOL0     H52106   2.134   9.845   8.022  0.3990  0.8666  0.8989
  386MOL0     H52107   2.346  10.197   7.665  1.0680 -0.3164 -0.7114
  386MOL0     H52108   2.622  10.073   7.478  0.8679 -2.2466  0.5752
  386MOL0     H52109   2.587   9.997   7.642 -4.1783  0.1908  2.7759
  386MOL0     H52110   2.459  10.029   7.526  1.3009 -2.7755 -2.2348
  387MOL0     O52111   3.465   1.634   9.947 -0.2383  0.6279  0.5638
  387MOL0     C52112   3.447   1.736   9.883  0.8276 -0.2280 -0.1966
  387MOL0     O52113   3.550   1.817   9.860  0.4007 -0.2241 -0.1359
  387MOL0     C52114   3.676   1.798   9.910 -0.2636 -0.0269 -0.2976
  387MOL0     C52115   3.775   1.796   9.814 -0.0744  0.3765  0.1017
  387MOL0     C52116   3.906   1.752   9.842  0.3470  0.1989 -0.0570
  387MOL0     C52117   3.944   1.728   9.973 -0.4970  0.4399  0.8480
  387MOL0     O52118   4.074   1.690  10.000  0.6995 -0.2994 -0.6248
  387MOL0     C52119   4.092   1.604  10.120  0.1036  0.0939 -0.4410
  387MOL0     C52120   4.241   1.579  10.134  0.1970 -0.9345  0.1485
  387MOL0     C52121   4.328   1.700  10.166 -0.4690  0.3434  0.0408
  387MOL0     C52122   4.462   1.650  10.224 -0.0695  0.0894  0.1662
  387MOL0     C52123   4.547   1.784  10.223  0.3174  1.1328  0.7507
  387MOL0     C52124   4.685   1.743  10.283 -0.3411  0.3880  0.1444
  387MOL0     C52125   4.792   1.839  10.249 -0.0425 -0.1816 -0.2436
  387MOL0     C52126   4.786   1.990  10.299  0.1968  0.4666  0.7391
  387MOL0     N52127   4.798   1.993  10.440 -0.3153 -0.3336 -0.6079
  387MOL0     C52128   4.694   1.965  10.527 -0.4657  0.3438 -0.3998
  387MOL0     C52129   4.748   1.962  10.651 -0.0849  0.2044 -0.8707
  387MOL0     C52130   4.673   1.938  10.781 -0.0132  0.6761 -0.3714
  387MOL0     C52131   4.622   1.791  10.810 -0.2298  0.1244  0.4301
  387MOL0     C52132   4.558   1.714  10.695  0.0577  0.3456 -0.0733
  387MOL0     C52133   4.415   1.754  10.666 -0.5544 -0.6915  0.1924
  387MOL0     O52134   4.404   1.889  10.648  0.0039 -0.3296  0.1489
  387MOL0     C52135   4.294   1.951  10.581 -0.3578  0.0316  0.5025
  387MOL0     C52136   4.310   2.087  10.564  0.1691 -0.7536 -0.4370
  387MOL0     C52137   4.209   2.165  10.506  0.0556  0.6371  0.2322
  387MOL0     C52138   4.105   2.097  10.452 -0.5709  0.0953  0.4524
  387MOL0     C52139   4.002   2.170  10.371  0.2708 -0.3711 -0.2816
  387MOL0     O52140   3.921   2.092  10.302  0.0218  0.1004  0.1677
  387MOL0     C52141   3.870   2.138  10.182 -0.0999  0.9040 -0.6479
  387MOL0     C52142   3.919   2.069  10.071  0.4423  0.6974 -0.5524
  387MOL0     C52143   3.877   2.103   9.938  0.4073  0.0029 -0.3045
  387MOL0     C52144   3.789   2.215   9.920 -0.1512  0.0717 -0.1989
  387MOL0     O52145   3.731   2.238   9.798  0.9501 -0.0645  0.2207
  387MOL0     C52146   3.600   2.173   9.777 -0.0068  0.0713  0.2644
  387MOL0     C52147   3.494   2.281   9.742  0.4500  0.2998  0.0520
  387MOL0     C52148   3.354   2.233   9.776  0.7557 -0.0471  0.4683
  387MOL0     C52149   3.245   2.340   9.751  0.2322  0.9489  0.4511
  387MOL0     C52150   3.118   2.272   9.706  0.1539  0.1799  0.4816
  387MOL0     C52151   3.053   2.197   9.828 -0.1190  0.7713  0.1333
  387MOL0     C52152   2.909   2.159   9.794  0.5099 -0.3331 -0.1902
  387MOL0     C52153   2.829   2.088   9.904 -0.5737  0.2856 -0.4370
  387MOL0    Cl52154   2.666   2.026   9.842 -0.0604 -0.1091 -0.3349
  387MOL0     C52155   3.741   2.291  10.021  0.1960  0.2478  0.0275
  387MOL0     C52156   3.777   2.248  10.153 -0.4671 -0.3304  0.1076
  387MOL0     O52157   4.004   2.296  10.365 -0.6458 -0.0302  0.1916
  387MOL0     C52158   4.088   1.957  10.466  0.3347  0.1943 -0.0661
  387MOL0     C52159   4.188   1.884  10.527 -0.0828  0.1991 -0.4133
  387MOL0     N52160   4.883   1.995  10.641 -0.9444  0.2770  0.6142
  387MOL0     N52161   4.910   2.011  10.514 -0.3105 -0.3867 -0.0485
  387MOL0     C52162   3.843   1.726  10.072  1.2894 -0.3195 -0.0832
  387MOL0     C52163   3.712   1.763  10.043 -0.0483 -0.7703  0.7030
  387MOL0     C52164   3.316   1.746   9.810 -0.8216  0.4805  0.4726
  387MOL0     C52165   3.306   1.838   9.698 -0.0945  0.0156  0.5641
  387MOL0     C52166   3.187   1.845   9.628  0.5214 -0.1480 -0.4877
  387MOL0     C52167   3.072   1.782   9.658 -0.9286  0.1731  0.4691
  387MOL0     O52168   2.957   1.811   9.587 -0.2125  0.4784  0.0682
  387MOL0     C52169   2.837   1.758   9.651 -0.9180  0.3320 -0.5789
  387MOL0     C52170   2.713   1.807   9.568  1.0319 -0.2106 -0.3299
  387MOL0     C52171   2.577   1.779   9.630  0.0362  0.1178 -0.7898
  387MOL0     C52172   2.533   1.629   9.621  0.1922  0.1864 -0.1492
  387MOL0     C52173   2.539   1.577   9.486  0.4912 -0.3528 -1.1197
  387MOL0     C52174   2.534   1.543   9.367 -0.2983  0.6382  0.4052
  387MOL0     C52175   3.082   1.698   9.771 -0.7181 -1.4401 -0.4153
  387MOL0     C52176   3.197   1.669   9.842  0.1088 -0.4988  0.2553
  387MOL0     C52177   3.191   1.560   9.942 -0.0788 -0.5807 -0.0573
  387MOL0     H52178   3.744   1.806   9.711 -0.5547 -2.5544 -0.1357
  387MOL0     H52179   3.978   1.743   9.762 -0.2628 -1.1016 -0.4896
  387MOL0     H52180   4.056   1.650  10.212 -1.4732 -0.4531 -0.7613
  387MOL0     H52181   4.053   1.502  10.111  0.0502 -0.0322  0.9661
  387MOL0     H52182   4.273   1.542  10.036 -1.2162  2.3746 -1.7410
  387MOL0     H52183   4.261   1.506  10.213  0.1605 -1.7022 -0.5437
  387MOL0     H52184   4.278   1.769  10.236  0.1119  0.1726  0.6318
  387MOL0     H52185   4.347   1.753  10.072  0.7808 -0.3754 -0.1377
  387MOL0     H52186   4.450   1.601  10.321 -1.2276 -3.3579 -1.5173
  387MOL0     H52187   4.508   1.569  10.166  0.7604  1.1470 -0.6881
  387MOL0     H52188   4.564   1.810  10.118  1.2949 -0.7966  0.3830
  387MOL0     H52189   4.490   1.866  10.269 -3.2836  0.8948 -2.7611
  387MOL0     H52190   4.677   1.741  10.393 -1.1177  0.8344  0.1047
  387MOL0     H52191   4.710   1.640  10.257  1.6932  0.5940  1.0579
  387MOL0     H52192   4.805   1.841  10.140 -0.2687  1.5698 -0.2702
  387MOL0     H52193   4.880   1.804  10.305 -0.8432 -0.5635  0.8036
  387MOL0     H52194   4.877   2.033  10.258  2.0261 -1.2596  2.7391
  387MOL0     H52195   4.692   2.044  10.282 -0.9748 -1.4740  0.6307
  387MOL0     H52196   4.587   1.959  10.509 -1.2718  2.6899  2.7185
  387MOL0     H52197   4.751   1.973  10.849 -0.0870 -0.0122  0.0829
  387MOL0     H52198   4.589   2.007  10.798 -1.6499 -1.5089  1.0371
  387MOL0     H52199   4.713   1.742  10.847  0.8557  2.3336  0.8605
  387MOL0     H52200   4.558   1.792  10.899  1.3635  1.1232  1.6262
  387MOL0     H52201   4.564   1.608  10.721  2.6516  1.0276  2.6228
  387MOL0     H52202   4.617   1.716  10.603  0.0715  0.4272 -0.0630
  387MOL0     H52203   4.344   1.713  10.738  0.9790  0.6108  2.5746
  387MOL0     H52204   4.385   1.709  10.571 -2.1120  0.5654  0.0361
  387MOL0     H52205   4.392   2.139  10.613 -0.5711  0.5754 -0.5596
  387MOL0     H52206   4.201   2.272  10.489 -2.3127  0.1659 -2.2965
  387MOL0     H52207   3.992   1.991  10.090 -0.3493  0.0748  0.0352
  387MOL0     H52208   3.911   2.040   9.857 -0.5241  1.6732 -2.1004
  387MOL0     H52209   3.609   2.109   9.689 -1.6943 -1.0677  0.8677
  387MOL0     H52210   3.564   2.112   9.861 -1.3196 -0.4760 -0.6576
  387MOL0     H52211   3.523   2.373   9.794  1.2967  1.0055 -1.5706
  387MOL0     H52212   3.513   2.301   9.636  2.0210  1.4330  0.5166
  387MOL0     H52213   3.325   2.157   9.703 -2.0190  2.1210 -0.9006
  387MOL0     H52214   3.345   2.198   9.879 -1.1355  0.5177  0.5253
  387MOL0     H52215   3.280   2.424   9.691 -1.5741 -0.2607 -2.5838
  387MOL0     H52216   3.224   2.388   9.846 -1.3819  2.0767 -0.4287
  387MOL0     H52217   3.136   2.208   9.620  0.9739  0.3331  0.5281
  387MOL0     H52218   3.048   2.349   9.671  1.3108  1.0109 -0.0922
  387MOL0     H52219   3.118   2.111   9.848  0.0072  0.4941 -1.3250
  387MOL0     H52220   3.044   2.265   9.913  0.6114 -0.2877  1.1008
  387MOL0     H52221   2.911   2.093   9.707  0.6088  0.9082 -1.1711
  387MOL0     H52222   2.847   2.246   9.767  0.0312 -1.0042 -1.3145
  387MOL0     H52223   2.882   2.006   9.952 -3.5829 -0.9134  1.0417
  387MOL0     H52224   2.800   2.161   9.980 -0.4746  0.6435 -0.7355
  387MOL0     H52225   3.685   2.383  10.007  0.2297  0.0977 -1.2270
  387MOL0     H52226   3.742   2.308  10.236  2.4950  1.6314  0.0978
  387MOL0     H52227   4.006   1.903  10.421  0.6013  0.7309 -1.2532
  387MOL0     H52228   4.191   1.777  10.545 -1.8132  0.4596  1.7557
  387MOL0     H52229   3.867   1.691  10.172  3.0405 -1.9323 -0.9877
  387MOL0     H52230   3.639   1.766  10.123 -0.7697  0.1532  0.0268
  387MOL0     H52231   3.386   1.902   9.662 -1.7216  1.6894 -0.2081
  387MOL0     H52232   3.187   1.904   9.537 -1.3022  1.5551  0.5582
  387MOL0     H52233   2.831   1.789   9.756  1.6897  0.1665 -0.3306
  387MOL0     H52234   2.840   1.649   9.639  1.5533  0.3573 -0.7170
  387MOL0     H52235   2.716   1.766   9.467 -0.5093 -1.8121  0.2247
  387MOL0     H52236   2.722   1.916   9.565  1.4146 -0.1778  1.1922
  387MOL0     H52237   2.504   1.837   9.573 -0.4058 -1.3026 -1.7481
  387MOL0     H52238   2.577   1.804   9.736 -1.9677  0.3674 -0.8190
  387MOL0     H52239   2.599   1.569   9.684 -0.7156  0.7947  1.4312
  387MOL0     H52240   2.434   1.622   9.667  0.0887 -0.0989 -0.4073
  387MOL0     H52241   2.544   1.497   9.271 -0.0510  0.6016  0.4459
  387MOL0     H52242   2.993   1.647   9.807 -0.8948  0.5362  2.1606
  387MOL0     H52243   3.271   1.486   9.939 -1.2357 -1.8370 -0.6713
  387MOL0     H52244   3.192   1.597  10.045 -0.6208 -2.2360  0.5753
  387MOL0     H52245   3.099   1.501   9.932 -0.8894  0.8364 -1.5570
  388MOL0     O52246   1.873   1.647   9.734 -0.4621  0.2042 -1.3278
  388MOL0     C52247   1.880   1.523   9.754  0.0157  0.3613  0.1254
  388MOL0     O52248   1.973   1.461   9.830  0.0399  0.0670 -0.4914
  388MOL0     C52249   2.088   1.523   9.880 -0.6636 -0.3005 -0.2467
  388MOL0     C52250   2.163   1.620   9.810  0.5910 -0.5084 -0.4101
  388MOL0     C52251   2.266   1.696   9.871 -0.3105  1.5904  0.1885
  388MOL0     C52252   2.303   1.678  10.002  0.8056 -0.0530 -0.2957
  388MOL0     O52253   2.402   1.751  10.066  0.0478 -0.0437 -0.0500
  388MOL0     C52254   2.394   1.895  10.051 -0.2260  0.5875 -0.4871
  388MOL0     C52255   2.492   1.951  10.156 -0.3704 -0.0252 -0.3806
  388MOL0     C52256   2.455   1.920  10.302  0.1942  0.7494 -0.4664
  388MOL0     C52257   2.539   1.988  10.407 -0.0070  0.2111  0.3987
  388MOL0     C52258   2.531   1.924  10.547 -0.0151  0.6156  0.5758
  388MOL0     C52259   2.609   1.999  10.648  0.4442  0.4118 -0.3502
  388MOL0     C52260   2.646   1.904  10.759  0.0600 -0.1184  0.0827
  388MOL0     C52261   2.712   1.955  10.889 -0.0751 -0.0252  0.0915
  388MOL0     N52262   2.849   2.011  10.886 -0.0280 -0.3961 -0.3799
  388MOL0     C52263   2.965   1.926  10.886  0.0310 -1.1038 -0.3045
  388MOL0     C52264   3.052   2.002  10.817  0.2634  0.8553 -0.8103
  388MOL0     C52265   3.201   1.954  10.804  0.8608  0.0204 -0.2669
  388MOL0     C52266   3.220   1.895  10.657  0.0114  0.2504  0.0443
  388MOL0     C52267   3.353   1.827  10.640 -0.4313 -0.0854  0.3272
  388MOL0     C52268   3.354   1.714  10.533  0.5262 -0.0354 -0.1822
  388MOL0     O52269   3.473   1.690  10.456 -0.0031  0.1481  0.3482
  388MOL0     C52270   3.580   1.620  10.512  0.2456 -0.0136 -0.1210
  388MOL0     C52271   3.688   1.595  10.418 -0.1793  0.5066 -0.7665
  388MOL0     C52272   3.798   1.529  10.454  0.2493  0.0023 -0.4626
  388MOL0     C52273   3.811   1.485  10.585 -0.0218 -0.6494 -0.5857
  388MOL0     C52274   3.922   1.400  10.626 -0.7978  0.4852  0.1329
  388MOL0     O52275   4.034   1.396  10.541 -0.1732 -0.4328  0.3995
  388MOL0     C52276   4.160   1.331  10.578  0.3568  0.1859 -0.5326
  388MOL0     C52277   4.206   1.333  10.716 -0.2576 -0.8225  0.0778
  388MOL0     C52278   4.322   1.280  10.752 -0.1721  0.2661  0.1764
  388MOL0     C52279   4.402   1.221  10.650  0.3474  0.8754 -0.2402
  388MOL0     O52280   4.520   1.147  10.670  0.3695 -0.7989  0.0693
  388MOL0     C52281   4.568   1.134  10.802 -0.3526  0.8048 -0.1599
  388MOL0     C52282   4.694   1.038  10.807  0.0873 -0.2685  0.1653
  388MOL0     C52283   4.813   1.110  10.730  0.1595 -0.5628 -1.3062
  388MOL0     C52284   4.949   1.108  10.793 -0.6068 -0.8363 -0.4345
  388MOL0     C52285   5.062   1.158  10.690  0.3646 -0.1454 -0.5932
  388MOL0     C52286   5.187   1.198  10.770  0.4940  0.2807  0.2038
  388MOL0     C52287   5.261   1.078  10.844 -0.1563  0.9745  0.7383
  388MOL0     C52288   5.375   1.130  10.926 -0.3824 -0.7044  0.4128
  388MOL0    Cl52289   5.506   1.192  10.823 -0.0423  0.6228 -0.2397
  388MOL0     C52290   4.363   1.222  10.513 -0.1561 -0.2454  0.0630
  388MOL0     C52291   4.243   1.285  10.478  0.2515 -0.0187  0.6698
  388MOL0     O52292   3.913   1.342  10.740 -0.5778 -0.1104 -1.0516
  388MOL0     C52293   3.711   1.523  10.676 -0.6231  0.4744  0.8875
  388MOL0     C52294   3.597   1.582  10.639  0.0723  0.6046  1.2620
  388MOL0     N52295   3.003   2.125  10.781  0.5586 -0.2014  0.3579
  388MOL0     N52296   2.876   2.128  10.818  0.7425  0.3490 -0.3507
  388MOL0     C52297   2.224   1.584  10.074  0.4061 -0.1661  0.6625
  388MOL0     C52298   2.123   1.509  10.008  0.1370 -0.2386  0.3084
  388MOL0     C52299   1.760   1.440   9.703 -0.4589  0.6166  0.1102
  388MOL0     C52300   1.647   1.511   9.665  0.2156 -0.2213 -0.7960
  388MOL0     C52301   1.520   1.453   9.642 -0.8409 -0.5721  0.1404
  388MOL0     C52302   1.518   1.316   9.643  0.5916  0.4225 -0.2125
  388MOL0     O52303   1.397   1.254   9.620  0.3905  0.2281  0.5926
  388MOL0     C52304   1.382   1.180   9.491  0.3722  0.0737 -0.8726
  388MOL0     C52305   1.376   1.282   9.373  1.0090  0.7721 -0.0350
  388MOL0     C52306   1.362   1.206   9.238 -0.7077 -0.2195  0.5444
  388MOL0     C52307   1.231   1.127   9.224 -0.7941  0.2719  0.1949
  388MOL0     C52308   1.199   1.133   9.081 -0.6616 -0.2331 -0.0820
  388MOL0     C52309   1.184   1.141   8.960 -1.0412  0.3695  0.1797
  388MOL0     C52310   1.627   1.239   9.672 -0.6997  0.5102 -0.1432
  388MOL0     C52311   1.748   1.296   9.715 -0.0566  0.3702 -0.7271
  388MOL0     C52312   1.863   1.199   9.755 -0.0767  0.4168 -0.3959
  388MOL0     H52313   2.142   1.643   9.706  0.8788  1.8437 -0.0132
  388MOL0     H52314   2.312   1.770   9.806 -0.7545  0.1083 -1.9358
  388MOL0     H52315   2.411   1.923   9.946  1.3209  3.3455  0.3755
  388MOL0     H52316   2.289   1.920  10.069 -1.6348 -3.7710 -1.4694
  388MOL0     H52317   2.482   2.060  10.150 -0.2635  0.0270  0.3689
  388MOL0     H52318   2.593   1.912  10.148 -0.7395 -1.4123  1.2449
  388MOL0     H52319   2.462   1.812  10.320 -0.9304  0.6719 -0.4195
  388MOL0     H52320   2.350   1.943  10.325  0.1051 -0.6651  0.7371
  388MOL0     H52321   2.644   1.990  10.375  0.0582 -2.0191  0.3024
  388MOL0     H52322   2.496   2.088  10.412 -1.8282 -0.4941 -0.3840
  388MOL0     H52323   2.429   1.909  10.586  0.0089 -0.2829  0.3309
  388MOL0     H52324   2.579   1.826  10.536 -2.2625 -0.6273  1.0122
  388MOL0     H52325   2.704   2.036  10.609  0.6973  1.7026  1.3669
  388MOL0     H52326   2.549   2.079  10.691 -2.7321 -2.9250  2.0863
  388MOL0     H52327   2.712   1.829  10.714 -1.9926 -0.3284 -2.8840
  388MOL0     H52328   2.547   1.863  10.782 -0.7588  0.9114 -1.4533
  388MOL0     H52329   2.649   2.036  10.926  2.1832  1.9442 -0.1133
  388MOL0     H52330   2.715   1.878  10.966  1.6278  1.1404  1.2662
  388MOL0     H52331   2.974   1.838  10.948 -0.8610 -0.4895  0.7367
  388MOL0     H52332   3.257   2.047  10.816 -1.8544  1.8315 -0.7662
  388MOL0     H52333   3.234   1.889  10.886  0.3999 -0.7364 -0.6625
  388MOL0     H52334   3.146   1.816  10.639  0.9213 -0.9060  1.1918
  388MOL0     H52335   3.211   1.979  10.588  2.4048  1.2881  0.8997
  388MOL0     H52336   3.381   1.783  10.737  1.9350 -2.0267 -1.1174
  388MOL0     H52337   3.429   1.896  10.603 -1.3893  1.0284  0.3857
  388MOL0     H52338   3.280   1.742  10.456 -0.5689 -0.0064  0.8537
  388MOL0     H52339   3.326   1.622  10.584 -3.5758 -2.0836 -5.2200
  388MOL0     H52340   3.671   1.631  10.317 -0.7756 -1.2147 -1.3031
  388MOL0     H52341   3.868   1.506  10.374  1.2529  0.1177  0.3531
  388MOL0     H52342   4.148   1.383  10.793 -0.1173 -1.7508  0.7965
  388MOL0     H52343   4.351   1.286  10.856 -0.2710 -0.1116  0.2252
  388MOL0     H52344   4.599   1.231  10.842 -1.2081  2.0855 -2.4057
  388MOL0     H52345   4.494   1.090  10.870 -0.5097  0.1315 -0.7533
  388MOL0     H52346   4.717   1.013  10.911 -1.0407 -3.0583 -0.1487
  388MOL0     H52347   4.658   0.944  10.763 -2.4405 -0.2609  1.9596
  388MOL0     H52348   4.822   1.082  10.624 -0.6078 -1.3491 -1.1702
  388MOL0     H52349   4.781   1.214  10.714 -0.4050 -0.6331 -0.6524
  388MOL0     H52350   4.965   1.000  10.806  0.4000 -0.9699 -2.4199
  388MOL0     H52351   4.957   1.160  10.889 -0.4149 -0.7456 -0.4987
  388MOL0     H52352   5.019   1.245  10.641 -1.4192 -0.5986  0.0918
  388MOL0     H52353   5.088   1.078  10.620 -0.5156 -0.2080 -0.8534
  388MOL0     H52354   5.260   1.246  10.704 -0.3248  2.7812  0.9876
  388MOL0     H52355   5.164   1.268  10.851  2.1724  2.1015 -0.8052
  388MOL0     H52356   5.288   1.005  10.768 -2.5870  2.2080 -1.4718
  388MOL0     H52357   5.196   1.025  10.915 -2.6044 -0.1746 -2.1578
  388MOL0     H52358   5.339   1.208  10.995  0.8803  0.4210 -0.1540
  388MOL0     H52359   5.415   1.052  10.991 -0.5408  0.5052  2.0493
  388MOL0     H52360   4.419   1.175  10.433 -0.8013  1.3581 -1.3825
  388MOL0     H52361   4.221   1.278  10.372 -0.7592 -0.1406  0.8752
  388MOL0     H52362   3.721   1.484  10.777  1.4919 -0.4168  0.3865
  388MOL0     H52363   3.528   1.610  10.718  0.7654  0.4372  1.9274
  388MOL0     H52364   2.246   1.561  10.178  2.3695 -0.4618  0.2198
  388MOL0     H52365   2.058   1.446  10.068 -0.1840 -0.0258  0.1865
  388MOL0     H52366   1.651   1.618   9.648 -2.3081 -0.1816 -1.5064
  388MOL0     H52367   1.430   1.513   9.629 -1.5923 -1.4038  1.3250
  388MOL0     H52368   1.287   1.126   9.495 -1.2546  2.6293 -2.1824
  388MOL0     H52369   1.466   1.110   9.483  1.1154  1.0058 -1.6991
  388MOL0     H52370   1.470   1.338   9.378  1.3587  0.1553  0.6133
  388MOL0     H52371   1.289   1.348   9.380 -0.1221 -0.6964  0.2343
  388MOL0     H52372   1.443   1.134   9.223 -1.1018 -0.6426  0.4249
  388MOL0     H52373   1.371   1.277   9.155  2.2851 -0.8212  0.2650
  388MOL0     H52374   1.242   1.022   9.249 -0.3391 -0.0581 -1.2837
  388MOL0     H52375   1.149   1.177   9.277 -1.8731  0.3624 -1.4747
  388MOL0     H52376   1.173   1.141   8.854  1.4385  1.7390 -0.1750
  388MOL0     H52377   1.610   1.132   9.662  0.6403  0.3337 -0.5956
  388MOL0     H52378   1.925   1.239   9.835  1.0356 -0.1510 -0.9422
  388MOL0     H52379   1.828   1.099   9.779  1.9269 -0.0518  0.8083
  388MOL0     H52380   1.935   1.196   9.672  1.6438 -4.1206  0.9375
  389MOL0     O52381   6.700   1.836   9.576 -0.0126  0.1666 -0.4327
  389MOL0     C52382   6.656   1.746   9.507  0.2237  0.5148 -0.2756
  389MOL0     O52383   6.714   1.695   9.399 -0.4086 -0.1278  0.0058
  389MOL0     C52384   6.812   1.751   9.317  0.2176 -0.9086 -0.3032
  389MOL0     C52385   6.873   1.880   9.334 -0.4009  0.1595  0.8158
  389MOL0     C52386   6.973   1.920   9.235 -0.3763  1.0294 -0.6013
  389MOL0     C52387   7.012   1.832   9.135  0.3876  0.1624 -0.1228
  389MOL0     O52388   7.108   1.873   9.048  0.1466  0.3845  0.8242
  389MOL0     C52389   7.226   1.951   9.085  0.1429  0.4852 -0.7662
  389MOL0     C52390   7.303   2.023   8.970  0.3691  0.5100  0.2784
  389MOL0     C52391   7.441   2.070   9.008  0.3803 -0.4143  0.4309
  389MOL0     C52392   7.438   2.145   9.142 -0.3159 -0.5922  0.0521
  389MOL0     C52393   7.572   2.219   9.168  0.2648 -0.0855  0.3816
  389MOL0     C52394   7.576   2.308   9.289 -0.5625  0.3683  0.0513
  389MOL0     C52395   7.521   2.442   9.264  0.0663 -0.1129 -0.3894
  389MOL0     C52396   7.543   2.533   9.387  1.2983  0.2519 -0.3869
  389MOL0     N52397   7.686   2.569   9.393 -0.5350 -0.5159  0.5619
  389MOL0     C52398   7.797   2.513   9.461  0.2041  1.2235 -0.7197
  389MOL0     C52399   7.908   2.569   9.421 -0.1451 -0.3033 -0.4023
  389MOL0     C52400   8.037   2.551   9.500  0.4899 -0.1619  0.0225
  389MOL0     C52401   8.148   2.490   9.422 -1.2242 -1.0339  0.3627
  389MOL0     C52402   8.129   2.347   9.395 -0.1350  0.4544  0.2583
  389MOL0     C52403   8.251   2.280   9.334  0.4500 -0.6298 -0.3478
  389MOL0     O52404   8.274   2.322   9.199  0.5798 -0.5194  0.7717
  389MOL0     C52405   8.402   2.307   9.157 -0.1345  0.3302 -0.5983
  389MOL0     C52406   8.450   2.396   9.056  0.8762 -0.2786 -0.6761
  389MOL0     C52407   8.574   2.375   8.997 -0.0059 -0.2009 -0.1914
  389MOL0     C52408   8.658   2.266   9.035  0.4277  0.5651  0.4201
  389MOL0     C52409   8.791   2.237   8.972  0.8194 -0.4979 -0.3235
  389MOL0     O52410   8.856   2.129   9.029  0.2592 -0.2375  0.7319
  389MOL0     C52411   8.958   2.076   8.956 -1.1388  0.3559  0.1063
  389MOL0     C52412   9.084   2.058   9.018 -0.8616 -0.7281  0.5763
  389MOL0     C52413   9.187   1.995   8.951 -0.7799  0.6196  0.9012
  389MOL0     C52414   9.170   1.963   8.816 -0.0668 -0.0257  0.4274
  389MOL0     O52415   9.268   1.908   8.727  0.1705 -0.5814  0.0271
  389MOL0     C52416   9.389   1.858   8.779 -0.1780  0.2814  0.1119
  389MOL0     C52417   9.469   1.797   8.658  0.0366  0.4347  0.4020
  389MOL0     C52418   9.608   1.742   8.689  0.4840 -0.4863 -0.1947
  389MOL0     C52419   9.717   1.853   8.699  0.0466 -0.6883  0.3333
  389MOL0     C52420   9.762   1.883   8.549 -0.6427 -0.0428  0.5818
  389MOL0     C52421   9.769   2.032   8.499  0.3514  0.4967  0.3719
  389MOL0     C52422   9.832   2.038   8.357 -0.1306  0.1057  0.2436
  389MOL0     C52423   9.900   2.173   8.343 -0.7616 -0.7769  0.8707
  389MOL0    Cl52424  10.054   2.183   8.450  0.2252 -0.2036  0.0033
  389MOL0     C52425   9.049   1.968   8.758 -0.1354 -0.2962  0.2213
  389MOL0     C52426   8.942   2.028   8.821 -0.5148  0.6224  0.0599
  389MOL0     O52427   8.835   2.305   8.886 -0.3190  0.1765 -0.5356
  389MOL0     C52428   8.607   2.179   9.135  0.5729 -0.2726  0.7735
  389MOL0     C52429   8.479   2.196   9.186  0.1468 -0.3476 -0.1174
  389MOL0     N52430   7.881   2.661   9.323  0.2632 -0.7515 -0.2220
  389MOL0     N52431   7.744   2.662   9.313 -0.7158 -0.2540 -0.3294
  389MOL0     C52432   6.947   1.710   9.119  0.2613  0.0162  0.0394
  389MOL0     C52433   6.847   1.671   9.206 -0.5681 -0.3531 -0.1252
  389MOL0     C52434   6.530   1.682   9.562  0.0054 -0.5233 -0.5205
  389MOL0     C52435   6.515   1.552   9.526  0.0195 -0.3034  0.4872
  389MOL0     C52436   6.391   1.480   9.552  0.0795  0.6252  0.6083
  389MOL0     C52437   6.281   1.537   9.612 -0.4266  0.1662 -0.4166
  389MOL0     O52438   6.157   1.476   9.619 -0.8461 -0.1765  0.4496
  389MOL0     C52439   6.049   1.559   9.664  0.7055 -0.3008 -0.6620
  389MOL0     C52440   5.912   1.507   9.628  0.1299  0.0310  0.3307
  389MOL0     C52441   5.801   1.575   9.713 -0.2839 -0.8007 -0.4428
  389MOL0     C52442   5.770   1.512   9.848 -0.5072  0.0991  0.1428
  389MOL0     C52443   5.683   1.594   9.923  0.3275 -0.3707  0.2583
  389MOL0     C52444   5.613   1.665   9.988  0.1661  0.4523 -0.0760
  389MOL0     C52445   6.299   1.671   9.658 -0.4689  0.3476  0.3284
  389MOL0     C52446   6.423   1.740   9.635  0.0358 -1.0235  0.1279
  389MOL0     C52447   6.424   1.886   9.670 -0.2986  0.4425  0.0021
  389MOL0     H52448   6.855   1.954   9.411  3.7082  2.0140  0.2937
  389MOL0     H52449   7.007   2.023   9.239 -0.3634  0.9909  0.6796
  389MOL0     H52450   7.201   2.031   9.156 -0.0937  0.6449 -1.0309
  389MOL0     H52451   7.294   1.878   9.131  0.7417  1.2156 -0.4798
  389MOL0     H52452   7.243   2.110   8.944  0.6521  1.0169  1.2879
  389MOL0     H52453   7.302   1.953   8.885 -1.0512 -1.1043  1.5500
  389MOL0     H52454   7.463   2.138   8.925  1.9020  0.6482  1.6630
  389MOL0     H52455   7.515   1.990   9.009  0.1277 -0.6754 -0.4827
  389MOL0     H52456   7.369   2.229   9.139  1.7370  1.4023  2.9856
  389MOL0     H52457   7.425   2.087   9.233 -1.5871  0.8016  0.7854
  389MOL0     H52458   7.653   2.146   9.181  0.7326  0.2802 -0.4213
  389MOL0     H52459   7.587   2.281   9.079 -1.3746  0.9722  0.7912
  389MOL0     H52460   7.529   2.260   9.375 -1.0288  3.6361  1.8153
  389MOL0     H52461   7.680   2.333   9.312  0.2438 -2.2158 -0.5724
  389MOL0     H52462   7.413   2.427   9.250 -1.5327  4.2556  4.1025
  389MOL0     H52463   7.561   2.499   9.179  1.0816  1.5594  1.1412
  389MOL0     H52464   7.486   2.626   9.379  2.6191  1.4277  2.5331
  389MOL0     H52465   7.496   2.474   9.466 -3.2757 -0.6103 -3.3313
  389MOL0     H52466   7.792   2.438   9.539 -0.4712  1.0370 -0.9374
  389MOL0     H52467   8.064   2.655   9.519 -4.4154  0.7044  4.3784
  389MOL0     H52468   8.020   2.509   9.599  2.7758 -0.7341  0.2269
  389MOL0     H52469   8.164   2.545   9.329  0.2954 -2.5641 -0.3488
  389MOL0     H52470   8.237   2.510   9.482  0.0920  0.5429 -1.9541
  389MOL0     H52471   8.046   2.327   9.327 -0.0392  2.4106 -0.5070
  389MOL0     H52472   8.102   2.315   9.496  0.1895 -0.3482  0.0954
  389MOL0     H52473   8.230   2.174   9.318  1.9883 -0.4393 -5.1879
  389MOL0     H52474   8.328   2.296   9.411 -2.9312  1.6042  2.9206
  389MOL0     H52475   8.383   2.479   9.034  1.6505  1.0451  1.5845
  389MOL0     H52476   8.617   2.443   8.924 -1.3957 -0.6327 -1.4458
  389MOL0     H52477   9.109   2.082   9.121 -0.0182  0.0539  0.1957
  389MOL0     H52478   9.280   1.987   9.006 -0.8407  1.2028  1.0877
  389MOL0     H52479   9.444   1.947   8.814 -2.3110  2.7916 -2.4104
  389MOL0     H52480   9.380   1.782   8.856 -0.3322  1.4399  1.2779
  389MOL0     H52481   9.404   1.717   8.620  1.0754 -0.1553 -0.1624
  389MOL0     H52482   9.473   1.870   8.577 -3.2833  0.1178 -0.1933
  389MOL0     H52483   9.604   1.684   8.782 -0.2355 -0.2298 -0.0520
  389MOL0     H52484   9.639   1.676   8.608  1.4515 -0.6673  0.3110
  389MOL0     H52485   9.799   1.810   8.757  0.3570 -1.8193 -0.8970
  389MOL0     H52486   9.676   1.942   8.747 -0.8363 -0.0004 -1.5980
  389MOL0     H52487   9.695   1.835   8.477  2.8880 -1.1066 -2.2695
  389MOL0     H52488   9.862   1.841   8.537  0.2912  1.6784  1.7893
  389MOL0     H52489   9.668   2.073   8.499  0.9753  2.3391 -2.4728
  389MOL0     H52490   9.836   2.079   8.572  2.4504 -3.1078  1.0330
  389MOL0     H52491   9.746   2.044   8.290  0.3724 -1.9268 -0.6671
  389MOL0     H52492   9.898   1.956   8.327 -0.7945 -0.0972 -0.6981
  389MOL0     H52493   9.929   2.189   8.238 -0.6698  0.3681  1.0557
  389MOL0     H52494   9.821   2.245   8.369 -1.2692 -1.1313  0.3443
  389MOL0     H52495   9.045   1.935   8.655  1.5164  0.9154 -0.2828
  389MOL0     H52496   8.846   2.030   8.770 -1.0054  1.0237  0.9664
  389MOL0     H52497   8.664   2.092   9.163  1.4705  0.1375  0.2642
  389MOL0     H52498   8.439   2.114   9.246 -0.4053 -2.3225 -2.9798
  389MOL0     H52499   6.961   1.652   9.028  2.5957 -1.4560  1.2280
  389MOL0     H52500   6.792   1.582   9.179  0.6634 -1.1554 -0.0871
  389MOL0     H52501   6.594   1.495   9.480 -1.1480 -1.9713  0.4729
  389MOL0     H52502   6.373   1.382   9.507 -1.5473  0.4820  1.4851
  389MOL0     H52503   6.042   1.660   9.622 -1.0674 -0.4381 -0.7670
  389MOL0     H52504   6.056   1.565   9.773 -0.9385  1.6910 -0.6100
  389MOL0     H52505   5.898   1.399   9.634  1.9296 -0.3597 -1.3827
  389MOL0     H52506   5.894   1.530   9.523  3.4237 -1.4470 -0.6887
  389MOL0     H52507   5.707   1.567   9.658 -0.3138 -1.6866 -0.2700
  389MOL0     H52508   5.832   1.678   9.736  2.2547 -1.8283  1.2767
  389MOL0     H52509   5.735   1.409   9.840  2.5642 -1.1213  0.7600
  389MOL0     H52510   5.859   1.495   9.910 -0.0984 -2.2869 -0.9739
  389MOL0     H52511   5.559   1.728  10.055 -0.9977 -2.0590  1.5109
  389MOL0     H52512   6.234   1.727   9.725  0.8641  2.4746 -0.0373
  389MOL0     H52513   6.331   1.905   9.725 -2.1861 -1.1576 -2.4202
  389MOL0     H52514   6.507   1.911   9.737  0.4801  0.9973 -1.1433
  389MOL0     H52515   6.431   1.950   9.581 -0.7272 -1.9727 -1.8717
  390MOL0     O52516   4.646   3.835   4.850 -0.4801  0.9435 -0.3270
  390MOL0     C52517   4.631   3.720   4.895  0.4404  0.0349 -0.6378
  390MOL0     O52518   4.731   3.630   4.932  0.6469 -0.4835  0.2161
  390MOL0     C52519   4.862   3.672   4.931  0.2568 -0.2154  0.0721
  390MOL0     C52520   4.934   3.741   4.836  0.9523 -0.7576 -0.5213
  390MOL0     C52521   5.068   3.770   4.851  0.1031  0.0745  0.1109
  390MOL0     C52522   5.125   3.748   4.973 -0.6726  0.0697 -0.4100
  390MOL0     O52523   5.260   3.771   4.981  0.1431 -0.7134  0.4273
  390MOL0     C52524   5.343   3.770   4.864 -0.4270  0.4394  0.3359
  390MOL0     C52525   5.492   3.751   4.895 -0.5036 -0.0443 -0.0846
  390MOL0     C52526   5.567   3.709   4.759  0.1154 -0.4446 -0.0183
  390MOL0     C52527   5.700   3.654   4.799  0.2630  0.6413  0.0472
  390MOL0     C52528   5.777   3.592   4.687 -0.6342 -0.0716  0.6131
  390MOL0     C52529   5.927   3.599   4.715 -0.0792 -0.1126 -0.3434
  390MOL0     C52530   6.020   3.542   4.613  0.1969 -0.4753  0.3150
  390MOL0     C52531   6.171   3.567   4.632  1.1679  0.3737 -0.2479
  390MOL0     N52532   6.240   3.465   4.552  0.1531  0.1887 -0.3614
  390MOL0     C52533   6.297   3.338   4.584  0.3733  0.2868 -0.1737
  390MOL0     C52534   6.327   3.290   4.461 -0.7718  0.2555  0.3896
  390MOL0     C52535   6.398   3.155   4.455  0.2418 -0.8318  0.1121
  390MOL0     C52536   6.549   3.163   4.480  0.6621 -0.5778  0.9518
  390MOL0     C52537   6.595   3.019   4.476 -0.7076  0.0993 -0.3212
  390MOL0     C52538   6.748   3.018   4.502 -0.1600  0.1848 -0.0818
  390MOL0     O52539   6.810   2.887   4.521 -0.2384 -0.1232 -0.0373
  390MOL0     C52540   6.941   2.864   4.493 -0.0811 -0.8578 -0.5660
  390MOL0     C52541   6.991   2.735   4.462 -0.5904  0.1256  0.2545
  390MOL0     C52542   7.131   2.718   4.452 -0.4074 -0.7130 -0.4634
  390MOL0     C52543   7.224   2.826   4.452 -0.5573 -0.0640  0.3764
  390MOL0     C52544   7.374   2.798   4.430  0.0535  0.4217 -0.7410
  390MOL0     O52545   7.467   2.903   4.443 -0.5144 -1.1576 -1.0511
  390MOL0     C52546   7.594   2.868   4.396 -0.1580  0.8598 -0.1241
  390MOL0     C52547   7.633   2.923   4.275  0.2468  0.2423 -0.6310
  390MOL0     C52548   7.766   2.912   4.236  0.1325 -0.4172  0.6404
  390MOL0     C52549   7.866   2.851   4.307  0.6002  0.1219  0.1945
  390MOL0     O52550   7.992   2.864   4.260 -0.0791 -0.3201 -0.2930
  390MOL0     C52551   8.101   2.796   4.324 -0.3406 -0.0935  0.6597
  390MOL0     C52552   8.222   2.762   4.234  0.1498 -0.4681 -0.2614
  390MOL0     C52553   8.300   2.643   4.290  0.4823  0.1835 -0.2540
  390MOL0     C52554   8.435   2.601   4.224  0.7057 -0.0145 -0.1401
  390MOL0     C52555   8.423   2.513   4.099 -0.6280  0.0554 -0.0500
  390MOL0     C52556   8.556   2.441   4.055  0.8174 -0.7100 -0.4295
  390MOL0     C52557   8.528   2.325   3.961  0.8770 -0.9121  0.5718
  390MOL0     C52558   8.636   2.288   3.870  0.0196  0.3663  0.2299
  390MOL0    Cl52559   8.762   2.218   3.960 -0.2298  0.2880 -0.2820
  390MOL0     C52560   7.827   2.808   4.436 -0.2498 -0.7169  0.5274
  390MOL0     C52561   7.695   2.807   4.479 -0.3556 -0.4358 -0.8634
  390MOL0     O52562   7.405   2.684   4.400  0.3948  0.4216 -0.3109
  390MOL0     C52563   7.178   2.953   4.470 -0.8557  0.2228  0.0570
  390MOL0     C52564   7.041   2.969   4.500  0.2093 -0.3869 -0.1627
  390MOL0     N52565   6.301   3.373   4.360  0.0464  0.3172  0.6535
  390MOL0     N52566   6.248   3.474   4.413 -0.3098 -0.0984 -0.2082
  390MOL0     C52567   5.056   3.686   5.077  0.6443 -0.4075 -1.0726
  390MOL0     C52568   4.920   3.649   5.054 -0.8599 -0.6327  0.2234
  390MOL0     C52569   4.488   3.664   4.893  0.0501  0.0211  0.2834
  390MOL0     C52570   4.467   3.528   4.883  0.1856  0.7404 -0.1270
  390MOL0     C52571   4.335   3.473   4.883 -0.5007  0.5479  0.0634
  390MOL0     C52572   4.223   3.555   4.892  1.1640 -0.0465 -0.2669
  390MOL0     O52573   4.096   3.502   4.892  0.3819  0.2730 -0.2946
  390MOL0     C52574   4.073   3.368   4.832 -0.2536  0.9591  0.6425
  390MOL0     C52575   3.931   3.359   4.784  1.1891 -0.4378 -0.3175
  390MOL0     C52576   3.911   3.226   4.711  0.8874  0.2247  0.4953
  390MOL0     C52577   3.896   3.109   4.811 -0.3708 -0.1447  0.1163
  390MOL0     C52578   3.849   2.997   4.731  0.5662  0.2001  0.6516
  390MOL0     C52579   3.827   2.896   4.665 -0.8508 -0.0793  0.2666
  390MOL0     C52580   4.249   3.691   4.912  0.4137  0.0107 -0.0304
  390MOL0     C52581   4.377   3.746   4.913 -1.0859  0.9514 -0.5053
  390MOL0     C52582   4.387   3.894   4.940  0.1009 -0.3670 -0.6302
  390MOL0     H52583   4.870   3.788   4.762 -2.9015 -0.5411  2.6217
  390MOL0     H52584   5.115   3.827   4.771 -0.9296 -1.4735 -1.6787
  390MOL0     H52585   5.322   3.686   4.796 -1.2536  2.5397 -2.1641
  390MOL0     H52586   5.334   3.855   4.796  0.0357 -1.1751 -1.8594
  390MOL0     H52587   5.487   3.669   4.967 -3.6078 -0.1234 -0.2354
  390MOL0     H52588   5.527   3.844   4.939 -3.0329  0.5495  0.8322
  390MOL0     H52589   5.572   3.797   4.694  2.1924  2.0247  3.1767
  390MOL0     H52590   5.509   3.640   4.697  1.4963  1.3673 -3.6811
  390MOL0     H52591   5.758   3.736   4.844  0.8908 -0.9508  2.3352
  390MOL0     H52592   5.682   3.584   4.881  0.4461  1.4686  0.8089
  390MOL0     H52593   5.761   3.484   4.688  2.4782 -0.6381  0.9810
  390MOL0     H52594   5.749   3.629   4.588  1.1891 -0.7707 -0.2174
  390MOL0     H52595   5.951   3.705   4.727 -2.4350  0.4195  0.1732
  390MOL0     H52596   5.951   3.543   4.807 -0.3299 -0.3390 -0.4137
  390MOL0     H52597   5.983   3.562   4.512 -1.8768  1.4507  1.3502
  390MOL0     H52598   6.006   3.435   4.630  1.7364 -0.6315  0.7914
  390MOL0     H52599   6.191   3.672   4.607 -0.4188  1.1239  1.4071
  390MOL0     H52600   6.200   3.561   4.737 -0.2171  1.3420  0.2242
  390MOL0     H52601   6.315   3.289   4.679  1.2995 -0.8198 -0.8912
  390MOL0     H52602   6.346   3.086   4.522  2.0108 -2.6604 -0.3101
  390MOL0     H52603   6.388   3.112   4.355 -0.0132 -0.5455  0.0129
  390MOL0     H52604   6.595   3.218   4.398 -1.1058 -0.8754 -0.2931
  390MOL0     H52605   6.574   3.213   4.575 -2.9873  1.3368  1.0836
  390MOL0     H52606   6.574   2.974   4.378 -0.5125 -2.4078  0.7297
  390MOL0     H52607   6.545   2.962   4.554  0.1097  1.4301  1.2340
  390MOL0     H52608   6.771   3.085   4.586  0.1836  1.5165 -1.2033
  390MOL0     H52609   6.788   3.053   4.407 -0.1876  1.8945  0.5026
  390MOL0     H52610   6.927   2.648   4.468  0.5093 -0.7035  0.2279
  390MOL0     H52611   7.169   2.618   4.430  0.3690 -0.8885  1.4556
  390MOL0     H52612   7.562   2.991   4.228 -1.9051  0.1398  2.1794
  390MOL0     H52613   7.798   2.960   4.144 -2.8594 -1.5954 -1.1665
  390MOL0     H52614   8.126   2.866   4.403  2.3127  1.7060 -1.5969
  390MOL0     H52615   8.061   2.706   4.373 -1.1436 -0.6159 -0.8859
  390MOL0     H52616   8.181   2.744   4.134 -1.4379 -0.4640  0.3689
  390MOL0     H52617   8.279   2.855   4.223 -0.0934 -0.5220 -2.4635
  390MOL0     H52618   8.321   2.681   4.390  1.3938  0.1307 -0.4115
  390MOL0     H52619   8.241   2.551   4.296  1.3847 -0.5369 -1.7259
  390MOL0     H52620   8.502   2.557   4.299 -0.5459 -3.3222 -0.7858
  390MOL0     H52621   8.486   2.694   4.198  1.1135  0.7029  2.8613
  390MOL0     H52622   8.387   2.576   4.018 -1.8832 -0.2561  0.2377
  390MOL0     H52623   8.353   2.430   4.112  1.0722 -1.7142 -1.4840
  390MOL0     H52624   8.632   2.507   4.013  0.5003 -1.5281 -2.3981
  390MOL0     H52625   8.594   2.404   4.151  0.1322 -0.8132 -0.1904
  390MOL0     H52626   8.449   2.361   3.895 -0.1645 -1.6173  1.3948
  390MOL0     H52627   8.487   2.243   4.021 -0.1312  0.4025  1.7468
  390MOL0     H52628   8.596   2.216   3.799  0.3860  0.3755  0.0065
  390MOL0     H52629   8.672   2.376   3.815  1.0853  0.4880  1.0850
  390MOL0     H52630   7.899   2.780   4.511 -0.5384  0.3727  1.2290
  390MOL0     H52631   7.668   2.767   4.576 -1.2805 -3.1943 -2.1405
  390MOL0     H52632   7.237   3.044   4.469  0.2654 -0.4933 -0.6718
  390MOL0     H52633   7.018   3.072   4.526 -0.3513 -0.4718 -0.3119
  390MOL0     H52634   5.096   3.667   5.176  1.8056  0.6030 -1.3318
  390MOL0     H52635   4.868   3.609   5.140  0.5070 -1.0693  0.8827
  390MOL0     H52636   4.545   3.452   4.878 -1.1330 -0.8142  1.3936
  390MOL0     H52637   4.330   3.366   4.869  0.4928  0.5389 -0.2948
  390MOL0     H52638   4.092   3.289   4.905 -1.4563  1.7679  1.8848
  390MOL0     H52639   4.140   3.351   4.747 -0.3211 -0.5671  0.8818
  390MOL0     H52640   3.909   3.439   4.714  1.4359  1.8048  2.0113
  390MOL0     H52641   3.861   3.375   4.867  1.1299  0.9190 -0.6202
  390MOL0     H52642   3.995   3.219   4.642 -0.3225  2.2281 -1.3373
  390MOL0     H52643   3.821   3.233   4.648  1.0812 -1.5882 -0.0380
  390MOL0     H52644   3.987   3.085   4.868  0.9000 -0.7488 -2.0393
  390MOL0     H52645   3.823   3.133   4.889 -4.5453 -1.8209 -2.9171
  390MOL0     H52646   3.809   2.799   4.622  1.1037  0.3035 -1.5880
  390MOL0     H52647   4.173   3.764   4.935 -0.6473 -0.6056 -1.4150
  390MOL0     H52648   4.396   3.957   4.851 -0.6762  1.5636  0.5997
  390MOL0     H52649   4.298   3.925   4.996  0.4141 -1.7345  0.7041
  390MOL0     H52650   4.469   3.900   5.012  0.3381 -0.6067 -0.8781
  391MOL0     O52651   5.744   8.581   3.345 -0.2647 -0.1742 -0.1859
  391MOL0     C52652   5.672   8.480   3.355  0.2508  0.8178 -0.4095
  391MOL0     O52653   5.709   8.354   3.346 -0.3069  0.2990 -0.8532
  391MOL0     C52654   5.843   8.323   3.346 -0.0895  1.5112 -0.9820
  391MOL0     C52655   5.880   8.220   3.435 -0.2145  0.0861 -0.1886
  391MOL0     C52656   6.015   8.193   3.453  0.0487 -0.5938 -0.2300
  391MOL0     C52657   6.106   8.260   3.379  0.3484 -0.2445  0.2723
  391MOL0     O52658   6.232   8.236   3.423  0.4645 -0.3913  0.1643
  391MOL0     C52659   6.315   8.346   3.421  0.4692 -0.3388 -0.3061
  391MOL0     C52660   6.440   8.304   3.494  0.4997 -0.5936 -0.6290
  391MOL0     C52661   6.493   8.173   3.435 -0.3632  0.2260 -0.0587
  391MOL0     C52662   6.628   8.128   3.498 -0.2641  0.1744  0.3445
  391MOL0     C52663   6.690   8.000   3.440 -0.3041 -0.5720 -0.6545
  391MOL0     C52664   6.774   8.019   3.313 -0.7236 -0.3875 -0.1680
  391MOL0     C52665   6.816   7.884   3.248  0.8288 -1.1566 -0.1086
  391MOL0     C52666   6.880   7.910   3.103  0.6543 -0.0734  1.3317
  391MOL0     N52667   7.000   7.999   3.107 -0.2955  0.5820 -0.3956
  391MOL0     C52668   7.109   7.983   3.193  0.0079 -0.2291  0.3687
  391MOL0     C52669   7.203   8.079   3.156  0.7612  0.1335  0.2560
  391MOL0     C52670   7.332   8.130   3.225 -0.5270  0.0532 -0.0674
  391MOL0     C52671   7.418   8.013   3.262 -0.1079  0.5050 -0.3938
  391MOL0     C52672   7.552   8.048   3.328 -0.9257 -0.0193 -0.3636
  391MOL0     C52673   7.640   7.923   3.334 -0.1569 -0.4214  0.5127
  391MOL0     O52674   7.742   7.947   3.432  0.2655 -0.5648 -0.0520
  391MOL0     C52675   7.865   7.986   3.397 -0.2470  0.1280  0.4093
  391MOL0     C52676   7.965   7.977   3.494 -0.3566 -0.2655 -0.2846
  391MOL0     C52677   8.092   8.016   3.472  0.2580 -0.6691  0.0061
  391MOL0     C52678   8.128   8.067   3.344 -0.4194 -0.3135  1.0637
  391MOL0     C52679   8.266   8.118   3.316  0.8004  0.1820  0.5249
  391MOL0     O52680   8.267   8.243   3.261  0.3387 -0.4962  0.0153
  391MOL0     C52681   8.385   8.318   3.251  0.7127 -0.6688  0.1993
  391MOL0     C52682   8.519   8.281   3.248  0.1420  0.4972 -0.2870
  391MOL0     C52683   8.621   8.371   3.227  0.5524 -0.4791 -1.2849
  391MOL0     C52684   8.597   8.505   3.213  0.1835  0.0519 -0.6937
  391MOL0     O52685   8.683   8.607   3.186  0.9546 -0.6245 -0.3858
  391MOL0     C52686   8.820   8.576   3.216  0.5274 -0.0608  0.5407
  391MOL0     C52687   8.843   8.604   3.358 -0.3475 -0.9602 -0.6658
  391MOL0     C52688   8.999   8.611   3.386 -0.1359  0.3246  0.1709
  391MOL0     C52689   9.080   8.483   3.361 -0.3148  0.3351  0.4419
  391MOL0     C52690   9.220   8.513   3.417  0.0550 -0.4172  0.3466
  391MOL0     C52691   9.217   8.496   3.565  0.2914 -0.7340 -0.0432
  391MOL0     C52692   9.340   8.552   3.634 -0.1898 -0.8508 -0.2543
  391MOL0     C52693   9.458   8.477   3.588  0.1503  0.8294  0.5849
  391MOL0    Cl52694   9.582   8.472   3.709  0.1634  0.1502  0.6038
  391MOL0     C52695   8.470   8.550   3.211  1.1862  0.2148  0.8833
  391MOL0     C52696   8.365   8.456   3.226  0.0259  0.6567  0.1130
  391MOL0     O52697   8.358   8.047   3.351 -1.0034  0.5176 -0.2067
  391MOL0     C52698   8.031   8.074   3.245  0.3108  0.1064 -0.1616
  391MOL0     C52699   7.895   8.037   3.270 -0.4668  1.0562 -0.1142
  391MOL0     N52700   7.153   8.152   3.049 -0.0327 -0.2355  0.1820
  391MOL0     N52701   7.036   8.101   3.024  0.2489 -0.1510  0.0944
  391MOL0     C52702   6.076   8.351   3.278  0.2839 -0.2686  0.4245
  391MOL0     C52703   5.942   8.388   3.271 -0.2845  0.0021 -0.6309
  391MOL0     C52704   5.531   8.503   3.406 -0.3535  0.6768  0.6397
  391MOL0     C52705   5.471   8.402   3.487  0.5215 -0.0252 -0.3580
  391MOL0     C52706   5.338   8.401   3.533  1.2563 -0.1021 -0.0741
  391MOL0     C52707   5.258   8.508   3.506 -0.1124 -0.5300  0.0107
  391MOL0     O52708   5.121   8.503   3.546 -0.7292  0.4645  0.5964
  391MOL0     C52709   5.021   8.573   3.473 -0.7980  0.0660 -0.5700
  391MOL0     C52710   4.889   8.500   3.493  0.1631 -0.4542  0.7302
  391MOL0     C52711   4.874   8.378   3.400 -0.1534  0.0463 -0.4463
  391MOL0     C52712   4.727   8.356   3.364 -0.2547 -0.7395  0.1209
  391MOL0     C52713   4.710   8.240   3.276 -0.4585 -0.5625 -0.4743
  391MOL0     C52714   4.688   8.160   3.190  0.0184  0.5620 -0.3723
  391MOL0     C52715   5.315   8.623   3.440  0.1197  0.1343 -0.5571
  391MOL0     C52716   5.452   8.619   3.391  0.6185  0.3415  0.5064
  391MOL0     C52717   5.499   8.737   3.322 -0.1776 -0.2413 -0.1656
  391MOL0     H52718   5.796   8.189   3.496 -3.3746  1.8620 -3.2674
  391MOL0     H52719   6.050   8.118   3.524  2.2812 -0.7771 -1.4335
  391MOL0     H52720   6.341   8.376   3.319 -1.2369  3.6692  0.2529
  391MOL0     H52721   6.264   8.425   3.476 -0.0833  0.1445 -1.4772
  391MOL0     H52722   6.418   8.300   3.601  1.2316  2.6077 -0.2751
  391MOL0     H52723   6.505   8.389   3.474  0.0780 -0.4771 -1.5645
  391MOL0     H52724   6.505   8.183   3.327  0.4121 -0.9745 -0.1067
  391MOL0     H52725   6.421   8.092   3.452 -1.2507  0.5311 -2.1253
  391MOL0     H52726   6.701   8.210   3.493 -0.7625  0.5765 -0.5032
  391MOL0     H52727   6.605   8.114   3.604 -1.9164  0.6117  0.0802
  391MOL0     H52728   6.770   7.959   3.501 -0.0054 -0.2788 -0.8464
  391MOL0     H52729   6.612   7.924   3.430 -2.4926  1.1193  1.9023
  391MOL0     H52730   6.710   8.067   3.238 -0.3039 -1.3949 -1.1984
  391MOL0     H52731   6.856   8.088   3.335  0.0941 -1.3121 -0.2554
  391MOL0     H52732   6.730   7.816   3.241  1.8990 -2.6563  0.7055
  391MOL0     H52733   6.890   7.828   3.306  0.0448 -1.1660  0.9128
  391MOL0     H52734   6.913   7.816   3.059  0.7082  0.0027  1.2097
  391MOL0     H52735   6.807   7.956   3.036 -0.1531  0.2543  2.4062
  391MOL0     H52736   7.105   7.915   3.277  2.4615 -1.5721 -0.5167
  391MOL0     H52737   7.396   8.191   3.160  4.9758 -2.5037  2.2740
  391MOL0     H52738   7.300   8.188   3.312 -2.7827 -1.3706  0.1369
  391MOL0     H52739   7.366   7.940   3.324 -0.2440  1.2837  0.4339
  391MOL0     H52740   7.444   7.970   3.165 -1.5019  1.6183 -1.3011
  391MOL0     H52741   7.544   8.096   3.426 -0.3873 -0.2431 -0.2063
  391MOL0     H52742   7.612   8.117   3.267  1.4955 -1.7350 -0.0295
  391MOL0     H52743   7.689   7.890   3.242  3.1491 -1.4726  2.5106
  391MOL0     H52744   7.574   7.845   3.373 -1.8347 -0.2560 -1.7621
  391MOL0     H52745   7.935   7.941   3.591  2.0641 -1.4581  0.0845
  391MOL0     H52746   8.167   8.013   3.550  1.1828 -0.7389 -0.8633
  391MOL0     H52747   8.548   8.180   3.275 -2.0216 -0.4818 -1.3882
  391MOL0     H52748   8.721   8.330   3.232  0.3407 -0.8925  0.1607
  391MOL0     H52749   8.859   8.478   3.186  0.8450  0.7844 -2.1013
  391MOL0     H52750   8.888   8.651   3.174  0.3095 -0.0261  0.2495
  391MOL0     H52751   8.795   8.699   3.385  1.0706 -1.1093  2.8171
  391MOL0     H52752   8.794   8.531   3.422 -2.3306  1.2545  0.5333
  391MOL0     H52753   9.050   8.692   3.333  1.5073  0.8085  2.3554
  391MOL0     H52754   9.010   8.641   3.490  0.1795 -1.4351  0.6620
  391MOL0     H52755   9.086   8.461   3.254 -2.9830 -3.2288  0.8424
  391MOL0     H52756   9.032   8.401   3.415  0.2857 -0.8787 -0.8126
  391MOL0     H52757   9.258   8.612   3.390  1.5392 -0.0584  3.3802
  391MOL0     H52758   9.288   8.435   3.381 -0.4515 -1.0211  0.6777
  391MOL0     H52759   9.133   8.547   3.613 -0.3179 -0.9813 -0.8231
  391MOL0     H52760   9.192   8.391   3.584 -0.5283 -0.0438  3.3961
  391MOL0     H52761   9.331   8.541   3.743 -0.4347 -1.6742 -0.3561
  391MOL0     H52762   9.350   8.661   3.627  0.4560 -0.8192  0.8889
  391MOL0     H52763   9.420   8.377   3.568 -2.7171  2.0687 -0.6966
  391MOL0     H52764   9.503   8.510   3.493  0.6561 -1.6213 -0.0910
  391MOL0     H52765   8.443   8.654   3.201  0.2579 -0.1824 -1.3127
  391MOL0     H52766   8.263   8.489   3.208 -0.0653 -0.3581 -1.4346
  391MOL0     H52767   8.055   8.125   3.152 -1.0826  2.1797  0.5457
  391MOL0     H52768   7.815   8.053   3.198 -0.6524  0.7954  0.0321
  391MOL0     H52769   6.151   8.401   3.219 -0.6076  0.1437 -0.3965
  391MOL0     H52770   5.911   8.469   3.205  2.3265  0.9855 -0.7683
  391MOL0     H52771   5.521   8.312   3.519 -0.3527  0.6673  3.4555
  391MOL0     H52772   5.304   8.315   3.590 -0.0963 -1.0108 -2.1335
  391MOL0     H52773   5.035   8.571   3.365 -4.0878  0.3068 -1.1215
  391MOL0     H52774   5.009   8.672   3.518 -3.0959  0.1621 -1.2838
  391MOL0     H52775   4.810   8.568   3.462  1.7432  0.7148 -0.9759
  391MOL0     H52776   4.868   8.473   3.597 -2.1363  2.1059  1.0305
  391MOL0     H52777   4.917   8.288   3.446 -0.4215 -1.5930 -3.1994
  391MOL0     H52778   4.943   8.387   3.316 -1.1273  0.8324 -1.1884
  391MOL0     H52779   4.668   8.349   3.456  1.5420  0.7544  1.4645
  391MOL0     H52780   4.697   8.446   3.309  1.5143 -0.1866 -0.0110
  391MOL0     H52781   4.645   8.092   3.121 -0.4356  2.1692 -1.7351
  391MOL0     H52782   5.246   8.701   3.411  0.7676  0.5326 -1.0564
  391MOL0     H52783   5.595   8.772   3.360 -1.1224  1.9215  0.3990
  391MOL0     H52784   5.510   8.723   3.214 -0.2926  0.7802 -0.3203
  391MOL0     H52785   5.427   8.816   3.348  0.9928  0.1688  2.1084
  392MOL0     O52786   3.291  10.288  10.913 -0.0283  0.0070  0.7459
  392MOL0     C52787   3.225  10.212  10.839  0.7264 -0.3908  0.6367
  392MOL0     O52788   3.277  10.126  10.750 -0.5015 -0.1964  0.2936
  392MOL0     C52789   3.414  10.112  10.764  0.1361 -0.3888 -0.4140
  392MOL0     C52790   3.463  10.017  10.848 -0.6121 -1.0628  0.0796
  392MOL0     C52791   3.602  10.013  10.864  0.2225  0.9911 -0.2736
  392MOL0     C52792   3.693  10.086  10.791  0.4161 -0.0283  0.8424
  392MOL0     O52793   3.825  10.064  10.818 -0.1889 -0.6337  0.0565
  392MOL0     C52794   3.935  10.149  10.790  1.0652  0.4542 -0.4867
  392MOL0     C52795   4.012  10.141  10.922  0.0130 -0.3501  0.0608
  392MOL0     C52796   4.153  10.201  10.910 -0.4572  0.5981 -0.2433
  392MOL0     C52797   4.241  10.114  10.816 -0.0123  0.2986 -0.0048
  392MOL0     C52798   4.395  10.144  10.835  0.1720 -0.3881 -0.1430
  392MOL0     C52799   4.469  10.052  10.747 -0.1541  0.6618  1.4809
  392MOL0     C52800   4.621  10.062  10.769 -0.5081 -0.1838 -0.0738
  392MOL0     C52801   4.707   9.977  10.671 -0.3813  0.6149 -0.0628
  392MOL0     N52802   4.846   9.977  10.711  0.6058  0.1103  0.2417
  392MOL0     C52803   4.934   9.878  10.671 -0.6906  0.2366  0.4152
  392MOL0     C52804   5.057   9.927  10.706  0.3265  0.2807  0.5086
  392MOL0     C52805   5.195   9.888  10.673 -0.2216  0.2126  1.6408
  392MOL0     C52806   5.265   9.859  10.802 -0.3137 -0.0557 -0.2167
  392MOL0     C52807   5.419   9.891  10.777 -0.3059 -0.4680 -0.7837
  392MOL0     C52808   5.500   9.871  10.913  0.4269 -0.3749  1.0512
  392MOL0     O52809   5.631   9.852  10.862  0.6784 -0.5852  0.9658
  392MOL0     C52810   5.724   9.960  10.874 -0.3835  0.2718 -0.2233
  392MOL0     C52811   5.714  10.082  10.929  0.2825 -0.1341 -0.4156
  392MOL0     C52812   5.825  10.168  10.953  0.3723  0.1268 -0.2044
  392MOL0     C52813   5.958  10.124  10.916 -0.5273  0.0918 -0.3557
  392MOL0     C52814   6.074  10.208  10.951  0.2815 -0.2816  0.0199
  392MOL0     O52815   6.047  10.334  10.993 -0.0050  0.0920 -0.1488
  392MOL0     C52816   6.147  10.408  11.049 -0.0855  0.4481  0.7463
  392MOL0     C52817   6.242  10.457  10.970  0.2806 -0.2212 -0.1072
  392MOL0     C52818   6.345  10.529  11.025  0.7392 -0.0924 -0.3253
  392MOL0     C52819   6.353  10.547  11.168 -0.1924 -0.2995  0.0428
  392MOL0     O52820   6.467  10.610  11.216 -0.8234 -0.1392  0.1553
  392MOL0     C52821   6.462  10.668  11.353  0.0685  0.4001  0.7426
  392MOL0     C52822   6.525  10.807  11.356 -0.3191 -0.0721  0.3427
  392MOL0     C52823   6.471  10.907  11.251 -0.0711 -0.3630  0.3313
  392MOL0     C52824   6.506  11.037  11.316  1.0752 -0.1649  0.2470
  392MOL0     C52825   6.501  11.157  11.220 -0.0899 -0.2486 -0.1044
  392MOL0     C52826   6.358  11.192  11.166 -0.3816 -0.1670  0.3779
  392MOL0     C52827   6.263  11.232  11.278 -1.0922  0.0145 -0.3005
  392MOL0     C52828   6.130  11.264  11.205 -0.1483  0.4348 -0.3442
  392MOL0    Cl52829   6.017  11.337  11.320  0.4763 -0.3051 -0.4863
  392MOL0     C52830   6.252  10.486  11.246 -0.4390 -0.3750 -0.8076
  392MOL0     C52831   6.139  10.426  11.190 -0.2249 -0.3066  0.1436
  392MOL0     O52832   6.187  10.163  10.945  0.1837  0.5317  0.5617
  392MOL0     C52833   5.970  10.005  10.857 -0.2652  0.5414  0.3178
  392MOL0     C52834   5.855   9.930  10.832 -0.2374  0.9733  0.4785
  392MOL0     N52835   5.032  10.048  10.762  0.1072  0.4646  0.6722
  392MOL0     N52836   4.910  10.083  10.771 -0.4728 -0.3852  0.0078
  392MOL0     C52837   3.635  10.162  10.688 -0.2310 -0.7459  0.0109
  392MOL0     C52838   3.500  10.190  10.683  0.5408  0.2625 -0.1093
  392MOL0     C52839   3.071  10.218  10.844 -0.1037 -0.2522  0.0499
  392MOL0     C52840   3.022  10.196  10.977  0.8988  0.0829 -0.2721
  392MOL0     C52841   2.882  10.203  10.996  0.1761  0.1502 -0.1301
  392MOL0     C52842   2.789  10.212  10.893 -0.5459 -0.3976  0.3370
  392MOL0     O52843   2.658  10.199  10.924 -0.7391 -0.2707 -0.6035
  392MOL0     C52844   2.560  10.209  10.829 -0.5284 -0.1574  0.8563
  392MOL0     C52845   2.430  10.177  10.904  0.1142 -0.1717  0.0523
  392MOL0     C52846   2.415  10.284  11.013  0.8049 -0.3186  0.1359
  392MOL0     C52847   2.454  10.241  11.156 -0.3624 -0.0896  0.6554
  392MOL0     C52848   2.343  10.211  11.241 -0.7787  0.5540 -0.8666
  392MOL0     C52849   2.255  10.201  11.318 -0.7147 -0.2040 -0.5602
  392MOL0     C52850   2.838  10.231  10.760 -0.1278 -0.3635 -0.4320
  392MOL0     C52851   2.979  10.243  10.738 -0.0428  0.2793  0.1773
  392MOL0     C52852   3.028  10.250  10.596 -0.4845  0.0694 -0.2002
  392MOL0     H52853   3.393   9.973  10.918 -1.9688  1.3376  0.3578
  392MOL0     H52854   3.633   9.952  10.948  0.6939 -0.9848 -1.8029
  392MOL0     H52855   3.993  10.109  10.707 -0.8005 -1.9627 -0.7077
  392MOL0     H52856   3.907  10.253  10.771 -4.0373 -1.0888 -3.2135
  392MOL0     H52857   4.022  10.035  10.944  0.0030 -0.3206  0.2091
  392MOL0     H52858   3.957  10.205  10.993  0.0041  0.0323 -0.2846
  392MOL0     H52859   4.188  10.188  11.013  0.2621  2.3364 -0.2298
  392MOL0     H52860   4.154  10.308  10.887 -1.8327  1.2488  2.3358
  392MOL0     H52861   4.228  10.007  10.833 -0.0167  0.6641  2.7030
  392MOL0     H52862   4.215  10.129  10.711 -0.6604 -0.0666  0.0992
  392MOL0     H52863   4.421  10.246  10.805  0.3709 -0.6908 -1.0162
  392MOL0     H52864   4.421  10.117  10.938  0.5053  0.3376 -0.0328
  392MOL0     H52865   4.435   9.949  10.760  0.2967 -0.1070 -2.2665
  392MOL0     H52866   4.444  10.072  10.642 -3.3479  3.0562  2.5340
  392MOL0     H52867   4.644  10.044  10.874  4.2839  2.0265 -0.4791
  392MOL0     H52868   4.644  10.168  10.753 -0.9041  0.2067  1.7028
  392MOL0     H52869   4.676   9.873  10.663  1.5779 -0.1725  1.8929
  392MOL0     H52870   4.704  10.023  10.571 -2.8520  1.3465  0.2629
  392MOL0     H52871   4.922   9.787  10.614 -3.5166  1.4795 -1.2096
  392MOL0     H52872   5.196   9.792  10.620 -1.7325  1.1340 -0.1818
  392MOL0     H52873   5.232   9.969  10.610 -2.8820 -0.0420 -0.4316
  392MOL0     H52874   5.224   9.918  10.885 -0.9230  0.7718 -1.0894
  392MOL0     H52875   5.254   9.753  10.827  1.7428 -0.9816 -2.7675
  392MOL0     H52876   5.424   9.998  10.754 -2.1375  0.3295  1.9513
  392MOL0     H52877   5.463   9.843  10.689  1.3849  1.4515 -1.0575
  392MOL0     H52878   5.470   9.782  10.968 -0.8634  0.0923  1.1314
  392MOL0     H52879   5.487   9.962  10.972 -0.9823  0.1067  0.0436
  392MOL0     H52880   5.616  10.117  10.961  0.2555  0.5844 -1.2687
  392MOL0     H52881   5.791  10.262  10.995 -0.9106  0.5807 -2.1403
  392MOL0     H52882   6.250  10.436  10.864  0.9533 -1.4049  0.1684
  392MOL0     H52883   6.431  10.557  10.965 -1.5239 -0.3733 -3.9443
  392MOL0     H52884   6.357  10.669  11.382  0.3050 -0.4867  1.7281
  392MOL0     H52885   6.497  10.599  11.430 -1.7795  1.7972  2.9481
  392MOL0     H52886   6.515  10.844  11.458  1.1208  0.6447  0.2379
  392MOL0     H52887   6.630  10.787  11.334 -0.2647  1.6536 -1.1410
  392MOL0     H52888   6.519  10.905  11.152  0.9214  1.8168  0.7096
  392MOL0     H52889   6.362  10.897  11.239 -0.3797  0.7298  1.8922
  392MOL0     H52890   6.599  11.027  11.373  1.5613 -1.4277 -0.7032
  392MOL0     H52891   6.427  11.049  11.390  0.1865 -2.3724 -0.2497
  392MOL0     H52892   6.574  11.147  11.139 -0.4592 -2.1334 -0.2377
  392MOL0     H52893   6.538  11.243  11.277 -1.0249  0.0165  0.1286
  392MOL0     H52894   6.378  11.273  11.096  2.6252 -0.4607  0.7550
  392MOL0     H52895   6.315  11.100  11.126 -0.0461 -0.7362  1.2973
  392MOL0     H52896   6.303  11.314  11.338  2.0537  1.4861 -3.9923
  392MOL0     H52897   6.249  11.152  11.351 -4.0112 -0.0767 -0.8325
  392MOL0     H52898   6.143  11.312  11.107 -0.3032  1.3350  0.0673
  392MOL0     H52899   6.080  11.168  11.191 -0.8854  0.2042  3.0711
  392MOL0     H52900   6.268  10.478  11.353 -1.0069  0.5444 -0.6431
  392MOL0     H52901   6.068  10.386  11.263 -0.2609  2.3431  1.6614
  392MOL0     H52902   6.068   9.972  10.823 -0.5222 -0.0162  0.1069
  392MOL0     H52903   5.868   9.836  10.779 -2.6319  1.0710 -0.3816
  392MOL0     H52904   3.710  10.212  10.627  0.5105  0.4783  1.8475
  392MOL0     H52905   3.471  10.257  10.603  3.8530  1.2742 -0.6116
  392MOL0     H52906   3.090  10.195  11.061 -1.3916  3.5769  1.9228
  392MOL0     H52907   2.838  10.208  11.095 -0.5862  2.1461 -0.5268
  392MOL0     H52908   2.582  10.138  10.748  0.6552 -0.3302  1.3130
  392MOL0     H52909   2.555  10.310  10.787  0.2557  0.7373  2.7826
  392MOL0     H52910   2.434  10.074  10.941  2.1424 -0.9249 -2.0401
  392MOL0     H52911   2.350  10.182  10.830  2.0947  0.5082 -2.1793
  392MOL0     H52912   2.310  10.316  11.008  0.9279  0.0828  0.0602
  392MOL0     H52913   2.471  10.376  10.996  0.1048  0.5503  2.1526
  392MOL0     H52914   2.519  10.153  11.148  0.4982  0.3677  2.1669
  392MOL0     H52915   2.516  10.319  11.203 -2.8193  2.8996 -0.7015
  392MOL0     H52916   2.179  10.188  11.392  0.3449  0.5815  0.7099
  392MOL0     H52917   2.768  10.239  10.677  0.6590 -3.3425 -1.5206
  392MOL0     H52918   3.070  10.349  10.574 -2.4993  0.8765 -0.6760
  392MOL0     H52919   3.106  10.177  10.574 -2.0693 -1.4957 -0.8604
  392MOL0     H52920   2.946  10.240  10.524  0.8590  1.7212 -2.0743
  393MOL0     O52921   7.985   9.145   3.480 -0.2703 -0.6507  0.5158
  393MOL0     C52922   7.937   9.243   3.433  0.5052  1.1156  0.2506
  393MOL0     O52923   7.951   9.273   3.300  0.1280  0.4550  0.2901
  393MOL0     C52924   8.037   9.200   3.227 -0.0127  0.0742  0.5368
  393MOL0     C52925   8.159   9.243   3.197  0.2358  0.4857 -0.3949
  393MOL0     C52926   8.249   9.161   3.131 -0.7036  0.2489  0.9088
  393MOL0     C52927   8.212   9.032   3.082  0.2632  0.7919 -1.1618
  393MOL0     O52928   8.294   8.940   3.017  0.0229 -0.0537 -0.5114
  393MOL0     C52929   8.437   8.972   3.025 -0.3554 -0.0158  0.1920
  393MOL0     C52930   8.510   8.879   2.932 -0.2234 -0.5432  0.0454
  393MOL0     C52931   8.661   8.903   2.937 -0.1900  0.0667 -0.4741
  393MOL0     C52932   8.692   9.008   2.833  0.2765  0.1847  0.8405
  393MOL0     C52933   8.831   9.067   2.854  0.5595  0.0872  0.3648
  393MOL0     C52934   8.943   8.971   2.798 -0.1324  0.1926  0.6605
  393MOL0     C52935   9.075   9.051   2.791 -0.5894  0.3486  0.4573
  393MOL0     C52936   9.188   8.948   2.763 -0.3541  0.1695  0.4752
  393MOL0     N52937   9.315   9.015   2.778  0.5621 -0.2305 -0.2179
  393MOL0     C52938   9.384   9.063   2.668 -0.3580  0.1732  0.2495
  393MOL0     C52939   9.500   9.122   2.715  0.8238 -0.9957  0.0720
  393MOL0     C52940   9.587   9.213   2.628 -0.3106 -0.1948  0.2759
  393MOL0     C52941   9.731   9.180   2.648 -1.0421 -0.1976  0.4759
  393MOL0     C52942   9.838   9.238   2.556 -0.1502  0.2548 -0.0702
  393MOL0     C52943   9.962   9.293   2.627 -0.8823 -0.3816 -0.2906
  393MOL0     O52944   9.925   9.408   2.699  0.4247 -0.1309 -0.6065
  393MOL0     C52945  10.025   9.435   2.786  0.6194  0.7398 -0.2462
  393MOL0     C52946  10.014   9.398   2.926  0.6942  0.0682  0.1484
  393MOL0     C52947  10.133   9.401   3.006 -0.2427 -0.5039 -0.4015
  393MOL0     C52948  10.256   9.432   2.959 -0.6114  0.3372  0.3701
  393MOL0     C52949  10.385   9.427   3.040 -0.0789 -0.8164  0.8402
  393MOL0     O52950  10.380   9.404   3.175 -0.2289  0.6370 -0.1730
  393MOL0     C52951  10.500   9.375   3.226 -0.2889  0.1276 -1.0016
  393MOL0     C52952  10.602   9.471   3.242  0.5514 -0.6699  1.2650
  393MOL0     C52953  10.720   9.441   3.305  0.5144  0.0240 -0.0588
  393MOL0     C52954  10.746   9.323   3.359  0.1376  0.6093 -0.3102
  393MOL0     O52955  10.869   9.293   3.414  0.2252 -1.0733  0.5373
  393MOL0     C52956  10.938   9.189   3.339 -0.7741  0.6413  0.6122
  393MOL0     C52957  11.084   9.189   3.370 -0.7999  0.1249 -0.2171
  393MOL0     C52958  11.118   9.163   3.517 -0.2161 -0.5266 -0.4157
  393MOL0     C52959  11.260   9.119   3.553 -0.4586 -0.1583  0.3539
  393MOL0     C52960  11.362   9.213   3.498 -0.0181 -0.0297  0.1998
  393MOL0     C52961  11.500   9.182   3.560  0.4210  0.8203  0.0833
  393MOL0     C52962  11.557   9.051   3.493  0.5177  0.3225  0.7968
  393MOL0     C52963  11.694   9.026   3.555  0.4114  0.7042 -0.7615
  393MOL0    Cl52964  11.683   9.014   3.737 -0.0345 -0.1266  0.3048
  393MOL0     C52965  10.644   9.226   3.347 -0.4584  0.1268 -0.3779
  393MOL0     C52966  10.521   9.255   3.284 -0.0948  0.3834 -0.6266
  393MOL0     O52967  10.492   9.432   2.976  0.2131  0.4417  0.4938
  393MOL0     C52968  10.267   9.472   2.824  0.1126 -0.3721  0.2018
  393MOL0     C52969  10.154   9.475   2.741 -0.3581  0.3957  0.3623
  393MOL0     N52970   9.492   9.097   2.854 -0.0767 -0.3843 -0.4467
  393MOL0     N52971   9.387   9.029   2.891  0.3016  0.5377 -0.0627
  393MOL0     C52972   8.078   8.988   3.105 -0.6847  1.4404 -0.1146
  393MOL0     C52973   7.993   9.074   3.176  0.4406 -0.1089 -0.6708
  393MOL0     C52974   7.846   9.325   3.518  0.1744  0.0517 -0.3197
  393MOL0     C52975   7.782   9.432   3.450  0.2991 -0.3775  0.7459
  393MOL0     C52976   7.710   9.522   3.527  0.1513  0.0748  0.1217
  393MOL0     C52977   7.693   9.500   3.666  0.5749  0.5364  0.1038
  393MOL0     O52978   7.620   9.583   3.752  0.5226 -0.5204 -0.2361
  393MOL0     C52979   7.560   9.698   3.690 -0.4976  0.5241  0.7424
  393MOL0     C52980   7.493   9.782   3.802 -0.6834  0.9299  0.3873
  393MOL0     C52981   7.359   9.730   3.854 -0.2376  0.3188 -0.4148
  393MOL0     C52982   7.290   9.818   3.960 -0.2950  0.1825  0.3538
  393MOL0     C52983   7.215   9.936   3.900 -0.6906  0.4088  0.1358
  393MOL0     C52984   7.161  10.041   3.872  0.0938  0.0759 -0.0680
  393MOL0     C52985   7.742   9.393   3.729 -1.0289 -1.1893 -0.0153
  393MOL0     C52986   7.825   9.305   3.657 -0.3103  0.3877  0.0214
  393MOL0     C52987   7.880   9.191   3.746 -0.4984  0.1726  0.3323
  393MOL0     H52988   8.207   9.336   3.227  2.1191 -0.0472 -1.5673
  393MOL0     H52989   8.349   9.191   3.103 -0.2292 -0.9991  1.2119
  393MOL0     H52990   8.461   9.071   2.985 -0.3298 -1.0343 -2.5090
  393MOL0     H52991   8.462   8.950   3.129 -0.2943 -1.2676 -0.0708
  393MOL0     H52992   8.470   8.891   2.831  2.0210  0.1642 -0.8281
  393MOL0     H52993   8.500   8.774   2.960 -3.4374 -0.1242  0.7891
  393MOL0     H52994   8.705   8.808   2.904 -0.4437 -0.8236  1.5556
  393MOL0     H52995   8.707   8.924   3.034  3.5830 -3.3753 -1.2308
  393MOL0     H52996   8.673   8.963   2.736  0.8953 -1.5404  1.4763
  393MOL0     H52997   8.619   9.087   2.854  0.0963 -0.1132  1.3672
  393MOL0     H52998   8.831   9.161   2.797 -1.2084  0.4595  0.9179
  393MOL0     H52999   8.838   9.092   2.960 -2.9289 -0.8672  0.9550
  393MOL0     H53000   8.939   8.882   2.862 -2.3641 -0.1526  0.1323
  393MOL0     H53001   8.913   8.944   2.696  0.7862 -0.8865  0.6573
  393MOL0     H53002   9.088   9.104   2.886 -2.8878 -0.6499  1.4071
  393MOL0     H53003   9.068   9.120   2.706 -0.0092 -2.8858 -2.4500
  393MOL0     H53004   9.184   8.875   2.845 -0.5284  2.4274  2.5735
  393MOL0     H53005   9.185   8.894   2.667  1.5046 -2.6941  1.8868
  393MOL0     H53006   9.355   9.041   2.566  1.2103 -0.6533 -0.0571
  393MOL0     H53007   9.551   9.207   2.525 -1.3878  0.6908  0.5856
  393MOL0     H53008   9.565   9.312   2.668  1.4223  0.7840 -1.0352
  393MOL0     H53009   9.751   9.217   2.749 -0.4198 -0.2195  0.3667
  393MOL0     H53010   9.744   9.071   2.641 -1.9925 -0.1835 -2.6292
  393MOL0     H53011   9.798   9.311   2.486  0.8025 -2.9920 -4.4398
  393MOL0     H53012   9.870   9.161   2.484 -0.1825 -0.2485  0.4436
  393MOL0     H53013  10.038   9.334   2.559 -1.1350  1.0650  0.2660
  393MOL0     H53014  10.021   9.223   2.687  0.4202  0.0528 -1.0236
  393MOL0     H53015   9.917   9.374   2.968  0.2248  1.4682 -0.0968
  393MOL0     H53016  10.141   9.384   3.113  1.8928 -0.3516 -0.4948
  393MOL0     H53017  10.585   9.569   3.198  2.3447 -0.5139  0.8466
  393MOL0     H53018  10.789   9.525   3.301 -2.1351  2.5454  2.1515
  393MOL0     H53019  10.895   9.092   3.366 -1.8094  0.4317 -1.5051
  393MOL0     H53020  10.920   9.208   3.232 -1.6044  0.5999  0.7343
  393MOL0     H53021  11.140   9.114   3.313 -3.3810 -3.3007  1.3719
  393MOL0     H53022  11.135   9.277   3.330  0.9737 -2.3368 -4.0816
  393MOL0     H53023  11.088   9.243   3.584 -1.3950 -1.9451  0.8114
  393MOL0     H53024  11.050   9.082   3.543  2.3314 -2.8833 -0.5991
  393MOL0     H53025  11.283   9.027   3.498  0.9732  0.8905 -0.9082
  393MOL0     H53026  11.274   9.103   3.660 -0.5162 -0.2404  0.3492
  393MOL0     H53027  11.331   9.315   3.525  1.2762  0.4098  0.0744
  393MOL0     H53028  11.358   9.206   3.389 -3.9423 -0.1310  0.2134
  393MOL0     H53029  11.569   9.262   3.532  0.7657  0.5701  0.2092
  393MOL0     H53030  11.505   9.164   3.668  2.8169 -1.2570 -0.2757
  393MOL0     H53031  11.572   9.055   3.385  2.0706 -3.7377  0.7112
  393MOL0     H53032  11.483   8.973   3.510 -1.8338  2.2692 -0.0639
  393MOL0     H53033  11.737   8.928   3.529 -1.3178 -0.4196  0.3842
  393MOL0     H53034  11.769   9.100   3.526  3.2120 -1.2863  0.8141
  393MOL0     H53035  10.676   9.126   3.376 -2.0078  0.0795  1.3015
  393MOL0     H53036  10.445   9.177   3.278 -0.3441  0.6927 -1.6223
  393MOL0     H53037  10.363   9.487   2.775 -0.3062 -0.9047 -0.8308
  393MOL0     H53038  10.165   9.505   2.637 -0.6512 -1.8562 -0.3635
  393MOL0     H53039   8.036   8.890   3.083  1.1828  0.7984 -0.9540
  393MOL0     H53040   7.895   9.039   3.209  0.2625 -0.1087 -1.1885
  393MOL0     H53041   7.783   9.438   3.342 -1.9692 -1.9236  0.5752
  393MOL0     H53042   7.666   9.608   3.478  2.4452  2.3809  1.8473
  393MOL0     H53043   7.480   9.672   3.620  1.3151 -2.0855 -0.5192
  393MOL0     H53044   7.634   9.759   3.637 -0.3069  0.8985  1.4301
  393MOL0     H53045   7.480   9.882   3.761  2.6494  2.4488  2.5296
  393MOL0     H53046   7.557   9.803   3.889  0.1754  0.9127 -0.2245
  393MOL0     H53047   7.384   9.632   3.895 -0.3862 -0.2612 -1.6684
  393MOL0     H53048   7.285   9.714   3.774  0.8261 -4.9254 -0.6967
  393MOL0     H53049   7.221   9.752   4.014 -0.9842  1.1331  0.6743
  393MOL0     H53050   7.369   9.854   4.027  2.0651 -2.1273 -0.9939
  393MOL0     H53051   7.118  10.139   3.870 -2.1642 -0.7360 -4.8037
  393MOL0     H53052   7.722   9.395   3.836 -0.0506  0.9298  0.1790
  393MOL0     H53053   7.986   9.169   3.728 -0.0393  1.7132  0.9633
  393MOL0     H53054   7.873   9.216   3.852  2.0967  1.6391  0.2565
  393MOL0     H53055   7.812   9.106   3.741 -2.4035  1.5735  1.0080
  394MOL0     O53056   5.979   0.680   7.959 -0.3601 -0.2299 -0.0960
  394MOL0     C53057   6.023   0.733   7.858 -0.3780  0.1223 -0.2273
  394MOL0     O53058   6.153   0.753   7.832 -0.1362  0.3208  0.0679
  394MOL0     C53059   6.254   0.698   7.907  0.3905  0.4737  0.4507
  394MOL0     C53060   6.364   0.786   7.933 -1.1144 -0.2793 -0.0956
  394MOL0     C53061   6.493   0.736   7.971  1.0152 -0.3104  0.5775
  394MOL0     C53062   6.509   0.596   7.987 -0.4657 -0.1178  0.2483
  394MOL0     O53063   6.631   0.553   8.028  0.3247 -0.4998 -0.0024
  394MOL0     C53064   6.645   0.412   8.050 -0.0336 -0.8951  0.1383
  394MOL0     C53065   6.792   0.373   8.100 -0.1642  0.4725  0.3457
  394MOL0     C53066   6.902   0.442   8.016  0.3676  0.6473 -0.0996
  394MOL0     C53067   7.042   0.410   8.055 -0.3363  0.6336  0.2903
  394MOL0     C53068   7.134   0.511   7.975  0.0694 -0.8077  0.2235
  394MOL0     C53069   7.268   0.537   8.044  0.1881  0.4021  0.1371
  394MOL0     C53070   7.358   0.632   7.969 -0.4076  0.1447 -0.2098
  394MOL0     C53071   7.492   0.647   8.033 -0.3726 -0.2810  0.1146
  394MOL0     N53072   7.560   0.763   7.975  0.8383 -0.2031 -0.6008
  394MOL0     C53073   7.520   0.895   7.971  1.0386  0.1611 -0.0498
  394MOL0     C53074   7.615   0.954   7.887 -0.5249  0.0764  0.1804
  394MOL0     C53075   7.608   1.087   7.824 -0.6583 -0.2403 -0.2129
  394MOL0     C53076   7.744   1.148   7.803  0.4776 -0.3558  0.1792
  394MOL0     C53077   7.790   1.223   7.929 -0.2594 -0.3083  0.0333
  394MOL0     C53078   7.932   1.256   7.911 -1.1412 -0.6841 -0.3816
  394MOL0     O53079   7.951   1.340   7.802  0.7889 -0.1493  0.2788
  394MOL0     C53080   8.073   1.353   7.740 -0.1343 -0.5537 -0.4881
  394MOL0     C53081   8.189   1.309   7.795  0.1506 -0.0602 -0.2493
  394MOL0     C53082   8.314   1.336   7.742  0.1191 -0.1069  0.2770
  394MOL0     C53083   8.318   1.415   7.631 -0.7511  0.6969  0.0533
  394MOL0     C53084   8.441   1.431   7.566 -0.6743 -0.2205 -0.0103
  394MOL0     O53085   8.439   1.446   7.435 -0.3846 -0.1452  0.6383
  394MOL0     C53086   8.564   1.462   7.374 -0.3906 -0.7190 -0.1002
  394MOL0     C53087   8.639   1.361   7.339 -1.2435  0.4739  0.0661
  394MOL0     C53088   8.764   1.389   7.280 -0.2073  0.0931  0.0254
  394MOL0     C53089   8.811   1.517   7.258 -0.4061  0.5602 -0.2515
  394MOL0     O53090   8.931   1.527   7.195 -0.4782 -0.6967 -0.4484
  394MOL0     C53091   8.968   1.657   7.137  0.0496 -0.6127  0.0971
  394MOL0     C53092   9.093   1.652   7.044  0.8468 -0.3903 -0.2197
  394MOL0     C53093   9.214   1.611   7.116  0.0519  0.2445 -0.2730
  394MOL0     C53094   9.334   1.633   7.025 -0.0369 -0.0618  0.7445
  394MOL0     C53095   9.459   1.557   7.069  0.0223  0.4952 -0.8068
  394MOL0     C53096   9.470   1.402   7.045 -0.1622 -0.2180 -0.1678
  394MOL0     C53097   9.604   1.338   7.093 -1.1855  0.0281 -0.4251
  394MOL0     C53098   9.579   1.247   7.220 -0.2744  0.2503  0.4466
  394MOL0    Cl53099   9.747   1.175   7.236  0.0224  0.2478  0.0946
  394MOL0     C53100   8.729   1.624   7.304  0.1325  0.9537 -0.0761
  394MOL0     C53101   8.604   1.597   7.364 -0.1941  0.4021  0.8710
  394MOL0     O53102   8.544   1.439   7.639 -0.1748  0.0738  0.1502
  394MOL0     C53103   8.204   1.468   7.570 -0.3018 -0.4467  0.2996
  394MOL0     C53104   8.082   1.435   7.621 -0.2129  0.5160 -0.1414
  394MOL0     N53105   7.698   0.853   7.844 -0.6321  0.6799  0.0047
  394MOL0     N53106   7.666   0.741   7.902  0.1895 -0.4574 -0.7967
  394MOL0     C53107   6.398   0.514   7.974 -0.3003 -0.5451 -0.2382
  394MOL0     C53108   6.270   0.556   7.934  0.9428 -0.5991 -0.5532
  394MOL0     C53109   5.918   0.777   7.759 -0.3239  0.0782  0.0243
  394MOL0     C53110   5.965   0.816   7.630  0.9287 -0.3058 -0.5830
  394MOL0     C53111   5.878   0.821   7.526  0.9977 -0.1414  0.8040
  394MOL0     C53112   5.740   0.816   7.545 -0.3070  0.0596 -0.5648
  394MOL0     O53113   5.662   0.840   7.427  0.3384 -0.1980 -0.2945
  394MOL0     C53114   5.517   0.845   7.453  0.3439 -0.1233  0.1213
  394MOL0     C53115   5.443   0.882   7.321  0.3843  0.7160 -0.1283
  394MOL0     C53116   5.289   0.884   7.351  0.1595  0.9843  0.9066
  394MOL0     C53117   5.207   0.990   7.259  0.2635  0.2118  0.1419
  394MOL0     C53118   5.077   1.003   7.320 -0.1261  0.2085  0.4738
  394MOL0     C53119   4.968   1.021   7.358  0.4474 -0.6184 -0.4279
  394MOL0     C53120   5.693   0.798   7.675  0.0622  0.7385  0.2018
  394MOL0     C53121   5.779   0.769   7.782  0.1804  0.1940  1.3752
  394MOL0     C53122   5.710   0.766   7.910 -0.2343  0.2294 -0.3620
  394MOL0     H53123   6.351   0.894   7.923  0.2084 -0.1503 -0.6663
  394MOL0     H53124   6.570   0.809   7.995 -2.0541  2.3143  3.3632
  394MOL0     H53125   6.574   0.388   8.129 -3.0017  1.0056 -1.7431
  394MOL0     H53126   6.628   0.363   7.954 -2.7553 -0.0627  0.1046
  394MOL0     H53127   6.793   0.264   8.098 -1.1708  0.4638 -1.0021
  394MOL0     H53128   6.806   0.409   8.203 -0.0935  1.0631  0.1320
  394MOL0     H53129   6.880   0.550   8.020 -1.0028  0.4096 -0.7050
  394MOL0     H53130   6.888   0.399   7.916 -2.0608 -0.1871  0.5382
  394MOL0     H53131   7.064   0.415   8.162  1.2821 -1.8380  0.1425
  394MOL0     H53132   7.066   0.308   8.025 -1.4756  0.6193 -0.6561
  394MOL0     H53133   7.151   0.479   7.872 -1.6963 -1.6388  0.1620
  394MOL0     H53134   7.090   0.610   7.958  0.8824 -0.5131 -0.2261
  394MOL0     H53135   7.240   0.570   8.144 -1.9659 -4.4198  1.3897
  394MOL0     H53136   7.311   0.437   8.043 -1.9158 -0.5704  1.6568
  394MOL0     H53137   7.303   0.726   7.978  0.4620  0.7088 -0.6572
  394MOL0     H53138   7.378   0.597   7.867  0.0921 -1.3382  0.3676
  394MOL0     H53139   7.477   0.654   8.141  0.6517 -1.1807  0.3316
  394MOL0     H53140   7.553   0.557   8.018  1.7839  1.1964 -0.4393
  394MOL0     H53141   7.423   0.920   8.013  0.8163  0.2347 -0.6044
  394MOL0     H53142   7.546   1.063   7.736 -1.4849 -2.2510  0.8527
  394MOL0     H53143   7.551   1.157   7.885 -1.6164  0.1165 -1.4625
  394MOL0     H53144   7.823   1.077   7.775  1.4944  0.5467  0.6953
  394MOL0     H53145   7.743   1.218   7.719  2.4023 -0.2345  0.2138
  394MOL0     H53146   7.775   1.154   8.013  0.2054 -0.8744 -0.3401
  394MOL0     H53147   7.736   1.315   7.951  1.1141  0.0943  2.0133
  394MOL0     H53148   7.999   1.170   7.923 -1.5908 -0.7187  3.4594
  394MOL0     H53149   7.960   1.309   8.003 -0.4296 -1.9003  0.1275
  394MOL0     H53150   8.179   1.256   7.889 -1.9022  2.5782  1.1524
  394MOL0     H53151   8.401   1.287   7.785  0.5453  1.4503  1.2833
  394MOL0     H53152   8.611   1.257   7.352  1.9656 -0.1815  3.1051
  394MOL0     H53153   8.819   1.306   7.236 -0.5394 -0.2028  0.1682
  394MOL0     H53154   8.886   1.694   7.075 -0.6728 -2.1084  0.1200
  394MOL0     H53155   8.984   1.716   7.228 -2.3300  1.1138 -0.4781
  394MOL0     H53156   9.068   1.595   6.954  0.2393 -2.2028  1.0395
  394MOL0     H53157   9.113   1.755   7.014  0.3362 -0.1951  0.0985
  394MOL0     H53158   9.225   1.667   7.209 -2.1316  1.8625 -0.9248
  394MOL0     H53159   9.205   1.505   7.142  0.6611  0.1738 -0.3343
  394MOL0     H53160   9.356   1.740   7.035 -1.6339  0.2298  1.5879
  394MOL0     H53161   9.317   1.612   6.919 -2.5462 -0.7220  1.2013
  394MOL0     H53162   9.483   1.576   7.174  1.3249 -2.0163 -0.5587
  394MOL0     H53163   9.541   1.610   7.019 -1.8840  1.5973 -2.9692
  394MOL0     H53164   9.389   1.355   7.103  0.4335  0.5311  1.3372
  394MOL0     H53165   9.459   1.370   6.941  0.0391 -0.7430 -0.0334
  394MOL0     H53166   9.678   1.411   7.128 -1.7491 -0.4308  1.9032
  394MOL0     H53167   9.653   1.273   7.021  1.4888 -1.7708  2.7461
  394MOL0     H53168   9.553   1.317   7.301 -0.4409  0.9470 -0.1980
  394MOL0     H53169   9.500   1.174   7.202 -2.8695  3.5844 -3.4030
  394MOL0     H53170   8.757   1.725   7.277  0.4874  0.5396 -1.3126
  394MOL0     H53171   8.533   1.673   7.398  0.1285  0.3391  1.7057
  394MOL0     H53172   8.206   1.529   7.480 -0.2745  1.0849  1.3047
  394MOL0     H53173   7.988   1.478   7.588 -1.4752 -0.2896  2.1295
  394MOL0     H53174   6.387   0.407   7.991 -5.3442 -0.5370 -1.7634
  394MOL0     H53175   6.185   0.490   7.921  0.0071  0.5225 -0.3441
  394MOL0     H53176   6.070   0.836   7.613  0.9904  0.5236  0.7108
  394MOL0     H53177   5.920   0.819   7.425  0.5202 -1.3576  0.6144
  394MOL0     H53178   5.487   0.912   7.535  2.6695  0.4308  0.5901
  394MOL0     H53179   5.483   0.747   7.488 -0.8455 -0.5889 -2.1169
  394MOL0     H53180   5.470   0.805   7.248  2.2238 -0.8773  2.0404
  394MOL0     H53181   5.486   0.971   7.275 -0.6562  0.9800 -0.6196
  394MOL0     H53182   5.266   0.895   7.458 -3.1313 -0.2653  0.4520
  394MOL0     H53183   5.239   0.789   7.332 -1.7357  1.7640  1.6928
  394MOL0     H53184   5.254   1.089   7.259  2.2157 -0.5621 -3.4091
  394MOL0     H53185   5.201   0.965   7.153 -1.2522 -0.0629  0.2790
  394MOL0     H53186   4.868   1.037   7.393  0.5140  0.9901 -0.9105
  394MOL0     H53187   5.586   0.802   7.692 -0.3834  1.8590 -2.3865
  394MOL0     H53188   5.689   0.663   7.942 -0.9463 -0.3382 -2.5029
  394MOL0     H53189   5.761   0.826   7.986  0.0254  0.0052 -0.3599
  394MOL0     H53190   5.607   0.800   7.898 -0.7380 -1.4344 -1.0227
  395MOL0     O53191   0.442   0.039   1.280 -0.0173  0.6303  0.1514
  395MOL0     C53192   0.407   0.154   1.267  0.7258  0.0671 -0.0200
  395MOL0     O53193   0.480   0.263   1.271 -1.0978 -0.1489 -0.3464
  395MOL0     C53194   0.615   0.259   1.308 -0.1355 -0.1913 -0.9488
  395MOL0     C53195   0.702   0.350   1.248  0.3190  0.6202  0.0569
  395MOL0     C53196   0.838   0.371   1.285  0.2614  0.2024  0.0587
  395MOL0     C53197   0.886   0.291   1.389 -0.8288  0.4056 -0.3495
  395MOL0     O53198   1.014   0.299   1.442 -0.4632 -0.3410  0.5166
  395MOL0     C53199   1.098   0.381   1.356  0.2355 -0.0414 -0.8167
  395MOL0     C53200   1.231   0.362   1.416 -0.9480  0.1037 -0.3252
  395MOL0     C53201   1.340   0.449   1.342  0.0886  0.3378 -0.9928
  395MOL0     C53202   1.473   0.442   1.417 -0.3478 -0.4032 -0.1971
  395MOL0     C53203   1.587   0.502   1.346  0.2161 -0.6832 -0.4214
  395MOL0     C53204   1.712   0.499   1.433  0.2335  0.4604 -0.3974
  395MOL0     C53205   1.828   0.568   1.373 -0.0798  0.2568  0.2454
  395MOL0     C53206   1.868   0.509   1.235  0.5463 -0.0084 -0.3646
  395MOL0     N53207   2.004   0.559   1.209  0.3091  0.2120 -0.5191
  395MOL0     C53208   2.119   0.520   1.281 -0.7227 -0.2679  0.3529
  395MOL0     C53209   2.210   0.617   1.255 -0.6243  0.0651 -0.2109
  395MOL0     C53210   2.348   0.611   1.313  0.4271  0.9830 -0.6198
  395MOL0     C53211   2.467   0.604   1.214 -0.1029 -0.0155  0.9438
  395MOL0     C53212   2.483   0.733   1.130  0.1722  0.4496  0.5138
  395MOL0     C53213   2.486   0.862   1.213 -0.3565  0.5493  0.0504
  395MOL0     O53214   2.568   0.856   1.334  0.0328 -1.1543  0.4262
  395MOL0     C53215   2.700   0.889   1.322  0.1442  0.4782  0.5003
  395MOL0     C53216   2.776   0.875   1.438  0.2914 -0.6230 -0.1877
  395MOL0     C53217   2.910   0.916   1.447  0.2484 -0.7782 -0.1697
  395MOL0     C53218   2.979   0.963   1.334  0.1994  0.6850 -0.1960
  395MOL0     C53219   3.122   0.996   1.340 -0.2756 -0.7106  0.3630
  395MOL0     O53220   3.177   0.964   1.462  1.0510  0.8498  0.1166
  395MOL0     C53221   3.305   0.993   1.476 -0.6415  1.1768 -0.4242
  395MOL0     C53222   3.417   0.902   1.437  0.1502  0.3352 -1.0292
  395MOL0     C53223   3.545   0.928   1.474 -0.4048 -0.3520  0.6773
  395MOL0     C53224   3.572   1.042   1.541  0.5688  0.2808 -0.2669
  395MOL0     O53225   3.707   1.079   1.547 -0.1264 -0.3794 -0.4929
  395MOL0     C53226   3.745   1.195   1.610 -0.6924  0.2665 -0.2773
  395MOL0     C53227   3.884   1.231   1.561 -1.2262 -0.9521 -0.8214
  395MOL0     C53228   4.000   1.138   1.609  0.1430 -0.9081 -0.0282
  395MOL0     C53229   4.140   1.183   1.569  0.3749  0.8130 -0.0768
  395MOL0     C53230   4.234   1.095   1.641 -0.7155  0.4958 -0.2150
  395MOL0     C53231   4.371   1.151   1.592 -1.2739  0.0187  0.0927
  395MOL0     C53232   4.477   1.048   1.631 -0.0663  0.1740 -0.2665
  395MOL0     C53233   4.619   1.111   1.618  0.5393  0.0073  0.5517
  395MOL0    Cl53234   4.670   1.140   1.448 -0.6554  0.0678 -0.0102
  395MOL0     C53235   3.465   1.132   1.585  0.8660 -0.0494 -0.5752
  395MOL0     C53236   3.337   1.110   1.557 -0.1860  0.0484  0.0043
  395MOL0     O53237   3.184   1.045   1.241 -0.1561  0.4964  0.1911
  395MOL0     C53238   2.899   0.971   1.219  0.0935  0.6083  0.2062
  395MOL0     C53239   2.765   0.934   1.212 -0.4589  0.0668  0.2942
  395MOL0     N53240   2.144   0.711   1.171  0.4858 -0.1430  0.3229
  395MOL0     N53241   2.022   0.671   1.144 -0.3893 -0.4206  0.2893
  395MOL0     C53242   0.810   0.192   1.445 -0.1105 -0.3218 -0.5200
  395MOL0     C53243   0.675   0.178   1.416 -0.6297 -0.0793 -0.5526
  395MOL0     C53244   0.261   0.189   1.257 -0.1618  0.4537  0.1357
  395MOL0     C53245   0.235   0.328   1.213  0.1734  0.3545 -0.3343
  395MOL0     C53246   0.102   0.373   1.212 -0.6710  0.1773  0.3241
  395MOL0     C53247   0.000   0.291   1.253  0.0385 -0.8971  0.6886
  395MOL0     O53248  -0.121   0.352   1.264  0.1278 -0.0473  0.4505
  395MOL0     C53249  -0.207   0.341   1.147  0.2378  0.2308 -0.5010
  395MOL0     C53250  -0.338   0.413   1.168 -0.2983  0.1944  0.6023
  395MOL0     C53251  -0.448   0.368   1.065 -0.0555  0.8292 -0.1517
  395MOL0     C53252  -0.565   0.467   1.072 -0.5312  0.4322 -0.1239
  395MOL0     C53253  -0.646   0.465   0.946  0.0396 -0.1317 -0.7940
  395MOL0     C53254  -0.708   0.457   0.841  0.0565  0.2538 -0.2120
  395MOL0     C53255   0.023   0.168   1.299  0.1695  1.2481 -0.4932
  395MOL0     C53256   0.152   0.107   1.297 -0.2236 -0.2506 -0.3925
  395MOL0     C53257   0.176  -0.029   1.344  0.4001  0.7963 -0.7977
  395MOL0     H53258   0.657   0.391   1.158  0.7252 -0.9099 -0.8765
  395MOL0     H53259   0.901   0.436   1.225  0.1854 -0.2015 -0.4707
  395MOL0     H53260   1.093   0.350   1.251 -0.7585 -0.6304 -0.6084
  395MOL0     H53261   1.067   0.486   1.363 -2.7467 -0.7624 -1.8057
  395MOL0     H53262   1.264   0.258   1.413  0.3434  0.5042 -2.8998
  395MOL0     H53263   1.232   0.382   1.524  1.0766 -0.7648 -0.1358
  395MOL0     H53264   1.312   0.554   1.352  2.1022  0.6991  2.0446
  395MOL0     H53265   1.354   0.423   1.237  0.0650 -0.8474 -0.7185
  395MOL0     H53266   1.459   0.504   1.506 -0.5455 -0.3216 -0.2840
  395MOL0     H53267   1.485   0.338   1.451  4.9463 -0.7907 -2.3486
  395MOL0     H53268   1.601   0.441   1.256  0.7448 -1.6855  0.3009
  395MOL0     H53269   1.563   0.599   1.303 -0.6888 -2.2534 -3.7524
  395MOL0     H53270   1.694   0.545   1.531 -0.5739  0.4280 -0.5245
  395MOL0     H53271   1.728   0.392   1.449 -2.8483 -0.0766 -0.2714
  395MOL0     H53272   1.910   0.561   1.445 -0.0480 -0.1392  0.1761
  395MOL0     H53273   1.800   0.673   1.366 -1.8481  0.0571  2.6634
  395MOL0     H53274   1.871   0.400   1.236 -0.2755 -0.1124 -2.5197
  395MOL0     H53275   1.792   0.542   1.163 -0.4038 -0.4994  0.3823
  395MOL0     H53276   2.124   0.432   1.345  1.5359 -0.5479 -0.0985
  395MOL0     H53277   2.359   0.684   1.394  0.2363  0.0207  0.2946
  395MOL0     H53278   2.358   0.514   1.363 -0.8447  0.0501 -2.0874
  395MOL0     H53279   2.556   0.578   1.271  2.1152  2.5339 -1.0973
  395MOL0     H53280   2.459   0.520   1.144 -0.2270  0.8606 -0.1301
  395MOL0     H53281   2.404   0.752   1.057  0.4413 -0.1180  0.0640
  395MOL0     H53282   2.574   0.727   1.069 -0.5128 -2.1238 -0.3873
  395MOL0     H53283   2.385   0.884   1.247 -0.0504 -0.2610  1.5908
  395MOL0     H53284   2.513   0.953   1.159  1.7307  0.5866  1.0625
  395MOL0     H53285   2.727   0.830   1.524  0.7284 -1.2297 -0.2456
  395MOL0     H53286   2.953   0.894   1.544 -2.5620  2.6336  2.1376
  395MOL0     H53287   3.396   0.808   1.388 -2.7079  0.6679 -0.5820
  395MOL0     H53288   3.630   0.870   1.442 -0.6559 -0.6645  0.5658
  395MOL0     H53289   3.685   1.276   1.566 -2.2332 -0.1429  0.9755
  395MOL0     H53290   3.727   1.204   1.718  1.2049 -1.4508  0.2379
  395MOL0     H53291   3.895   1.222   1.453  1.7738 -1.4493 -0.5607
  395MOL0     H53292   3.912   1.329   1.601  0.6498 -0.1295 -3.8508
  395MOL0     H53293   3.998   1.136   1.719 -0.7517  0.7800  0.0125
  395MOL0     H53294   3.979   1.034   1.580  2.3887 -1.7274  1.0500
  395MOL0     H53295   4.160   1.288   1.590 -2.0954  1.9674 -2.7695
  395MOL0     H53296   4.149   1.177   1.460 -1.0706  0.0845 -0.1889
  395MOL0     H53297   4.210   0.992   1.612 -0.1088  0.6195 -1.1841
  395MOL0     H53298   4.228   1.109   1.750  0.3550 -0.0225 -0.0713
  395MOL0     H53299   4.379   1.174   1.486  1.8700 -0.3020  0.1448
  395MOL0     H53300   4.389   1.246   1.644 -1.2601 -0.3190  0.7211
  395MOL0     H53301   4.470   0.952   1.577  0.2015 -1.0959  1.8573
  395MOL0     H53302   4.467   1.028   1.738  0.7320 -0.5183 -0.3134
  395MOL0     H53303   4.616   1.210   1.665 -1.4269  0.4361 -0.3409
  395MOL0     H53304   4.689   1.043   1.667  3.0959 -0.9224 -3.8364
  395MOL0     H53305   3.486   1.224   1.639  1.7346 -1.2199  1.1954
  395MOL0     H53306   3.264   1.185   1.588  2.1896  2.2034  0.6811
  395MOL0     H53307   2.943   1.016   1.130 -2.0831  3.2457  0.3384
  395MOL0     H53308   2.713   0.942   1.118  0.7009  0.7621 -0.3118
  395MOL0     H53309   0.854   0.143   1.531  0.6076  0.6302 -0.3315
  395MOL0     H53310   0.625   0.114   1.488 -0.8557  2.6833  1.9506
  395MOL0     H53311   0.308   0.399   1.178  0.8644  0.3664  1.0657
  395MOL0     H53312   0.081   0.474   1.179 -1.5785 -0.7999 -2.4111
  395MOL0     H53313  -0.229   0.235   1.131 -1.0902  0.2785  0.8363
  395MOL0     H53314  -0.158   0.371   1.054  1.5649  0.0775  0.1315
  395MOL0     H53315  -0.315   0.520   1.164  4.1760 -0.5640  1.3306
  395MOL0     H53316  -0.377   0.385   1.266 -0.2920 -0.1637  0.5015
  395MOL0     H53317  -0.478   0.274   1.111  0.6191 -0.9079 -3.0182
  395MOL0     H53318  -0.405   0.344   0.968  1.1312  0.0631  0.5386
  395MOL0     H53319  -0.626   0.429   1.154  0.7457  0.1157  0.7033
  395MOL0     H53320  -0.521   0.562   1.102  2.2140 -0.7409 -0.0354
  395MOL0     H53321  -0.772   0.454   0.755  2.4638 -1.3174 -2.0961
  395MOL0     H53322  -0.058   0.103   1.330  2.0426 -1.7451 -1.3358
  395MOL0     H53323   0.255  -0.040   1.419  0.0947 -0.9871 -0.6926
  395MOL0     H53324   0.085  -0.076   1.383  1.2515 -2.8368 -2.7939
  395MOL0     H53325   0.207  -0.085   1.256 -0.8415 -1.3248  0.0375
  396MOL0     O53326   7.596   6.141   6.461 -0.2358  0.6436 -0.0391
  396MOL0     C53327   7.650   6.247   6.450 -0.4528  0.5378 -0.0005
  396MOL0     O53328   7.595   6.360   6.490 -0.0088  0.4355 -0.9829
  396MOL0     C53329   7.466   6.383   6.500  0.7686  0.6588 -0.2144
  396MOL0     C53330   7.375   6.300   6.572 -0.2562  0.6645 -0.0005
  396MOL0     C53331   7.245   6.342   6.580  0.6973 -0.1364 -0.6868
  396MOL0     C53332   7.200   6.469   6.530 -0.7431 -0.0450 -0.0161
  396MOL0     O53333   7.072   6.511   6.530 -0.0452  0.1808 -0.5060
  396MOL0     C53334   6.967   6.431   6.588 -0.6290 -0.2192 -0.1044
  396MOL0     C53335   6.838   6.454   6.508  0.4904  0.1675  0.6485
  396MOL0     C53336   6.719   6.401   6.591  0.0040 -0.3665 -0.0583
  396MOL0     C53337   6.583   6.376   6.515 -0.6307 -0.2911  0.1305
  396MOL0     C53338   6.462   6.341   6.600 -0.1017  0.4382 -0.2792
  396MOL0     C53339   6.429   6.443   6.711  0.0017  0.1296 -0.6024
  396MOL0     C53340   6.294   6.412   6.783  0.1346 -0.1464 -0.0029
  396MOL0     C53341   6.317   6.296   6.893 -0.6140 -1.0204  0.5708
  396MOL0     N53342   6.387   6.330   7.025 -0.5539  0.1509  0.2125
  396MOL0     C53343   6.408   6.244   7.130 -0.6713 -0.8755 -0.0053
  396MOL0     C53344   6.465   6.320   7.232  0.1266  0.4254  0.0039
  396MOL0     C53345   6.487   6.270   7.373  0.9626 -0.7672  0.2593
  396MOL0     C53346   6.629   6.265   7.417 -0.1020 -0.0999  0.0023
  396MOL0     C53347   6.635   6.188   7.552  0.2444  0.5932  0.4092
  396MOL0     C53348   6.776   6.202   7.610 -0.4990  0.6262  0.3233
  396MOL0     O53349   6.872   6.133   7.524 -0.5724 -0.3502  0.0925
  396MOL0     C53350   7.000   6.158   7.552 -0.3110 -1.1436  0.7270
  396MOL0     C53351   7.095   6.081   7.482 -0.0964  0.3764 -0.6256
  396MOL0     C53352   7.231   6.081   7.523 -0.0612 -0.6490  0.0563
  396MOL0     C53353   7.274   6.174   7.618  0.8979  0.0303 -0.0193
  396MOL0     C53354   7.421   6.194   7.637  0.7564 -0.6566 -0.7080
  396MOL0     O53355   7.517   6.143   7.552  0.7916 -0.3445  0.5114
  396MOL0     C53356   7.651   6.168   7.587  1.6435  1.1777  0.3897
  396MOL0     C53357   7.710   6.291   7.562  0.2835  0.5263 -0.3386
  396MOL0     C53358   7.843   6.307   7.576 -1.4633 -0.0822 -0.6113
  396MOL0     C53359   7.925   6.206   7.630 -0.3060 -0.7539 -0.4428
  396MOL0     O53360   8.062   6.219   7.644 -0.8444  0.1772  0.1493
  396MOL0     C53361   8.127   6.339   7.687 -0.2480 -0.3157 -0.3529
  396MOL0     C53362   8.262   6.347   7.639  0.4299 -0.3908 -0.0350
  396MOL0     C53363   8.366   6.407   7.734  0.0247  0.1267 -0.3753
  396MOL0     C53364   8.506   6.422   7.694 -0.7744  1.0107 -1.0717
  396MOL0     C53365   8.568   6.279   7.683 -0.3315  0.9941  0.2018
  396MOL0     C53366   8.710   6.283   7.635  0.4083 -0.2726  1.1557
  396MOL0     C53367   8.808   6.257   7.744 -0.3886 -0.1055 -0.7365
  396MOL0     C53368   8.943   6.327   7.725 -0.3114 -0.0574  0.2391
  396MOL0    Cl53369   8.930   6.511   7.747  0.4138  0.4795 -0.4079
  396MOL0     C53370   7.866   6.082   7.662 -0.1933 -0.9747 -0.4387
  396MOL0     C53371   7.730   6.068   7.646 -0.1477  0.1558 -0.1458
  396MOL0     O53372   7.442   6.237   7.750 -0.3361 -0.6454 -0.1511
  396MOL0     C53373   7.181   6.250   7.690  0.1534  0.7915 -0.3369
  396MOL0     C53374   7.048   6.237   7.658 -0.6160 -0.5832 -0.1391
  396MOL0     N53375   6.470   6.453   7.193 -0.4133 -0.0630 -0.1372
  396MOL0     N53376   6.427   6.458   7.068 -0.3249 -0.2143  0.0761
  396MOL0     C53377   7.297   6.540   6.464  0.1455 -0.0954  1.0045
  396MOL0     C53378   7.424   6.500   6.444 -0.2290 -0.2753  0.1466
  396MOL0     C53379   7.802   6.248   6.418 -0.1902 -0.2172  0.1578
  396MOL0     C53380   7.871   6.374   6.438 -0.3614  0.2734 -0.0729
  396MOL0     C53381   8.013   6.378   6.413  0.4328 -0.1747 -0.5772
  396MOL0     C53382   8.098   6.264   6.395  0.2944 -0.5151  0.0316
  396MOL0     O53383   8.234   6.277   6.398 -0.4379  0.1148  0.5959
  396MOL0     C53384   8.302   6.404   6.371 -1.3682 -0.5351 -0.0878
  396MOL0     C53385   8.453   6.357   6.343 -0.4614  0.8178  0.0335
  396MOL0     C53386   8.559   6.463   6.355  0.6204  1.0223  0.1643
  396MOL0     C53387   8.685   6.423   6.282 -0.6680  0.3250  0.4766
  396MOL0     C53388   8.677   6.412   6.136  0.0315  0.0294  0.8077
  396MOL0     C53389   8.672   6.379   6.021  0.5410 -0.7350 -0.1293
  396MOL0     C53390   8.029   6.150   6.388  0.1234 -0.1879  0.4622
  396MOL0     C53391   7.884   6.137   6.391  0.2455  0.2429 -0.2438
  396MOL0     C53392   7.839   5.998   6.349  0.1787 -0.3161 -0.2922
  396MOL0     H53393   7.420   6.217   6.626  1.3549  0.8378 -1.0077
  396MOL0     H53394   7.185   6.270   6.635 -0.4794  0.3308 -1.3207
  396MOL0     H53395   6.987   6.323   6.582 -0.8423 -0.1920 -1.8411
  396MOL0     H53396   6.956   6.470   6.689  1.0518  0.9863 -0.3436
  396MOL0     H53397   6.844   6.388   6.421 -1.6892 -1.1464  1.4036
  396MOL0     H53398   6.822   6.559   6.483 -0.6724 -0.0667  0.3596
  396MOL0     H53399   6.708   6.471   6.675  2.1435 -3.6264  3.3028
  396MOL0     H53400   6.755   6.308   6.638  2.0468 -0.0300 -0.8426
  396MOL0     H53401   6.565   6.464   6.452  0.1822  1.3547  2.0797
  396MOL0     H53402   6.592   6.297   6.440 -2.8757  1.2774 -1.9258
  396MOL0     H53403   6.379   6.330   6.529  0.7063  0.3987 -1.2336
  396MOL0     H53404   6.484   6.247   6.651  0.4104  1.0604  0.6725
  396MOL0     H53405   6.514   6.458   6.778 -0.0116 -0.5243 -0.4383
  396MOL0     H53406   6.421   6.543   6.668  3.5990  1.9359  2.3557
  396MOL0     H53407   6.217   6.376   6.714 -2.2036  1.3147  1.7082
  396MOL0     H53408   6.252   6.499   6.834  0.5225 -0.9463  1.7752
  396MOL0     H53409   6.215   6.271   6.922 -2.5561  2.6729 -2.1633
  396MOL0     H53410   6.373   6.217   6.843  2.0433  0.5755  0.7911
  396MOL0     H53411   6.379   6.140   7.138 -1.4604 -0.5740  1.3036
  396MOL0     H53412   6.416   6.328   7.433  0.4648  0.4737 -1.4697
  396MOL0     H53413   6.438   6.173   7.384  0.3173 -0.2500  2.3764
  396MOL0     H53414   6.692   6.212   7.346  2.4911  0.5488  1.6588
  396MOL0     H53415   6.666   6.367   7.435 -1.3404  0.3856 -0.1345
  396MOL0     H53416   6.598   6.085   7.545 -2.5381  1.5736 -0.2289
  396MOL0     H53417   6.568   6.232   7.625  0.2006 -1.0861  1.4463
  396MOL0     H53418   6.787   6.160   7.711  0.5422 -0.5482 -0.2502
  396MOL0     H53419   6.799   6.308   7.626 -4.0636  1.7413 -1.0641
  396MOL0     H53420   7.064   6.023   7.395 -5.0814  1.4918  0.0830
  396MOL0     H53421   7.305   6.019   7.473  0.0183  0.1030 -0.7680
  396MOL0     H53422   7.655   6.376   7.525 -0.6766 -0.4412 -1.1952
  396MOL0     H53423   7.891   6.397   7.539 -0.4328 -0.1462  0.5217
  396MOL0     H53424   8.076   6.432   7.659 -1.9578 -1.3928 -1.0347
  396MOL0     H53425   8.127   6.329   7.796 -0.9367 -1.3629 -0.4309
  396MOL0     H53426   8.299   6.251   7.602 -0.4725 -1.4880  1.7903
  396MOL0     H53427   8.272   6.405   7.546 -1.7880 -0.3953 -0.3267
  396MOL0     H53428   8.335   6.505   7.771 -2.0525  0.0596 -1.7603
  396MOL0     H53429   8.372   6.352   7.828  1.0066  1.6165  0.4708
  396MOL0     H53430   8.551   6.481   7.775 -0.6231 -0.1550 -0.2916
  396MOL0     H53431   8.493   6.484   7.604 -1.9697  1.2249 -0.7601
  396MOL0     H53432   8.528   6.229   7.594  2.8902  2.4409 -2.2531
  396MOL0     H53433   8.555   6.201   7.759  3.7428 -2.0465 -1.8411
  396MOL0     H53434   8.731   6.206   7.561 -2.7234 -1.9736  1.8801
  396MOL0     H53435   8.726   6.373   7.575  2.5870 -2.0193 -1.1028
  396MOL0     H53436   8.818   6.148   7.740  0.6334 -0.1772  1.6197
  396MOL0     H53437   8.775   6.283   7.845 -1.3268 -1.8709 -0.5401
  396MOL0     H53438   9.018   6.296   7.798 -2.2670 -0.9862  1.9606
  396MOL0     H53439   8.981   6.306   7.624 -1.3538  0.0159 -0.1787
  396MOL0     H53440   7.925   6.002   7.705 -0.2117  0.0195  1.5862
  396MOL0     H53441   7.693   5.974   7.684  2.0245  0.1072  2.0760
  396MOL0     H53442   7.213   6.314   7.772  0.0485  1.3514 -0.7293
  396MOL0     H53443   6.981   6.301   7.713 -0.6428  1.2381 -2.1371
  396MOL0     H53444   7.252   6.628   6.418 -0.4843 -0.8929  0.0763
  396MOL0     H53445   7.492   6.564   6.389  0.6038 -1.3434 -0.1024
  396MOL0     H53446   7.815   6.462   6.468  1.7647  1.8387 -0.3861
  396MOL0     H53447   8.057   6.477   6.404 -0.0254 -0.0005 -0.9708
  396MOL0     H53448   8.295   6.472   6.456  2.3124  1.4775 -1.1660
  396MOL0     H53449   8.267   6.465   6.287  1.5532  3.5767  1.3518
  396MOL0     H53450   8.453   6.311   6.244 -1.8561  0.3380  0.2350
  396MOL0     H53451   8.482   6.277   6.412  2.0016  0.2329 -1.5749
  396MOL0     H53452   8.581   6.482   6.460  4.2415 -1.9571  0.1776
  396MOL0     H53453   8.518   6.555   6.311 -3.0283  0.8959  2.9108
  396MOL0     H53454   8.750   6.507   6.306  0.2937 -0.5810  1.1622
  396MOL0     H53455   8.723   6.325   6.314 -0.7962 -0.8148 -2.4920
  396MOL0     H53456   8.663   6.344   5.920 -3.5663 -1.6333  0.3413
  396MOL0     H53457   8.090   6.065   6.357  0.6473  0.5310 -0.5286
  396MOL0     H53458   7.881   5.961   6.255 -2.5848 -3.4594 -0.4791
  396MOL0     H53459   7.873   5.925   6.424 -0.4013  1.6203  1.9778
  396MOL0     H53460   7.731   6.000   6.337  0.1512  3.7282 -0.8501
  397MOL0     O53461  10.086   9.591   2.407  0.0996  0.8878 -0.5365
  397MOL0     C53462   9.994   9.669   2.415  0.7387  0.0809 -0.1268
  397MOL0     O53463  10.003   9.798   2.436 -0.1656 -0.3258 -0.1658
  397MOL0     C53464  10.124   9.868   2.450  1.0338 -0.1728  0.5953
  397MOL0     C53465  10.126   9.983   2.525  0.5006 -0.0518  0.6469
  397MOL0     C53466  10.248  10.056   2.547  0.0107  0.1600 -0.4454
  397MOL0     C53467  10.368  10.016   2.488 -0.2191 -0.7093  0.2393
  397MOL0     O53468  10.480  10.105   2.490  0.4766  0.8027 -0.0636
  397MOL0     C53469  10.580  10.086   2.389  0.2134 -0.4472 -0.3002
  397MOL0     C53470  10.685  10.198   2.393 -0.6710  0.8039 -0.4420
  397MOL0     C53471  10.772  10.197   2.528  0.1461  0.0166  0.8298
  397MOL0     C53472  10.873  10.081   2.535  0.4804  0.0391 -0.0287
  397MOL0     C53473  10.940  10.084   2.677 -0.1174  0.4259 -0.0457
  397MOL0     C53474  11.047   9.977   2.689  0.3888  0.7607 -0.5316
  397MOL0     C53475  11.101   9.955   2.830  0.6257  0.6800  0.0743
  397MOL0     C53476  11.246   9.916   2.835  0.4031 -0.3936 -0.2658
  397MOL0     N53477  11.321  10.039   2.788  0.5795 -0.6317 -0.2190
  397MOL0     C53478  11.393  10.046   2.672 -0.0198  0.4328 -0.3496
  397MOL0     C53479  11.448  10.165   2.654 -0.5706 -0.5276  0.4992
  397MOL0     C53480  11.526  10.229   2.547  0.1146  1.0519  0.0307
  397MOL0     C53481  11.671  10.183   2.563 -0.1088 -0.2743 -0.3652
  397MOL0     C53482  11.678  10.032   2.549  0.3362 -0.4829 -0.5261
  397MOL0     C53483  11.820   9.996   2.581  0.1119  0.4600  0.8217
  397MOL0     O53484  11.867   9.876   2.519  0.3566 -0.0055 -0.3389
  397MOL0     C53485  12.005   9.868   2.512  0.0886  0.0871  0.5545
  397MOL0     C53486  12.089   9.922   2.604 -0.1944  0.1768  0.4492
  397MOL0     C53487  12.225   9.902   2.602  0.2334 -0.2292 -0.4793
  397MOL0     C53488  12.288   9.835   2.498 -0.3327 -0.2623  0.3920
  397MOL0     C53489  12.434   9.824   2.489  0.4598  0.5250  0.1265
  397MOL0     O53490  12.475   9.770   2.377  0.2910  0.2850  0.5329
  397MOL0     C53491  12.610   9.749   2.352  0.5936 -0.0088 -0.3532
  397MOL0     C53492  12.662   9.626   2.401 -0.8936 -0.1644 -0.2614
  397MOL0     C53493  12.800   9.605   2.395 -1.0740 -0.0340  0.0021
  397MOL0     C53494  12.887   9.707   2.339 -0.6180  0.6309 -0.2017
  397MOL0     O53495  13.022   9.670   2.325 -0.8204 -0.2850  0.3012
  397MOL0     C53496  13.116   9.769   2.285  0.1875  0.2487  0.8571
  397MOL0     C53497  13.260   9.733   2.339  0.7346 -0.2901 -0.3730
  397MOL0     C53498  13.370   9.818   2.294  0.6392 -0.3670  0.2103
  397MOL0     C53499  13.501   9.804   2.371  0.0987  0.0721 -0.6136
  397MOL0     C53500  13.602   9.905   2.319  0.0926  0.1427  0.8324
  397MOL0     C53501  13.723   9.927   2.408 -0.0838 -0.3570 -0.1742
  397MOL0     C53502  13.830   9.989   2.321 -0.5139  0.5577 -0.4000
  397MOL0     C53503  13.946  10.037   2.409  0.4645  0.9263  0.7301
  397MOL0    Cl53504  14.089  10.035   2.304  0.2307  0.1830 -0.1714
  397MOL0     C53505  12.826   9.833   2.304  0.3722 -0.3862  0.2135
  397MOL0     C53506  12.690   9.860   2.316  0.6984 -0.7971  0.5919
  397MOL0     O53507  12.508   9.850   2.585 -0.3539  0.2628 -0.7227
  397MOL0     C53508  12.204   9.779   2.404  0.9917  0.6016 -0.0363
  397MOL0     C53509  12.065   9.788   2.410  1.1734  0.7925  0.6687
  397MOL0     N53510  11.400  10.239   2.763 -0.4915 -0.0946 -0.5719
  397MOL0     N53511  11.329  10.163   2.836 -0.7675  0.8799 -0.4866
  397MOL0     C53512  10.367   9.897   2.408 -0.4526 -0.3241 -0.2734
  397MOL0     C53513  10.247   9.831   2.384 -0.5082  0.1581  0.3576
  397MOL0     C53514   9.857   9.622   2.403 -0.3159  0.0445 -0.1258
  397MOL0     C53515   9.769   9.672   2.492 -0.8975 -0.0504 -0.1641
  397MOL0     C53516   9.639   9.626   2.493  1.1074 -0.4764  0.2510
  397MOL0     C53517   9.599   9.536   2.393 -0.2443  0.3968  0.6808
  397MOL0     O53518   9.469   9.500   2.369 -0.6384 -0.6272 -0.3413
  397MOL0     C53519   9.359   9.559   2.442 -0.2337  0.8590  0.0755
  397MOL0     C53520   9.237   9.475   2.408 -0.6251  0.7577 -0.5360
  397MOL0     C53521   9.238   9.343   2.481  0.2278  0.4830  0.1998
  397MOL0     C53522   9.113   9.253   2.449 -0.6541 -0.6457 -0.0051
  397MOL0     C53523   9.087   9.230   2.309  0.4136  0.7573  0.3858
  397MOL0     C53524   9.055   9.211   2.191  0.0516  1.2598 -0.2674
  397MOL0     C53525   9.685   9.500   2.293 -0.1029  0.0639  0.0359
  397MOL0     C53526   9.817   9.537   2.298  0.1365  0.4854  0.3774
  397MOL0     C53527   9.917   9.498   2.189 -0.1413  0.0610  1.0549
  397MOL0     H53528  10.036  10.006   2.580  0.0065 -2.0894  0.7569
  397MOL0     H53529  10.244  10.155   2.592  0.4643  0.7734 -1.6972
  397MOL0     H53530  10.641   9.996   2.404  0.6135 -0.0212  0.6982
  397MOL0     H53531  10.535  10.084   2.290 -0.1701 -4.6929 -0.2431
  397MOL0     H53532  10.631  10.294   2.386 -0.4363  0.9059 -0.8540
  397MOL0     H53533  10.744  10.193   2.301  0.0542 -0.5221  0.0778
  397MOL0     H53534  10.706  10.195   2.615 -0.6443  4.5349  0.6067
  397MOL0     H53535  10.821  10.294   2.514  0.0459  0.0432  0.6654
  397MOL0     H53536  10.816   9.989   2.518 -0.3506  0.8961 -2.2829
  397MOL0     H53537  10.941  10.104   2.453 -0.0357  0.2001 -0.4205
  397MOL0     H53538  10.993  10.178   2.697  1.5582 -0.2518 -1.1145
  397MOL0     H53539  10.864  10.074   2.754 -1.0758 -0.0636 -1.0295
  397MOL0     H53540  11.004   9.883   2.654 -0.8049  0.3612  1.8227
  397MOL0     H53541  11.133  10.008   2.629  0.4303 -1.3824 -1.6800
  397MOL0     H53542  11.046   9.868   2.867  1.6116 -1.4442 -3.0585
  397MOL0     H53543  11.100  10.045   2.892 -0.8091 -1.1694  2.9424
  397MOL0     H53544  11.256   9.895   2.942 -0.1648  1.6105  0.2263
  397MOL0     H53545  11.268   9.822   2.783  0.9426 -0.3991 -0.0390
  397MOL0     H53546  11.397   9.970   2.594 -1.4845  0.4609 -0.4787
  397MOL0     H53547  11.506  10.187   2.448  2.0575 -4.6660  1.6834
  397MOL0     H53548  11.518  10.338   2.559  0.5095  0.7819  3.7374
  397MOL0     H53549  11.738  10.231   2.491  0.9039  1.6018  1.6801
  397MOL0     H53550  11.711  10.205   2.662 -2.6528  3.0343  0.0987
  397MOL0     H53551  11.661  10.013   2.443  0.8755  2.5468 -1.2456
  397MOL0     H53552  11.621   9.970   2.619  2.4724 -2.1307 -0.1354
  397MOL0     H53553  11.834   9.985   2.689 -0.3591 -0.2195  0.8188
  397MOL0     H53554  11.880  10.082   2.548 -0.6712  0.7099  0.0118
  397MOL0     H53555  12.054   9.995   2.677 -1.9243 -1.2289  1.1122
  397MOL0     H53556  12.281   9.957   2.677 -1.9384  2.2413 -0.5486
  397MOL0     H53557  12.595   9.548   2.434 -0.3498 -1.0545 -1.1935
  397MOL0     H53558  12.831   9.509   2.434 -1.2148 -0.0410  0.0972
  397MOL0     H53559  13.113   9.778   2.176  0.8637 -0.1093  0.8075
  397MOL0     H53560  13.087   9.866   2.326  0.4955 -0.0504  1.8116
  397MOL0     H53561  13.253   9.740   2.448  1.1434  2.2851 -0.4592
  397MOL0     H53562  13.285   9.632   2.305  0.2663 -0.6047  0.1902
  397MOL0     H53563  13.399   9.800   2.190  2.5158  0.3737  0.5656
  397MOL0     H53564  13.339   9.923   2.293  2.0685  0.1142  1.3352
  397MOL0     H53565  13.554   9.709   2.361  0.6510  0.3933 -0.7608
  397MOL0     H53566  13.486   9.831   2.476  2.6709 -5.0777  1.4641
  397MOL0     H53567  13.548  10.000   2.312 -0.7947 -0.4185 -0.4020
  397MOL0     H53568  13.633   9.887   2.216  0.1466 -0.1636  0.9003
  397MOL0     H53569  13.691   9.999   2.484 -1.3721  0.0968 -1.1024
  397MOL0     H53570  13.753   9.834   2.458  2.2154  0.0788 -0.6715
  397MOL0     H53571  13.800  10.072   2.256  2.7845  1.3869 -1.0695
  397MOL0     H53572  13.874   9.910   2.258  0.4490 -0.9236  1.9789
  397MOL0     H53573  13.928  10.131   2.461 -2.4930  0.9415 -0.1602
  397MOL0     H53574  13.969   9.964   2.487 -0.5122 -0.4904 -0.2658
  397MOL0     H53575  12.887   9.910   2.259 -0.6370 -0.4458 -1.3370
  397MOL0     H53576  12.648   9.955   2.283  2.4507 -0.4881 -0.9346
  397MOL0     H53577  12.247   9.716   2.326 -1.2869 -0.7348 -0.3001
  397MOL0     H53578  11.997   9.730   2.349  0.5048  0.1325  1.9954
  397MOL0     H53579  10.462   9.858   2.371 -0.3393 -1.8234  1.4384
  397MOL0     H53580  10.261   9.745   2.321 -0.7675  1.5491 -1.7111
  397MOL0     H53581   9.801   9.747   2.564  0.4340 -0.2414 -0.5260
  397MOL0     H53582   9.569   9.673   2.561  0.8522 -2.8526  1.7271
  397MOL0     H53583   9.338   9.663   2.415  1.3037  1.3481  0.6250
  397MOL0     H53584   9.374   9.571   2.550 -2.6495 -0.2315  0.5895
  397MOL0     H53585   9.230   9.454   2.301 -2.7640  1.5342 -0.5942
  397MOL0     H53586   9.152   9.532   2.445 -0.5898  1.1231 -0.9982
  397MOL0     H53587   9.247   9.353   2.590  0.0623  1.6219  0.1173
  397MOL0     H53588   9.324   9.284   2.445  0.9614  1.4819  0.2617
  397MOL0     H53589   9.123   9.161   2.508 -1.8163  0.6046  2.2954
  397MOL0     H53590   9.024   9.306   2.484  0.6535  1.1884  0.6900
  397MOL0     H53591   9.037   9.216   2.086 -0.4422  0.9503 -0.1982
  397MOL0     H53592   9.645   9.432   2.219 -2.8662 -1.5006  2.7524
  397MOL0     H53593   9.949   9.590   2.140  0.7744 -0.3080  0.9355
  397MOL0     H53594  10.009   9.453   2.226 -0.0125 -1.2598 -0.7733
  397MOL0     H53595   9.875   9.428   2.117  2.0181  0.3185 -0.5344
  398MOL0     O53596   6.088   7.402   8.383 -0.4106 -0.0604  0.7190
  398MOL0     C53597   6.052   7.422   8.492 -0.0893 -0.0182  0.2660
  398MOL0     O53598   6.058   7.545   8.559  0.1599 -0.3437  0.4098
  398MOL0     C53599   6.114   7.644   8.477  0.2645  0.3138 -0.4307
  398MOL0     C53600   6.251   7.654   8.451  0.0660 -0.4599 -0.4705
  398MOL0     C53601   6.303   7.744   8.360  0.6130 -0.3715 -0.5550
  398MOL0     C53602   6.220   7.828   8.285 -0.2315 -0.0996  0.3883
  398MOL0     O53603   6.264   7.928   8.198  0.7620 -0.5847 -0.1721
  398MOL0     C53604   6.188   7.957   8.078 -0.2064  0.6680  0.5461
  398MOL0     C53605   6.294   7.989   7.974  0.2737 -0.8079 -0.6852
  398MOL0     C53606   6.350   8.133   7.987  0.1585 -0.0733 -0.6166
  398MOL0     C53607   6.494   8.135   7.929 -0.6390  0.3664 -0.0187
  398MOL0     C53608   6.547   8.270   7.912 -0.1702 -0.6114  0.3482
  398MOL0     C53609   6.688   8.273   7.861 -0.5413  0.5284  0.3015
  398MOL0     C53610   6.747   8.408   7.797  0.2748  0.3178  0.5313
  398MOL0     C53611   6.712   8.427   7.653 -0.7472 -0.4999 -0.6046
  398MOL0     N53612   6.790   8.522   7.574 -0.0853 -0.4913 -0.2374
  398MOL0     C53613   6.884   8.616   7.621 -0.5781  0.5312 -0.5756
  398MOL0     C53614   6.948   8.663   7.509  0.2124 -0.0497  0.8164
  398MOL0     C53615   7.069   8.754   7.505 -0.5224  0.2218  0.5146
  398MOL0     C53616   7.063   8.865   7.394  0.2491  0.3129  0.3061
  398MOL0     C53617   7.205   8.912   7.382  0.3897  0.2352  0.7808
  398MOL0     C53618   7.209   9.042   7.297  0.5686  0.1372  0.3228
  398MOL0     O53619   7.144   9.025   7.173  0.0931 -0.0448  0.3077
  398MOL0     C53620   7.212   8.959   7.072  0.2981  0.1118  0.4543
  398MOL0     C53621   7.133   8.923   6.967  0.6589  0.1870  0.6729
  398MOL0     C53622   7.189   8.848   6.864  0.4336 -0.1177  0.0699
  398MOL0     C53623   7.333   8.827   6.855  0.1617  0.2366 -0.1775
  398MOL0     C53624   7.382   8.755   6.735  0.1003  0.7730  0.1279
  398MOL0     O53625   7.304   8.763   6.613 -0.1748 -0.5861 -0.0668
  398MOL0     C53626   7.322   8.672   6.509  0.2306  0.1497 -0.3074
  398MOL0     C53627   7.344   8.728   6.388  0.6095 -0.2201  0.3282
  398MOL0     C53628   7.355   8.647   6.273  0.1200 -0.9482 -0.0996
  398MOL0     C53629   7.369   8.507   6.285 -0.0800  0.2700 -0.8045
  398MOL0     O53630   7.383   8.412   6.190 -0.2015  0.6408  0.4299
  398MOL0     C53631   7.455   8.436   6.075  0.6637 -1.2595  0.0747
  398MOL0     C53632   7.608   8.423   6.115 -0.7794  0.7540  0.2186
  398MOL0     C53633   7.696   8.345   6.017  0.6895 -0.5922  0.1784
  398MOL0     C53634   7.737   8.432   5.904  0.2141 -0.3658 -0.0253
  398MOL0     C53635   7.771   8.332   5.787  0.6092 -0.2481  0.6422
  398MOL0     C53636   7.807   8.405   5.663 -0.4734 -0.3455 -0.1867
  398MOL0     C53637   7.847   8.306   5.551 -0.1005  0.3902 -0.1258
  398MOL0     C53638   7.883   8.374   5.421  0.6034 -0.9078 -0.3404
  398MOL0    Cl53639   7.753   8.473   5.363  0.2160  0.2076  0.1033
  398MOL0     C53640   7.352   8.450   6.411 -1.0523 -0.0960  0.6006
  398MOL0     C53641   7.328   8.529   6.523  0.3506 -0.0688 -0.3959
  398MOL0     O53642   7.475   8.677   6.757  0.0597  0.7604 -0.1262
  398MOL0     C53643   7.413   8.874   6.956 -0.1623 -0.3676  0.4602
  398MOL0     C53644   7.349   8.937   7.070 -0.8144 -0.5625  1.1404
  398MOL0     N53645   6.906   8.578   7.404 -0.0523  0.3719  0.0444
  398MOL0     N53646   6.816   8.503   7.445 -0.0919 -0.2342  1.0374
  398MOL0     C53647   6.080   7.810   8.301 -0.9326  0.6614  0.2998
  398MOL0     C53648   6.025   7.714   8.394 -0.2553  0.6068 -0.2850
  398MOL0     C53649   6.009   7.308   8.568  0.5224  0.4113 -1.2309
  398MOL0     C53650   6.031   7.304   8.705 -0.8019 -0.0955  0.2145
  398MOL0     C53651   5.981   7.211   8.794 -0.6481 -0.8788 -0.1898
  398MOL0     C53652   5.919   7.100   8.739 -0.4902 -0.5386  0.4814
  398MOL0     O53653   5.875   6.994   8.814 -0.0366 -0.0333  0.4424
  398MOL0     C53654   5.809   7.043   8.931 -0.1768  0.5639 -0.6268
  398MOL0     C53655   5.682   7.120   8.892 -0.7687  0.0322  0.2072
  398MOL0     C53656   5.575   7.012   8.835 -0.1910  0.2065 -0.5449
  398MOL0     C53657   5.472   7.075   8.744  0.0462 -0.5246 -0.3946
  398MOL0     C53658   5.554   7.128   8.639  0.4095  0.4582  0.0578
  398MOL0     C53659   5.601   7.187   8.544  0.1689  0.4588 -0.5036
  398MOL0     C53660   5.898   7.084   8.597 -0.7592  0.0460 -0.1011
  398MOL0     C53661   5.946   7.192   8.520  0.0431  0.2483 -0.2982
  398MOL0     C53662   5.920   7.174   8.373  0.6593 -0.2104 -0.2688
  398MOL0     H53663   6.322   7.591   8.505 -0.9063 -0.8146  0.4285
  398MOL0     H53664   6.409   7.740   8.337  0.9769  0.6596  0.8035
  398MOL0     H53665   6.124   7.875   8.043  1.2331  1.5309 -5.1332
  398MOL0     H53666   6.130   8.048   8.088 -0.9028  0.3471 -0.4217
  398MOL0     H53667   6.248   7.986   7.875 -2.1830  1.5159  0.2736
  398MOL0     H53668   6.381   7.925   7.990  2.0961  2.1747  3.1886
  398MOL0     H53669   6.362   8.163   8.091  1.0276  2.3471 -1.3479
  398MOL0     H53670   6.288   8.207   7.936  0.2798  0.2080 -0.3511
  398MOL0     H53671   6.560   8.083   8.000  2.7547  3.1329 -0.8549
  398MOL0     H53672   6.496   8.076   7.837  1.1219  0.8892 -0.3613
  398MOL0     H53673   6.488   8.318   7.833 -0.8005 -2.4787 -0.3654
  398MOL0     H53674   6.537   8.335   7.999 -0.2987 -1.6082  1.0886
  398MOL0     H53675   6.746   8.240   7.948 -1.8790  2.3738  1.9884
  398MOL0     H53676   6.704   8.194   7.787  1.5631  2.9813 -2.0843
  398MOL0     H53677   6.855   8.395   7.811  0.1326  0.1930  1.6207
  398MOL0     H53678   6.715   8.494   7.856  0.5095  1.0755 -0.4263
  398MOL0     H53679   6.717   8.333   7.598  0.2365  1.0603 -3.3790
  398MOL0     H53680   6.607   8.457   7.641 -1.0754 -1.3533  0.0355
  398MOL0     H53681   6.915   8.638   7.723  0.2985 -2.8057 -0.0032
  398MOL0     H53682   7.085   8.797   7.604 -1.2500  0.9954  0.3027
  398MOL0     H53683   7.151   8.686   7.478 -1.6137 -1.0174  0.2253
  398MOL0     H53684   7.033   8.811   7.304  0.9600 -1.1959  0.9350
  398MOL0     H53685   7.006   8.953   7.425  0.5335  0.7491 -0.3854
  398MOL0     H53686   7.267   8.843   7.324 -1.0067 -1.0588  0.7498
  398MOL0     H53687   7.252   8.920   7.480  2.1179  0.6052 -0.0392
  398MOL0     H53688   7.316   9.067   7.289  1.1071 -2.4140 -2.0409
  398MOL0     H53689   7.153   9.120   7.349 -2.1868 -1.4448 -0.1185
  398MOL0     H53690   7.025   8.935   6.975  0.2647 -3.4304  3.1102
  398MOL0     H53691   7.108   8.809   6.802 -2.3643 -0.6177  3.6980
  398MOL0     H53692   7.343   8.835   6.373  1.7363 -0.6072 -3.7487
  398MOL0     H53693   7.359   8.700   6.178 -2.2320  1.6714  1.1187
  398MOL0     H53694   7.437   8.363   5.996 -2.1287 -3.3472  2.4600
  398MOL0     H53695   7.433   8.538   6.042 -0.0803 -1.1643  0.8467
  398MOL0     H53696   7.659   8.519   6.132  1.1255 -0.3551  1.2071
  398MOL0     H53697   7.617   8.377   6.214  1.6022  1.1969  0.2703
  398MOL0     H53698   7.787   8.305   6.063 -0.2752 -0.7155  2.0584
  398MOL0     H53699   7.640   8.261   5.974 -1.8765  0.3615  1.4999
  398MOL0     H53700   7.818   8.504   5.919 -1.3936  1.9746 -1.8932
  398MOL0     H53701   7.650   8.496   5.886 -0.5488 -0.8306  1.7560
  398MOL0     H53702   7.679   8.278   5.764 -1.4947  3.1167  0.5145
  398MOL0     H53703   7.856   8.265   5.806  0.0897 -2.2831 -3.1714
  398MOL0     H53704   7.725   8.471   5.634 -1.5673 -0.7624  1.7738
  398MOL0     H53705   7.895   8.469   5.668 -0.3490 -0.5123 -0.2331
  398MOL0     H53706   7.770   8.233   5.526  0.1317  0.1514 -0.1538
  398MOL0     H53707   7.928   8.240   5.582  0.5101  1.8584  1.6343
  398MOL0     H53708   7.981   8.423   5.430 -0.6917  1.4871  2.2936
  398MOL0     H53709   7.887   8.292   5.348  1.1488  0.5725 -2.0461
  398MOL0     H53710   7.359   8.342   6.419  0.1775  0.0488  1.9500
  398MOL0     H53711   7.316   8.488   6.623  1.1447  0.6585  0.0059
  398MOL0     H53712   7.520   8.859   6.952 -0.2618 -0.8829 -1.1720
  398MOL0     H53713   7.413   8.973   7.150  0.2122 -1.5389  0.7899
  398MOL0     H53714   6.010   7.876   8.251 -2.0350 -0.3448  0.4805
  398MOL0     H53715   5.919   7.689   8.395  0.0870 -1.2832 -2.4395
  398MOL0     H53716   6.089   7.381   8.755  0.8844 -1.1091 -0.1102
  398MOL0     H53717   6.009   7.228   8.898 -2.2223  1.6531 -0.1021
  398MOL0     H53718   5.868   7.107   8.997  1.2061 -0.3444 -0.9361
  398MOL0     H53719   5.783   6.952   8.987  1.5031  1.2043  1.3388
  398MOL0     H53720   5.705   7.202   8.823  2.7639 -0.0991  1.0750
  398MOL0     H53721   5.643   7.159   8.986  1.5570 -1.0523  1.7134
  398MOL0     H53722   5.530   6.955   8.916 -1.7766 -0.4711 -1.8598
  398MOL0     H53723   5.628   6.936   8.777  4.3722  0.1674  3.0579
  398MOL0     H53724   5.395   7.001   8.720 -3.4656  1.7457  2.5919
  398MOL0     H53725   5.414   7.158   8.786  0.6545 -0.3118  0.0260
  398MOL0     H53726   5.652   7.241   8.467  0.6889  1.3359  0.4204
  398MOL0     H53727   5.846   6.999   8.554  1.6537 -1.1857 -0.7836
  398MOL0     H53728   5.836   7.108   8.352  1.5113 -1.6465  0.7369
  398MOL0     H53729   5.898   7.272   8.328  1.0913 -0.8749 -1.9997
  398MOL0     H53730   6.009   7.128   8.329  1.0278  0.2793 -0.0587
  399MOL0     O53731   2.849   8.918   7.015  0.1742  0.4177 -0.0441
  399MOL0     C53732   2.837   8.800   6.988 -0.6059 -0.9810  0.7422
  399MOL0     O53733   2.932   8.703   7.014 -0.0824  0.1219  0.0440
  399MOL0     C53734   3.047   8.751   7.076 -0.4334  0.0926 -0.3001
  399MOL0     C53735   3.067   8.783   7.211  0.3726  0.5338  0.0924
  399MOL0     C53736   3.190   8.817   7.258 -0.8034 -0.2122  0.4450
  399MOL0     C53737   3.296   8.838   7.168  0.0531 -0.2975 -0.1494
  399MOL0     O53738   3.420   8.887   7.219 -0.2580 -0.7894  0.1156
  399MOL0     C53739   3.524   8.909   7.125  0.9904 -0.3896 -1.0535
  399MOL0     C53740   3.653   8.943   7.198  0.6823  0.6151 -0.3436
  399MOL0     C53741   3.760   8.968   7.091  0.1349  0.2922 -0.4061
  399MOL0     C53742   3.894   8.995   7.168  0.6324  0.2315  0.2934
  399MOL0     C53743   4.000   9.021   7.067 -0.3934  0.3025  0.2040
  399MOL0     C53744   4.143   9.048   7.127  0.3111  0.5722  0.0172
  399MOL0     C53745   4.146   9.193   7.178  0.1750  0.0847  0.3326
  399MOL0     C53746   4.256   9.238   7.266 -0.0215 -0.6463 -0.8845
  399MOL0     N53747   4.379   9.231   7.191 -0.5536  0.4485  0.0309
  399MOL0     C53748   4.474   9.324   7.205  0.5531 -0.3470 -0.0840
  399MOL0     C53749   4.589   9.273   7.155 -0.0669 -0.6432 -0.5104
  399MOL0     C53750   4.721   9.342   7.148 -0.3155  0.8412 -0.6057
  399MOL0     C53751   4.834   9.248   7.105 -0.1687  0.3126  0.5303
  399MOL0     C53752   4.970   9.315   7.147  1.0005 -0.0514 -0.2209
  399MOL0     C53753   5.092   9.241   7.097 -0.6728 -0.1244  0.0155
  399MOL0     O53754   5.091   9.103   7.130 -0.2165 -0.4040  0.1314
  399MOL0     C53755   5.205   9.026   7.096 -0.2912 -0.3561 -1.2789
  399MOL0     C53756   5.192   8.888   7.113 -1.1484 -0.0460  0.3128
  399MOL0     C53757   5.305   8.802   7.087  1.1110 -0.1607 -0.2278
  399MOL0     C53758   5.428   8.849   7.047  0.2481 -0.1096  0.5064
  399MOL0     C53759   5.534   8.748   7.014 -0.0573  0.1831 -0.5284
  399MOL0     O53760   5.642   8.799   6.950 -0.5607 -0.0143  0.1713
  399MOL0     C53761   5.746   8.718   6.911  0.6361 -0.5413  0.2283
  399MOL0     C53762   5.720   8.601   6.839 -0.2954  0.6241  0.2549
  399MOL0     C53763   5.828   8.510   6.809  0.4580 -0.4972 -0.7475
  399MOL0     C53764   5.959   8.561   6.837  0.4470  0.5242 -0.5248
  399MOL0     O53765   6.058   8.478   6.806  0.4513  1.0409  0.5534
  399MOL0     C53766   6.050   8.338   6.825 -0.4420  0.4006  1.2943
  399MOL0     C53767   6.159   8.314   6.922  0.0889 -0.2111 -0.1973
  399MOL0     C53768   6.300   8.295   6.868  0.5119  0.4495  0.4514
  399MOL0     C53769   6.380   8.425   6.857 -0.2064  0.6057 -0.0924
  399MOL0     C53770   6.440   8.463   6.991  0.0186  0.6657 -0.1460
  399MOL0     C53771   6.533   8.583   6.963 -0.3678 -0.3412 -0.1324
  399MOL0     C53772   6.601   8.624   7.101  0.3720  0.2294  0.2240
  399MOL0     C53773   6.662   8.767   7.085  0.1884  0.3907 -0.3730
  399MOL0    Cl53774   6.794   8.751   6.978 -0.4036 -0.4235  0.0226
  399MOL0     C53775   5.978   8.689   6.889 -0.6842  0.0883  0.3910
  399MOL0     C53776   5.872   8.767   6.925 -0.4408 -0.0837  0.5441
  399MOL0     O53777   5.514   8.631   7.051  0.0987 -0.4035 -0.0626
  399MOL0     C53778   5.438   8.991   7.020 -0.1006  0.1258  0.0293
  399MOL0     C53779   5.327   9.076   7.053 -0.7849  0.6204 -0.7933
  399MOL0     N53780   4.555   9.150   7.102  0.4217  1.4854  0.0838
  399MOL0     N53781   4.430   9.124   7.126  0.4504  0.3949 -0.8031
  399MOL0     C53782   3.286   8.803   7.039  0.7420  0.4750 -0.5069
  399MOL0     C53783   3.163   8.763   6.993  0.2002  0.5942  0.5118
  399MOL0     C53784   2.725   8.768   6.895 -0.4714 -0.7441 -0.4829
  399MOL0     C53785   2.715   8.870   6.795  0.7604 -0.2966  0.4924
  399MOL0     C53786   2.604   8.865   6.714  0.1148 -0.3433  0.5620
  399MOL0     C53787   2.525   8.752   6.702  1.0999  0.0708 -0.7975
  399MOL0     O53788   2.439   8.743   6.601  0.6608  0.2970 -0.2913
  399MOL0     C53789   2.336   8.638   6.591 -0.5083  0.5310  0.2347
  399MOL0     C53790   2.249   8.670   6.466 -0.2733  0.4978  0.1081
  399MOL0     C53791   2.149   8.567   6.420 -0.5248 -0.0128  0.7778
  399MOL0     C53792   2.059   8.514   6.527  0.1353  0.1640 -0.3709
  399MOL0     C53793   2.122   8.412   6.613  0.2528 -0.2457  0.7670
  399MOL0     C53794   2.160   8.320   6.683 -0.4386 -0.1066  0.0345
  399MOL0     C53795   2.560   8.642   6.784 -0.0618  0.2641 -0.0609
  399MOL0     C53796   2.656   8.653   6.882  0.3826  0.3438  0.6259
  399MOL0     C53797   2.667   8.546   6.980  0.0418  0.9618  0.2184
  399MOL0     H53798   2.982   8.774   7.278 -0.8813  2.7944 -1.0528
  399MOL0     H53799   3.205   8.839   7.363  1.8775  2.0968 -0.2919
  399MOL0     H53800   3.546   8.818   7.069  1.4079 -2.5854  2.3971
  399MOL0     H53801   3.506   8.995   7.060 -1.6610 -0.0505  0.0162
  399MOL0     H53802   3.676   8.858   7.263  2.0655  0.0299 -1.5327
  399MOL0     H53803   3.649   9.038   7.252 -1.2684  1.5261 -1.9812
  399MOL0     H53804   3.734   9.054   7.030  1.6831  0.4420 -0.8943
  399MOL0     H53805   3.775   8.876   7.034 -0.3607 -0.5121  0.7159
  399MOL0     H53806   3.880   9.082   7.234 -0.8111  0.0538  0.2636
  399MOL0     H53807   3.922   8.912   7.233 -1.6058 -0.2387  0.7337
  399MOL0     H53808   4.004   8.934   7.002 -1.6828 -0.7315  1.4280
  399MOL0     H53809   3.968   9.102   7.000 -3.3940 -0.7927  0.1637
  399MOL0     H53810   4.161   8.981   7.212  2.4225  1.3980  0.2900
  399MOL0     H53811   4.226   9.019   7.062  2.6493  1.5377  2.3898
  399MOL0     H53812   4.056   9.215   7.237 -1.9970 -2.2309 -1.8594
  399MOL0     H53813   4.145   9.261   7.093  1.7648 -0.3793 -0.0862
  399MOL0     H53814   4.240   9.341   7.302  2.9337  0.0200 -1.2708
  399MOL0     H53815   4.251   9.173   7.354 -0.7751 -1.0472 -1.2104
  399MOL0     H53816   4.455   9.420   7.252  0.7590 -0.6017  0.5263
  399MOL0     H53817   4.710   9.423   7.076 -0.5694  2.1279  0.8475
  399MOL0     H53818   4.742   9.385   7.246  0.2556  0.6095 -0.6171
  399MOL0     H53819   4.826   9.150   7.153  2.2140 -0.2161 -0.0052
  399MOL0     H53820   4.837   9.243   6.996  2.1281 -0.3102  0.5678
  399MOL0     H53821   4.971   9.320   7.256 -0.8973 -2.3840 -0.0044
  399MOL0     H53822   4.969   9.420   7.116  0.7283  1.2984  3.7563
  399MOL0     H53823   5.172   9.302   7.141  0.0748 -1.9443  1.3300
  399MOL0     H53824   5.102   9.248   6.988 -2.0239  1.6783 -0.0273
  399MOL0     H53825   5.098   8.839   7.136 -0.8674  0.1125  1.9209
  399MOL0     H53826   5.286   8.697   7.104  0.2629 -0.1332 -0.9156
  399MOL0     H53827   5.621   8.561   6.822 -0.6450  1.5479  0.0517
  399MOL0     H53828   5.802   8.420   6.755  0.2691 -1.1240  0.3701
  399MOL0     H53829   5.961   8.308   6.881 -0.0266  1.7184  2.7398
  399MOL0     H53830   6.051   8.278   6.734 -0.9161  1.6655  0.4320
  399MOL0     H53831   6.157   8.382   7.008  1.0187  1.1519 -1.2058
  399MOL0     H53832   6.125   8.224   6.975  0.6716 -1.7536 -2.3059
  399MOL0     H53833   6.353   8.220   6.926  0.9130 -2.0524 -2.8790
  399MOL0     H53834   6.293   8.246   6.771  3.9579  0.4648  0.0602
  399MOL0     H53835   6.331   8.515   6.819  1.2542  2.2569  1.7058
  399MOL0     H53836   6.459   8.409   6.782 -0.5428  2.4431 -0.8792
  399MOL0     H53837   6.498   8.376   7.024 -2.4975 -1.9066 -2.0028
  399MOL0     H53838   6.358   8.477   7.063 -0.8637 -1.9371 -0.5403
  399MOL0     H53839   6.611   8.567   6.888  0.4506  4.0487 -0.5272
  399MOL0     H53840   6.460   8.657   6.927  1.2506  2.1240  1.3198
  399MOL0     H53841   6.673   8.544   7.123 -0.9051 -0.6619  1.3085
  399MOL0     H53842   6.526   8.622   7.180 -0.1266 -1.0765 -0.2514
  399MOL0     H53843   6.585   8.833   7.045 -1.2326 -0.3929  0.9710
  399MOL0     H53844   6.695   8.800   7.184  3.2767  0.7563 -1.4058
  399MOL0     H53845   6.076   8.729   6.911 -1.5983  0.7845  3.7667
  399MOL0     H53846   5.873   8.865   6.973 -2.9705 -0.7693  2.2151
  399MOL0     H53847   5.531   9.035   6.987  1.0152 -1.1673  1.3246
  399MOL0     H53848   5.354   9.181   7.047 -1.1649  0.9197  1.6951
  399MOL0     H53849   3.372   8.802   6.973  2.1377 -0.2820  1.2506
  399MOL0     H53850   3.149   8.740   6.888  1.0817  0.3453  0.4402
  399MOL0     H53851   2.782   8.955   6.799  1.6031 -0.9553  0.5472
  399MOL0     H53852   2.585   8.957   6.660 -0.3560 -0.6819  0.1484
  399MOL0     H53853   2.265   8.640   6.674 -1.5121 -1.9814 -0.4868
  399MOL0     H53854   2.385   8.542   6.573  0.9494  1.2528  0.1370
  399MOL0     H53855   2.313   8.691   6.380 -1.8872  0.0436 -1.2534
  399MOL0     H53856   2.190   8.760   6.488 -1.0193 -0.2078  1.1072
  399MOL0     H53857   2.208   8.481   6.387  1.8959 -0.6983  5.9295
  399MOL0     H53858   2.095   8.615   6.338  1.7761 -0.4256 -1.0983
  399MOL0     H53859   2.026   8.591   6.597  2.4419  1.0773 -0.1962
  399MOL0     H53860   1.964   8.478   6.488  0.8942 -1.2781 -0.9726
  399MOL0     H53861   2.183   8.237   6.746 -0.7464  0.9198  1.5610
  399MOL0     H53862   2.503   8.550   6.779 -0.1241  0.3058 -0.1208
  399MOL0     H53863   2.679   8.447   6.934 -1.1747  0.9764 -0.1658
  399MOL0     H53864   2.761   8.558   7.034  0.7060  1.6380 -1.0644
  399MOL0     H53865   2.580   8.559   7.046  0.0833  1.2483  0.2171
  400MOL0     O53866   4.204   3.550   8.410  0.0648  0.0614  0.2052
  400MOL0     C53867   4.186   3.673   8.384  0.1618 -0.2440 -0.1467
  400MOL0     O53868   4.279   3.771   8.410  0.1422  0.2237 -0.3911
  400MOL0     C53869   4.399   3.724   8.446 -0.3495 -0.2127 -0.8369
  400MOL0     C53870   4.455   3.738   8.580 -0.0034 -0.8971 -0.0438
  400MOL0     C53871   4.577   3.687   8.614 -0.2557  0.0116  0.5011
  400MOL0     C53872   4.667   3.633   8.517  0.4343 -0.2817 -0.2952
  400MOL0     O53873   4.790   3.590   8.564  0.1298  0.9715 -0.7002
  400MOL0     C53874   4.879   3.525   8.476  0.3560 -0.1630 -0.1040
  400MOL0     C53875   4.996   3.461   8.554 -0.2075 -0.2458 -0.1688
  400MOL0     C53876   5.111   3.429   8.457  0.5384  0.2572 -0.8157
  400MOL0     C53877   5.242   3.409   8.535 -0.3216  0.2425 -0.1463
  400MOL0     C53878   5.350   3.356   8.439 -0.3779 -0.6795  0.7479
  400MOL0     C53879   5.462   3.299   8.519  0.0129  0.3298 -0.6205
  400MOL0     C53880   5.562   3.225   8.421 -0.5550 -0.4637  0.2698
  400MOL0     C53881   5.690   3.175   8.497  0.4142  0.0029  0.4231
  400MOL0     N53882   5.776   3.112   8.405 -0.7648 -0.5419  0.0856
  400MOL0     C53883   5.758   2.991   8.345  0.3992  0.1164 -0.0891
  400MOL0     C53884   5.871   2.973   8.270  0.1744 -0.3651  0.0484
  400MOL0     C53885   5.920   2.872   8.180 -0.2561 -0.3192 -0.4070
  400MOL0     C53886   6.074   2.879   8.170  0.3538  0.0777 -0.6580
  400MOL0     C53887   6.126   2.786   8.058 -0.3461 -0.5805 -0.1023
  400MOL0     C53888   6.276   2.771   8.045  0.4609  0.6652  0.3560
  400MOL0     O53889   6.329   2.899   8.036  0.3165 -0.4839  0.0947
  400MOL0     C53890   6.463   2.920   8.055  0.5652  0.4917  0.2777
  400MOL0     C53891   6.491   3.055   8.060  0.8088  0.3792 -0.2913
  400MOL0     C53892   6.623   3.104   8.059 -0.9795 -0.5436 -0.2161
  400MOL0     C53893   6.724   3.007   8.058 -0.2822 -0.2699  0.1234
  400MOL0     C53894   6.867   3.051   8.067 -1.2893 -0.2888  0.6218
  400MOL0     O53895   6.958   2.959   8.045 -0.4063 -0.7020 -0.7209
  400MOL0     C53896   7.090   2.983   8.086  0.2843 -0.7521 -0.3549
  400MOL0     C53897   7.144   2.894   8.183  0.3718 -1.0544 -0.1386
  400MOL0     C53898   7.279   2.897   8.215 -0.3610 -0.1863  0.3651
  400MOL0     C53899   7.359   2.995   8.157  0.1083  0.4899 -0.4070
  400MOL0     O53900   7.494   2.999   8.180  0.9561 -0.4470  0.0873
  400MOL0     C53901   7.579   2.954   8.070 -0.1716  0.5566 -1.4018
  400MOL0     C53902   7.726   2.963   8.105  0.3742 -0.1335 -0.1533
  400MOL0     C53903   7.757   2.896   8.238  0.5352 -0.2524  0.1392
  400MOL0     C53904   7.724   2.750   8.257  0.0002 -0.3162  0.3127
  400MOL0     C53905   7.779   2.680   8.382  0.4222  0.1432 -0.4569
  400MOL0     C53906   7.934   2.682   8.393  0.3001  0.1413  0.2407
  400MOL0     C53907   7.962   2.622   8.526 -0.9863  0.7292 -0.4042
  400MOL0     C53908   8.095   2.544   8.530  0.1594 -0.6730  0.3165
  400MOL0    Cl53909   8.215   2.653   8.438  0.2198 -0.1493 -0.3531
  400MOL0     C53910   7.304   3.088   8.063 -0.0151  0.1406  0.3620
  400MOL0     C53911   7.170   3.085   8.034 -0.2384  0.1110  0.2912
  400MOL0     O53912   6.888   3.168   8.104 -0.9352  0.3130 -0.1616
  400MOL0     C53913   6.700   2.866   8.055  0.5054 -0.2414  0.1429
  400MOL0     C53914   6.564   2.824   8.052  0.3229 -0.3924 -0.5827
  400MOL0     N53915   5.954   3.073   8.301  0.4585 -0.2934 -0.8693
  400MOL0     N53916   5.904   3.149   8.389 -0.3774  0.4602  0.2749
  400MOL0     C53917   4.614   3.619   8.385 -0.1804 -0.7028  0.9079
  400MOL0     C53918   4.487   3.663   8.347  0.0506 -0.4057 -0.7820
  400MOL0     C53919   4.063   3.721   8.323  0.4733  0.4304 -0.2508
  400MOL0     C53920   4.054   3.849   8.271  0.7684  0.0802 -0.3616
  400MOL0     C53921   3.949   3.888   8.193 -1.0928 -0.1708 -0.6507
  400MOL0     C53922   3.826   3.820   8.189  0.1211  0.4486  0.6600
  400MOL0     O53923   3.713   3.860   8.125 -0.6473 -0.0872  0.3084
  400MOL0     C53924   3.701   3.998   8.136 -0.1444  0.2569  0.6691
  400MOL0     C53925   3.560   4.029   8.074  0.2395 -0.3803 -0.4266
  400MOL0     C53926   3.442   3.926   8.105  0.4567 -0.5098  0.4036
  400MOL0     C53927   3.425   3.880   8.256 -0.3313  0.4181  0.4217
  400MOL0     C53928   3.380   3.990   8.347 -0.8880 -0.9688 -0.4843
  400MOL0     C53929   3.351   4.099   8.406  0.1523  0.0166  0.2972
  400MOL0     C53930   3.827   3.691   8.246 -0.3991 -0.7409 -0.7989
  400MOL0     C53931   3.941   3.645   8.312  0.4604 -0.2114 -0.2901
  400MOL0     C53932   3.920   3.517   8.389  0.1147  0.4987 -0.2177
  400MOL0     H53933   4.396   3.789   8.657  0.3425 -1.7349  0.7921
  400MOL0     H53934   4.612   3.681   8.717  0.7867 -4.2721  0.1253
  400MOL0     H53935   4.825   3.449   8.418 -0.9089  0.2930  0.4233
  400MOL0     H53936   4.921   3.593   8.401  2.1137 -2.5894 -1.4704
  400MOL0     H53937   4.966   3.371   8.609 -0.5107 -1.7625 -2.6633
  400MOL0     H53938   5.028   3.536   8.627  1.6687 -0.0016 -1.1739
  400MOL0     H53939   5.128   3.496   8.372  1.7133  3.5050  1.7545
  400MOL0     H53940   5.075   3.335   8.413 -2.5660  1.2377 -0.6498
  400MOL0     H53941   5.270   3.501   8.588 -2.0722  0.3059  0.7241
  400MOL0     H53942   5.234   3.345   8.623 -0.3063  1.5248  0.8268
  400MOL0     H53943   5.299   3.290   8.369 -0.6011 -0.8507  1.0716
  400MOL0     H53944   5.400   3.438   8.385  2.5786 -0.9541  2.8071
  400MOL0     H53945   5.524   3.372   8.572 -0.0954  0.0940 -0.1583
  400MOL0     H53946   5.433   3.227   8.597  2.1623  1.0960  0.9874
  400MOL0     H53947   5.603   3.294   8.346  1.5411  1.1515  2.7257
  400MOL0     H53948   5.505   3.140   8.382 -0.4131 -1.7912  2.7434
  400MOL0     H53949   5.755   3.254   8.536  1.8545 -1.6327  1.4765
  400MOL0     H53950   5.661   3.103   8.573  3.7824 -1.9205  0.1011
  400MOL0     H53951   5.667   2.932   8.344 -0.0451  0.7605 -1.9055
  400MOL0     H53952   5.886   2.773   8.212 -2.5883  0.1390 -1.2426
  400MOL0     H53953   5.877   2.889   8.080  2.0413 -0.9725 -1.5678
  400MOL0     H53954   6.107   2.982   8.151  1.8508 -0.3920 -0.7032
  400MOL0     H53955   6.125   2.839   8.258  1.0827 -0.9175 -1.5092
  400MOL0     H53956   6.095   2.839   7.967  2.6735  2.8565  0.6391
  400MOL0     H53957   6.083   2.687   8.077 -1.2173  0.3947  3.9560
  400MOL0     H53958   6.297   2.709   7.958 -1.5338 -1.1445  1.1032
  400MOL0     H53959   6.312   2.725   8.138 -1.4686 -0.6814  0.4914
  400MOL0     H53960   6.413   3.130   8.070  1.0735  0.6957 -0.5827
  400MOL0     H53961   6.646   3.208   8.082 -0.5797  0.1250 -3.1879
  400MOL0     H53962   7.075   2.816   8.213 -0.6045 -1.5646 -3.3287
  400MOL0     H53963   7.304   2.820   8.288 -0.5230 -0.3977  0.1985
  400MOL0     H53964   7.555   2.852   8.039 -1.0998  0.1748  0.4033
  400MOL0     H53965   7.557   3.017   7.983 -4.2039 -0.2527 -1.1795
  400MOL0     H53966   7.772   2.913   8.019 -0.3586  1.5206 -1.5705
  400MOL0     H53967   7.755   3.068   8.114 -3.4499  1.0577 -0.0623
  400MOL0     H53968   7.865   2.908   8.254  0.9844 -2.0672 -1.2245
  400MOL0     H53969   7.711   2.943   8.325  1.6895  2.2262 -0.5120
  400MOL0     H53970   7.761   2.709   8.163 -2.1701  0.4393 -0.9663
  400MOL0     H53971   7.615   2.736   8.249  0.2497 -2.7739  0.7268
  400MOL0     H53972   7.735   2.579   8.381 -3.8974  1.8131  0.2452
  400MOL0     H53973   7.739   2.738   8.466  0.0107  1.4880 -1.5492
  400MOL0     H53974   7.993   2.633   8.316  1.7852 -0.8364  1.9261
  400MOL0     H53975   7.966   2.787   8.393  0.5981  0.0693 -1.1587
  400MOL0     H53976   7.888   2.548   8.557 -1.9866  1.3745 -1.1552
  400MOL0     H53977   7.967   2.698   8.604 -0.9084  0.3609 -0.0465
  400MOL0     H53978   8.123   2.531   8.635  0.3571 -1.1390  0.2079
  400MOL0     H53979   8.087   2.447   8.479 -1.9289  0.6063 -2.0462
  400MOL0     H53980   7.365   3.166   8.018 -0.4935  1.8693  2.5886
  400MOL0     H53981   7.123   3.145   7.957 -1.5571  1.3085  1.9404
  400MOL0     H53982   6.786   2.800   8.046  0.6729 -0.4909  2.7169
  400MOL0     H53983   6.556   2.717   8.034 -2.0238 -0.5016  0.7964
  400MOL0     H53984   4.684   3.570   8.318  3.9881  2.8355  2.1932
  400MOL0     H53985   4.452   3.658   8.244 -0.8091 -1.3707 -0.4610
  400MOL0     H53986   4.138   3.915   8.291  1.4098 -1.0440  0.8372
  400MOL0     H53987   3.956   3.984   8.143 -2.1166  0.0063 -0.4782
  400MOL0     H53988   3.781   4.056   8.090  2.1453 -2.0086  1.5504
  400MOL0     H53989   3.709   4.021   8.243  0.9312  0.0695  0.6395
  400MOL0     H53990   3.572   4.040   7.966  2.6242  4.6905  0.0923
  400MOL0     H53991   3.538   4.130   8.109  3.1474  0.9934 -2.1605
  400MOL0     H53992   3.463   3.837   8.045 -0.2798 -1.0499  0.9253
  400MOL0     H53993   3.349   3.966   8.063 -0.8834 -2.4042  1.4490
  400MOL0     H53994   3.351   3.800   8.266 -0.2843  0.4948  1.4936
  400MOL0     H53995   3.522   3.848   8.295 -0.2152  1.3146  0.8933
  400MOL0     H53996   3.326   4.196   8.444 -0.6966  0.4507 -1.2776
  400MOL0     H53997   3.737   3.630   8.251 -1.8137  1.2685 -0.0425
  400MOL0     H53998   3.817   3.487   8.409  0.4856 -0.8033 -0.1961
  400MOL0     H53999   3.954   3.435   8.325  1.3617  0.0386  0.9856
  400MOL0     H54000   3.976   3.520   8.483 -1.9982  3.1906  1.0826
  401MOL0     O54001   8.869   9.398   5.858  0.1253  1.0047 -0.0456
  401MOL0     C54002   8.876   9.364   5.980 -0.0027 -0.3965  0.0150
  401MOL0     O54003   8.990   9.376   6.059  0.1845 -0.0471  0.2619
  401MOL0     C54004   9.116   9.371   6.001 -0.7966  0.3924 -0.3420
  401MOL0     C54005   9.231   9.428   6.071 -0.4477  0.0785 -0.2304
  401MOL0     C54006   9.361   9.418   6.013  0.3652  0.0244 -0.6096
  401MOL0     C54007   9.385   9.359   5.882  0.3720  0.8586 -0.1853
  401MOL0     O54008   9.512   9.371   5.827  0.3568  0.5780  0.4083
  401MOL0     C54009   9.521   9.345   5.686  0.5277  0.5567  0.6294
  401MOL0     C54010   9.665   9.389   5.653  0.3287 -0.1332  0.1642
  401MOL0     C54011   9.765   9.285   5.705  0.3448  0.8913 -0.6028
  401MOL0     C54012   9.906   9.315   5.670 -0.2959  0.5887 -0.0656
  401MOL0     C54013   9.988   9.191   5.710 -0.5081  0.3706  0.4087
  401MOL0     C54014  10.136   9.224   5.716  0.0632  0.3476 -0.1926
  401MOL0     C54015  10.177   9.310   5.839 -1.1130 -0.0844  0.1546
  401MOL0     C54016  10.329   9.334   5.858 -0.2778  0.4559 -1.1125
  401MOL0     N54017  10.419   9.212   5.893 -0.7216 -0.7011 -0.1190
  401MOL0     C54018  10.492   9.141   5.804  0.6498  0.3484 -0.4870
  401MOL0     C54019  10.581   9.069   5.877  0.1886  0.4092 -0.3467
  401MOL0     C54020  10.692   8.989   5.815  0.5018 -0.0954 -0.0741
  401MOL0     C54021  10.787   9.055   5.719  0.4787  0.0433  0.0587
  401MOL0     C54022  10.927   9.001   5.736 -0.1625 -0.0015  0.3884
  401MOL0     C54023  10.935   8.853   5.682  0.5449  0.1951 -0.5261
  401MOL0     O54024  11.073   8.806   5.680  0.7416 -0.5450 -0.6711
  401MOL0     C54025  11.091   8.685   5.617 -1.1881 -0.4472 -0.4362
  401MOL0     C54026  11.218   8.650   5.577  0.1319 -0.1292  0.5219
  401MOL0     C54027  11.244   8.530   5.509  0.2300  0.7790  0.2730
  401MOL0     C54028  11.140   8.445   5.471  0.4202 -0.0701  0.1970
  401MOL0     C54029  11.173   8.335   5.380  0.9761  0.0410  0.0787
  401MOL0     O54030  11.294   8.330   5.326 -0.2557  0.2680  0.1323
  401MOL0     C54031  11.328   8.230   5.239  0.5622  0.2760  0.9569
  401MOL0     C54032  11.454   8.177   5.275 -0.1817  0.4738  0.0749
  401MOL0     C54033  11.510   8.096   5.177 -0.3225 -0.4904  0.0986
  401MOL0     C54034  11.448   8.054   5.060  0.4492 -0.2648 -0.0441
  401MOL0     O54035  11.513   7.972   4.974 -0.8636  0.2083 -0.5213
  401MOL0     C54036  11.444   7.863   4.922 -0.1312  0.6832 -0.6972
  401MOL0     C54037  11.417   7.869   4.774 -0.1737  0.0513 -0.1932
  401MOL0     C54038  11.544   7.882   4.681  0.0854 -0.1561 -0.3979
  401MOL0     C54039  11.510   7.865   4.531  0.4112  0.4125 -0.3234
  401MOL0     C54040  11.628   7.873   4.443  0.0271 -0.0349  0.2134
  401MOL0     C54041  11.647   8.006   4.376  0.5715 -0.4833 -0.6199
  401MOL0     C54042  11.781   8.018   4.301  0.7584 -0.2994 -0.4019
  401MOL0     C54043  11.813   7.896   4.219 -0.5125  0.4253 -0.3066
  401MOL0    Cl54044  11.905   7.762   4.303 -0.0801 -0.3427 -0.0467
  401MOL0     C54045  11.324   8.103   5.030 -0.1171  0.0324  0.0003
  401MOL0     C54046  11.261   8.194   5.113 -0.1563  1.1763 -0.7479
  401MOL0     O54047  11.087   8.257   5.347 -0.4664  0.5527  0.1037
  401MOL0     C54048  11.014   8.479   5.507  0.5989 -0.8491  0.0436
  401MOL0     C54049  10.994   8.586   5.594  0.3912  0.1950 -0.0280
  401MOL0     N54050  10.565   9.095   6.012  0.2281  0.0298  1.0032
  401MOL0     N54051  10.465   9.180   6.017 -0.9237 -0.2780 -0.3700
  401MOL0     C54052   9.276   9.293   5.822 -0.2980  0.2175 -0.0485
  401MOL0     C54053   9.145   9.303   5.879 -0.1262 -0.1983  0.4100
  401MOL0     C54054   8.752   9.358   6.055 -0.3582  0.8110 -0.5101
  401MOL0     C54055   8.634   9.402   5.983 -0.2278 -0.2413 -0.7938
  401MOL0     C54056   8.504   9.377   6.036 -0.0454 -0.0886  0.6524
  401MOL0     C54057   8.485   9.320   6.162 -0.1111  0.2192  0.7551
  401MOL0     O54058   8.365   9.288   6.212  0.3413 -0.0140 -0.0630
  401MOL0     C54059   8.236   9.321   6.145 -0.0116  0.5362 -0.0360
  401MOL0     C54060   8.117   9.248   6.201 -0.3634  1.0073  0.1407
  401MOL0     C54061   8.086   9.282   6.349  0.2400  0.3807  0.1815
  401MOL0     C54062   8.181   9.209   6.453 -0.4581 -0.3332  0.2385
  401MOL0     C54063   8.135   9.235   6.589 -0.1317 -0.0938 -0.0646
  401MOL0     C54064   8.108   9.253   6.706  0.1596  0.0220  0.1559
  401MOL0     C54065   8.602   9.278   6.230 -0.2587  0.0037 -0.2559
  401MOL0     C54066   8.729   9.303   6.186 -0.3958 -0.4988  1.1587
  401MOL0     C54067   8.826   9.268   6.291 -0.2929  0.1634 -0.1294
  401MOL0     H54068   9.221   9.470   6.171  1.6860  1.0192 -0.3692
  401MOL0     H54069   9.448   9.470   6.054 -0.4459  1.8167 -1.0648
  401MOL0     H54070   9.494   9.239   5.676 -0.1991  0.8145 -0.3168
  401MOL0     H54071   9.455   9.404   5.622  1.3594  1.3054  0.4416
  401MOL0     H54072   9.687   9.489   5.691  1.4816  1.0522 -3.2092
  401MOL0     H54073   9.663   9.398   5.544 -1.6473 -0.3885  0.1504
  401MOL0     H54074   9.734   9.186   5.669  3.3329  0.1396 -1.3479
  401MOL0     H54075   9.751   9.295   5.813 -0.1059  6.7205 -0.8619
  401MOL0     H54076   9.924   9.336   5.564 -2.6726  1.6141 -0.3200
  401MOL0     H54077   9.937   9.404   5.724  0.9072 -0.4560  1.0457
  401MOL0     H54078   9.964   9.138   5.803  1.2917 -2.2018 -0.4920
  401MOL0     H54079   9.966   9.117   5.633 -1.9920  1.3430 -0.1432
  401MOL0     H54080  10.194   9.130   5.716  1.1074  0.9729 -0.0142
  401MOL0     H54081  10.172   9.270   5.623  1.5404 -0.3804 -0.0166
  401MOL0     H54082  10.141   9.259   5.929  0.7681  3.1611  3.0159
  401MOL0     H54083  10.131   9.409   5.829  0.2807  0.4274 -1.7495
  401MOL0     H54084  10.361   9.388   5.768 -0.9407 -2.7590 -3.4444
  401MOL0     H54085  10.355   9.405   5.937 -2.4636 -0.1572  0.2487
  401MOL0     H54086  10.481   9.120   5.698 -0.7032  1.7077 -0.6542
  401MOL0     H54087  10.740   8.956   5.908 -0.9824  0.4970  0.9318
  401MOL0     H54088  10.650   8.902   5.764 -1.0541 -1.0618  2.6595
  401MOL0     H54089  10.756   9.027   5.617 -2.5015  0.3258  0.8027
  401MOL0     H54090  10.779   9.164   5.722  0.2152  0.0578 -0.7800
  401MOL0     H54091  10.961   9.003   5.840  1.3090 -1.5068 -0.0274
  401MOL0     H54092  11.003   9.060   5.683  1.6867 -1.9958  0.6921
  401MOL0     H54093  10.887   8.860   5.584 -0.5980  2.3703  0.1256
  401MOL0     H54094  10.886   8.781   5.749  0.6929 -0.3195 -0.9613
  401MOL0     H54095  11.294   8.725   5.596 -1.0689  1.7421 -1.5728
  401MOL0     H54096  11.350   8.523   5.488  0.5799 -0.0142  2.1498
  401MOL0     H54097  11.510   8.207   5.363 -0.7538  0.5682  0.4152
  401MOL0     H54098  11.616   8.074   5.190 -1.0891 -3.7887  1.9290
  401MOL0     H54099  11.522   7.788   4.940  0.4317  1.2807 -0.5944
  401MOL0     H54100  11.355   7.835   4.979  1.0660  2.6670  2.4130
  401MOL0     H54101  11.373   7.770   4.755 -2.8144  0.7726  1.6529
  401MOL0     H54102  11.353   7.955   4.752 -0.0904  0.6741  1.8385
  401MOL0     H54103  11.592   7.978   4.698 -1.1297  0.5306 -0.7063
  401MOL0     H54104  11.605   7.800   4.719 -1.0329 -1.0643 -0.4806
  401MOL0     H54105  11.439   7.941   4.498  1.1567  0.6356 -1.5057
  401MOL0     H54106  11.457   7.771   4.514  3.1617 -0.8227 -3.1778
  401MOL0     H54107  11.605   7.798   4.366  0.0595 -0.9903  1.1072
  401MOL0     H54108  11.717   7.842   4.499 -0.7100  1.4437  2.3266
  401MOL0     H54109  11.565   8.035   4.310  1.5085  1.3066 -1.0883
  401MOL0     H54110  11.643   8.078   4.459  0.9728  0.7590 -1.6384
  401MOL0     H54111  11.859   8.036   4.375 -0.7914 -1.6471  1.6901
  401MOL0     H54112  11.767   8.108   4.240 -3.3928  0.2698  1.0001
  401MOL0     H54113  11.720   7.862   4.173  0.7739 -1.5141 -1.5940
  401MOL0     H54114  11.883   7.934   4.145  1.1532  1.2325  1.5802
  401MOL0     H54115  11.257   8.066   4.953 -2.5442  0.3151  1.8703
  401MOL0     H54116  11.163   8.233   5.086 -1.7922 -1.7847  0.3804
  401MOL0     H54117  10.928   8.419   5.478 -1.2051  1.5530  0.1498
  401MOL0     H54118  10.892   8.607   5.625 -0.0060  0.6037 -1.5360
  401MOL0     H54119   9.279   9.242   5.726  1.3592  0.1974 -0.0164
  401MOL0     H54120   9.058   9.256   5.834  0.9345 -1.2807 -0.5845
  401MOL0     H54121   8.639   9.449   5.886 -1.7623 -0.5300 -1.0373
  401MOL0     H54122   8.419   9.386   5.969  0.5271 -0.9891 -0.2264
  401MOL0     H54123   8.249   9.288   6.041 -1.9389  0.0536 -0.1767
  401MOL0     H54124   8.217   9.429   6.136  0.1448  0.5273 -0.5027
  401MOL0     H54125   8.134   9.140   6.194 -0.8800  0.9652 -0.6644
  401MOL0     H54126   8.031   9.280   6.141 -0.5375  0.8775  0.3196
  401MOL0     H54127   7.979   9.263   6.367  0.3192  1.3627  1.8454
  401MOL0     H54128   8.096   9.389   6.366 -0.9250  1.0350 -2.5898
  401MOL0     H54129   8.198   9.102   6.439 -1.5412 -0.7117  1.7145
  401MOL0     H54130   8.282   9.252   6.454 -0.4156 -0.4246  1.8115
  401MOL0     H54131   8.091   9.309   6.796  1.2208 -0.4950  0.7005
  401MOL0     H54132   8.581   9.233   6.326 -0.3616 -2.0134 -1.1727
  401MOL0     H54133   8.840   9.160   6.303  2.1657  0.4092 -0.3196
  401MOL0     H54134   8.926   9.303   6.266 -0.5128 -0.6782 -2.4909
  401MOL0     H54135   8.796   9.314   6.385 -1.7511 -0.4550 -0.2599
  402MOL0     O54136   0.408   9.821   9.225 -0.3220 -0.3879  0.7306
  402MOL0     C54137   0.295   9.780   9.216  0.1735 -0.0923 -0.0162
  402MOL0     O54138   0.241   9.668   9.274 -0.3416 -0.3729  0.6386
  402MOL0     C54139   0.319   9.605   9.372  0.3978 -0.0691 -0.1875
  402MOL0     C54140   0.412   9.501   9.341  0.7012  0.5041 -0.5383
  402MOL0     C54141   0.520   9.464   9.425  0.8084 -0.4607 -0.1544
  402MOL0     C54142   0.526   9.509   9.558 -0.0469 -0.4352 -0.3674
  402MOL0     O54143   0.620   9.488   9.649 -0.2095  0.1306  0.2614
  402MOL0     C54144   0.648   9.341   9.666  0.6070 -0.3566  0.2399
  402MOL0     C54145   0.726   9.316   9.795  0.0792 -0.5709 -0.0725
  402MOL0     C54146   0.873   9.341   9.774  0.2909  0.4790 -0.3350
  402MOL0     C54147   0.943   9.335   9.914  0.8933  0.2141  0.3524
  402MOL0     C54148   1.091   9.327   9.907 -0.4863 -1.1923 -0.4983
  402MOL0     C54149   1.147   9.376  10.049  0.2518  0.6253  0.0407
  402MOL0     C54150   1.301   9.354  10.066 -0.8863 -0.7964  0.6228
  402MOL0     C54151   1.386   9.445   9.977 -0.9724 -0.5305  0.0290
  402MOL0     N54152   1.530   9.433  10.006  0.1107  0.1595 -0.4050
  402MOL0     C54153   1.598   9.316  10.017 -0.2565 -0.0780  0.0923
  402MOL0     C54154   1.726   9.354  10.050 -0.1711 -1.3740  0.0945
  402MOL0     C54155   1.840   9.262  10.064  0.4034 -0.1965 -0.3846
  402MOL0     C54156   1.981   9.324  10.058 -0.5595 -0.8830 -0.0456
  402MOL0     C54157   2.011   9.402   9.931  1.2305 -0.4820 -0.9847
  402MOL0     C54158   2.156   9.432   9.905  0.1961  0.0583  0.1185
  402MOL0     O54159   2.190   9.562   9.962 -0.2329  0.4379  0.2986
  402MOL0     C54160   2.322   9.596   9.985  0.8043  0.9777  1.1799
  402MOL0     C54161   2.428   9.530   9.919  0.0268 -0.5417 -0.3983
  402MOL0     C54162   2.558   9.572   9.950 -0.1743 -0.5877 -0.6434
  402MOL0     C54163   2.586   9.681  10.037 -0.4085  0.1522 -0.4719
  402MOL0     C54164   2.727   9.713  10.084  0.1775  0.1229 -0.9996
  402MOL0     O54165   2.816   9.673   9.994 -0.2633 -0.3513  0.6381
  402MOL0     C54166   2.948   9.699   9.997 -0.2792  0.5281 -0.8629
  402MOL0     C54167   3.028   9.731  10.113 -0.3589  0.9896 -0.4051
  402MOL0     C54168   3.164   9.749  10.100 -0.4701 -0.8116 -1.1655
  402MOL0     C54169   3.233   9.719   9.978  0.5527  0.5324  0.7410
  402MOL0     O54170   3.369   9.718   9.953  0.0006  0.7091  0.6113
  402MOL0     C54171   3.471   9.775  10.039  0.7524  0.5226 -0.2567
  402MOL0     C54172   3.507   9.915   9.986  0.8421 -0.5447  0.3086
  402MOL0     C54173   3.601   9.978  10.090 -0.5752 -0.1555 -0.2732
  402MOL0     C54174   3.621  10.137  10.070  0.1662  1.0975  0.8030
  402MOL0     C54175   3.682  10.210  10.197 -0.0580  0.3430  0.4481
  402MOL0     C54176   3.821  10.156  10.243  0.1922  0.5388  0.2025
  402MOL0     C54177   3.926  10.159  10.145  0.4900 -0.6156 -0.2792
  402MOL0     C54178   4.053  10.124  10.210 -1.0693  0.3100 -0.4396
  402MOL0    Cl54179   4.059   9.959  10.285 -0.1444  0.1511 -0.0465
  402MOL0     C54180   3.153   9.690   9.869  0.4611 -0.5798 -0.6847
  402MOL0     C54181   3.016   9.685   9.872  0.4864 -0.1338 -0.2166
  402MOL0     O54182   2.749   9.784  10.178  0.0721  0.1439  0.4243
  402MOL0     C54183   2.480   9.750  10.092 -0.1070 -0.1402 -0.1194
  402MOL0     C54184   2.348   9.706  10.064  0.0773 -0.1419  0.2153
  402MOL0     N54185   1.729   9.495  10.052  0.5877  0.7552  0.2551
  402MOL0     N54186   1.615   9.541  10.031  0.3186 -0.1688  0.1418
  402MOL0     C54187   0.429   9.607   9.595 -0.5088  0.2245  0.4515
  402MOL0     C54188   0.332   9.654   9.505 -0.5124 -0.2397  0.7120
  402MOL0     C54189   0.198   9.855   9.131 -0.0763 -0.5227  0.0134
  402MOL0     C54190   0.058   9.812   9.126  0.4973  0.5718 -0.3388
  402MOL0     C54191  -0.043   9.877   9.049 -1.0548 -0.3018 -0.0368
  402MOL0     C54192  -0.007   9.984   8.971 -0.3033  0.8214  0.2413
  402MOL0     O54193  -0.108  10.052   8.914  0.5019 -0.2027 -0.1709
  402MOL0     C54194  -0.102  10.189   8.934 -0.5012  0.4693 -0.3386
  402MOL0     C54195  -0.218  10.246   8.861  0.7832 -0.3741 -1.0745
  402MOL0     C54196  -0.358  10.217   8.926  1.2543 -0.2130 -0.3926
  402MOL0     C54197  -0.391  10.322   9.033 -0.3845 -0.0126  0.1965
  402MOL0     C54198  -0.449  10.442   8.969  0.7096 -0.0341 -1.0219
  402MOL0     C54199  -0.500  10.538   8.915  0.9522  0.1002 -0.0820
  402MOL0     C54200   0.126  10.023   8.966  0.2152  0.0810  0.8583
  402MOL0     C54201   0.228   9.968   9.049  0.1169 -0.3734  0.4362
  402MOL0     C54202   0.375  10.017   9.027  0.2526  0.8120  0.1335
  402MOL0     H54203   0.402   9.445   9.249  1.3074 -0.3030 -0.1328
  402MOL0     H54204   0.591   9.396   9.380 -2.1001 -0.8511 -4.9279
  402MOL0     H54205   0.550   9.295   9.681 -0.2303  1.8360  2.1922
  402MOL0     H54206   0.708   9.305   9.583  0.5531  2.5332 -1.1711
  402MOL0     H54207   0.696   9.220   9.839  1.0775  0.0113  1.9826
  402MOL0     H54208   0.696   9.394   9.865 -1.3234 -0.3974 -0.8254
  402MOL0     H54209   0.890   9.445   9.744  2.3495  0.8678  1.8712
  402MOL0     H54210   0.914   9.269   9.702 -0.5129  0.3740 -0.6919
  402MOL0     H54211   0.909   9.422   9.970  0.5222  0.6411 -0.5162
  402MOL0     H54212   0.914   9.244   9.967  0.3295  0.0927 -0.1503
  402MOL0     H54213   1.128   9.226   9.892  0.3952 -0.9036 -0.3371
  402MOL0     H54214   1.131   9.388   9.825 -0.6655 -1.9616 -1.1658
  402MOL0     H54215   1.125   9.480  10.073 -1.2531 -0.0087  1.6002
  402MOL0     H54216   1.100   9.324  10.133  0.0445  1.8279  0.6841
  402MOL0     H54217   1.322   9.250  10.040  1.5676  0.0069 -0.9298
  402MOL0     H54218   1.330   9.376  10.170  2.5649 -4.0750  0.5818
  402MOL0     H54219   1.367   9.420   9.872  1.5019 -2.7197  0.0044
  402MOL0     H54220   1.357   9.550   9.991 -0.6602 -0.8489  4.2818
  402MOL0     H54221   1.567   9.212  10.007  1.6655 -0.5662 -1.3043
  402MOL0     H54222   1.844   9.199  10.152  0.8976 -3.9961 -2.8955
  402MOL0     H54223   1.826   9.193   9.980  1.2529 -2.2693  1.1102
  402MOL0     H54224   1.989   9.402  10.134  0.3549  0.3575 -1.3693
  402MOL0     H54225   2.063   9.251  10.067  0.4078  0.2302  0.4003
  402MOL0     H54226   1.966   9.502   9.938  0.5494 -0.8357 -0.1410
  402MOL0     H54227   1.968   9.344   9.849 -3.0776 -0.2028  0.7923
  402MOL0     H54228   2.165   9.445   9.797  2.3565 -0.2322  0.2174
  402MOL0     H54229   2.217   9.349   9.942  0.5965 -0.0873 -0.8427
  402MOL0     H54230   2.413   9.441   9.859  2.2645 -0.4898 -1.1265
  402MOL0     H54231   2.646   9.518   9.916 -0.4596 -0.8389 -0.9951
  402MOL0     H54232   2.994   9.751  10.214 -3.0508 -0.6475 -0.8959
  402MOL0     H54233   3.227   9.771  10.185  0.2508 -0.8317 -1.6776
  402MOL0     H54234   3.435   9.781  10.142  0.1386  0.0621 -0.4401
  402MOL0     H54235   3.560   9.711  10.030  0.1688 -0.3095 -0.2579
  402MOL0     H54236   3.551   9.902   9.887  0.2478 -0.9743  0.0975
  402MOL0     H54237   3.415   9.973   9.971  2.8079  2.0328 -3.7050
  402MOL0     H54238   3.559   9.961  10.189 -0.5893  0.6102 -0.1417
  402MOL0     H54239   3.700   9.932  10.079 -0.7904 -0.3572 -1.5958
  402MOL0     H54240   3.524  10.185  10.051  0.0929  0.6807  0.0772
  402MOL0     H54241   3.670  10.150   9.973 -1.1174  6.6782  0.5748
  402MOL0     H54242   3.616  10.176  10.277  1.1897  1.1701  1.8782
  402MOL0     H54243   3.683  10.319  10.183  0.9569  0.4243  1.0794
  402MOL0     H54244   3.862  10.218  10.324  4.0945 -0.1591 -1.0097
  402MOL0     H54245   3.813  10.053  10.279  1.3011  0.4200  0.1348
  402MOL0     H54246   3.945  10.253  10.092  2.7263  0.1003  1.5997
  402MOL0     H54247   3.907  10.079  10.073  0.2999 -2.4296  1.6896
  402MOL0     H54248   4.135  10.134  10.139 -2.0304 -1.4032 -1.8670
  402MOL0     H54249   4.065  10.196  10.291 -0.7550  2.0872 -2.0048
  402MOL0     H54250   3.209   9.660   9.781 -0.3744  1.2229 -1.8992
  402MOL0     H54251   2.965   9.673   9.777  1.0297  1.0167 -0.6770
  402MOL0     H54252   2.503   9.834  10.158 -0.0289 -1.1343  1.1713
  402MOL0     H54253   2.260   9.765  10.091 -1.1861 -0.9619 -1.8491
  402MOL0     H54254   0.421   9.646   9.696 -3.0985 -1.1438  0.8671
  402MOL0     H54255   0.258   9.728   9.535 -0.1974  0.6262 -0.5500
  402MOL0     H54256   0.030   9.727   9.187 -2.2518  2.3510  1.0723
  402MOL0     H54257  -0.147   9.854   9.068 -0.5177 -0.9804  2.4169
  402MOL0     H54258  -0.021  10.235   8.876 -0.2539 -1.7327 -1.8142
  402MOL0     H54259  -0.103  10.223   9.039 -0.1311  2.6496 -0.9725
  402MOL0     H54260  -0.220  10.214   8.757  0.6700  3.2368 -2.3325
  402MOL0     H54261  -0.201  10.354   8.858 -2.9501  0.4156  0.5197
  402MOL0     H54262  -0.351  10.118   8.972  3.4707  0.0778  0.0096
  402MOL0     H54263  -0.431  10.232   8.846  0.9669  1.1758  0.1016
  402MOL0     H54264  -0.463  10.276   9.102 -1.9234  1.1145 -0.5843
  402MOL0     H54265  -0.307  10.342   9.100 -0.0319 -2.2743  0.5161
  402MOL0     H54266  -0.550  10.623   8.873  1.2860  0.1466 -0.3998
  402MOL0     H54267   0.150  10.103   8.897  1.7001 -1.4008 -0.4108
  402MOL0     H54268   0.412  10.078   9.111 -1.0026 -0.2345  1.5019
  402MOL0     H54269   0.439   9.930   9.013  0.0217  0.3033  1.9887
  402MOL0     H54270   0.374  10.080   8.937 -2.1318  0.0057 -0.4671
  403MOL0     O54271  10.469   0.173   7.476 -0.0764 -0.1983  0.7354
  403MOL0     C54272  10.402   0.065   7.478 -0.0716 -0.6105 -0.7719
  403MOL0     O54273  10.445  -0.055   7.430 -0.5354  0.3083  0.3454
  403MOL0     C54274  10.572  -0.087   7.410 -0.8886  0.2945 -0.3926
  403MOL0     C54275  10.657  -0.012   7.327  0.8123 -0.4225  0.2837
  403MOL0     C54276  10.789  -0.047   7.295 -0.2778  0.4113 -0.1526
  403MOL0     C54277  10.847  -0.163   7.365  0.4688 -0.3786  0.9449
  403MOL0     O54278  10.985  -0.184   7.344 -0.4064 -0.0908  0.5474
  403MOL0     C54279  11.064  -0.225   7.447 -0.2542  0.0687 -0.6664
  403MOL0     C54280  11.202  -0.163   7.431 -0.1692  0.7664  0.0522
  403MOL0     C54281  11.312  -0.215   7.520 -0.5688 -1.5170  0.2691
  403MOL0     C54282  11.445  -0.132   7.497  0.3610 -0.0118 -0.0601
  403MOL0     C54283  11.561  -0.179   7.589  0.1600 -0.5634 -0.3281
  403MOL0     C54284  11.631  -0.304   7.540 -0.5851 -0.0263 -0.7548
  403MOL0     C54285  11.775  -0.335   7.603  0.2167  0.8251 -0.1554
  403MOL0     C54286  11.891  -0.290   7.518 -0.1158  0.8429  0.3811
  403MOL0     N54287  12.023  -0.272   7.595  0.3069 -0.0027 -0.1552
  403MOL0     C54288  12.086  -0.380   7.649 -0.0892 -0.2562 -0.3849
  403MOL0     C54289  12.215  -0.334   7.661 -0.3480 -0.7718  0.7054
  403MOL0     C54290  12.328  -0.412   7.714 -0.5202 -0.2258 -1.1710
  403MOL0     C54291  12.321  -0.415   7.879  0.1367 -0.1215  0.0892
  403MOL0     C54292  12.361  -0.287   7.960 -0.9434  0.0070  0.5629
  403MOL0     C54293  12.511  -0.237   7.927 -0.6516  0.7780 -0.4563
  403MOL0     O54294  12.603  -0.351   7.914 -0.0051  1.2612 -0.3133
  403MOL0     C54295  12.738  -0.342   7.899  1.3695 -0.2526 -1.0487
  403MOL0     C54296  12.806  -0.459   7.895  0.2412 -0.5626  0.3277
  403MOL0     C54297  12.936  -0.470   7.860  0.3314 -0.2248  0.8762
  403MOL0     C54298  13.013  -0.354   7.835 -0.1424 -0.2204  0.3756
  403MOL0     C54299  13.155  -0.354   7.795  0.3491  0.8141 -0.1543
  403MOL0     O54300  13.225  -0.243   7.790  0.4983 -0.3132 -0.2479
  403MOL0     C54301  13.347  -0.241   7.736 -0.0262  0.8104 -0.2571
  403MOL0     C54302  13.446  -0.289   7.818 -0.1306 -1.1687  0.4317
  403MOL0     C54303  13.578  -0.297   7.763  0.6248 -0.6266 -0.3322
  403MOL0     C54304  13.605  -0.249   7.637  0.6786  0.1440  0.1933
  403MOL0     O54305  13.730  -0.265   7.585 -0.3989  0.3124 -0.4648
  403MOL0     C54306  13.778  -0.171   7.489  0.5010  0.1559 -0.2628
  403MOL0     C54307  13.928  -0.198   7.461  0.8145  0.3802 -0.3206
  403MOL0     C54308  14.010  -0.192   7.586  0.4916 -0.5382  0.2942
  403MOL0     C54309  14.161  -0.204   7.551  1.1899  0.0865 -0.0015
  403MOL0     C54310  14.243  -0.095   7.635 -0.5418 -0.0463  0.4584
  403MOL0     C54311  14.388  -0.148   7.662 -0.0257  1.0223  0.0378
  403MOL0     C54312  14.466  -0.165   7.536 -0.3091  0.8438  0.4989
  403MOL0     C54313  14.611  -0.201   7.548 -0.9034  0.4255 -0.0313
  403MOL0    Cl54314  14.687  -0.058   7.623 -0.1211  0.0977  0.4428
  403MOL0     C54315  13.498  -0.191   7.563 -0.8176  0.1048  0.0904
  403MOL0     C54316  13.372  -0.189   7.612  0.4676  0.5212  0.2501
  403MOL0     O54317  13.194  -0.468   7.764 -0.0882 -0.1947  0.3243
  403MOL0     C54318  12.936  -0.234   7.830  0.6768 -0.6769 -0.7373
  403MOL0     C54319  12.805  -0.224   7.873 -1.2641  0.1460 -0.2969
  403MOL0     N54320  12.225  -0.207   7.616 -0.1308  0.2722 -0.0491
  403MOL0     N54321  12.113  -0.175   7.562  0.2731 -0.0627 -0.3931
  403MOL0     C54322  10.764  -0.236   7.447  0.3800 -0.9360  0.0613
  403MOL0     C54323  10.630  -0.205   7.460  0.6096  0.7959 -0.4184
  403MOL0     C54324  10.259   0.070   7.515 -0.6847  0.5512 -0.2410
  403MOL0     C54325  10.224   0.096   7.649  0.6223 -0.0107  1.1329
  403MOL0     C54326  10.090   0.084   7.683 -1.0206 -0.0873  0.2988
  403MOL0     C54327   9.993   0.043   7.589  1.0614  0.2480  0.1169
  403MOL0     O54328   9.860   0.043   7.635  0.1024  0.0282  0.2468
  403MOL0     C54329   9.757   0.012   7.549 -0.3080  0.1539  0.1153
  403MOL0     C54330   9.664  -0.055   7.640 -0.3148  0.3632 -0.0751
  403MOL0     C54331   9.593   0.035   7.744 -0.4316  0.7782 -0.1434
  403MOL0     C54332   9.468  -0.028   7.818 -0.2572 -0.6021  0.2799
  403MOL0     C54333   9.510  -0.140   7.896 -0.8000  0.6019  0.0857
  403MOL0     C54334   9.561  -0.238   7.954 -0.0011 -0.2121  0.2048
  403MOL0     C54335  10.024   0.018   7.450  0.0704  0.1001 -0.1968
  403MOL0     C54336  10.162   0.032   7.419  0.0912  1.2975 -0.1617
  403MOL0     C54337  10.190  -0.005   7.280  0.2650 -0.3330  0.6813
  403MOL0     H54338  10.600   0.069   7.282  2.7755  0.5651 -0.5210
  403MOL0     H54339  10.843   0.018   7.227  0.5055  4.5771  3.9307
  403MOL0     H54340  11.024  -0.185   7.541  2.3692 -0.2072  0.6850
  403MOL0     H54341  11.076  -0.334   7.455 -2.5312 -0.3550 -2.0776
  403MOL0     H54342  11.193  -0.054   7.432 -0.0780  0.7702  0.7093
  403MOL0     H54343  11.231  -0.200   7.332 -2.5588 -3.5470  0.6985
  403MOL0     H54344  11.328  -0.321   7.497 -1.0218 -1.5162 -0.0676
  403MOL0     H54345  11.290  -0.208   7.627 -1.0090  1.2516  0.0734
  403MOL0     H54346  11.470  -0.133   7.390  1.0969 -1.9685  0.1000
  403MOL0     H54347  11.431  -0.024   7.512 -2.2629 -0.2918 -0.0193
  403MOL0     H54348  11.627  -0.093   7.599  0.7048 -1.0632  0.4781
  403MOL0     H54349  11.510  -0.201   7.684  0.4706  0.1594  0.0187
  403MOL0     H54350  11.563  -0.384   7.570 -0.6651 -0.0496 -0.9993
  403MOL0     H54351  11.643  -0.308   7.431  0.6739 -0.4258 -0.6250
  403MOL0     H54352  11.780  -0.443   7.619 -0.6268  0.2949 -2.9076
  403MOL0     H54353  11.789  -0.300   7.706  0.7135 -2.6274  1.0837
  403MOL0     H54354  11.902  -0.359   7.434 -1.0457  2.1869 -0.8926
  403MOL0     H54355  11.864  -0.199   7.464 -1.4931  1.7061  2.3778
  403MOL0     H54356  12.052  -0.481   7.669  0.7295 -0.7185 -1.2655
  403MOL0     H54357  12.316  -0.516   7.685  0.1149 -0.5616 -0.2669
  403MOL0     H54358  12.426  -0.383   7.676  0.9191 -2.2465  0.7681
  403MOL0     H54359  12.216  -0.430   7.908 -0.5358  4.6422  1.1258
  403MOL0     H54360  12.382  -0.499   7.914  0.4854 -0.7182 -1.8334
  403MOL0     H54361  12.351  -0.304   8.068  1.1148  1.4112  1.0361
  403MOL0     H54362  12.290  -0.215   7.918  0.7051  0.2323 -2.1138
  403MOL0     H54363  12.542  -0.171   8.009 -1.1415  0.7890 -0.2760
  403MOL0     H54364  12.504  -0.167   7.843  1.0359  1.0423 -0.4118
  403MOL0     H54365  12.757  -0.554   7.913  0.4444 -0.9398 -0.9697
  403MOL0     H54366  12.984  -0.565   7.879 -0.4543 -1.0847 -1.1090
  403MOL0     H54367  13.404  -0.332   7.908 -1.4690  2.1027  1.5348
  403MOL0     H54368  13.656  -0.338   7.827  1.0627  3.0708  1.8304
  403MOL0     H54369  13.723  -0.192   7.397 -0.5784  3.8837 -0.6323
  403MOL0     H54370  13.756  -0.069   7.523 -1.4909 -0.8059  1.5529
  403MOL0     H54371  13.940  -0.300   7.423 -1.9321  0.1291 -0.7356
  403MOL0     H54372  13.953  -0.129   7.379 -0.3207 -0.2377 -1.2119
  403MOL0     H54373  13.980  -0.099   7.636 -3.4059  0.8632 -3.9416
  403MOL0     H54374  13.986  -0.260   7.668 -0.5851 -2.5002 -1.5816
  403MOL0     H54375  14.169  -0.173   7.446  1.0631 -1.1758 -0.3969
  403MOL0     H54376  14.192  -0.309   7.558 -1.4719 -0.7828 -0.1670
  403MOL0     H54377  14.204  -0.081   7.737  1.2685  2.0580  0.9168
  403MOL0     H54378  14.245   0.005   7.592  0.0833  0.2507  1.1518
  403MOL0     H54379  14.437  -0.084   7.735 -1.0181  1.2581  0.5198
  403MOL0     H54380  14.377  -0.246   7.711 -0.7440  0.7306 -0.6731
  403MOL0     H54381  14.452  -0.083   7.465  2.3954  0.2251 -0.8886
  403MOL0     H54382  14.428  -0.253   7.484  3.9333 -1.8262  1.3833
  403MOL0     H54383  14.621  -0.285   7.617 -0.3525  2.0437  1.9835
  403MOL0     H54384  14.659  -0.217   7.451  0.0600  0.8589  0.3669
  403MOL0     H54385  13.514  -0.153   7.463 -1.2989  0.8915  0.2968
  403MOL0     H54386  13.283  -0.162   7.557 -1.5261 -1.2441  2.4264
  403MOL0     H54387  12.988  -0.139   7.821  0.5542 -0.1306  2.8163
  403MOL0     H54388  12.755  -0.128   7.866 -3.0629 -0.7401 -0.0323
  403MOL0     H54389  10.806  -0.320   7.502 -0.6418 -1.7286 -0.3569
  403MOL0     H54390  10.565  -0.265   7.522  0.3935  3.8484  2.5919
  403MOL0     H54391  10.284   0.130   7.732  1.1006 -0.2511  0.8868
  403MOL0     H54392  10.067   0.086   7.789 -1.9035  1.2635  0.1001
  403MOL0     H54393   9.786  -0.070   7.482  1.3215  0.6756  0.1314
  403MOL0     H54394   9.711   0.093   7.492 -0.5512 -0.0681 -0.0020
  403MOL0     H54395   9.712  -0.144   7.682 -0.8354  0.2509  0.2900
  403MOL0     H54396   9.591  -0.094   7.568  0.1571  1.0214 -0.9275
  403MOL0     H54397   9.558   0.117   7.682  0.3059  2.8608  2.0574
  403MOL0     H54398   9.669   0.060   7.819  1.4782  0.7521 -1.9724
  403MOL0     H54399   9.420   0.043   7.886  0.8031  0.1134  0.3006
  403MOL0     H54400   9.386  -0.064   7.755 -1.4268 -0.1293  1.4915
  403MOL0     H54401   9.593  -0.320   8.015  1.9292  2.8001  3.5878
  403MOL0     H54402   9.951  -0.014   7.375 -1.4830  0.8837  0.9186
  403MOL0     H54403  10.101   0.002   7.217  1.8520  0.0518 -1.6275
  403MOL0     H54404  10.266   0.058   7.233 -0.7305 -0.6203 -1.4383
  403MOL0     H54405  10.234  -0.105   7.270 -0.8945 -0.7088 -1.0546
  404MOL0     O54406  11.028   7.620   0.284  0.6026  0.2010 -0.3666
  404MOL0     C54407  11.005   7.515   0.224  0.0547  0.6963  0.3526
  404MOL0     O54408  11.092   7.407   0.209 -0.3284  0.5072  0.1408
  404MOL0     C54409  11.227   7.434   0.226  0.0474  0.3812  0.2125
  404MOL0     C54410  11.300   7.323   0.264 -0.1185 -0.6551 -0.8117
  404MOL0     C54411  11.435   7.334   0.294  0.1302  0.8569  0.0264
  404MOL0     C54412  11.496   7.453   0.258 -0.5847  0.5656 -0.1013
  404MOL0     O54413  11.634   7.478   0.279  0.4354  0.2120 -0.2266
  404MOL0     C54414  11.723   7.365   0.272 -0.5850  0.7164 -0.4023
  404MOL0     C54415  11.864   7.401   0.217 -0.3080  0.2398 -0.2512
  404MOL0     C54416  11.960   7.286   0.222 -0.0969  0.1766  0.0689
  404MOL0     C54417  12.086   7.334   0.159 -0.1778  0.7871  0.0607
  404MOL0     C54418  12.191   7.217   0.143 -0.7151 -0.0352  0.1406
  404MOL0     C54419  12.328   7.271   0.107  0.2637 -1.1758  0.2914
  404MOL0     C54420  12.419   7.155   0.073 -0.0869 -0.0563  0.7274
  404MOL0     C54421  12.528   7.200  -0.018 -0.6814 -0.7486  0.3338
  404MOL0     N54422  12.614   7.091  -0.059  0.1050 -0.3836  0.4322
  404MOL0     C54423  12.579   6.989  -0.143 -0.3154 -0.2345  1.2237
  404MOL0     C54424  12.695   6.930  -0.169  0.1886  0.1080 -0.0289
  404MOL0     C54425  12.708   6.806  -0.252 -0.1925  0.7079  0.6902
  404MOL0     C54426  12.666   6.834  -0.399 -0.9300 -0.0054  0.7891
  404MOL0     C54427  12.781   6.891  -0.488 -0.3960 -0.1828  0.0435
  404MOL0     C54428  12.901   6.812  -0.535  0.0307  0.3293 -0.3206
  404MOL0     O54429  12.985   6.755  -0.433 -0.2501  0.0416  0.6864
  404MOL0     C54430  13.114   6.804  -0.417  0.4827 -0.1750  0.5146
  404MOL0     C54431  13.144   6.936  -0.391  0.3846 -0.5451  0.5527
  404MOL0     C54432  13.274   6.983  -0.388 -0.0887  0.1015 -0.0637
  404MOL0     C54433  13.377   6.898  -0.400  0.5983  0.2805  0.1705
  404MOL0     C54434  13.511   6.959  -0.385 -0.8647 -0.4669  0.1284
  404MOL0     O54435  13.615   6.869  -0.388  0.2956 -0.1062  0.0931
  404MOL0     C54436  13.739   6.920  -0.372  0.4600 -0.4936  0.6870
  404MOL0     C54437  13.800   7.006  -0.463  0.0044 -0.2224  0.1996
  404MOL0     C54438  13.933   7.050  -0.446 -0.0938  0.0771 -0.0972
  404MOL0     C54439  14.000   7.017  -0.327 -0.0715 -0.1718 -0.6344
  404MOL0     O54440  14.131   7.057  -0.316 -0.0324  0.1902  0.2477
  404MOL0     C54441  14.225   6.976  -0.251  1.1158  1.1678  0.1829
  404MOL0     C54442  14.360   7.034  -0.288  0.5284  0.4553  0.1060
  404MOL0     C54443  14.472   6.926  -0.273  0.1894  0.3659 -0.2225
  404MOL0     C54444  14.611   6.981  -0.308  0.4537 -0.0215 -0.2783
  404MOL0     C54445  14.729   6.894  -0.260 -0.0638 -0.5223 -0.0361
  404MOL0     C54446  14.854   6.959  -0.284  0.4714 -0.3412  0.2474
  404MOL0     C54447  14.928   7.009  -0.158  0.3492  0.3126 -0.8783
  404MOL0     C54448  15.059   7.074  -0.184  0.0686 -0.6539  0.1503
  404MOL0    Cl54449  15.041   7.222  -0.292  0.2962  0.1901 -0.2929
  404MOL0     C54450  13.942   6.931  -0.230 -0.0088  0.2576 -0.1931
  404MOL0     C54451  13.814   6.878  -0.257  1.0281 -0.4219  0.1557
  404MOL0     O54452  13.527   7.085  -0.394 -0.5252 -0.4655 -0.3551
  404MOL0     C54453  13.349   6.761  -0.422 -0.3759 -0.0745 -0.3734
  404MOL0     C54454  13.214   6.716  -0.440  0.4300  0.3848  0.1821
  404MOL0     N54455  12.792   7.005  -0.113 -0.0389  0.2953 -0.3582
  404MOL0     N54456  12.744   7.105  -0.043  0.1160 -0.5552 -0.0454
  404MOL0     C54457  11.421   7.561   0.217  1.1525 -0.2757 -0.1913
  404MOL0     C54458  11.289   7.548   0.185 -0.5798 -0.1515  0.2179
  404MOL0     C54459  10.867   7.506   0.171 -0.4283 -0.0865 -0.3660
  404MOL0     C54460  10.794   7.621   0.136 -0.2083 -0.0341 -1.2454
  404MOL0     C54461  10.664   7.616   0.071  0.4953 -0.1584 -0.2501
  404MOL0     C54462  10.598   7.493   0.067 -0.5793 -0.7182 -0.0713
  404MOL0     O54463  10.475   7.501  -0.005 -0.6725 -0.2021 -0.9686
  404MOL0     C54464  10.395   7.378   0.003  0.2715 -0.2162  0.2501
  404MOL0     C54465  10.264   7.409  -0.060 -0.8196  0.4476  0.5928
  404MOL0     C54466  10.269   7.433  -0.208  0.1068  0.8096  0.3789
  404MOL0     C54467  10.138   7.443  -0.286 -0.5535  0.1743 -0.6855
  404MOL0     C54468  10.163   7.502  -0.419  0.7704  0.3175 -0.5707
  404MOL0     C54469  10.191   7.564  -0.515 -0.5295 -0.3102 -0.6641
  404MOL0     C54470  10.660   7.379   0.123  0.0201 -0.2476 -0.2024
  404MOL0     C54471  10.795   7.379   0.171  0.2099 -0.1273  0.2370
  404MOL0     C54472  10.851   7.250   0.220  0.4800 -0.4022  0.4202
  404MOL0     H54473  11.244   7.232   0.285 -1.0210 -0.0990 -0.7158
  404MOL0     H54474  11.488   7.248   0.333 -0.0921 -0.1870 -1.8290
  404MOL0     H54475  11.745   7.330   0.374  1.4548 -0.1084 -1.0750
  404MOL0     H54476  11.694   7.278   0.213 -0.7004  0.9629 -0.7162
  404MOL0     H54477  11.906   7.490   0.264 -2.1034  1.6516 -1.1701
  404MOL0     H54478  11.857   7.427   0.110  1.8307  0.9958 -0.2603
  404MOL0     H54479  11.931   7.193   0.172  0.3519 -0.5417  1.1040
  404MOL0     H54480  11.975   7.252   0.324 -1.6071 -2.1248 -0.4053
  404MOL0     H54481  12.077   7.389   0.064 -1.1746 -0.2779 -0.4837
  404MOL0     H54482  12.131   7.396   0.237  3.0592 -1.0235 -0.2180
  404MOL0     H54483  12.189   7.159   0.236 -0.0753  1.2091  0.9544
  404MOL0     H54484  12.174   7.150   0.058  0.8050 -1.9182  1.2393
  404MOL0     H54485  12.321   7.343   0.025  2.0802 -2.5318 -1.1427
  404MOL0     H54486  12.366   7.330   0.191  1.5505  2.4453 -2.5619
  404MOL0     H54487  12.357   7.077   0.028 -0.3167  1.2783 -1.3569
  404MOL0     H54488  12.454   7.113   0.169  1.2396 -1.7364 -0.4239
  404MOL0     H54489  12.486   7.248  -0.107 -0.4186 -0.3567  0.4175
  404MOL0     H54490  12.588   7.278   0.032 -2.7244  0.5861  0.8315
  404MOL0     H54491  12.479   6.964  -0.179  0.2632 -2.9078  1.2339
  404MOL0     H54492  12.814   6.777  -0.251 -0.2823  0.3220 -0.2517
  404MOL0     H54493  12.647   6.723  -0.216  2.5853 -2.7751 -1.8458
  404MOL0     H54494  12.651   6.739  -0.450 -0.2058  1.0065 -1.4683
  404MOL0     H54495  12.576   6.895  -0.405 -0.4737  0.6394  0.2508
  404MOL0     H54496  12.814   6.974  -0.425 -2.3568  0.7169 -0.0302
  404MOL0     H54497  12.740   6.917  -0.587 -1.5627 -1.3957  0.1764
  404MOL0     H54498  12.960   6.869  -0.608  0.0016  1.4114  0.4742
  404MOL0     H54499  12.867   6.724  -0.590  0.7936 -0.9891  1.2181
  404MOL0     H54500  13.070   7.015  -0.381  0.7664  0.4596 -3.1111
  404MOL0     H54501  13.289   7.090  -0.375  0.6337 -0.2232  2.2697
  404MOL0     H54502  13.733   7.031  -0.544 -0.4287  0.8808  0.8775
  404MOL0     H54503  13.980   7.106  -0.525 -1.7933 -1.4074 -2.2908
  404MOL0     H54504  14.212   6.982  -0.142  0.6253 -3.9598  0.6608
  404MOL0     H54505  14.220   6.873  -0.288  2.1383  1.3188 -0.4023
  404MOL0     H54506  14.362   7.083  -0.386  0.8667 -3.5125 -2.0940
  404MOL0     H54507  14.374   7.123  -0.227 -0.9233  2.7691 -2.7387
  404MOL0     H54508  14.479   6.909  -0.165  0.4766  2.1237  0.0710
  404MOL0     H54509  14.450   6.837  -0.332  2.0184  1.0556 -2.0579
  404MOL0     H54510  14.606   7.082  -0.266 -2.4019 -0.3496  0.3716
  404MOL0     H54511  14.615   7.002  -0.416 -2.0600  1.0081 -0.2392
  404MOL0     H54512  14.731   6.810  -0.330 -1.6524 -1.0024  0.4415
  404MOL0     H54513  14.716   6.855  -0.158 -0.0218 -1.5241 -0.4016
  404MOL0     H54514  14.902   6.873  -0.332 -2.3420 -2.7353  1.4023
  404MOL0     H54515  14.833   7.043  -0.351 -0.7684 -0.9356 -0.1508
  404MOL0     H54516  14.950   6.927  -0.089 -0.0676  1.2181  0.3798
  404MOL0     H54517  14.864   7.074  -0.097 -1.7200 -3.0471  0.8719
  404MOL0     H54518  15.104   7.106  -0.089  0.7334 -1.9330  0.2901
  404MOL0     H54519  15.131   7.007  -0.232  0.5240 -1.4391  1.8460
  404MOL0     H54520  13.997   6.915  -0.138  0.2326  0.2581 -0.3386
  404MOL0     H54521  13.766   6.804  -0.194  2.0548 -1.7724 -0.6089
  404MOL0     H54522  13.431   6.690  -0.415 -0.4012 -0.9277 -5.1985
  404MOL0     H54523  13.181   6.614  -0.457  0.0086 -0.2960  4.1452
  404MOL0     H54524  11.465   7.656   0.189  2.5688 -0.3039  1.6929
  404MOL0     H54525  11.239   7.639   0.156  2.4525  2.5894  2.7602
  404MOL0     H54526  10.841   7.718   0.137  1.3738 -0.7752  0.1012
  404MOL0     H54527  10.612   7.707   0.044  0.3089  0.1217  0.9888
  404MOL0     H54528  10.374   7.333   0.100 -0.1630 -1.7360 -0.5223
  404MOL0     H54529  10.432   7.294  -0.057 -1.6137 -0.2248 -1.0091
  404MOL0     H54530  10.238   7.500  -0.004 -3.1434  1.3338 -1.7333
  404MOL0     H54531  10.185   7.341  -0.028 -0.6935  0.1593  0.2999
  404MOL0     H54532  10.327   7.349  -0.248 -0.3395 -1.0715  3.3659
  404MOL0     H54533  10.323   7.526  -0.228 -0.8741  1.4767  0.7692
  404MOL0     H54534  10.083   7.348  -0.295 -3.7833  2.0302 -2.4574
  404MOL0     H54535  10.074   7.511  -0.229  1.2821  1.9071 -0.5797
  404MOL0     H54536  10.212   7.619  -0.605 -2.4746 -1.1128 -1.6840
  404MOL0     H54537  10.607   7.285   0.124  1.1282 -0.9551  3.2578
  404MOL0     H54538  10.889   7.270   0.320  2.9315  0.3538 -0.5683
  404MOL0     H54539  10.768   7.179   0.219 -0.9689  1.0637 -3.6245
  404MOL0     H54540  10.934   7.209   0.160  2.0277  3.5545 -0.4769
  405MOL0     O54541   6.021   2.791   1.787 -0.0781  0.1429  0.0803
  405MOL0     C54542   6.017   2.778   1.907  0.6217  0.1237 -0.2457
  405MOL0     O54543   6.123   2.792   1.997  0.1673  0.3794  0.0362
  405MOL0     C54544   6.248   2.805   1.939  0.3215 -0.3465  1.5972
  405MOL0     C54545   6.334   2.700   1.932  0.3608 -0.7561  0.0275
  405MOL0     C54546   6.465   2.720   1.894  0.3153 -0.9128  0.1236
  405MOL0     C54547   6.518   2.849   1.857 -0.0381  0.3287  0.6371
  405MOL0     O54548   6.644   2.866   1.812 -0.2799  0.1616 -0.0947
  405MOL0     C54549   6.719   2.753   1.781  0.2592  0.4903  0.0787
  405MOL0     C54550   6.840   2.807   1.708 -0.5723  0.3560 -0.2630
  405MOL0     C54551   6.806   2.890   1.592 -0.5390  0.7139 -0.0559
  405MOL0     C54552   6.916   2.928   1.499  0.7291  0.1829  0.4068
  405MOL0     C54553   7.042   2.981   1.571  0.5153 -0.1224  0.7593
  405MOL0     C54554   7.015   3.106   1.662 -0.0505 -0.8370 -0.1408
  405MOL0     C54555   7.123   3.138   1.773 -0.1317  0.8452 -0.3484
  405MOL0     C54556   7.253   3.193   1.712  0.5894  0.1563 -0.1626
  405MOL0     N54557   7.332   3.261   1.812 -0.7499  0.0506  0.2787
  405MOL0     C54558   7.391   3.389   1.791  0.0296 -0.1162 -0.8396
  405MOL0     C54559   7.484   3.406   1.892  0.0078 -0.5138 -1.3944
  405MOL0     C54560   7.581   3.524   1.905 -0.3673 -0.1194  0.4885
  405MOL0     C54561   7.517   3.657   1.957  0.6369  0.4186 -0.3977
  405MOL0     C54562   7.608   3.777   1.962 -0.1417  0.5453  0.9911
  405MOL0     C54563   7.681   3.792   2.092  0.9341 -0.0976  0.5091
  405MOL0     O54564   7.750   3.912   2.091  0.3302 -0.2987 -0.5842
  405MOL0     C54565   7.885   3.907   2.137  0.8421  0.3349 -0.5201
  405MOL0     C54566   7.963   4.016   2.092 -0.4010  0.0697 -0.3612
  405MOL0     C54567   8.086   4.048   2.154 -0.7487 -0.1348  0.2064
  405MOL0     C54568   8.144   3.955   2.248 -0.2467  0.2968 -1.1675
  405MOL0     C54569   8.278   3.977   2.305 -0.7104 -0.3375 -0.1571
  405MOL0     O54570   8.333   4.100   2.277 -0.6337  0.7061  0.0436
  405MOL0     C54571   8.460   4.123   2.334  0.9386 -0.2439  0.0055
  405MOL0     C54572   8.481   4.119   2.469 -0.1560 -1.0565 -0.7632
  405MOL0     C54573   8.611   4.152   2.516  0.3916  0.9150  0.6993
  405MOL0     C54574   8.708   4.195   2.425  0.2882 -0.0360 -0.7076
  405MOL0     O54575   8.833   4.232   2.478 -0.2370 -0.1581 -0.2621
  405MOL0     C54576   8.927   4.298   2.394  1.2361 -0.0198  0.2298
  405MOL0     C54577   9.035   4.346   2.490 -0.2506 -0.7661  0.0597
  405MOL0     C54578   9.130   4.230   2.535 -0.6694  0.7904  0.0274
  405MOL0     C54579   9.271   4.292   2.566  0.2068 -0.8988  0.9452
  405MOL0     C54580   9.371   4.187   2.607  0.6472 -1.2529 -0.4293
  405MOL0     C54581   9.500   4.269   2.649  0.0059 -0.1119  1.0512
  405MOL0     C54582   9.612   4.166   2.690 -0.3297 -0.3503  1.0336
  405MOL0     C54583   9.743   4.220   2.753 -0.5955  0.2760 -0.1988
  405MOL0    Cl54584   9.877   4.111   2.785 -0.2140  0.1047  0.1672
  405MOL0     C54585   8.681   4.193   2.292 -1.1541  0.0312 -0.2598
  405MOL0     C54586   8.555   4.171   2.247  0.1642  0.0595 -0.3848
  405MOL0     O54587   8.335   3.895   2.380  0.1364 -0.0196 -0.2889
  405MOL0     C54588   8.064   3.852   2.291  0.4191 -0.5857  0.5320
  405MOL0     C54589   7.932   3.829   2.242  0.2021  0.1343 -0.0815
  405MOL0     N54590   7.478   3.290   1.958 -0.1809 -0.3845  0.8300
  405MOL0     N54591   7.396   3.208   1.911  0.2640  0.2596  0.0170
  405MOL0     C54592   6.428   2.954   1.857 -0.9808  0.6680 -0.0812
  405MOL0     C54593   6.297   2.934   1.898  0.6197 -0.3762 -0.0860
  405MOL0     C54594   5.897   2.716   1.957  0.6875 -0.5583  0.1992
  405MOL0     C54595   5.914   2.602   2.041  0.7278  0.6283 -0.3744
  405MOL0     C54596   5.803   2.549   2.103 -0.4334 -0.6116 -0.2151
  405MOL0     C54597   5.673   2.587   2.070  0.7217  0.1901 -0.1228
  405MOL0     O54598   5.574   2.511   2.133 -0.9491  0.0115 -0.8827
  405MOL0     C54599   5.438   2.532   2.078  0.4091 -0.8924  0.1068
  405MOL0     C54600   5.347   2.419   2.130  0.8510 -0.5071  0.2508
  405MOL0     C54601   5.205   2.445   2.079  0.7443 -0.2758 -0.1049
  405MOL0     C54602   5.110   2.352   2.156  0.4345  0.0851  0.5417
  405MOL0     C54603   5.107   2.377   2.298 -0.2551 -0.5799  0.1209
  405MOL0     C54604   5.095   2.392   2.413 -0.0414  0.0704 -0.5382
  405MOL0     C54605   5.655   2.677   1.963  0.5362 -0.4603  0.2024
  405MOL0     C54606   5.766   2.747   1.918  0.6618 -0.3391  0.1485
  405MOL0     C54607   5.738   2.850   1.810 -0.0720  0.1290 -0.4506
  405MOL0     H54608   6.307   2.601   1.966 -4.4825 -0.0839 -1.2115
  405MOL0     H54609   6.528   2.632   1.900  3.9578  1.3545 -1.4806
  405MOL0     H54610   6.755   2.702   1.871  0.6882 -1.3082 -1.0665
  405MOL0     H54611   6.668   2.680   1.716 -0.3007 -0.3602  1.4232
  405MOL0     H54612   6.907   2.727   1.677  2.7124  2.6163  0.4928
  405MOL0     H54613   6.907   2.853   1.781  0.4630  0.9064 -1.5355
  405MOL0     H54614   6.760   2.980   1.634 -1.3560 -1.5426  4.5239
  405MOL0     H54615   6.725   2.840   1.538 -1.5304  2.5380 -0.3433
  405MOL0     H54616   6.949   2.841   1.442 -0.1672  1.0226 -1.4781
  405MOL0     H54617   6.876   3.007   1.435 -1.0803  0.8827  2.2940
  405MOL0     H54618   7.100   2.901   1.617 -0.1700 -0.5207  0.9347
  405MOL0     H54619   7.102   3.027   1.491  1.7836  1.5099  2.5448
  405MOL0     H54620   7.006   3.198   1.603 -1.7910  0.1200  1.5092
  405MOL0     H54621   6.922   3.086   1.716 -0.3662 -1.5206 -0.9047
  405MOL0     H54622   7.134   3.046   1.831 -0.6741  0.7160 -0.4509
  405MOL0     H54623   7.082   3.220   1.833 -0.4953  3.2586 -3.6248
  405MOL0     H54624   7.304   3.113   1.657  0.9418 -0.5775  1.1679
  405MOL0     H54625   7.237   3.270   1.636  2.2616  3.0442  2.2062
  405MOL0     H54626   7.378   3.460   1.710 -0.3086 -0.3807 -1.0178
  405MOL0     H54627   7.666   3.492   1.967  0.8496  1.0414 -0.5411
  405MOL0     H54628   7.624   3.533   1.805 -1.0449 -0.0138  0.2008
  405MOL0     H54629   7.432   3.677   1.891 -1.0614  1.0829  1.8589
  405MOL0     H54630   7.478   3.650   2.059  0.9903  5.2079  0.3167
  405MOL0     H54631   7.541   3.864   1.958  0.8711  1.3555  1.1279
  405MOL0     H54632   7.675   3.783   1.876 -1.3922  0.0470 -0.0418
  405MOL0     H54633   7.736   3.698   2.098  2.4473  0.4849 -2.4484
  405MOL0     H54634   7.615   3.790   2.179 -2.1391 -1.1156 -1.6383
  405MOL0     H54635   7.920   4.080   2.016  0.0064 -0.7658 -1.3148
  405MOL0     H54636   8.145   4.131   2.117  1.0239 -1.3910  0.1068
  405MOL0     H54637   8.402   4.089   2.537 -3.0399  0.7702 -3.0563
  405MOL0     H54638   8.645   4.150   2.618  2.2361 -2.6745  0.1597
  405MOL0     H54639   8.975   4.245   2.311  1.6796  4.2457 -2.5455
  405MOL0     H54640   8.884   4.382   2.339  0.1746 -1.0433 -0.5518
  405MOL0     H54641   9.091   4.435   2.461 -2.9640  1.3784  0.9789
  405MOL0     H54642   8.967   4.383   2.567 -2.4258  4.6946 -3.8556
  405MOL0     H54643   9.089   4.176   2.620  1.8910 -1.8238 -0.2605
  405MOL0     H54644   9.136   4.144   2.468  4.3638 -1.1194  2.4476
  405MOL0     H54645   9.256   4.370   2.641  0.0814  1.1064 -1.0406
  405MOL0     H54646   9.310   4.336   2.474  0.5929  0.9304  1.9387
  405MOL0     H54647   9.402   4.124   2.524  1.9034  0.6299 -1.4770
  405MOL0     H54648   9.323   4.143   2.695 -4.6634  2.2500 -1.1290
  405MOL0     H54649   9.540   4.329   2.567  1.9238 -1.4193  0.9702
  405MOL0     H54650   9.479   4.332   2.736 -0.3592  0.2394  0.7130
  405MOL0     H54651   9.638   4.106   2.602 -2.7084  1.9926 -1.4385
  405MOL0     H54652   9.575   4.101   2.771 -0.3277 -0.4891  0.9234
  405MOL0     H54653   9.791   4.294   2.688  1.7218  1.2206  2.3846
  405MOL0     H54654   9.719   4.273   2.845  1.0339  2.5255 -0.9836
  405MOL0     H54655   8.755   4.215   2.217 -0.8468 -1.1521 -0.3181
  405MOL0     H54656   8.543   4.201   2.144 -1.7419  1.6171  0.2284
  405MOL0     H54657   8.095   3.772   2.358  0.4482 -0.6409  0.4540
  405MOL0     H54658   7.884   3.739   2.278  1.7951 -1.0963 -0.8774
  405MOL0     H54659   6.474   3.048   1.827  0.1867  0.4102  0.7898
  405MOL0     H54660   6.230   3.019   1.899  1.3003  0.1582  0.2808
  405MOL0     H54661   6.008   2.556   2.069 -0.1296 -0.1643  1.3767
  405MOL0     H54662   5.819   2.459   2.162 -0.6617 -3.0896 -3.6334
  405MOL0     H54663   5.441   2.518   1.969 -0.6751 -1.5839  0.1510
  405MOL0     H54664   5.395   2.629   2.103  2.1188 -0.5079  1.7515
  405MOL0     H54665   5.352   2.406   2.238  0.3932 -0.6991  0.2498
  405MOL0     H54666   5.371   2.325   2.080 -1.9599 -1.6356  0.7957
  405MOL0     H54667   5.194   2.432   1.971  1.5622 -0.9940 -0.1169
  405MOL0     H54668   5.176   2.547   2.104  0.7693  0.8199 -3.9791
  405MOL0     H54669   5.005   2.351   2.126  0.0560 -0.9003  1.7823
  405MOL0     H54670   5.150   2.253   2.135  0.0304  0.2549 -1.1480
  405MOL0     H54671   5.090   2.405   2.519 -0.5935  1.9808 -0.7757
  405MOL0     H54672   5.553   2.700   1.933  0.4052 -0.7602  0.4175
  405MOL0     H54673   5.790   2.827   1.717 -2.8505 -1.6057 -1.7178
  405MOL0     H54674   5.635   2.849   1.772  0.1331 -4.7930 -1.4362
  405MOL0     H54675   5.769   2.943   1.858 -0.7877 -0.7565  1.8713
  406MOL0     O54676   9.096   7.142  10.350  0.6940  0.8950  0.0231
  406MOL0     C54677   9.005   7.178  10.269  0.6281 -0.7541 -0.0939
  406MOL0     O54678   8.873   7.148  10.281 -0.3757  0.0496 -0.1317
  406MOL0     C54679   8.827   7.047  10.354 -0.3558 -0.3053  0.0371
  406MOL0     C54680   8.803   6.917  10.305  0.0680 -0.2309  0.4580
  406MOL0     C54681   8.759   6.821  10.395 -0.0752 -0.1783  0.6309
  406MOL0     C54682   8.745   6.849  10.530  0.0032  0.6822  0.1081
  406MOL0     O54683   8.693   6.746  10.607 -0.2404  0.2053 -0.5560
  406MOL0     C54684   8.596   6.760  10.714  0.4168  0.3676  0.2414
  406MOL0     C54685   8.553   6.624  10.766  0.3395  0.0598  0.4483
  406MOL0     C54686   8.656   6.574  10.874  0.6452 -0.0502  0.1901
  406MOL0     C54687   8.648   6.425  10.904  0.3413 -0.0584 -0.1911
  406MOL0     C54688   8.746   6.367  11.009 -0.3767  0.5052  0.5597
  406MOL0     C54689   8.888   6.398  10.969 -0.5735 -0.6268  1.0012
  406MOL0     C54690   8.995   6.321  11.053  1.1388 -0.9156  0.2230
  406MOL0     C54691   8.989   6.344  11.206 -0.6868 -0.3067  0.1414
  406MOL0     N54692   9.123   6.300  11.259  0.0402 -0.6006 -0.8228
  406MOL0     C54693   9.210   6.199  11.214  0.6950 -0.5507  0.1271
  406MOL0     C54694   9.312   6.202  11.301 -0.3754 -0.0073 -0.6941
  406MOL0     C54695   9.444   6.126  11.284  0.1663  0.1264  0.4269
  406MOL0     C54696   9.455   5.992  11.370  0.4575  0.0563  0.1349
  406MOL0     C54697   9.580   5.906  11.334 -0.0591  0.2890  0.3902
  406MOL0     C54698   9.713   5.983  11.333  0.2482  0.7024 -0.2388
  406MOL0     O54699   9.820   5.891  11.345 -0.1461 -0.1744  0.0666
  406MOL0     C54700   9.941   5.937  11.305 -0.6959 -0.4685  0.4407
  406MOL0     C54701   9.973   6.072  11.281  0.3790  0.5207  0.0038
  406MOL0     C54702  10.106   6.100  11.239  0.3270 -1.2955 -0.5245
  406MOL0     C54703  10.205   6.001  11.228 -0.2481 -0.0077  0.7221
  406MOL0     C54704  10.342   6.031  11.179  0.6057  0.1155 -0.1632
  406MOL0     O54705  10.364   6.157  11.123  0.3768 -0.3622 -0.2852
  406MOL0     C54706  10.486   6.192  11.061  0.3174  1.0444  0.3998
  406MOL0     C54707  10.497   6.174  10.921 -0.1285 -0.0014  0.0045
  406MOL0     C54708  10.610   6.228  10.856 -0.5507  0.3986  0.1931
  406MOL0     C54709  10.725   6.262  10.929  0.1927 -0.8788 -0.4963
  406MOL0     O54710  10.840   6.296  10.863 -0.3940 -0.6177 -0.5341
  406MOL0     C54711  10.947   6.368  10.936  0.4355  0.2199  0.3637
  406MOL0     C54712  11.073   6.364  10.860  0.2398  0.6019  0.1588
  406MOL0     C54713  11.110   6.217  10.809 -0.4727  0.5041  0.5797
  406MOL0     C54714  11.249   6.230  10.743 -0.3101  0.1623  0.6058
  406MOL0     C54715  11.323   6.101  10.721  0.0152  0.3749 -0.4266
  406MOL0     C54716  11.467   6.118  10.666 -0.1894 -0.3401  0.3822
  406MOL0     C54717  11.527   5.976  10.652  0.2361 -0.5276 -0.2223
  406MOL0     C54718  11.670   5.982  10.589  0.2259 -0.1795  1.1455
  406MOL0    Cl54719  11.760   5.816  10.604  0.2420  0.0486  0.6577
  406MOL0     C54720  10.707   6.266  11.066 -0.8492 -0.1803  0.0695
  406MOL0     C54721  10.588   6.242  11.134  0.4909 -0.6276  0.4891
  406MOL0     O54722  10.435   5.945  11.190  0.1906 -0.5281 -0.1299
  406MOL0     C54723  10.172   5.867  11.252  0.8525  0.1486  0.6127
  406MOL0     C54724  10.038   5.835  11.282 -0.8851  0.2187 -0.6023
  406MOL0     N54725   9.296   6.301  11.395 -0.6828 -0.0487 -0.9283
  406MOL0     N54726   9.183   6.356  11.376 -0.4908  0.5994  0.5618
  406MOL0     C54727   8.764   6.976  10.584  0.1802 -0.4348  0.4732
  406MOL0     C54728   8.817   7.072  10.494  0.4851  1.0255 -1.0332
  406MOL0     C54729   9.053   7.278  10.162  0.9934  1.2078  0.7089
  406MOL0     C54730   8.964   7.373  10.112  1.0154  0.3177 -0.0476
  406MOL0     C54731   8.998   7.463  10.007  1.3295 -0.0986  0.3777
  406MOL0     C54732   9.123   7.458   9.937 -0.5607  0.2569  0.2258
  406MOL0     O54733   9.159   7.544   9.840 -0.1946 -0.0606 -0.8225
  406MOL0     C54734   9.286   7.548   9.774 -0.2386 -0.5319 -0.3506
  406MOL0     C54735   9.283   7.450   9.654  0.5420 -0.5505 -0.8015
  406MOL0     C54736   9.158   7.441   9.564 -0.4365  0.5541 -0.3749
  406MOL0     C54737   9.146   7.312   9.488 -0.1798 -0.6496  0.0892
  406MOL0     C54738   9.052   7.328   9.382 -0.1837  0.1579  0.5810
  406MOL0     C54739   8.971   7.324   9.290 -0.3209  0.1686  0.4660
  406MOL0     C54740   9.200   7.348   9.975 -0.4598 -0.8003 -0.5203
  406MOL0     C54741   9.170   7.265  10.090  0.2038  0.0360 -0.3056
  406MOL0     C54742   9.280   7.164  10.121  0.1928 -0.1144 -0.5814
  406MOL0     H54743   8.814   6.885  10.202  0.0890 -2.3332  1.0566
  406MOL0     H54744   8.724   6.725  10.359  1.3021  0.8601 -4.0884
  406MOL0     H54745   8.640   6.824  10.791 -1.2044  0.8357  0.8226
  406MOL0     H54746   8.503   6.802  10.674 -1.1188 -1.1100  2.0384
  406MOL0     H54747   8.535   6.549  10.688 -2.9720  0.0852  1.0271
  406MOL0     H54748   8.453   6.628  10.810  0.1604 -1.6279  0.2729
  406MOL0     H54749   8.644   6.625  10.970 -1.5673  0.8803 -0.5315
  406MOL0     H54750   8.758   6.589  10.836  1.2826 -0.0812  1.8211
  406MOL0     H54751   8.548   6.404  10.944  1.0324 -1.1472  1.0387
  406MOL0     H54752   8.664   6.377  10.807 -3.2074  1.8499 -1.9346
  406MOL0     H54753   8.732   6.409  11.109  0.6108  0.3523  0.7783
  406MOL0     H54754   8.716   6.262  11.015 -2.6512  1.0212 -0.8159
  406MOL0     H54755   8.895   6.368  10.864 -0.6416  1.2397  0.4261
  406MOL0     H54756   8.904   6.505  10.987 -1.0871 -0.5243  0.8483
  406MOL0     H54757   9.093   6.353  11.018  0.8840 -1.0742 -0.6458
  406MOL0     H54758   8.990   6.213  11.037  0.3546 -1.3241  2.7592
  406MOL0     H54759   8.983   6.451  11.228 -2.6558 -0.4940  0.7065
  406MOL0     H54760   8.909   6.283  11.251 -0.7218 -1.8729 -1.8822
  406MOL0     H54761   9.187   6.145  11.122 -1.8624 -0.0946  0.4240
  406MOL0     H54762   9.451   6.109  11.176  0.6803 -1.7113  0.7045
  406MOL0     H54763   9.524   6.182  11.333  1.6760 -0.9035 -0.7515
  406MOL0     H54764   9.469   6.021  11.475  0.6372 -0.4469  0.2530
  406MOL0     H54765   9.365   5.931  11.358  0.6611 -0.1164 -0.5587
  406MOL0     H54766   9.567   5.868  11.232 -2.0917 -1.4576  1.2327
  406MOL0     H54767   9.588   5.817  11.396 -1.5102  0.2371  0.5539
  406MOL0     H54768   9.706   6.058  11.412 -1.2734  1.9893 -1.5283
  406MOL0     H54769   9.717   6.040  11.240 -0.7526  0.3116 -0.5411
  406MOL0     H54770   9.904   6.150  11.311  2.1639  1.2626  2.4215
  406MOL0     H54771  10.142   6.202  11.230  1.9023 -1.8446 -0.7051
  406MOL0     H54772  10.404   6.145  10.874 -0.2830  1.4355 -0.6117
  406MOL0     H54773  10.613   6.221  10.747 -1.5263 -0.9130  0.2232
  406MOL0     H54774  10.915   6.472  10.937  1.8079  0.7015 -0.8241
  406MOL0     H54775  10.969   6.322  11.033  0.7066 -1.4606 -0.4652
  406MOL0     H54776  11.066   6.423  10.768  1.2434 -0.0046 -0.3135
  406MOL0     H54777  11.158   6.396  10.921  1.8541  0.5505 -1.9456
  406MOL0     H54778  11.107   6.155  10.899 -0.5962  2.4452  1.9729
  406MOL0     H54779  11.042   6.172  10.736  0.4694 -0.2448  0.1366
  406MOL0     H54780  11.311   6.293  10.808  0.9587 -1.0059  0.5958
  406MOL0     H54781  11.237   6.278  10.646 -0.5689  0.8203  0.9582
  406MOL0     H54782  11.256   6.044  10.655  0.1298 -1.1803  0.7275
  406MOL0     H54783  11.332   6.040  10.811  0.3992 -0.9609 -1.3308
  406MOL0     H54784  11.469   6.165  10.567  1.0884 -2.1269 -0.5201
  406MOL0     H54785  11.523   6.186  10.731  0.1042 -0.1832 -0.0326
  406MOL0     H54786  11.462   5.908  10.597 -0.6376 -1.9759  2.4013
  406MOL0     H54787  11.539   5.931  10.751 -1.5333 -0.6979 -0.0645
  406MOL0     H54788  11.653   5.995  10.481 -0.7889  1.3908  1.4767
  406MOL0     H54789  11.735   6.064  10.619  2.0572 -1.1129 -0.0265
  406MOL0     H54790  10.788   6.295  11.132 -0.1452  2.9979 -1.9813
  406MOL0     H54791  10.583   6.240  11.242  1.9760  2.2257  0.7169
  406MOL0     H54792  10.248   5.794  11.227  1.6806  0.5179  1.9610
  406MOL0     H54793  10.019   5.729  11.295 -0.2710 -0.0006 -1.4284
  406MOL0     H54794   8.736   7.010  10.683  0.9149  0.4858  0.3792
  406MOL0     H54795   8.853   7.166  10.535  2.7248 -0.4874  0.7142
  406MOL0     H54796   8.867   7.387  10.158  1.8972  6.0627  0.8383
  406MOL0     H54797   8.927   7.535   9.966  0.4127 -1.2489 -0.0894
  406MOL0     H54798   9.367   7.524   9.843  0.7563 -1.8694 -1.8940
  406MOL0     H54799   9.307   7.649   9.736 -0.7906  0.8530  2.7578
  406MOL0     H54800   9.299   7.350   9.695  3.8465  0.8811  1.8117
  406MOL0     H54801   9.373   7.478   9.598 -0.7804  1.7575 -1.9313
  406MOL0     H54802   9.159   7.522   9.491 -0.1394  0.5544 -0.3731
  406MOL0     H54803   9.072   7.448   9.631  0.8015  0.8105  1.2608
  406MOL0     H54804   9.237   7.278   9.437 -0.1984  0.8806 -1.0500
  406MOL0     H54805   9.096   7.236   9.549 -2.7671  0.2449 -0.7951
  406MOL0     H54806   8.905   7.314   9.206  0.1818 -0.6764  0.1519
  406MOL0     H54807   9.300   7.337   9.933 -0.2571  1.3226 -0.7095
  406MOL0     H54808   9.380   7.199  10.092  0.2370  0.6817  0.4725
  406MOL0     H54809   9.290   7.144  10.228  2.2478 -0.4766 -0.7979
  406MOL0     H54810   9.256   7.071  10.068  1.7648 -2.1295  1.9560
  407MOL0     O54811   5.561   1.815   6.642 -0.1060  0.2628  0.3955
  407MOL0     C54812   5.623   1.733   6.705  0.0581  0.1172 -0.5732
  407MOL0     O54813   5.562   1.632   6.789 -0.1902 -1.2386  0.4188
  407MOL0     C54814   5.429   1.617   6.791  0.0494 -0.5469 -0.1346
  407MOL0     C54815   5.372   1.496   6.752 -0.2292 -0.0935  0.2771
  407MOL0     C54816   5.232   1.485   6.775  0.5618 -0.5641  0.5760
  407MOL0     C54817   5.147   1.583   6.829  0.1236  0.4139 -0.3657
  407MOL0     O54818   5.019   1.546   6.828 -0.2916  0.1938 -0.3193
  407MOL0     C54819   4.921   1.643   6.869 -0.6233 -0.2325 -0.5997
  407MOL0     C54820   4.792   1.573   6.889  0.7721  0.1261 -0.1260
  407MOL0     C54821   4.675   1.654   6.947 -0.6347 -0.8618  0.0221
  407MOL0     C54822   4.553   1.568   6.957  0.0549 -0.7462 -0.5229
  407MOL0     C54823   4.418   1.641   6.979 -0.2148  0.3576  0.3608
  407MOL0     C54824   4.405   1.693   7.115 -0.4415 -0.1718 -0.0991
  407MOL0     C54825   4.271   1.771   7.138 -0.9997 -0.2881  0.7952
  407MOL0     C54826   4.283   1.837   7.275  0.1384 -0.3684  0.6302
  407MOL0     N54827   4.396   1.940   7.280 -0.3229  0.0853  0.4329
  407MOL0     C54828   4.388   2.073   7.232 -0.0964  0.9206  0.1849
  407MOL0     C54829   4.509   2.119   7.262 -0.5023  0.1029  0.2445
  407MOL0     C54830   4.566   2.255   7.230 -0.5840  0.0348 -0.0303
  407MOL0     C54831   4.465   2.377   7.225  0.3391  0.2698  0.0226
  407MOL0     C54832   4.531   2.513   7.256 -0.0262  0.3882 -0.0168
  407MOL0     C54833   4.619   2.588   7.152 -0.0091 -0.3476  0.1396
  407MOL0     O54834   4.723   2.504   7.103  0.6376  0.1690 -0.1008
  407MOL0     C54835   4.840   2.488   7.182  0.2056  1.0135 -0.0266
  407MOL0     C54836   4.879   2.561   7.293 -0.3568 -0.8068  0.2693
  407MOL0     C54837   5.006   2.544   7.349  0.3708 -0.4257 -0.1365
  407MOL0     C54838   5.096   2.453   7.302  0.0673  0.1417 -0.1465
  407MOL0     C54839   5.226   2.446   7.370  0.7901  0.4568  0.2132
  407MOL0     O54840   5.331   2.379   7.300  0.6490  0.1425 -0.0144
  407MOL0     C54841   5.458   2.377   7.349  0.0223  0.5820  0.4125
  407MOL0     C54842   5.557   2.439   7.276 -0.8813  0.2442  0.2980
  407MOL0     C54843   5.696   2.423   7.300 -0.6765  1.3357  0.0646
  407MOL0     C54844   5.733   2.342   7.410 -0.1632  0.0137 -0.1400
  407MOL0     O54845   5.859   2.286   7.423 -0.2357  0.3943 -0.5363
  407MOL0     C54846   5.982   2.360   7.388  0.8312 -0.4577 -1.1975
  407MOL0     C54847   6.107   2.282   7.425 -0.9839 -0.0043  0.6876
  407MOL0     C54848   6.230   2.375   7.410  0.2515  0.5970 -0.4581
  407MOL0     C54849   6.360   2.302   7.436 -0.5691  0.2488  0.7902
  407MOL0     C54850   6.483   2.383   7.380  0.0550  0.4150  0.0217
  407MOL0     C54851   6.615   2.305   7.396  0.4516 -0.9668  0.8856
  407MOL0     C54852   6.735   2.391   7.378 -0.7470 -0.5244 -0.5618
  407MOL0     C54853   6.868   2.325   7.390 -0.5598 -0.1237 -0.2326
  407MOL0    Cl54854   6.904   2.196   7.272  0.2703  0.3307 -0.1048
  407MOL0     C54855   5.632   2.280   7.484  0.7739  0.7470 -0.1280
  407MOL0     C54856   5.495   2.299   7.457 -0.4657 -0.0729  0.2388
  407MOL0     O54857   5.242   2.510   7.473 -0.2211  0.2533 -0.6127
  407MOL0     C54858   5.054   2.368   7.193 -0.0800 -0.4337  0.0902
  407MOL0     C54859   4.924   2.393   7.134 -0.2944  0.4130 -0.9227
  407MOL0     N54860   4.586   2.028   7.327 -0.5267 -0.8043  0.3745
  407MOL0     N54861   4.523   1.921   7.341 -0.6068  0.3870  0.2714
  407MOL0     C54862   5.211   1.705   6.863  0.0651  0.5814  0.2394
  407MOL0     C54863   5.349   1.711   6.858  0.1260 -0.3367  1.6562
  407MOL0     C54864   5.772   1.735   6.689 -0.6188  0.5441 -0.1732
  407MOL0     C54865   5.840   1.614   6.738  0.6475  0.1917  0.2766
  407MOL0     C54866   5.979   1.605   6.730 -0.1261 -0.1622  0.6038
  407MOL0     C54867   6.051   1.703   6.664 -0.4436 -0.0161 -0.0197
  407MOL0     O54868   6.184   1.683   6.660 -0.5896  0.0854  0.4656
  407MOL0     C54869   6.270   1.739   6.556 -0.1155  0.4610  0.1881
  407MOL0     C54870   6.405   1.686   6.562  0.6030  0.0683  0.0081
  407MOL0     C54871   6.507   1.766   6.479 -0.0063  0.5289  0.0402
  407MOL0     C54872   6.653   1.716   6.483  0.4563  0.1501  0.4119
  407MOL0     C54873   6.738   1.808   6.418  0.6369 -0.5208  0.6614
  407MOL0     C54874   6.809   1.891   6.356 -0.4628 -0.5169 -0.6550
  407MOL0     C54875   5.990   1.816   6.602  0.0837  0.4127  0.3397
  407MOL0     C54876   5.850   1.832   6.610 -1.0239  0.1667 -0.2507
  407MOL0     C54877   5.789   1.940   6.526 -0.5761  0.3437  0.7334
  407MOL0     H54878   5.435   1.416   6.713  1.5088  1.6342 -0.6212
  407MOL0     H54879   5.182   1.393   6.745  0.9790  0.2772 -3.2596
  407MOL0     H54880   4.948   1.676   6.970 -1.9373 -1.9245  0.3564
  407MOL0     H54881   4.927   1.725   6.796  1.2496 -0.3218 -0.5957
  407MOL0     H54882   4.821   1.490   6.953 -1.4801 -2.4684 -2.2460
  407MOL0     H54883   4.759   1.534   6.793  1.0453  0.4772 -0.3658
  407MOL0     H54884   4.666   1.730   6.869  2.6388 -0.4617 -0.1193
  407MOL0     H54885   4.697   1.697   7.045 -0.2686 -0.2004 -0.3467
  407MOL0     H54886   4.549   1.513   6.863  3.3001 -1.6325 -0.2841
  407MOL0     H54887   4.579   1.508   7.045  1.1291  2.7789  1.7746
  407MOL0     H54888   4.407   1.718   6.902 -1.4972 -0.6194 -0.4855
  407MOL0     H54889   4.343   1.564   6.962 -0.6906  0.9298 -0.1896
  407MOL0     H54890   4.404   1.612   7.189  0.4389  0.7775  0.9820
  407MOL0     H54891   4.494   1.755   7.131  0.3485 -1.1478 -0.5511
  407MOL0     H54892   4.188   1.701   7.124  0.7333 -2.3352  0.3192
  407MOL0     H54893   4.265   1.854   7.067 -1.4092 -1.1000 -0.1483
  407MOL0     H54894   4.192   1.892   7.301  0.5050  0.1393  0.8543
  407MOL0     H54895   4.286   1.755   7.347  1.4943 -1.6948 -0.8386
  407MOL0     H54896   4.307   2.111   7.170 -0.9371 -2.3478 -0.9153
  407MOL0     H54897   4.644   2.280   7.303 -0.4938  2.1853 -0.8005
  407MOL0     H54898   4.618   2.244   7.134  1.3203  1.9799  0.6797
  407MOL0     H54899   4.426   2.379   7.123  3.4639  1.1526 -1.2583
  407MOL0     H54900   4.386   2.356   7.298 -0.0009 -0.5564 -0.5586
  407MOL0     H54901   4.600   2.506   7.341 -0.2423  2.8459  0.4378
  407MOL0     H54902   4.448   2.581   7.276  1.1940  1.8180  0.3596
  407MOL0     H54903   4.654   2.683   7.194  0.0889 -0.0257 -0.6400
  407MOL0     H54904   4.559   2.609   7.062  1.5472 -0.1897 -0.9101
  407MOL0     H54905   4.810   2.633   7.337 -2.7772 -1.4458 -2.1928
  407MOL0     H54906   5.037   2.617   7.423 -2.1796  0.7180 -0.1004
  407MOL0     H54907   5.529   2.497   7.188 -2.1928 -1.2167 -0.2941
  407MOL0     H54908   5.768   2.467   7.232  0.0110  0.8488  0.4675
  407MOL0     H54909   5.986   2.383   7.281 -2.0494 -2.3479 -1.8267
  407MOL0     H54910   5.979   2.457   7.437 -3.4515 -0.5078 -0.9896
  407MOL0     H54911   6.105   2.262   7.533  0.8845  1.2919  1.0099
  407MOL0     H54912   6.120   2.191   7.366 -1.1715 -0.0725  0.7514
  407MOL0     H54913   6.240   2.413   7.308 -0.5296  0.5850 -0.5449
  407MOL0     H54914   6.223   2.466   7.469  2.4492  0.3551  0.2341
  407MOL0     H54915   6.367   2.213   7.373 -0.4444  0.3667  0.6365
  407MOL0     H54916   6.360   2.287   7.545  0.8243 -0.4339  0.7182
  407MOL0     H54917   6.492   2.479   7.431  1.6940 -0.5961  1.7375
  407MOL0     H54918   6.467   2.401   7.273  0.9987  0.4608 -0.1164
  407MOL0     H54919   6.625   2.253   7.492  3.2629 -0.1038  1.1462
  407MOL0     H54920   6.623   2.239   7.309  4.0162 -0.6008  0.7751
  407MOL0     H54921   6.725   2.477   7.445 -0.1176  0.6279 -1.9131
  407MOL0     H54922   6.730   2.443   7.283  1.0080  1.1375  0.1895
  407MOL0     H54923   6.944   2.404   7.397  0.1113 -0.8725  1.6949
  407MOL0     H54924   6.870   2.268   7.483 -2.6947  0.0858 -0.0150
  407MOL0     H54925   5.658   2.214   7.566  0.5247 -0.7506 -1.2236
  407MOL0     H54926   5.429   2.244   7.523  3.2257 -2.3420  2.3320
  407MOL0     H54927   5.125   2.302   7.146  0.8357  1.6690 -1.6229
  407MOL0     H54928   4.886   2.333   7.052  2.6928 -0.7139 -1.5886
  407MOL0     H54929   5.145   1.785   6.895 -2.9557 -0.7314 -2.1815
  407MOL0     H54930   5.404   1.796   6.895 -0.3757 -0.4133  2.6010
  407MOL0     H54931   5.782   1.535   6.785  1.5804  0.0476  1.2490
  407MOL0     H54932   6.024   1.511   6.761 -0.1649 -1.6239 -3.2411
  407MOL0     H54933   6.276   1.849   6.557  0.5324  0.4430 -0.7476
  407MOL0     H54934   6.228   1.713   6.458 -0.0009 -0.6112  0.4187
  407MOL0     H54935   6.397   1.587   6.516  1.8725 -1.2382  2.4159
  407MOL0     H54936   6.426   1.678   6.669  2.9813 -2.0545 -0.5187
  407MOL0     H54937   6.499   1.867   6.521 -1.5540  1.6234 -2.6493
  407MOL0     H54938   6.480   1.771   6.373  2.9079  0.2505 -0.7918
  407MOL0     H54939   6.687   1.692   6.584  0.5720 -0.4163  0.2455
  407MOL0     H54940   6.662   1.621   6.429  1.8685 -0.0200  0.9084
  407MOL0     H54941   6.881   1.944   6.297  0.5042 -0.3341  0.6527
  407MOL0     H54942   6.048   1.888   6.545  2.5408 -2.3530 -0.9482
  407MOL0     H54943   5.758   2.026   6.585 -0.2662  1.1294 -0.2323
  407MOL0     H54944   5.868   1.970   6.457  2.6883 -4.4688  1.8199
  407MOL0     H54945   5.710   1.889   6.469  0.8473 -3.0734  1.5201
  408MOL0     O54946   5.894   1.823  10.363 -0.0946  0.1693  0.6399
  408MOL0     C54947   5.883   1.828  10.482 -0.2103 -0.7443  0.1479
  408MOL0     O54948   5.985   1.805  10.575 -0.2818  0.0199  0.6008
  408MOL0     C54949   6.115   1.823  10.534  0.2925 -0.0668  0.5629
  408MOL0     C54950   6.193   1.909  10.609  0.2877  0.0595 -0.1367
  408MOL0     C54951   6.333   1.927  10.589 -0.4976  0.0645  0.1219
  408MOL0     C54952   6.402   1.845  10.496  0.8328  0.2538 -0.1379
  408MOL0     O54953   6.539   1.851  10.471  0.0511 -1.0299 -0.3596
  408MOL0     C54954   6.626   1.939  10.543 -0.3135 -0.2298  0.2957
  408MOL0     C54955   6.764   1.889  10.519  0.3138 -0.3387 -0.0465
  408MOL0     C54956   6.869   1.974  10.599 -0.1860  0.2381  0.2576
  408MOL0     C54957   7.008   1.930  10.570 -0.2616  0.0191  0.0494
  408MOL0     C54958   7.111   1.985  10.661  0.1264  0.4416  0.7646
  408MOL0     C54959   7.243   1.898  10.653  0.5995 -0.7865 -0.0231
  408MOL0     C54960   7.362   1.972  10.730  0.4303 -0.1175  0.2051
  408MOL0     C54961   7.476   1.873  10.746 -0.0374  0.5105 -0.3232
  408MOL0     N54962   7.587   1.922  10.822 -0.2844  0.0797 -0.2536
  408MOL0     C54963   7.696   2.005  10.786  0.1698 -0.7661 -0.8387
  408MOL0     C54964   7.767   2.007  10.894 -0.6838  0.8181 -0.1931
  408MOL0     C54965   7.908   2.069  10.913 -0.5399 -0.3644 -0.2691
  408MOL0     C54966   7.909   2.222  10.877 -0.8217  0.2689  0.6144
  408MOL0     C54967   7.937   2.249  10.728 -0.0504 -0.4383 -0.1811
  408MOL0     C54968   7.947   2.398  10.684  0.3068  0.1736  0.5496
  408MOL0     O54969   7.844   2.483  10.735 -0.7734  0.0634  0.1091
  408MOL0     C54970   7.712   2.448  10.707  0.6360 -0.3311 -0.2180
  408MOL0     C54971   7.665   2.396  10.585  0.0366  0.3721 -0.6058
  408MOL0     C54972   7.533   2.372  10.573  0.4969  0.2336 -0.0837
  408MOL0     C54973   7.439   2.394  10.673  0.1607  0.3437  0.0341
  408MOL0     C54974   7.301   2.371  10.649 -0.4902 -0.7048  0.6763
  408MOL0     O54975   7.213   2.426  10.729  0.5974  0.2730  0.6778
  408MOL0     C54976   7.086   2.387  10.718  1.0776  0.2078  0.7871
  408MOL0     C54977   7.010   2.427  10.605 -0.2519 -0.2670  0.2075
  408MOL0     C54978   6.872   2.399  10.604  0.6044  0.0026  0.1070
  408MOL0     C54979   6.809   2.323  10.707  0.1885 -0.8648 -1.1290
  408MOL0     O54980   6.676   2.280  10.696 -0.4164  0.4594  0.1524
  408MOL0     C54981   6.574   2.376  10.691 -0.0864  0.1813  0.8812
  408MOL0     C54982   6.439   2.305  10.702  0.5129 -0.1099 -0.0460
  408MOL0     C54983   6.324   2.397  10.723 -0.8148 -0.0918  0.5702
  408MOL0     C54984   6.296   2.490  10.605 -0.0652  0.3178 -0.5718
  408MOL0     C54985   6.176   2.583  10.622  0.5183 -0.1522 -0.3100
  408MOL0     C54986   6.049   2.508  10.664  1.0844 -0.0721  0.1557
  408MOL0     C54987   5.923   2.596  10.645 -0.4229  0.3370 -0.6951
  408MOL0     C54988   5.879   2.604  10.494  0.1465  0.6238 -0.2323
  408MOL0    Cl54989   5.714   2.655  10.494  0.1958 -0.2979 -0.2837
  408MOL0     C54990   6.884   2.285  10.814 -0.8097 -0.2772  0.0059
  408MOL0     C54991   7.022   2.312  10.817 -0.0397  0.0266  0.2538
  408MOL0     O54992   7.271   2.297  10.559  0.1228  0.8053  0.0156
  408MOL0     C54993   7.480   2.443  10.798  0.1292  0.7576  0.3349
  408MOL0     C54994   7.616   2.466  10.814 -0.2303  0.1827  1.0407
  408MOL0     N54995   7.704   1.945  11.002 -0.2491  0.9740 -0.3043
  408MOL0     N54996   7.588   1.896  10.954  0.3556  0.5780 -0.3234
  408MOL0     C54997   6.319   1.755  10.425 -0.2036  0.1423 -0.6635
  408MOL0     C54998   6.187   1.743  10.449 -0.2783 -0.2482  0.1190
  408MOL0     C54999   5.745   1.852  10.534  0.4853 -0.0178 -0.0993
  408MOL0     C55000   5.708   1.807  10.664  0.2152 -0.8029 -0.2418
  408MOL0     C55001   5.586   1.819  10.715 -0.3301  0.1129  0.0262
  408MOL0     C55002   5.486   1.885  10.644 -0.2510 -0.7674  0.0647
  408MOL0     O55003   5.362   1.911  10.693 -0.0260  0.1898  0.2632
  408MOL0     C55004   5.254   1.869  10.613  0.0254 -0.3022 -0.4006
  408MOL0     C55005   5.250   1.720  10.590  0.4201  0.8216  0.3479
  408MOL0     C55006   5.118   1.660  10.535  0.6131  0.5875  0.3728
  408MOL0     C55007   4.989   1.672  10.618 -0.1378  0.3600 -0.0458
  408MOL0     C55008   4.974   1.564  10.715 -0.4034  0.4409  0.0751
  408MOL0     C55009   4.961   1.479  10.803 -0.4695 -0.4533  0.0501
  408MOL0     C55010   5.522   1.942  10.523 -0.0244 -0.2051  0.2675
  408MOL0     C55011   5.638   1.920  10.466 -0.2988  0.2066  0.3384
  408MOL0     C55012   5.658   1.991  10.335 -0.1760  0.4977 -0.4474
  408MOL0     H55013   6.149   1.963  10.692 -0.6888  0.0477 -0.6405
  408MOL0     H55014   6.395   1.994  10.647  1.2558  1.3324 -3.0436
  408MOL0     H55015   6.616   2.043  10.510 -2.7013  0.3171  2.4082
  408MOL0     H55016   6.593   1.937  10.647 -0.6708 -2.1191  0.1841
  408MOL0     H55017   6.796   1.887  10.414 -1.6067 -2.0092 -0.6884
  408MOL0     H55018   6.761   1.786  10.554  0.3007 -1.3537 -2.7500
  408MOL0     H55019   6.848   1.968  10.707  0.1338  2.6142  0.5076
  408MOL0     H55020   6.869   2.080  10.572  2.1073  0.0051 -0.8381
  408MOL0     H55021   7.009   1.823  10.591 -0.1191  0.3297  1.7115
  408MOL0     H55022   7.033   1.949  10.465  0.6164 -0.1534  0.2208
  408MOL0     H55023   7.146   2.086  10.640  2.9479 -0.8144 -1.2758
  408MOL0     H55024   7.078   1.975  10.765 -0.9907 -2.5921  0.2160
  408MOL0     H55025   7.214   1.806  10.704 -1.3257 -1.1683 -1.7022
  408MOL0     H55026   7.278   1.883  10.551  2.4324  3.9561 -0.3567
  408MOL0     H55027   7.317   2.011  10.822  0.1785  0.3941 -0.1349
  408MOL0     H55028   7.391   2.064  10.679  0.1108 -0.6432 -0.9545
  408MOL0     H55029   7.442   1.778  10.788 -1.8840  1.1962 -0.1715
  408MOL0     H55030   7.516   1.843  10.649 -0.9433 -0.4142 -0.4298
  408MOL0     H55031   7.715   2.045  10.687 -1.0799 -0.3273 -0.9268
  408MOL0     H55032   7.930   2.055  11.019  2.8685  1.5546 -0.5971
  408MOL0     H55033   7.986   2.024  10.852  1.8615  1.8060  1.0387
  408MOL0     H55034   7.806   2.257  10.887  0.1218  2.7295  2.8705
  408MOL0     H55035   7.981   2.282  10.933 -0.9596  1.6708 -0.6500
  408MOL0     H55036   7.858   2.204  10.667 -0.1203 -1.5426  0.7029
  408MOL0     H55037   8.029   2.196  10.702 -1.2813 -1.8888 -1.8263
  408MOL0     H55038   7.955   2.413  10.576 -0.3725 -1.8490  0.1778
  408MOL0     H55039   8.036   2.443  10.729 -2.0583  2.3491  3.4986
  408MOL0     H55040   7.738   2.379  10.507  1.7786 -0.9730  1.2143
  408MOL0     H55041   7.494   2.333  10.479 -1.2001  1.0930  0.2251
  408MOL0     H55042   7.053   2.482  10.522  2.2483 -0.5895  1.1922
  408MOL0     H55043   6.832   2.420  10.505  1.8050 -0.8245 -0.5800
  408MOL0     H55044   6.582   2.447  10.774  1.7180  3.3878 -1.7895
  408MOL0     H55045   6.581   2.437  10.600 -0.3370 -1.8196 -0.5328
  408MOL0     H55046   6.416   2.239  10.618 -0.3379 -1.3045  1.0822
  408MOL0     H55047   6.438   2.238  10.789 -4.3442  0.4228  0.5775
  408MOL0     H55048   6.236   2.335  10.741 -1.9267  0.3897 -2.6216
  408MOL0     H55049   6.322   2.465  10.809 -1.2979  0.0573  0.4399
  408MOL0     H55050   6.276   2.442  10.509 -0.6767  0.6932 -0.6345
  408MOL0     H55051   6.388   2.546  10.586  0.7831 -0.5956  0.6124
  408MOL0     H55052   6.164   2.643  10.531  1.1467 -0.5221 -0.6519
  408MOL0     H55053   6.197   2.660  10.696 -3.2973 -0.6854  1.5654
  408MOL0     H55054   6.028   2.414  10.613 -0.2294 -1.2574  2.7082
  408MOL0     H55055   6.061   2.499  10.772  3.0304 -0.5329 -0.0689
  408MOL0     H55056   5.947   2.694  10.689 -0.1884 -0.7105  1.6601
  408MOL0     H55057   5.848   2.542  10.702  0.2336 -0.6395 -0.7378
  408MOL0     H55058   5.955   2.657  10.437  0.8507 -2.8640 -2.9062
  408MOL0     H55059   5.870   2.503  10.452 -3.2704  0.3160  0.9101
  408MOL0     H55060   6.833   2.230  10.893 -1.3656  1.3978  0.8716
  408MOL0     H55061   7.075   2.269  10.901 -0.3966 -0.1195  0.4080
  408MOL0     H55062   7.420   2.465  10.886 -0.0751 -0.5471  0.5382
  408MOL0     H55063   7.657   2.505  10.907  1.0682 -1.7142  1.3251
  408MOL0     H55064   6.366   1.691  10.351 -0.7410 -0.3194 -0.6156
  408MOL0     H55065   6.120   1.671  10.402 -0.4775  0.2836 -0.4229
  408MOL0     H55066   5.775   1.748  10.726  1.5310  0.1924 -0.6904
  408MOL0     H55067   5.546   1.788  10.811 -1.3874  0.4303 -0.2932
  408MOL0     H55068   5.263   1.914  10.514 -1.1126  1.0256  0.0677
  408MOL0     H55069   5.161   1.902  10.659 -1.0611 -1.4034 -1.7277
  408MOL0     H55070   5.256   1.670  10.687 -1.3730 -1.1117 -0.4547
  408MOL0     H55071   5.338   1.691  10.532  1.2965  2.0987  1.0029
  408MOL0     H55072   5.129   1.553  10.512  0.3815  0.4742  0.7746
  408MOL0     H55073   5.092   1.705  10.439 -3.5192 -1.3320  0.3770
  408MOL0     H55074   4.983   1.768  10.670  0.5180  0.3486  0.0537
  408MOL0     H55075   4.904   1.665  10.548 -1.4733  0.3700  1.5111
  408MOL0     H55076   4.940   1.398  10.870 -0.3755 -1.2491 -0.8666
  408MOL0     H55077   5.463   2.012  10.467 -1.1082 -1.8397 -0.7093
  408MOL0     H55078   5.573   2.030  10.278  0.0999 -0.9922 -1.9418
  408MOL0     H55079   5.701   2.087  10.366 -1.4499 -0.0080  3.5004
  408MOL0     H55080   5.719   1.938  10.261  0.2820 -0.0809  0.3291
  409MOL0     O55081   0.329   1.517   1.598  0.5464  0.4216 -0.2356
  409MOL0     C55082   0.230   1.561   1.667 -0.6968  0.3735  0.8179
  409MOL0     O55083   0.232   1.568   1.799  0.4321  0.2801 -0.5452
  409MOL0     C55084   0.353   1.551   1.859 -0.5581  0.5392  0.2473
  409MOL0     C55085   0.381   1.416   1.900 -0.3653 -0.5586  0.4713
  409MOL0     C55086   0.492   1.378   1.971 -0.3106 -0.1278  0.5011
  409MOL0     C55087   0.587   1.480   1.998 -0.1480  0.4969 -0.3408
  409MOL0     O55088   0.698   1.448   2.075  0.4613 -0.0949 -0.0152
  409MOL0     C55089   0.714   1.531   2.190 -0.0858 -1.0412  0.5415
  409MOL0     C55090   0.801   1.450   2.289  0.4787 -0.7683  0.0400
  409MOL0     C55091   0.932   1.383   2.225  0.7259 -0.0893 -0.4638
  409MOL0     C55092   1.030   1.482   2.157  0.5083 -0.4911 -0.2454
  409MOL0     C55093   1.163   1.427   2.134 -0.3004 -0.3683  0.3793
  409MOL0     C55094   1.262   1.442   2.247  0.2149  0.2234 -0.3725
  409MOL0     C55095   1.410   1.413   2.216  0.6161 -0.1382 -0.1970
  409MOL0     C55096   1.500   1.431   2.346  0.0911  0.5644  0.3932
  409MOL0     N55097   1.634   1.465   2.317 -0.5444 -0.3285 -0.3179
  409MOL0     C55098   1.689   1.544   2.226 -0.4212 -0.1675  1.2798
  409MOL0     C55099   1.825   1.518   2.231  0.6679 -0.0389 -0.6294
  409MOL0     C55100   1.934   1.585   2.150 -0.3870  0.9733 -0.2878
  409MOL0     C55101   2.039   1.653   2.232  0.0635  0.2336  0.5734
  409MOL0     C55102   1.990   1.768   2.326 -0.2882 -0.3603  0.0013
  409MOL0     C55103   2.108   1.853   2.373 -0.2263  0.4562  0.4234
  409MOL0     O55104   2.194   1.766   2.441 -0.8507  0.0248  0.0582
  409MOL0     C55105   2.333   1.785   2.446 -0.1124 -0.4841 -0.3121
  409MOL0     C55106   2.405   1.886   2.390  0.8927 -0.2819  0.7555
  409MOL0     C55107   2.547   1.891   2.414  0.2817  0.0556 -0.6069
  409MOL0     C55108   2.606   1.798   2.499 -0.3544 -0.2627  0.1209
  409MOL0     C55109   2.748   1.816   2.526 -0.4564  0.2718 -0.4959
  409MOL0     O55110   2.811   1.716   2.608  0.1076 -0.1902 -0.3733
  409MOL0     C55111   2.941   1.725   2.641  0.5772 -0.4413 -1.8261
  409MOL0     C55112   3.039   1.656   2.573  0.0395 -0.2614  0.2636
  409MOL0     C55113   3.180   1.679   2.608  0.4254 -0.0130  0.4935
  409MOL0     C55114   3.219   1.775   2.705  0.1471  0.2010 -0.0437
  409MOL0     O55115   3.352   1.808   2.728  0.7542  0.1967  0.8490
  409MOL0     C55116   3.437   1.782   2.606 -0.5484 -0.0184  0.2347
  409MOL0     C55117   3.545   1.888   2.608  0.1605 -0.3264  0.6560
  409MOL0     C55118   3.625   1.896   2.480  0.0270 -0.0046  0.1395
  409MOL0     C55119   3.753   1.811   2.481  0.0897  0.7771 -0.0734
  409MOL0     C55120   3.835   1.839   2.358  0.3453 -0.2926  0.0605
  409MOL0     C55121   3.950   1.741   2.350 -0.3965  0.2951 -0.3103
  409MOL0     C55122   4.079   1.817   2.374 -0.6161 -0.1928  0.5435
  409MOL0     C55123   4.208   1.741   2.324  0.5878  0.1359  0.5229
  409MOL0    Cl55124   4.356   1.816   2.370  0.2457 -0.1067 -0.3248
  409MOL0     C55125   3.118   1.839   2.774  0.3821 -0.3851  0.7429
  409MOL0     C55126   2.983   1.816   2.743  0.5928  0.7057  0.9507
  409MOL0     O55127   2.809   1.904   2.469  0.8812  0.2994 -0.1246
  409MOL0     C55128   2.537   1.700   2.555  0.5450 -0.1532 -0.1793
  409MOL0     C55129   2.399   1.692   2.528 -0.2850 -0.7062  0.5147
  409MOL0     N55130   1.845   1.420   2.330 -1.2206 -0.1917 -0.0253
  409MOL0     N55131   1.729   1.391   2.374  0.7749  0.1927 -0.2192
  409MOL0     C55132   0.560   1.611   1.966 -0.3803 -0.4802  0.4932
  409MOL0     C55133   0.446   1.649   1.893  0.7254  0.2862 -0.0622
  409MOL0     C55134   0.112   1.611   1.591 -0.6179  0.3474 -0.7444
  409MOL0     C55135   0.120   1.631   1.451  0.0482 -0.4861  0.6991
  409MOL0     C55136   0.020   1.683   1.379  0.1681 -0.5317  0.1076
  409MOL0     C55137  -0.091   1.740   1.444 -0.7667 -0.3906 -0.1269
  409MOL0     O55138  -0.179   1.786   1.352 -0.5089  0.1188  0.8457
  409MOL0     C55139  -0.306   1.847   1.395 -0.5283 -0.4005  0.0931
  409MOL0     C55140  -0.372   1.940   1.291 -0.3814 -0.1493  0.4501
  409MOL0     C55141  -0.433   1.866   1.173  0.2385  0.5475 -0.1953
  409MOL0     C55142  -0.332   1.754   1.106 -0.2684 -0.9204 -0.1831
  409MOL0     C55143  -0.219   1.819   1.039  1.0868 -0.1894  0.1255
  409MOL0     C55144  -0.119   1.879   1.011 -0.3525 -0.3615  0.5886
  409MOL0     C55145  -0.109   1.717   1.582  0.4580 -0.7734  0.2504
  409MOL0     C55146  -0.011   1.652   1.652 -0.4423 -0.7037  0.2513
  409MOL0     C55147  -0.054   1.628   1.797 -0.2762 -0.1616  0.1377
  409MOL0     H55148   0.305   1.341   1.880 -0.3996 -0.2584 -0.5923
  409MOL0     H55149   0.517   1.278   2.004  2.4522 -0.5655 -2.5301
  409MOL0     H55150   0.780   1.613   2.163 -2.6450  1.6013  1.8271
  409MOL0     H55151   0.617   1.561   2.229 -0.2142  1.4361 -1.4809
  409MOL0     H55152   0.731   1.375   2.326  0.2409  0.3568  2.0281
  409MOL0     H55153   0.835   1.510   2.375  2.0613  0.1140 -1.1386
  409MOL0     H55154   0.887   1.316   2.151 -2.6445 -1.0071  2.1530
  409MOL0     H55155   0.985   1.332   2.306 -3.0202 -0.9392  1.6686
  409MOL0     H55156   0.990   1.509   2.059 -0.0006  0.9617  0.3366
  409MOL0     H55157   1.034   1.574   2.215 -1.3041  1.0294 -2.3858
  409MOL0     H55158   1.163   1.319   2.112  2.5815 -0.4002  0.1981
  409MOL0     H55159   1.212   1.480   2.052 -2.6152 -0.7019 -1.3434
  409MOL0     H55160   1.263   1.539   2.298 -1.2809 -0.4972  1.1111
  409MOL0     H55161   1.224   1.381   2.329 -0.4842  0.4130 -0.5468
  409MOL0     H55162   1.440   1.493   2.148  1.5446  0.1871  0.5610
  409MOL0     H55163   1.408   1.313   2.172  2.1743 -0.2519 -0.0581
  409MOL0     H55164   1.473   1.516   2.409  1.8551  0.5321  1.2698
  409MOL0     H55165   1.495   1.339   2.406 -0.8595  1.4650  1.7480
  409MOL0     H55166   1.635   1.606   2.155  0.8156 -1.2450 -0.6916
  409MOL0     H55167   1.975   1.508   2.084  0.4708  1.4441 -0.3085
  409MOL0     H55168   1.886   1.652   2.079  2.6963 -1.2304 -4.9242
  409MOL0     H55169   2.107   1.584   2.282  3.0709  1.8532 -1.0355
  409MOL0     H55170   2.109   1.695   2.160 -0.3952  1.2230  0.6847
  409MOL0     H55171   1.941   1.725   2.414 -2.9295  1.3444 -0.5361
  409MOL0     H55172   1.922   1.832   2.270 -0.5677  0.1410  0.8964
  409MOL0     H55173   2.081   1.937   2.437  1.4080  0.9870  0.4752
  409MOL0     H55174   2.158   1.891   2.283 -1.6099  1.3142 -0.0098
  409MOL0     H55175   2.357   1.970   2.341  1.3733  0.6128  1.7576
  409MOL0     H55176   2.599   1.975   2.370 -2.4072  0.4029 -3.4888
  409MOL0     H55177   3.012   1.585   2.496  1.4245 -0.9946  0.4113
  409MOL0     H55178   3.259   1.635   2.548  1.1522  2.3658 -0.4298
  409MOL0     H55179   3.488   1.686   2.603 -1.4681 -0.5328  0.5484
  409MOL0     H55180   3.391   1.784   2.506  2.1919 -2.7798 -1.2337
  409MOL0     H55181   3.510   1.992   2.613  1.2344  0.1453 -1.0191
  409MOL0     H55182   3.608   1.873   2.697  3.1367  0.2968 -1.1902
  409MOL0     H55183   3.561   1.867   2.396  0.9991  0.1662 -0.6788
  409MOL0     H55184   3.655   2.001   2.473 -0.4643  0.2336  1.2778
  409MOL0     H55185   3.726   1.705   2.491 -0.2206  0.9717  1.5360
  409MOL0     H55186   3.817   1.832   2.568  0.1303 -1.4413  0.5028
  409MOL0     H55187   3.855   1.944   2.335 -3.6603  0.3378 -1.3087
  409MOL0     H55188   3.769   1.823   2.272  1.8737  1.7512 -1.5975
  409MOL0     H55189   3.950   1.643   2.400  0.7811  0.2104 -0.4616
  409MOL0     H55190   3.953   1.710   2.245  2.2800 -2.4034  0.4145
  409MOL0     H55191   4.092   1.837   2.481  0.9541 -0.3390  0.4033
  409MOL0     H55192   4.073   1.913   2.324 -1.9235 -0.2773  0.4967
  409MOL0     H55193   4.207   1.641   2.368 -0.8927 -0.4565 -0.7370
  409MOL0     H55194   4.204   1.742   2.214  1.1784  2.1554  0.4748
  409MOL0     H55195   3.149   1.916   2.843 -2.7091 -1.7170  3.9201
  409MOL0     H55196   2.912   1.879   2.797 -1.0189 -0.5224  0.3406
  409MOL0     H55197   2.581   1.618   2.610  2.6915  0.9706 -0.0830
  409MOL0     H55198   2.341   1.613   2.575  0.2094 -0.1290  2.1702
  409MOL0     H55199   0.633   1.688   1.987  2.3718 -1.8044 -3.0674
  409MOL0     H55200   0.426   1.754   1.875  1.7029  1.2066  3.4403
  409MOL0     H55201   0.195   1.588   1.384 -2.1587 -2.6330 -0.5556
  409MOL0     H55202   0.031   1.677   1.271 -2.0726 -0.7711 -0.1580
  409MOL0     H55203  -0.288   1.911   1.481 -1.2334  0.2409 -0.2273
  409MOL0     H55204  -0.373   1.766   1.424  1.4617 -1.3979  2.2517
  409MOL0     H55205  -0.300   2.008   1.245  1.2324 -2.4327 -0.5661
  409MOL0     H55206  -0.451   1.997   1.341 -1.4537 -0.7777 -0.4820
  409MOL0     H55207  -0.468   1.933   1.094  1.2876  1.9561  0.4766
  409MOL0     H55208  -0.521   1.813   1.211  0.7704 -0.9209 -0.9309
  409MOL0     H55209  -0.297   1.675   1.174 -0.6288  0.0775  1.2232
  409MOL0     H55210  -0.385   1.699   1.029  1.1262 -2.9457  0.2186
  409MOL0     H55211  -0.031   1.932   0.980 -0.3168 -1.0655 -0.5858
  409MOL0     H55212  -0.195   1.759   1.634  0.7766  0.8160 -0.4606
  409MOL0     H55213  -0.014   1.536   1.842  0.1254  1.4903  3.4541
  409MOL0     H55214  -0.015   1.712   1.855  0.4288  0.3007 -0.9895
  409MOL0     H55215  -0.163   1.619   1.792 -0.2220 -0.7146 -0.1047
  410MOL0     O55216   0.006   6.095   5.107  0.6443 -0.0493  0.5099
  410MOL0     C55217  -0.012   6.205   5.062  0.6181 -0.2971  0.2818
  410MOL0     O55218   0.074   6.271   4.977  0.0708 -0.4283 -0.6280
  410MOL0     C55219   0.204   6.228   4.972  0.8429 -0.5953  0.0784
  410MOL0     C55220   0.251   6.155   4.862 -0.6567 -0.5181 -0.4302
  410MOL0     C55221   0.380   6.116   4.865  0.2459  0.0534 -0.4623
  410MOL0     C55222   0.471   6.149   4.964 -0.3095  0.6657  1.0183
  410MOL0     O55223   0.594   6.097   4.953 -0.2742  0.4961 -0.0736
  410MOL0     C55224   0.618   6.004   5.060 -0.0471  0.0881 -0.1191
  410MOL0     C55225   0.763   5.986   5.071  0.4612  0.0282  0.0755
  410MOL0     C55226   0.806   5.898   5.182 -0.2357 -1.4404 -0.2066
  410MOL0     C55227   0.958   5.923   5.220  0.5480 -0.6432  0.3681
  410MOL0     C55228   0.983   5.858   5.353 -0.4537  0.6683  0.4964
  410MOL0     C55229   1.139   5.868   5.400  0.0524 -0.3745 -0.2711
  410MOL0     C55230   1.221   5.755   5.332  0.5066 -0.5669  0.2961
  410MOL0     C55231   1.234   5.764   5.188  0.1284 -0.0246  1.0615
  410MOL0     N55232   1.356   5.704   5.131 -1.0986 -0.0356 -0.3375
  410MOL0     C55233   1.478   5.766   5.104 -0.3858 -0.0158  0.9848
  410MOL0     C55234   1.539   5.680   5.021  0.9076  0.3273  0.5510
  410MOL0     C55235   1.659   5.716   4.951 -0.4204 -0.1715  0.2002
  410MOL0     C55236   1.739   5.597   4.889  0.3795 -0.0459 -0.4488
  410MOL0     C55237   1.873   5.650   4.825  0.0042  0.1791  0.8790
  410MOL0     C55238   1.955   5.527   4.782 -0.4934 -0.3023  0.0841
  410MOL0     O55239   2.050   5.569   4.687  0.0775 -1.0315  0.0849
  410MOL0     C55240   2.153   5.484   4.661  0.0634  0.6021 -0.0637
  410MOL0     C55241   2.283   5.531   4.658  0.3046  0.1636  0.7306
  410MOL0     C55242   2.393   5.458   4.620 -0.0572 -0.1428  0.2447
  410MOL0     C55243   2.378   5.317   4.593  0.2418 -0.5304  0.1717
  410MOL0     C55244   2.499   5.233   4.570  0.6398  1.0989 -1.0799
  410MOL0     O55245   2.615   5.284   4.624  0.0439  0.5763  0.5967
  410MOL0     C55246   2.718   5.203   4.663 -0.1451  0.3645 -0.9687
  410MOL0     C55247   2.716   5.069   4.686 -0.1899  0.5421  0.2534
  410MOL0     C55248   2.828   4.990   4.737  0.2275  0.8442  0.7301
  410MOL0     C55249   2.949   5.057   4.755 -0.6849  0.6254  0.3760
  410MOL0     O55250   3.070   5.008   4.794 -0.4414 -0.0018 -0.1087
  410MOL0     C55251   3.093   4.865   4.782  0.5591 -0.0555 -0.0810
  410MOL0     C55252   3.242   4.855   4.777 -0.9699  0.2531  0.4118
  410MOL0     C55253   3.292   4.715   4.729  0.1270  0.3504 -0.0518
  410MOL0     C55254   3.446   4.710   4.718 -0.3113 -0.6833  0.1389
  410MOL0     C55255   3.496   4.604   4.621 -0.5069 -0.7163 -0.5281
  410MOL0     C55256   3.476   4.629   4.470 -1.0014  0.1098  0.3653
  410MOL0     C55257   3.566   4.553   4.376  0.7319  0.1252 -0.0594
  410MOL0     C55258   3.523   4.526   4.231 -0.2129 -0.2220  0.0015
  410MOL0    Cl55259   3.401   4.393   4.235  0.1085  0.2457  0.3526
  410MOL0     C55260   2.959   5.198   4.744 -0.7025  0.1266  0.6282
  410MOL0     C55261   2.847   5.261   4.690 -0.2795  0.1617 -0.1908
  410MOL0     O55262   2.494   5.123   4.506 -0.1943 -0.2154 -0.5027
  410MOL0     C55263   2.252   5.264   4.602 -0.3268  0.4656 -0.3820
  410MOL0     C55264   2.140   5.344   4.631  0.2193 -0.2314 -0.0359
  410MOL0     N55265   1.457   5.574   4.985 -0.5133  0.6650 -0.2125
  410MOL0     N55266   1.349   5.589   5.058  0.1398  0.4783 -0.7717
  410MOL0     C55267   0.429   6.224   5.074  1.0653  0.0113 -0.2753
  410MOL0     C55268   0.286   6.256   5.076  0.1094 -0.7952 -0.1215
  410MOL0     C55269  -0.148   6.270   5.093  0.1616 -0.1241 -0.1183
  410MOL0     C55270  -0.269   6.189   5.081 -0.4494  0.3516  1.1094
  410MOL0     C55271  -0.402   6.247   5.096 -0.0994  0.0499  0.4660
  410MOL0     C55272  -0.412   6.382   5.122 -0.8683 -0.0787  0.3338
  410MOL0     O55273  -0.535   6.428   5.126  0.1113  0.5118  0.5034
  410MOL0     C55274  -0.564   6.566   5.122  0.0990 -0.1400 -0.1007
  410MOL0     C55275  -0.709   6.611   5.137  0.7440  0.4135 -0.1123
  410MOL0     C55276  -0.779   6.565   5.270 -0.4851 -0.0789  0.3946
  410MOL0     C55277  -0.765   6.417   5.303 -0.4746 -0.3274  0.1069
  410MOL0     C55278  -0.888   6.370   5.357  0.2449 -1.0927 -0.2816
  410MOL0     C55279  -0.992   6.351   5.421 -0.0721 -0.0631 -0.4366
  410MOL0     C55280  -0.293   6.458   5.143 -0.1611 -0.5683  0.8879
  410MOL0     C55281  -0.161   6.401   5.135 -0.4733 -0.0301  0.5061
  410MOL0     C55282  -0.041   6.488   5.157 -0.2358  0.2875  0.9877
  410MOL0     H55283   0.200   6.138   4.768  2.9879 -2.1907 -2.3183
  410MOL0     H55284   0.412   6.058   4.778  1.5255 -0.0069  0.0298
  410MOL0     H55285   0.579   6.031   5.158 -1.0799 -0.2411 -0.4334
  410MOL0     H55286   0.572   5.908   5.034  0.6372  0.3135 -2.4111
  410MOL0     H55287   0.800   6.089   5.075 -1.5872  0.9218 -1.8921
  410MOL0     H55288   0.801   5.943   4.977 -3.9145 -0.1619 -1.8330
  410MOL0     H55289   0.789   5.791   5.164  0.0664 -1.5762  0.2935
  410MOL0     H55290   0.747   5.927   5.269  2.5356  3.0461  0.4755
  410MOL0     H55291   1.014   5.881   5.136  1.7459 -0.0467  0.8584
  410MOL0     H55292   0.984   6.028   5.238 -1.9762  0.6158 -2.4098
  410MOL0     H55293   0.920   5.902   5.431  0.0332  2.8064 -0.2529
  410MOL0     H55294   0.958   5.752   5.358 -0.5891  0.7326  1.4701
  410MOL0     H55295   1.183   5.967   5.385 -1.1119 -0.0190 -1.5129
  410MOL0     H55296   1.152   5.850   5.507 -0.0045  0.3788 -0.1312
  410MOL0     H55297   1.169   5.668   5.371 -0.1286 -0.6644 -0.7340
  410MOL0     H55298   1.322   5.752   5.375  1.1756 -1.9410 -1.2788
  410MOL0     H55299   1.144   5.724   5.141 -0.0622  1.1258  0.4307
  410MOL0     H55300   1.242   5.872   5.174  2.3049 -0.2594 -0.0350
  410MOL0     H55301   1.510   5.868   5.123 -1.0214  0.6149 -1.0877
  410MOL0     H55302   1.634   5.784   4.869 -0.7455 -0.2299  0.2511
  410MOL0     H55303   1.721   5.782   5.013 -1.6210  2.0516 -0.8494
  410MOL0     H55304   1.759   5.520   4.964 -1.3518 -1.8120 -1.6868
  410MOL0     H55305   1.681   5.552   4.808 -3.3264 -0.9706  2.4469
  410MOL0     H55306   1.934   5.714   4.890  0.8503  1.6792 -1.3047
  410MOL0     H55307   1.861   5.695   4.727  4.3636 -0.8336 -0.3475
  410MOL0     H55308   1.885   5.460   4.732 -0.4884 -0.1502 -0.1262
  410MOL0     H55309   1.999   5.477   4.869  1.3372  1.7610  0.4310
  410MOL0     H55310   2.302   5.634   4.683 -2.6099  1.2833 -1.1522
  410MOL0     H55311   2.493   5.499   4.628  1.0838 -2.9206  1.5496
  410MOL0     H55312   2.624   5.013   4.676  0.2925 -0.3300  0.5724
  410MOL0     H55313   2.806   4.886   4.758  0.3117  0.5360 -0.6374
  410MOL0     H55314   3.041   4.826   4.870 -0.8313  3.1119  0.6762
  410MOL0     H55315   3.045   4.812   4.699  0.3459  0.6314 -0.4062
  410MOL0     H55316   3.283   4.923   4.702  5.3865 -1.5892  1.5630
  410MOL0     H55317   3.288   4.887   4.871  2.1661  1.8606 -1.4962
  410MOL0     H55318   3.251   4.631   4.785 -0.3678 -2.4026 -4.1897
  410MOL0     H55319   3.258   4.706   4.626  1.8017  1.3886 -0.7339
  410MOL0     H55320   3.492   4.696   4.816  1.9293  1.7231 -0.4450
  410MOL0     H55321   3.481   4.808   4.684  1.4778 -1.2721  0.1744
  410MOL0     H55322   3.467   4.503   4.651 -2.6293  0.1661  0.7035
  410MOL0     H55323   3.604   4.612   4.635 -0.3630  1.9984 -2.3859
  410MOL0     H55324   3.374   4.604   4.441  0.9837 -4.9546 -3.9635
  410MOL0     H55325   3.485   4.736   4.452 -0.9038  0.1412  0.5921
  410MOL0     H55326   3.592   4.459   4.425 -2.0310  0.2256  1.8397
  410MOL0     H55327   3.660   4.609   4.374  0.5279  0.5049  0.7283
  410MOL0     H55328   3.479   4.614   4.182 -0.5076 -1.2041 -1.5497
  410MOL0     H55329   3.607   4.489   4.173 -0.2304 -0.7831  0.3259
  410MOL0     H55330   3.055   5.244   4.766 -0.0263 -0.7958 -0.3420
  410MOL0     H55331   2.843   5.368   4.672 -2.1959 -0.4409 -4.8690
  410MOL0     H55332   2.231   5.160   4.575  0.2069  0.3378 -0.3145
  410MOL0     H55333   2.042   5.300   4.613  0.0564  1.2584 -3.6487
  410MOL0     H55334   0.495   6.245   5.158  0.3679 -0.0764  0.3015
  410MOL0     H55335   0.254   6.304   5.168  1.2586  2.1430 -1.1204
  410MOL0     H55336  -0.257   6.082   5.072  0.1534  0.2450  2.8009
  410MOL0     H55337  -0.499   6.198   5.098 -1.1157  1.9768  2.0947
  410MOL0     H55338  -0.527   6.599   5.024 -0.4673 -1.7687 -0.9031
  410MOL0     H55339  -0.511   6.615   5.205  0.5543 -0.0102 -0.4602
  410MOL0     H55340  -0.776   6.581   5.056  0.8128  0.5584 -0.2254
  410MOL0     H55341  -0.722   6.719   5.124  0.2844  0.4360  0.4885
  410MOL0     H55342  -0.883   6.590   5.247 -0.1688  1.4310  0.4733
  410MOL0     H55343  -0.750   6.630   5.353  1.3508 -1.0711  0.5999
  410MOL0     H55344  -0.741   6.357   5.215  0.9702  3.8067 -2.5982
  410MOL0     H55345  -0.676   6.411   5.366 -0.2034 -1.7490 -0.3856
  410MOL0     H55346  -1.084   6.330   5.472 -1.0621 -0.1586 -2.1840
  410MOL0     H55347  -0.301   6.564   5.165  0.7144 -1.1872  5.1471
  410MOL0     H55348  -0.078   6.580   5.203 -1.7537 -0.1431  0.6769
  410MOL0     H55349   0.030   6.435   5.222  1.7213  1.2195 -0.2930
  410MOL0     H55350   0.013   6.510   5.065 -1.0332  1.5054  0.8014
  411MOL0     O55351   5.112   3.908   5.515 -0.6138  0.3447 -0.1909
  411MOL0     C55352   5.053   3.960   5.420  0.0384 -2.0094  0.5046
  411MOL0     O55353   5.092   4.081   5.369 -0.3697 -0.2678 -0.2925
  411MOL0     C55354   5.227   4.099   5.355 -0.5640  0.5328  0.3327
  411MOL0     C55355   5.298   4.221   5.368  0.3556 -0.1691  0.5382
  411MOL0     C55356   5.434   4.241   5.336 -0.4581  0.0281 -0.1477
  411MOL0     C55357   5.510   4.136   5.286 -1.4913 -0.6263  0.5930
  411MOL0     O55358   5.649   4.157   5.260 -0.2588  0.3473  0.3504
  411MOL0     C55359   5.718   4.046   5.186  0.0459  1.1383 -0.2553
  411MOL0     C55360   5.859   4.086   5.141 -0.4164  0.1563  0.0382
  411MOL0     C55361   5.961   4.126   5.248  0.4827 -0.0659  0.1519
  411MOL0     C55362   6.101   4.143   5.204  0.2715 -0.1132  0.6325
  411MOL0     C55363   6.209   4.108   5.311 -0.0437 -0.3972  0.1432
  411MOL0     C55364   6.350   4.149   5.269  0.9042  0.2211 -0.8718
  411MOL0     C55365   6.396   4.084   5.137  0.0626  0.7123  0.2418
  411MOL0     C55366   6.543   4.029   5.149 -0.5611  0.2984 -0.0235
  411MOL0     N55367   6.632   4.137   5.112 -0.3604  0.2245 -0.3411
  411MOL0     C55368   6.669   4.236   5.200 -0.9495 -0.1213 -0.0697
  411MOL0     C55369   6.753   4.322   5.128 -0.2378  0.1404 -1.1753
  411MOL0     C55370   6.812   4.450   5.179 -0.5238  0.0988 -0.6578
  411MOL0     C55371   6.868   4.542   5.073  0.4432 -0.4648 -0.8331
  411MOL0     C55372   6.902   4.683   5.126  1.1164  0.0748  0.1607
  411MOL0     C55373   6.976   4.766   5.013 -0.4130  0.4142  0.2283
  411MOL0     O55374   7.095   4.701   4.960 -0.1891  0.9052  0.0405
  411MOL0     C55375   7.210   4.677   5.029 -1.0483 -0.7576 -0.5170
  411MOL0     C55376   7.260   4.758   5.130  0.2312  0.6346 -0.8132
  411MOL0     C55377   7.378   4.729   5.194 -0.6291 -0.2062 -0.1703
  411MOL0     C55378   7.460   4.617   5.146  0.2021 -0.3328 -0.1106
  411MOL0     C55379   7.595   4.598   5.206  0.9010 -0.0003 -0.8192
  411MOL0     O55380   7.648   4.704   5.279 -0.0449  0.8382 -1.0347
  411MOL0     C55381   7.783   4.693   5.310  1.1555  0.6062  0.2071
  411MOL0     C55382   7.824   4.744   5.435 -0.5783 -0.6495 -0.4213
  411MOL0     C55383   7.966   4.728   5.480  1.0464  0.3146  1.4502
  411MOL0     C55384   8.064   4.679   5.386 -0.6803  0.7507  0.6509
  411MOL0     O55385   8.198   4.649   5.419 -0.3949  0.8705 -0.3043
  411MOL0     C55386   8.251   4.711   5.541 -0.2252 -0.0347  0.0534
  411MOL0     C55387   8.398   4.701   5.519  0.5109 -1.0318  0.4919
  411MOL0     C55388   8.471   4.814   5.595  0.5530 -0.2224 -0.1014
  411MOL0     C55389   8.464   4.799   5.747 -0.0706  0.3577  0.2145
  411MOL0     C55390   8.557   4.904   5.818 -0.0142 -0.1208 -0.0861
  411MOL0     C55391   8.702   4.854   5.814 -0.2740 -1.0858 -0.1019
  411MOL0     C55392   8.788   4.945   5.899 -2.0988 -0.3852 -0.7945
  411MOL0     C55393   8.914   4.872   5.947  0.7581  0.2344  0.0954
  411MOL0    Cl55394   9.004   4.790   5.819 -0.3321 -0.8050 -0.4113
  411MOL0     C55395   8.025   4.636   5.259  0.2884 -0.3747  0.0101
  411MOL0     C55396   7.887   4.650   5.227  0.3418  0.0031  0.5600
  411MOL0     O55397   7.655   4.499   5.172 -0.3048  0.4022 -0.1228
  411MOL0     C55398   7.409   4.542   5.036 -0.2547 -0.7083  1.1653
  411MOL0     C55399   7.291   4.581   4.977 -0.5206  0.2678 -0.2756
  411MOL0     N55400   6.769   4.265   5.004 -0.2478 -0.7816  0.6146
  411MOL0     N55401   6.689   4.159   4.995  0.1443 -0.5705 -0.9364
  411MOL0     C55402   5.444   4.013   5.268  1.1576  0.9078 -0.0635
  411MOL0     C55403   5.310   3.996   5.309  0.4503 -0.2126 -0.0581
  411MOL0     C55404   4.920   3.908   5.384 -0.3534 -0.3521 -1.3603
  411MOL0     C55405   4.872   3.941   5.263  0.3840 -0.6722  0.7122
  411MOL0     C55406   4.749   3.895   5.221 -0.1205  0.8967 -0.3779
  411MOL0     C55407   4.664   3.817   5.296  0.8041 -0.4760 -0.4856
  411MOL0     O55408   4.543   3.779   5.236 -0.2727  0.0799 -0.0607
  411MOL0     C55409   4.468   3.659   5.286  0.2070 -0.1718  0.1906
  411MOL0     C55410   4.548   3.522   5.280 -0.4369  0.1330 -0.5804
  411MOL0     C55411   4.478   3.404   5.368 -0.2069 -0.4421 -0.1161
  411MOL0     C55412   4.547   3.275   5.336  0.0750  0.1344  0.8255
  411MOL0     C55413   4.520   3.231   5.198 -0.2143 -0.6678  0.5045
  411MOL0     C55414   4.488   3.207   5.083 -0.7664 -0.2722 -0.0438
  411MOL0     C55415   4.707   3.788   5.420 -0.3064  0.9540 -0.2189
  411MOL0     C55416   4.838   3.821   5.466  0.4096  0.1190  0.6570
  411MOL0     C55417   4.870   3.780   5.607 -0.7198  0.6025  0.1380
  411MOL0     H55418   5.235   4.297   5.413 -0.3387  0.4738 -1.4194
  411MOL0     H55419   5.494   4.328   5.361 -0.1210 -0.6141  1.3478
  411MOL0     H55420   5.734   3.951   5.237  1.2237  1.1289 -0.6092
  411MOL0     H55421   5.669   4.017   5.092 -2.0165  1.2063  0.7492
  411MOL0     H55422   5.845   4.172   5.075 -0.8172 -0.6424 -0.9713
  411MOL0     H55423   5.897   4.009   5.073  2.1144 -0.2653  1.8159
  411MOL0     H55424   5.954   4.057   5.332  0.7439  1.8228  1.8117
  411MOL0     H55425   5.927   4.227   5.276 -2.0877 -0.5318 -1.0232
  411MOL0     H55426   6.122   4.084   5.114 -0.2274  0.0169  0.4304
  411MOL0     H55427   6.118   4.244   5.165  3.5244 -0.5554  0.5730
  411MOL0     H55428   6.189   4.153   5.408  2.3471  0.4109  0.3351
  411MOL0     H55429   6.210   3.999   5.317  2.1505 -0.5412 -1.6030
  411MOL0     H55430   6.338   4.254   5.239 -1.3441  0.4458  0.6187
  411MOL0     H55431   6.417   4.128   5.353 -0.7233  0.4834  0.5605
  411MOL0     H55432   6.395   4.156   5.055  1.6500  1.3499  0.7344
  411MOL0     H55433   6.334   4.000   5.104  1.6840 -0.5176  0.1729
  411MOL0     H55434   6.572   3.977   5.240 -0.2360 -0.1012 -0.3474
  411MOL0     H55435   6.542   3.963   5.061 -0.7823 -1.4017  1.2039
  411MOL0     H55436   6.639   4.248   5.304  0.0718 -2.4516  0.5617
  411MOL0     H55437   6.736   4.497   5.242 -0.0063 -1.0829  0.9251
  411MOL0     H55438   6.898   4.443   5.246 -0.2292  4.0956 -0.3502
  411MOL0     H55439   6.956   4.489   5.035 -0.5706 -2.8473 -0.0418
  411MOL0     H55440   6.791   4.556   4.997 -1.4128 -0.3918  0.9611
  411MOL0     H55441   6.960   4.669   5.217  0.4423 -2.2969  0.2857
  411MOL0     H55442   6.810   4.735   5.154  2.8793  3.4204  0.2526
  411MOL0     H55443   7.016   4.859   5.056  2.7222 -0.6971 -0.0286
  411MOL0     H55444   6.916   4.800   4.927 -1.3286  1.9115  1.4116
  411MOL0     H55445   7.196   4.837   5.167  0.8088 -0.3190  2.6512
  411MOL0     H55446   7.410   4.783   5.283  5.5248 -2.4497 -0.5197
  411MOL0     H55447   7.750   4.792   5.498  0.7571 -1.3118  1.7550
  411MOL0     H55448   7.990   4.767   5.579 -1.8195  0.9588  1.9780
  411MOL0     H55449   8.217   4.814   5.547  2.0868  0.7453  1.1427
  411MOL0     H55450   8.219   4.657   5.630 -0.1101 -1.2837 -0.6405
  411MOL0     H55451   8.432   4.598   5.538 -0.6035 -1.8485 -1.6410
  411MOL0     H55452   8.439   4.711   5.419  0.2910  0.7486  0.5569
  411MOL0     H55453   8.578   4.818   5.569  1.6248  2.0544  3.8042
  411MOL0     H55454   8.427   4.908   5.561  0.5167 -0.2448 -0.1149
  411MOL0     H55455   8.498   4.701   5.781  0.3780  0.7800  1.0227
  411MOL0     H55456   8.362   4.806   5.784  0.5518  0.2841  2.0609
  411MOL0     H55457   8.520   4.902   5.921 -1.3382  0.2227 -0.5363
  411MOL0     H55458   8.543   5.005   5.778 -1.9360  0.3759  1.6443
  411MOL0     H55459   8.711   4.753   5.857 -1.6559 -1.2096 -0.0284
  411MOL0     H55460   8.740   4.851   5.711  2.1059 -4.1397  0.7078
  411MOL0     H55461   8.735   4.966   5.992 -0.2552 -0.4589  0.3281
  411MOL0     H55462   8.811   5.028   5.832  0.7815 -0.5837 -0.2063
  411MOL0     H55463   8.973   4.943   6.006 -0.0295  0.2076  0.9311
  411MOL0     H55464   8.885   4.785   6.007 -2.2627 -0.3340 -1.9484
  411MOL0     H55465   8.083   4.579   5.187  1.6846 -1.2237  1.7295
  411MOL0     H55466   7.851   4.597   5.140 -3.7879  0.3635  1.8645
  411MOL0     H55467   7.460   4.455   4.996 -0.3909 -0.0997 -0.4300
  411MOL0     H55468   7.260   4.514   4.899  2.8167 -3.6624  1.3867
  411MOL0     H55469   5.491   3.925   5.226 -1.4673 -0.5614 -0.1312
  411MOL0     H55470   5.267   3.898   5.289 -0.3880  0.2752 -0.6450
  411MOL0     H55471   4.926   4.007   5.196 -1.3159 -0.3794 -0.4282
  411MOL0     H55472   4.732   3.922   5.117 -0.2990  1.9371 -0.0903
  411MOL0     H55473   4.380   3.644   5.224  0.3745 -0.1447 -0.0546
  411MOL0     H55474   4.432   3.685   5.386 -1.5339 -0.3850 -0.3503
  411MOL0     H55475   4.655   3.531   5.300  0.4506 -2.8207 -3.2004
  411MOL0     H55476   4.549   3.493   5.174  1.2102 -0.4305 -0.4333
  411MOL0     H55477   4.370   3.404   5.353 -0.3368 -1.5164  0.6611
  411MOL0     H55478   4.513   3.428   5.469 -2.3463 -2.3815  1.1945
  411MOL0     H55479   4.654   3.298   5.337 -0.2910  2.1745 -1.1220
  411MOL0     H55480   4.507   3.190   5.393  1.8981 -2.6077 -1.6661
  411MOL0     H55481   4.474   3.162   4.987  2.0600 -0.7799 -0.2957
  411MOL0     H55482   4.646   3.742   5.497  0.5131 -0.9652 -0.6544
  411MOL0     H55483   4.892   3.866   5.671  0.4285  1.9789 -2.0033
  411MOL0     H55484   4.789   3.727   5.658 -1.1305  1.9291  0.9247
  411MOL0     H55485   4.962   3.721   5.613  0.6215  2.6864  1.9264
  412MOL0     O55486   1.938   6.080   4.563 -0.8738  0.3810  0.1373
  412MOL0     C55487   1.879   6.021   4.469 -0.2115  0.0109  0.2267
  412MOL0     O55488   1.944   5.963   4.358 -0.0900 -1.3613  0.0218
  412MOL0     C55489   2.083   5.964   4.332  0.5796 -0.1395 -0.9717
  412MOL0     C55490   2.120   5.937   4.200  0.0406  0.0416  0.5287
  412MOL0     C55491   2.253   5.916   4.162 -0.2891 -0.2530 -0.8002
  412MOL0     C55492   2.358   5.931   4.253  0.4404  0.5664 -0.5287
  412MOL0     O55493   2.492   5.934   4.224 -0.1489  0.3925  0.2253
  412MOL0     C55494   2.521   5.939   4.086  0.0898  0.4802  0.3598
  412MOL0     C55495   2.668   5.977   4.070  0.9087  0.2648 -0.7590
  412MOL0     C55496   2.756   5.867   4.135  0.5091 -1.2057  0.0775
  412MOL0     C55497   2.897   5.891   4.092 -1.1876 -0.0680  0.3356
  412MOL0     C55498   2.985   5.771   4.133 -0.2561 -0.4271  0.4025
  412MOL0     C55499   3.130   5.801   4.130  0.4286  0.3838 -0.2446
  412MOL0     C55500   3.222   5.671   4.138 -0.8835  0.4688 -0.3808
  412MOL0     C55501   3.360   5.709   4.180 -0.3124  0.3710 -0.6579
  412MOL0     N55502   3.452   5.595   4.179  0.0001  0.6812  1.0496
  412MOL0     C55503   3.431   5.464   4.231  0.2875 -0.3952  0.5564
  412MOL0     C55504   3.549   5.403   4.188 -0.8525  0.3415  0.2626
  412MOL0     C55505   3.587   5.259   4.221  0.0269 -0.2332 -0.3435
  412MOL0     C55506   3.514   5.146   4.153  0.3720 -0.2235 -0.8944
  412MOL0     C55507   3.575   5.007   4.178 -0.0230 -0.9086  0.4177
  412MOL0     C55508   3.686   4.967   4.081 -0.1774  0.2755 -0.6087
  412MOL0     O55509   3.749   4.843   4.128 -0.6259  0.4886  0.1135
  412MOL0     C55510   3.878   4.826   4.094  0.1794  0.6325 -0.4578
  412MOL0     C55511   3.952   4.769   4.199  0.5120 -0.5765 -0.1081
  412MOL0     C55512   4.087   4.739   4.185 -0.0017  1.1673 -0.1913
  412MOL0     C55513   4.159   4.788   4.070  0.0670 -0.2858  0.3208
  412MOL0     C55514   4.302   4.792   4.057 -0.0400 -0.3327 -0.9939
  412MOL0     O55515   4.372   4.710   4.138 -0.0805 -0.3937 -0.4325
  412MOL0     C55516   4.503   4.728   4.150 -0.1894 -0.0470  0.1191
  412MOL0     C55517   4.594   4.657   4.068 -0.0707  0.7240 -0.5113
  412MOL0     C55518   4.727   4.656   4.102 -0.4926  0.1755 -0.7804
  412MOL0     C55519   4.778   4.732   4.213 -0.1486 -0.1818  0.0066
  412MOL0     O55520   4.907   4.748   4.250 -0.1622 -0.4755  0.4578
  412MOL0     C55521   5.012   4.664   4.206  0.1987  0.6299  0.2858
  412MOL0     C55522   5.140   4.704   4.271  0.1334 -0.1599 -0.4300
  412MOL0     C55523   5.166   4.853   4.286 -0.3037  0.4050 -1.3812
  412MOL0     C55524   5.312   4.890   4.325 -0.6391 -0.2094 -0.6019
  412MOL0     C55525   5.318   5.045   4.357 -0.2846 -0.1476  0.1021
  412MOL0     C55526   5.446   5.119   4.310 -0.3245 -0.9961 -0.2098
  412MOL0     C55527   5.445   5.274   4.318 -0.6407 -0.2172  0.1481
  412MOL0     C55528   5.576   5.328   4.256 -0.2336  0.7505 -0.1163
  412MOL0    Cl55529   5.708   5.312   4.370  0.2643  0.2434  0.1822
  412MOL0     C55530   4.686   4.809   4.286  0.6874  0.1818 -0.1940
  412MOL0     C55531   4.544   4.803   4.262  0.0878  0.4990  0.2041
  412MOL0     O55532   4.353   4.880   3.979 -0.1636  0.4687  0.0195
  412MOL0     C55533   4.082   4.842   3.962 -0.0394  0.0882  0.1535
  412MOL0     C55534   3.935   4.856   3.967 -0.9865 -0.3749 -0.6868
  412MOL0     N55535   3.632   5.482   4.108 -0.5136 -0.3243 -0.2139
  412MOL0     N55536   3.571   5.597   4.105  0.3154  0.5469  0.8086
  412MOL0     C55537   2.320   5.967   4.385  1.2266  0.3421  0.7282
  412MOL0     C55538   2.183   5.983   4.427 -0.8395 -0.5058 -0.2496
  412MOL0     C55539   1.731   6.025   4.462 -0.3448 -0.2590 -0.5213
  412MOL0     C55540   1.674   6.062   4.345 -0.5390 -0.4748 -0.0667
  412MOL0     C55541   1.538   6.092   4.336 -0.0215  0.3830 -0.4568
  412MOL0     C55542   1.455   6.060   4.447 -0.0644 -0.6173 -0.9192
  412MOL0     O55543   1.320   6.071   4.450  0.0736  1.0056 -0.2743
  412MOL0     C55544   1.249   6.059   4.330 -0.7262 -0.3223  0.4127
  412MOL0     C55545   1.108   6.030   4.378  0.7231  0.1872  0.1949
  412MOL0     C55546   1.022   6.041   4.257 -0.3372  0.0455  0.7028
  412MOL0     C55547   0.882   5.993   4.275 -1.2536  0.3642 -0.5532
  412MOL0     C55548   0.799   6.071   4.370 -0.1318  0.4853  0.5201
  412MOL0     C55549   0.730   6.134   4.445  0.3776 -0.3119 -1.1238
  412MOL0     C55550   1.517   6.018   4.564  0.8651  0.1353  0.7957
  412MOL0     C55551   1.649   6.016   4.578 -0.4518 -0.5646  0.1822
  412MOL0     C55552   1.696   6.018   4.724  0.1512  0.4816 -0.3086
  412MOL0     H55553   2.048   5.940   4.118  1.7760 -2.0200 -1.2003
  412MOL0     H55554   2.275   5.911   4.056  5.0473  0.4765 -0.0219
  412MOL0     H55555   2.499   5.839   4.049  2.9788  0.6550 -2.3347
  412MOL0     H55556   2.465   6.014   4.029  0.8304  0.3977 -0.5083
  412MOL0     H55557   2.688   6.074   4.117 -0.2465 -0.2742  0.9402
  412MOL0     H55558   2.689   5.965   3.963 -0.3962 -2.3036 -0.8071
  412MOL0     H55559   2.731   5.768   4.097  0.0119 -1.3258  0.6982
  412MOL0     H55560   2.734   5.858   4.242 -2.0338 -2.6428 -0.5081
  412MOL0     H55561   2.889   5.899   3.983  1.7211 -0.7549 -0.0076
  412MOL0     H55562   2.946   5.983   4.124 -0.1173 -1.4290  2.8904
  412MOL0     H55563   2.958   5.747   4.236 -0.3420  0.8500  0.6923
  412MOL0     H55564   2.966   5.690   4.063 -1.2968  0.4345 -0.3568
  412MOL0     H55565   3.156   5.840   4.031 -4.2116  1.3476 -1.2795
  412MOL0     H55566   3.165   5.875   4.204  1.6306  1.5003 -1.8489
  412MOL0     H55567   3.224   5.619   4.042 -1.4238 -0.0146 -0.1361
  412MOL0     H55568   3.176   5.600   4.207  0.7726 -0.1234  0.1453
  412MOL0     H55569   3.401   5.787   4.114  1.4930  0.6449  0.6899
  412MOL0     H55570   3.362   5.746   4.283  0.3045  0.2176 -0.6106
  412MOL0     H55571   3.344   5.422   4.281 -0.1388 -1.0587 -0.6770
  412MOL0     H55572   3.694   5.268   4.199  0.6060  1.3784  2.6054
  412MOL0     H55573   3.596   5.231   4.326  3.0570 -1.2440 -0.7532
  412MOL0     H55574   3.412   5.144   4.193  0.8637  2.7269  0.7618
  412MOL0     H55575   3.514   5.166   4.046 -2.6723 -2.5529 -1.4828
  412MOL0     H55576   3.504   4.925   4.165 -0.0315 -0.9590  0.7692
  412MOL0     H55577   3.606   4.998   4.283  2.1122 -1.8043 -0.2250
  412MOL0     H55578   3.756   5.051   4.071 -1.2216  1.1691 -0.6236
  412MOL0     H55579   3.640   4.962   3.982  0.5393  2.5461 -1.1196
  412MOL0     H55580   3.918   4.739   4.298  2.3776  2.0547  1.4578
  412MOL0     H55581   4.132   4.700   4.275 -0.6021  2.8878  0.9239
  412MOL0     H55582   4.559   4.602   3.981  0.5306  0.0955 -0.3679
  412MOL0     H55583   4.805   4.599   4.052  0.2334 -0.7549  1.2784
  412MOL0     H55584   4.990   4.559   4.226 -1.8236  0.5820 -1.7395
  412MOL0     H55585   5.020   4.676   4.098 -3.1284 -1.2743 -0.3103
  412MOL0     H55586   5.144   4.665   4.373  2.6549  0.8845 -0.0475
  412MOL0     H55587   5.218   4.658   4.211  0.4884  0.9188 -0.8210
  412MOL0     H55588   5.159   4.890   4.183  1.7513 -1.2083 -2.1576
  412MOL0     H55589   5.089   4.905   4.343 -3.2440 -0.4459 -4.2270
  412MOL0     H55590   5.378   4.858   4.243 -1.7373 -1.8431 -0.8869
  412MOL0     H55591   5.349   4.835   4.412  1.5005 -2.3167 -2.6795
  412MOL0     H55592   5.312   5.048   4.466 -3.0776  1.7447 -0.0018
  412MOL0     H55593   5.242   5.097   4.298  0.2517 -0.2946 -0.7509
  412MOL0     H55594   5.522   5.074   4.374 -0.7427 -1.8864 -0.3349
  412MOL0     H55595   5.458   5.085   4.206 -1.2646 -1.4951 -0.1606
  412MOL0     H55596   5.432   5.305   4.422  0.9325 -0.1934  0.3625
  412MOL0     H55597   5.359   5.295   4.254 -0.7052 -0.7023  0.0677
  412MOL0     H55598   5.592   5.281   4.159  1.9091  0.2305  0.4406
  412MOL0     H55599   5.563   5.432   4.224 -1.5817  1.9679  3.7120
  412MOL0     H55600   4.726   4.862   4.372 -0.8482 -0.9492  1.2820
  412MOL0     H55601   4.473   4.856   4.324  0.3314  1.2265 -0.1315
  412MOL0     H55602   4.121   4.881   3.869 -1.8376  0.8500 -0.3154
  412MOL0     H55603   3.884   4.886   3.876  1.7307 -2.2825 -3.0280
  412MOL0     H55604   2.391   5.995   4.462  0.3261  1.1641  1.2700
  412MOL0     H55605   2.162   6.009   4.530 -4.2338  1.6955 -1.3289
  412MOL0     H55606   1.744   6.080   4.263 -1.2407 -0.9145 -0.7834
  412MOL0     H55607   1.504   6.140   4.245  2.1871  1.2542 -0.8899
  412MOL0     H55608   1.278   5.973   4.269 -1.2517 -0.3091  0.1373
  412MOL0     H55609   1.261   6.154   4.277  2.4187 -0.5133  0.5702
  412MOL0     H55610   1.091   6.103   4.458 -0.0921 -0.1160  0.3121
  412MOL0     H55611   1.097   5.937   4.434 -0.4387  0.3981  0.3339
  412MOL0     H55612   1.058   5.973   4.179  2.7135  2.2282  0.0407
  412MOL0     H55613   1.019   6.139   4.209  0.9992  0.4554  1.4298
  412MOL0     H55614   0.827   6.011   4.183 -0.2822  0.8955 -1.0542
  412MOL0     H55615   0.886   5.886   4.296  3.9523  0.2428 -0.7042
  412MOL0     H55616   0.661   6.183   4.511  3.5821  0.3361  2.1115
  412MOL0     H55617   1.446   5.995   4.644 -1.2722 -0.7230 -1.2198
  412MOL0     H55618   1.761   5.930   4.732 -0.8557 -0.3037 -0.6637
  412MOL0     H55619   1.751   6.111   4.744 -0.3913  0.7315  0.0413
  412MOL0     H55620   1.624   6.018   4.805  0.3401 -0.7918 -0.1278
  413MOL0     O55621   0.981   0.489   9.354 -0.4479  0.6463 -0.0949
  413MOL0     C55622   0.962   0.455   9.469  0.2849 -0.4959  0.5784
  413MOL0     O55623   1.061   0.410   9.552  0.1746  0.6107  0.3775
  413MOL0     C55624   1.193   0.399   9.521  0.3184  0.0030  0.2588
  413MOL0     C55625   1.260   0.417   9.397 -1.2591  0.4295 -0.4966
  413MOL0     C55626   1.401   0.399   9.389  0.6432  0.1639  1.0347
  413MOL0     C55627   1.472   0.394   9.506 -0.2220  0.4105 -0.3130
  413MOL0     O55628   1.609   0.400   9.515  0.4994  0.0400  1.0485
  413MOL0     C55629   1.683   0.442   9.396 -0.6531 -0.1983 -0.4033
  413MOL0     C55630   1.824   0.471   9.441  0.2422  0.0801  0.0818
  413MOL0     C55631   1.892   0.344   9.488  0.2363  0.4564  0.4084
  413MOL0     C55632   2.045   0.363   9.523  0.7740 -0.9128  0.1576
  413MOL0     C55633   2.106   0.236   9.582 -0.0122  0.3680  0.0463
  413MOL0     C55634   2.118   0.108   9.498 -0.9468 -0.3535 -0.1433
  413MOL0     C55635   2.177  -0.014   9.573  0.3846  0.7092  0.2745
  413MOL0     C55636   2.219  -0.140   9.488  0.9612 -0.1435 -0.2598
  413MOL0     N55637   2.324  -0.208   9.557  0.0445 -1.2288  0.2264
  413MOL0     C55638   2.318  -0.280   9.671 -0.4375  0.0038 -0.4593
  413MOL0     C55639   2.445  -0.317   9.702  0.2520 -0.3374 -0.0716
  413MOL0     C55640   2.497  -0.414   9.803  0.2352  0.2271 -0.6942
  413MOL0     C55641   2.476  -0.352   9.931 -0.0922 -1.1339  0.5918
  413MOL0     C55642   2.586  -0.375  10.040  0.1755 -0.9559  0.4728
  413MOL0     C55643   2.714  -0.280  10.032  0.3087 -0.5551  0.8185
  413MOL0     O55644   2.786  -0.321   9.913  0.5601 -0.1462 -0.0891
  413MOL0     C55645   2.912  -0.370   9.901  0.3400 -0.2733 -0.2683
  413MOL0     C55646   2.988  -0.405  10.010 -0.8312 -0.3535 -0.4225
  413MOL0     C55647   3.116  -0.459   9.996 -0.0548 -0.3428  0.4941
  413MOL0     C55648   3.175  -0.477   9.865  0.5300  0.4603 -0.3419
  413MOL0     C55649   3.310  -0.533   9.841  0.3437  0.1256 -0.2998
  413MOL0     O55650   3.369  -0.589   9.952 -0.2326 -0.3597  0.3851
  413MOL0     C55651   3.510  -0.595   9.967  0.2156  0.0481  0.2187
  413MOL0     C55652   3.559  -0.709  10.026  1.0558  0.5156 -0.2740
  413MOL0     C55653   3.692  -0.715  10.066 -0.2362  0.0059 -1.2825
  413MOL0     C55654   3.776  -0.608  10.052 -0.0410  0.6295 -0.6242
  413MOL0     O55655   3.902  -0.627  10.099 -0.0913 -0.2026 -0.1557
  413MOL0     C55656   4.004  -0.535  10.057  0.5020  1.0249 -0.5088
  413MOL0     C55657   4.128  -0.579  10.138  0.6144  0.1782 -0.1556
  413MOL0     C55658   4.183  -0.720  10.112  0.3540 -0.2574  0.3637
  413MOL0     C55659   4.167  -0.813  10.234  0.5114  0.3733  0.8816
  413MOL0     C55660   4.298  -0.811  10.323  0.6543 -0.3273 -0.1049
  413MOL0     C55661   4.268  -0.874  10.459 -0.3101  0.3126 -0.0050
  413MOL0     C55662   4.358  -0.818  10.577  0.4551  0.4672  0.5138
  413MOL0     C55663   4.511  -0.831  10.559  0.1003  0.0804  0.4114
  413MOL0    Cl55664   4.588  -0.820  10.720  0.1164  0.0678 -0.5607
  413MOL0     C55665   3.726  -0.488   9.990 -0.1797 -0.6714  0.5524
  413MOL0     C55666   3.594  -0.477   9.953  0.2844  1.2805  0.4249
  413MOL0     O55667   3.364  -0.507   9.739 -0.0719 -0.2675  0.7691
  413MOL0     C55668   3.089  -0.443   9.758 -1.0455  0.1619 -0.2324
  413MOL0     C55669   2.961  -0.381   9.777 -0.5414 -0.1258  0.6808
  413MOL0     N55670   2.527  -0.250   9.603 -0.1619 -0.0933  0.3156
  413MOL0     N55671   2.454  -0.193   9.512  0.3523  0.6042 -0.0493
  413MOL0     C55672   1.409   0.384   9.625 -0.2222 -0.5052 -0.5780
  413MOL0     C55673   1.269   0.380   9.634  0.2510  0.5912 -0.5720
  413MOL0     C55674   0.817   0.446   9.515 -0.0595  0.1044 -0.8447
  413MOL0     C55675   0.795   0.412   9.653 -0.1699  0.1009  1.0124
  413MOL0     C55676   0.671   0.400   9.712 -0.3563  0.2503 -0.4871
  413MOL0     C55677   0.559   0.401   9.632  0.2020  0.4399  1.1906
  413MOL0     O55678   0.435   0.372   9.686  0.0280 -0.4635  0.2628
  413MOL0     C55679   0.324   0.348   9.588 -0.2738  0.6562 -0.4216
  413MOL0     C55680   0.185   0.307   9.643  0.1090 -0.3605 -0.4832
  413MOL0     C55681   0.100   0.246   9.528  0.7553 -0.6741 -0.1487
  413MOL0     C55682  -0.047   0.236   9.581  0.3755 -0.0004  0.5543
  413MOL0     C55683  -0.091   0.376   9.610  0.7332  0.2104  0.2286
  413MOL0     C55684  -0.120   0.493   9.600  1.1790 -0.4971  0.1225
  413MOL0     C55685   0.573   0.433   9.493 -0.2499 -0.2644  0.2186
  413MOL0     C55686   0.698   0.469   9.441 -0.8056 -0.6042  0.1207
  413MOL0     C55687   0.706   0.522   9.304  0.5520  0.2349  0.3129
  413MOL0     H55688   1.209   0.443   9.305 -1.1912  0.5304 -0.5064
  413MOL0     H55689   1.459   0.415   9.300  1.0816 -2.5481  0.7731
  413MOL0     H55690   1.689   0.363   9.321  0.8373  0.2531 -0.7813
  413MOL0     H55691   1.636   0.531   9.352 -2.3802 -0.5027  0.7306
  413MOL0     H55692   1.827   0.539   9.527 -0.1107  1.7431 -1.1696
  413MOL0     H55693   1.876   0.524   9.361 -3.1670  3.7117 -0.0538
  413MOL0     H55694   1.880   0.264   9.414  0.5584  0.5331  0.2734
  413MOL0     H55695   1.828   0.324   9.574 -0.0359  0.3443  0.1806
  413MOL0     H55696   2.104   0.394   9.436  1.1167  0.8152  0.9592
  413MOL0     H55697   2.060   0.446   9.593 -1.5566 -1.2608  1.1760
  413MOL0     H55698   2.204   0.253   9.628  0.5717 -0.5755 -0.8085
  413MOL0     H55699   2.036   0.205   9.661 -0.4225 -1.8303 -1.0772
  413MOL0     H55700   2.014   0.090   9.469 -1.4493 -0.4015  1.5677
  413MOL0     H55701   2.174   0.132   9.408 -0.2562  1.1916  0.6606
  413MOL0     H55702   2.105  -0.042   9.650  1.1473 -0.3218  0.6342
  413MOL0     H55703   2.261   0.023   9.632  1.9303 -1.7480 -0.2591
  413MOL0     H55704   2.131  -0.204   9.476 -0.0942  0.9612  1.2188
  413MOL0     H55705   2.248  -0.115   9.385 -0.6923  1.5876 -0.3704
  413MOL0     H55706   2.232  -0.298   9.735  0.9465  1.5704  2.0149
  413MOL0     H55707   2.447  -0.511   9.799  1.9067 -0.6197 -2.5171
  413MOL0     H55708   2.599  -0.444   9.778  0.0070 -0.1771 -1.1480
  413MOL0     H55709   2.463  -0.244   9.917 -4.1799 -1.6978 -1.2216
  413MOL0     H55710   2.379  -0.390   9.963 -1.2403  1.4660  0.4578
  413MOL0     H55711   2.603  -0.482  10.054 -1.9699 -1.2903  1.0182
  413MOL0     H55712   2.539  -0.344  10.134  0.5038 -0.1138  0.3676
  413MOL0     H55713   2.768  -0.291  10.127 -1.4947 -2.2098  1.7051
  413MOL0     H55714   2.683  -0.175  10.023 -1.9324 -1.3258 -1.5346
  413MOL0     H55715   2.955  -0.391  10.112  0.5507 -0.0160  0.0005
  413MOL0     H55716   3.166  -0.502  10.082  2.6470  1.9643  0.2356
  413MOL0     H55717   3.495  -0.792  10.056 -1.5460  2.6436  0.5556
  413MOL0     H55718   3.732  -0.804  10.114 -1.1075  1.6145  2.8233
  413MOL0     H55719   4.026  -0.538   9.950  1.0106 -2.7891 -0.4443
  413MOL0     H55720   3.990  -0.429  10.080  0.3407  1.3151 -1.8399
  413MOL0     H55721   4.211  -0.510  10.124  1.0195 -0.3231 -0.2600
  413MOL0     H55722   4.097  -0.562  10.242  3.7526 -0.3705  0.9751
  413MOL0     H55723   4.142  -0.763  10.020  1.5153 -0.0474 -0.2828
  413MOL0     H55724   4.288  -0.694  10.096  0.0549  1.6932  1.3175
  413MOL0     H55725   4.160  -0.917  10.201 -0.2851  0.9390 -0.8240
  413MOL0     H55726   4.071  -0.802  10.285 -0.6945 -0.7402 -1.0279
  413MOL0     H55727   4.330  -0.708  10.338  2.6349 -0.5697 -2.0881
  413MOL0     H55728   4.375  -0.866  10.268 -1.5854 -2.2441 -1.5537
  413MOL0     H55729   4.163  -0.854  10.484 -0.3378  0.4892 -0.2631
  413MOL0     H55730   4.288  -0.981  10.448 -2.5826 -0.0960 -0.7851
  413MOL0     H55731   4.338  -0.878  10.666 -3.9556 -1.0740 -1.2452
  413MOL0     H55732   4.330  -0.713  10.594  1.5729  0.6458  1.3913
  413MOL0     H55733   4.531  -0.928  10.513 -1.0182  0.3021 -0.5974
  413MOL0     H55734   4.549  -0.744  10.503  2.2033 -0.4563  0.9249
  413MOL0     H55735   3.794  -0.404   9.976 -2.2710  0.9327 -0.4342
  413MOL0     H55736   3.551  -0.385   9.913  1.2268  0.8407 -1.7528
  413MOL0     H55737   3.122  -0.451   9.654 -0.6771 -2.0730 -0.0073
  413MOL0     H55738   2.908  -0.344   9.690 -1.6397 -0.4880  1.1901
  413MOL0     H55739   1.476   0.380   9.711 -1.0735 -0.5340  0.1085
  413MOL0     H55740   1.207   0.368   9.722  0.5475  2.7194 -0.0065
  413MOL0     H55741   0.874   0.420   9.727 -0.2547  1.3286  0.9835
  413MOL0     H55742   0.664   0.380   9.818  1.8318  1.5204 -0.0346
  413MOL0     H55743   0.356   0.275   9.514  0.5379  0.8366 -0.2581
  413MOL0     H55744   0.285   0.441   9.547 -0.6195  1.3764  1.4230
  413MOL0     H55745   0.145   0.396   9.693  1.2095 -0.2222  0.1758
  413MOL0     H55746   0.195   0.237   9.726 -2.7967 -1.3953 -0.8775
  413MOL0     H55747   0.135   0.148   9.495  3.1936  0.1821 -0.2548
  413MOL0     H55748   0.099   0.311   9.439 -3.0898  0.0109  0.1879
  413MOL0     H55749  -0.112   0.206   9.499  2.0227  0.9352 -1.1861
  413MOL0     H55750  -0.061   0.165   9.662  0.8118  1.0530  1.5875
  413MOL0     H55751  -0.152   0.595   9.602 -0.3540 -0.6263 -4.6792
  413MOL0     H55752   0.492   0.438   9.421 -0.1913  2.9199  0.2552
  413MOL0     H55753   0.732   0.627   9.315  0.2062  0.2524  0.9766
  413MOL0     H55754   0.765   0.467   9.229  1.9619  1.1901  0.6754
  413MOL0     H55755   0.615   0.529   9.244  1.5946 -0.9589 -1.5455
  414MOL0     O55756   3.794  11.285   3.928  0.5262 -0.2581  0.2753
  414MOL0     C55757   3.695  11.358   3.956 -0.0693  0.0963  0.9046
  414MOL0     O55758   3.678  11.489   3.917  0.9269  0.4340 -0.2628
  414MOL0     C55759   3.791  11.549   3.862  0.5123 -0.6352 -1.0018
  414MOL0     C55760   3.869  11.645   3.932  0.1254 -0.4450  0.3009
  414MOL0     C55761   3.969  11.718   3.869 -0.0124  0.3202  0.6363
  414MOL0     C55762   3.998  11.701   3.730 -0.8089  0.9066  1.1529
  414MOL0     O55763   4.094  11.768   3.653 -0.1373 -0.7668 -0.2516
  414MOL0     C55764   4.154  11.869   3.733  0.1762 -0.5427 -0.1873
  414MOL0     C55765   4.276  11.915   3.661 -0.5031 -0.3702  0.5834
  414MOL0     C55766   4.364  12.018   3.747  0.0076 -0.1623  0.2741
  414MOL0     C55767   4.452  12.095   3.646 -0.2279  0.0046  0.8725
  414MOL0     C55768   4.554  12.180   3.716 -0.5331  0.9549 -0.0157
  414MOL0     C55769   4.636  12.264   3.617  0.3658  0.4482  0.1500
  414MOL0     C55770   4.749  12.335   3.689  0.6388  0.3533  0.1958
  414MOL0     C55771   4.837  12.401   3.583 -0.5950 -0.4936 -1.0435
  414MOL0     N55772   4.943  12.306   3.532 -0.0393  0.0981 -0.5213
  414MOL0     C55773   5.066  12.280   3.577 -1.0294 -0.9111  0.4213
  414MOL0     C55774   5.129  12.210   3.475 -0.2782 -0.1134  0.5510
  414MOL0     C55775   5.265  12.141   3.474  0.2727 -0.4945  0.2803
  414MOL0     C55776   5.384  12.224   3.525 -0.2931 -0.5235  0.7665
  414MOL0     C55777   5.403  12.342   3.430 -0.2421 -0.1432  0.6485
  414MOL0     C55778   5.543  12.410   3.452  0.9891  0.9834  0.1455
  414MOL0     O55779   5.641  12.310   3.423 -0.5076  0.1219  0.6987
  414MOL0     C55780   5.773  12.322   3.465 -0.9135  0.1275 -0.7368
  414MOL0     C55781   5.820  12.426   3.543 -0.3152 -0.5116 -0.2110
  414MOL0     C55782   5.955  12.430   3.582  0.0350 -0.1832 -0.0280
  414MOL0     C55783   6.050  12.334   3.541 -0.0329 -0.2379  0.3209
  414MOL0     C55784   6.187  12.336   3.589  0.3711 -0.6427 -0.6261
  414MOL0     O55785   6.227  12.454   3.646 -0.3965 -0.3391 -0.4515
  414MOL0     C55786   6.349  12.453   3.715  0.3412 -0.0770 -0.9712
  414MOL0     C55787   6.335  12.440   3.861 -0.4882 -0.4542  0.1732
  414MOL0     C55788   6.447  12.425   3.945 -0.4568 -0.3213  0.0831
  414MOL0     C55789   6.573  12.418   3.884 -0.1218 -0.1637  0.1279
  414MOL0     O55790   6.679  12.412   3.974  0.4304  0.0629  0.3027
  414MOL0     C55791   6.796  12.338   3.932 -0.1675  0.1089  0.6983
  414MOL0     C55792   6.918  12.374   4.017 -0.2120 -0.5647  0.8739
  414MOL0     C55793   7.046  12.370   3.935  0.5114 -0.5449 -0.2503
  414MOL0     C55794   7.169  12.431   4.003  0.1703 -0.1692  0.3848
  414MOL0     C55795   7.282  12.444   3.906  0.5216  0.5189  0.2131
  414MOL0     C55796   7.394  12.523   3.978  0.2486  0.2160 -0.4022
  414MOL0     C55797   7.513  12.535   3.891 -0.5952 -0.3122 -0.1107
  414MOL0     C55798   7.616  12.631   3.961  0.3506  0.3841 -0.7513
  414MOL0    Cl55799   7.655  12.556   4.108 -0.1833 -0.0188 -0.4627
  414MOL0     C55800   6.582  12.427   3.741  0.6470  0.2680  0.1102
  414MOL0     C55801   6.465  12.446   3.657 -0.5980 -0.3920 -0.2495
  414MOL0     O55802   6.252  12.230   3.590 -0.2263 -0.0938  0.0013
  414MOL0     C55803   6.003  12.227   3.466  0.1832  0.5377 -0.7633
  414MOL0     C55804   5.866  12.220   3.438  0.5380 -0.2675  0.8772
  414MOL0     N55805   5.037  12.203   3.370  0.3666 -0.4637  0.5445
  414MOL0     N55806   4.936  12.259   3.401  0.1419  0.2608  0.7981
  414MOL0     C55807   3.927  11.600   3.667  0.1291  0.3301  0.3888
  414MOL0     C55808   3.828  11.528   3.732 -0.3888 -0.0288  0.1524
  414MOL0     C55809   3.575  11.296   4.018  1.0757  0.5808 -0.0248
  414MOL0     C55810   3.533  11.357   4.134  0.0645 -1.2020  0.0364
  414MOL0     C55811   3.427  11.290   4.199 -0.9390  0.2208  0.0693
  414MOL0     C55812   3.370  11.165   4.159 -0.7620 -0.9013  0.1537
  414MOL0     O55813   3.272  11.104   4.227 -0.6225 -0.1183 -0.8254
  414MOL0     C55814   3.158  11.170   4.295  0.8923 -0.6518  0.2209
  414MOL0     C55815   3.040  11.072   4.292  0.2491  0.5802  0.5172
  414MOL0     C55816   3.008  11.041   4.142 -0.1719 -0.8878 -0.3779
  414MOL0     C55817   2.905  10.922   4.147 -0.5576 -1.0788 -0.1599
  414MOL0     C55818   2.773  10.962   4.188 -0.3363  0.4242  0.0890
  414MOL0     C55819   2.660  10.962   4.236  0.9699 -0.4076  0.5261
  414MOL0     C55820   3.416  11.106   4.045 -0.3889 -0.1618  0.8061
  414MOL0     C55821   3.519  11.172   3.971 -0.6952 -0.2163  0.1189
  414MOL0     C55822   3.567  11.103   3.848 -0.5789 -0.4657 -0.0507
  414MOL0     H55823   3.850  11.656   4.038  3.3651 -1.4453  1.1059
  414MOL0     H55824   4.033  11.769   3.941 -0.5354 -0.7392  1.8887
  414MOL0     H55825   4.079  11.949   3.742  0.1721 -0.2525 -2.3689
  414MOL0     H55826   4.190  11.834   3.830  0.2163  0.2072  0.0823
  414MOL0     H55827   4.252  11.955   3.562  4.8485  2.7290  0.1855
  414MOL0     H55828   4.331  11.821   3.656 -0.0323 -0.0285 -1.2163
  414MOL0     H55829   4.429  11.962   3.816  0.8011 -1.5256 -1.4899
  414MOL0     H55830   4.299  12.084   3.805 -0.0645  0.4576 -0.4978
  414MOL0     H55831   4.511  12.033   3.578  0.3784  1.7168 -0.2096
  414MOL0     H55832   4.390  12.149   3.574  2.3128 -1.6346 -2.8191
  414MOL0     H55833   4.504  12.240   3.792  0.4992 -0.9736  2.3081
  414MOL0     H55834   4.618  12.111   3.771 -0.5289 -0.2408 -1.4635
  414MOL0     H55835   4.684  12.198   3.544  2.0338 -0.6505  2.1677
  414MOL0     H55836   4.568  12.334   3.566  1.2291  1.9293  0.9602
  414MOL0     H55837   4.807  12.262   3.746  0.9689  0.2035 -0.3287
  414MOL0     H55838   4.703  12.415   3.749 -0.9247  0.6965 -1.4002
  414MOL0     H55839   4.775  12.434   3.499 -1.6145 -1.7369 -0.8007
  414MOL0     H55840   4.884  12.493   3.621 -2.6803  0.7678 -1.3406
  414MOL0     H55841   5.111  12.315   3.669 -3.1424  1.1700  0.7772
  414MOL0     H55842   5.255  12.053   3.539 -2.1384 -0.2691  0.3017
  414MOL0     H55843   5.286  12.104   3.374  1.4277 -0.9934  0.6895
  414MOL0     H55844   5.363  12.260   3.627 -2.3067  0.6448 -0.0065
  414MOL0     H55845   5.476  12.167   3.537  1.7421  2.4499  0.4234
  414MOL0     H55846   5.322  12.412   3.453  1.4555  1.2224  2.8609
  414MOL0     H55847   5.393  12.300   3.329 -2.9254  0.9391  0.3700
  414MOL0     H55848   5.554  12.438   3.557  3.1871  0.5711  0.0549
  414MOL0     H55849   5.556  12.499   3.390 -0.9988  1.1336 -0.1302
  414MOL0     H55850   5.753  12.509   3.559 -0.4752 -0.7444  0.3764
  414MOL0     H55851   5.990  12.511   3.644  1.5254  0.0030 -1.0574
  414MOL0     H55852   6.236  12.446   3.904  0.0394  0.6814  1.2905
  414MOL0     H55853   6.430  12.435   4.051 -2.3870  0.8884 -0.2849
  414MOL0     H55854   6.777  12.232   3.951  1.1606 -0.1989  0.3695
  414MOL0     H55855   6.827  12.348   3.828 -0.0509 -0.7936  0.6375
  414MOL0     H55856   6.897  12.471   4.061  1.2558  0.0376  0.3125
  414MOL0     H55857   6.930  12.297   4.093  0.2142 -1.6262 -0.2264
  414MOL0     H55858   7.068  12.264   3.928  0.8091 -0.5895  1.0686
  414MOL0     H55859   7.029  12.409   3.834 -1.3698  1.8689  0.8827
  414MOL0     H55860   7.200  12.368   4.086  1.8653 -1.1014 -0.8854
  414MOL0     H55861   7.158  12.531   4.045  2.0061 -0.0493  0.6610
  414MOL0     H55862   7.244  12.493   3.817 -1.4331 -1.2423 -0.0222
  414MOL0     H55863   7.328  12.349   3.876 -0.8775  0.5899 -2.4461
  414MOL0     H55864   7.365  12.621   4.017  0.6198  0.1902 -0.0483
  414MOL0     H55865   7.414  12.465   4.069 -0.3014 -0.4121 -0.6662
  414MOL0     H55866   7.484  12.585   3.798 -0.5549  3.2643  1.6413
  414MOL0     H55867   7.552  12.434   3.875 -0.9044 -0.1101 -2.5936
  414MOL0     H55868   7.708  12.649   3.905  0.2216  2.8321 -0.2808
  414MOL0     H55869   7.572  12.725   3.995 -0.9173  0.0918 -1.5087
  414MOL0     H55870   6.681  12.427   3.697  0.6721  2.4267  0.0541
  414MOL0     H55871   6.488  12.460   3.552 -0.5937  1.3793 -0.0284
  414MOL0     H55872   6.068  12.143   3.446  0.2802  0.0011  1.5590
  414MOL0     H55873   5.822  12.127   3.404  0.0318  0.0378  0.6849
  414MOL0     H55874   3.957  11.582   3.565  1.9688  1.1228  0.7525
  414MOL0     H55875   3.786  11.442   3.680 -1.0650 -0.4691  1.3785
  414MOL0     H55876   3.579  11.445   4.177  0.6243 -1.7341  0.5513
  414MOL0     H55877   3.392  11.320   4.298 -3.2182 -1.5342 -0.1298
  414MOL0     H55878   3.129  11.264   4.247  1.6071 -1.0677 -1.0731
  414MOL0     H55879   3.184  11.192   4.399  0.0678  0.1833  0.2613
  414MOL0     H55880   2.953  11.119   4.339 -0.8807 -0.4829 -0.4518
  414MOL0     H55881   3.073  10.982   4.346  0.2649  0.2888  0.0260
  414MOL0     H55882   3.095  10.997   4.093 -0.7156  0.3971 -2.6492
  414MOL0     H55883   2.975  11.133   4.092 -0.4210  1.1329  3.1061
  414MOL0     H55884   2.908  10.893   4.042  0.8010  1.7938 -1.0283
  414MOL0     H55885   2.950  10.838   4.201  0.9656 -0.5846 -0.5845
  414MOL0     H55886   2.567  10.964   4.290  0.3760  1.1455 -0.4766
  414MOL0     H55887   3.382  11.004   4.026  1.4432 -0.2193 -3.2839
  414MOL0     H55888   3.474  11.069   3.800 -1.2227 -2.6606  2.5155
  414MOL0     H55889   3.624  11.173   3.787 -0.5981  1.7658  2.3452
  414MOL0     H55890   3.625  11.016   3.879 -1.1101 -0.4132  1.1637
  415MOL0     O55891   0.198   4.598   9.135 -0.1056 -0.2810  0.1508
  415MOL0     C55892   0.243   4.488   9.162  0.3870  0.2945 -0.1206
  415MOL0     O55893   0.370   4.456   9.200 -0.0111  0.1392  0.3739
  415MOL0     C55894   0.477   4.543   9.178 -0.7365  0.2723  0.9773
  415MOL0     C55895   0.469   4.666   9.117 -0.0682  0.2808  0.4905
  415MOL0     C55896   0.593   4.737   9.105  0.3783  0.6182 -0.2869
  415MOL0     C55897   0.721   4.681   9.145  0.1600 -0.4032  0.1042
  415MOL0     O55898   0.840   4.746   9.148 -0.5180  0.3202  0.1426
  415MOL0     C55899   0.846   4.891   9.143 -0.6085 -0.1338  0.6141
  415MOL0     C55900   0.962   4.940   9.225  0.2193 -0.7556  0.4549
  415MOL0     C55901   1.095   4.944   9.147 -0.6955 -0.3207  0.6153
  415MOL0     C55902   1.223   4.961   9.229 -0.5440 -0.3478  0.1624
  415MOL0     C55903   1.343   4.992   9.138  0.3931 -0.5331  0.1571
  415MOL0     C55904   1.463   5.024   9.217  0.4066  0.6148 -0.7193
  415MOL0     C55905   1.579   5.049   9.128  0.2206 -0.4562  0.0385
  415MOL0     C55906   1.707   5.092   9.208 -0.1340 -0.1708 -0.4339
  415MOL0     N55907   1.701   5.233   9.253  0.2893  0.5673 -0.1722
  415MOL0     C55908   1.704   5.355   9.183  0.6764  0.7235 -0.2486
  415MOL0     C55909   1.686   5.447   9.283  0.3132 -0.6364  0.1880
  415MOL0     C55910   1.719   5.591   9.254  0.0746  0.0963 -1.2796
  415MOL0     C55911   1.844   5.632   9.338  0.0782  0.0118 -0.1434
  415MOL0     C55912   1.971   5.550   9.305  0.2418 -0.9149 -0.5628
  415MOL0     C55913   2.087   5.588   9.398 -0.3678 -0.1304 -0.6189
  415MOL0     O55914   2.133   5.720   9.367 -0.3196 -0.1316 -0.4713
  415MOL0     C55915   2.249   5.755   9.432  0.4201  0.5999  0.5714
  415MOL0     C55916   2.304   5.869   9.376  0.1207 -0.2005 -0.0508
  415MOL0     C55917   2.414   5.928   9.431 -0.3064  0.2308 -0.3809
  415MOL0     C55918   2.485   5.871   9.542  0.3196  0.0639 -0.4269
  415MOL0     C55919   2.610   5.937   9.591  0.0403  1.2000 -0.2912
  415MOL0     O55920   2.689   5.858   9.672  1.0070 -0.5539 -0.1735
  415MOL0     C55921   2.817   5.909   9.690  0.1359 -0.4169  0.0633
  415MOL0     C55922   2.857   5.948   9.817  0.0381 -0.3760 -0.5044
  415MOL0     C55923   2.996   5.980   9.841  0.8768  0.2434  0.2445
  415MOL0     C55924   3.080   5.986   9.735  0.0876  0.7343 -0.0327
  415MOL0     O55925   3.210   6.022   9.736  0.9019  0.3472  0.5339
  415MOL0     C55926   3.272   6.066   9.853 -0.4964 -0.2590  0.0630
  415MOL0     C55927   3.409   5.979   9.858 -0.0515 -0.2119 -0.2813
  415MOL0     C55928   3.504   6.017   9.739  0.4724 -0.0683 -0.3186
  415MOL0     C55929   3.647   5.961   9.747  0.1011 -0.0208 -0.3212
  415MOL0     C55930   3.747   6.012   9.643 -0.3380  0.0802 -0.3328
  415MOL0     C55931   3.717   5.967   9.500  0.9297 -0.5202 -0.1559
  415MOL0     C55932   3.832   6.011   9.400 -0.0622 -0.2914 -0.2678
  415MOL0     C55933   3.857   6.161   9.402 -0.3343 -0.0261  0.5709
  415MOL0    Cl55934   3.717   6.272   9.369  0.1294 -0.0499  0.0381
  415MOL0     C55935   3.026   5.955   9.602 -0.2482  0.2012 -0.5993
  415MOL0     C55936   2.897   5.911   9.582 -0.5278 -0.1835 -0.1471
  415MOL0     O55937   2.647   6.043   9.544  0.2681  0.8688 -0.1876
  415MOL0     C55938   2.429   5.749   9.595 -0.2521  0.2996  0.2103
  415MOL0     C55939   2.313   5.690   9.536  0.5914 -0.2007 -0.4759
  415MOL0     N55940   1.685   5.391   9.405  0.0338 -0.1500  0.1922
  415MOL0     N55941   1.703   5.264   9.379 -0.4893 -0.2730 -0.6607
  415MOL0     C55942   0.722   4.551   9.192  0.4349 -1.1646  1.0742
  415MOL0     C55943   0.601   4.486   9.219  0.0102 -1.0985 -0.5172
  415MOL0     C55944   0.149   4.375   9.161 -0.2781 -0.0511  0.8090
  415MOL0     C55945   0.202   4.246   9.124  0.1022  0.0261  0.0671
  415MOL0     C55946   0.117   4.139   9.106 -0.5787 -0.5990  0.1026
  415MOL0     C55947  -0.019   4.149   9.122 -0.4402 -0.1178  0.1408
  415MOL0     O55948  -0.115   4.047   9.103 -0.0451 -0.3337 -0.6011
  415MOL0     C55949  -0.099   3.963   8.987  0.4184  0.2091  0.9340
  415MOL0     C55950  -0.225   3.888   8.953  0.7362  0.6709 -0.5766
  415MOL0     C55951  -0.341   3.978   8.960  0.4399  0.9968  0.7571
  415MOL0     C55952  -0.476   3.904   8.912  0.7026 -0.1344 -0.6714
  415MOL0     C55953  -0.591   3.997   8.932  0.3412  0.6240 -0.9674
  415MOL0     C55954  -0.683   4.078   8.917 -0.0138 -0.3898 -0.2915
  415MOL0     C55955  -0.071   4.274   9.172  0.2555  0.0508  1.0728
  415MOL0     C55956   0.013   4.384   9.188  0.5845 -0.4528 -0.3542
  415MOL0     C55957  -0.043   4.513   9.246  0.1536  0.2075  0.0583
  415MOL0     H55958   0.378   4.721   9.098 -0.6072  0.6455  3.5405
  415MOL0     H55959   0.598   4.838   9.065  5.5028  0.4004 -0.9055
  415MOL0     H55960   0.858   4.919   9.038 -1.1131 -1.1837  0.2678
  415MOL0     H55961   0.752   4.931   9.182 -1.9401 -1.3721 -1.1546
  415MOL0     H55962   0.977   4.880   9.316  2.4191 -0.0417  0.6125
  415MOL0     H55963   0.928   5.041   9.251 -0.4432 -0.4166 -1.6080
  415MOL0     H55964   1.099   5.014   9.063  0.3373  1.0340  1.7408
  415MOL0     H55965   1.120   4.851   9.094  2.1097  0.2013  0.8726
  415MOL0     H55966   1.218   5.048   9.296 -1.2334 -0.9718  0.9511
  415MOL0     H55967   1.242   4.876   9.295 -1.9802 -0.8103  0.0210
  415MOL0     H55968   1.355   4.915   9.062 -0.8962 -0.7134  0.1117
  415MOL0     H55969   1.313   5.078   9.078 -0.7825 -1.4933 -0.6879
  415MOL0     H55970   1.443   5.106   9.286 -1.9390 -1.4328  1.2279
  415MOL0     H55971   1.481   4.932   9.274 -0.5713 -0.4485 -2.0842
  415MOL0     H55972   1.553   5.130   9.060  0.5394 -2.6576 -2.8633
  415MOL0     H55973   1.594   4.957   9.071 -0.6286 -0.6320  0.0843
  415MOL0     H55974   1.722   5.018   9.286 -1.0100 -0.4241 -0.4941
  415MOL0     H55975   1.790   5.083   9.137 -1.0815  0.1908 -1.6281
  415MOL0     H55976   1.709   5.362   9.075  2.0047 -0.1968 -0.2777
  415MOL0     H55977   1.739   5.607   9.147 -1.3631 -0.6847 -1.6916
  415MOL0     H55978   1.649   5.665   9.292  0.4452  1.0986 -2.4746
  415MOL0     H55979   1.854   5.739   9.319  2.4279 -0.4424 -2.0083
  415MOL0     H55980   1.837   5.629   9.447  0.1233 -0.2802 -0.1464
  415MOL0     H55981   2.001   5.581   9.204 -1.0383  1.2874 -0.3441
  415MOL0     H55982   1.960   5.442   9.319  1.2546 -0.9037  0.4604
  415MOL0     H55983   2.168   5.514   9.390 -0.3240 -0.5789  2.7769
  415MOL0     H55984   2.058   5.573   9.502 -0.6782 -3.1443 -1.0404
  415MOL0     H55985   2.247   5.916   9.297 -2.7513 -1.6933  1.0172
  415MOL0     H55986   2.447   6.020   9.384  0.2762 -0.1471 -0.7239
  415MOL0     H55987   2.775   5.948   9.888 -2.2060 -0.9684 -2.9169
  415MOL0     H55988   3.023   6.012   9.941 -0.3946  1.9809  0.0660
  415MOL0     H55989   3.296   6.173   9.848 -1.6145  0.0126  0.2091
  415MOL0     H55990   3.213   6.057   9.945 -0.2509  0.5891  0.3171
  415MOL0     H55991   3.457   6.005   9.952 -0.2593  2.0030 -0.7167
  415MOL0     H55992   3.384   5.873   9.865  0.0898 -0.3849 -1.8910
  415MOL0     H55993   3.464   5.998   9.638  0.1924  1.4108 -0.5028
  415MOL0     H55994   3.506   6.126   9.745 -2.3319  0.2023 -2.2586
  415MOL0     H55995   3.640   5.854   9.727  0.8560  0.0193 -0.8481
  415MOL0     H55996   3.687   5.981   9.847  0.1920  3.9998 -0.9910
  415MOL0     H55997   3.849   5.982   9.669  0.9872  1.4389 -3.4020
  415MOL0     H55998   3.743   6.121   9.642 -0.2909  0.0796 -0.8474
  415MOL0     H55999   3.711   5.858   9.502 -1.9142 -0.4369 -0.5838
  415MOL0     H56000   3.620   6.010   9.475  0.3597 -1.7121 -0.0251
  415MOL0     H56001   3.809   5.974   9.300  1.5603 -2.2669  0.0111
  415MOL0     H56002   3.923   5.963   9.439 -0.8488 -0.6171  1.2554
  415MOL0     H56003   3.907   6.190   9.495  0.0883  1.1878 -0.0051
  415MOL0     H56004   3.946   6.170   9.339  0.8355 -0.7723  2.0482
  415MOL0     H56005   3.094   5.964   9.517 -0.0756 -0.1250 -0.4969
  415MOL0     H56006   2.865   5.872   9.487  2.8213 -4.5604  0.1664
  415MOL0     H56007   2.475   5.699   9.680  2.4469 -1.4834 -2.0918
  415MOL0     H56008   2.266   5.597   9.568  2.5921 -1.3103 -0.6048
  415MOL0     H56009   0.818   4.512   9.223  0.8162  0.0694  1.5011
  415MOL0     H56010   0.604   4.385   9.261 -0.1210 -1.1043 -0.5222
  415MOL0     H56011   0.307   4.231   9.099  0.2108  0.3993  0.3009
  415MOL0     H56012   0.154   4.039   9.083 -1.8723 -1.2825  0.9248
  415MOL0     H56013  -0.027   3.882   9.004 -1.1722 -1.8830 -1.6450
  415MOL0     H56014  -0.071   4.013   8.894 -0.7452 -0.1428  0.3838
  415MOL0     H56015  -0.239   3.796   9.010  0.8681 -0.2661 -2.0149
  415MOL0     H56016  -0.233   3.856   8.849 -0.4498 -0.8123 -0.0662
  415MOL0     H56017  -0.329   4.068   8.901 -2.8491  0.3120 -1.2027
  415MOL0     H56018  -0.347   4.005   9.066  3.7132 -0.3186  1.3897
  415MOL0     H56019  -0.480   3.877   8.806  1.7212  1.3524 -1.1142
  415MOL0     H56020  -0.496   3.811   8.967  1.4363 -0.0620 -0.2687
  415MOL0     H56021  -0.764   4.148   8.908 -0.3260 -0.5433  1.0546
  415MOL0     H56022  -0.178   4.281   9.188 -0.0553 -0.2101 -0.6361
  415MOL0     H56023   0.027   4.537   9.326 -0.3572 -0.7087  0.7816
  415MOL0     H56024  -0.049   4.598   9.176 -2.9078 -1.5082 -1.9716
  415MOL0     H56025  -0.135   4.501   9.303  0.7838  0.6396  1.1873
  416MOL0     O56026  10.793   1.475   0.346 -0.3967  0.3921  0.4811
  416MOL0     C56027  10.687   1.522   0.309 -0.3261 -0.8416 -0.1974
  416MOL0     O56028  10.662   1.590   0.197 -0.2794  0.0272 -0.4491
  416MOL0     C56029  10.773   1.619   0.119 -0.1873 -0.7770 -0.0237
  416MOL0     C56030  10.893   1.676   0.174  0.3077 -0.4428  0.9365
  416MOL0     C56031  10.992   1.719   0.092  0.3673  0.1437  0.1420
  416MOL0     C56032  10.982   1.716  -0.047 -0.0460 -0.0764 -0.0743
  416MOL0     O56033  11.083   1.766  -0.128  0.1271 -0.2395  0.1671
  416MOL0     C56034  11.065   1.756  -0.272  0.5818 -0.1904  0.2956
  416MOL0     C56035  11.077   1.608  -0.319 -0.1973  0.3110 -0.1141
  416MOL0     C56036  11.209   1.539  -0.290  0.1005 -0.5946  0.4932
  416MOL0     C56037  11.319   1.578  -0.393 -0.0814 -0.8940 -0.1978
  416MOL0     C56038  11.454   1.520  -0.358 -1.3919 -0.3674 -1.1584
  416MOL0     C56039  11.449   1.370  -0.405 -0.1145  0.3500  0.1168
  416MOL0     C56040  11.598   1.324  -0.419  0.4503  0.2530 -0.2719
  416MOL0     C56041  11.581   1.173  -0.454  1.4375  0.4822  0.1308
  416MOL0     N56042  11.700   1.105  -0.501 -0.6088 -0.3713 -1.0368
  416MOL0     C56043  11.830   1.160  -0.505  0.9098 -0.1589 -1.0778
  416MOL0     C56044  11.890   1.072  -0.581 -0.5991 -0.6324 -0.0841
  416MOL0     C56045  12.032   1.093  -0.625  0.0704 -0.4220  0.2503
  416MOL0     C56046  12.140   1.119  -0.511  0.3001 -0.1761  0.7843
  416MOL0     C56047  12.132   1.015  -0.391 -0.3541 -0.3811 -0.1043
  416MOL0     C56048  12.259   1.011  -0.314 -0.0027 -0.4891  0.2344
  416MOL0     O56049  12.351   0.918  -0.384 -0.3045 -0.3513 -0.8485
  416MOL0     C56050  12.465   0.876  -0.312  0.6312 -0.5575 -0.3214
  416MOL0     C56051  12.528   0.768  -0.364  1.0275 -0.3499  0.7109
  416MOL0     C56052  12.631   0.707  -0.297  1.0045  0.6238 -0.4672
  416MOL0     C56053  12.691   0.765  -0.186  0.0582 -0.5524 -0.8964
  416MOL0     C56054  12.820   0.711  -0.129  0.2652  0.6299 -0.4775
  416MOL0     O56055  12.880   0.776  -0.028  0.1894 -0.0632 -0.3281
  416MOL0     C56056  12.997   0.733   0.034  0.8553 -0.3253  0.4134
  416MOL0     C56057  13.084   0.836   0.075  0.2907  0.7758 -0.2081
  416MOL0     C56058  13.212   0.804   0.125  0.5849  0.3682 -0.4547
  416MOL0     C56059  13.252   0.670   0.126 -0.0726 -0.1397  0.0440
  416MOL0     O56060  13.373   0.633   0.171  0.5968 -0.8507 -0.0768
  416MOL0     C56061  13.488   0.711   0.120 -0.3004  0.2505 -0.5781
  416MOL0     C56062  13.616   0.617   0.130 -0.2684 -0.0775  0.6168
  416MOL0     C56063  13.667   0.582   0.267  0.5318 -0.3505  0.2754
  416MOL0     C56064  13.741   0.703   0.318 -0.1793 -0.5433  0.5990
  416MOL0     C56065  13.817   0.668   0.447  0.5393  0.9665  0.0215
  416MOL0     C56066  13.744   0.668   0.584 -0.8580  0.0944 -0.1804
  416MOL0     C56067  13.835   0.667   0.708 -0.0510  0.0252  0.2892
  416MOL0     C56068  13.951   0.768   0.698 -0.2698 -0.8825  0.8088
  416MOL0    Cl56069  14.034   0.780   0.851  0.0622 -0.3720  0.0003
  416MOL0     C56070  13.162   0.569   0.092  0.7309 -1.0309  0.4178
  416MOL0     C56071  13.034   0.602   0.046 -0.8581 -0.4754  1.0118
  416MOL0     O56072  12.865   0.610  -0.183 -0.3796 -0.7840 -0.0992
  416MOL0     C56073  12.627   0.885  -0.132 -0.2619 -1.4787  0.3081
  416MOL0     C56074  12.514   0.947  -0.195  0.1679  0.8630 -0.3876
  416MOL0     N56075  11.808   0.975  -0.631 -0.0773  0.4175  1.0753
  416MOL0     N56076  11.696   0.978  -0.564 -0.1871 -0.0725  0.2373
  416MOL0     C56077  10.860   1.658  -0.098  0.1838 -0.2097  0.0286
  416MOL0     C56078  10.759   1.611  -0.018  0.3983  0.2027 -0.0405
  416MOL0     C56079  10.574   1.525   0.406 -0.5045  1.2651 -0.8371
  416MOL0     C56080  10.464   1.606   0.389 -0.2595  0.0655  0.5177
  416MOL0     C56081  10.358   1.610   0.479  0.9832 -0.1886 -0.0726
  416MOL0     C56082  10.361   1.532   0.586  0.5810  0.6729 -0.2205
  416MOL0     O56083  10.243   1.530   0.663  0.1248 -0.0879 -0.2137
  416MOL0     C56084  10.253   1.562   0.804 -0.3022 -0.3018  0.3594
  416MOL0     C56085  10.120   1.547   0.877  0.2542  0.2418 -0.4757
  416MOL0     C56086  10.016   1.659   0.843  0.8870  0.6178 -0.5165
  416MOL0     C56087   9.895   1.643   0.936  0.1745 -0.6320 -0.3573
  416MOL0     C56088   9.791   1.744   0.900  0.3823 -0.7583  0.1280
  416MOL0     C56089   9.710   1.832   0.870 -0.3544 -0.3391  0.1611
  416MOL0     C56090  10.468   1.450   0.616 -0.1031 -0.0357  0.2403
  416MOL0     C56091  10.572   1.430   0.514  1.1958 -0.1262 -0.3607
  416MOL0     C56092  10.653   1.311   0.538 -0.2548  0.4392  0.5183
  416MOL0     H56093  10.908   1.672   0.282 -1.6350 -2.2047  1.1818
  416MOL0     H56094  11.091   1.755   0.120  1.7204  0.2684 -4.1075
  416MOL0     H56095  10.964   1.790  -0.297  1.2680  1.4214 -0.4376
  416MOL0     H56096  11.137   1.817  -0.327 -0.3109  1.8207  1.2822
  416MOL0     H56097  11.072   1.608  -0.428  1.7210  1.4028 -0.2508
  416MOL0     H56098  10.996   1.541  -0.288  0.7969 -1.6251 -1.4910
  416MOL0     H56099  11.191   1.432  -0.301 -1.5174 -0.3286  0.3041
  416MOL0     H56100  11.237   1.544  -0.184 -2.2339 -1.5768  1.2099
  416MOL0     H56101  11.290   1.539  -0.491  0.2300  1.1374 -1.1404
  416MOL0     H56102  11.321   1.687  -0.397  1.7904 -0.9401 -1.1953
  416MOL0     H56103  11.534   1.566  -0.415 -0.4347 -1.6665 -0.8966
  416MOL0     H56104  11.478   1.533  -0.252  1.4903  2.2576 -1.9853
  416MOL0     H56105  11.406   1.307  -0.327  1.2781 -0.1743  0.4975
  416MOL0     H56106  11.398   1.345  -0.498  1.5202  1.6960 -1.2315
  416MOL0     H56107  11.658   1.336  -0.328 -0.2119  0.0095  0.2054
  416MOL0     H56108  11.631   1.387  -0.502  0.7482 -1.4612 -1.5057
  416MOL0     H56109  11.539   1.124  -0.367  2.5064 -0.3732  0.1913
  416MOL0     H56110  11.510   1.170  -0.537  0.2875  2.8448  0.9467
  416MOL0     H56111  11.867   1.249  -0.454  1.2267 -1.6283  1.4184
  416MOL0     H56112  12.055   1.013  -0.696 -2.2318  0.6049 -1.7823
  416MOL0     H56113  12.037   1.185  -0.683  1.8890  0.3802  1.5706
  416MOL0     H56114  12.233   1.110  -0.568 -1.3963 -2.4759 -1.8729
  416MOL0     H56115  12.138   1.221  -0.471 -0.9719  0.4001 -0.6431
  416MOL0     H56116  12.095   0.924  -0.439 -1.0899  0.9306 -2.1345
  416MOL0     H56117  12.059   1.061  -0.323  0.2834  0.3592  0.0822
  416MOL0     H56118  12.241   0.975  -0.213 -2.9311  1.8866  0.7027
  416MOL0     H56119  12.304   1.111  -0.315 -2.6147  0.7672 -0.0550
  416MOL0     H56120  12.485   0.715  -0.449 -0.8968 -1.2706  2.1868
  416MOL0     H56121  12.659   0.606  -0.325 -0.6457 -0.0236  0.1088
  416MOL0     H56122  13.036   0.933   0.070 -0.6325  0.3566  0.2151
  416MOL0     H56123  13.277   0.879   0.170  0.8012 -0.6842  1.0459
  416MOL0     H56124  13.478   0.724   0.012  3.9674  0.2060 -1.1172
  416MOL0     H56125  13.506   0.810   0.161  2.1636 -0.3427 -0.0979
  416MOL0     H56126  13.588   0.523   0.083 -1.2404 -0.0184  1.0647
  416MOL0     H56127  13.691   0.663   0.064 -2.7404  0.2066 -2.1999
  416MOL0     H56128  13.594   0.557   0.344  2.1402  0.7200  2.2535
  416MOL0     H56129  13.739   0.502   0.254  2.2178  1.2928 -1.0572
  416MOL0     H56130  13.673   0.787   0.330  0.6416  0.1963  0.1954
  416MOL0     H56131  13.815   0.735   0.244  1.2908  0.6204  2.4794
  416MOL0     H56132  13.890   0.750   0.440  0.7850  0.8910  1.4182
  416MOL0     H56133  13.870   0.573   0.438 -0.6536  0.3780 -1.0031
  416MOL0     H56134  13.680   0.757   0.587 -0.6151  0.2706 -0.1362
  416MOL0     H56135  13.676   0.585   0.602 -1.2535  0.6407  0.9577
  416MOL0     H56136  13.884   0.570   0.720 -0.5353 -0.2482  0.0925
  416MOL0     H56137  13.780   0.687   0.800  0.5427 -0.1875  0.6979
  416MOL0     H56138  14.024   0.735   0.624  0.4775  1.5986  0.3620
  416MOL0     H56139  13.909   0.864   0.665  1.1164 -0.5524 -0.0636
  416MOL0     H56140  13.193   0.465   0.092  0.3250 -1.1628 -0.1321
  416MOL0     H56141  12.969   0.517   0.026 -2.3088  0.8763 -0.2682
  416MOL0     H56142  12.669   0.931  -0.043  0.0413 -0.3367 -0.3992
  416MOL0     H56143  12.463   1.031  -0.149 -1.7582 -1.0425  1.2004
  416MOL0     H56144  10.849   1.646  -0.206 -0.5483 -0.3609  0.1148
  416MOL0     H56145  10.662   1.589  -0.063  2.7040  0.5340 -5.9962
  416MOL0     H56146  10.459   1.666   0.299  0.7810 -0.4950  0.0604
  416MOL0     H56147  10.264   1.663   0.470  0.5292 -0.4771  2.3342
  416MOL0     H56148  10.291   1.665   0.804 -1.1397  0.1033 -2.7837
  416MOL0     H56149  10.329   1.498   0.850 -2.5869 -1.0480  3.4495
  416MOL0     H56150  10.145   1.553   0.983  1.7188 -3.0428 -0.4825
  416MOL0     H56151  10.073   1.450   0.860 -1.5857  1.2137 -1.1144
  416MOL0     H56152   9.994   1.658   0.736 -0.2100  2.4334 -0.3336
  416MOL0     H56153  10.059   1.758   0.862 -0.9825  1.5606 -0.9775
  416MOL0     H56154   9.850   1.545   0.915  0.1807 -0.9963  1.1517
  416MOL0     H56155   9.917   1.644   1.043 -2.3469 -0.6945  0.2271
  416MOL0     H56156   9.649   1.915   0.845 -1.7564 -0.1691  3.6333
  416MOL0     H56157  10.474   1.384   0.702  1.5072 -0.2913 -0.0356
  416MOL0     H56158  10.658   1.259   0.442  0.7781  0.3221  0.6251
  416MOL0     H56159  10.760   1.333   0.551  0.2876 -0.9764 -1.1782
  416MOL0     H56160  10.623   1.236   0.612 -1.5212  1.4781  1.0991
  417MOL0     O56161   6.454   0.806   4.178  0.3491  0.5876  0.3796
  417MOL0     C56162   6.373   0.883   4.225 -0.4046  0.3448  0.9277
  417MOL0     O56163   6.394   0.957   4.330 -0.0899  0.2127  0.9506
  417MOL0     C56164   6.517   0.979   4.371 -0.3888 -0.4004 -0.2693
  417MOL0     C56165   6.590   1.086   4.318  0.5752  0.3790  0.8235
  417MOL0     C56166   6.729   1.100   4.348 -0.8189  0.2259 -0.0016
  417MOL0     C56167   6.793   1.016   4.444  0.6809 -0.8810  0.3113
  417MOL0     O56168   6.922   1.030   4.491 -0.5970 -0.7874 -0.1007
  417MOL0     C56169   7.010   1.111   4.416  0.7093  0.3765  0.1550
  417MOL0     C56170   7.142   1.107   4.500  0.2734  0.2034 -0.5668
  417MOL0     C56171   7.252   1.176   4.415 -0.1421 -0.4855 -0.9652
  417MOL0     C56172   7.367   1.208   4.514 -0.5048 -0.1040 -1.0449
  417MOL0     C56173   7.493   1.259   4.435  0.0997  0.5051 -0.3041
  417MOL0     C56174   7.609   1.298   4.528  0.4351 -0.2842 -0.5086
  417MOL0     C56175   7.733   1.338   4.453  0.1436  0.2687  0.5000
  417MOL0     C56176   7.819   1.212   4.423  0.0279  0.2232  0.3017
  417MOL0     N56177   7.845   1.136   4.546 -0.0974 -0.0287 -0.0765
  417MOL0     C56178   7.959   1.157   4.626  0.8399 -0.2624 -0.4155
  417MOL0     C56179   7.964   1.054   4.709  0.2090  0.7168 -0.0615
  417MOL0     C56180   8.064   1.034   4.821  0.3717 -0.1714  0.0393
  417MOL0     C56181   8.042   1.130   4.942  0.1822 -0.2087 -0.2834
  417MOL0     C56182   7.927   1.078   5.034  0.1473 -0.5799  0.1475
  417MOL0     C56183   7.948   0.936   5.088 -0.3462  0.2835  1.2138
  417MOL0     O56184   7.869   0.912   5.204  0.5712  0.1639  0.3325
  417MOL0     C56185   7.738   0.870   5.199  0.8278  0.4233  0.5482
  417MOL0     C56186   7.671   0.849   5.314  1.3872  0.6552 -0.0801
  417MOL0     C56187   7.528   0.824   5.312 -1.0171 -0.2449 -0.3989
  417MOL0     C56188   7.459   0.820   5.187  1.3592  0.3343 -0.3483
  417MOL0     C56189   7.310   0.803   5.175 -0.5836 -0.5958 -0.7423
  417MOL0     O56190   7.260   0.815   5.058  0.8133 -0.6095  0.8879
  417MOL0     C56191   7.140   0.870   5.024 -0.0818 -0.3500  0.0201
  417MOL0     C56192   7.078   0.958   5.108  0.0555  1.1107 -0.5307
  417MOL0     C56193   6.969   1.027   5.066  0.9540 -0.0488 -0.8857
  417MOL0     C56194   6.914   1.014   4.934  0.5362  1.0865 -0.3166
  417MOL0     O56195   6.799   1.083   4.890 -0.3585  0.0277  0.2025
  417MOL0     C56196   6.702   1.125   4.993  0.6298  0.4748  0.0797
  417MOL0     C56197   6.575   1.160   4.905  0.0183  0.0432 -0.4312
  417MOL0     C56198   6.491   1.034   4.875 -0.2223  0.2266  0.2199
  417MOL0     C56199   6.410   1.050   4.751  0.3371 -0.1275  0.4163
  417MOL0     C56200   6.322   0.932   4.718  0.2037 -0.0186  0.4571
  417MOL0     C56201   6.192   0.925   4.807 -0.7914  0.7350  0.7330
  417MOL0     C56202   6.106   0.798   4.754  0.1853 -0.1493 -0.9496
  417MOL0     C56203   6.052   0.795   4.612  0.8421  0.1187  0.0714
  417MOL0    Cl56204   5.939   0.926   4.578  0.5729 -0.3458 -0.0799
  417MOL0     C56205   6.968   0.907   4.859  0.1982  0.0086  0.1551
  417MOL0     C56206   7.080   0.839   4.898  0.4499  0.2779  0.8063
  417MOL0     O56207   7.244   0.782   5.277  0.5270  0.0270  0.0387
  417MOL0     C56208   7.535   0.839   5.069  0.0658 -0.2004  0.1844
  417MOL0     C56209   7.671   0.858   5.079  0.9106  0.1908 -0.0555
  417MOL0     N56210   7.860   0.969   4.678  0.4746  0.5361  0.6344
  417MOL0     N56211   7.782   1.022   4.587 -0.1607  0.3721 -0.4827
  417MOL0     C56212   6.713   0.912   4.500  0.8109  0.0442  0.3344
  417MOL0     C56213   6.577   0.900   4.470 -0.5209  0.1616  0.1637
  417MOL0     C56214   6.227   0.890   4.176 -0.2411  1.0253  0.4486
  417MOL0     C56215   6.130   0.959   4.240 -0.2439 -0.5448  0.0033
  417MOL0     C56216   5.996   0.965   4.203  0.3538  0.4495  0.2958
  417MOL0     C56217   5.956   0.891   4.089  0.1561 -0.5724 -1.1842
  417MOL0     O56218   5.823   0.899   4.059  0.2237  0.4185 -0.4046
  417MOL0     C56219   5.776   0.837   3.937 -0.4652 -0.4424  0.3470
  417MOL0     C56220   5.633   0.877   3.906  0.0195  0.3012 -0.0369
  417MOL0     C56221   5.540   0.874   4.027  0.2937  0.2330  0.0385
  417MOL0     C56222   5.389   0.874   3.985  0.7780  0.3023 -0.8632
  417MOL0     C56223   5.339   0.747   3.934  1.5058  0.9430 -0.4052
  417MOL0     C56224   5.296   0.640   3.894 -0.0554  1.0189 -0.4013
  417MOL0     C56225   6.052   0.829   4.019 -0.9202  0.9707 -0.3032
  417MOL0     C56226   6.194   0.830   4.050 -0.4014  0.5959  0.2826
  417MOL0     C56227   6.295   0.768   3.951 -0.1226 -0.1605 -0.1732
  417MOL0     H56228   6.541   1.153   4.249  2.6818  0.9162 -0.2107
  417MOL0     H56229   6.783   1.182   4.302  2.3632 -0.9393  1.4071
  417MOL0     H56230   7.023   1.073   4.314  0.8580 -0.5811  0.5240
  417MOL0     H56231   6.970   1.212   4.402 -0.1243  0.1925  1.1006
  417MOL0     H56232   7.161   1.000   4.510 -0.0389  0.0104 -1.8576
  417MOL0     H56233   7.123   1.165   4.591  0.0707 -0.5131 -0.1477
  417MOL0     H56234   7.207   1.271   4.385 -2.7909 -0.8736  1.3392
  417MOL0     H56235   7.279   1.110   4.332 -3.6805 -2.0564 -1.0441
  417MOL0     H56236   7.329   1.291   4.574 -1.1488  0.4702 -2.1983
  417MOL0     H56237   7.393   1.128   4.583 -2.5538  2.3403  2.9322
  417MOL0     H56238   7.521   1.183   4.362 -3.5619 -0.9168 -0.4558
  417MOL0     H56239   7.456   1.353   4.394 -2.4245  0.5968  1.9072
  417MOL0     H56240   7.583   1.379   4.597 -0.1235  0.2181 -1.2982
  417MOL0     H56241   7.623   1.217   4.601  0.8733  1.2843  1.2283
  417MOL0     H56242   7.789   1.409   4.514 -2.1173  3.2354 -0.6348
  417MOL0     H56243   7.710   1.398   4.365  3.3808 -0.7909 -1.2364
  417MOL0     H56244   7.774   1.146   4.348  2.4999 -2.5601  1.0990
  417MOL0     H56245   7.915   1.248   4.385 -0.3650  3.5587  2.0954
  417MOL0     H56246   8.031   1.238   4.627  3.4000 -2.4073  0.8655
  417MOL0     H56247   8.068   0.929   4.852 -1.2044 -0.5885 -1.0681
  417MOL0     H56248   8.164   1.051   4.780  0.7169 -0.2489  0.8289
  417MOL0     H56249   8.138   1.131   4.995  0.0326  1.9896  0.0649
  417MOL0     H56250   8.017   1.231   4.908  2.5126 -0.1619 -2.0601
  417MOL0     H56251   7.833   1.067   4.979 -3.1523 -1.8671  5.3733
  417MOL0     H56252   7.925   1.154   5.113  2.0502  0.9193 -1.1170
  417MOL0     H56253   8.053   0.941   5.118 -0.2928  1.1942  0.9152
  417MOL0     H56254   7.934   0.854   5.017 -1.4690  1.6753 -0.2392
  417MOL0     H56255   7.721   0.850   5.410 -0.9248  3.0918  1.2278
  417MOL0     H56256   7.483   0.798   5.408  1.2812  0.4989  0.9703
  417MOL0     H56257   7.119   0.980   5.206 -1.2945  0.7562  0.1332
  417MOL0     H56258   6.933   1.100   5.138  2.5922  1.4629 -1.5333
  417MOL0     H56259   6.682   1.051   5.071  2.1162  0.7984  0.8000
  417MOL0     H56260   6.745   1.210   5.048 -0.2801 -0.3775  2.2001
  417MOL0     H56261   6.525   1.241   4.959  3.2178  1.4250  0.7397
  417MOL0     H56262   6.608   1.221   4.820  0.8107  2.5479  1.5327
  417MOL0     H56263   6.561   0.952   4.860 -0.3555  0.2297 -0.4260
  417MOL0     H56264   6.429   1.034   4.965  3.9514  0.7484  3.4031
  417MOL0     H56265   6.474   1.075   4.665  1.0150 -0.9379  0.6665
  417MOL0     H56266   6.355   1.145   4.752  1.8331  0.8595 -1.7806
  417MOL0     H56267   6.367   0.833   4.723  0.3794 -0.3220 -3.7685
  417MOL0     H56268   6.290   0.935   4.613 -1.0203 -0.4857  0.7939
  417MOL0     H56269   6.211   0.915   4.914  1.4955  1.0569  0.4092
  417MOL0     H56270   6.145   1.023   4.799  2.8031  2.7134  1.4718
  417MOL0     H56271   6.018   0.795   4.820  1.5838  1.9062  1.1633
  417MOL0     H56272   6.165   0.708   4.773  2.2224  0.6619 -3.0198
  417MOL0     H56273   6.137   0.794   4.543  2.6314  1.9389  2.1113
  417MOL0     H56274   5.994   0.703   4.603  3.4753 -1.7002  0.7305
  417MOL0     H56275   6.929   0.880   4.761  1.3198  0.1918 -0.3609
  417MOL0     H56276   7.112   0.763   4.827 -0.7737  0.2992  0.2057
  417MOL0     H56277   7.488   0.850   4.972  1.7881  0.7595 -0.5917
  417MOL0     H56278   7.721   0.873   4.984  1.4780 -0.0414  0.2026
  417MOL0     H56279   6.761   0.849   4.575 -1.6548 -0.1983  1.8381
  417MOL0     H56280   6.511   0.842   4.533 -0.1254 -0.5322 -0.0447
  417MOL0     H56281   6.169   1.007   4.329  1.8255 -1.0524 -0.5766
  417MOL0     H56282   5.925   1.020   4.265 -0.2196  0.2274 -0.1523
  417MOL0     H56283   5.776   0.727   3.941  1.7948 -0.4819  0.7485
  417MOL0     H56284   5.841   0.853   3.850 -0.2729  1.8237  0.8615
  417MOL0     H56285   5.608   0.801   3.831 -1.5458 -0.2514  0.9988
  417MOL0     H56286   5.650   0.975   3.860  0.8272 -1.0605 -2.9392
  417MOL0     H56287   5.558   0.969   4.078  1.8355  1.1775 -2.0941
  417MOL0     H56288   5.566   0.790   4.093  2.0590  0.7239  0.0177
  417MOL0     H56289   5.328   0.895   4.073 -1.4113  1.6964 -2.6279
  417MOL0     H56290   5.366   0.955   3.916  0.9134  0.8049 -0.3266
  417MOL0     H56291   5.244   0.555   3.856 -3.4565  2.1038  1.3809
  417MOL0     H56292   6.039   0.771   3.928  2.4858 -0.4217 -0.0652
  417MOL0     H56293   6.378   0.839   3.946  1.0677 -1.5413 -0.7363
  417MOL0     H56294   6.329   0.671   3.987 -3.6229 -1.3473  0.2739
  417MOL0     H56295   6.257   0.751   3.850  1.1242 -1.0805 -0.5009
  418MOL0     O56296   4.727   7.210   8.932 -0.1686 -0.6791  0.4737
  418MOL0     C56297   4.700   7.214   8.811  0.2260 -1.1683 -0.6969
  418MOL0     O56298   4.765   7.291   8.723  0.0910  0.5679  0.0043
  418MOL0     C56299   4.828   7.411   8.755  0.0957  0.6969  0.1721
  418MOL0     C56300   4.926   7.450   8.658 -0.3411 -0.3384 -0.1396
  418MOL0     C56301   5.003   7.566   8.679  0.0543  0.6257  0.3291
  418MOL0     C56302   4.985   7.640   8.801 -0.3632 -0.7044  0.9316
  418MOL0     O56303   5.061   7.743   8.850  0.7839 -0.2722 -0.1156
  418MOL0     C56304   5.163   7.789   8.760 -1.4392  0.1311 -0.1469
  418MOL0     C56305   5.237   7.911   8.819 -0.3329  0.0278 -0.5125
  418MOL0     C56306   5.325   7.885   8.940  0.9100  0.0778  0.6795
  418MOL0     C56307   5.393   8.023   8.986  0.2034 -0.2428 -0.1207
  418MOL0     C56308   5.481   8.003   9.112 -0.4945  0.1577  0.5294
  418MOL0     C56309   5.404   7.935   9.228 -0.2236 -0.1120  0.8266
  418MOL0     C56310   5.464   7.963   9.362 -0.4437  1.3548  0.3227
  418MOL0     C56311   5.384   7.884   9.473  0.0764 -0.0270 -0.4351
  418MOL0     N56312   5.261   7.958   9.525 -0.6697  1.3085 -0.3963
  418MOL0     C56313   5.154   7.885   9.578 -0.9498  0.2038 -0.5493
  418MOL0     C56314   5.107   7.967   9.680 -0.6947  1.0299  0.1320
  418MOL0     C56315   4.980   7.944   9.756  0.5643 -0.7536 -0.2356
  418MOL0     C56316   4.860   7.926   9.658  0.3553 -0.5672 -0.5517
  418MOL0     C56317   4.831   8.046   9.567 -0.2647 -0.0516 -0.4473
  418MOL0     C56318   4.694   8.052   9.503  0.4343  0.1963 -0.6591
  418MOL0     O56319   4.587   8.051   9.614  0.1200 -0.2185  0.1466
  418MOL0     C56320   4.456   8.079   9.583  0.7911 -0.2497  0.5055
  418MOL0     C56321   4.354   8.075   9.680  0.5150 -0.7721  0.2543
  418MOL0     C56322   4.220   8.096   9.651 -0.0846 -0.2249 -0.0113
  418MOL0     C56323   4.187   8.117   9.518 -0.4474 -0.0003 -0.1946
  418MOL0     C56324   4.043   8.145   9.493 -0.1011  0.0303  1.0492
  418MOL0     O56325   3.957   8.166   9.594 -0.0443 -0.4053 -0.9321
  418MOL0     C56326   3.836   8.238   9.575 -0.3331  0.2992 -0.5870
  418MOL0     C56327   3.806   8.325   9.467 -0.7474 -0.8645 -0.1606
  418MOL0     C56328   3.674   8.386   9.465 -0.6831 -0.3147  0.2341
  418MOL0     C56329   3.579   8.337   9.547 -0.7256 -0.2931 -0.3968
  418MOL0     O56330   3.445   8.377   9.540  0.4737 -0.4023 -0.4376
  418MOL0     C56331   3.388   8.405   9.411  0.3612  1.1131  0.1217
  418MOL0     C56332   3.237   8.391   9.424 -0.3794  0.4277 -0.3278
  418MOL0     C56333   3.180   8.464   9.546 -0.7031 -0.5007 -0.4716
  418MOL0     C56334   3.036   8.505   9.527 -0.1660 -0.8183  0.0744
  418MOL0     C56335   2.994   8.589   9.644  1.0329  0.2824  0.4461
  418MOL0     C56336   2.864   8.674   9.622  0.7283  0.1079 -0.3131
  418MOL0     C56337   2.887   8.782   9.509 -0.3831 -0.2815 -0.2970
  418MOL0     C56338   2.982   8.889   9.546  0.1228 -0.0807 -0.0059
  418MOL0    Cl56339   2.955   9.024   9.440 -0.4831  0.1996 -0.4085
  418MOL0     C56340   3.606   8.249   9.652  0.6100 -0.6227  0.3303
  418MOL0     C56341   3.733   8.199   9.672 -0.5196 -0.0378 -0.4483
  418MOL0     O56342   4.009   8.138   9.374 -0.2053  0.1368  0.2954
  418MOL0     C56343   4.278   8.112   9.413 -0.4205  0.3312  0.4985
  418MOL0     C56344   4.409   8.095   9.451  0.3638 -0.1216 -0.2191
  418MOL0     N56345   5.199   8.070   9.706 -0.0440  0.4771  0.5162
  418MOL0     N56346   5.286   8.055   9.616 -0.4636 -1.2014  0.0650
  418MOL0     C56347   4.896   7.599   8.894  0.6712 -0.5077 -0.1287
  418MOL0     C56348   4.809   7.491   8.872 -0.3832  0.1255 -0.3529
  418MOL0     C56349   4.592   7.126   8.757  0.0215  0.2816  0.2814
  418MOL0     C56350   4.588   6.997   8.811  0.0906 -0.2250 -0.8451
  418MOL0     C56351   4.486   6.909   8.777  0.1060  0.8264 -0.5844
  418MOL0     C56352   4.395   6.947   8.681 -0.1075  0.5901 -0.3325
  418MOL0     O56353   4.293   6.868   8.641  0.5098  0.3838  0.0985
  418MOL0     C56354   4.266   6.732   8.701  0.3396 -1.1674 -0.3358
  418MOL0     C56355   4.135   6.688   8.653 -0.1247 -0.9768 -0.7341
  418MOL0     C56356   4.121   6.549   8.706  1.0249 -0.3756  0.0940
  418MOL0     C56357   4.032   6.479   8.608 -0.2879  0.5110  0.4222
  418MOL0     C56358   3.952   6.364   8.664  0.6292 -1.1679 -0.3353
  418MOL0     C56359   3.887   6.284   8.724 -0.6384  0.0635 -0.2984
  418MOL0     C56360   4.394   7.074   8.627  0.5244 -0.0983 -0.2735
  418MOL0     C56361   4.485   7.166   8.671 -0.2841 -0.1407  0.0839
  418MOL0     C56362   4.475   7.310   8.634 -0.4448 -0.7317 -0.5780
  418MOL0     H56363   4.922   7.401   8.561  1.0929 -2.8872  1.0013
  418MOL0     H56364   5.071   7.591   8.597  1.2200 -1.8384  0.4619
  418MOL0     H56365   5.232   7.704   8.762 -2.1905 -0.4825  0.1359
  418MOL0     H56366   5.135   7.793   8.654  1.8991 -4.4436 -1.5193
  418MOL0     H56367   5.168   7.995   8.826  0.2944  0.4330  1.1930
  418MOL0     H56368   5.306   7.942   8.740  1.2845 -1.3578  0.2788
  418MOL0     H56369   5.395   7.806   8.913  1.4599  0.6605  0.3774
  418MOL0     H56370   5.262   7.848   9.022  1.6188  0.8519  1.6063
  418MOL0     H56371   5.456   8.065   8.907  1.7580 -2.0542  0.0818
  418MOL0     H56372   5.310   8.091   9.007  0.3426 -0.3676  0.9014
  418MOL0     H56373   5.567   7.938   9.094 -1.2087  0.1136 -3.6736
  418MOL0     H56374   5.508   8.102   9.148 -3.5400  0.9911  0.7892
  418MOL0     H56375   5.308   7.986   9.231  0.5761  1.4433  1.1964
  418MOL0     H56376   5.393   7.829   9.204  2.0354 -1.1860  3.8611
  418MOL0     H56377   5.475   8.068   9.392  1.2149  0.9399  1.3415
  418MOL0     H56378   5.567   7.925   9.362 -0.3021  1.7291  0.7209
  418MOL0     H56379   5.358   7.784   9.440 -0.0271  0.1139 -0.7826
  418MOL0     H56380   5.453   7.868   9.557 -0.6326  1.0505  0.3913
  418MOL0     H56381   5.106   7.806   9.521 -2.9329  1.6720 -1.0588
  418MOL0     H56382   4.998   7.849   9.807 -0.2944  0.0755  1.7230
  418MOL0     H56383   4.974   8.021   9.835 -0.4221 -1.2335  0.1775
  418MOL0     H56384   4.887   7.835   9.604  1.6482  1.5142 -3.7349
  418MOL0     H56385   4.777   7.904   9.725 -0.5998  2.3733 -0.6269
  418MOL0     H56386   4.905   8.058   9.487 -0.5730 -0.3121 -0.7748
  418MOL0     H56387   4.824   8.138   9.627 -2.8631 -0.8078  0.5686
  418MOL0     H56388   4.688   7.958   9.446  0.2306 -0.0864 -0.1709
  418MOL0     H56389   4.682   8.134   9.432 -0.1752  1.0528  0.4085
  418MOL0     H56390   4.386   8.065   9.783 -1.5660 -0.7984  0.9469
  418MOL0     H56391   4.141   8.098   9.726  0.5605 -1.2525  0.7268
  418MOL0     H56392   3.875   8.361   9.391  1.7018  0.8966  2.6678
  418MOL0     H56393   3.646   8.462   9.394 -0.3542  0.7258  1.1981
  418MOL0     H56394   3.413   8.505   9.375 -2.8223  2.6700  1.8064
  418MOL0     H56395   3.425   8.330   9.341  1.7981  1.2424  0.7235
  418MOL0     H56396   3.194   8.436   9.334 -1.6623 -2.1450 -1.1104
  418MOL0     H56397   3.218   8.283   9.428  2.1275 -0.0688 -0.0933
  418MOL0     H56398   3.201   8.398   9.631  2.4199  0.0898 -0.6493
  418MOL0     H56399   3.239   8.556   9.553  0.5175 -1.1142 -2.0743
  418MOL0     H56400   2.960   8.427   9.518  0.1629 -1.1828  0.4418
  418MOL0     H56401   3.037   8.564   9.435 -0.2795 -1.8311 -0.5920
  418MOL0     H56402   3.069   8.663   9.673  0.4111  1.1104 -0.0324
  418MOL0     H56403   2.987   8.523   9.732  1.7101  0.4796  0.6498
  418MOL0     H56404   2.781   8.611   9.587  1.8056 -0.9846 -1.0007
  418MOL0     H56405   2.838   8.723   9.716  3.1927  1.5546 -0.3128
  418MOL0     H56406   2.789   8.830   9.503 -1.4139 -1.1067  4.9880
  418MOL0     H56407   2.914   8.740   9.412 -1.5416  1.8189 -1.6297
  418MOL0     H56408   2.961   8.926   9.647 -2.9355 -1.0107 -0.1893
  418MOL0     H56409   3.088   8.864   9.535 -0.1273 -0.9708 -0.5158
  418MOL0     H56410   3.524   8.228   9.720 -1.1145  0.1107 -1.4314
  418MOL0     H56411   3.743   8.141   9.763 -0.3858  0.5860 -0.0647
  418MOL0     H56412   4.241   8.131   9.312 -0.5748  3.6286  1.0510
  418MOL0     H56413   4.466   8.076   9.360  0.5865  0.6442 -0.2454
  418MOL0     H56414   4.891   7.647   8.991  1.6441 -0.1270 -0.2547
  418MOL0     H56415   4.737   7.459   8.946 -0.6136 -0.8195 -0.9662
  418MOL0     H56416   4.664   6.953   8.874  0.6740 -0.9162 -1.9944
  418MOL0     H56417   4.471   6.816   8.829  1.6261  0.5396 -0.6145
  418MOL0     H56418   4.264   6.717   8.810 -1.9169 -6.2039 -0.7928
  418MOL0     H56419   4.355   6.672   8.680  0.8684 -0.4330 -0.2192
  418MOL0     H56420   4.129   6.687   8.544  1.5803 -0.2576 -0.8604
  418MOL0     H56421   4.054   6.755   8.681 -0.4502 -1.9378  0.7198
  418MOL0     H56422   4.078   6.549   8.807  2.2686  0.4745  0.6538
  418MOL0     H56423   4.217   6.499   8.715  1.8231  1.0299 -0.2798
  418MOL0     H56424   3.959   6.543   8.559  1.8646  1.7524 -1.3553
  418MOL0     H56425   4.099   6.441   8.530  0.3155  0.3199  1.0233
  418MOL0     H56426   3.831   6.207   8.772  0.1251 -0.6512 -0.5316
  418MOL0     H56427   4.313   7.116   8.567  0.6636  2.7368  1.3530
  418MOL0     H56428   4.522   7.379   8.704 -0.6791 -2.6520  1.5841
  418MOL0     H56429   4.509   7.330   8.532 -3.7590  0.2665 -1.6123
  418MOL0     H56430   4.369   7.334   8.629 -0.4978  0.7310  3.6604
  419MOL0     O56431   9.432   5.055  10.665 -0.8687 -0.3237  0.4190
  419MOL0     C56432   9.367   4.977  10.735 -0.1207  0.4340 -0.8197
  419MOL0     O56433   9.419   4.891  10.826  0.0495  0.3340 -0.0830
  419MOL0     C56434   9.554   4.859  10.839  0.6312 -0.5824  0.1219
  419MOL0     C56435   9.583   4.725  10.866  0.4886 -0.0848  0.1338
  419MOL0     C56436   9.714   4.688  10.895  0.3339 -0.3822 -0.2031
  419MOL0     C56437   9.818   4.788  10.898  0.0548  0.1773 -0.3225
  419MOL0     O56438   9.950   4.763  10.921  0.0823  0.2407  0.2739
  419MOL0     C56439  10.010   4.639  10.871 -0.6149 -0.5001 -1.1462
  419MOL0     C56440  10.094   4.678  10.749 -0.9652 -0.8037 -0.9022
  419MOL0     C56441  10.172   4.560  10.699 -0.1106  0.5441 -0.0584
  419MOL0     C56442  10.203   4.557  10.548  0.3834  1.0428  0.3027
  419MOL0     C56443  10.270   4.427  10.489  0.2760  0.3214  0.3763
  419MOL0     C56444  10.421   4.436  10.510  0.1099  0.3640  0.4492
  419MOL0     C56445  10.501   4.322  10.445 -0.5573  0.6575 -0.3711
  419MOL0     C56446  10.647   4.369  10.421  0.6108 -0.0116 -0.0760
  419MOL0     N56447  10.742   4.255  10.400  0.0312  0.7540 -0.0683
  419MOL0     C56448  10.751   4.178  10.287  0.7904  0.3199 -0.3472
  419MOL0     C56449  10.847   4.088  10.316  0.5231  0.1635  0.2403
  419MOL0     C56450  10.901   3.986  10.222  0.1397  0.3492  0.0317
  419MOL0     C56451  10.900   3.840  10.270  0.3184  0.4085  0.2265
  419MOL0     C56452  10.952   3.737  10.159  0.6181 -0.5911 -0.2404
  419MOL0     C56453  10.937   3.592  10.219  0.4231 -1.2475  0.5980
  419MOL0     O56454  10.996   3.504  10.117 -0.4367  0.5458 -0.1190
  419MOL0     C56455  11.125   3.476  10.108 -0.2844 -0.6013 -0.1278
  419MOL0     C56456  11.231   3.514  10.194 -0.6151  0.2798 -0.3047
  419MOL0     C56457  11.355   3.464  10.176 -0.6577  0.4234 -0.0978
  419MOL0     C56458  11.384   3.373  10.076 -0.4899  1.0152  1.4077
  419MOL0     C56459  11.516   3.324  10.052  0.2150  0.7373  0.6867
  419MOL0     O56460  11.534   3.211   9.972  0.2671  0.0204 -0.2971
  419MOL0     C56461  11.658   3.152   9.950 -0.4149  0.1345 -0.0675
  419MOL0     C56462  11.705   3.145   9.820 -0.5925 -0.0078 -0.1464
  419MOL0     C56463  11.832   3.096   9.796  0.1588 -0.2902 -0.1385
  419MOL0     C56464  11.910   3.047   9.900 -0.5487  0.0453  0.2041
  419MOL0     O56465  12.035   3.007   9.859  0.0267 -0.4757 -0.5037
  419MOL0     C56466  12.086   2.900   9.947 -0.2232  1.2970  1.1234
  419MOL0     C56467  11.999   2.775   9.946  0.1227 -0.5132 -0.9059
  419MOL0     C56468  11.988   2.704   9.813 -0.7789  0.5449 -0.9094
  419MOL0     C56469  11.891   2.582   9.813 -0.3023  0.1029 -0.1873
  419MOL0     C56470  11.821   2.556   9.674 -0.1221 -0.3097 -0.4521
  419MOL0     C56471  11.736   2.431   9.667  0.0397 -0.8369  0.0347
  419MOL0     C56472  11.644   2.414   9.544 -0.1153 -0.0060 -0.3345
  419MOL0     C56473  11.566   2.283   9.566  0.3946 -1.1713  0.1388
  419MOL0    Cl56474  11.680   2.144   9.585 -0.0735 -0.1544  0.0104
  419MOL0     C56475  11.867   3.073  10.029 -0.4670  0.0519  0.5304
  419MOL0     C56476  11.740   3.124  10.053 -0.1645 -0.0416 -0.2964
  419MOL0     O56477  11.604   3.386  10.101  0.3510  0.0430 -0.2153
  419MOL0     C56478  11.273   3.322   9.997  0.0441  0.0082 -0.2878
  419MOL0     C56479  11.148   3.376  10.016 -0.0958  0.8365 -0.1780
  419MOL0     N56480  10.899   4.118  10.444  0.1897 -0.0298 -0.6296
  419MOL0     N56481  10.832   4.213  10.496  0.9035  0.1461 -0.4089
  419MOL0     C56482   9.779   4.923  10.878 -0.8023 -0.1960 -0.3465
  419MOL0     C56483   9.654   4.952  10.842  0.2133  0.3129 -0.3841
  419MOL0     C56484   9.218   4.967  10.716 -0.0296 -0.5726  0.5987
  419MOL0     C56485   9.152   4.845  10.742  0.1138  0.6710 -0.6803
  419MOL0     C56486   9.015   4.835  10.710 -0.4648  0.3380 -1.3172
  419MOL0     C56487   8.933   4.944  10.666 -0.2568 -0.7324 -0.3906
  419MOL0     O56488   8.800   4.926  10.644  0.0260  0.0890 -0.6257
  419MOL0     C56489   8.717   4.998  10.733 -0.1787 -0.8544 -0.3376
  419MOL0     C56490   8.644   5.119  10.651 -0.4718 -0.5563 -0.5795
  419MOL0     C56491   8.524   5.080  10.573 -0.3367 -0.0557  0.2629
  419MOL0     C56492   8.515   4.935  10.521 -0.4107 -0.8204 -0.1530
  419MOL0     C56493   8.403   4.927  10.428 -1.5590 -0.1729  0.2082
  419MOL0     C56494   8.330   4.918  10.335  1.0079 -1.0590  0.8381
  419MOL0     C56495   9.005   5.062  10.637 -0.6207  0.2631  0.2124
  419MOL0     C56496   9.143   5.071  10.658  0.1408 -0.0572  0.0766
  419MOL0     C56497   9.200   5.202  10.609  0.2788 -0.4194 -0.5820
  419MOL0     H56498   9.511   4.645  10.881 -1.4547  1.2284 -1.5552
  419MOL0     H56499   9.741   4.588  10.927 -1.6157 -0.2543  2.1735
  419MOL0     H56500  10.075   4.605  10.951 -0.7233  0.7240 -0.5188
  419MOL0     H56501   9.950   4.553  10.840  0.1206 -0.6754 -2.1277
  419MOL0     H56502  10.161   4.761  10.773 -0.0035 -1.2631 -1.8768
  419MOL0     H56503  10.027   4.714  10.671  0.0069  0.4291 -1.1944
  419MOL0     H56504  10.130   4.465  10.734 -2.0289  0.9024 -1.2504
  419MOL0     H56505  10.268   4.564  10.752 -0.1910  1.4875  0.0254
  419MOL0     H56506  10.110   4.573  10.493 -1.6858 -2.3519  2.4718
  419MOL0     H56507  10.270   4.643  10.532  0.7331  0.4193 -1.8670
  419MOL0     H56508  10.225   4.335  10.528 -3.1071 -0.5605 -4.6742
  419MOL0     H56509  10.241   4.419  10.384 -1.3428 -0.4379  0.8583
  419MOL0     H56510  10.451   4.531  10.466  0.0285  0.1464 -0.0789
  419MOL0     H56511  10.444   4.447  10.617  1.4885 -1.7820  0.4410
  419MOL0     H56512  10.454   4.303  10.348 -0.9662  0.5366 -0.1528
  419MOL0     H56513  10.505   4.237  10.514 -2.0134  1.4791  0.7932
  419MOL0     H56514  10.639   4.447  10.345  2.0054 -0.3172 -0.5544
  419MOL0     H56515  10.685   4.430  10.503  0.9822  1.8097 -1.5411
  419MOL0     H56516  10.686   4.190  10.201 -2.1148  0.8962  1.7811
  419MOL0     H56517  10.837   3.973  10.134  1.2525  0.8974 -0.8934
  419MOL0     H56518  11.003   4.011  10.192  0.9886 -2.8264 -0.1096
  419MOL0     H56519  10.964   3.842  10.359  0.5337 -1.1563  0.1336
  419MOL0     H56520  10.804   3.808  10.310  0.6395  0.3935  1.0002
  419MOL0     H56521  11.055   3.760  10.130 -0.0888  1.4240 -1.3644
  419MOL0     H56522  10.885   3.757  10.074 -2.2830 -0.6389  1.8724
  419MOL0     H56523  10.831   3.574  10.235  0.5244  1.2009  6.1531
  419MOL0     H56524  10.989   3.586  10.315  0.3013 -0.3496  0.7236
  419MOL0     H56525  11.218   3.581  10.278 -1.9362 -1.3818  0.8722
  419MOL0     H56526  11.435   3.496  10.242 -0.0902  1.2388 -1.1460
  419MOL0     H56527  11.652   3.195   9.739 -0.0829  0.3731 -0.2462
  419MOL0     H56528  11.882   3.095   9.700 -0.7448 -0.8538 -0.6206
  419MOL0     H56529  12.184   2.873   9.906 -0.1227 -0.6323  2.4951
  419MOL0     H56530  12.097   2.941  10.048  0.0863 -0.1071  1.6890
  419MOL0     H56531  12.046   2.704  10.014  0.7678 -0.5180 -1.3543
  419MOL0     H56532  11.902   2.795   9.994  0.7654  1.0368 -0.1878
  419MOL0     H56533  11.953   2.778   9.741  4.0671  1.3853 -2.7558
  419MOL0     H56534  12.082   2.678   9.764 -0.1990  0.4375  0.2318
  419MOL0     H56535  11.823   2.594   9.898  1.5475  1.2408  1.2040
  419MOL0     H56536  11.946   2.491   9.837 -1.6855 -0.3174  1.5595
  419MOL0     H56537  11.898   2.533   9.600  1.1427  1.3308  0.2939
  419MOL0     H56538  11.769   2.647   9.644 -1.7443 -1.5329 -1.5398
  419MOL0     H56539  11.802   2.347   9.688 -0.4094 -1.5974 -1.4723
  419MOL0     H56540  11.673   2.428   9.756  0.5606 -0.6753  0.4099
  419MOL0     H56541  11.715   2.394   9.463  0.2991 -0.2910  0.0981
  419MOL0     H56542  11.573   2.492   9.516 -3.7866 -2.1868  2.1194
  419MOL0     H56543  11.501   2.300   9.652  0.6744  0.0992  0.1118
  419MOL0     H56544  11.494   2.264   9.485 -0.6238  2.0525  0.1599
  419MOL0     H56545  11.942   3.070  10.107  1.3016 -0.5045 -1.0943
  419MOL0     H56546  11.694   3.127  10.151 -0.0980  0.7272 -0.2824
  419MOL0     H56547  11.295   3.238   9.932  1.6753 -0.4314  0.7689
  419MOL0     H56548  11.069   3.350   9.946  3.0737  2.1802 -4.7067
  419MOL0     H56549   9.855   4.996  10.905 -0.2850 -1.2207  1.1316
  419MOL0     H56550   9.627   5.056  10.832  0.3968  0.2171 -2.2742
  419MOL0     H56551   9.210   4.764  10.785  1.9772  2.8235  1.1354
  419MOL0     H56552   8.964   4.747  10.746  1.2372 -1.0094 -2.0683
  419MOL0     H56553   8.784   5.044  10.806  1.1794  0.5491 -2.3708
  419MOL0     H56554   8.645   4.931  10.780 -0.8000 -0.2944 -0.4611
  419MOL0     H56555   8.725   5.160  10.589  1.4314 -1.6801  1.0351
  419MOL0     H56556   8.616   5.189  10.731  1.1681 -2.3800  1.7395
  419MOL0     H56557   8.534   5.151  10.490 -0.2417 -1.3916 -0.8951
  419MOL0     H56558   8.437   5.108  10.635 -0.0051  1.5946  0.0349
  419MOL0     H56559   8.610   4.898  10.480 -0.8659  0.2386 -2.3392
  419MOL0     H56560   8.494   4.868  10.604 -0.1980 -0.8802 -0.1443
  419MOL0     H56561   8.273   4.930  10.245  1.7927  1.9451  0.6339
  419MOL0     H56562   8.952   5.147  10.597 -0.4939 -0.0173 -0.5783
  419MOL0     H56563   9.263   5.196  10.520  1.1732  3.2036 -0.3699
  419MOL0     H56564   9.131   5.286  10.593  1.6197  0.6961 -0.6500
  419MOL0     H56565   9.269   5.234  10.687  0.4062 -0.9124 -0.4947
  420MOL0     O56566   1.124   5.908   1.834 -0.1768  0.7782 -0.0333
  420MOL0     C56567   1.048   5.943   1.931 -0.0791 -0.0451 -0.0464
  420MOL0     O56568   1.082   5.941   2.059  0.1060  0.6049  0.4312
  420MOL0     C56569   1.200   5.890   2.101  0.4694 -0.3668  0.5668
  420MOL0     C56570   1.225   5.755   2.123 -0.3722  0.4495 -0.4583
  420MOL0     C56571   1.363   5.721   2.155  0.7505 -0.5395  0.2605
  420MOL0     C56572   1.468   5.817   2.162 -0.1153 -0.1503  0.5671
  420MOL0     O56573   1.602   5.770   2.160  0.4078 -0.3857  0.7966
  420MOL0     C56574   1.708   5.864   2.144  0.3856  0.4409  0.4386
  420MOL0     C56575   1.837   5.791   2.181  0.1363 -0.5968 -0.6354
  420MOL0     C56576   1.948   5.887   2.211 -0.2968 -1.1737 -0.1595
  420MOL0     C56577   2.065   5.814   2.266 -0.0245  0.2083 -0.9272
  420MOL0     C56578   2.170   5.915   2.300  0.5131  0.5500 -1.0468
  420MOL0     C56579   2.298   5.847   2.358  1.3960  0.4346  0.8429
  420MOL0     C56580   2.393   5.948   2.416 -0.0114 -0.9284 -0.8311
  420MOL0     C56581   2.509   5.880   2.492  0.1551  0.1432  0.5505
  420MOL0     N56582   2.555   5.967   2.597 -0.7756 -0.2801 -0.7783
  420MOL0     C56583   2.691   5.973   2.625  0.9742  0.3837  0.1258
  420MOL0     C56584   2.698   6.075   2.720 -0.4880  0.1172  0.3972
  420MOL0     C56585   2.809   6.122   2.807  0.1049 -0.0001 -0.8062
  420MOL0     C56586   2.954   6.093   2.771 -0.0140 -0.3417  0.3137
  420MOL0     C56587   3.067   6.171   2.852  0.3808  0.2067  0.4472
  420MOL0     C56588   3.206   6.137   2.789  0.1015 -0.2428 -0.2794
  420MOL0     O56589   3.302   6.180   2.877  0.2757 -0.0315 -0.4850
  420MOL0     C56590   3.434   6.153   2.855 -0.5907 -0.2923  0.4761
  420MOL0     C56591   3.519   6.179   2.958  0.5240 -0.4127  0.0730
  420MOL0     C56592   3.659   6.173   2.942  0.7758 -0.4952  0.2059
  420MOL0     C56593   3.717   6.154   2.812  0.7951  0.3142  0.2649
  420MOL0     C56594   3.865   6.141   2.792  0.0868  0.5043  0.3221
  420MOL0     O56595   3.945   6.125   2.899  0.7267 -0.4398 -0.7382
  420MOL0     C56596   4.078   6.153   2.899 -0.8326  0.2253 -0.1658
  420MOL0     C56597   4.158   6.108   3.006 -0.3968 -0.5786  0.4928
  420MOL0     C56598   4.296   6.133   3.016  0.0424 -0.5325 -0.0375
  420MOL0     C56599   4.361   6.201   2.911  0.1202 -0.0809  0.4262
  420MOL0     O56600   4.498   6.207   2.916  0.3063  0.2867 -0.4196
  420MOL0     C56601   4.566   6.266   2.801  0.2464  1.0066  0.9562
  420MOL0     C56602   4.713   6.250   2.817  0.3669 -0.4681 -0.1889
  420MOL0     C56603   4.752   6.254   2.972  0.9462  0.5042  0.0606
  420MOL0     C56604   4.906   6.262   2.986 -0.0944  0.0932  0.1904
  420MOL0     C56605   4.940   6.246   3.134 -0.3203 -0.5905  0.2744
  420MOL0     C56606   5.088   6.289   3.148  0.3318  0.1791 -0.0931
  420MOL0     C56607   5.190   6.194   3.078 -0.0512 -0.0550 -0.9285
  420MOL0     C56608   5.330   6.250   3.035  0.8741  0.0636 -1.0978
  420MOL0    Cl56609   5.402   6.357   3.159  0.0449  0.4436 -0.1585
  420MOL0     C56610   4.277   6.263   2.814  0.2639  0.0811 -1.2085
  420MOL0     C56611   4.145   6.232   2.807 -0.9184  0.4664 -0.1941
  420MOL0     O56612   3.908   6.138   2.675 -0.0102  0.5285 -0.2946
  420MOL0     C56613   3.631   6.127   2.709  0.6438  0.5870  0.7370
  420MOL0     C56614   3.495   6.128   2.727  0.1311  0.3668  0.5743
  420MOL0     N56615   2.564   6.109   2.743  0.1378 -0.1709 -1.0118
  420MOL0     N56616   2.481   6.049   2.673  0.4840 -0.7227  0.4314
  420MOL0     C56617   1.429   5.945   2.164  0.9214 -0.2188 -0.8669
  420MOL0     C56618   1.298   5.987   2.135 -0.3326 -0.1038 -0.2248
  420MOL0     C56619   0.923   6.000   1.891  0.4600  0.7799  0.1142
  420MOL0     C56620   0.804   5.958   1.949  0.5752  0.8817  0.2694
  420MOL0     C56621   0.687   6.000   1.905  0.1165  0.7357 -0.4510
  420MOL0     C56622   0.670   6.087   1.794 -0.2880  0.1732 -0.0868
  420MOL0     O56623   0.544   6.138   1.770  0.0475 -0.9391  0.0343
  420MOL0     C56624   0.514   6.180   1.641 -1.4470 -0.9517  0.3716
  420MOL0     C56625   0.362   6.163   1.623 -0.1450 -0.1238 -0.0102
  420MOL0     C56626   0.283   6.252   1.717 -1.2144 -0.2298  0.1121
  420MOL0     C56627   0.135   6.231   1.699 -0.5384  0.0702 -0.0050
  420MOL0     C56628   0.057   6.332   1.784 -0.1517 -0.3589 -0.0237
  420MOL0     C56629   0.002   6.423   1.836 -0.7073  0.6539  0.0676
  420MOL0     C56630   0.794   6.129   1.725  0.7607 -0.3186 -0.7276
  420MOL0     C56631   0.915   6.084   1.780 -0.9294  0.9223  0.7636
  420MOL0     C56632   1.041   6.129   1.708 -0.9722 -0.1292  0.1006
  420MOL0     H56633   1.161   5.670   2.099  0.6563 -0.5372  0.1662
  420MOL0     H56634   1.396   5.618   2.159 -3.0159 -1.9332 -0.0207
  420MOL0     H56635   1.707   5.889   2.038  1.3615  1.2918  0.6268
  420MOL0     H56636   1.689   5.951   2.207  0.6991  1.3749 -0.7224
  420MOL0     H56637   1.865   5.718   2.105  2.5889 -0.9701  0.5223
  420MOL0     H56638   1.818   5.730   2.270  1.5784  1.4727  1.2140
  420MOL0     H56639   1.906   5.963   2.278  0.9980 -1.5572  1.1283
  420MOL0     H56640   1.978   5.931   2.115 -2.2396 -0.4496 -0.4840
  420MOL0     H56641   2.030   5.765   2.357 -2.9920 -2.2116 -3.1612
  420MOL0     H56642   2.102   5.739   2.196 -0.2144 -1.5693  0.7994
  420MOL0     H56643   2.191   5.964   2.205  0.1974  0.6660 -1.0608
  420MOL0     H56644   2.130   5.988   2.372  2.7711  0.8393 -0.0161
  420MOL0     H56645   2.268   5.776   2.436  1.1075 -0.3507  0.0370
  420MOL0     H56646   2.337   5.782   2.279 -1.0314  1.2728 -1.1586
  420MOL0     H56647   2.334   6.012   2.482 -0.2836 -1.6059 -0.4012
  420MOL0     H56648   2.424   6.013   2.334  0.3994 -1.1461 -0.8517
  420MOL0     H56649   2.477   5.780   2.524  1.3053 -0.4775 -0.1742
  420MOL0     H56650   2.591   5.877   2.420 -1.9897  0.0736 -2.0204
  420MOL0     H56651   2.778   5.916   2.593  1.9520  1.4408  0.7876
  420MOL0     H56652   2.800   6.230   2.823 -0.7403  0.5087 -4.0206
  420MOL0     H56653   2.797   6.063   2.899 -1.9712  1.6085  0.0426
  420MOL0     H56654   2.982   5.989   2.791  0.9235 -0.2064 -0.2432
  420MOL0     H56655   2.961   6.103   2.662  1.8369 -0.5421  0.3827
  420MOL0     H56656   3.063   6.138   2.956 -0.9412  1.8941  0.9760
  420MOL0     H56657   3.054   6.280   2.855  1.0942  0.3721 -1.1897
  420MOL0     H56658   3.213   6.198   2.699  1.8134  3.0234  1.8622
  420MOL0     H56659   3.213   6.028   2.779 -1.2713 -0.4450  0.7203
  420MOL0     H56660   3.472   6.171   3.056 -1.7717 -4.1043 -1.0850
  420MOL0     H56661   3.712   6.183   3.036  0.3223  1.1547  0.3191
  420MOL0     H56662   4.102   6.057   3.083 -2.7575 -1.9322 -1.9849
  420MOL0     H56663   4.357   6.096   3.097 -1.4113  0.3031  1.5022
  420MOL0     H56664   4.531   6.224   2.706 -2.9944  0.5505  2.2034
  420MOL0     H56665   4.535   6.371   2.798  0.5957  1.0872 -1.0026
  420MOL0     H56666   4.738   6.158   2.763 -0.6879  0.4490 -2.3974
  420MOL0     H56667   4.760   6.334   2.764 -3.3640  1.2807 -1.0489
  420MOL0     H56668   4.708   6.342   3.021  3.2893  0.1281  3.1866
  420MOL0     H56669   4.722   6.167   3.031  1.6195  0.7090  0.7295
  420MOL0     H56670   4.932   6.358   2.941 -1.7762  0.3864 -0.2336
  420MOL0     H56671   4.946   6.180   2.925 -0.7907 -0.4502  0.4467
  420MOL0     H56672   4.916   6.145   3.169  0.7427 -1.3032 -0.9591
  420MOL0     H56673   4.883   6.317   3.195  0.5156  1.2316 -0.9971
  420MOL0     H56674   5.096   6.392   3.111 -0.8158  0.5291  0.5663
  420MOL0     H56675   5.107   6.275   3.255 -0.0315 -0.9661 -0.1639
  420MOL0     H56676   5.149   6.137   2.994 -0.8326  0.8612 -1.1888
  420MOL0     H56677   5.218   6.110   3.143 -2.3852  0.1009  0.3759
  420MOL0     H56678   5.400   6.168   3.021  1.2170  0.1679 -0.0699
  420MOL0     H56679   5.331   6.303   2.939 -0.8408  0.0548 -1.1613
  420MOL0     H56680   4.315   6.315   2.727  1.3180 -1.3081 -1.6115
  420MOL0     H56681   4.101   6.257   2.711 -1.5196 -3.3036 -1.0262
  420MOL0     H56682   3.664   6.102   2.608  2.3916  2.8272  0.6832
  420MOL0     H56683   3.429   6.136   2.642  1.3178 -3.1776 -0.8776
  420MOL0     H56684   1.486   6.034   2.188 -0.7140  0.9177 -1.0735
  420MOL0     H56685   1.272   6.091   2.115 -0.2750  0.3003  1.6491
  420MOL0     H56686   0.805   5.901   2.041 -0.2126  1.5717  0.7229
  420MOL0     H56687   0.595   5.966   1.953  1.3601 -3.0653 -0.4136
  420MOL0     H56688   0.566   6.125   1.562 -1.6360 -0.3443 -0.1921
  420MOL0     H56689   0.547   6.285   1.638 -0.5833 -1.0968  2.6648
  420MOL0     H56690   0.331   6.060   1.638 -1.0682  0.0818 -0.4289
  420MOL0     H56691   0.342   6.180   1.517  2.0669  0.9683 -0.3089
  420MOL0     H56692   0.305   6.355   1.685 -0.4824 -1.2281 -3.0186
  420MOL0     H56693   0.312   6.250   1.822  0.2029  3.3228 -0.0527
  420MOL0     H56694   0.100   6.241   1.596  1.3728 -2.6280 -1.0588
  420MOL0     H56695   0.105   6.132   1.736 -1.0001  0.0306 -0.4671
  420MOL0     H56696  -0.058   6.495   1.889  2.2253  1.8000  2.0824
  420MOL0     H56697   0.784   6.192   1.637  1.4164 -2.0354 -2.0784
  420MOL0     H56698   1.012   6.227   1.670 -0.0227  0.0616 -0.1661
  420MOL0     H56699   1.124   6.154   1.775  0.9252 -2.9428 -0.9950
  420MOL0     H56700   1.076   6.070   1.622 -0.5430  1.4054 -0.8286
  421MOL0     O56701   2.565   0.286   4.474  0.1696  0.1094  0.3331
  421MOL0     C56702   2.512   0.399   4.485 -0.5789 -0.2103  0.1176
  421MOL0     O56703   2.566   0.510   4.542  0.0730 -0.1095 -0.4809
  421MOL0     C56704   2.697   0.518   4.578 -0.2354 -0.8764  0.0087
  421MOL0     C56705   2.725   0.539   4.716  0.1888 -0.4454  0.2868
  421MOL0     C56706   2.861   0.534   4.760 -0.4377 -0.7377 -0.1590
  421MOL0     C56707   2.965   0.514   4.671 -0.6800  1.6720  0.4074
  421MOL0     O56708   3.092   0.501   4.709 -0.7871 -0.2555 -0.1304
  421MOL0     C56709   3.127   0.574   4.830 -0.4950 -0.0174 -0.2449
  421MOL0     C56710   3.273   0.583   4.841  0.8053 -0.1909  0.5373
  421MOL0     C56711   3.345   0.672   4.733  0.3618 -0.1041  0.6020
  421MOL0     C56712   3.492   0.669   4.765 -0.3618 -0.4029 -0.3059
  421MOL0     C56713   3.586   0.732   4.665  0.1328  0.1097  0.4281
  421MOL0     C56714   3.734   0.715   4.717 -0.4431 -0.3341 -1.0279
  421MOL0     C56715   3.846   0.758   4.615  0.2665  0.1700 -0.1196
  421MOL0     C56716   3.974   0.766   4.696  0.0572  0.4931  0.7015
  421MOL0     N56717   4.081   0.825   4.621  0.4516 -0.2032 -0.0620
  421MOL0     C56718   4.152   0.941   4.649  0.1132 -0.4053 -0.2907
  421MOL0     C56719   4.260   0.943   4.561 -0.4581 -1.1341  0.1320
  421MOL0     C56720   4.354   1.065   4.529 -0.2484  0.2415  0.1706
  421MOL0     C56721   4.380   1.147   4.656  0.5714  0.1602 -0.6294
  421MOL0     C56722   4.452   1.080   4.781  0.3510  0.1972 -0.1911
  421MOL0     C56723   4.594   1.126   4.794  0.1213 -0.0353 -0.4315
  421MOL0     O56724   4.654   1.066   4.909 -0.7720 -0.0220 -0.2531
  421MOL0     C56725   4.793   1.078   4.920 -0.3202 -0.2565  0.4840
  421MOL0     C56726   4.853   0.991   5.016 -0.0074 -0.1738 -0.0586
  421MOL0     C56727   4.994   0.976   5.013 -0.4473 -0.0108 -0.3408
  421MOL0     C56728   5.077   1.062   4.935  0.0894  0.3745 -1.0135
  421MOL0     C56729   5.223   1.059   4.946  0.5939 -0.1841 -0.3171
  421MOL0     O56730   5.306   1.130   4.861  0.2600 -0.8819 -0.0697
  421MOL0     C56731   5.436   1.136   4.891 -0.0320 -0.4854  0.2340
  421MOL0     C56732   5.543   1.100   4.810 -0.2832  0.1867  1.1348
  421MOL0     C56733   5.683   1.106   4.844  0.6717 -0.1051  0.0520
  421MOL0     C56734   5.712   1.163   4.975  0.1032 -0.2289  0.0771
  421MOL0     O56735   5.852   1.183   5.001  0.3299 -0.2220  0.1270
  421MOL0     C56736   5.885   1.223   5.133 -0.0570 -0.6609 -0.7258
  421MOL0     C56737   6.034   1.193   5.161 -0.2941 -0.2774  0.3414
  421MOL0     C56738   6.085   1.269   5.283 -0.2760  0.7793 -0.5103
  421MOL0     C56739   6.234   1.259   5.296 -0.2178  0.9122  0.1230
  421MOL0     C56740   6.310   1.324   5.423  0.0455  0.0624  0.6024
  421MOL0     C56741   6.459   1.292   5.428 -0.6980  0.3742 -0.7311
  421MOL0     C56742   6.532   1.373   5.323  0.3463  0.3489  0.4758
  421MOL0     C56743   6.678   1.401   5.356  0.7755 -0.1420 -0.2498
  421MOL0    Cl56744   6.761   1.488   5.227  0.5629  0.5434 -0.0669
  421MOL0     C56745   5.605   1.206   5.053 -0.3823  0.5158  0.0587
  421MOL0     C56746   5.472   1.196   5.014  0.1389  0.0432  0.6716
  421MOL0     O56747   5.259   1.002   5.049 -0.1077  0.1709  0.3558
  421MOL0     C56748   5.004   1.160   4.858 -0.4701 -0.5803 -0.2519
  421MOL0     C56749   4.869   1.152   4.835  0.3615 -0.1024 -0.0894
  421MOL0     N56750   4.256   0.825   4.491  0.1345  0.8213 -0.1558
  421MOL0     N56751   4.145   0.761   4.520  0.1756 -0.0051 -0.5904
  421MOL0     C56752   2.936   0.503   4.537 -0.1460  0.1874 -0.4672
  421MOL0     C56753   2.805   0.493   4.490  0.7154  0.4597 -1.1121
  421MOL0     C56754   2.379   0.407   4.424  0.1003 -1.0363 -0.6122
  421MOL0     C56755   2.347   0.312   4.330  0.6370 -0.7034  0.4595
  421MOL0     C56756   2.223   0.317   4.269 -1.2577 -0.7687  0.6699
  421MOL0     C56757   2.122   0.413   4.299  0.5190  0.0144 -1.0477
  421MOL0     O56758   2.010   0.408   4.223  0.0877  0.1226 -0.0964
  421MOL0     C56759   1.912   0.518   4.233  0.1832 -0.0478 -0.2131
  421MOL0     C56760   1.817   0.527   4.116  0.2686  0.0404 -0.3617
  421MOL0     C56761   1.751   0.388   4.093 -1.5101 -0.4921 -0.1001
  421MOL0     C56762   1.693   0.318   4.213  0.0517 -0.0939  0.3266
  421MOL0     C56763   1.630   0.195   4.173  0.1734  0.4167  0.7083
  421MOL0     C56764   1.569   0.091   4.135  0.3102  0.1500 -0.4339
  421MOL0     C56765   2.154   0.501   4.401 -0.3717 -0.8157  0.4419
  421MOL0     C56766   2.275   0.499   4.467  0.0910 -0.3267  0.4851
  421MOL0     C56767   2.288   0.591   4.585 -0.0549  0.4716 -0.1438
  421MOL0     H56768   2.653   0.542   4.797  1.5684  2.4156  1.5134
  421MOL0     H56769   2.883   0.562   4.862  3.1881 -1.9627 -0.4449
  421MOL0     H56770   3.087   0.676   4.830 -2.8080 -0.8762 -0.8248
  421MOL0     H56771   3.089   0.541   4.927  0.2489 -0.1315  0.0163
  421MOL0     H56772   3.306   0.479   4.848  2.3510 -0.0114 -2.4200
  421MOL0     H56773   3.299   0.629   4.937  0.9847  3.0012 -0.9256
  421MOL0     H56774   3.302   0.773   4.733  0.3184 -0.0747 -1.7220
  421MOL0     H56775   3.330   0.635   4.632  0.3809 -0.6871  0.8074
  421MOL0     H56776   3.503   0.716   4.863  3.3531 -2.1664  0.2789
  421MOL0     H56777   3.520   0.564   4.777  0.4969 -0.5411 -2.8699
  421MOL0     H56778   3.583   0.689   4.565  3.8494  0.5954 -0.0130
  421MOL0     H56779   3.563   0.838   4.650  1.5778  0.2801 -0.8203
  421MOL0     H56780   3.741   0.771   4.811 -1.4571 -1.7055 -0.0975
  421MOL0     H56781   3.754   0.611   4.744  2.5244 -0.0410 -1.7287
  421MOL0     H56782   3.828   0.854   4.566 -2.2540 -0.3102 -0.2785
  421MOL0     H56783   3.852   0.684   4.534  0.3449  0.6323 -0.5373
  421MOL0     H56784   3.956   0.815   4.792 -2.7987 -1.9094  1.5249
  421MOL0     H56785   4.006   0.663   4.715  2.1741  0.7725 -0.8570
  421MOL0     H56786   4.128   1.026   4.712  1.1840  0.0087 -0.4230
  421MOL0     H56787   4.451   1.024   4.497 -0.2618  0.8667 -0.7038
  421MOL0     H56788   4.317   1.120   4.442  1.9674 -2.2313 -2.5544
  421MOL0     H56789   4.439   1.232   4.620 -0.4047  1.2216  0.2020
  421MOL0     H56790   4.281   1.190   4.675  0.8911  1.7977 -2.3779
  421MOL0     H56791   4.447   0.973   4.762 -1.1693 -0.2522  2.3018
  421MOL0     H56792   4.396   1.107   4.870  2.3552  1.1453  0.8498
  421MOL0     H56793   4.602   1.235   4.791 -1.6066  0.1155 -1.0036
  421MOL0     H56794   4.645   1.092   4.704  0.6366 -1.1415  0.2571
  421MOL0     H56795   4.789   0.928   5.077 -2.1050  0.2338 -1.6952
  421MOL0     H56796   5.043   0.898   5.071 -1.0589  0.3185  0.6473
  421MOL0     H56797   5.532   1.072   4.706 -2.5499  0.6897  1.1903
  421MOL0     H56798   5.769   1.076   4.785  2.3388  1.1015  1.7630
  421MOL0     H56799   5.873   1.331   5.150  3.2685 -0.4401  1.2013
  421MOL0     H56800   5.828   1.168   5.208 -0.7164 -2.9578 -2.8100
  421MOL0     H56801   6.046   1.087   5.188  0.3579 -0.5031 -0.7735
  421MOL0     H56802   6.100   1.214   5.076 -1.2612 -0.3114 -0.4232
  421MOL0     H56803   6.068   1.378   5.282  1.1867  1.0401  0.2294
  421MOL0     H56804   6.028   1.233   5.369 -0.0707  3.6896  0.9739
  421MOL0     H56805   6.268   1.307   5.203  0.7710  1.5971  0.8247
  421MOL0     H56806   6.272   1.156   5.293  0.9211  1.2751  1.3112
  421MOL0     H56807   6.260   1.287   5.513 -0.4155 -1.3716 -0.2002
  421MOL0     H56808   6.300   1.433   5.423 -0.5669  0.1362 -3.0327
  421MOL0     H56809   6.480   1.323   5.530  0.7453 -0.5572 -0.7253
  421MOL0     H56810   6.481   1.185   5.422 -0.8174  0.3128 -0.1194
  421MOL0     H56811   6.476   1.465   5.305  0.6135  0.6675  1.2519
  421MOL0     H56812   6.529   1.319   5.227  1.9378  0.8622  0.1015
  421MOL0     H56813   6.680   1.465   5.445 -2.9843 -0.2352  0.0738
  421MOL0     H56814   6.725   1.305   5.381  0.9621 -0.0798 -0.3606
  421MOL0     H56815   5.637   1.249   5.147  3.4592 -0.2529 -0.7207
  421MOL0     H56816   5.389   1.212   5.082  2.2339 -1.6746  3.9205
  421MOL0     H56817   5.062   1.235   4.805  0.7056 -0.4566  1.1464
  421MOL0     H56818   4.827   1.221   4.762 -2.8677 -3.0551 -1.2890
  421MOL0     H56819   3.021   0.500   4.470 -1.6743 -2.6851 -2.4706
  421MOL0     H56820   2.805   0.463   4.386  0.3071  2.8798 -1.8799
  421MOL0     H56821   2.418   0.241   4.289  0.8263  1.2024 -2.9340
  421MOL0     H56822   2.203   0.242   4.194 -1.8188 -0.3855  0.4305
  421MOL0     H56823   1.970   0.611   4.239 -0.9944  0.7112 -0.2144
  421MOL0     H56824   1.857   0.503   4.326 -0.9167  0.4924 -0.7572
  421MOL0     H56825   1.854   0.560   4.019 -0.1800  2.1975  0.1552
  421MOL0     H56826   1.752   0.609   4.148  0.4372  0.0513 -0.0466
  421MOL0     H56827   1.819   0.315   4.048  2.1390  1.8767  1.1520
  421MOL0     H56828   1.679   0.394   4.011  0.3790 -1.7551 -1.9599
  421MOL0     H56829   1.780   0.285   4.270 -0.1273  0.9794  1.2399
  421MOL0     H56830   1.632   0.388   4.271 -1.4665 -0.5417 -0.6647
  421MOL0     H56831   1.519   0.002   4.100 -0.2163  0.4961 -0.5650
  421MOL0     H56832   2.086   0.575   4.443  1.3856  1.5252 -0.6164
  421MOL0     H56833   2.314   0.534   4.674 -0.8429 -2.1459 -1.5066
  421MOL0     H56834   2.365   0.667   4.567  0.0363  0.3022 -0.4824
  421MOL0     H56835   2.196   0.642   4.617 -1.2799 -1.2762 -0.7615
  422MOL0     O56836  11.007  10.678   7.452  0.2854 -0.5399  0.2039
  422MOL0     C56837  10.958  10.711   7.559  0.4075 -0.4931  0.3438
  422MOL0     O56838  11.019  10.756   7.668 -0.1006  0.2902  0.2038
  422MOL0     C56839  11.158  10.763   7.680  0.4648  0.0483  0.4045
  422MOL0     C56840  11.208  10.846   7.781  0.0642  0.4659 -0.8664
  422MOL0     C56841  11.354  10.848   7.802 -0.0818 -1.1253  0.2850
  422MOL0     C56842  11.437  10.758   7.741  0.6541  0.0199  0.2540
  422MOL0     O56843  11.575  10.750   7.762  0.1939  0.2969 -0.5953
  422MOL0     C56844  11.616  10.791   7.901  0.2899 -0.2937 -0.0503
  422MOL0     C56845  11.765  10.784   7.932  0.6773  0.3977 -0.2285
  422MOL0     C56846  11.817  10.648   7.881  0.2819  0.7570  0.7823
  422MOL0     C56847  11.968  10.655   7.900  0.3646  0.4947  0.1287
  422MOL0     C56848  12.028  10.526   7.838 -0.4621 -0.3022 -0.0989
  422MOL0     C56849  12.180  10.522   7.867  0.2558  0.2549 -0.3728
  422MOL0     C56850  12.239  10.381   7.823 -0.4451 -0.3410 -1.3259
  422MOL0     C56851  12.246  10.281   7.949  0.2470 -0.5719 -0.3273
  422MOL0     N56852  12.345  10.176   7.913 -0.4195 -0.5264 -0.0849
  422MOL0     C56853  12.349  10.099   7.802 -0.1512 -0.0973  0.0389
  422MOL0     C56854  12.449  10.014   7.827 -0.0250 -0.7330 -0.1559
  422MOL0     C56855  12.486   9.911   7.734  0.4274 -0.2394 -0.3578
  422MOL0     C56856  12.622   9.920   7.680  0.5634 -0.0993 -0.5463
  422MOL0     C56857  12.667  10.047   7.609  0.3981 -0.6200  0.2981
  422MOL0     C56858  12.810  10.026   7.550 -0.3214  0.1401  0.8113
  422MOL0     O56859  12.898   9.973   7.643 -0.0621 -0.0728 -0.1384
  422MOL0     C56860  13.023   9.937   7.616  0.0738  0.8189  0.4314
  422MOL0     C56861  13.079   9.836   7.690 -0.4863 -0.2013  0.7025
  422MOL0     C56862  13.218   9.806   7.687 -0.7006 -0.2941  0.2618
  422MOL0     C56863  13.301   9.879   7.600 -0.7012  0.2726  0.0036
  422MOL0     C56864  13.449   9.867   7.615  0.0200 -0.5729  1.0090
  422MOL0     O56865  13.501   9.773   7.704  0.6779 -0.2422  0.2883
  422MOL0     C56866  13.639   9.783   7.715  0.6938 -0.1909 -0.1436
  422MOL0     C56867  13.702   9.833   7.825 -0.1667  0.1879  0.7788
  422MOL0     C56868  13.838   9.802   7.851  0.3124 -0.1035 -0.8819
  422MOL0     C56869  13.911   9.719   7.765 -0.1447 -0.3928  0.2382
  422MOL0     O56870  14.036   9.672   7.783 -0.3485  0.0596 -0.5169
  422MOL0     C56871  14.116   9.736   7.894 -0.2027  0.0769  0.0637
  422MOL0     C56872  14.256   9.686   7.891 -0.2678 -0.0779  0.5040
  422MOL0     C56873  14.343   9.787   7.967  0.6991  0.3506 -0.2304
  422MOL0     C56874  14.494   9.749   7.967 -0.4564 -0.3255 -0.0132
  422MOL0     C56875  14.575   9.865   8.032  0.3747  0.1948 -0.5515
  422MOL0     C56876  14.709   9.811   8.091  0.3899  0.9628  0.3021
  422MOL0     C56877  14.795   9.924   8.150 -0.4902 -0.0327 -0.0356
  422MOL0     C56878  14.938   9.877   8.194 -0.2365 -0.0060 -0.4430
  422MOL0    Cl56879  15.035   9.824   8.049  0.1184  0.0456  0.2952
  422MOL0     C56880  13.850   9.665   7.659  0.1417  0.2254  0.3326
  422MOL0     C56881  13.713   9.692   7.633  0.6339 -1.0768  0.3288
  422MOL0     O56882  13.516   9.954   7.558 -0.1107 -0.1799  0.3622
  422MOL0     C56883  13.239   9.968   7.510  0.3079  0.8009  0.1968
  422MOL0     C56884  13.106  10.009   7.532  0.1543  0.3077 -0.0365
  422MOL0     N56885  12.516  10.047   7.945 -0.2685 -0.0921 -0.3567
  422MOL0     N56886  12.451  10.150   7.998 -0.0899  0.6328  0.3626
  422MOL0     C56887  11.381  10.676   7.636  0.1416  1.0845 -0.1180
  422MOL0     C56888  11.244  10.673   7.618 -0.0506 -0.0700  0.4813
  422MOL0     C56889  10.801  10.706   7.572  0.6878  0.1641 -0.4597
  422MOL0     C56890  10.737  10.766   7.687  0.1135  0.2908  0.0509
  422MOL0     C56891  10.600  10.769   7.705 -0.3655 -0.0022 -0.4980
  422MOL0     C56892  10.515  10.724   7.607 -0.1925 -0.2495 -0.5734
  422MOL0     O56893  10.378  10.734   7.619 -0.6778 -0.0882 -0.0567
  422MOL0     C56894  10.316  10.839   7.688  0.4118  0.2117  0.3031
  422MOL0     C56895  10.176  10.872   7.623  0.7604  0.0305  0.4736
  422MOL0     C56896  10.104  10.991   7.685  1.0849 -0.1547  0.5548
  422MOL0     C56897  10.055  10.959   7.822 -0.5628  0.6892  0.0169
  422MOL0     C56898   9.962  11.061   7.859  0.3365  0.1317  0.4497
  422MOL0     C56899   9.882  11.142   7.895 -0.4791  0.7515 -0.2489
  422MOL0     C56900  10.572  10.670   7.489  0.0086 -0.1061  0.6694
  422MOL0     C56901  10.714  10.658   7.472 -0.2706 -0.6639 -0.1126
  422MOL0     C56902  10.769  10.611   7.340 -0.0816 -0.2223 -0.0363
  422MOL0     H56903  11.154  10.919   7.840  0.8578  2.1863 -2.1745
  422MOL0     H56904  11.395  10.909   7.882  2.6196  0.0401 -1.8085
  422MOL0     H56905  11.579  10.891   7.926  0.7607  0.1840 -1.1856
  422MOL0     H56906  11.562  10.715   7.959 -1.1197 -0.8020 -1.8851
  422MOL0     H56907  11.774  10.797   8.040 -1.0277 -2.5926  0.4072
  422MOL0     H56908  11.806  10.869   7.878 -1.7774  1.0396 -1.2656
  422MOL0     H56909  11.791  10.629   7.777  1.2957 -1.0560  0.8308
  422MOL0     H56910  11.773  10.560   7.930  1.2411  1.2068  2.5441
  422MOL0     H56911  12.017  10.742   7.855  0.1994 -0.7116 -2.5942
  422MOL0     H56912  11.985  10.653   8.008 -2.3145 -2.7233  0.6483
  422MOL0     H56913  11.975  10.445   7.889 -0.4741 -0.5977 -0.5795
  422MOL0     H56914  12.012  10.529   7.730  3.9954  1.3824 -0.9303
  422MOL0     H56915  12.232  10.605   7.817  0.7260  0.6260  0.6838
  422MOL0     H56916  12.191  10.544   7.974 -1.0495  1.8161 -0.5130
  422MOL0     H56917  12.341  10.406   7.793 -0.6347  1.4562 -0.6104
  422MOL0     H56918  12.179  10.334   7.745 -1.3810 -2.8256  0.7612
  422MOL0     H56919  12.282  10.328   8.041 -0.5623 -1.7924  0.6296
  422MOL0     H56920  12.151  10.231   7.969  0.2884 -0.2670  0.6506
  422MOL0     H56921  12.291  10.105   7.711  1.9283  1.6737 -1.2613
  422MOL0     H56922  12.483   9.824   7.801  0.0905  0.0772  0.0417
  422MOL0     H56923  12.416   9.897   7.651 -0.2193  1.2317 -0.0884
  422MOL0     H56924  12.702   9.903   7.753  0.4519 -0.7946 -0.5810
  422MOL0     H56925  12.623   9.834   7.613  0.3338 -0.4966 -0.0414
  422MOL0     H56926  12.673  10.121   7.690  3.4406 -1.8279  1.3342
  422MOL0     H56927  12.599  10.070   7.527  1.9371  1.6539 -0.4251
  422MOL0     H56928  12.846  10.120   7.506 -2.1769  1.3307  1.6958
  422MOL0     H56929  12.807   9.961   7.463  1.0513  1.4295 -0.2542
  422MOL0     H56930  13.019   9.787   7.766 -0.3820 -0.7905  0.4090
  422MOL0     H56931  13.247   9.729   7.758 -3.4603 -0.6683  1.0724
  422MOL0     H56932  13.648   9.884   7.905  2.5574  2.1715  1.4808
  422MOL0     H56933  13.877   9.838   7.945  0.2343 -1.0285 -0.4828
  422MOL0     H56934  14.112   9.845   7.897  0.6240  0.0931  1.7309
  422MOL0     H56935  14.088   9.705   7.995 -1.9059 -2.0248 -0.9679
  422MOL0     H56936  14.264   9.590   7.942  0.9553  0.8281  2.1097
  422MOL0     H56937  14.285   9.672   7.787 -1.9719  1.0089 -0.1558
  422MOL0     H56938  14.341   9.884   7.916  1.0849  0.0130 -0.8918
  422MOL0     H56939  14.306   9.799   8.069 -1.3507 -1.0556 -0.7365
  422MOL0     H56940  14.526   9.741   7.863 -1.4427 -1.3603 -0.2563
  422MOL0     H56941  14.495   9.655   8.023  0.7163  0.0407  0.6075
  422MOL0     H56942  14.519   9.899   8.119  1.3367 -0.3766  0.3108
  422MOL0     H56943  14.596   9.942   7.957  0.8600  0.1468 -0.4632
  422MOL0     H56944  14.692   9.730   8.163  1.4074  0.8149  0.3915
  422MOL0     H56945  14.755   9.761   8.005 -0.3837 -0.5544  0.7422
  422MOL0     H56946  14.757   9.958   8.247  1.0934  0.3172  0.5107
  422MOL0     H56947  14.789  10.010   8.083  3.2487  0.3466 -0.1407
  422MOL0     H56948  14.983   9.971   8.228 -1.1836  0.7210 -1.1120
  422MOL0     H56949  14.922   9.816   8.282 -0.9998  1.2224  0.3044
  422MOL0     H56950  13.915   9.608   7.594 -2.0359 -1.0117 -0.8677
  422MOL0     H56951  13.658   9.673   7.541  0.1215  0.2416  0.3553
  422MOL0     H56952  13.302  10.006   7.430  0.9137  0.3929  0.4744
  422MOL0     H56953  13.063  10.093   7.478 -2.7430 -0.8015  0.3879
  422MOL0     H56954  11.451  10.611   7.585 -0.5064  0.0733  0.2445
  422MOL0     H56955  11.201  10.599   7.552  0.8034 -1.0393  0.9827
  422MOL0     H56956  10.806  10.797   7.764 -0.7296  2.3582  0.0164
  422MOL0     H56957  10.549  10.813   7.790 -0.5187 -0.7059 -0.2221
  422MOL0     H56958  10.374  10.930   7.674  1.6548 -0.7288 -0.9342
  422MOL0     H56959  10.296  10.808   7.791  0.1390  2.3403  0.9402
  422MOL0     H56960  10.110  10.785   7.622  1.3151 -0.5294  3.5249
  422MOL0     H56961  10.182  10.909   7.520 -0.7051  1.3250  0.8120
  422MOL0     H56962  10.021  11.009   7.616 -0.3182 -0.6006  2.0591
  422MOL0     H56963  10.168  11.079   7.696 -1.8101  2.1709 -0.0141
  422MOL0     H56964  10.012  10.859   7.827  0.7039  0.1279  0.0893
  422MOL0     H56965  10.138  10.948   7.893  1.4004  0.1533 -2.2197
  422MOL0     H56966   9.816  11.219   7.928  1.9478  2.9117 -0.1231
  422MOL0     H56967  10.502  10.641   7.411  1.2318  1.2564 -1.0193
  422MOL0     H56968  10.834  10.526   7.363  0.5084  0.0877 -0.5223
  422MOL0     H56969  10.692  10.581   7.268  0.0059  1.2184 -0.7765
  422MOL0     H56970  10.821  10.690   7.283 -1.2122  0.8072  0.3185
  423MOL0     O56971   9.281   5.528   3.253  0.2885 -0.2190 -0.5313
  423MOL0     C56972   9.198   5.555   3.343 -0.3348  0.5058 -0.6814
  423MOL0     O56973   9.235   5.554   3.479  0.5547  0.2522 -0.6892
  423MOL0     C56974   9.355   5.492   3.517  0.7156 -0.2734 -0.1880
  423MOL0     C56975   9.352   5.422   3.631  0.0194  0.0812  1.1526
  423MOL0     C56976   9.475   5.362   3.677  0.4108  0.0815  0.2002
  423MOL0     C56977   9.595   5.382   3.609  0.2139  1.1687 -0.1055
  423MOL0     O56978   9.710   5.316   3.661 -0.2278  0.0456  0.6627
  423MOL0     C56979   9.844   5.352   3.629 -0.1462 -0.9821  1.3117
  423MOL0     C56980   9.912   5.257   3.530 -0.3119  0.3332  0.3998
  423MOL0     C56981   9.886   5.291   3.381  0.2627 -0.0459 -0.3178
  423MOL0     C56982   9.932   5.437   3.343 -0.0498 -0.8994  0.0472
  423MOL0     C56983   9.943   5.473   3.197 -0.7095 -0.5128 -1.0322
  423MOL0     C56984   9.808   5.480   3.123 -0.5323 -0.5807  0.5226
  423MOL0     C56985   9.828   5.525   2.978 -0.3493  0.0523 -1.4910
  423MOL0     C56986   9.689   5.542   2.906 -0.7794 -0.6957 -0.4862
  423MOL0     N56987   9.708   5.592   2.768 -0.0871 -0.1224  0.2007
  423MOL0     C56988   9.663   5.540   2.649  0.1661 -1.3795  0.5997
  423MOL0     C56989   9.740   5.600   2.555 -0.1292 -0.2481  0.6567
  423MOL0     C56990   9.731   5.584   2.404 -0.0391  0.6720  0.5235
  423MOL0     C56991   9.871   5.551   2.340  0.4408  0.5150 -0.6087
  423MOL0     C56992   9.910   5.412   2.379 -0.8608 -0.1494  0.3850
  423MOL0     C56993  10.050   5.370   2.334 -0.2019  0.3380  0.0742
  423MOL0     O56994  10.042   5.348   2.190  0.1902  0.4909 -0.2962
  423MOL0     C56995  10.166   5.328   2.131  0.4049 -0.0363 -0.8861
  423MOL0     C56996  10.179   5.310   1.994  0.3480  0.2108 -0.6877
  423MOL0     C56997  10.300   5.294   1.938 -0.5381 -1.2915  0.6462
  423MOL0     C56998  10.417   5.282   2.013 -0.4430 -1.1029  0.6021
  423MOL0     C56999  10.551   5.273   1.944  0.1911  1.0560  0.0752
  423MOL0     O57000  10.555   5.239   1.806  0.5334  0.2295  0.1620
  423MOL0     C57001  10.670   5.235   1.736 -0.8210 -0.4911 -0.0952
  423MOL0     C57002  10.785   5.172   1.783  0.5281  0.3059  0.5316
  423MOL0     C57003  10.906   5.188   1.714 -0.2004 -0.1748  0.2664
  423MOL0     C57004  10.905   5.253   1.594  0.0730  0.3766  1.0276
  423MOL0     O57005  11.029   5.263   1.524 -0.7236 -0.2114 -0.2461
  423MOL0     C57006  11.084   5.138   1.466  0.0686 -1.1775 -0.1404
  423MOL0     C57007  11.206   5.166   1.378 -0.4090  0.6267 -1.1978
  423MOL0     C57008  11.333   5.162   1.469  0.4197 -0.0315 -0.0070
  423MOL0     C57009  11.459   5.197   1.395 -0.0489 -0.8290 -0.2443
  423MOL0     C57010  11.583   5.162   1.481  0.3735  0.2005  0.1283
  423MOL0     C57011  11.614   5.272   1.593 -0.0952  0.1005  0.5279
  423MOL0     C57012  11.690   5.222   1.712 -0.2575  1.1584  0.0260
  423MOL0     C57013  11.672   5.297   1.841  0.0357  0.3718  0.5039
  423MOL0    Cl57014  11.759   5.207   1.962  0.3100  0.3269 -0.1489
  423MOL0     C57015  10.791   5.308   1.544 -0.1528  0.2799  0.4415
  423MOL0     C57016  10.668   5.295   1.614 -0.2832  0.4939  0.0348
  423MOL0     O57017  10.648   5.287   2.018  0.1933 -0.0137 -0.2528
  423MOL0     C57018  10.403   5.279   2.152 -0.2718 -0.0312  0.1500
  423MOL0     C57019  10.279   5.296   2.208  0.1456 -0.7686  0.4417
  423MOL0     N57020   9.837   5.663   2.619  0.5118 -0.3559 -1.1096
  423MOL0     N57021   9.813   5.677   2.746  0.1417 -0.2028 -0.0353
  423MOL0     C57022   9.593   5.462   3.488  0.4969 -0.7679 -0.3009
  423MOL0     C57023   9.472   5.515   3.447  0.0646  0.1706  0.2446
  423MOL0     C57024   9.053   5.557   3.310  0.6224  1.1282 -0.6019
  423MOL0     C57025   8.970   5.521   3.412  0.6697  0.4830 -0.5764
  423MOL0     C57026   8.832   5.531   3.405  0.0355  0.0632  0.0304
  423MOL0     C57027   8.773   5.554   3.284  0.5557 -0.1768 -0.1199
  423MOL0     O57028   8.642   5.579   3.255 -0.2043  0.3671  0.0906
  423MOL0     C57029   8.553   5.610   3.355  0.0049 -0.4262  0.9806
  423MOL0     C57030   8.430   5.688   3.302 -0.8461  0.5546 -0.3137
  423MOL0     C57031   8.481   5.823   3.250 -0.5375 -0.0267 -0.1790
  423MOL0     C57032   8.370   5.890   3.165  0.5043  0.5269 -0.1228
  423MOL0     C57033   8.429   6.002   3.090 -0.1674 -0.4055  0.1685
  423MOL0     C57034   8.478   6.096   3.026 -0.1154  0.2231 -0.1522
  423MOL0     C57035   8.858   5.565   3.172  0.2423  0.3636 -0.2672
  423MOL0     C57036   8.992   5.578   3.188 -0.2143 -0.4082  0.0277
  423MOL0     C57037   9.067   5.608   3.064 -0.0143  0.1810  0.6075
  423MOL0     H57038   9.260   5.413   3.689 -1.1540 -1.8842 -0.8538
  423MOL0     H57039   9.473   5.290   3.759  0.6247 -1.6287 -1.2432
  423MOL0     H57040   9.849   5.458   3.603 -1.9399 -1.4943 -1.6053
  423MOL0     H57041   9.913   5.340   3.712 -0.1081  0.1542  1.4579
  423MOL0     H57042   9.876   5.154   3.545 -0.9195  0.3422 -0.7825
  423MOL0     H57043  10.020   5.259   3.544 -0.3580  0.0778  0.8023
  423MOL0     H57044   9.781   5.278   3.352 -0.1147 -0.0409  0.9709
  423MOL0     H57045   9.953   5.225   3.326  1.7989  2.1496 -1.2407
  423MOL0     H57046   9.872   5.503   3.406 -0.2392 -1.6677  0.6838
  423MOL0     H57047  10.033   5.448   3.384  1.2425 -2.0735 -2.5970
  423MOL0     H57048   9.998   5.567   3.200  1.0529 -1.5395 -0.1130
  423MOL0     H57049  10.012   5.400   3.154 -0.4738  0.2478 -1.9937
  423MOL0     H57050   9.753   5.386   3.130 -0.5326 -0.5087  1.9445
  423MOL0     H57051   9.746   5.563   3.159 -0.0328  1.5320 -3.0607
  423MOL0     H57052   9.879   5.450   2.917  0.5970  1.3660 -2.3714
  423MOL0     H57053   9.873   5.625   2.980  1.9841 -0.8790  2.0146
  423MOL0     H57054   9.659   5.437   2.893  2.7696 -1.5658 -3.9476
  423MOL0     H57055   9.619   5.606   2.960 -1.6912  0.7568 -3.1923
  423MOL0     H57056   9.587   5.471   2.614 -2.9777  3.1980 -2.8109
  423MOL0     H57057   9.650   5.513   2.382 -0.5493  1.3238  0.2529
  423MOL0     H57058   9.696   5.675   2.355  0.0771 -0.4151 -1.6758
  423MOL0     H57059   9.861   5.562   2.232 -2.3340 -1.9509 -0.7416
  423MOL0     H57060   9.935   5.625   2.389 -1.2094  1.7767 -0.2942
  423MOL0     H57061   9.839   5.336   2.344 -0.2239  0.5798 -2.7979
  423MOL0     H57062   9.917   5.404   2.488  0.5072  1.2835  0.4295
  423MOL0     H57063  10.086   5.288   2.397 -1.3663  0.2632  0.6736
  423MOL0     H57064  10.125   5.447   2.351 -0.3722  0.4042  0.5571
  423MOL0     H57065  10.092   5.307   1.930  1.5926  1.2962 -2.5008
  423MOL0     H57066  10.306   5.287   1.829  0.1780  0.6779  0.5139
  423MOL0     H57067  10.798   5.130   1.882  4.4848  2.6022  1.1879
  423MOL0     H57068  11.003   5.161   1.755  1.8171  0.5546 -3.5774
  423MOL0     H57069  11.105   5.060   1.540  2.0533 -0.9796 -0.4500
  423MOL0     H57070  11.001   5.104   1.403 -1.1680 -1.0231  1.3399
  423MOL0     H57071  11.215   5.092   1.299  1.6216 -2.7680  1.8850
  423MOL0     H57072  11.195   5.271   1.348 -0.0167  0.7521 -0.9146
  423MOL0     H57073  11.318   5.232   1.552 -2.8490  0.5630 -0.9683
  423MOL0     H57074  11.343   5.061   1.510  0.8379  0.3387  0.8294
  423MOL0     H57075  11.461   5.299   1.356 -0.0913 -1.0045 -0.7146
  423MOL0     H57076  11.462   5.133   1.306 -0.9943 -2.0327  0.5667
  423MOL0     H57077  11.671   5.144   1.417  0.2491  0.4620 -0.1159
  423MOL0     H57078  11.557   5.073   1.540 -2.6228 -0.4477 -1.9573
  423MOL0     H57079  11.671   5.352   1.544  0.5521 -0.0831  0.9686
  423MOL0     H57080  11.523   5.323   1.626 -0.5719 -0.0828 -0.4818
  423MOL0     H57081  11.796   5.229   1.686 -0.0252 -1.7507 -0.0787
  423MOL0     H57082  11.680   5.115   1.731 -1.4062  0.8880 -1.8373
  423MOL0     H57083  11.712   5.399   1.844  0.5828  0.4627 -3.6515
  423MOL0     H57084  11.569   5.285   1.874  0.9907 -1.7801  3.0809
  423MOL0     H57085  10.795   5.357   1.447 -0.0304  0.6253  0.6215
  423MOL0     H57086  10.578   5.342   1.577  0.5507  1.4048 -0.9438
  423MOL0     H57087  10.489   5.272   2.217 -1.9163 -0.1162  2.4453
  423MOL0     H57088  10.281   5.298   2.316  0.4985  0.8721  0.4343
  423MOL0     H57089   9.675   5.475   3.418 -1.0523 -1.4440 -2.3445
  423MOL0     H57090   9.477   5.576   3.357  1.3218  0.3341  0.4038
  423MOL0     H57091   9.015   5.500   3.509  1.2609  3.0214 -0.2229
  423MOL0     H57092   8.781   5.534   3.501 -0.4100  2.0208 -0.2207
  423MOL0     H57093   8.604   5.661   3.437 -0.3506  0.1569  0.8454
  423MOL0     H57094   8.519   5.518   3.402 -2.5000  0.4035  0.9544
  423MOL0     H57095   8.363   5.699   3.387  1.3043 -0.5062  1.6363
  423MOL0     H57096   8.386   5.622   3.227 -1.4981 -0.0939  0.6141
  423MOL0     H57097   8.568   5.804   3.186  0.7611 -0.3555  1.6216
  423MOL0     H57098   8.512   5.882   3.337 -0.3920 -1.2992  0.6542
  423MOL0     H57099   8.301   5.820   3.117 -1.7850  2.4743  0.1824
  423MOL0     H57100   8.306   5.943   3.235  0.1813 -1.4339  1.1391
  423MOL0     H57101   8.516   6.171   2.959  0.4032 -1.2919 -1.6545
  423MOL0     H57102   8.805   5.566   3.077  0.3173 -0.2887 -0.3207
  423MOL0     H57103   9.147   5.682   3.074 -0.3582  0.7975 -0.9560
  423MOL0     H57104   9.124   5.521   3.031  0.0595  0.3560  0.2624
  423MOL0     H57105   9.006   5.657   2.988 -1.4316 -3.0908 -0.4965
  424MOL0     O57106   3.864  10.543   3.917 -0.3063 -0.4179 -0.6229
  424MOL0     C57107   3.783  10.625   3.961 -0.2968  1.1943  0.2720
  424MOL0     O57108   3.824  10.744   4.023 -0.0238  0.2015 -0.2971
  424MOL0     C57109   3.954  10.771   4.016  0.1440 -0.2993  0.3941
  424MOL0     C57110   4.047  10.761   4.121  0.6251  0.3820 -0.5026
  424MOL0     C57111   4.188  10.781   4.096  0.1678  0.1073 -0.8436
  424MOL0     C57112   4.236  10.809   3.971 -0.2413  0.0256 -0.8220
  424MOL0     O57113   4.371  10.826   3.945 -0.2149 -0.0008 -0.3605
  424MOL0     C57114   4.467  10.829   4.052  0.3491  0.2406  0.1095
  424MOL0     C57115   4.608  10.868   3.993  0.6365 -0.3717 -0.3434
  424MOL0     C57116   4.723  10.854   4.104  0.2381  0.2430  0.5904
  424MOL0     C57117   4.815  10.969   4.110 -0.8089 -0.7566  1.2441
  424MOL0     C57118   4.928  10.961   4.007  0.0914 -0.2546  0.1992
  424MOL0     C57119   4.884  10.975   3.864  0.4931 -0.4008  0.7330
  424MOL0     C57120   5.008  10.974   3.775  0.2538 -0.1628  0.1887
  424MOL0     C57121   4.990  10.964   3.620 -0.6009  0.0754 -0.1061
  424MOL0     N57122   4.916  11.078   3.564  0.1218 -0.0315 -0.3549
  424MOL0     C57123   4.967  11.201   3.525 -0.3002 -0.6784 -0.0906
  424MOL0     C57124   4.873  11.262   3.446  0.1659 -0.1926  0.4546
  424MOL0     C57125   4.888  11.404   3.388  0.1023  0.0823  0.4492
  424MOL0     C57126   5.016  11.444   3.297  0.5082 -0.4245 -0.2433
  424MOL0     C57127   4.994  11.394   3.153 -0.1695  0.6123 -0.2710
  424MOL0     C57128   5.102  11.431   3.057  0.2078 -0.5273 -0.2958
  424MOL0     O57129   5.234  11.388   3.101 -0.3417 -0.3385  0.0313
  424MOL0     C57130   5.340  11.476   3.079 -1.6610 -0.0966  0.1246
  424MOL0     C57131   5.434  11.499   3.182 -0.3023  0.4618 -0.0446
  424MOL0     C57132   5.540  11.583   3.164 -0.4043  0.2422  0.0984
  424MOL0     C57133   5.563  11.639   3.038  0.2961  0.4458  0.3616
  424MOL0     C57134   5.684  11.721   3.026  0.0979 -0.0848 -0.3121
  424MOL0     O57135   5.779  11.732   3.131  0.9978  0.3983 -0.3874
  424MOL0     C57136   5.871  11.835   3.134 -1.3179  0.1955 -0.2202
  424MOL0     C57137   6.014  11.808   3.146  0.5974  0.5454 -0.3801
  424MOL0     C57138   6.110  11.900   3.162  0.6272 -0.6531 -1.0570
  424MOL0     C57139   6.059  12.031   3.151  0.8195  0.1199 -0.6981
  424MOL0     O57140   6.127  12.139   3.194  0.4656 -0.2456  0.5215
  424MOL0     C57141   6.207  12.205   3.094  0.2376 -0.4580  0.4940
  424MOL0     C57142   6.355  12.184   3.109 -0.0629  0.9836  0.0321
  424MOL0     C57143   6.418  12.209   3.247  0.4918 -0.1028 -0.3152
  424MOL0     C57144   6.572  12.213   3.253 -0.4750  0.8092  0.9748
  424MOL0     C57145   6.636  12.344   3.224  0.6917 -0.5501  0.7233
  424MOL0     C57146   6.777  12.347   3.283  0.4196  0.3798  0.1027
  424MOL0     C57147   6.832  12.490   3.289 -0.1300  0.9068  0.5700
  424MOL0     C57148   6.980  12.477   3.320 -0.3635  0.4288 -0.6359
  424MOL0    Cl57149   7.063  12.640   3.341  0.0997  0.2150  0.1133
  424MOL0     C57150   5.927  12.070   3.116 -0.9601  1.1721  0.0004
  424MOL0     C57151   5.832  11.961   3.108  0.0645  0.5264  0.1440
  424MOL0     O57152   5.695  11.773   2.921 -0.2049 -0.3494 -0.4296
  424MOL0     C57153   5.471  11.617   2.933 -1.4905  1.1134  0.1135
  424MOL0     C57154   5.359  11.543   2.955 -0.7640  0.2182 -0.0252
  424MOL0     N57155   4.774  11.172   3.427  0.0143  0.0836  0.2963
  424MOL0     N57156   4.790  11.065   3.506  0.0850 -0.3567 -0.5802
  424MOL0     C57157   4.138  10.811   3.870 -0.3447 -0.7001 -0.1630
  424MOL0     C57158   3.998  10.796   3.891 -0.2875  0.3091  0.3281
  424MOL0     C57159   3.638  10.592   3.940 -0.3107 -0.5819 -0.5253
  424MOL0     C57160   3.553  10.704   3.915  1.0004 -0.1664  0.6959
  424MOL0     C57161   3.419  10.683   3.875  0.5720  0.0876 -0.2701
  424MOL0     C57162   3.368  10.555   3.873 -0.0002  0.0161 -0.4988
  424MOL0     O57163   3.239  10.519   3.832  0.3016  0.5600 -0.7828
  424MOL0     C57164   3.135  10.612   3.800 -0.3887  0.0915  0.0678
  424MOL0     C57165   3.077  10.564   3.670  0.7322 -0.0654  0.3301
  424MOL0     C57166   2.943  10.631   3.634 -0.1157 -0.9291  0.4264
  424MOL0     C57167   2.814  10.581   3.709  0.2206 -0.0781  0.6218
  424MOL0     C57168   2.694  10.599   3.620 -0.4836  0.1512 -0.8436
  424MOL0     C57169   2.595  10.609   3.553  0.5739 -0.6480  0.5463
  424MOL0     C57170   3.448  10.448   3.909 -0.3376 -0.2622  0.9981
  424MOL0     C57171   3.581  10.461   3.939  0.6780  0.9987 -0.2669
  424MOL0     C57172   3.668  10.338   3.956  0.3398 -0.3331  0.4052
  424MOL0     H57173   4.000  10.732   4.214 -0.7560 -1.9588 -1.8318
  424MOL0     H57174   4.236  10.776   4.194  0.2633 -0.5922 -0.9190
  424MOL0     H57175   4.424  10.897   4.127 -0.8290  1.3874 -1.5201
  424MOL0     H57176   4.468  10.728   4.094 -0.8278  0.9125  1.8714
  424MOL0     H57177   4.594  10.971   3.960 -2.0558  0.2154  2.1990
  424MOL0     H57178   4.632  10.802   3.909 -1.2729 -1.6353  0.0328
  424MOL0     H57179   4.780  10.763   4.082 -0.8896 -0.2347 -0.4384
  424MOL0     H57180   4.679  10.836   4.202  0.0973 -1.3407  0.2704
  424MOL0     H57181   4.756  11.061   4.101 -0.0645 -0.0200  3.3094
  424MOL0     H57182   4.868  10.974   4.205  0.5045 -1.8829  0.6055
  424MOL0     H57183   5.001  11.040   4.031  0.8317 -0.3837 -1.5141
  424MOL0     H57184   4.973  10.862   4.016  1.8124  0.5204  0.4965
  424MOL0     H57185   4.828  10.884   3.839  1.8529 -0.6945 -1.4921
  424MOL0     H57186   4.818  11.060   3.846 -3.8957 -3.7463 -0.8226
  424MOL0     H57187   5.071  10.893   3.812 -1.4041 -1.0173  1.2798
  424MOL0     H57188   5.055  11.071   3.787 -2.0951  1.4226 -2.1733
  424MOL0     H57189   5.089  10.953   3.575  1.2156  0.6955  3.3813
  424MOL0     H57190   4.933  10.876   3.592 -1.6853  0.0300  2.0596
  424MOL0     H57191   5.052  11.262   3.555  0.2402 -1.8350  0.8303
  424MOL0     H57192   4.798  11.429   3.332 -0.0776  0.4972  0.9097
  424MOL0     H57193   4.887  11.462   3.481  0.1123  0.5973  0.1272
  424MOL0     H57194   5.029  11.552   3.304 -2.8921  0.3598 -3.3769
  424MOL0     H57195   5.103  11.392   3.339  1.2781  0.9573 -0.0880
  424MOL0     H57196   4.901  11.445   3.124 -0.9004 -1.0667 -0.9663
  424MOL0     H57197   4.972  11.288   3.145  2.0996 -0.2118  2.5515
  424MOL0     H57198   5.106  11.536   3.027 -2.0664 -0.8244 -1.8221
  424MOL0     H57199   5.077  11.371   2.969  0.1342 -0.0970 -0.5720
  424MOL0     H57200   5.417  11.456   3.280 -1.0188  0.9154  0.0409
  424MOL0     H57201   5.608  11.597   3.248  0.6780  2.2213 -1.0171
  424MOL0     H57202   6.038  11.702   3.143 -0.1191  0.3572  0.2412
  424MOL0     H57203   6.215  11.898   3.189  0.0835  0.2150  1.3297
  424MOL0     H57204   6.186  12.166   2.995  5.3987 -0.8603 -0.7621
  424MOL0     H57205   6.175  12.309   3.088 -1.1443 -0.9719 -3.0751
  424MOL0     H57206   6.383  12.092   3.057 -0.0145  1.9341 -1.7065
  424MOL0     H57207   6.404  12.252   3.038  0.9883 -2.0665 -2.4233
  424MOL0     H57208   6.382  12.307   3.279  1.0294  0.4621 -1.3678
  424MOL0     H57209   6.385  12.133   3.317  1.1849  0.4704  0.6652
  424MOL0     H57210   6.614  12.141   3.182  0.6504 -0.1786  2.5712
  424MOL0     H57211   6.613  12.177   3.348  1.3453 -1.1623 -0.4430
  424MOL0     H57212   6.579  12.429   3.265 -1.1169  0.0826 -2.7297
  424MOL0     H57213   6.633  12.371   3.118  0.2985  4.2097  1.7307
  424MOL0     H57214   6.774  12.305   3.384  1.0211  3.0029  1.2998
  424MOL0     H57215   6.838  12.279   3.223 -0.8949 -0.7878  0.0335
  424MOL0     H57216   6.775  12.550   3.360 -0.9735 -0.4156  1.0436
  424MOL0     H57217   6.827  12.540   3.191  2.7622  1.4736  0.6367
  424MOL0     H57218   6.997  12.424   3.414 -3.3513  2.3785  1.1928
  424MOL0     H57219   7.028  12.421   3.239  0.5802 -1.3017  1.0443
  424MOL0     H57220   5.901  12.175   3.122 -3.0953  0.6184  2.8457
  424MOL0     H57221   5.729  11.989   3.089  0.3606  1.6719  0.1871
  424MOL0     H57222   5.474  11.665   2.836 -2.4964  2.1964  0.5847
  424MOL0     H57223   5.293  11.522   2.871 -1.3305 -2.0874  0.9315
  424MOL0     H57224   4.158  10.820   3.764 -1.3057  0.0808 -0.3009
  424MOL0     H57225   3.926  10.816   3.812  0.1586  0.0386 -0.1476
  424MOL0     H57226   3.577  10.810   3.920 -1.2644  0.4239  0.3179
  424MOL0     H57227   3.354  10.765   3.849 -0.4736  0.1016  2.1580
  424MOL0     H57228   3.164  10.717   3.792 -0.4136  0.0670 -0.3453
  424MOL0     H57229   3.061  10.609   3.880 -1.6913 -0.0472 -1.1167
  424MOL0     H57230   3.050  10.459   3.686  0.6897  0.0023  0.7087
  424MOL0     H57231   3.145  10.581   3.586  0.5496  0.6232  0.3213
  424MOL0     H57232   2.939  10.611   3.526  0.8646 -3.4402  0.7973
  424MOL0     H57233   2.946  10.739   3.648 -2.1916 -0.7080 -0.3799
  424MOL0     H57234   2.812  10.478   3.744  1.8629 -0.4683 -0.3112
  424MOL0     H57235   2.795  10.632   3.805  1.0419 -1.5352  1.5957
  424MOL0     H57236   2.499  10.615   3.506  0.0094  0.2854  1.7623
  424MOL0     H57237   3.404  10.350   3.895  1.5577 -0.8688 -1.4688
  424MOL0     H57238   3.612  10.262   4.012  1.4897 -0.1008  1.9514
  424MOL0     H57239   3.713  10.310   3.861  0.9696 -1.1920  0.9383
  424MOL0     H57240   3.750  10.359   4.026  0.3050 -0.2788  0.4296
  425MOL0     O57241   0.382   9.969   0.489  0.5694  0.4596 -0.6772
  425MOL0     C57242   0.469   9.913   0.558 -0.2721 -0.0256 -0.2257
  425MOL0     O57243   0.481   9.784   0.589  0.0026  0.0989 -0.3894
  425MOL0     C57244   0.392   9.680   0.557 -1.1072  0.2232  0.3752
  425MOL0     C57245   0.439   9.542   0.555  0.7605  0.5919 -0.0163
  425MOL0     C57246   0.347   9.438   0.532  0.9100  1.2441  0.1909
  425MOL0     C57247   0.212   9.463   0.499 -0.2611  0.9489 -0.9428
  425MOL0     O57248   0.113   9.371   0.475  0.1631  0.0645  0.0468
  425MOL0     C57249   0.156   9.231   0.457  0.1466 -0.2999 -0.5192
  425MOL0     C57250   0.025   9.144   0.445  0.6139 -0.5625 -0.5698
  425MOL0     C57251  -0.073   9.193   0.342 -0.1645  0.4979  0.4888
  425MOL0     C57252  -0.214   9.134   0.357 -0.7892 -0.6330 -0.0225
  425MOL0     C57253  -0.306   9.167   0.243  0.3169 -0.8469  0.6586
  425MOL0     C57254  -0.303   9.060   0.134 -0.5765  0.1671  0.0420
  425MOL0     C57255  -0.406   9.093   0.017 -0.8365  0.1874  0.2341
  425MOL0     C57256  -0.428   8.962  -0.068  0.1794 -1.0309 -0.0461
  425MOL0     N57257  -0.302   8.914  -0.132 -0.1987 -0.1409 -0.8961
  425MOL0     C57258  -0.252   8.788  -0.095  0.1854  0.7065  0.4144
  425MOL0     C57259  -0.150   8.772  -0.187  0.3456 -0.6989 -0.4405
  425MOL0     C57260  -0.050   8.659  -0.194 -0.6147 -0.9554  0.7037
  425MOL0     C57261  -0.031   8.565  -0.072  0.0010 -0.8539  0.8396
  425MOL0     C57262   0.078   8.456  -0.097 -0.4097  0.0663 -0.6935
  425MOL0     C57263   0.216   8.501  -0.138 -0.4676 -0.1618 -0.0577
  425MOL0     O57264   0.282   8.578  -0.034 -0.2182  0.2529 -0.0999
  425MOL0     C57265   0.419   8.570  -0.037  0.0090 -0.8390 -0.0616
  425MOL0     C57266   0.496   8.539  -0.148 -0.0905 -0.5411 -0.8159
  425MOL0     C57267   0.640   8.544  -0.146 -0.8486 -0.1766  0.6671
  425MOL0     C57268   0.704   8.588  -0.026  0.3123 -1.1221  0.0274
  425MOL0     C57269   0.850   8.590  -0.000  0.3829  0.0029  0.2464
  425MOL0     O57270   0.891   8.621   0.129  0.8445  0.3505 -1.0683
  425MOL0     C57271   1.021   8.619   0.164  0.0997  0.0838  0.1472
  425MOL0     C57272   1.101   8.737   0.160 -0.0662  0.4321  0.3359
  425MOL0     C57273   1.229   8.726   0.208 -0.0067  0.2953 -0.9404
  425MOL0     C57274   1.284   8.609   0.266  0.7299  0.3174  0.0831
  425MOL0     O57275   1.417   8.591   0.317  1.1786 -0.1475 -0.9443
  425MOL0     C57276   1.509   8.692   0.270  0.3427 -0.5628 -0.0325
  425MOL0     C57277   1.647   8.647   0.327  0.6108 -0.2580 -0.9270
  425MOL0     C57278   1.754   8.757   0.307  0.7625  0.5002  0.4458
  425MOL0     C57279   1.865   8.688   0.228 -0.6921 -0.8753  0.1908
  425MOL0     C57280   1.997   8.762   0.235  0.0995 -0.2323 -0.4892
  425MOL0     C57281   2.105   8.673   0.177 -0.3988 -0.2909 -0.3330
  425MOL0     C57282   2.235   8.752   0.198 -0.2999  0.0880 -0.0950
  425MOL0     C57283   2.338   8.698   0.097 -0.2520 -0.2921  0.2282
  425MOL0    Cl57284   2.496   8.785   0.126 -0.0329 -0.3572 -0.7321
  425MOL0     C57285   1.194   8.504   0.288 -0.0691 -0.3816  0.4716
  425MOL0     C57286   1.065   8.503   0.226 -0.2733  0.4594 -0.7556
  425MOL0     O57287   0.927   8.556  -0.089 -0.0196  0.5121 -0.8180
  425MOL0     C57288   0.616   8.627   0.081  0.1230  0.4448 -0.7014
  425MOL0     C57289   0.475   8.624   0.070 -1.4336  0.5097 -0.5144
  425MOL0     N57290  -0.148   8.881  -0.275 -0.2358  0.0394 -0.8381
  425MOL0     N57291  -0.236   8.961  -0.231 -0.7454  0.2326 -0.4051
  425MOL0     C57292   0.174   9.596   0.513 -0.0338 -0.2867 -0.5700
  425MOL0     C57293   0.259   9.705   0.534 -0.7959  0.9198  0.7186
  425MOL0     C57294   0.583  10.007   0.587 -0.1906  0.2332  0.3841
  425MOL0     C57295   0.715   9.968   0.563  1.0201 -0.0662 -0.6863
  425MOL0     C57296   0.820  10.042   0.601  0.2425 -0.2087  0.2857
  425MOL0     C57297   0.797  10.170   0.644 -0.3954 -0.5437  0.9342
  425MOL0     O57298   0.898  10.258   0.670 -0.5295  0.1063 -0.4003
  425MOL0     C57299   1.021  10.214   0.716  0.0269  0.3417 -0.4194
  425MOL0     C57300   1.090  10.321   0.805 -0.8603  0.7000 -1.4038
  425MOL0     C57301   0.990  10.375   0.906 -0.8622 -0.0491 -0.6005
  425MOL0     C57302   1.037  10.403   1.053  0.8566  0.4160  0.2049
  425MOL0     C57303   1.069  10.279   1.126  0.5976 -0.1654  0.4975
  425MOL0     C57304   1.081  10.172   1.183 -0.5257  0.0255  0.3717
  425MOL0     C57305   0.663  10.219   0.670 -0.3557 -0.0179 -0.0782
  425MOL0     C57306   0.554  10.137   0.646 -1.3614  1.5043  0.0598
  425MOL0     C57307   0.416  10.184   0.693  0.5178  0.7041 -0.3965
  425MOL0     H57308   0.542   9.514   0.571  0.2274 -2.6794 -1.4136
  425MOL0     H57309   0.379   9.335   0.543 -2.3303 -0.4329 -3.5049
  425MOL0     H57310   0.208   9.229   0.361 -0.6424 -0.2488 -0.9630
  425MOL0     H57311   0.221   9.200   0.539  1.6493  1.9800 -0.7575
  425MOL0     H57312  -0.023   9.147   0.543 -0.9680  0.1265 -1.3238
  425MOL0     H57313   0.043   9.037   0.433  0.5666 -1.0191  2.5510
  425MOL0     H57314  -0.033   9.169   0.243 -1.1914  0.7110  0.0014
  425MOL0     H57315  -0.085   9.302   0.342 -3.1548  0.3094 -1.7118
  425MOL0     H57316  -0.196   9.026   0.365 -1.4593 -0.8087 -0.8282
  425MOL0     H57317  -0.257   9.174   0.450  0.1320  2.6184 -0.8763
  425MOL0     H57318  -0.410   9.177   0.275  0.5723  3.0261  0.8094
  425MOL0     H57319  -0.294   9.266   0.198 -0.0672 -0.7361  0.7999
  425MOL0     H57320  -0.199   9.034   0.109 -0.0728  0.4947  1.6679
  425MOL0     H57321  -0.334   8.964   0.177 -0.2282  0.0971  0.1469
  425MOL0     H57322  -0.355   9.169  -0.043 -1.4331 -0.7243 -1.5035
  425MOL0     H57323  -0.497   9.134   0.062 -0.5471 -0.0379  1.0526
  425MOL0     H57324  -0.468   8.889   0.004 -1.3747  1.4661  1.8104
  425MOL0     H57325  -0.511   8.966  -0.139  0.0591 -0.0264  0.1399
  425MOL0     H57326  -0.286   8.719  -0.018  1.6713 -0.2835  0.2340
  425MOL0     H57327  -0.088   8.589  -0.269  0.1511 -1.0915  0.4423
  425MOL0     H57328   0.047   8.704  -0.218 -1.5062  1.1266  0.7735
  425MOL0     H57329  -0.013   8.640   0.006  0.5375  0.3221 -0.3631
  425MOL0     H57330  -0.123   8.519  -0.037 -0.9297  0.7507  0.6089
  425MOL0     H57331   0.050   8.391  -0.180 -1.8156 -0.9717  0.5644
  425MOL0     H57332   0.093   8.389  -0.012  1.1155  0.5024 -0.5766
  425MOL0     H57333   0.204   8.559  -0.230  1.8995 -1.0633 -1.0166
  425MOL0     H57334   0.277   8.414  -0.165  1.1301  1.5747 -2.5168
  425MOL0     H57335   0.459   8.504  -0.244  2.4294  1.1607 -2.5317
  425MOL0     H57336   0.700   8.501  -0.226  0.8872  2.9648  0.0943
  425MOL0     H57337   1.080   8.830   0.107  2.4427  1.6290  1.2731
  425MOL0     H57338   1.293   8.813   0.195  2.0405 -1.1421 -0.9584
  425MOL0     H57339   1.508   8.700   0.161  0.3505  2.2318  0.1106
  425MOL0     H57340   1.491   8.787   0.321 -1.8959 -0.5786 -0.6921
  425MOL0     H57341   1.627   8.639   0.434  2.8801  0.1566 -0.4223
  425MOL0     H57342   1.669   8.546   0.291  0.0331 -1.5803  2.1477
  425MOL0     H57343   1.708   8.841   0.254 -1.8429  0.1012  1.8459
  425MOL0     H57344   1.795   8.793   0.402  1.7032 -1.3778  0.7834
  425MOL0     H57345   1.841   8.672   0.122  3.8196  0.6139 -1.2565
  425MOL0     H57346   1.880   8.588   0.271  1.6599  0.4976  2.8199
  425MOL0     H57347   2.021   8.789   0.338  1.8040 -0.6843 -0.7321
  425MOL0     H57348   1.995   8.854   0.176 -0.6083 -0.0693 -0.2234
  425MOL0     H57349   2.100   8.577   0.228 -0.7520 -1.0439 -1.7294
  425MOL0     H57350   2.085   8.662   0.070  1.0661  1.1287 -0.7948
  425MOL0     H57351   2.277   8.728   0.296  0.5339 -1.9612 -0.9117
  425MOL0     H57352   2.227   8.861   0.184 -1.5112 -0.3352 -3.9705
  425MOL0     H57353   2.349   8.593   0.124  2.8655  0.4071  2.2765
  425MOL0     H57354   2.283   8.711   0.004 -2.8536 -2.4105  1.3555
  425MOL0     H57355   1.230   8.417   0.342 -1.1366  0.1882  2.1666
  425MOL0     H57356   1.001   8.416   0.236  0.5814 -0.3142 -1.7509
  425MOL0     H57357   0.661   8.655   0.176 -1.1237  1.6372 -0.4326
  425MOL0     H57358   0.415   8.638   0.159  0.5230 -0.2521  0.9879
  425MOL0     H57359   0.066   9.607   0.504 -0.1556 -1.1808 -0.2836
  425MOL0     H57360   0.211   9.802   0.533  0.6507  1.6456  0.2785
  425MOL0     H57361   0.732   9.864   0.537 -0.6971 -0.2466 -1.1892
  425MOL0     H57362   0.921  10.002   0.605 -0.0568 -0.8767  1.5364
  425MOL0     H57363   1.094  10.190   0.638  0.2972 -2.0679  0.4979
  425MOL0     H57364   1.004  10.125   0.778  0.7120  1.4854  1.4914
  425MOL0     H57365   1.125  10.403   0.742 -1.7345  1.2292 -1.2267
  425MOL0     H57366   1.177  10.270   0.848 -1.7182 -0.7603 -1.3304
  425MOL0     H57367   0.896  10.319   0.911 -0.5430 -0.5749 -0.4667
  425MOL0     H57368   0.968  10.474   0.865  0.0288  0.1586 -0.5977
  425MOL0     H57369   1.122  10.472   1.048  1.5924 -0.5385 -1.6269
  425MOL0     H57370   0.952  10.452   1.100  0.4208  2.2097 -2.2400
  425MOL0     H57371   1.097  10.075   1.225 -0.6251  0.3207  1.1054
  425MOL0     H57372   0.650  10.321   0.705  1.8045  0.2455  0.1501
  425MOL0     H57373   0.423  10.277   0.751  1.4045  0.6239 -0.3622
  425MOL0     H57374   0.350  10.203   0.609 -1.3431  0.0672  0.8530
  425MOL0     H57375   0.370  10.103   0.750  2.6102 -1.5098 -1.6642
  426MOL0     O57376   3.448   9.198   6.870  0.0722  0.3885 -0.0208
  426MOL0     C57377   3.380   9.146   6.776 -0.1027  0.2758  0.8904
  426MOL0     O57378   3.420   9.048   6.695 -0.0098  0.2580 -0.3875
  426MOL0     C57379   3.549   9.003   6.712 -0.0240  0.4825 -0.3239
  426MOL0     C57380   3.657   9.067   6.650  0.3457 -0.8662 -0.3667
  426MOL0     C57381   3.790   9.027   6.659  0.1923  0.6119  0.0916
  426MOL0     C57382   3.812   8.909   6.725  0.2348  0.3296  0.9549
  426MOL0     O57383   3.949   8.876   6.735  0.1719  0.0539  0.0409
  426MOL0     C57384   3.970   8.738   6.773  0.0207  0.1841  0.4514
  426MOL0     C57385   4.119   8.699   6.744  0.0317  0.0569  0.2556
  426MOL0     C57386   4.218   8.774   6.846  0.3865  0.5687  0.6833
  426MOL0     C57387   4.336   8.682   6.891  0.2803  0.0316  0.0179
  426MOL0     C57388   4.453   8.758   6.957  0.1293  0.5836 -0.3208
  426MOL0     C57389   4.437   8.755   7.112  0.3706 -0.5062 -0.1705
  426MOL0     C57390   4.569   8.798   7.176 -0.0822 -0.3384 -0.2108
  426MOL0     C57391   4.548   8.839   7.320  0.2517 -0.7400 -0.0570
  426MOL0     N57392   4.689   8.867   7.372  1.2669  0.0945  0.4228
  426MOL0     C57393   4.750   8.985   7.366 -0.5936 -0.0673  0.4167
  426MOL0     C57394   4.868   8.968   7.424  0.8303  0.2029  1.0629
  426MOL0     C57395   4.970   9.069   7.449 -0.2465  0.2374 -0.1012
  426MOL0     C57396   4.964   9.127   7.590 -0.1748 -0.2926  0.7891
  426MOL0     C57397   4.835   9.213   7.616  0.1933  0.3739  0.9381
  426MOL0     C57398   4.838   9.362   7.583 -0.6140 -0.5790 -0.0367
  426MOL0     O57399   4.953   9.422   7.643  0.1079 -0.6986 -0.5548
  426MOL0     C57400   5.021   9.514   7.565 -0.0819 -0.4761 -0.0527
  426MOL0     C57401   4.951   9.618   7.505 -0.5524  0.1085 -0.1285
  426MOL0     C57402   5.030   9.699   7.419 -0.0956 -1.3960  0.2785
  426MOL0     C57403   5.177   9.683   7.397  0.4049 -0.0773 -0.2085
  426MOL0     C57404   5.254   9.754   7.302 -0.3572 -0.5324 -0.2728
  426MOL0     O57405   5.390   9.719   7.287  0.0415  0.3134  0.0115
  426MOL0     C57406   5.474   9.789   7.200  0.2492 -0.0051 -0.3364
  426MOL0     C57407   5.530   9.920   7.230 -0.9781  0.8193  0.2749
  426MOL0     C57408   5.637   9.967   7.148  0.8176 -0.7314  0.2543
  426MOL0     C57409   5.688   9.904   7.036  0.1817  0.1091 -0.4726
  426MOL0     O57410   5.763   9.971   6.942 -0.3967 -0.5454 -0.1252
  426MOL0     C57411   5.858  10.068   6.988 -0.1359 -0.4222 -0.3479
  426MOL0     C57412   5.976  10.067   6.888 -0.8566 -0.1289 -0.1228
  426MOL0     C57413   6.078  10.182   6.912 -0.0499  0.0634  0.0631
  426MOL0     C57414   6.183  10.202   6.805 -0.6076  0.1612 -0.7562
  426MOL0     C57415   6.290  10.296   6.856 -0.3247 -0.2816 -0.0919
  426MOL0     C57416   6.396  10.324   6.759  0.4871 -0.5551  0.5541
  426MOL0     C57417   6.490  10.204   6.723  0.2964  0.1603 -0.1248
  426MOL0     C57418   6.631  10.254   6.672 -0.7395 -0.3651  0.5495
  426MOL0    Cl57419   6.601  10.349   6.519  0.1258 -0.4859 -0.2851
  426MOL0     C57420   5.633   9.776   7.009 -0.0778 -0.1697  0.0835
  426MOL0     C57421   5.527   9.727   7.090 -0.3033  0.3192 -0.3715
  426MOL0     O57422   5.203   9.851   7.244  0.3563 -0.2801 -0.3577
  426MOL0     C57423   5.240   9.587   7.480  0.5140  0.8669  0.5274
  426MOL0     C57424   5.158   9.496   7.550  0.1645 -0.1979  0.0933
  426MOL0     N57425   4.886   8.830   7.454  0.2664  0.0828 -0.6359
  426MOL0     N57426   4.778   8.775   7.418 -0.0286 -0.0094  0.1461
  426MOL0     C57427   3.707   8.826   6.771  0.0830 -0.1132  0.3005
  426MOL0     C57428   3.579   8.873   6.767 -0.2512  0.1690  0.7297
  426MOL0     C57429   3.247   9.197   6.727 -0.7707  0.2809 -0.1083
  426MOL0     C57430   3.193   9.150   6.603 -0.3130  0.4386  0.2970
  426MOL0     C57431   3.072   9.202   6.553 -0.3637  0.4310 -0.3992
  426MOL0     C57432   2.996   9.298   6.627 -0.8387 -0.0989 -0.2838
  426MOL0     O57433   2.874   9.347   6.596  0.6838  0.1199  0.4268
  426MOL0     C57434   2.818   9.299   6.466 -0.9684  0.1419  0.1706
  426MOL0     C57435   2.717   9.398   6.428 -0.2354 -0.5029 -0.8940
  426MOL0     C57436   2.589   9.382   6.520 -0.3281 -0.1612  1.0570
  426MOL0     C57437   2.488   9.503   6.492  0.7724 -0.0928  0.5255
  426MOL0     C57438   2.422   9.494   6.359  0.6017 -0.3035 -0.3918
  426MOL0     C57439   2.386   9.498   6.244 -0.0508  0.0399  0.3166
  426MOL0     C57440   3.046   9.346   6.748  0.0996 -0.5976  0.4914
  426MOL0     C57441   3.168   9.293   6.801  0.5952 -0.3791  0.9386
  426MOL0     C57442   3.207   9.347   6.938 -0.0455 -0.0152  0.7427
  426MOL0     H57443   3.645   9.163   6.603 -0.4540 -1.1514 -0.7579
  426MOL0     H57444   3.875   9.088   6.629  0.3848 -0.8721 -2.7407
  426MOL0     H57445   3.962   8.717   6.880  0.2282  1.6764  0.7689
  426MOL0     H57446   3.910   8.670   6.711 -0.6669  2.7077 -1.8276
  426MOL0     H57447   4.150   8.728   6.643 -1.2621 -0.5213 -0.3325
  426MOL0     H57448   4.129   8.592   6.764 -0.8918  0.3165  2.2838
  426MOL0     H57449   4.152   8.811   6.925 -2.9582  1.1167 -2.1264
  426MOL0     H57450   4.254   8.868   6.802 -0.8958  0.3271 -0.9763
  426MOL0     H57451   4.301   8.608   6.964  3.8173 -1.0452  0.8086
  426MOL0     H57452   4.376   8.620   6.810 -1.0108 -0.3655 -0.3405
  426MOL0     H57453   4.548   8.709   6.935  0.2395  0.6711 -0.0469
  426MOL0     H57454   4.460   8.864   6.928 -2.1106  1.3919  1.7468
  426MOL0     H57455   4.362   8.825   7.149 -0.3256 -1.5052  0.3333
  426MOL0     H57456   4.410   8.654   7.144  1.4999 -2.0602 -3.7002
  426MOL0     H57457   4.622   8.884   7.133  1.9095  1.1929  4.5857
  426MOL0     H57458   4.638   8.713   7.178  0.1647 -0.1457 -0.4297
  426MOL0     H57459   4.478   8.921   7.336 -0.0471 -0.5610 -2.0368
  426MOL0     H57460   4.513   8.753   7.379  2.2880  0.5592  3.3541
  426MOL0     H57461   4.708   9.071   7.316  1.4115 -0.1824 -1.6462
  426MOL0     H57462   5.072   9.032   7.439  0.2325  1.9794 -2.7286
  426MOL0     H57463   4.956   9.145   7.371 -2.2077 -0.9286 -0.9576
  426MOL0     H57464   4.954   9.040   7.655  0.0399 -1.7885 -1.0973
  426MOL0     H57465   5.057   9.181   7.612 -0.7918  0.7046  1.0094
  426MOL0     H57466   4.807   9.206   7.721  0.9768 -0.2511  1.1153
  426MOL0     H57467   4.755   9.164   7.559  0.5564  0.1415  0.6234
  426MOL0     H57468   4.748   9.408   7.625  0.2995  2.8001 -1.4252
  426MOL0     H57469   4.835   9.369   7.473  2.0978 -2.2015 -0.3108
  426MOL0     H57470   4.847   9.637   7.530 -0.1985  1.2585  0.5646
  426MOL0     H57471   4.980   9.773   7.357  2.0307  0.2961  0.4454
  426MOL0     H57472   5.494   9.977   7.315 -0.7331  4.2503 -1.7188
  426MOL0     H57473   5.674  10.065   7.177  1.2014 -0.8906  0.3108
  426MOL0     H57474   5.809  10.166   6.997  1.4867  0.3215  0.7159
  426MOL0     H57475   5.903  10.042   7.084  1.1195 -1.7317 -1.2534
  426MOL0     H57476   6.035   9.975   6.882  2.7340  2.0303 -0.4219
  426MOL0     H57477   5.934  10.079   6.788 -1.5345 -1.5906 -0.0399
  426MOL0     H57478   6.019  10.272   6.933 -0.0436 -0.0368  0.5162
  426MOL0     H57479   6.128  10.158   7.006 -1.7917 -0.5521  0.8807
  426MOL0     H57480   6.128  10.252   6.725  0.5174 -1.3552 -2.5617
  426MOL0     H57481   6.228  10.107   6.775 -1.8721 -0.2801 -1.2746
  426MOL0     H57482   6.330  10.270   6.955  2.4522  2.3715 -0.3564
  426MOL0     H57483   6.246  10.395   6.872  3.1802  1.6287 -1.2320
  426MOL0     H57484   6.362  10.364   6.664 -1.2865 -5.5897 -1.2956
  426MOL0     H57485   6.450  10.408   6.802  0.1570  2.3408 -4.0000
  426MOL0     H57486   6.449  10.144   6.642 -1.2808  2.1315 -0.8830
  426MOL0     H57487   6.494  10.143   6.814  0.3883  1.2120  0.5926
  426MOL0     H57488   6.681  10.317   6.746  2.8120 -1.0662 -1.0849
  426MOL0     H57489   6.703  10.177   6.645  1.3615  1.3048  1.0948
  426MOL0     H57490   5.676   9.727   6.922 -0.6524  0.4170 -0.5379
  426MOL0     H57491   5.502   9.621   7.080 -0.7567  0.3558  0.3249
  426MOL0     H57492   5.343   9.560   7.460  0.1561 -1.1162  1.1760
  426MOL0     H57493   5.216   9.418   7.600  1.0922  0.7107  0.4656
  426MOL0     H57494   3.728   8.736   6.828  0.4345 -0.7287 -0.7785
  426MOL0     H57495   3.496   8.811   6.800 -1.9413  0.4293 -2.5926
  426MOL0     H57496   3.248   9.082   6.539 -1.4174  0.9567 -1.2618
  426MOL0     H57497   3.033   9.144   6.469  3.2160 -0.3482 -1.7279
  426MOL0     H57498   2.780   9.196   6.470 -0.8537  0.0050 -1.5989
  426MOL0     H57499   2.891   9.307   6.386  0.4841  1.0221  1.5306
  426MOL0     H57500   2.681   9.382   6.326 -3.5594  2.2069 -0.3410
  426MOL0     H57501   2.762   9.498   6.429  0.7834 -0.9484 -0.6811
  426MOL0     H57502   2.621   9.381   6.624  1.3425 -0.5514  0.5712
  426MOL0     H57503   2.541   9.288   6.493  2.0186 -0.2654 -3.7768
  426MOL0     H57504   2.411   9.500   6.570 -1.9896 -1.1093 -2.0535
  426MOL0     H57505   2.531   9.604   6.496 -2.3745  1.4851 -1.2706
  426MOL0     H57506   2.358   9.504   6.140  3.2293 -0.6887 -0.7388
  426MOL0     H57507   2.986   9.423   6.796 -0.0474 -0.8735  0.7455
  426MOL0     H57508   3.218   9.265   7.008  0.0296 -0.3453  0.3469
  426MOL0     H57509   3.303   9.399   6.937  0.9120 -1.7369 -0.6167
  426MOL0     H57510   3.131   9.422   6.964 -0.3235 -0.8304  2.3900
  427MOL0     O57511   0.904   9.493   0.853  0.8967  0.3696  0.5068
  427MOL0     C57512   0.858   9.389   0.802  0.8863  0.2903 -0.0242
  427MOL0     O57513   0.938   9.281   0.754  0.3794 -1.4708  0.0312
  427MOL0     C57514   1.075   9.297   0.767 -0.6785 -0.2109 -0.3106
  427MOL0     C57515   1.145   9.277   0.887  0.4776  0.2526  0.5949
  427MOL0     C57516   1.279   9.311   0.893  0.0904  0.3886  0.4058
  427MOL0     C57517   1.352   9.328   0.777  0.0509 -0.0661  0.1902
  427MOL0     O57518   1.488   9.320   0.785  0.0133 -0.1423 -1.1999
  427MOL0     C57519   1.566   9.408   0.708  0.4009 -0.0704 -0.6838
  427MOL0     C57520   1.707   9.420   0.776 -0.0356  0.1849 -0.8555
  427MOL0     C57521   1.803   9.307   0.762  0.6014 -0.7418  0.5053
  427MOL0     C57522   1.950   9.322   0.816 -0.5908  0.0737 -0.0596
  427MOL0     C57523   2.021   9.428   0.738 -1.3877  0.2269 -0.0327
  427MOL0     C57524   2.174   9.412   0.774 -0.1539 -0.2333  0.0315
  427MOL0     C57525   2.272   9.513   0.703  1.1360 -0.5459 -0.0271
  427MOL0     C57526   2.416   9.485   0.744 -0.1779  0.3922 -0.3528
  427MOL0     N57527   2.512   9.552   0.655  0.5611 -0.3148 -0.5560
  427MOL0     C57528   2.593   9.486   0.565  1.0215 -0.2756  0.1344
  427MOL0     C57529   2.667   9.591   0.515 -0.0571  0.2135 -0.3069
  427MOL0     C57530   2.758   9.575   0.391 -0.0725  0.3327 -0.4130
  427MOL0     C57531   2.906   9.558   0.432  0.2696 -0.0639  0.3419
  427MOL0     C57532   2.977   9.527   0.301  0.0169 -0.4648 -0.2242
  427MOL0     C57533   3.130   9.535   0.300 -0.5566  0.5170  0.4416
  427MOL0     O57534   3.177   9.434   0.388  0.3290 -0.5911 -0.4949
  427MOL0     C57535   3.315   9.422   0.396 -0.0588 -0.3968 -0.0929
  427MOL0     C57536   3.375   9.339   0.486 -0.0136 -0.8940 -0.3850
  427MOL0     C57537   3.515   9.315   0.486 -0.6184 -0.1228 -0.1339
  427MOL0     C57538   3.598   9.375   0.391 -1.3423 -0.1401  0.2278
  427MOL0     C57539   3.744   9.361   0.397  0.5313  0.4233  0.6059
  427MOL0     O57540   3.805   9.319   0.518 -0.4552  0.6225  0.9199
  427MOL0     C57541   3.937   9.315   0.506 -0.3135  0.4908  0.1339
  427MOL0     C57542   4.007   9.207   0.440  1.1181 -0.1627  0.1089
  427MOL0     C57543   4.146   9.203   0.439  0.0292  0.6208  0.2407
  427MOL0     C57544   4.210   9.304   0.506 -0.0528  0.2489  0.0286
  427MOL0     O57545   4.345   9.291   0.503 -0.9145  0.2390 -0.2529
  427MOL0     C57546   4.425   9.390   0.573 -0.7464 -0.0119  0.1624
  427MOL0     C57547   4.573   9.349   0.564  0.9006  0.2693 -0.2372
  427MOL0     C57548   4.660   9.428   0.650 -0.4366 -0.0815 -0.3730
  427MOL0     C57549   4.800   9.376   0.646  0.7568 -0.0060 -0.5394
  427MOL0     C57550   4.872   9.426   0.767  0.0122 -0.0351 -0.4569
  427MOL0     C57551   5.013   9.368   0.786 -0.2035 -0.1027  0.4545
  427MOL0     C57552   5.095   9.438   0.891 -0.8887 -0.0154  0.4997
  427MOL0     C57553   5.240   9.366   0.905 -0.4551 -1.0536  0.6107
  427MOL0    Cl57554   5.375   9.473   0.973  0.0843 -0.0687 -0.5962
  427MOL0     C57555   4.145   9.419   0.553  0.8272  0.6032  0.0460
  427MOL0     C57556   4.006   9.431   0.543  1.5748  0.1288  0.5951
  427MOL0     O57557   3.805   9.390   0.289  0.5439  0.3557 -0.1140
  427MOL0     C57558   3.544   9.452   0.292 -0.2772  0.3356 -0.2209
  427MOL0     C57559   3.406   9.475   0.297  0.0670  0.5062  0.2670
  427MOL0     N57560   2.638   9.706   0.584  0.0500  0.5950  0.9744
  427MOL0     N57561   2.557   9.679   0.682  0.0191 -0.6505  0.5813
  427MOL0     C57562   1.286   9.318   0.650  0.3549  0.7920 -0.2639
  427MOL0     C57563   1.149   9.305   0.649  0.2080  0.2548 -0.9496
  427MOL0     C57564   0.711   9.360   0.804 -0.8356  0.7317 -0.9718
  427MOL0     C57565   0.670   9.228   0.783 -0.7314 -0.8502  0.0340
  427MOL0     C57566   0.531   9.190   0.784 -0.1776 -0.7203 -0.2414
  427MOL0     C57567   0.437   9.291   0.808  0.1352 -0.7854 -0.6692
  427MOL0     O57568   0.298   9.256   0.788  0.4919 -0.4370 -0.3277
  427MOL0     C57569   0.192   9.357   0.827 -0.4811  0.4900 -0.3430
  427MOL0     C57570   0.050   9.295   0.814  0.2538 -0.4593  0.7151
  427MOL0     C57571  -0.072   9.378   0.867 -0.4452 -0.2026  1.1286
  427MOL0     C57572  -0.182   9.286   0.908 -0.1614  0.0826 -0.6052
  427MOL0     C57573  -0.299   9.360   0.954  0.3306  0.0060  0.6090
  427MOL0     C57574  -0.392   9.429   0.998 -1.2265  0.5223 -0.2129
  427MOL0     C57575   0.481   9.420   0.837 -0.1066 -0.1667  0.3794
  427MOL0     C57576   0.615   9.462   0.841 -0.3958  0.3439  0.1062
  427MOL0     C57577   0.638   9.606   0.876 -0.5601 -0.1158  0.0107
  427MOL0     H57578   1.082   9.242   0.967  0.8114  1.6003  1.4726
  427MOL0     H57579   1.347   9.307   0.977  1.4026 -1.6483 -0.6858
  427MOL0     H57580   1.582   9.381   0.603  1.6465  0.5600 -0.6801
  427MOL0     H57581   1.526   9.509   0.700  0.5180  0.1817  1.3383
  427MOL0     H57582   1.684   9.448   0.879  0.7868  0.0326 -0.6229
  427MOL0     H57583   1.758   9.504   0.729  0.9027  0.5177  0.6553
  427MOL0     H57584   1.818   9.297   0.654  4.9061 -3.9928  1.1376
  427MOL0     H57585   1.764   9.211   0.796  2.8174 -2.7254 -2.0084
  427MOL0     H57586   1.949   9.347   0.923 -1.4438  0.4653 -0.1479
  427MOL0     H57587   2.000   9.225   0.819 -2.0969 -0.7229  0.7255
  427MOL0     H57588   1.998   9.422   0.631 -0.1004 -0.3718 -0.2901
  427MOL0     H57589   1.980   9.520   0.780 -1.2179  0.2385  0.1065
  427MOL0     H57590   2.201   9.419   0.880 -0.9909 -2.4378  0.4483
  427MOL0     H57591   2.208   9.317   0.731 -0.8425 -0.6664  0.4144
  427MOL0     H57592   2.251   9.615   0.737  1.0049 -0.4585 -0.3571
  427MOL0     H57593   2.264   9.512   0.594 -2.5077  0.2039  0.1234
  427MOL0     H57594   2.437   9.512   0.848 -1.0009  0.0282 -0.0856
  427MOL0     H57595   2.435   9.378   0.743  0.4161  0.4472  1.5197
  427MOL0     H57596   2.598   9.384   0.529  5.5396 -0.8214  1.6575
  427MOL0     H57597   2.713   9.494   0.332  1.7081 -0.8936 -0.1628
  427MOL0     H57598   2.748   9.665   0.329  0.4824 -0.4488 -1.6803
  427MOL0     H57599   2.943   9.652   0.472 -0.1650  1.1426 -1.9307
  427MOL0     H57600   2.915   9.474   0.502 -1.4976 -2.3619 -1.9478
  427MOL0     H57601   2.935   9.602   0.233  2.5525  2.4950  1.2470
  427MOL0     H57602   2.957   9.425   0.266  1.2708 -0.8338  0.0890
  427MOL0     H57603   3.168   9.638   0.299  0.8156  0.1725 -4.0719
  427MOL0     H57604   3.163   9.494   0.205 -1.2659  0.6951  0.1152
  427MOL0     H57605   3.312   9.303   0.567  1.4493  0.9269  1.7027
  427MOL0     H57606   3.563   9.242   0.551 -1.6879  0.4827  1.4159
  427MOL0     H57607   3.948   9.124   0.401  0.8901  0.0280  0.0427
  427MOL0     H57608   4.186   9.117   0.387 -0.3542 -0.5923  1.8558
  427MOL0     H57609   4.414   9.494   0.541  0.8701  0.4908  1.1187
  427MOL0     H57610   4.406   9.392   0.681 -1.5103 -0.7534  0.0472
  427MOL0     H57611   4.570   9.241   0.582  0.2731  0.4303  0.7164
  427MOL0     H57612   4.595   9.369   0.458  2.1024  1.3325  0.1900
  427MOL0     H57613   4.662   9.528   0.606 -1.9916 -0.9289 -2.5569
  427MOL0     H57614   4.615   9.428   0.749 -2.0010 -0.1566 -1.0580
  427MOL0     H57615   4.857   9.410   0.559  0.3229  2.0106 -0.0827
  427MOL0     H57616   4.789   9.267   0.649 -2.4321  0.1069 -2.5100
  427MOL0     H57617   4.818   9.389   0.854  2.7770 -0.7579  1.0882
  427MOL0     H57618   4.874   9.533   0.789 -2.0250 -0.4762  2.3072
  427MOL0     H57619   5.007   9.263   0.817 -1.9869 -0.2496 -0.2918
  427MOL0     H57620   5.057   9.366   0.686  0.0268  1.2173  0.5123
  427MOL0     H57621   5.050   9.438   0.991 -3.5066 -3.1695 -0.4769
  427MOL0     H57622   5.105   9.541   0.857 -1.1165 -0.1365  0.0572
  427MOL0     H57623   5.247   9.282   0.974  3.7770  0.7550  2.7565
  427MOL0     H57624   5.271   9.318   0.811 -1.0804 -0.1306 -0.0809
  427MOL0     H57625   4.209   9.500   0.588  0.7879  0.5209  0.3043
  427MOL0     H57626   3.962   9.525   0.574  1.4359  0.2620 -0.0124
  427MOL0     H57627   3.605   9.498   0.215 -0.2727  1.5285  0.4670
  427MOL0     H57628   3.378   9.542   0.217  1.4428 -0.0226 -0.6894
  427MOL0     H57629   1.349   9.307   0.562  1.1774  0.8658  0.3004
  427MOL0     H57630   1.089   9.306   0.559 -3.0591  1.6828  1.0462
  427MOL0     H57631   0.743   9.150   0.763 -0.6441 -0.3837 -1.5824
  427MOL0     H57632   0.499   9.089   0.760 -0.2643 -0.6182 -0.5573
  427MOL0     H57633   0.207   9.445   0.763  1.2169 -1.9339 -3.5537
  427MOL0     H57634   0.202   9.382   0.933  3.1429 -2.4444  0.2424
  427MOL0     H57635   0.058   9.209   0.880 -0.3417 -1.0687  0.0096
  427MOL0     H57636   0.041   9.270   0.708  0.4394  3.9425 -0.5711
  427MOL0     H57637  -0.103   9.454   0.795 -0.5204 -0.0712  1.2989
  427MOL0     H57638  -0.037   9.430   0.956  0.1622  2.1345 -0.4006
  427MOL0     H57639  -0.216   9.221   0.826 -0.2478 -0.5933 -0.0366
  427MOL0     H57640  -0.147   9.221   0.988 -0.4053 -1.6880 -1.8806
  427MOL0     H57641  -0.469   9.493   1.035 -2.5317  0.1389 -2.1225
  427MOL0     H57642   0.405   9.479   0.886  0.9733 -0.1395  2.1125
  427MOL0     H57643   0.543   9.658   0.892 -0.6177  0.3541 -1.6548
  427MOL0     H57644   0.704   9.606   0.963 -0.4615 -2.8303  0.0198
  427MOL0     H57645   0.681   9.671   0.799 -2.4055  2.3288  0.9254
  428MOL0     O57646   4.421   3.665   3.134 -0.0664  0.5148  0.0746
  428MOL0     C57647   4.331   3.590   3.170 -0.4066  0.0133  0.9356
  428MOL0     O57648   4.346   3.482   3.257  0.2733 -0.8942  0.2803
  428MOL0     C57649   4.450   3.477   3.347 -0.5104 -0.3419 -0.7831
  428MOL0     C57650   4.447   3.368   3.432  0.2413 -0.7134 -0.4207
  428MOL0     C57651   4.538   3.348   3.535 -0.1089  0.7878 -0.2004
  428MOL0     C57652   4.641   3.430   3.557  0.4111  0.9318 -0.5734
  428MOL0     O57653   4.733   3.397   3.653 -0.1079  0.2741  0.0921
  428MOL0     C57654   4.860   3.460   3.638 -0.2101 -0.4224  0.1488
  428MOL0     C57655   4.962   3.388   3.709  0.0236  0.3162 -0.4508
  428MOL0     C57656   5.100   3.463   3.715  0.1757  1.1330 -0.0445
  428MOL0     C57657   5.209   3.384   3.786 -0.5978 -0.5298  0.6028
  428MOL0     C57658   5.201   3.368   3.936 -0.0249 -0.0580  0.1929
  428MOL0     C57659   5.320   3.286   3.983 -0.8389 -0.1311 -0.4664
  428MOL0     C57660   5.296   3.243   4.123 -0.2096  0.1047  0.1826
  428MOL0     C57661   5.395   3.137   4.167  0.5001  0.0537  0.0053
  428MOL0     N57662   5.509   3.205   4.228 -0.0246  0.0874 -0.3947
  428MOL0     C57663   5.603   3.280   4.167 -0.2383 -0.7180 -0.1295
  428MOL0     C57664   5.684   3.310   4.274  0.4441 -0.0356 -0.1735
  428MOL0     C57665   5.807   3.396   4.281 -0.4186  0.4618 -0.3421
  428MOL0     C57666   5.935   3.313   4.277 -0.2760  0.0850 -0.1496
  428MOL0     C57667   5.948   3.223   4.151  0.0693  0.3639 -0.5917
  428MOL0     C57668   5.968   3.302   4.024 -0.1042 -0.0924  0.4934
  428MOL0     O57669   6.007   3.218   3.907 -0.6186  0.2476  0.1320
  428MOL0     C57670   6.134   3.160   3.914 -0.2219 -0.0948  0.4264
  428MOL0     C57671   6.152   3.027   3.864  0.4886 -0.4350 -0.2493
  428MOL0     C57672   6.274   2.964   3.862  0.0904 -0.2295 -0.0941
  428MOL0     C57673   6.391   3.031   3.907  0.4166 -0.0135 -0.2187
  428MOL0     C57674   6.523   2.967   3.906  0.2624 -0.2734  0.7430
  428MOL0     O57675   6.613   3.018   3.998 -0.6856  0.1652 -0.2455
  428MOL0     C57676   6.746   2.982   4.010 -0.2527  0.7242  0.1096
  428MOL0     C57677   6.826   2.915   3.911 -0.1565 -0.1284  0.2177
  428MOL0     C57678   6.956   2.872   3.929 -0.6720  0.0932  0.3208
  428MOL0     C57679   7.026   2.920   4.042 -0.1586 -0.1344 -0.3180
  428MOL0     O57680   7.162   2.903   4.063  0.6156 -0.0697  0.4053
  428MOL0     C57681   7.234   2.808   3.988 -0.3844  0.7518 -0.4362
  428MOL0     C57682   7.377   2.806   4.035 -0.5192  0.8873 -0.1119
  428MOL0     C57683   7.463   2.725   3.940 -0.3839 -0.2584  0.2205
  428MOL0     C57684   7.608   2.719   3.993 -0.1073 -1.0706  0.2675
  428MOL0     C57685   7.695   2.619   3.915  0.2337  0.8753  0.0341
  428MOL0     C57686   7.839   2.643   3.957 -0.5305  0.3801 -0.5155
  428MOL0     C57687   7.927   2.526   3.915 -0.0796 -0.2768 -0.0141
  428MOL0     C57688   8.077   2.538   3.959  0.1487 -0.5297 -0.4340
  428MOL0    Cl57689   8.169   2.421   3.869 -0.4833 -0.3606 -0.0129
  428MOL0     C57690   6.952   2.991   4.138  0.3382  0.5485 -0.7807
  428MOL0     C57691   6.815   3.027   4.120  0.0690  0.0464  0.8452
  428MOL0     O57692   6.544   2.875   3.827  0.4051 -0.5356  0.7875
  428MOL0     C57693   6.374   3.155   3.974 -0.0231 -0.3218  0.0980
  428MOL0     C57694   6.244   3.219   3.977  0.1809 -0.0523 -0.5219
  428MOL0     N57695   5.616   3.266   4.386 -0.5674  0.1370  0.4719
  428MOL0     N57696   5.524   3.192   4.354  0.0127 -0.5276  0.1548
  428MOL0     C57697   4.638   3.550   3.481 -0.1377  0.1416  0.3047
  428MOL0     C57698   4.540   3.580   3.386  0.6078  1.0101 -0.0771
  428MOL0     C57699   4.193   3.600   3.116  0.1679 -0.0513  0.2751
  428MOL0     C57700   4.104   3.488   3.134  1.1231 -0.4907 -0.1484
  428MOL0     C57701   3.979   3.483   3.097  0.5066  0.8122 -1.0732
  428MOL0     C57702   3.919   3.594   3.043  0.5149 -0.9813 -0.7464
  428MOL0     O57703   3.790   3.581   2.995  1.0265  0.4785  0.1355
  428MOL0     C57704   3.719   3.710   2.965 -0.1698  0.2739 -0.4672
  428MOL0     C57705   3.568   3.698   2.934  0.1577  0.2094  0.3995
  428MOL0     C57706   3.485   3.655   3.056 -0.2251  0.1476  0.2520
  428MOL0     C57707   3.515   3.506   3.099 -1.1695 -0.0784 -0.1227
  428MOL0     C57708   3.391   3.427   3.110 -0.6437  0.2624 -0.4742
  428MOL0     C57709   3.297   3.350   3.127  0.7550  0.5455 -0.4691
  428MOL0     C57710   4.003   3.708   3.013  0.0349 -0.0242 -0.4690
  428MOL0     C57711   4.142   3.711   3.043 -0.6931 -0.0199 -0.1169
  428MOL0     C57712   4.230   3.831   3.006  0.3597  0.0967 -1.0190
  428MOL0     H57713   4.371   3.292   3.420 -0.6935  0.1532 -0.1415
  428MOL0     H57714   4.523   3.256   3.591 -0.8087  2.1401  1.9400
  428MOL0     H57715   4.901   3.473   3.537  2.5825 -4.7551  0.4637
  428MOL0     H57716   4.848   3.564   3.670 -1.2709  0.4220 -2.6660
  428MOL0     H57717   4.975   3.286   3.670  0.5800  0.9806 -2.0892
  428MOL0     H57718   4.944   3.382   3.817  0.5570  1.3281 -0.2967
  428MOL0     H57719   5.098   3.560   3.764  1.8134  0.5332  1.2998
  428MOL0     H57720   5.130   3.471   3.610 -0.8604  1.2279 -0.3454
  428MOL0     H57721   5.202   3.281   3.749 -2.5656 -0.2018 -0.0622
  428MOL0     H57722   5.302   3.425   3.746 -1.8862 -0.0210 -2.1257
  428MOL0     H57723   5.182   3.468   3.978  0.0473  0.2278 -0.4461
  428MOL0     H57724   5.107   3.316   3.960 -0.3402  0.1059 -0.6537
  428MOL0     H57725   5.332   3.196   3.922  0.6675  0.5554 -1.2525
  428MOL0     H57726   5.413   3.343   3.975  1.1218 -2.6266  2.2696
  428MOL0     H57727   5.203   3.185   4.124 -1.6227  2.2273 -0.8081
  428MOL0     H57728   5.288   3.326   4.193  2.2225  0.0751  0.5622
  428MOL0     H57729   5.349   3.083   4.249  3.2337 -2.6376 -0.0369
  428MOL0     H57730   5.416   3.072   4.081  0.5431  3.4593 -2.8132
  428MOL0     H57731   5.618   3.299   4.061 -1.4144  0.6237 -0.0781
  428MOL0     H57732   5.819   3.461   4.194  0.7161 -1.4622 -1.7000
  428MOL0     H57733   5.805   3.465   4.366 -3.8611  2.1807 -1.6367
  428MOL0     H57734   6.026   3.374   4.274  0.7876 -1.3508 -4.3467
  428MOL0     H57735   5.934   3.247   4.364 -0.1143  0.8847  0.4734
  428MOL0     H57736   5.859   3.161   4.139 -0.9004  1.8700 -1.5918
  428MOL0     H57737   6.040   3.165   4.163 -0.0556  0.5329  1.3808
  428MOL0     H57738   6.038   3.384   4.046  2.1486 -1.9583  0.5738
  428MOL0     H57739   5.882   3.365   3.999  0.0728  0.6212  1.5754
  428MOL0     H57740   6.065   2.974   3.827  1.2067 -1.2701 -0.7912
  428MOL0     H57741   6.286   2.869   3.811 -0.2841  1.2871 -3.2760
  428MOL0     H57742   6.786   2.883   3.815  2.4364 -0.9865 -0.6692
  428MOL0     H57743   7.010   2.810   3.859 -0.1968 -0.9024  1.5334
  428MOL0     H57744   7.185   2.711   3.998 -2.4880  1.9648  2.4606
  428MOL0     H57745   7.237   2.835   3.882 -0.3855 -1.9672 -1.1939
  428MOL0     H57746   7.400   2.913   4.038  1.0434  0.8739 -4.4517
  428MOL0     H57747   7.389   2.762   4.134  0.1933 -0.8837 -0.9534
  428MOL0     H57748   7.429   2.622   3.927  0.3965 -0.5460  0.3555
  428MOL0     H57749   7.463   2.764   3.837 -0.8369 -1.2850 -0.1776
  428MOL0     H57750   7.608   2.693   4.099 -0.6918  0.7358  0.7464
  428MOL0     H57751   7.640   2.823   3.989 -2.2025 -0.1338  3.6671
  428MOL0     H57752   7.688   2.632   3.806 -2.5759 -0.7836 -0.0894
  428MOL0     H57753   7.681   2.514   3.942  1.2624  1.0808  1.4829
  428MOL0     H57754   7.880   2.739   3.924  0.0811  0.8715  1.5213
  428MOL0     H57755   7.845   2.644   4.067  2.8048  0.0391 -0.6113
  428MOL0     H57756   7.925   2.516   3.806 -3.5571  0.1610 -0.1010
  428MOL0     H57757   7.888   2.431   3.951  1.2366 -1.0541 -0.5745
  428MOL0     H57758   8.102   2.641   3.930  0.3452 -1.1762 -2.7505
  428MOL0     H57759   8.085   2.524   4.067 -0.3428 -0.5622 -0.3972
  428MOL0     H57760   7.002   3.028   4.227  1.4179 -0.6450 -0.8672
  428MOL0     H57761   6.758   3.079   4.197 -2.0704 -1.5535  0.4334
  428MOL0     H57762   6.453   3.208   4.025 -0.2107 -2.3862  2.7940
  428MOL0     H57763   6.233   3.311   4.033 -1.6717  0.9261 -2.3728
  428MOL0     H57764   4.708   3.631   3.493  1.4171 -0.9063 -1.1322
  428MOL0     H57765   4.542   3.683   3.355  0.0477  1.6807  1.9556
  428MOL0     H57766   4.134   3.392   3.173 -1.8207 -1.1596  0.7318
  428MOL0     H57767   3.922   3.391   3.106 -1.3335  2.0586  0.8099
  428MOL0     H57768   3.766   3.744   2.873 -2.8783 -2.2329 -2.9854
  428MOL0     H57769   3.741   3.782   3.044  2.3198  1.8533 -2.4648
  428MOL0     H57770   3.555   3.631   2.849 -0.1893  1.2181 -0.3618
  428MOL0     H57771   3.532   3.797   2.904  2.2628  0.6210 -0.9214
  428MOL0     H57772   3.381   3.660   3.023  1.0929 -0.5515 -5.0880
  428MOL0     H57773   3.503   3.723   3.139 -2.6710 -0.0944  1.0470
  428MOL0     H57774   3.579   3.454   3.027 -1.5800 -0.0558 -0.5044
  428MOL0     H57775   3.569   3.503   3.194 -0.0862 -0.9661 -0.7387
  428MOL0     H57776   3.223   3.273   3.133 -3.4965  4.1987 -0.3417
  428MOL0     H57777   3.970   3.796   2.959 -0.4896  0.1356  0.0930
  428MOL0     H57778   4.256   3.881   3.100 -1.8885  2.4390 -1.5448
  428MOL0     H57779   4.324   3.807   2.955 -1.2782  0.7515 -4.6117
  428MOL0     H57780   4.176   3.913   2.958 -2.0042  0.1795  1.5433
  429MOL0     O57781   8.613   5.408   7.994 -0.0064 -0.1267 -0.2126
  429MOL0     C57782   8.646   5.442   8.107 -0.3459  0.0088  0.6655
  429MOL0     O57783   8.561   5.435   8.211 -0.0866  0.2944 -0.1452
  429MOL0     C57784   8.443   5.364   8.200 -0.5816  0.3068 -0.9166
  429MOL0     C57785   8.332   5.420   8.263  0.1604 -0.3939  0.3929
  429MOL0     C57786   8.204   5.365   8.260  0.5745  0.5321 -0.0332
  429MOL0     C57787   8.185   5.237   8.199 -0.4626  0.1424 -0.1192
  429MOL0     O57788   8.065   5.167   8.217  0.4415  0.8546 -0.2933
  429MOL0     C57789   8.066   5.028   8.185 -0.6179  0.0497 -0.4058
  429MOL0     C57790   7.926   4.987   8.223  0.0569 -0.2833  0.1484
  429MOL0     C57791   7.916   4.833   8.235  0.0543  0.2784  0.5264
  429MOL0     C57792   7.769   4.793   8.238  0.2611 -0.4966 -0.3729
  429MOL0     C57793   7.706   4.818   8.380  0.3555  0.4024 -0.7396
  429MOL0     C57794   7.550   4.789   8.383 -0.0916 -0.6383 -0.1702
  429MOL0     C57795   7.489   4.763   8.525 -0.4278  0.8322 -0.2656
  429MOL0     C57796   7.528   4.619   8.564 -0.5130  0.6777 -0.2452
  429MOL0     N57797   7.454   4.568   8.675 -0.4751  0.3680  1.1525
  429MOL0     C57798   7.340   4.498   8.674 -0.5968 -1.0053 -0.0038
  429MOL0     C57799   7.321   4.451   8.795  0.1307  0.0977 -0.5153
  429MOL0     C57800   7.200   4.385   8.850  0.4447  0.2932 -0.9164
  429MOL0     C57801   7.118   4.298   8.749  0.5495  0.1549 -0.0899
  429MOL0     C57802   6.986   4.258   8.815  1.0273 -0.6841 -0.3678
  429MOL0     C57803   6.893   4.164   8.732 -1.4480 -0.0601 -0.4522
  429MOL0     O57804   6.802   4.085   8.811  0.5867 -0.1715  0.2017
  429MOL0     C57805   6.675   4.128   8.835 -0.0305  0.8902 -0.2464
  429MOL0     C57806   6.576   4.032   8.859  0.3760  0.1083 -0.6750
  429MOL0     C57807   6.440   4.066   8.875 -0.8161 -0.5496 -0.0234
  429MOL0     C57808   6.404   4.202   8.893  0.1539  0.1987 -0.0837
  429MOL0     C57809   6.258   4.239   8.917 -0.3011  0.3296 -0.0781
  429MOL0     O57810   6.172   4.138   8.911 -0.5528 -0.1080  0.7413
  429MOL0     C57811   6.042   4.143   8.910  0.1129 -0.1444 -0.4133
  429MOL0     C57812   5.966   4.039   8.859 -0.1731 -0.0029  0.0616
  429MOL0     C57813   5.821   4.028   8.859 -0.0052  0.2811  0.1952
  429MOL0     C57814   5.751   4.132   8.925 -0.0787  0.1103 -0.1452
  429MOL0     O57815   5.617   4.119   8.913  0.5928  0.3862 -0.5176
  429MOL0     C57816   5.536   4.224   8.956 -0.1116 -0.5992  0.2800
  429MOL0     C57817   5.389   4.191   8.926  0.6449  0.4638 -0.3040
  429MOL0     C57818   5.301   4.318   8.932 -0.5827  0.1017 -0.1850
  429MOL0     C57819   5.155   4.292   8.914  0.6425 -0.3895  0.0461
  429MOL0     C57820   5.073   4.417   8.921  0.1141 -0.9497  0.1654
  429MOL0     C57821   4.916   4.418   8.903  0.2726 -0.0329 -0.1827
  429MOL0     C57822   4.862   4.328   9.021  0.5867 -0.9267  0.4794
  429MOL0     C57823   4.718   4.363   9.048  0.9008 -0.2993  0.8920
  429MOL0    Cl57824   4.703   4.535   9.093 -0.0543 -0.2464 -0.3395
  429MOL0     C57825   5.825   4.235   8.981 -0.0369  0.6058 -0.6047
  429MOL0     C57826   5.965   4.243   8.970  0.3726 -0.5900 -0.5500
  429MOL0     O57827   6.230   4.358   8.930 -0.4136  0.3864  0.2870
  429MOL0     C57828   6.502   4.294   8.878 -0.2659 -0.0726  0.2290
  429MOL0     C57829   6.632   4.264   8.846 -0.6534  0.0947 -0.0662
  429MOL0     N57830   7.427   4.495   8.877 -0.3775 -0.3367  0.0023
  429MOL0     N57831   7.507   4.567   8.805  0.4562  1.0876  0.8201
  429MOL0     C57832   8.299   5.175   8.140  0.9915 -0.5682  0.2515
  429MOL0     C57833   8.426   5.241   8.147  0.9653 -0.0660 -0.2208
  429MOL0     C57834   8.780   5.512   8.134 -0.4212  1.1678 -0.4994
  429MOL0     C57835   8.824   5.510   8.263  0.6681  0.1102 -0.0761
  429MOL0     C57836   8.956   5.551   8.293 -1.4460  0.8150 -0.3041
  429MOL0     C57837   9.044   5.601   8.198 -0.3981  0.1583  0.6401
  429MOL0     O57838   9.171   5.642   8.223  0.0200  0.2481 -0.4187
  429MOL0     C57839   9.266   5.539   8.254 -0.7408  0.2862 -0.2078
  429MOL0     C57840   9.384   5.604   8.330 -0.8759 -0.1081  0.1977
  429MOL0     C57841   9.464   5.494   8.406  0.5322 -0.2306  0.9685
  429MOL0     C57842   9.599   5.530   8.463  0.3352 -0.1741 -0.3199
  429MOL0     C57843   9.659   5.420   8.544  0.9556 -0.6916 -0.2937
  429MOL0     C57844   9.719   5.335   8.608 -0.0087  0.7295  0.8274
  429MOL0     C57845   8.990   5.630   8.074  0.4035  0.6599  0.1647
  429MOL0     C57846   8.861   5.580   8.035 -0.2320 -0.0106 -0.3485
  429MOL0     C57847   8.811   5.609   7.892 -0.4704 -0.0931 -0.1038
  429MOL0     H57848   8.341   5.514   8.316 -1.7578  0.1070 -0.0891
  429MOL0     H57849   8.121   5.413   8.311  0.2477 -1.8781  1.9051
  429MOL0     H57850   8.093   5.017   8.080  1.5238 -0.1130  0.1153
  429MOL0     H57851   8.143   4.979   8.246  0.4381  4.3245  2.0955
  429MOL0     H57852   7.854   5.022   8.149 -1.2813  1.3586  2.1611
  429MOL0     H57853   7.903   5.025   8.322 -0.2022 -0.4859  0.1652
  429MOL0     H57854   7.972   4.784   8.316  1.4971 -2.3447 -1.8627
  429MOL0     H57855   7.953   4.786   8.144 -3.6249 -0.9880 -0.4816
  429MOL0     H57856   7.722   4.850   8.157  1.9006  0.3252 -0.8055
  429MOL0     H57857   7.761   4.689   8.207  0.9596 -0.7694  0.3459
  429MOL0     H57858   7.752   4.768   8.465 -2.5331  2.4035  2.2600
  429MOL0     H57859   7.718   4.923   8.410  1.0565  0.0002  0.4096
  429MOL0     H57860   7.499   4.875   8.340 -1.6825 -1.0186  0.8286
  429MOL0     H57861   7.525   4.704   8.318 -0.9663 -0.7838  0.3301
  429MOL0     H57862   7.380   4.769   8.516 -0.4381 -0.2775 -1.1267
  429MOL0     H57863   7.518   4.839   8.598 -3.8853  1.5981  0.4865
  429MOL0     H57864   7.502   4.555   8.479 -2.9166  0.9428  0.2225
  429MOL0     H57865   7.635   4.612   8.584 -0.2806 -1.3177 -1.8689
  429MOL0     H57866   7.275   4.479   8.588 -1.0490  0.7901 -0.0973
  429MOL0     H57867   7.230   4.321   8.933  2.9259 -0.1961 -2.0926
  429MOL0     H57868   7.135   4.465   8.885  0.4682 -0.0847  0.0267
  429MOL0     H57869   7.096   4.367   8.667  0.2538 -0.0505 -0.1844
  429MOL0     H57870   7.171   4.206   8.725 -3.1834 -1.8768 -1.4941
  429MOL0     H57871   6.931   4.351   8.829  0.1578 -1.4672  1.7155
  429MOL0     H57872   7.001   4.224   8.918  0.3481 -2.3220 -0.7665
  429MOL0     H57873   6.958   4.092   8.682 -1.1835 -1.8818  2.2563
  429MOL0     H57874   6.832   4.218   8.660 -2.0050 -1.7481 -1.3130
  429MOL0     H57875   6.588   3.925   8.853  1.3120  0.2360 -1.2275
  429MOL0     H57876   6.361   3.991   8.882 -2.1129  0.7256 -0.4549
  429MOL0     H57877   6.022   3.969   8.798  1.1247 -0.4169  1.6597
  429MOL0     H57878   5.766   3.940   8.827 -1.2330  1.0401  0.1372
  429MOL0     H57879   5.534   4.234   9.065 -1.7051  1.2637  0.1352
  429MOL0     H57880   5.559   4.319   8.906  0.5883 -1.8609 -1.9315
  429MOL0     H57881   5.375   4.140   8.830 -0.3940 -0.3562  0.2777
  429MOL0     H57882   5.350   4.127   9.005  0.8306  0.0927 -0.5083
  429MOL0     H57883   5.319   4.360   9.032 -1.1706 -1.0743  0.4347
  429MOL0     H57884   5.331   4.383   8.849 -1.2932 -1.4908 -1.7373
  429MOL0     H57885   5.117   4.223   8.991  0.2718 -0.1711  0.0638
  429MOL0     H57886   5.136   4.237   8.822 -0.3094 -0.1482  0.0871
  429MOL0     H57887   5.101   4.484   8.840 -1.2726 -1.1911 -0.5436
  429MOL0     H57888   5.087   4.481   9.008 -1.1383  0.5983 -0.7208
  429MOL0     H57889   4.878   4.521   8.908 -0.2551 -0.2878  3.7514
  429MOL0     H57890   4.882   4.376   8.808  2.9799 -1.2198 -0.7054
  429MOL0     H57891   4.917   4.343   9.114  0.2267 -1.2890  0.7505
  429MOL0     H57892   4.858   4.226   8.983  0.6618 -0.5649 -0.5362
  429MOL0     H57893   4.650   4.342   8.965  2.6641  1.3622 -1.1051
  429MOL0     H57894   4.689   4.302   9.134 -0.5314  0.6804  1.1346
  429MOL0     H57895   5.777   4.322   9.025  0.6582  1.7977 -2.0960
  429MOL0     H57896   6.024   4.324   9.013  2.9313 -2.2773 -0.6144
  429MOL0     H57897   6.470   4.398   8.884 -0.6595 -0.2057  0.4551
  429MOL0     H57898   6.698   4.350   8.835  1.6970 -1.7496 -1.4217
  429MOL0     H57899   8.295   5.081   8.085 -1.0825  0.3768 -1.3626
  429MOL0     H57900   8.515   5.194   8.106  1.7444  1.3563 -0.2115
  429MOL0     H57901   8.762   5.459   8.336  2.4135 -0.4479  1.0787
  429MOL0     H57902   8.997   5.549   8.393  4.2685  1.9179 -2.2815
  429MOL0     H57903   9.302   5.496   8.160  2.5974  0.7685  0.7044
  429MOL0     H57904   9.214   5.471   8.322  1.5726 -0.3214  1.0470
  429MOL0     H57905   9.340   5.667   8.408 -1.3499  0.3046 -0.3968
  429MOL0     H57906   9.443   5.674   8.271 -1.4589  1.4471  1.3745
  429MOL0     H57907   9.484   5.408   8.341 -0.4883  0.0265  0.2845
  429MOL0     H57908   9.398   5.464   8.488  1.9810  1.1471  2.7090
  429MOL0     H57909   9.667   5.551   8.379 -1.0813 -1.1527 -1.7559
  429MOL0     H57910   9.594   5.620   8.525 -1.3609  0.7931 -1.7489
  429MOL0     H57911   9.757   5.255   8.667 -2.0044 -0.6733  0.3236
  429MOL0     H57912   9.045   5.688   8.001 -0.3505 -0.1429 -1.0762
  429MOL0     H57913   8.801   5.512   7.843 -0.0239  1.1551 -2.8648
  429MOL0     H57914   8.720   5.670   7.899 -1.2140 -1.1844  0.0173
  429MOL0     H57915   8.875   5.676   7.833  1.3932  1.0518  2.9910
  430MOL0     O57916   4.428   1.169   3.821  0.1654  0.4966 -0.4964
  430MOL0     C57917   4.444   1.261   3.747 -1.3153  0.2107 -0.0150
  430MOL0     O57918   4.526   1.369   3.776 -0.0239 -0.6194  0.2187
  430MOL0     C57919   4.602   1.370   3.895  0.3186  0.0435  0.5891
  430MOL0     C57920   4.531   1.365   4.017  0.0033  0.4799  0.0943
  430MOL0     C57921   4.605   1.372   4.142  0.6586  0.2805  0.0557
  430MOL0     C57922   4.738   1.392   4.140 -0.3428  0.3389 -0.4039
  430MOL0     O57923   4.805   1.402   4.262  0.1825  0.3083  0.0438
  430MOL0     C57924   4.943   1.397   4.263 -0.2021  0.7929  0.3303
  430MOL0     C57925   5.004   1.398   4.400 -0.0425 -0.8087 -0.2572
  430MOL0     C57926   4.975   1.533   4.470  0.0160 -0.5181 -0.6627
  430MOL0     C57927   5.048   1.523   4.607 -0.6743  0.0526  0.0253
  430MOL0     C57928   5.026   1.659   4.688  0.5031  0.3212 -0.9137
  430MOL0     C57929   5.122   1.676   4.800 -0.8289  0.0834 -0.0697
  430MOL0     C57930   5.070   1.625   4.939 -0.1032 -0.2095  0.0704
  430MOL0     C57931   5.156   1.671   5.064 -0.1304  0.3120 -0.0691
  430MOL0     N57932   5.110   1.804   5.108 -0.2522  0.0910 -0.2624
  430MOL0     C57933   5.186   1.921   5.100  0.4835  0.0502 -0.7891
  430MOL0     C57934   5.117   2.019   5.156 -0.0263 -0.4840 -0.2912
  430MOL0     C57935   5.155   2.168   5.159  0.6592  0.7089 -0.0049
  430MOL0     C57936   5.246   2.206   5.280 -0.4931 -0.9732 -0.1890
  430MOL0     C57937   5.389   2.187   5.229  0.3302 -0.4909  0.2057
  430MOL0     C57938   5.507   2.246   5.306  0.0706 -0.3572 -0.1982
  430MOL0     O57939   5.472   2.376   5.338 -0.2236  0.4158  0.1782
  430MOL0     C57940   5.575   2.450   5.395 -0.3439  0.4711  0.0829
  430MOL0     C57941   5.700   2.398   5.444  0.4649 -0.1281  0.0180
  430MOL0     C57942   5.789   2.477   5.512  0.4467  0.0348  0.2400
  430MOL0     C57943   5.769   2.614   5.528  1.3931 -0.2273  0.0905
  430MOL0     C57944   5.874   2.695   5.595 -0.1453  0.1140  0.0886
  430MOL0     O57945   6.009   2.665   5.577  0.1812 -0.2428  1.2309
  430MOL0     C57946   6.112   2.732   5.638 -0.1072 -0.8746  1.0680
  430MOL0     C57947   6.210   2.775   5.554  0.4540 -0.2297  0.0430
  430MOL0     C57948   6.320   2.847   5.596 -0.7007  0.9369 -0.0661
  430MOL0     C57949   6.335   2.882   5.730  0.1205 -0.6129  0.9538
  430MOL0     O57950   6.437   2.965   5.770 -0.0336  0.5938  0.4726
  430MOL0     C57951   6.512   2.931   5.888 -0.3557 -0.0458 -0.3928
  430MOL0     C57952   6.616   2.821   5.870  0.3475 -0.6804 -0.2894
  430MOL0     C57953   6.727   2.841   5.972 -0.2592  0.0745 -0.0267
  430MOL0     C57954   6.854   2.901   5.920  0.6117  0.5596  0.4305
  430MOL0     C57955   6.963   2.909   6.040  0.2356  0.6819 -0.2447
  430MOL0     C57956   7.097   2.968   6.002 -0.1091  0.1500  0.7009
  430MOL0     C57957   7.170   2.870   5.900 -0.3297 -0.6742  0.0804
  430MOL0     C57958   7.296   2.816   5.967 -0.5297 -0.7232 -0.3649
  430MOL0    Cl57959   7.262   2.733   6.121 -0.1360 -0.3409  0.2256
  430MOL0     C57960   6.236   2.836   5.817  0.2272  0.3354  0.0488
  430MOL0     C57961   6.122   2.768   5.771 -0.0349 -0.1575  0.4862
  430MOL0     O57962   5.836   2.806   5.631 -0.3749 -0.8138 -0.8320
  430MOL0     C57963   5.641   2.668   5.482 -0.9875 -1.1784 -0.1371
  430MOL0     C57964   5.552   2.588   5.420  0.3726  0.3383  0.7032
  430MOL0     N57965   4.998   1.962   5.189  0.4773  0.1948  0.1432
  430MOL0     N57966   5.004   1.836   5.178 -0.7037 -0.3487 -0.6803
  430MOL0     C57967   4.810   1.388   4.015 -0.7219 -0.4940 -0.3846
  430MOL0     C57968   4.733   1.380   3.899 -0.3035 -0.3661  0.9165
  430MOL0     C57969   4.400   1.243   3.604 -0.3755 -0.2568  0.1772
  430MOL0     C57970   4.482   1.298   3.510  1.0047 -0.0782  0.1012
  430MOL0     C57971   4.451   1.289   3.372  0.0561 -1.0187  0.4904
  430MOL0     C57972   4.339   1.227   3.327 -0.0240  0.4086 -0.3667
  430MOL0     O57973   4.319   1.202   3.196 -0.8032  0.1328  0.4430
  430MOL0     C57974   4.203   1.273   3.133 -0.0190  0.2683 -0.0281
  430MOL0     C57975   4.240   1.317   2.992  0.9974  0.4059 -0.4252
  430MOL0     C57976   4.363   1.410   2.984  0.2167 -0.5424 -0.9960
  430MOL0     C57977   4.481   1.360   2.905 -0.0577  0.4503  0.3011
  430MOL0     C57978   4.445   1.357   2.765 -0.2676  0.0268 -0.4581
  430MOL0     C57979   4.451   1.365   2.642  0.7276  0.0779  0.4507
  430MOL0     C57980   4.257   1.164   3.422  0.5324  0.3610 -0.0044
  430MOL0     C57981   4.289   1.171   3.559 -0.1392 -0.0667  0.3988
  430MOL0     C57982   4.195   1.107   3.651  0.0231 -0.2548 -0.1393
  430MOL0     H57983   4.423   1.353   4.013  0.0950 -2.2644  2.6509
  430MOL0     H57984   4.551   1.363   4.236 -1.6281 -2.4973 -1.4002
  430MOL0     H57985   4.974   1.303   4.216  0.6912  1.1885  0.1127
  430MOL0     H57986   4.990   1.484   4.218 -0.2410  0.5218 -0.2423
  430MOL0     H57987   5.110   1.373   4.390  0.2441  1.0762 -3.0714
  430MOL0     H57988   4.956   1.327   4.468  0.7934 -0.8715  0.2767
  430MOL0     H57989   4.869   1.535   4.498  0.3354  1.7039  0.6913
  430MOL0     H57990   4.992   1.620   4.406  1.8461 -0.5482 -0.2578
  430MOL0     H57991   5.040   1.432   4.666  0.6035  1.5021  2.6414
  430MOL0     H57992   5.153   1.508   4.578 -0.8988 -1.6638  0.0359
  430MOL0     H57993   5.029   1.744   4.619  0.1145 -0.4301 -1.9003
  430MOL0     H57994   4.925   1.663   4.730  0.3912  2.1633 -1.2869
  430MOL0     H57995   5.220   1.634   4.775 -0.6502  0.8031 -0.5941
  430MOL0     H57996   5.140   1.782   4.819 -1.3213  0.2350 -0.4263
  430MOL0     H57997   5.071   1.515   4.943 -4.4513 -0.5135 -1.9995
  430MOL0     H57998   4.969   1.659   4.959  1.5571  4.3097  2.0834
  430MOL0     H57999   5.123   1.597   5.138 -0.2141 -0.5728 -0.9693
  430MOL0     H58000   5.263   1.657   5.047 -0.3346  1.4679 -2.7943
  430MOL0     H58001   5.283   1.942   5.057 -0.0717 -1.0221 -2.7079
  430MOL0     H58002   5.191   2.200   5.061 -0.3977  1.3172 -0.2096
  430MOL0     H58003   5.057   2.216   5.163 -0.4036 -0.7688 -3.6832
  430MOL0     H58004   5.230   2.312   5.302  3.3563 -0.4596  0.6841
  430MOL0     H58005   5.223   2.152   5.372 -0.3792  0.8582  0.9633
  430MOL0     H58006   5.395   2.241   5.134 -0.0358 -0.3930  0.2376
  430MOL0     H58007   5.402   2.079   5.212  0.2716 -0.5810  0.7221
  430MOL0     H58008   5.594   2.240   5.241  1.3819 -1.1123  1.5373
  430MOL0     H58009   5.525   2.191   5.399  1.5481  2.8576  1.5665
  430MOL0     H58010   5.729   2.294   5.436  0.2156 -0.1340 -0.9775
  430MOL0     H58011   5.881   2.427   5.538 -0.6603 -0.5548  3.4148
  430MOL0     H58012   6.201   2.753   5.448 -0.2128  0.1188  0.0208
  430MOL0     H58013   6.400   2.877   5.529  0.8894 -1.0945  0.7831
  430MOL0     H58014   6.570   3.015   5.928 -0.1444 -0.4410  0.1430
  430MOL0     H58015   6.445   2.916   5.973  1.1967 -0.1117  0.8712
  430MOL0     H58016   6.573   2.721   5.872  1.0494 -0.9811  0.3184
  430MOL0     H58017   6.642   2.840   5.766 -0.5051 -0.3686 -0.4595
  430MOL0     H58018   6.691   2.905   6.053  2.2665 -0.1652  1.3766
  430MOL0     H58019   6.740   2.737   6.003 -0.6589 -0.6153 -2.0263
  430MOL0     H58020   6.834   3.004   5.887 -0.6208  0.4685  0.8504
  430MOL0     H58021   6.889   2.836   5.839  0.0048 -0.0923  0.6811
  430MOL0     H58022   6.980   2.808   6.079 -0.9380  0.4090 -0.3992
  430MOL0     H58023   6.918   2.963   6.124 -1.7245 -1.1952  0.0104
  430MOL0     H58024   7.091   3.065   5.954  0.8753 -0.4902 -0.7942
  430MOL0     H58025   7.163   2.983   6.089  1.1423 -4.1154  0.7178
  430MOL0     H58026   7.195   2.930   5.812 -1.6484  3.8819  2.4702
  430MOL0     H58027   7.104   2.789   5.868 -2.2899  0.7656  0.2825
  430MOL0     H58028   7.355   2.746   5.907  1.8607 -1.0761  2.2037
  430MOL0     H58029   7.361   2.902   5.986 -0.4914 -0.6456 -0.8177
  430MOL0     H58030   6.244   2.860   5.923  0.4979  0.5530 -0.0215
  430MOL0     H58031   6.043   2.747   5.842 -0.0711 -2.6293 -0.1743
  430MOL0     H58032   5.621   2.774   5.496 -2.6768 -1.1717 -2.0534
  430MOL0     H58033   5.460   2.624   5.375  0.7183 -1.8093 -1.9860
  430MOL0     H58034   4.919   1.392   4.007 -0.5552  1.2758  1.7687
  430MOL0     H58035   4.792   1.377   3.807 -1.5375 -2.8612  0.1016
  430MOL0     H58036   4.562   1.368   3.534 -0.0123  0.8207  0.9980
  430MOL0     H58037   4.526   1.329   3.304 -0.5336 -2.6545 -1.2201
  430MOL0     H58038   4.182   1.366   3.186  2.5636  1.5543 -1.0930
  430MOL0     H58039   4.125   1.196   3.130  0.6392 -0.4030 -0.1658
  430MOL0     H58040   4.150   1.373   2.963  0.3436 -0.3853  0.0010
  430MOL0     H58041   4.248   1.229   2.929  1.7192 -0.9765  1.5011
  430MOL0     H58042   4.396   1.419   3.088 -1.2867 -1.0520 -0.4397
  430MOL0     H58043   4.336   1.512   2.955 -1.5883 -0.0572  1.9799
  430MOL0     H58044   4.572   1.422   2.911  2.3113 -2.7401  0.0449
  430MOL0     H58045   4.516   1.264   2.946  0.4062  0.3583 -0.3061
  430MOL0     H58046   4.437   1.362   2.535 -0.5060  0.5427  0.5830
  430MOL0     H58047   4.160   1.132   3.385  0.0042  1.5070  0.3417
  430MOL0     H58048   4.240   1.025   3.707 -2.1990 -1.2499  0.3254
  430MOL0     H58049   4.165   1.176   3.730 -3.1334  0.4331 -1.7414
  430MOL0     H58050   4.102   1.067   3.610 -1.5161 -0.4895  3.2108
  431MOL0     O58051   1.337  11.298   8.485 -0.5644 -0.0749 -0.4921
  431MOL0     C58052   1.373  11.238   8.379 -0.1964  0.7942 -0.4429
  431MOL0     O58053   1.292  11.201   8.276  0.4751 -0.5599 -0.1159
  431MOL0     C58054   1.159  11.243   8.277 -0.7688  1.1860  0.0524
  431MOL0     C58055   1.131  11.379   8.241  0.4449  0.5008  0.6287
  431MOL0     C58056   1.000  11.422   8.214 -0.2311  0.0369  0.3544
  431MOL0     C58057   0.890  11.331   8.216 -0.4132  0.7114  0.3832
  431MOL0     O58058   0.762  11.363   8.172  0.0760 -0.1503 -0.3110
  431MOL0     C58059   0.734  11.490   8.133 -0.2292  0.1978 -0.0615
  431MOL0     C58060   0.591  11.505   8.074 -0.3155 -0.1826  0.1591
  431MOL0     C58061   0.496  11.481   8.186 -0.4126  0.3573 -0.3724
  431MOL0     C58062   0.369  11.562   8.152  0.0404  0.5896  0.2233
  431MOL0     C58063   0.281  11.554   8.276 -0.6096 -0.4856 -0.3792
  431MOL0     C58064   0.170  11.661   8.292  0.4749 -0.0795  0.4030
  431MOL0     C58065   0.117  11.658   8.439  0.5861 -0.6001  0.1570
  431MOL0     C58066   0.044  11.529   8.479  0.5599  0.5925  0.0866
  431MOL0     N58067  -0.059  11.489   8.386 -0.0846  0.4514 -0.0089
  431MOL0     C58068  -0.171  11.564   8.352 -0.2387  0.6396 -0.2744
  431MOL0     C58069  -0.244  11.487   8.265  0.0405  0.2220 -0.8513
  431MOL0     C58070  -0.376  11.525   8.201  1.0448  0.2379 -0.4331
  431MOL0     C58071  -0.485  11.542   8.304 -0.0586 -0.3090  0.3588
  431MOL0     C58072  -0.546  11.405   8.335 -0.0613  0.4175 -0.7866
  431MOL0     C58073  -0.612  11.325   8.215 -0.7645 -0.0517  0.1119
  431MOL0     O58074  -0.695  11.218   8.273 -0.0498 -0.0110 -0.3462
  431MOL0     C58075  -0.628  11.113   8.328  1.0957 -0.2568  0.2221
  431MOL0     C58076  -0.697  11.025   8.412  0.1298  0.1277  0.0814
  431MOL0     C58077  -0.630  10.923   8.483 -0.1966 -0.1822 -0.8225
  431MOL0     C58078  -0.496  10.890   8.459 -0.1080  0.9847  0.7834
  431MOL0     C58079  -0.421  10.784   8.540 -0.5364  0.1205 -0.0148
  431MOL0     O58080  -0.285  10.786   8.541 -0.1399 -0.3898  0.5075
  431MOL0     C58081  -0.217  10.665   8.544  0.4825 -0.4947  0.0942
  431MOL0     C58082  -0.256  10.549   8.472  0.0546 -0.6347  0.3588
  431MOL0     C58083  -0.185  10.430   8.484 -0.6620  0.3619 -0.2637
  431MOL0     C58084  -0.073  10.419   8.574 -0.7019 -0.5642  0.0336
  431MOL0     O58085   0.006  10.313   8.593 -0.4814  0.9090 -0.0488
  431MOL0     C58086   0.011  10.209   8.492 -0.6931  0.4068  0.5426
  431MOL0     C58087   0.144  10.128   8.492 -0.0172 -0.6469 -0.2289
  431MOL0     C58088   0.166  10.060   8.624 -0.4018 -0.3099  1.0080
  431MOL0     C58089   0.276   9.948   8.621 -0.1797  0.8620  0.2792
  431MOL0     C58090   0.420   9.988   8.655  0.3248  0.3667 -0.1295
  431MOL0     C58091   0.494   9.874   8.710 -0.2579 -0.1752 -0.3249
  431MOL0     C58092   0.642   9.913   8.729  0.0210  0.0782 -1.0152
  431MOL0     C58093   0.712   9.795   8.789 -0.0033  0.2632  0.9413
  431MOL0    Cl58094   0.879   9.846   8.847 -0.2851 -0.1265  0.2309
  431MOL0     C58095  -0.027  10.541   8.637  0.3564 -0.1277  0.1049
  431MOL0     C58096  -0.093  10.663   8.610 -0.7901 -0.3868 -0.5046
  431MOL0     O58097  -0.493  10.691   8.587 -0.2444 -0.0056  0.1058
  431MOL0     C58098  -0.434  10.969   8.363  0.6999  0.3969  0.1723
  431MOL0     C58099  -0.497  11.080   8.305 -0.1033 -0.5702 -0.3054
  431MOL0     N58100  -0.179  11.360   8.248  0.3907 -0.5320  0.5032
  431MOL0     N58101  -0.070  11.366   8.320 -0.4707 -0.1568 -0.3174
  431MOL0     C58102   0.932  11.202   8.253  0.0883  0.7459 -0.2774
  431MOL0     C58103   1.057  11.151   8.287 -0.0596 -1.0491  1.2032
  431MOL0     C58104   1.517  11.232   8.356  0.3299  0.8517 -0.7512
  431MOL0     C58105   1.567  11.184   8.234  0.4179 -0.0975 -0.2290
  431MOL0     C58106   1.707  11.181   8.197  0.4702 -0.7892  0.0225
  431MOL0     C58107   1.802  11.236   8.285  0.0714  1.3257 -0.0317
  431MOL0     O58108   1.933  11.244   8.260 -0.2703  0.5129 -0.3956
  431MOL0     C58109   1.993  11.216   8.130  0.1151  1.0462  0.5631
  431MOL0     C58110   2.144  11.250   8.145  0.4551 -0.8613 -0.2049
  431MOL0     C58111   2.211  11.201   8.280 -0.1679  0.6824 -0.0974
  431MOL0     C58112   2.361  11.231   8.302  0.2573 -0.8063  0.0473
  431MOL0     C58113   2.401  11.371   8.317 -0.2165  0.2744  0.2043
  431MOL0     C58114   2.429  11.489   8.315  0.5326  0.2792  0.4218
  431MOL0     C58115   1.751  11.266   8.409  0.4656  0.2666  0.8512
  431MOL0     C58116   1.621  11.254   8.446  0.1687 -0.0699  0.6953
  431MOL0     C58117   1.602  11.267   8.594 -0.4855 -0.8284 -0.5999
  431MOL0     H58118   1.214  11.447   8.227 -0.1778  1.1163 -0.1158
  431MOL0     H58119   0.980  11.526   8.191  1.2154  0.0082 -1.2676
  431MOL0     H58120   0.752  11.557   8.217 -2.5539  0.7087  0.0998
  431MOL0     H58121   0.805  11.521   8.056  1.9211 -1.0678  1.3170
  431MOL0     H58122   0.572  11.442   7.987 -1.3680  0.4037 -0.0428
  431MOL0     H58123   0.592  11.609   8.042  1.9932  0.1619  1.1184
  431MOL0     H58124   0.542  11.510   8.282 -2.4880  1.5953  0.3046
  431MOL0     H58125   0.472  11.375   8.181 -0.4138  0.4142 -3.5528
  431MOL0     H58126   0.391  11.665   8.122 -1.6498  0.6853 -0.8292
  431MOL0     H58127   0.311  11.517   8.071 -0.9106 -0.4707  1.4559
  431MOL0     H58128   0.235  11.456   8.290 -1.9095 -0.0018 -1.0303
  431MOL0     H58129   0.352  11.569   8.358 -0.6793  0.9400 -0.5492
  431MOL0     H58130   0.213  11.758   8.268  1.9154 -0.8410 -0.2224
  431MOL0     H58131   0.083  11.637   8.229 -0.2265 -0.6898  1.5665
  431MOL0     H58132   0.064  11.752   8.458  1.3519  0.6894 -3.3040
  431MOL0     H58133   0.199  11.675   8.509  1.5756 -0.7249 -0.9379
  431MOL0     H58134   0.104  11.438   8.482 -1.2143 -0.6624 -0.5916
  431MOL0     H58135   0.009  11.538   8.582 -2.8772 -2.5246 -0.5969
  431MOL0     H58136  -0.205  11.664   8.378 -2.5494  0.0051 -0.6278
  431MOL0     H58137  -0.359  11.614   8.140  2.0334 -1.0306 -2.1073
  431MOL0     H58138  -0.408  11.445   8.134 -0.9587  0.3886  0.2833
  431MOL0     H58139  -0.470  11.608   8.389  1.0312  1.9737 -1.4956
  431MOL0     H58140  -0.559  11.605   8.254  2.1134  0.7136 -1.7683
  431MOL0     H58141  -0.627  11.416   8.408 -1.0684  0.4906 -1.8659
  431MOL0     H58142  -0.474  11.339   8.383 -1.7781 -1.2637 -0.3511
  431MOL0     H58143  -0.540  11.286   8.142 -0.4748  0.8190 -0.0840
  431MOL0     H58144  -0.685  11.387   8.162 -4.1759 -3.2400  0.7088
  431MOL0     H58145  -0.802  11.047   8.428 -0.3068 -2.1703  0.6116
  431MOL0     H58146  -0.682  10.862   8.556  2.5113 -2.2328 -0.4485
  431MOL0     H58147  -0.346  10.544   8.411  0.2931 -3.0877  0.1081
  431MOL0     H58148  -0.209  10.350   8.414  4.2117 -2.5517  0.8982
  431MOL0     H58149  -0.077  10.146   8.507  1.1991 -2.6853 -0.3930
  431MOL0     H58150   0.013  10.255   8.393  0.1253 -1.4315 -0.3406
  431MOL0     H58151   0.161  10.057   8.410 -0.3934 -2.2659  1.0350
  431MOL0     H58152   0.224  10.202   8.490  0.2715 -0.9547 -0.1311
  431MOL0     H58153   0.187  10.133   8.704  1.5201 -0.1804  0.4283
  431MOL0     H58154   0.066  10.021   8.644 -2.1193  3.0492 -0.2111
  431MOL0     H58155   0.274   9.909   8.519  0.4737  2.1344 -0.2485
  431MOL0     H58156   0.252   9.871   8.695  2.3624 -0.3335 -0.0418
  431MOL0     H58157   0.422  10.077   8.719  1.0410 -1.7156  2.9578
  431MOL0     H58158   0.468  10.028   8.565  2.2202  3.0332  1.9211
  431MOL0     H58159   0.457   9.845   8.809 -0.8244 -3.6133 -1.4343
  431MOL0     H58160   0.490   9.778   8.659  0.0817 -0.9948  1.1347
  431MOL0     H58161   0.666  10.004   8.784 -1.0834  1.4361 -2.6630
  431MOL0     H58162   0.696   9.940   8.638 -1.3416 -0.4874 -2.0220
  431MOL0     H58163   0.655   9.753   8.872  1.4067 -1.1709  1.2130
  431MOL0     H58164   0.723   9.713   8.718 -0.6279 -0.0914  1.2414
  431MOL0     H58165   0.062  10.537   8.699  0.6718 -0.4013 -0.3536
  431MOL0     H58166  -0.050  10.751   8.657 -1.1396 -0.5699  0.1662
  431MOL0     H58167  -0.328  10.964   8.341  0.1822  0.4539 -2.8193
  431MOL0     H58168  -0.428  11.143   8.249  0.9095  0.2669  1.7454
  431MOL0     H58169   0.842  11.143   8.269  0.1923  0.9301  1.1605
  431MOL0     H58170   1.077  11.049   8.321 -0.6024 -1.5870 -0.0524
  431MOL0     H58171   1.499  11.155   8.154  0.9528  1.0496 -1.1273
  431MOL0     H58172   1.732  11.145   8.098 -0.4049 -0.4955 -0.3176
  431MOL0     H58173   1.964  11.283   8.048 -1.8094 -0.0190  0.3189
  431MOL0     H58174   1.973  11.112   8.101  0.1172  1.1559  0.1581
  431MOL0     H58175   2.160  11.358   8.135  1.1983 -0.9957 -0.5918
  431MOL0     H58176   2.191  11.203   8.058  1.8757  1.5075 -0.8046
  431MOL0     H58177   2.192  11.094   8.288  4.1298 -0.1499  1.2735
  431MOL0     H58178   2.161  11.241   8.369  1.2147 -0.9703  1.4936
  431MOL0     H58179   2.394  11.177   8.391 -0.9844 -1.9465 -0.1535
  431MOL0     H58180   2.416  11.182   8.220 -1.4882 -1.0728 -1.0150
  431MOL0     H58181   2.450  11.593   8.309 -0.8159  0.5352 -0.3021
  431MOL0     H58182   1.817  11.287   8.494  1.0653  2.6940 -0.1240
  431MOL0     H58183   1.621  11.368   8.631 -0.8488 -0.8389 -0.3930
  431MOL0     H58184   1.504  11.234   8.628  0.2017 -2.3817 -0.0181
  431MOL0     H58185   1.674  11.194   8.634 -0.9056 -2.3964 -2.5193
  432MOL0     O58186   5.613   0.541   5.546  0.1677 -0.3175  0.2651
  432MOL0     C58187   5.541   0.639   5.518 -0.6988  0.4664 -0.1627
  432MOL0     O58188   5.544   0.713   5.401 -0.0738 -0.0545 -0.0138
  432MOL0     C58189   5.633   0.685   5.302 -0.1274 -0.0484  0.0289
  432MOL0     C58190   5.698   0.798   5.241 -0.4061  0.2013  0.0174
  432MOL0     C58191   5.818   0.782   5.164 -0.3471 -0.2339  1.2629
  432MOL0     C58192   5.845   0.650   5.119 -0.6777 -0.0179 -0.2799
  432MOL0     O58193   5.962   0.633   5.053  0.2684  0.5059  0.1883
  432MOL0     C58194   6.056   0.544   5.113 -0.8598 -0.2980  0.9919
  432MOL0     C58195   6.189   0.540   5.042  0.9359 -0.8106 -1.0053
  432MOL0     C58196   6.280   0.657   5.088 -0.4772 -0.1281 -0.3770
  432MOL0     C58197   6.407   0.654   5.014 -0.6155  0.2032 -0.6549
  432MOL0     C58198   6.506   0.760   5.077  0.0479  0.3865 -0.7125
  432MOL0     C58199   6.576   0.700   5.201  0.8147  0.3815  0.1583
  432MOL0     C58200   6.693   0.793   5.254 -0.3668 -0.6960  0.2150
  432MOL0     C58201   6.746   0.753   5.392  0.3738  0.4873  2.0482
  432MOL0     N58202   6.807   0.868   5.467 -0.2395 -0.0541  0.8069
  432MOL0     C58203   6.944   0.897   5.457 -0.2981 -0.2854  0.0163
  432MOL0     C58204   6.957   1.023   5.497 -0.4411 -0.2876  0.7083
  432MOL0     C58205   7.086   1.101   5.499 -0.0679 -0.5602  0.1593
  432MOL0     C58206   7.184   1.053   5.608 -0.3236  1.4430  0.0643
  432MOL0     C58207   7.112   1.055   5.748  0.1859  0.5618 -0.4218
  432MOL0     C58208   7.214   0.994   5.853  0.8095  0.5932 -1.0624
  432MOL0     O58209   7.341   1.059   5.864 -0.0962  0.7600 -0.0223
  432MOL0     C58210   7.458   0.996   5.818 -0.1988  0.6755 -0.6422
  432MOL0     C58211   7.470   0.884   5.739  0.0908  0.4112 -0.3613
  432MOL0     C58212   7.593   0.846   5.692  0.7171  0.7868 -0.2729
  432MOL0     C58213   7.712   0.918   5.715  0.2714 -0.4271  0.3023
  432MOL0     C58214   7.843   0.863   5.671 -1.3204 -0.2464 -0.7339
  432MOL0     O58215   7.949   0.938   5.702  0.1208 -0.3312  0.8094
  432MOL0     C58216   8.078   0.926   5.659  0.2729  1.2092 -1.0281
  432MOL0     C58217   8.163   1.034   5.698  0.0801  0.4060 -0.3347
  432MOL0     C58218   8.296   1.035   5.661 -1.2270 -0.1245  0.1447
  432MOL0     C58219   8.355   0.931   5.596  0.6389 -0.7942  0.0913
  432MOL0     O58220   8.488   0.944   5.571  0.5894  0.3238 -0.2299
  432MOL0     C58221   8.550   0.814   5.579  1.0763  0.5431  0.0391
  432MOL0     C58222   8.700   0.823   5.611  0.3646  0.4845 -0.0280
  432MOL0     C58223   8.761   0.933   5.529 -0.4561 -0.1213  1.1810
  432MOL0     C58224   8.915   0.922   5.521 -0.0906  0.1324  0.1614
  432MOL0     C58225   8.989   1.045   5.468  0.6045  0.1813 -0.5060
  432MOL0     C58226   9.137   1.019   5.441 -0.0045 -0.1625 -0.0420
  432MOL0     C58227   9.208   1.141   5.393  0.2035 -0.0540  0.0066
  432MOL0     C58228   9.326   1.101   5.313  0.2988  0.4400 -0.2953
  432MOL0    Cl58229   9.434   0.975   5.391 -0.1695 -0.0836  0.1067
  432MOL0     C58230   8.271   0.819   5.557 -0.1963 -0.6040 -0.2514
  432MOL0     C58231   8.136   0.817   5.596 -0.0046  0.0185  0.3629
  432MOL0     O58232   7.850   0.753   5.607 -0.4780 -0.3411 -0.2942
  432MOL0     C58233   7.704   1.038   5.782  0.8678  0.0930  0.1743
  432MOL0     C58234   7.576   1.065   5.833 -0.0127  0.3202 -0.3713
  432MOL0     N58235   6.832   1.072   5.536 -0.0910  0.2059 -0.3011
  432MOL0     N58236   6.740   0.976   5.516  0.0182 -0.3691  0.3148
  432MOL0     C58237   5.760   0.548   5.149 -0.1940 -0.4524  0.1800
  432MOL0     C58238   5.655   0.569   5.241  0.1636  0.0635 -1.2422
  432MOL0     C58239   5.441   0.680   5.619 -0.3916  0.1674 -0.7533
  432MOL0     C58240   5.337   0.770   5.580 -0.0333 -0.8239 -0.1613
  432MOL0     C58241   5.253   0.832   5.667  0.0659  0.1261  0.1051
  432MOL0     C58242   5.237   0.775   5.797  0.8373 -0.0111 -0.3481
  432MOL0     O58243   5.123   0.823   5.868 -0.3444  0.3606 -0.4712
  432MOL0     C58244   5.106   0.783   6.005 -0.3746 -0.0418  0.1848
  432MOL0     C58245   5.054   0.636   6.005 -0.1069  0.4390 -0.0480
  432MOL0     C58246   4.907   0.620   5.940  0.5742 -0.9206  0.1934
  432MOL0     C58247   4.905   0.514   5.824 -0.4258  0.1774  0.4566
  432MOL0     C58248   4.941   0.561   5.686 -0.5325  0.7751 -0.0027
  432MOL0     C58249   4.970   0.598   5.577  0.6640 -0.0520 -0.0537
  432MOL0     C58250   5.330   0.681   5.839  1.0028 -0.1317  0.6711
  432MOL0     C58251   5.439   0.638   5.761 -0.8323 -0.0070  1.2132
  432MOL0     C58252   5.554   0.563   5.824  0.0205 -0.1203 -0.0934
  432MOL0     H58253   5.673   0.902   5.260 -1.1305  0.8198 -3.5950
  432MOL0     H58254   5.869   0.871   5.130 -0.3823 -0.8959 -0.6806
  432MOL0     H58255   6.065   0.591   5.211 -1.6206  0.8033  0.5535
  432MOL0     H58256   6.015   0.443   5.123 -1.8153  0.1457  1.7579
  432MOL0     H58257   6.178   0.554   4.934  4.3761  0.6335 -1.2800
  432MOL0     H58258   6.228   0.441   5.067 -4.4694 -2.5620  2.3288
  432MOL0     H58259   6.303   0.652   5.195 -0.5692 -1.2519 -0.3987
  432MOL0     H58260   6.232   0.752   5.061  0.9056 -0.0725 -2.9827
  432MOL0     H58261   6.444   0.551   5.015 -1.1818 -0.1463 -4.1528
  432MOL0     H58262   6.387   0.681   4.910  4.4480  1.7044 -1.4845
  432MOL0     H58263   6.584   0.775   5.002 -1.2860  2.6021 -1.7910
  432MOL0     H58264   6.448   0.852   5.089  0.0598  0.4199 -0.9110
  432MOL0     H58265   6.505   0.689   5.284 -0.0039  1.3521 -0.3968
  432MOL0     H58266   6.620   0.600   5.192  3.3223  1.2583  1.6487
  432MOL0     H58267   6.647   0.892   5.263  0.7925 -0.0847 -0.2707
  432MOL0     H58268   6.774   0.802   5.181  0.6725 -3.1605  0.9711
  432MOL0     H58269   6.654   0.723   5.443 -0.3684 -2.3031 -0.6735
  432MOL0     H58270   6.812   0.667   5.380 -1.6159 -0.7609 -1.5283
  432MOL0     H58271   7.020   0.823   5.435  1.6701  0.8314  2.5985
  432MOL0     H58272   7.145   1.096   5.407  1.0543  3.0585  0.5145
  432MOL0     H58273   7.057   1.206   5.508  1.0323 -0.1966 -0.3502
  432MOL0     H58274   7.217   0.951   5.584 -0.3940  1.5746 -0.6371
  432MOL0     H58275   7.277   1.109   5.612 -0.1206  1.3890 -2.1663
  432MOL0     H58276   7.025   0.990   5.743  1.7975 -1.7355 -0.2647
  432MOL0     H58277   7.078   1.157   5.765 -2.4379 -0.3794  0.3552
  432MOL0     H58278   7.212   0.887   5.830 -0.1432  0.6247 -1.1669
  432MOL0     H58279   7.169   1.010   5.951  0.8720  1.0225 -1.1041
  432MOL0     H58280   7.391   0.810   5.729  1.6199 -1.4867  0.7370
  432MOL0     H58281   7.601   0.745   5.654 -1.3168  0.5924 -0.2768
  432MOL0     H58282   8.124   1.121   5.751  3.2149  0.7595  1.6435
  432MOL0     H58283   8.354   1.123   5.688  1.9831 -1.2043 -2.5126
  432MOL0     H58284   8.504   0.757   5.661  1.5899  2.2094  1.5559
  432MOL0     H58285   8.542   0.755   5.487 -0.6186  0.2000  0.3765
  432MOL0     H58286   8.722   0.840   5.717  2.6523 -2.2338  0.0500
  432MOL0     H58287   8.750   0.727   5.598 -1.4910 -0.5437  0.0964
  432MOL0     H58288   8.712   0.923   5.432 -0.6331 -1.5903  1.4060
  432MOL0     H58289   8.741   1.028   5.581  1.1899  1.1954 -0.4492
  432MOL0     H58290   8.936   0.837   5.456  0.5392 -0.5266  1.1960
  432MOL0     H58291   8.942   0.896   5.624 -1.9551 -3.5463 -0.1204
  432MOL0     H58292   8.993   1.126   5.542  3.0597 -1.5033  1.3744
  432MOL0     H58293   8.945   1.076   5.373  1.0351  0.8784 -0.4770
  432MOL0     H58294   9.185   0.992   5.536  0.5812 -2.5392 -0.9575
  432MOL0     H58295   9.153   0.942   5.366 -0.9713 -0.1838 -0.2411
  432MOL0     H58296   9.248   1.193   5.481 -1.5933  0.3563  0.6293
  432MOL0     H58297   9.138   1.208   5.343 -3.7269 -2.7968  1.2907
  432MOL0     H58298   9.284   1.066   5.218  0.0206  2.2449 -0.8711
  432MOL0     H58299   9.383   1.192   5.292 -0.5448  0.9535 -0.4041
  432MOL0     H58300   8.307   0.739   5.495 -0.6087 -1.6834  0.8566
  432MOL0     H58301   8.073   0.733   5.570  0.1808  0.3172 -1.1600
  432MOL0     H58302   7.786   1.109   5.793 -0.8929  2.4535 -0.9709
  432MOL0     H58303   7.551   1.160   5.881 -3.0144  0.5031 -2.0838
  432MOL0     H58304   5.788   0.448   5.116 -0.1805 -0.2715 -0.3700
  432MOL0     H58305   5.600   0.481   5.273 -1.9052  1.5097 -0.6271
  432MOL0     H58306   5.326   0.788   5.474 -1.5224  1.0562  0.2561
  432MOL0     H58307   5.178   0.906   5.640  2.0083  1.4289 -2.0465
  432MOL0     H58308   5.038   0.851   6.057  1.3720  1.2624  0.8418
  432MOL0     H58309   5.200   0.785   6.060  0.5729  1.9226 -1.3998
  432MOL0     H58310   5.048   0.598   6.107 -0.1660 -0.2547 -0.3095
  432MOL0     H58311   5.126   0.572   5.953  1.0066  0.0592  1.8911
  432MOL0     H58312   4.876   0.717   5.902 -0.4155 -1.1521  0.3868
  432MOL0     H58313   4.837   0.592   6.020 -0.4645  1.4340  0.1654
  432MOL0     H58314   4.971   0.433   5.856  1.2429  1.1688 -0.3047
  432MOL0     H58315   4.799   0.489   5.824  0.0157 -1.9268 -0.5092
  432MOL0     H58316   4.998   0.647   5.486  2.9309  0.2884  0.7802
  432MOL0     H58317   5.318   0.634   5.936 -0.2403  0.7038  0.9383
  432MOL0     H58318   5.569   0.460   5.793  0.5966 -0.1212  0.1625
  432MOL0     H58319   5.641   0.625   5.803 -0.7911  0.7890 -0.8540
  432MOL0     H58320   5.544   0.566   5.933  1.8790  0.8953  0.1015
  433MOL0     O58321   6.047   6.958   7.625 -0.1826 -0.3800  1.1954
  433MOL0     C58322   5.998   7.062   7.583 -0.1394 -0.8554  0.8993
  433MOL0     O58323   6.073   7.172   7.535  0.0754 -0.2147  0.4303
  433MOL0     C58324   6.214   7.186   7.563 -1.0856 -0.3216  0.3088
  433MOL0     C58325   6.271   7.194   7.693 -0.3508 -0.3466  0.7523
  433MOL0     C58326   6.407   7.213   7.710  0.7560 -0.1751  0.0838
  433MOL0     C58327   6.492   7.234   7.593  0.4977  0.4113 -0.1971
  433MOL0     O58328   6.622   7.266   7.603  0.2071 -0.5250  0.1573
  433MOL0     C58329   6.688   7.251   7.727  0.4572 -0.5719 -0.0934
  433MOL0     C58330   6.837   7.256   7.700 -0.0633 -0.6875 -0.4494
  433MOL0     C58331   6.889   7.385   7.642 -1.0285 -0.5744  0.1125
  433MOL0     C58332   7.038   7.368   7.629 -0.1335  0.0197  0.4322
  433MOL0     C58333   7.090   7.478   7.543  0.3049  0.7147 -0.8934
  433MOL0     C58334   7.237   7.475   7.503  0.2293  0.0137 -0.2689
  433MOL0     C58335   7.338   7.457   7.616 -0.3644  0.6817 -0.0199
  433MOL0     C58336   7.474   7.486   7.558  0.2030  0.2864  0.1651
  433MOL0     N58337   7.584   7.448   7.639  0.1453 -0.3611 -0.2480
  433MOL0     C58338   7.639   7.319   7.623 -0.5159 -0.5481 -0.2482
  433MOL0     C58339   7.763   7.311   7.679 -0.1719 -1.0828 -0.4832
  433MOL0     C58340   7.863   7.195   7.683  0.5105  0.6607 -0.6201
  433MOL0     C58341   7.902   7.148   7.821 -0.3425 -0.1898 -0.1857
  433MOL0     C58342   7.813   7.032   7.883  0.2053 -0.1036 -0.0230
  433MOL0     C58343   7.665   7.065   7.906  0.2840  0.8040  0.0315
  433MOL0     O58344   7.578   7.050   7.791  0.0562 -0.3742 -0.3215
  433MOL0     C58345   7.441   7.068   7.810 -0.5052  0.1818  0.1870
  433MOL0     C58346   7.351   7.029   7.712 -0.5890  0.5216 -0.0025
  433MOL0     C58347   7.210   7.040   7.731  0.0635 -0.7486  0.1005
  433MOL0     C58348   7.155   7.063   7.858  0.4954  0.2174 -0.2304
  433MOL0     C58349   7.014   7.047   7.893  0.1783  0.1498  0.9455
  433MOL0     O58350   6.947   6.956   7.812  0.1740  0.7726  0.3060
  433MOL0     C58351   6.820   6.927   7.844  0.4125 -0.2150 -0.3447
  433MOL0     C58352   6.722   6.933   7.746  0.0241  0.4038  0.2363
  433MOL0     C58353   6.591   6.903   7.771  0.0972 -0.4311 -0.0137
  433MOL0     C58354   6.556   6.844   7.895 -0.0963  0.0207  0.3654
  433MOL0     O58355   6.430   6.816   7.934  0.1519 -0.5597  0.0087
  433MOL0     C58356   6.317   6.871   7.866  0.4784 -0.2501  0.1655
  433MOL0     C58357   6.185   6.814   7.935  0.0243  0.3842 -0.2755
  433MOL0     C58358   6.156   6.889   8.066 -0.0964 -0.1358  0.1296
  433MOL0     C58359   6.081   7.020   8.052  0.3452  0.1812  0.0085
  433MOL0     C58360   5.955   7.005   7.963 -0.0350  0.1249 -0.6641
  433MOL0     C58361   5.865   7.126   7.995 -0.3189 -0.1321 -0.3171
  433MOL0     C58362   5.731   7.116   7.934  0.4855 -0.0417 -0.1028
  433MOL0     C58363   5.629   7.226   7.952  0.3074  0.0833 -0.2389
  433MOL0    Cl58364   5.587   7.276   8.114 -0.2238  0.4214 -0.0023
  433MOL0     C58365   6.654   6.831   7.991  0.2401  0.4375  0.5989
  433MOL0     C58366   6.790   6.870   7.971  0.2099  0.2937 -0.1910
  433MOL0     O58367   6.968   7.100   7.990 -0.4557  0.1543  0.2981
  433MOL0     C58368   7.240   7.107   7.957 -0.5955 -0.4554  0.5968
  433MOL0     C58369   7.383   7.105   7.929  0.2500 -0.0767  0.0616
  433MOL0     N58370   7.783   7.442   7.726 -0.0215 -0.4430  0.2590
  433MOL0     N58371   7.687   7.519   7.685 -0.9232 -0.2764 -0.9113
  433MOL0     C58372   6.433   7.226   7.459 -1.5913 -0.7238  0.6257
  433MOL0     C58373   6.297   7.200   7.441  0.3713 -0.3080 -0.1074
  433MOL0     C58374   5.850   7.065   7.591 -0.7943  0.5616 -0.4311
  433MOL0     C58375   5.784   7.189   7.557  0.4289  0.6519  0.4991
  433MOL0     C58376   5.643   7.196   7.572  0.3798 -0.4908  0.5961
  433MOL0     C58377   5.561   7.081   7.601 -0.1901 -0.7784  0.7418
  433MOL0     O58378   5.424   7.085   7.622  0.0552 -0.1006  0.1524
  433MOL0     C58379   5.337   7.176   7.551  0.1195  1.1492 -0.3980
  433MOL0     C58380   5.192   7.130   7.590 -0.7503  0.7432  1.2605
  433MOL0     C58381   5.158   7.157   7.734  0.2332 -0.5599  0.3589
  433MOL0     C58382   5.141   7.308   7.759  0.0151  0.3120  0.5818
  433MOL0     C58383   5.268   7.364   7.812 -0.6400 -0.1785 -0.4925
  433MOL0     C58384   5.364   7.427   7.848  0.4633 -0.1851 -0.3752
  433MOL0     C58385   5.625   6.967   7.632 -0.1498  0.2134 -0.1649
  433MOL0     C58386   5.765   6.948   7.626 -0.2406 -0.4180  0.0678
  433MOL0     C58387   5.827   6.812   7.643  0.0966  0.1531 -1.2264
  433MOL0     H58388   6.195   7.182   7.769 -0.8632 -1.0720  0.1320
  433MOL0     H58389   6.436   7.230   7.814  2.8070 -2.2011 -0.0769
  433MOL0     H58390   6.661   7.331   7.797  0.6605 -2.0655  1.7888
  433MOL0     H58391   6.650   7.166   7.785 -0.1073  1.7447  3.2346
  433MOL0     H58392   6.855   7.175   7.628 -1.0863  1.1264 -2.8824
  433MOL0     H58393   6.874   7.239   7.801 -0.8712  0.8810  0.1355
  433MOL0     H58394   6.879   7.478   7.700  0.6201  0.0321 -0.5272
  433MOL0     H58395   6.847   7.403   7.543  2.1788  0.4539 -1.1802
  433MOL0     H58396   7.098   7.371   7.720 -0.4571 -1.1175  0.7028
  433MOL0     H58397   7.055   7.279   7.567 -0.8439 -0.0071  0.2694
  433MOL0     H58398   7.036   7.467   7.449  0.0523 -1.8582 -0.4967
  433MOL0     H58399   7.068   7.576   7.588  1.8598  1.3992 -1.5372
  433MOL0     H58400   7.235   7.384   7.443 -1.7802  0.1056 -0.4030
  433MOL0     H58401   7.270   7.556   7.437  0.3299 -1.2990 -1.8731
  433MOL0     H58402   7.341   7.359   7.664  1.8284  0.6253 -0.1797
  433MOL0     H58403   7.324   7.534   7.692  0.2165  0.3609  0.4124
  433MOL0     H58404   7.476   7.436   7.461  0.2514 -0.3911  0.5151
  433MOL0     H58405   7.485   7.591   7.527 -1.4068 -0.2590 -2.6016
  433MOL0     H58406   7.595   7.228   7.582 -0.1356 -0.0821 -1.7754
  433MOL0     H58407   7.817   7.111   7.631 -0.2523 -0.1897  1.3392
  433MOL0     H58408   7.951   7.230   7.626 -0.3208 -1.1882 -3.2229
  433MOL0     H58409   8.006   7.117   7.815 -0.1818  0.0361  1.0124
  433MOL0     H58410   7.906   7.232   7.891 -0.1779  0.0136 -0.4393
  433MOL0     H58411   7.849   7.017   7.985  1.4527  3.8809  0.2824
  433MOL0     H58412   7.819   6.943   7.820 -4.9093 -0.8787  0.1632
  433MOL0     H58413   7.660   7.171   7.932 -0.3835  0.9141 -0.5088
  433MOL0     H58414   7.630   7.010   7.994 -0.6767  0.9346 -0.2487
  433MOL0     H58415   7.389   7.013   7.611  1.1408  0.5139  0.6111
  433MOL0     H58416   7.140   7.029   7.649 -1.5157  0.0151  1.3010
  433MOL0     H58417   6.745   6.967   7.646 -0.9435 -1.7416 -0.7672
  433MOL0     H58418   6.520   6.923   7.691  1.2299  1.1017 -0.6872
  433MOL0     H58419   6.314   6.979   7.877 -2.4561 -0.4585  2.7270
  433MOL0     H58420   6.313   6.829   7.765 -3.2577 -1.7847  0.7717
  433MOL0     H58421   6.115   6.828   7.852  2.0807 -1.4608 -2.5114
  433MOL0     H58422   6.199   6.707   7.955 -0.0981  0.7723  2.1166
  433MOL0     H58423   6.106   6.823   8.138  1.9855 -1.2731  0.6261
  433MOL0     H58424   6.252   6.918   8.108  0.5794  0.2679 -1.6015
  433MOL0     H58425   6.151   7.094   8.013 -0.1331  0.9976  0.6687
  433MOL0     H58426   6.068   7.060   8.153  1.5040 -0.7224  0.5510
  433MOL0     H58427   5.913   6.909   7.996  1.3377  0.3149  1.9673
  433MOL0     H58428   5.982   7.008   7.857  0.4599  0.5295 -0.5260
  433MOL0     H58429   5.854   7.136   8.103  1.6318 -1.3834  0.0569
  433MOL0     H58430   5.910   7.218   7.955 -3.4551  0.0731 -3.8417
  433MOL0     H58431   5.700   7.019   7.974  2.2690 -0.3902  0.5278
  433MOL0     H58432   5.746   7.105   7.826 -1.5350 -0.4852 -0.3859
  433MOL0     H58433   5.666   7.318   7.907  0.4194  0.4916  0.6745
  433MOL0     H58434   5.540   7.199   7.894 -2.7524  2.3259  3.0073
  433MOL0     H58435   6.625   6.800   8.091 -0.9761  2.7310  1.0260
  433MOL0     H58436   6.870   6.855   8.043  0.4515 -0.5310 -0.6154
  433MOL0     H58437   7.213   7.159   8.048  0.6173  0.2430  0.5769
  433MOL0     H58438   7.448   7.132   8.011 -0.3938 -2.2365  1.3535
  433MOL0     H58439   6.491   7.256   7.372 -0.4592 -0.9784  1.2623
  433MOL0     H58440   6.252   7.194   7.342 -0.6826  0.8364  0.2865
  433MOL0     H58441   5.845   7.272   7.523 -0.8013  0.7026 -1.7384
  433MOL0     H58442   5.593   7.290   7.553 -2.3892 -1.4470  2.4476
  433MOL0     H58443   5.350   7.168   7.443  1.7920  1.3846 -0.2280
  433MOL0     H58444   5.358   7.278   7.584  0.1476  0.5210  1.6563
  433MOL0     H58445   5.204   7.023   7.572  2.4583  1.5726 -3.0922
  433MOL0     H58446   5.110   7.161   7.524  0.5799  1.3874 -0.1446
  433MOL0     H58447   5.235   7.121   7.803  1.2672  4.2063  2.1059
  433MOL0     H58448   5.061   7.117   7.763 -0.0894 -0.3969 -0.4490
  433MOL0     H58449   5.111   7.349   7.662  0.8090 -1.1949 -0.3480
  433MOL0     H58450   5.055   7.320   7.824 -2.9460  0.3724 -2.9898
  433MOL0     H58451   5.437   7.495   7.887 -1.6072  0.9722  1.8047
  433MOL0     H58452   5.564   6.877   7.643 -0.3916  0.2831 -0.8881
  433MOL0     H58453   5.748   6.736   7.633 -0.2398 -0.0266  1.8023
  433MOL0     H58454   5.903   6.784   7.570  1.9325  4.3303 -1.1818
  433MOL0     H58455   5.863   6.796   7.745  1.7135 -1.3219 -1.9643
  434MOL0     O58456   0.150   2.032   7.075  0.1216  0.0422 -0.3004
  434MOL0     C58457   0.138   1.940   7.148  0.5101  0.4324 -0.5277
  434MOL0     O58458   0.215   1.921   7.257  0.2840  0.3023 -0.6910
  434MOL0     C58459   0.292   2.018   7.316  0.2079  0.7154 -0.7337
  434MOL0     C58460   0.422   1.977   7.355  0.1497 -0.8438  0.7548
  434MOL0     C58461   0.509   2.072   7.410  0.7343  0.6643  0.5039
  434MOL0     C58462   0.463   2.196   7.446  0.6342  0.4095  0.8765
  434MOL0     O58463   0.540   2.289   7.524  0.4661  0.4003 -0.2819
  434MOL0     C58464   0.681   2.308   7.493 -0.0808 -0.2909  0.3661
  434MOL0     C58465   0.757   2.259   7.618  0.3128  0.2682 -0.4810
  434MOL0     C58466   0.866   2.160   7.594 -0.1541  0.2834 -0.1604
  434MOL0     C58467   0.980   2.177   7.703 -0.0315  0.7797 -0.4422
  434MOL0     C58468   1.101   2.086   7.684  0.0756  0.7565  0.0958
  434MOL0     C58469   1.218   2.102   7.779 -0.7349 -0.9238  0.4072
  434MOL0     C58470   1.324   2.003   7.738 -0.1398  0.1266  0.1078
  434MOL0     C58471   1.440   1.994   7.845  0.7044 -0.3106 -0.3205
  434MOL0     N58472   1.511   1.865   7.840  0.6975  0.5948 -0.1941
  434MOL0     C58473   1.543   1.792   7.954  0.4980 -0.0271 -0.4622
  434MOL0     C58474   1.628   1.692   7.918 -0.0463  0.3899  0.2731
  434MOL0     C58475   1.711   1.601   7.996 -0.0068 -0.3771  0.3481
  434MOL0     C58476   1.833   1.666   8.045  0.9632  0.3615  0.2012
  434MOL0     C58477   1.937   1.562   8.083 -0.1072  0.2502 -0.3392
  434MOL0     C58478   2.070   1.629   8.117 -0.1878  0.6542 -0.8253
  434MOL0     O58479   2.062   1.717   8.233 -0.4542  0.1176 -0.3918
  434MOL0     C58480   2.186   1.778   8.275 -0.2854 -0.3005 -0.0266
  434MOL0     C58481   2.317   1.748   8.228  0.1369  0.2797  0.2563
  434MOL0     C58482   2.424   1.808   8.280 -0.2449  0.1226 -0.5601
  434MOL0     C58483   2.410   1.902   8.387  0.2906 -0.4373 -0.1275
  434MOL0     C58484   2.528   1.958   8.459  0.6597  0.3645  0.3974
  434MOL0     O58485   2.497   2.048   8.559 -0.6862  0.9562  0.3549
  434MOL0     C58486   2.604   2.095   8.637  0.9678  0.3438  0.2493
  434MOL0     C58487   2.578   2.220   8.703  0.3287  0.2868 -0.5055
  434MOL0     C58488   2.680   2.281   8.785  0.6523  0.2684  0.1204
  434MOL0     C58489   2.801   2.218   8.814  0.6707  0.4177 -0.7744
  434MOL0     O58490   2.903   2.259   8.893 -0.0288  0.4627  0.8315
  434MOL0     C58491   2.868   2.377   8.972 -0.0278  0.2225 -0.0205
  434MOL0     C58492   2.984   2.432   9.060  0.5000 -0.4350 -0.4313
  434MOL0     C58493   3.111   2.439   8.984  0.1482  0.7331  0.1296
  434MOL0     C58494   3.234   2.445   9.075  0.2834  0.4599 -0.2549
  434MOL0     C58495   3.362   2.453   9.002  0.1327 -0.3420 -0.3007
  434MOL0     C58496   3.491   2.432   9.080 -0.2762  0.4834  0.4778
  434MOL0     C58497   3.550   2.292   9.096  0.3709 -0.2036 -0.2633
  434MOL0     C58498   3.653   2.294   9.209 -0.0799 -0.2938  0.2252
  434MOL0    Cl58499   3.807   2.288   9.135 -0.1780  0.1401 -0.0946
  434MOL0     C58500   2.824   2.099   8.747 -0.4256 -0.1371  0.5101
  434MOL0     C58501   2.730   2.037   8.659  0.4264  0.0804  0.1976
  434MOL0     O58502   2.641   1.926   8.411  0.6828  0.2065 -0.0974
  434MOL0     C58503   2.275   1.949   8.425  0.0666 -0.1542  0.2949
  434MOL0     C58504   2.164   1.882   8.370  0.6939 -0.9870  0.2906
  434MOL0     N58505   1.626   1.697   7.781  0.2302  0.4833  0.9436
  434MOL0     N58506   1.558   1.802   7.736  1.2175 -0.0789  0.2066
  434MOL0     C58507   0.338   2.224   7.414 -0.3771 -0.1188  0.0056
  434MOL0     C58508   0.246   2.139   7.353 -0.3144  0.1494  0.2002
  434MOL0     C58509   0.029   1.846   7.108  0.2362  0.7636 -0.5588
  434MOL0     C58510  -0.081   1.888   7.030 -0.7045  0.3063 -0.0976
  434MOL0     C58511  -0.184   1.810   6.974  0.0771 -1.3202 -0.0051
  434MOL0     C58512  -0.167   1.676   6.989  0.2871  0.3300  0.4458
  434MOL0     O58513  -0.236   1.590   6.904  0.2786  0.0949 -0.4749
  434MOL0     C58514  -0.378   1.598   6.899  0.3661 -0.3869  0.2782
  434MOL0     C58515  -0.448   1.579   7.026 -0.3179 -0.3253  0.4613
  434MOL0     C58516  -0.601   1.576   7.004 -0.9316 -0.2624 -0.1417
  434MOL0     C58517  -0.665   1.708   6.988 -0.2772  0.1252 -0.1015
  434MOL0     C58518  -0.804   1.677   6.970  0.2193 -0.3962  0.0403
  434MOL0     C58519  -0.916   1.653   6.952  0.0179  0.5573 -0.0360
  434MOL0     C58520  -0.071   1.624   7.070 -0.6084  0.2411  0.0066
  434MOL0     C58521   0.035   1.710   7.121 -0.7076 -0.1767  0.0748
  434MOL0     C58522   0.135   1.647   7.210 -1.6672  0.3843 -0.3906
  434MOL0     H58523   0.456   1.876   7.334  3.2973 -0.1109  1.7428
  434MOL0     H58524   0.616   2.059   7.426  1.4068  3.1633 -1.4305
  434MOL0     H58525   0.711   2.249   7.406 -3.3465 -1.6525  0.0406
  434MOL0     H58526   0.704   2.415   7.482 -0.1456 -0.2929  0.2210
  434MOL0     H58527   0.689   2.217   7.693  1.6195 -2.9138 -0.9025
  434MOL0     H58528   0.802   2.351   7.658  0.0633  1.1210 -2.0876
  434MOL0     H58529   0.903   2.166   7.491 -0.2863 -0.5770 -0.2591
  434MOL0     H58530   0.824   2.061   7.613 -2.8318  0.8645 -2.5379
  434MOL0     H58531   1.010   2.281   7.688 -0.5726  0.8682 -0.9372
  434MOL0     H58532   0.942   2.171   7.805 -0.2111 -0.8288 -0.5839
  434MOL0     H58533   1.055   1.988   7.674 -0.1077  0.8439  0.0718
  434MOL0     H58534   1.134   2.116   7.584  0.3191  1.1997  0.3058
  434MOL0     H58535   1.255   2.205   7.781  1.8513 -1.7850  2.7261
  434MOL0     H58536   1.195   2.068   7.881  3.5073 -0.5341  1.6730
  434MOL0     H58537   1.366   2.035   7.643 -2.2418  0.4185 -0.7778
  434MOL0     H58538   1.282   1.903   7.727  1.3342 -0.2825 -2.4700
  434MOL0     H58539   1.519   2.066   7.818  1.3711 -0.4208  1.2468
  434MOL0     H58540   1.398   2.008   7.945  0.7851  2.3542 -0.5901
  434MOL0     H58541   1.506   1.816   8.053  0.7111  0.6017 -0.5322
  434MOL0     H58542   1.653   1.559   8.079 -0.0632  4.3740  3.0983
  434MOL0     H58543   1.736   1.517   7.930 -2.1277 -2.2364  1.7516
  434MOL0     H58544   1.859   1.743   7.972 -0.5496 -0.7169 -1.5803
  434MOL0     H58545   1.812   1.718   8.139  2.0726  0.5147  0.3837
  434MOL0     H58546   1.956   1.491   8.002  4.5513  1.5074 -0.5920
  434MOL0     H58547   1.911   1.511   8.177  2.5928  1.6197  1.2602
  434MOL0     H58548   2.098   1.680   8.025  0.0338  3.2047  0.5612
  434MOL0     H58549   2.149   1.557   8.142  0.1140  0.7280 -1.5670
  434MOL0     H58550   2.332   1.680   8.145 -0.3332  1.0730 -0.4882
  434MOL0     H58551   2.526   1.794   8.245  0.6799  2.8755  0.7423
  434MOL0     H58552   2.483   2.266   8.679  0.4670  0.6460 -0.3588
  434MOL0     H58553   2.646   2.378   8.819 -0.7704  0.1516 -0.9227
  434MOL0     H58554   2.841   2.454   8.899  0.7581 -1.7814 -2.5765
  434MOL0     H58555   2.782   2.344   9.030 -0.2977 -0.2893 -0.6991
  434MOL0     H58556   2.970   2.537   9.090  0.8020 -0.6998  0.6801
  434MOL0     H58557   2.991   2.364   9.145  2.5782  2.4842  1.9212
  434MOL0     H58558   3.123   2.356   8.913 -0.9111  1.2039 -0.6282
  434MOL0     H58559   3.110   2.532   8.926 -2.6972  1.9863  1.9643
  434MOL0     H58560   3.231   2.357   9.139 -0.9086  0.1969 -0.6545
  434MOL0     H58561   3.221   2.534   9.138  0.9521  2.8204 -3.1807
  434MOL0     H58562   3.361   2.555   8.962 -0.8025  0.0266  0.6144
  434MOL0     H58563   3.353   2.395   8.909  0.4757  1.0814 -1.2552
  434MOL0     H58564   3.570   2.495   9.039 -2.2310  1.1537 -2.5645
  434MOL0     H58565   3.471   2.485   9.174 -0.9112  0.1369  0.5453
  434MOL0     H58566   3.601   2.253   9.007  0.3738 -1.3645  0.2308
  434MOL0     H58567   3.472   2.221   9.122  1.5218 -1.7551 -0.9212
  434MOL0     H58568   3.640   2.382   9.273  0.3012 -1.3361  1.7644
  434MOL0     H58569   3.628   2.208   9.271  0.9404 -2.5753 -2.3172
  434MOL0     H58570   2.922   2.056   8.764 -0.5617 -0.1068  1.3994
  434MOL0     H58571   2.747   1.940   8.613  2.3142  0.1143  0.7269
  434MOL0     H58572   2.250   2.023   8.500 -2.4997 -2.0849  1.5474
  434MOL0     H58573   2.064   1.889   8.410  0.6133  0.0358 -0.0704
  434MOL0     H58574   0.303   2.326   7.427 -0.9711  0.2045 -3.3681
  434MOL0     H58575   0.158   2.187   7.312  0.5629  1.6181 -0.0648
  434MOL0     H58576  -0.083   1.995   7.013 -0.2589  0.1474 -1.2563
  434MOL0     H58577  -0.254   1.864   6.911  0.0769 -0.4043  0.7580
  434MOL0     H58578  -0.417   1.524   6.828 -0.5285  1.8081 -1.6702
  434MOL0     H58579  -0.402   1.698   6.862 -0.7213 -1.2039 -1.3459
  434MOL0     H58580  -0.426   1.661   7.095  2.3771  0.7472 -1.5282
  434MOL0     H58581  -0.412   1.484   7.064 -0.8129  0.0331  1.8876
  434MOL0     H58582  -0.662   1.537   7.085 -3.2759  1.3980 -0.9845
  434MOL0     H58583  -0.632   1.517   6.917  0.5833 -0.7747 -0.3605
  434MOL0     H58584  -0.640   1.766   7.077  1.8373 -0.6066 -0.1590
  434MOL0     H58585  -0.638   1.769   6.901 -0.6421  1.0974  0.4536
  434MOL0     H58586  -1.019   1.629   6.938 -0.0028  0.5928  0.0541
  434MOL0     H58587  -0.069   1.516   7.065 -2.5015  0.2051 -0.8232
  434MOL0     H58588   0.136   1.696   7.308 -0.9504 -0.1110 -0.1366
  434MOL0     H58589   0.105   1.544   7.231  0.9159 -0.1558  1.1606
  434MOL0     H58590   0.240   1.643   7.178 -1.1540  1.0451  1.1056
  435MOL0     O58591   2.196   9.535   8.784 -0.1266  0.3186 -0.5865
  435MOL0     C58592   2.200   9.516   8.665 -0.6964 -0.4033  0.5338
  435MOL0     O58593   2.293   9.584   8.575  0.2777  0.1832 -0.3415
  435MOL0     C58594   2.407   9.661   8.609  0.0321  1.0096 -0.2237
  435MOL0     C58595   2.449   9.688   8.739 -1.3945 -0.8748 -0.0064
  435MOL0     C58596   2.555   9.777   8.768  0.5241 -0.0103  0.5117
  435MOL0     C58597   2.628   9.834   8.664  0.0432  0.3587  0.1192
  435MOL0     O58598   2.743   9.900   8.681  0.4477 -0.6877  0.4983
  435MOL0     C58599   2.811   9.906   8.812 -0.0113 -0.6927  0.0773
  435MOL0     C58600   2.909   9.786   8.837 -0.0841  0.4464 -0.1205
  435MOL0     C58601   2.857   9.644   8.848  0.3987  0.8743  1.1784
  435MOL0     C58602   2.967   9.542   8.879 -0.1772  0.5730  0.5357
  435MOL0     C58603   3.003   9.453   8.759 -0.4459 -0.0758 -0.0517
  435MOL0     C58604   3.062   9.528   8.633  0.2101 -0.8587 -0.0961
  435MOL0     C58605   3.201   9.586   8.680 -0.4500 -0.0119 -0.9035
  435MOL0     C58606   3.286   9.628   8.571 -0.2882 -0.0856 -0.0576
  435MOL0     N58607   3.425   9.665   8.618  0.3278  0.0524 -0.1773
  435MOL0     C58608   3.532   9.685   8.546 -0.1629 -0.3657  0.8568
  435MOL0     C58609   3.638   9.700   8.629  0.5654  0.1855  0.0551
  435MOL0     C58610   3.779   9.737   8.588 -0.9009 -0.2374 -0.1400
  435MOL0     C58611   3.862   9.611   8.530 -0.0242 -0.4661 -0.2330
  435MOL0     C58612   4.009   9.642   8.494 -0.3531 -0.7258 -0.3016
  435MOL0     C58613   4.084   9.519   8.441  0.3589  0.0911  0.5506
  435MOL0     O58614   4.200   9.559   8.367 -0.1379  0.1110  0.1942
  435MOL0     C58615   4.306   9.604   8.446  0.0834  0.0770 -0.8882
  435MOL0     C58616   4.391   9.510   8.515  0.2754  0.2566  0.6399
  435MOL0     C58617   4.511   9.552   8.577  0.2110 -0.4555 -0.1221
  435MOL0     C58618   4.557   9.691   8.574  0.2302  0.7513 -0.7275
  435MOL0     C58619   4.684   9.742   8.636  0.5515  0.7785  0.2516
  435MOL0     O58620   4.765   9.647   8.672 -0.0946 -0.3628 -0.5039
  435MOL0     C58621   4.891   9.686   8.703  0.2634 -0.0060  0.2484
  435MOL0     C58622   4.931   9.635   8.827  0.0298 -0.0960 -0.0489
  435MOL0     C58623   5.060   9.649   8.869 -0.4261  0.0983 -0.4728
  435MOL0     C58624   5.166   9.714   8.791  0.6167 -0.1255  0.3438
  435MOL0     O58625   5.298   9.733   8.828 -0.5349 -0.5063 -0.0519
  435MOL0     C58626   5.321   9.759   8.970  0.7437  0.1824  0.4607
  435MOL0     C58627   5.473   9.738   8.992 -0.2467  0.4427 -0.1145
  435MOL0     C58628   5.501   9.588   8.970  0.1597 -0.4485 -0.3464
  435MOL0     C58629   5.637   9.544   9.027  0.0151 -0.1113  0.8477
  435MOL0     C58630   5.672   9.399   8.993  0.4518  0.3001 -0.3023
  435MOL0     C58631   5.731   9.396   8.850  0.2521  0.7757 -0.1759
  435MOL0     C58632   5.780   9.251   8.824 -0.0338 -0.8040 -0.4240
  435MOL0     C58633   5.862   9.241   8.702 -0.7546 -0.4325 -0.1977
  435MOL0    Cl58634   5.789   9.311   8.555  0.3579  0.1258 -0.2152
  435MOL0     C58635   5.115   9.772   8.672 -0.8747  1.0672 -0.1967
  435MOL0     C58636   4.981   9.763   8.626  0.1386  0.2909 -0.2882
  435MOL0     O58637   4.713   9.854   8.612  0.2600 -0.0862 -0.3576
  435MOL0     C58638   4.468   9.784   8.499  0.2269 -0.0284  0.0650
  435MOL0     C58639   4.351   9.741   8.429 -0.3739  0.1962  0.2333
  435MOL0     N58640   3.588   9.688   8.758 -0.0681 -0.3212  0.0878
  435MOL0     N58641   3.464   9.671   8.748 -0.6570 -0.4537 -0.6760
  435MOL0     C58642   2.574   9.816   8.538 -0.7017  0.1129  0.2676
  435MOL0     C58643   2.466   9.738   8.505  0.1686  0.8532 -0.2084
  435MOL0     C58644   2.097   9.427   8.600  0.4467 -0.1161  0.6123
  435MOL0     C58645   2.076   9.434   8.460  0.1666  0.3176  0.3647
  435MOL0     C58646   1.974   9.359   8.400 -0.4172 -0.1414  0.9129
  435MOL0     C58647   1.908   9.272   8.484  0.4121 -0.0921  0.5311
  435MOL0     O58648   1.814   9.173   8.434 -0.7410  0.3036  0.1218
  435MOL0     C58649   1.861   9.116   8.306 -0.1919 -0.7477 -1.2843
  435MOL0     C58650   1.781   8.993   8.282  1.2779 -0.1570  0.2288
  435MOL0     C58651   1.630   9.016   8.281 -0.1717 -0.0260 -0.2306
  435MOL0     C58652   1.579   9.090   8.161  0.4928  0.9589 -0.1092
  435MOL0     C58653   1.617   9.020   8.032  0.2352  0.0196  0.0703
  435MOL0     C58654   1.643   8.965   7.928  0.4232 -0.7253 -0.7176
  435MOL0     C58655   1.930   9.253   8.616 -0.1562  0.4211 -0.3914
  435MOL0     C58656   2.025   9.331   8.678  0.3884  0.7342 -0.5943
  435MOL0     C58657   2.048   9.303   8.819 -0.3900  0.3459  0.5553
  435MOL0     H58658   2.403   9.645   8.828 -0.4548  0.9028  1.4080
  435MOL0     H58659   2.579   9.813   8.867 -2.0295 -0.5426  1.4151
  435MOL0     H58660   2.865  10.001   8.807  1.8538 -1.7155  0.0456
  435MOL0     H58661   2.741   9.911   8.896  0.1335 -2.7343  0.3586
  435MOL0     H58662   2.973   9.809   8.923  0.4812 -2.8704  0.4817
  435MOL0     H58663   2.972   9.786   8.748  2.8508 -0.3905  1.8224
  435MOL0     H58664   2.800   9.623   8.758 -0.1228 -1.1691  1.9263
  435MOL0     H58665   2.781   9.645   8.927  0.6676  0.6104  1.4443
  435MOL0     H58666   3.051   9.598   8.922 -1.7784  2.8353  0.9032
  435MOL0     H58667   2.950   9.482   8.968  0.9607 -0.4729  0.0705
  435MOL0     H58668   3.075   9.374   8.784 -3.2028 -2.8037 -0.1923
  435MOL0     H58669   2.906   9.406   8.740 -1.1997  1.0352  0.9209
  435MOL0     H58670   3.076   9.459   8.550  1.4870  0.5861 -1.1424
  435MOL0     H58671   2.990   9.604   8.602 -1.3691 -3.1422 -2.3910
  435MOL0     H58672   3.261   9.517   8.741  1.2815  0.9282 -1.4912
  435MOL0     H58673   3.178   9.672   8.743 -1.5448  0.0275 -1.3248
  435MOL0     H58674   3.301   9.547   8.498 -1.0837  0.7910 -1.2249
  435MOL0     H58675   3.234   9.710   8.521  1.7206  2.0439  1.1382
  435MOL0     H58676   3.551   9.686   8.439 -0.1142 -0.3688  0.8657
  435MOL0     H58677   3.773   9.815   8.512  0.2812  1.8636  1.7856
  435MOL0     H58678   3.822   9.782   8.679 -1.2389 -0.0610 -0.0669
  435MOL0     H58679   3.871   9.540   8.613  1.5258  1.2042  1.1278
  435MOL0     H58680   3.810   9.575   8.442  1.8001 -2.7948 -0.4629
  435MOL0     H58681   4.061   9.690   8.577 -1.4317  2.5889 -1.3475
  435MOL0     H58682   3.996   9.723   8.421  0.5863  2.2239  2.5466
  435MOL0     H58683   4.030   9.448   8.376  0.7063  0.3736 -0.0593
  435MOL0     H58684   4.122   9.462   8.526 -0.5577 -0.0911  0.8501
  435MOL0     H58685   4.360   9.407   8.530 -1.2029  0.7480  1.1705
  435MOL0     H58686   4.582   9.478   8.613 -0.2742 -0.7767  0.1817
  435MOL0     H58687   4.855   9.578   8.880  0.2656 -0.6561 -0.2982
  435MOL0     H58688   5.091   9.607   8.964  0.2017  2.9858  0.7014
  435MOL0     H58689   5.288   9.861   8.994  0.7290  0.5370 -0.9525
  435MOL0     H58690   5.271   9.683   9.030  1.6003 -1.2958 -0.6406
  435MOL0     H58691   5.525   9.806   8.924 -1.6622  2.3670  0.6262
  435MOL0     H58692   5.495   9.771   9.094 -1.8306 -0.5659  0.6036
  435MOL0     H58693   5.420   9.539   9.026 -1.7443  1.9245 -0.8243
  435MOL0     H58694   5.488   9.558   8.866 -0.4142 -3.7439  0.5688
  435MOL0     H58695   5.628   9.559   9.135  2.6713 -1.1574  1.3077
  435MOL0     H58696   5.719   9.613   9.001 -0.9232  1.1925  1.2241
  435MOL0     H58697   5.591   9.328   9.010  0.5028  0.0111 -1.2024
  435MOL0     H58698   5.745   9.370   9.069  1.1322 -0.6349 -1.2733
  435MOL0     H58699   5.657   9.422   8.773  0.4532  1.3517 -0.1790
  435MOL0     H58700   5.814   9.467   8.850  1.2252 -0.2890  1.8140
  435MOL0     H58701   5.686   9.201   8.799 -0.3353  0.4721 -1.9689
  435MOL0     H58702   5.837   9.216   8.911 -1.5951  0.8894  1.3867
  435MOL0     H58703   5.956   9.297   8.714 -0.5534 -0.4653 -1.4669
  435MOL0     H58704   5.890   9.136   8.686  2.1075 -0.0278  1.3662
  435MOL0     H58705   5.197   9.825   8.623 -0.4911 -1.6365 -2.7380
  435MOL0     H58706   4.960   9.817   8.535 -0.5031  0.8415  0.1757
  435MOL0     H58707   4.494   9.890   8.495 -0.2225  0.0560 -0.9310
  435MOL0     H58708   4.295   9.819   8.378  0.0448  1.5342  1.7348
  435MOL0     H58709   2.636   9.874   8.469 -0.8217  0.3622  0.3683
  435MOL0     H58710   2.430   9.721   8.403  0.9313 -0.5275 -0.2585
  435MOL0     H58711   2.140   9.496   8.397  1.1078 -1.2588 -0.2873
  435MOL0     H58712   1.955   9.375   8.295 -1.2853 -1.5462  0.8243
  435MOL0     H58713   1.969   9.096   8.317  0.4893  3.2704  1.3902
  435MOL0     H58714   1.851   9.195   8.232 -0.9247 -1.0414 -1.5011
  435MOL0     H58715   1.807   8.914   8.353 -0.0989 -1.3069 -0.4964
  435MOL0     H58716   1.813   8.954   8.185  1.0381  0.5790 -0.1571
  435MOL0     H58717   1.605   9.070   8.372 -0.4801  1.1652 -0.9977
  435MOL0     H58718   1.583   8.917   8.286  1.5278 -0.8537  0.0620
  435MOL0     H58719   1.470   9.085   8.169  0.4846  1.4311  0.0943
  435MOL0     H58720   1.594   9.198   8.166 -0.4655  1.2587 -2.5396
  435MOL0     H58721   1.671   8.917   7.836  0.7789  1.7842 -2.0251
  435MOL0     H58722   1.871   9.181   8.672 -0.3616  1.2802  0.5396
  435MOL0     H58723   2.014   9.204   8.852  1.8347 -0.2849  1.1336
  435MOL0     H58724   2.155   9.301   8.844  0.3295  0.5063 -2.1563
  435MOL0     H58725   2.009   9.382   8.883 -0.7657  1.0714 -0.5459
  436MOL0     O58726   0.293   9.872   5.270 -0.9894  0.4870  0.5817
  436MOL0     C58727   0.258   9.938   5.179  0.1558 -0.7469 -0.6059
  436MOL0     O58728   0.346  10.010   5.096  0.1336 -0.2212  0.4387
  436MOL0     C58729   0.481   9.986   5.105 -1.4033  0.2248  0.2423
  436MOL0     C58730   0.556  10.074   5.176 -0.0043 -0.3618  0.4451
  436MOL0     C58731   0.698  10.065   5.181 -0.8222 -0.0302  0.2450
  436MOL0     C58732   0.774   9.964   5.109  0.0009  1.3153 -0.4484
  436MOL0     O58733   0.915   9.945   5.095  0.9720 -0.4063 -0.4274
  436MOL0     C58734   0.985  10.014   5.199 -0.1924 -0.3276 -0.8542
  436MOL0     C58735   1.127   9.959   5.203  0.2574 -0.8885 -0.1432
  436MOL0     C58736   1.186  10.027   5.327 -0.5318 -0.0510  0.4289
  436MOL0     C58737   1.326   9.989   5.346 -0.2477 -0.7888  0.1780
  436MOL0     C58738   1.413  10.063   5.449  0.0258 -1.3662 -0.5420
  436MOL0     C58739   1.541   9.991   5.467  0.7038  0.8309  0.6187
  436MOL0     C58740   1.649  10.057   5.554 -0.2455  0.3131  0.2245
  436MOL0     C58741   1.767   9.960   5.557 -0.4020 -0.2657  0.6188
  436MOL0     N58742   1.879  10.018   5.632 -0.5644  0.2626 -0.2541
  436MOL0     C58743   1.935   9.970   5.745 -0.5457  0.5398 -0.1587
  436MOL0     C58744   2.050  10.036   5.763 -0.0662 -0.2320  0.3458
  436MOL0     C58745   2.167  10.004   5.859 -0.0586 -0.0889 -0.9539
  436MOL0     C58746   2.125  10.023   6.006  0.4262 -0.5047  0.0998
  436MOL0     C58747   2.241   9.961   6.086 -0.3508 -1.0901  0.5237
  436MOL0     C58748   2.284  10.039   6.208  0.5021 -0.3678  0.0423
  436MOL0     O58749   2.375   9.968   6.291 -0.3779  0.8549 -0.4695
  436MOL0     C58750   2.507   9.958   6.253  1.4153 -0.4436 -0.5123
  436MOL0     C58751   2.586  10.074   6.266  0.1668 -0.5039 -0.7650
  436MOL0     C58752   2.721  10.068   6.242 -0.5172  0.1087  0.7329
  436MOL0     C58753   2.780   9.951   6.186  0.0252  0.5747 -0.3179
  436MOL0     C58754   2.922   9.959   6.147 -1.5074 -0.3673  0.4239
  436MOL0     O58755   3.009  10.048   6.210 -0.4323  0.3037 -0.3843
  436MOL0     C58756   3.132  10.062   6.160 -0.8457 -0.2782 -0.2224
  436MOL0     C58757   3.179  10.193   6.140  0.2132  1.4254 -0.3320
  436MOL0     C58758   3.306  10.219   6.070  0.3932 -0.9687  0.2030
  436MOL0     C58759   3.392  10.118   6.030  0.3573 -0.4493 -0.3854
  436MOL0     O58760   3.510  10.163   5.974 -0.3559  0.1113 -0.0873
  436MOL0     C58761   3.578  10.059   5.893  0.5294  0.1718 -0.4254
  436MOL0     C58762   3.696  10.123   5.823  0.7025 -0.3878  0.9294
  436MOL0     C58763   3.756  10.027   5.731 -0.2149 -0.4284 -0.6145
  436MOL0     C58764   3.866   9.944   5.795 -0.6778 -0.2757  0.1487
  436MOL0     C58765   4.001   9.967   5.715 -0.7448  0.1541  0.0951
  436MOL0     C58766   4.124   9.932   5.811 -0.5156 -0.3247  0.5640
  436MOL0     C58767   4.254   9.923   5.726  0.7448 -0.2752 -0.1165
  436MOL0     C58768   4.384   9.930   5.809 -0.3833  0.1398  0.3935
  436MOL0    Cl58769   4.387   9.783   5.923 -0.3099 -0.0955  0.0541
  436MOL0     C58770   3.351   9.986   6.053  0.0839  0.1606 -0.1350
  436MOL0     C58771   3.222   9.960   6.119 -0.3017 -0.3373 -0.5590
  436MOL0     O58772   2.952   9.900   6.048 -0.1621 -0.4394 -0.4416
  436MOL0     C58773   2.690   9.844   6.159  0.7595  0.9397  0.7758
  436MOL0     C58774   2.558   9.841   6.201  0.0093 -0.2811 -0.1931
  436MOL0     N58775   2.044  10.151   5.688 -0.0899  0.5007  0.2704
  436MOL0     N58776   1.950  10.136   5.597  0.2124  0.1572  0.2788
  436MOL0     C58777   0.693   9.876   5.031  0.5562 -0.1169 -0.9234
  436MOL0     C58778   0.549   9.892   5.028  0.6973 -0.1785 -0.1384
  436MOL0     C58779   0.110   9.959   5.155 -0.2031  0.3147  0.0331
  436MOL0     C58780   0.070  10.067   5.072 -0.5094  0.3645  0.3126
  436MOL0     C58781  -0.060  10.087   5.032 -0.3187 -0.4482  0.2675
  436MOL0     C58782  -0.166  10.016   5.088  0.4904 -0.7834  0.3014
  436MOL0     O58783  -0.289  10.059   5.035 -0.0481  0.2142  0.2712
  436MOL0     C58784  -0.402   9.981   5.081 -0.0416 -0.4278 -1.4214
  436MOL0     C58785  -0.510   9.992   4.975 -0.4747  0.6919 -0.1695
  436MOL0     C58786  -0.473   9.888   4.863  0.2505  0.0664  0.3471
  436MOL0     C58787  -0.461   9.949   4.737 -0.1235 -0.1907 -0.2099
  436MOL0     C58788  -0.456   9.846   4.640  0.0410  0.2842  0.3513
  436MOL0     C58789  -0.435   9.761   4.563 -0.0551 -0.1401  0.4985
  436MOL0     C58790  -0.145   9.917   5.181 -0.7590 -0.3917  0.1043
  436MOL0     C58791  -0.003   9.890   5.216  0.5876  0.4715 -0.4354
  436MOL0     C58792   0.031   9.804   5.334 -0.1282 -0.9414 -1.0405
  436MOL0     H58793   0.513  10.156   5.232  2.3096  2.0760 -1.0757
  436MOL0     H58794   0.753  10.149   5.223  0.0808 -0.1788 -0.5992
  436MOL0     H58795   1.005  10.121   5.184  2.5186 -0.4570  1.2007
  436MOL0     H58796   0.934   9.989   5.293  1.0331 -0.3219 -0.1644
  436MOL0     H58797   1.191   9.996   5.123 -0.4910  1.9075  0.4412
  436MOL0     H58798   1.129   9.850   5.214  1.5561 -0.7070  2.1770
  436MOL0     H58799   1.126  10.002   5.416  3.7071  3.3210  4.7385
  436MOL0     H58800   1.189  10.135   5.317 -3.2658  0.0841  0.3100
  436MOL0     H58801   1.324   9.883   5.374  0.7350 -0.7609  0.4018
  436MOL0     H58802   1.374  10.004   5.249  0.0765  1.5214  0.6324
  436MOL0     H58803   1.421  10.159   5.398 -0.9141 -0.9960 -0.0040
  436MOL0     H58804   1.377  10.070   5.552  2.1255 -0.3695  0.1819
  436MOL0     H58805   1.527   9.888   5.501 -3.9708 -0.3879 -3.7786
  436MOL0     H58806   1.589   9.985   5.369  0.8399 -0.9510  0.7586
  436MOL0     H58807   1.606  10.069   5.654  1.7829 -1.8471  1.4579
  436MOL0     H58808   1.672  10.155   5.511  0.8508  0.7261  1.6499
  436MOL0     H58809   1.729   9.861   5.586  0.0426 -0.9979 -1.1614
  436MOL0     H58810   1.809   9.950   5.456  0.8683 -1.0403  1.1847
  436MOL0     H58811   1.918   9.885   5.810  3.6807  0.0264  0.6025
  436MOL0     H58812   2.183   9.897   5.848 -0.4914 -0.6404  2.5451
  436MOL0     H58813   2.256  10.059   5.827 -0.8480  1.4242 -0.6579
  436MOL0     H58814   2.116  10.128   6.034 -2.1437 -0.9137  1.0845
  436MOL0     H58815   2.029   9.972   6.021  0.2304 -0.4799 -0.9964
  436MOL0     H58816   2.332   9.947   6.028  0.1462  2.0625  0.3417
  436MOL0     H58817   2.206   9.865   6.123 -1.2098 -1.3888 -0.9635
  436MOL0     H58818   2.192  10.068   6.260 -0.3554  2.3999 -2.7207
  436MOL0     H58819   2.330  10.132   6.173  0.6494  0.0235  1.2459
  436MOL0     H58820   2.547  10.162   6.316  1.4195 -0.6944  0.6287
  436MOL0     H58821   2.785  10.152   6.269  2.3349 -1.6530 -0.1986
  436MOL0     H58822   3.121  10.279   6.172  2.4279  2.3309  1.5862
  436MOL0     H58823   3.350  10.318   6.063  0.5085 -1.0891 -0.8401
  436MOL0     H58824   3.600   9.970   5.953  1.1216  1.3192  1.1270
  436MOL0     H58825   3.507  10.029   5.815  0.4645 -1.2563  0.1402
  436MOL0     H58826   3.662  10.222   5.790 -2.6145 -1.9222 -0.7432
  436MOL0     H58827   3.769  10.151   5.899  1.1828  2.3486 -0.4031
  436MOL0     H58828   3.693   9.948   5.689  0.7442 -0.4879 -2.0206
  436MOL0     H58829   3.794  10.083   5.645  2.7875 -0.4605  0.5363
  436MOL0     H58830   3.833   9.840   5.796 -4.4054  0.7160 -1.5119
  436MOL0     H58831   3.872   9.968   5.902 -1.8354 -0.9127  0.3741
  436MOL0     H58832   4.014  10.073   5.691 -0.4241 -0.0708 -0.7761
  436MOL0     H58833   3.998   9.909   5.622  0.1660  1.3204 -0.6939
  436MOL0     H58834   4.135   9.998   5.897 -1.2547  2.5665 -1.3817
  436MOL0     H58835   4.118   9.833   5.857  2.2475 -0.4652  0.7771
  436MOL0     H58836   4.245  10.004   5.653 -1.6236 -0.5183 -0.1739
  436MOL0     H58837   4.250   9.829   5.670 -0.1586  1.3110 -2.9047
  436MOL0     H58838   4.472   9.923   5.745  0.2628 -1.1768  1.3671
  436MOL0     H58839   4.394  10.023   5.867  2.8047  0.6557 -0.7595
  436MOL0     H58840   3.407   9.899   6.022 -0.5557  0.1402 -1.2934
  436MOL0     H58841   3.200   9.855   6.140  1.1751 -0.5413  0.1239
  436MOL0     H58842   2.722   9.752   6.111 -0.4875 -0.3825  2.3595
  436MOL0     H58843   2.478   9.770   6.185 -0.3889 -0.4419  2.2157
  436MOL0     H58844   0.733   9.813   4.952 -1.1682  1.4335 -3.1719
  436MOL0     H58845   0.493   9.823   4.967  0.1074  0.2938 -0.1343
  436MOL0     H58846   0.142  10.132   5.023 -0.8490  0.1177 -0.5291
  436MOL0     H58847  -0.078  10.159   4.953  0.3661 -0.9798 -0.3896
  436MOL0     H58848  -0.439  10.020   5.177  1.3093 -1.9560 -0.2164
  436MOL0     H58849  -0.380   9.876   5.101  0.8520 -0.1617 -0.9433
  436MOL0     H58850  -0.516  10.096   4.941  1.3889  2.6226  4.5279
  436MOL0     H58851  -0.601   9.957   5.026 -0.6114  2.0296  0.5716
  436MOL0     H58852  -0.543   9.805   4.863 -1.8370  1.6698  3.0814
  436MOL0     H58853  -0.372   9.855   4.888  0.4710 -0.2324 -0.8699
  436MOL0     H58854  -0.541  10.022   4.719  1.0857  1.2423  0.0810
  436MOL0     H58855  -0.372  10.011   4.727  0.2712 -1.1349 -4.4262
  436MOL0     H58856  -0.409   9.675   4.506  3.0514  2.0068 -1.6613
  436MOL0     H58857  -0.227   9.864   5.228  0.2568 -0.9123  1.3643
  436MOL0     H58858  -0.060   9.752   5.366  0.4326 -1.3820 -0.1105
  436MOL0     H58859   0.107   9.727   5.319  0.9391 -0.7781  2.4923
  436MOL0     H58860   0.060   9.863   5.422 -3.5140 -0.3784 -0.1536
  437MOL0     O58861   9.848   6.956   9.035 -0.1919 -0.1470 -0.0515
  437MOL0     C58862   9.777   7.004   9.119  0.0564  0.1911  0.4575
  437MOL0     O58863   9.799   7.117   9.181 -0.3967  0.2744 -0.0784
  437MOL0     C58864   9.922   7.180   9.195  0.1280  0.3032  1.0376
  437MOL0     C58865   9.919   7.322   9.201 -0.5027 -0.1958  0.1856
  437MOL0     C58866  10.041   7.390   9.193  0.7700  0.4382 -0.8036
  437MOL0     C58867  10.162   7.322   9.184  0.0868 -0.2333  0.0957
  437MOL0     O58868  10.276   7.397   9.169 -0.4037  0.3633  0.1625
  437MOL0     C58869  10.377   7.349   9.076  0.9714  0.4186  0.0939
  437MOL0     C58870  10.488   7.444   9.051 -0.2250  0.0961 -0.2349
  437MOL0     C58871  10.571   7.406   8.924 -1.0496 -0.6542 -0.1763
  437MOL0     C58872  10.696   7.496   8.922 -0.0364 -0.4037 -0.4874
  437MOL0     C58873  10.785   7.470   8.796  0.5302  1.0989  0.5029
  437MOL0     C58874  10.900   7.565   8.791 -0.6369 -0.6908  0.3599
  437MOL0     C58875  10.959   7.566   8.646 -0.4448 -0.5342 -0.3603
  437MOL0     C58876  11.075   7.665   8.629  0.4907  0.7660 -0.5950
  437MOL0     N58877  11.114   7.683   8.492 -0.1609  0.3243  0.2124
  437MOL0     C58878  11.198   7.782   8.454  0.7444 -1.0431 -0.0266
  437MOL0     C58879  11.219   7.771   8.323 -0.1655  0.9975 -0.4500
  437MOL0     C58880  11.310   7.866   8.252  0.0505 -0.9801 -0.0201
  437MOL0     C58881  11.450   7.888   8.320  0.1273  0.0550  0.6407
  437MOL0     C58882  11.520   7.997   8.256  0.7248 -0.1094  0.4465
  437MOL0     C58883  11.659   8.026   8.303 -0.0223  0.1885  0.2986
  437MOL0     O58884  11.646   8.054   8.444  0.0917 -0.5173  0.2781
  437MOL0     C58885  11.757   8.076   8.514  0.4009  0.1701  0.9022
  437MOL0     C58886  11.747   8.127   8.640 -0.2506 -0.5269 -0.7098
  437MOL0     C58887  11.854   8.134   8.726 -1.0697 -0.6146 -0.7034
  437MOL0     C58888  11.977   8.099   8.692 -0.1413  0.8504  0.7324
  437MOL0     C58889  12.101   8.121   8.779 -0.1720  0.6246 -0.4549
  437MOL0     O58890  12.230   8.094   8.739  0.5898 -0.6565  0.1794
  437MOL0     C58891  12.334   8.135   8.815 -0.6677 -0.9015 -0.9848
  437MOL0     C58892  12.377   8.081   8.937  0.4100  0.3272  0.1384
  437MOL0     C58893  12.495   8.134   8.999 -0.3378  0.4494  0.3291
  437MOL0     C58894  12.569   8.234   8.945  0.1860 -0.5120  0.6450
  437MOL0     O58895  12.682   8.264   9.012  0.1076  0.0607  0.2488
  437MOL0     C58896  12.784   8.352   8.950 -0.3165  0.3404  0.0838
  437MOL0     C58897  12.880   8.399   9.050  0.0077  0.0491 -0.6657
  437MOL0     C58898  12.820   8.496   9.154 -0.0648  0.5292 -0.2660
  437MOL0     C58899  12.922   8.600   9.208 -0.1793 -0.2735  0.0464
  437MOL0     C58900  13.044   8.546   9.289  0.1617 -0.0696 -0.2903
  437MOL0     C58901  13.136   8.656   9.332 -0.0521  0.0511 -0.3836
  437MOL0     C58902  13.254   8.597   9.401  0.5091 -1.2839 -0.1939
  437MOL0     C58903  13.329   8.706   9.472 -0.6511 -0.2362  0.9116
  437MOL0    Cl58904  13.495   8.666   9.521 -0.3850  0.1799 -0.4654
  437MOL0     C58905  12.523   8.286   8.820  0.0986  0.0390  0.1130
  437MOL0     C58906  12.415   8.232   8.759 -0.5329 -0.2294 -0.3777
  437MOL0     O58907  12.072   8.186   8.882 -0.1237  0.1410 -0.7042
  437MOL0     C58908  11.997   8.050   8.558 -0.0579  0.6157  0.7152
  437MOL0     C58909  11.884   8.036   8.473  1.2275 -0.3338 -0.3600
  437MOL0     N58910  11.128   7.677   8.282 -0.2520  0.2538  0.6093
  437MOL0     N58911  11.077   7.616   8.379 -1.3341  0.3243  0.1113
  437MOL0     C58912  10.162   7.182   9.192 -0.3059  0.2127 -0.0502
  437MOL0     C58913  10.041   7.114   9.187  0.0569  0.3068  0.4173
  437MOL0     C58914   9.628   6.969   9.132  0.1444 -0.2110  0.5171
  437MOL0     C58915   9.539   7.078   9.135  0.2348 -0.9044 -0.3839
  437MOL0     C58916   9.401   7.052   9.149 -0.3282 -0.5221 -0.9486
  437MOL0     C58917   9.347   6.928   9.152 -0.3112  0.1168  0.2377
  437MOL0     O58918   9.215   6.895   9.169 -0.5277  0.2531  0.2850
  437MOL0     C58919   9.120   6.988   9.216  1.0094 -0.0406 -0.9681
  437MOL0     C58920   8.991   6.912   9.248 -0.5003  0.1412 -0.2471
  437MOL0     C58921   9.015   6.822   9.367  0.1039  0.4310 -0.6157
  437MOL0     C58922   8.880   6.793   9.446 -0.3658 -0.0329  0.4771
  437MOL0     C58923   8.781   6.718   9.370  0.2543 -0.1682 -0.4752
  437MOL0     C58924   8.702   6.656   9.301 -0.0023 -0.1742  0.0455
  437MOL0     C58925   9.435   6.816   9.140  0.1237  0.2526  0.3368
  437MOL0     C58926   9.573   6.839   9.121  0.1101 -0.5790  0.0211
  437MOL0     C58927   9.675   6.726   9.118  0.7087  0.1127  0.4251
  437MOL0     H58928   9.835   7.390   9.207  0.0827  0.6342 -0.7242
  437MOL0     H58929  10.038   7.498   9.186  0.3968  0.5486  0.7427
  437MOL0     H58930  10.428   7.260   9.114  1.5200  1.6914  2.5435
  437MOL0     H58931  10.335   7.328   8.977  2.3044 -0.8040 -0.2463
  437MOL0     H58932  10.546   7.446   9.144  0.1176 -1.9505 -0.3659
  437MOL0     H58933  10.455   7.547   9.032  2.2076  0.5353 -2.7690
  437MOL0     H58934  10.514   7.435   8.836  1.1295  0.7595 -1.2029
  437MOL0     H58935  10.609   7.303   8.929 -0.7759 -0.5524 -0.1429
  437MOL0     H58936  10.670   7.601   8.934 -3.3753 -1.1034 -0.5787
  437MOL0     H58937  10.746   7.474   9.017 -1.9205  2.1209  1.1980
  437MOL0     H58938  10.819   7.366   8.803  1.5504  1.4641  1.2648
  437MOL0     H58939  10.720   7.479   8.709 -0.9620 -0.5138  1.3950
  437MOL0     H58940  10.868   7.669   8.808  2.2008  0.5337 -1.0753
  437MOL0     H58941  10.971   7.552   8.873  0.6744 -0.5837 -0.7227
  437MOL0     H58942  10.876   7.599   8.583 -2.0348 -2.8004  0.4347
  437MOL0     H58943  10.989   7.466   8.612  0.4652 -0.5348  0.3822
  437MOL0     H58944  11.046   7.759   8.677  0.3738 -0.6621  2.3242
  437MOL0     H58945  11.156   7.637   8.697  0.5631  1.5907 -0.3351
  437MOL0     H58946  11.225   7.868   8.514  0.0803 -0.3574 -0.6731
  437MOL0     H58947  11.328   7.831   8.150 -0.5767  1.0552 -0.8772
  437MOL0     H58948  11.260   7.963   8.244 -1.9749 -1.6870  2.5419
  437MOL0     H58949  11.436   7.921   8.423  1.6529 -2.7833  1.8717
  437MOL0     H58950  11.515   7.801   8.308 -0.3378 -0.3931  1.3128
  437MOL0     H58951  11.458   8.085   8.272 -0.3085 -0.1833 -2.4985
  437MOL0     H58952  11.525   7.984   8.148 -1.4813  0.6593  0.1943
  437MOL0     H58953  11.696   8.114   8.251 -1.3791 -0.2589 -1.5157
  437MOL0     H58954  11.708   7.931   8.281  1.3253  0.7273  0.8419
  437MOL0     H58955  11.649   8.141   8.684 -1.0595 -2.8775 -1.6061
  437MOL0     H58956  11.829   8.165   8.827 -0.4104 -1.0076 -0.4145
  437MOL0     H58957  12.312   8.008   8.985  0.5550  0.5594  0.7044
  437MOL0     H58958  12.522   8.076   9.086 -1.1478 -1.4455 -0.6234
  437MOL0     H58959  12.839   8.287   8.881  1.6057  0.7135  1.1721
  437MOL0     H58960  12.754   8.439   8.892  1.2051  0.5178 -0.4948
  437MOL0     H58961  12.923   8.315   9.105  1.9322  0.7182 -1.0541
  437MOL0     H58962  12.963   8.450   9.000  2.2964 -1.4975  1.3095
  437MOL0     H58963  12.736   8.555   9.116  0.7237  2.1559  0.4119
  437MOL0     H58964  12.779   8.439   9.238 -1.4070  0.8451 -0.6965
  437MOL0     H58965  12.866   8.681   9.253  0.8852  0.6944 -0.3252
  437MOL0     H58966  12.964   8.647   9.119  1.2494 -0.3806  0.6278
  437MOL0     H58967  13.108   8.479   9.232  1.4647 -0.3971  1.4578
  437MOL0     H58968  13.009   8.483   9.372  4.2361 -1.9582  0.2041
  437MOL0     H58969  13.170   8.709   9.243 -1.0086  1.2256 -0.0750
  437MOL0     H58970  13.081   8.726   9.396 -0.3340  0.5474 -1.1496
  437MOL0     H58971  13.319   8.540   9.333  0.1393  0.0660 -1.7488
  437MOL0     H58972  13.205   8.523   9.465 -0.1860 -3.4220 -2.9542
  437MOL0     H58973  13.334   8.803   9.422  2.4559  0.6519  2.6534
  437MOL0     H58974  13.273   8.711   9.566  0.2576  1.2400  1.4175
  437MOL0     H58975  12.572   8.367   8.768  1.0550  1.9119  3.6161
  437MOL0     H58976  12.391   8.285   8.668  0.1716  0.3351 -0.2400
  437MOL0     H58977  12.093   8.014   8.522 -0.4537 -0.3003  0.5583
  437MOL0     H58978  11.901   7.967   8.391 -0.3172 -1.4172  0.1884
  437MOL0     H58979  10.265   7.149   9.193 -0.3341 -0.0583 -1.8263
  437MOL0     H58980  10.043   7.005   9.185 -2.0410  0.2016  1.0514
  437MOL0     H58981   9.563   7.183   9.151 -0.9962 -0.8834  1.6786
  437MOL0     H58982   9.336   7.138   9.149 -0.6262 -0.6776  1.1347
  437MOL0     H58983   9.100   7.069   9.144  3.8410  0.1347 -1.6594
  437MOL0     H58984   9.162   7.034   9.306  0.4836  0.8961 -1.1784
  437MOL0     H58985   8.955   6.862   9.158 -2.4965  0.1538  0.4857
  437MOL0     H58986   8.915   6.986   9.276 -0.3437  0.6531 -1.1431
  437MOL0     H58987   9.082   6.874   9.437  1.4397 -0.9245 -0.8330
  437MOL0     H58988   9.055   6.726   9.333 -1.0586 -1.2700  2.4812
  437MOL0     H58989   8.909   6.739   9.537  0.1432  0.0036  0.3400
  437MOL0     H58990   8.847   6.891   9.479  2.3415  1.2837 -0.4200
  437MOL0     H58991   8.640   6.605   9.230  0.9947 -1.8289  0.3040
  437MOL0     H58992   9.396   6.716   9.155  0.9891 -0.2663 -0.7533
  437MOL0     H58993   9.729   6.724   9.213 -0.0024  1.4230  0.8850
  437MOL0     H58994   9.609   6.640   9.104 -0.7827  1.5830 -2.4610
  437MOL0     H58995   9.743   6.728   9.032  0.0680  0.2923 -0.0831
  438MOL0     O58996   4.327   2.676   4.241  0.0824  1.0800 -0.5330
  438MOL0     C58997   4.267   2.630   4.148  0.0772 -0.2018  0.1848
  438MOL0     O58998   4.309   2.559   4.046 -0.3071 -0.4077  0.2472
  438MOL0     C58999   4.444   2.537   4.034  0.4387  0.0267  0.7635
  438MOL0     C59000   4.543   2.625   4.062 -0.1729  0.5935  0.3715
  438MOL0     C59001   4.680   2.573   4.059 -0.4112 -0.3335 -0.4071
  438MOL0     C59002   4.718   2.442   4.010  0.0629 -0.3004 -0.5936
  438MOL0     O59003   4.849   2.415   4.019 -0.3136  0.1257  0.2474
  438MOL0     C59004   4.903   2.296   3.958 -0.2135  0.0290 -0.4839
  438MOL0     C59005   5.038   2.325   3.908 -0.4048 -0.1268 -0.0451
  438MOL0     C59006   5.150   2.345   4.016  0.1734 -0.6026 -0.1301
  438MOL0     C59007   5.288   2.357   3.944 -0.7719 -0.2268  0.4528
  438MOL0     C59008   5.407   2.339   4.034 -0.7055  0.5181 -0.1971
  438MOL0     C59009   5.540   2.388   3.977 -0.4909 -0.3648  0.2595
  438MOL0     C59010   5.663   2.347   4.059  0.8324 -0.6181 -0.2357
  438MOL0     C59011   5.661   2.394   4.206  0.8860  0.3014  0.0332
  438MOL0     N59012   5.789   2.367   4.278  0.2658  0.0115  0.0416
  438MOL0     C59013   5.825   2.269   4.372 -0.0774 -0.3935 -0.8192
  438MOL0     C59014   5.962   2.282   4.393  0.2025 -0.4407 -0.1190
  438MOL0     C59015   6.042   2.203   4.490  0.2692  0.3899 -0.0626
  438MOL0     C59016   6.078   2.282   4.612  0.2893  0.1194 -0.7862
  438MOL0     C59017   5.963   2.274   4.719 -0.6236 -0.4388 -0.4207
  438MOL0     C59018   5.992   2.357   4.849 -0.2448  0.1413 -0.0997
  438MOL0     O59019   6.046   2.487   4.820  0.0360 -0.6156  0.1300
  438MOL0     C59020   6.183   2.515   4.816 -0.3020 -1.1650 -0.0634
  438MOL0     C59021   6.286   2.421   4.837 -0.0427 -0.4821  0.5931
  438MOL0     C59022   6.424   2.462   4.844  0.9747  0.2547 -0.4498
  438MOL0     C59023   6.456   2.591   4.817  0.4641 -0.5493  0.4973
  438MOL0     C59024   6.599   2.627   4.822 -0.7993  0.6548 -0.1405
  438MOL0     O59025   6.697   2.532   4.850  0.0726  0.4189 -0.1922
  438MOL0     C59026   6.829   2.553   4.858 -0.4959 -0.5815 -0.8998
  438MOL0     C59027   6.900   2.482   4.960 -0.1487 -0.5670 -0.7768
  438MOL0     C59028   7.024   2.508   4.979 -0.4765 -0.2796  0.6824
  438MOL0     C59029   7.108   2.584   4.895 -0.1605 -0.2860 -0.0263
  438MOL0     O59030   7.238   2.606   4.936  0.0214  0.7024 -0.2185
  438MOL0     C59031   7.254   2.651   5.073  0.6152 -0.5769 -0.3146
  438MOL0     C59032   7.333   2.533   5.141 -0.3704  0.9129  0.0267
  438MOL0     C59033   7.475   2.512   5.081 -0.2307 -0.3231 -0.9438
  438MOL0     C59034   7.555   2.412   5.158  0.0571  0.4109  0.2856
  438MOL0     C59035   7.702   2.422   5.112 -0.5617  0.8631 -0.3088
  438MOL0     C59036   7.780   2.303   5.160  0.0805  0.2142  0.1208
  438MOL0     C59037   7.929   2.336   5.163  0.1651  0.8174 -0.3497
  438MOL0     C59038   8.015   2.215   5.159  0.1408  0.5154 -0.4563
  438MOL0    Cl59039   8.175   2.254   5.225  0.3058 -0.2437  0.0806
  438MOL0     C59040   7.047   2.635   4.776 -0.5461 -0.8939 -0.0028
  438MOL0     C59041   6.906   2.624   4.760 -0.0577 -0.1926  0.0439
  438MOL0     O59042   6.629   2.745   4.803 -0.0583 -0.3166  0.0343
  438MOL0     C59043   6.356   2.689   4.790  0.2101 -0.2100 -0.4990
  438MOL0     C59044   6.225   2.649   4.798  0.1298 -0.4149  0.0423
  438MOL0     N59045   6.006   2.379   4.315 -0.4330 -0.7491  0.8304
  438MOL0     N59046   5.905   2.436   4.252  0.0784  0.4705  0.4904
  438MOL0     C59047   4.611   2.360   3.967  0.5391 -0.1565 -0.4928
  438MOL0     C59048   4.481   2.415   3.976 -0.0736  0.4113 -0.0766
  438MOL0     C59049   4.127   2.669   4.142  1.0139 -0.1575  0.1521
  438MOL0     C59050   4.045   2.610   4.044  0.6322 -0.5295 -0.2483
  438MOL0     C59051   3.900   2.619   4.057 -0.2040  0.0897  0.5099
  438MOL0     C59052   3.837   2.688   4.156  0.4280  0.2744 -0.0943
  438MOL0     O59053   3.704   2.700   4.177  0.3977 -0.2610  0.2080
  438MOL0     C59054   3.647   2.591   4.245 -0.4850  0.2427 -0.4873
  438MOL0     C59055   3.588   2.481   4.161 -0.0828  0.5692  0.4801
  438MOL0     C59056   3.498   2.529   4.049 -0.7089 -0.3054 -1.0698
  438MOL0     C59057   3.497   2.428   3.925 -0.2189 -1.0039  0.7200
  438MOL0     C59058   3.419   2.491   3.817  0.2726  0.2566  0.2732
  438MOL0     C59059   3.352   2.540   3.726 -0.6369 -0.3351  0.4199
  438MOL0     C59060   3.918   2.748   4.245 -0.7849  0.3908 -0.1018
  438MOL0     C59061   4.058   2.744   4.241  0.2826  0.1064  0.0330
  438MOL0     C59062   4.125   2.823   4.355 -0.7234 -0.9641 -0.6225
  438MOL0     H59063   4.514   2.723   4.099 -5.0805  0.1507 -1.5475
  438MOL0     H59064   4.764   2.631   4.095  2.1430 -3.2340 -1.2956
  438MOL0     H59065   4.901   2.223   4.039 -1.5074  1.6166  0.9884
  438MOL0     H59066   4.847   2.267   3.868 -2.6145  2.0210  0.2330
  438MOL0     H59067   5.039   2.420   3.853 -0.5252  0.6024  1.1707
  438MOL0     H59068   5.054   2.235   3.848  0.1884  0.8277 -1.3901
  438MOL0     H59069   5.168   2.254   4.074 -2.3002 -2.7691 -2.4919
  438MOL0     H59070   5.131   2.435   4.075 -0.4568  1.2919 -3.0301
  438MOL0     H59071   5.294   2.283   3.864  1.4985  0.0706  0.2762
  438MOL0     H59072   5.290   2.460   3.908  2.4533  0.9948  3.5280
  438MOL0     H59073   5.387   2.398   4.124  0.3312 -2.1811  1.9345
  438MOL0     H59074   5.419   2.237   4.072  0.3408  0.5723 -0.3626
  438MOL0     H59075   5.547   2.348   3.875 -1.4365  1.9072 -0.7488
  438MOL0     H59076   5.548   2.496   3.962 -2.6276  0.0662  1.8782
  438MOL0     H59077   5.753   2.387   4.012  0.7524 -0.3336 -0.1451
  438MOL0     H59078   5.672   2.238   4.054 -3.0785 -1.0532 -2.9922
  438MOL0     H59079   5.643   2.501   4.210 -0.8405  0.0717 -0.6719
  438MOL0     H59080   5.583   2.344   4.265  1.9263 -0.1340  1.0890
  438MOL0     H59081   5.775   2.190   4.427 -0.7366  1.3665  1.2195
  438MOL0     H59082   5.985   2.114   4.519 -1.8411  1.6680 -0.0078
  438MOL0     H59083   6.133   2.176   4.436 -0.3550 -1.0465 -0.4546
  438MOL0     H59084   6.177   2.245   4.640  0.3571  0.3121 -0.7743
  438MOL0     H59085   6.101   2.385   4.583 -0.8436  0.1557 -1.6452
  438MOL0     H59086   5.946   2.169   4.747  2.7367 -0.3200  2.9357
  438MOL0     H59087   5.874   2.317   4.673 -1.5950 -1.0154  0.8858
  438MOL0     H59088   6.055   2.305   4.922  0.0334  2.3704  1.3772
  438MOL0     H59089   5.901   2.381   4.905  0.3741  1.5174  0.3712
  438MOL0     H59090   6.253   2.318   4.849 -2.8128  0.1545 -0.6131
  438MOL0     H59091   6.505   2.393   4.863  0.8248 -1.8984 -5.9146
  438MOL0     H59092   6.843   2.414   5.022 -1.2322  2.2840  1.6232
  438MOL0     H59093   7.082   2.455   5.055 -1.2276 -0.5401  1.0844
  438MOL0     H59094   7.313   2.742   5.088  1.3955 -0.8642 -1.4813
  438MOL0     H59095   7.155   2.672   5.115  0.6375  0.4838 -0.7665
  438MOL0     H59096   7.319   2.534   5.250  0.2833 -3.2325  0.3202
  438MOL0     H59097   7.286   2.437   5.117 -0.6393  0.7384  1.1704
  438MOL0     H59098   7.461   2.478   4.978 -0.6712  2.3783 -1.8541
  438MOL0     H59099   7.530   2.606   5.073  0.0622 -0.3097  0.9338
  438MOL0     H59100   7.512   2.317   5.127  2.4366 -0.4367 -0.6412
  438MOL0     H59101   7.540   2.413   5.266  2.8676  1.2346  0.7552
  438MOL0     H59102   7.762   2.504   5.153  0.3111  0.2612 -0.3378
  438MOL0     H59103   7.711   2.426   5.003 -0.9921 -0.5548 -0.4078
  438MOL0     H59104   7.757   2.285   5.266  1.4994  3.0357  1.0102
  438MOL0     H59105   7.757   2.215   5.101 -0.7670  0.6237 -0.1750
  438MOL0     H59106   7.955   2.395   5.252  0.4246  1.0422 -0.5721
  438MOL0     H59107   7.962   2.395   5.078 -1.2488  0.7540 -0.9712
  438MOL0     H59108   7.979   2.128   5.215 -0.5219  1.1769  0.1795
  438MOL0     H59109   8.026   2.176   5.058  0.8949 -1.4950  0.3440
  438MOL0     H59110   7.087   2.700   4.700 -2.4534  0.1667 -0.1570
  438MOL0     H59111   6.859   2.677   4.678  0.7519  2.8692  1.4074
  438MOL0     H59112   6.371   2.797   4.785 -2.6972  0.2206 -3.2292
  438MOL0     H59113   6.138   2.713   4.787  0.4848  0.3120  1.2652
  438MOL0     H59114   4.641   2.259   3.942  0.1900 -0.3269 -0.2352
  438MOL0     H59115   4.403   2.340   3.967  1.2893 -1.0294 -0.5253
  438MOL0     H59116   4.085   2.546   3.965 -3.8163 -3.5700 -0.4270
  438MOL0     H59117   3.847   2.577   3.972  0.4382 -0.4522  0.3608
  438MOL0     H59118   3.570   2.632   4.311 -0.4051  0.7172 -0.6893
  438MOL0     H59119   3.716   2.532   4.306  0.8113  1.4654 -0.7233
  438MOL0     H59120   3.534   2.410   4.224 -1.0685 -0.0767 -1.0161
  438MOL0     H59121   3.669   2.418   4.123 -2.8074 -2.4662 -0.7816
  438MOL0     H59122   3.521   2.631   4.015  1.1498 -0.3323 -0.0588
  438MOL0     H59123   3.404   2.526   4.103 -0.3631 -1.3884 -0.4986
  438MOL0     H59124   3.597   2.412   3.883  0.0406  2.0039 -0.0241
  438MOL0     H59125   3.449   2.331   3.943  0.3800 -1.9186 -2.0937
  438MOL0     H59126   3.303   2.587   3.643  2.8468  2.4909 -0.2813
  438MOL0     H59127   3.875   2.787   4.336 -0.9943  3.4428 -1.3826
  438MOL0     H59128   4.039   2.884   4.383 -1.0514 -1.7218  0.0910
  438MOL0     H59129   4.161   2.755   4.433 -0.5752 -0.9376 -0.6678
  438MOL0     H59130   4.200   2.892   4.316 -1.5948 -0.0867 -0.7627
  439MOL0     O59131   9.664   8.298   7.010 -0.0634 -0.3226 -0.0578
  439MOL0     C59132   9.564   8.363   7.035  0.9380 -0.5138  0.0373
  439MOL0     O59133   9.528   8.478   6.968 -0.9970 -0.3765 -0.0856
  439MOL0     C59134   9.606   8.524   6.863  0.1165  0.2768 -0.2770
  439MOL0     C59135   9.552   8.534   6.732  0.2842 -0.7160 -0.5388
  439MOL0     C59136   9.634   8.576   6.623  0.2442  0.4631 -0.4102
  439MOL0     C59137   9.764   8.607   6.653 -0.4229 -0.1204 -0.4711
  439MOL0     O59138   9.857   8.651   6.562  1.0068  0.3287 -0.5501
  439MOL0     C59139   9.815   8.691   6.429  0.1068 -0.0011 -0.1168
  439MOL0     C59140   9.937   8.721   6.346  0.9031 -0.4344  0.7272
  439MOL0     C59141  10.019   8.596   6.299  0.0258  0.0026 -0.4144
  439MOL0     C59142  10.154   8.614   6.220  0.3894 -0.5515 -0.8106
  439MOL0     C59143  10.201   8.479   6.185 -0.0929  1.0406 -1.1331
  439MOL0     C59144  10.331   8.490   6.106 -0.6516 -0.2217  0.3687
  439MOL0     C59145  10.388   8.353   6.076 -0.3240  0.0642  0.7835
  439MOL0     C59146  10.499   8.371   5.976  0.0103 -0.1621  0.5306
  439MOL0     N59147  10.570   8.244   5.939  0.3803 -0.7006 -0.3155
  439MOL0     C59148  10.538   8.163   5.829 -1.3071 -0.9522 -0.5637
  439MOL0     C59149  10.649   8.089   5.816 -0.4850  0.7698  0.2059
  439MOL0     C59150  10.652   7.982   5.701  0.1596 -0.3243  0.7563
  439MOL0     C59151  10.710   8.038   5.571 -0.3234  0.7742 -0.4814
  439MOL0     C59152  10.789   7.935   5.489 -0.7382  0.2635  0.3121
  439MOL0     C59153  10.830   7.989   5.351  0.0989  0.1787 -0.3725
  439MOL0     O59154  10.884   7.892   5.268 -0.7045 -0.5993 -0.0305
  439MOL0     C59155  11.024   7.863   5.292  0.0037  0.1443 -0.2486
  439MOL0     C59156  11.075   7.758   5.221  0.0459 -0.1822 -0.4570
  439MOL0     C59157  11.211   7.714   5.226  0.4602  0.5765  0.4600
  439MOL0     C59158  11.294   7.779   5.317 -0.9016  0.2785 -0.0858
  439MOL0     C59159  11.428   7.725   5.324  0.2034  0.6650  0.3550
  439MOL0     O59160  11.457   7.604   5.263  0.1459 -0.6022 -0.5559
  439MOL0     C59161  11.580   7.562   5.300  0.2022 -1.0166 -0.1219
  439MOL0     C59162  11.604   7.504   5.427  0.5866  0.1865 -0.1380
  439MOL0     C59163  11.735   7.484   5.470 -0.6247  0.2248  0.5641
  439MOL0     C59164  11.846   7.496   5.377  0.7750  0.2204  0.7122
  439MOL0     O59165  11.977   7.463   5.401 -0.1942  0.1528  0.5001
  439MOL0     C59166  12.018   7.413   5.532 -0.7515  0.8881 -0.2956
  439MOL0     C59167  12.164   7.362   5.511  0.3687 -0.5573  0.2496
  439MOL0     C59168  12.216   7.311   5.644 -0.6088 -0.0468 -0.7666
  439MOL0     C59169  12.321   7.200   5.617  0.3407  0.0231  0.5500
  439MOL0     C59170  12.373   7.123   5.735 -1.1287 -0.0994 -0.6602
  439MOL0     C59171  12.474   7.206   5.820 -0.1428 -0.0264 -1.5057
  439MOL0     C59172  12.590   7.125   5.893 -0.3020 -0.2549  0.4302
  439MOL0     C59173  12.646   7.193   6.015 -0.7264  0.1305  0.2173
  439MOL0    Cl59174  12.764   7.096   6.091  0.4703 -0.2781  0.6413
  439MOL0     C59175  11.816   7.537   5.244  0.1579 -0.0125  0.1956
  439MOL0     C59176  11.691   7.588   5.213  0.0563 -0.6627 -0.3955
  439MOL0     O59177  11.506   7.798   5.382  0.5618 -0.0184  0.2714
  439MOL0     C59178  11.244   7.886   5.392  0.3564  0.2314  0.0735
  439MOL0     C59179  11.112   7.923   5.383  0.4750  0.0756 -0.5133
  439MOL0     N59180  10.748   8.125   5.917  0.1439  0.5435 -0.5669
  439MOL0     N59181  10.690   8.211   5.989 -0.1733  0.3894 -0.3406
  439MOL0     C59182   9.824   8.587   6.779  0.1913  0.1083  0.2054
  439MOL0     C59183   9.741   8.545   6.883  0.3814  0.3635  0.2062
  439MOL0     C59184   9.459   8.316   7.125 -0.1488  0.4399 -0.2148
  439MOL0     C59185   9.328   8.346   7.089  0.1505 -0.5392  0.1402
  439MOL0     C59186   9.229   8.293   7.173 -0.0272  0.0669  0.1607
  439MOL0     C59187   9.253   8.233   7.291  0.3292 -0.9189 -0.0107
  439MOL0     O59188   9.146   8.204   7.373 -0.7499 -1.2693 -0.5164
  439MOL0     C59189   9.105   8.071   7.371  0.1355 -0.7717  0.1843
  439MOL0     C59190   9.117   8.000   7.507 -0.5868  0.4270 -1.0170
  439MOL0     C59191   9.052   7.854   7.510 -0.7764 -0.3732  0.3208
  439MOL0     C59192   9.048   7.784   7.648  0.4561 -0.1490 -0.0518
  439MOL0     C59193   8.953   7.846   7.736 -0.6218  0.5462 -0.5683
  439MOL0     C59194   8.875   7.891   7.819  0.1442 -0.2194 -0.2226
  439MOL0     C59195   9.381   8.199   7.325 -0.0882 -0.1320 -0.1305
  439MOL0     C59196   9.487   8.243   7.244 -0.7138 -0.0251  1.1046
  439MOL0     C59197   9.634   8.213   7.293  0.4723 -1.0054  0.3326
  439MOL0     H59198   9.447   8.518   6.714 -0.1129  2.4464 -1.7952
  439MOL0     H59199   9.594   8.580   6.522 -0.5885  0.9390 -0.0703
  439MOL0     H59200   9.761   8.608   6.381 -1.1595  0.7370 -0.0275
  439MOL0     H59201   9.747   8.776   6.442 -0.3029 -0.7466  3.9472
  439MOL0     H59202   9.994   8.801   6.395  1.2361 -0.8946  1.1037
  439MOL0     H59203   9.902   8.762   6.251 -4.4199 -1.4854  1.9425
  439MOL0     H59204   9.957   8.527   6.241  1.1852  0.3175 -2.0815
  439MOL0     H59205  10.038   8.547   6.395 -2.0248 -0.2423 -0.0978
  439MOL0     H59206  10.136   8.668   6.127  1.3325  1.3588  0.0701
  439MOL0     H59207  10.224   8.666   6.286  2.9977 -5.5312  0.8793
  439MOL0     H59208  10.229   8.429   6.278 -0.1191  2.3016 -0.4233
  439MOL0     H59209  10.126   8.419   6.133  0.0245 -0.3285  0.1959
  439MOL0     H59210  10.316   8.541   6.010  0.6490  0.4678  0.5083
  439MOL0     H59211  10.408   8.547   6.159  1.1946 -1.1460 -1.1921
  439MOL0     H59212  10.310   8.286   6.039  1.2267 -2.2771  1.5255
  439MOL0     H59213  10.434   8.313   6.167 -0.7957  2.1246  1.9940
  439MOL0     H59214  10.458   8.417   5.886 -1.0134  0.0573  1.0952
  439MOL0     H59215  10.567   8.453   6.002  0.7326 -0.4074 -0.5489
  439MOL0     H59216  10.445   8.165   5.773 -2.7276  3.6121  1.4695
  439MOL0     H59217  10.690   7.884   5.730  0.8956 -1.1939 -2.6652
  439MOL0     H59218  10.550   7.957   5.669  1.2394 -3.0403 -0.8895
  439MOL0     H59219  10.630   8.083   5.512 -0.0970  1.8855  0.0319
  439MOL0     H59220  10.779   8.121   5.592  0.8428 -0.0646 -0.9040
  439MOL0     H59221  10.728   7.846   5.472 -1.9974  1.1269  0.1820
  439MOL0     H59222  10.876   7.895   5.543 -0.4505 -0.6904 -0.8264
  439MOL0     H59223  10.895   8.077   5.350 -2.1430  1.9366 -1.6320
  439MOL0     H59224  10.738   8.023   5.303  1.9236  1.3229 -3.3372
  439MOL0     H59225  11.008   7.716   5.147 -0.1273  0.4100 -0.6486
  439MOL0     H59226  11.236   7.616   5.187  0.3097  0.8280 -0.2989
  439MOL0     H59227  11.519   7.499   5.494 -0.7707  1.5014 -1.6669
  439MOL0     H59228  11.759   7.449   5.570  4.1039  0.6532 -0.1867
  439MOL0     H59229  12.018   7.489   5.610  3.2238 -0.9084  1.7718
  439MOL0     H59230  11.959   7.326   5.563  0.2303 -0.0366 -0.9538
  439MOL0     H59231  12.168   7.292   5.427  0.9668 -0.7840  0.4665
  439MOL0     H59232  12.213   7.455   5.482  1.4737 -0.4044  2.4049
  439MOL0     H59233  12.263   7.398   5.691 -0.7695  0.6544 -1.8686
  439MOL0     H59234  12.140   7.279   5.715  1.2584 -1.7712  0.5629
  439MOL0     H59235  12.411   7.239   5.568  0.1162 -1.4500 -1.1099
  439MOL0     H59236  12.266   7.128   5.556  0.8373 -0.8187  1.0798
  439MOL0     H59237  12.427   7.036   5.698  1.6190  0.2952  2.0673
  439MOL0     H59238  12.297   7.076   5.798  0.1840 -0.1656  0.9285
  439MOL0     H59239  12.524   7.287   5.765  1.4624  0.1961  0.1683
  439MOL0     H59240  12.408   7.260   5.889 -2.1388 -2.3867 -1.4130
  439MOL0     H59241  12.677   7.111   5.829 -0.3143  0.6354  0.2125
  439MOL0     H59242  12.547   7.030   5.928  0.7051 -1.1158 -0.6125
  439MOL0     H59243  12.697   7.284   5.984 -0.2177  0.4281  1.8223
  439MOL0     H59244  12.565   7.215   6.086 -0.8488  0.9783 -0.1808
  439MOL0     H59245  11.897   7.534   5.172 -0.6715 -1.2944 -0.7292
  439MOL0     H59246  11.659   7.623   5.115 -1.9443 -1.4284 -0.0695
  439MOL0     H59247  11.306   7.936   5.466 -1.9816  0.4615  1.9951
  439MOL0     H59248  11.083   8.004   5.449  4.6360  1.5577 -0.1888
  439MOL0     H59249   9.923   8.620   6.805  0.3867  0.3922 -0.8682
  439MOL0     H59250   9.787   8.523   6.979 -4.1454 -1.6154  2.2005
  439MOL0     H59251   9.317   8.406   6.999  3.1786  0.3619  0.2517
  439MOL0     H59252   9.125   8.290   7.143  0.5753 -1.9275 -2.0161
  439MOL0     H59253   9.152   8.005   7.298 -0.9606 -2.5804  1.0460
  439MOL0     H59254   9.000   8.079   7.340 -0.2444  2.5515  1.8756
  439MOL0     H59255   9.054   8.068   7.565  1.4926  0.9429  0.7633
  439MOL0     H59256   9.217   8.014   7.549 -1.1572  0.2954  0.4452
  439MOL0     H59257   9.121   7.799   7.447 -3.0101  0.4090 -3.0876
  439MOL0     H59258   8.950   7.861   7.470 -1.1230 -0.4072  1.1715
  439MOL0     H59259   9.017   7.683   7.618 -2.3360  0.4549  0.4580
  439MOL0     H59260   9.150   7.786   7.686  0.1609  0.9447  0.7658
  439MOL0     H59261   8.787   7.923   7.871 -0.7533 -0.0401 -1.7882
  439MOL0     H59262   9.395   8.144   7.417 -0.4638 -0.8166 -0.4756
  439MOL0     H59263   9.713   8.282   7.263 -0.6276  0.2795  0.2873
  439MOL0     H59264   9.641   8.198   7.401  0.0261 -0.6604  0.4121
  439MOL0     H59265   9.666   8.122   7.241  1.9306  0.6062 -1.7685
  440MOL0     O59266   5.946   7.589   0.536  0.0553 -0.0167 -0.5040
  440MOL0     C59267   5.904   7.683   0.609 -0.2406  0.5069  0.5906
  440MOL0     O59268   5.981   7.763   0.685 -0.6030 -0.2057  0.8029
  440MOL0     C59269   6.117   7.742   0.706  0.7664 -0.3227 -1.2294
  440MOL0     C59270   6.189   7.625   0.663  0.7258  0.5374  0.3302
  440MOL0     C59271   6.327   7.617   0.673  0.1851 -0.0331  0.0491
  440MOL0     C59272   6.400   7.727   0.724  0.9885  0.5564 -0.4363
  440MOL0     O59273   6.537   7.741   0.722 -0.1247 -0.2559  0.5708
  440MOL0     C59274   6.621   7.683   0.625 -0.8834 -0.1909 -0.3275
  440MOL0     C59275   6.692   7.552   0.677 -0.1462  0.0080  1.4143
  440MOL0     C59276   6.800   7.509   0.570  0.0573  0.5782 -0.0368
  440MOL0     C59277   6.883   7.384   0.609  0.6370  0.2730 -0.4966
  440MOL0     C59278   7.027   7.394   0.547 -0.3053 -0.3271 -0.1261
  440MOL0     C59279   7.133   7.280   0.574  0.3745 -0.1871  1.5579
  440MOL0     C59280   7.266   7.316   0.512 -0.3910 -1.1649 -0.5744
  440MOL0     C59281   7.368   7.219   0.548 -0.4421  0.3576 -0.4036
  440MOL0     N59282   7.497   7.270   0.505  0.0393 -0.0432  0.2649
  440MOL0     C59283   7.536   7.300   0.380 -0.4024  0.0985 -0.1025
  440MOL0     C59284   7.654   7.361   0.391 -0.7299 -0.3604  0.0940
  440MOL0     C59285   7.731   7.420   0.271 -0.8529  0.8432 -0.0062
  440MOL0     C59286   7.852   7.339   0.234 -0.6405  0.3368 -0.2889
  440MOL0     C59287   7.844   7.190   0.180 -0.3547 -1.2883 -0.1921
  440MOL0     C59288   7.975   7.128   0.126  0.2097  0.0175 -0.1429
  440MOL0     O59289   7.996   7.195  -0.004 -0.2357 -0.0687  0.3496
  440MOL0     C59290   8.126   7.214  -0.052  0.1362 -0.3920  0.1316
  440MOL0     C59291   8.129   7.248  -0.186 -0.0590  0.0154  0.3490
  440MOL0     C59292   8.252   7.292  -0.244 -0.3752 -1.0421  0.5125
  440MOL0     C59293   8.369   7.296  -0.166  0.0654  0.2796  0.8427
  440MOL0     C59294   8.497   7.338  -0.216  0.3947 -0.5246  0.4172
  440MOL0     O59295   8.607   7.269  -0.167  0.6858 -0.6861  0.6481
  440MOL0     C59296   8.727   7.275  -0.235  0.6913 -0.2553  0.7351
  440MOL0     C59297   8.840   7.300  -0.168 -0.3337 -0.0354  0.4103
  440MOL0     C59298   8.963   7.317  -0.229  0.1705 -0.3637 -0.2328
  440MOL0     C59299   8.973   7.302  -0.362 -0.4126 -0.5455  0.1349
  440MOL0     O59300   9.095   7.323  -0.420 -0.0073  0.4093 -0.2825
  440MOL0     C59301   9.113   7.305  -0.556  0.0644  0.2749 -0.6243
  440MOL0     C59302   9.260   7.310  -0.613  0.8308  0.4971 -0.1437
  440MOL0     C59303   9.362   7.245  -0.515  0.0845  0.2777  0.2771
  440MOL0     C59304   9.509   7.287  -0.565  0.3054  0.7205  0.6824
  440MOL0     C59305   9.556   7.425  -0.525 -0.1438 -0.9031  0.3118
  440MOL0     C59306   9.697   7.471  -0.570  0.5822 -0.8276 -0.1646
  440MOL0     C59307   9.716   7.524  -0.715 -0.3103 -0.3727  0.4973
  440MOL0     C59308   9.862   7.544  -0.763  0.6776 -0.2873  0.2775
  440MOL0    Cl59309   9.928   7.380  -0.768  0.1862  0.3410  0.2631
  440MOL0     C59310   8.851   7.286  -0.438 -0.0687 -0.1047 -0.0909
  440MOL0     C59311   8.736   7.262  -0.370  0.7488 -0.4894  0.1245
  440MOL0     O59312   8.497   7.418  -0.314 -0.0185 -0.3455 -0.3563
  440MOL0     C59313   8.358   7.267  -0.026  0.2970 -0.0423 -0.4106
  440MOL0     C59314   8.236   7.231   0.032 -0.2431 -0.3293 -0.1542
  440MOL0     N59315   7.689   7.368   0.526  0.2569 -0.2195  0.1242
  440MOL0     N59316   7.587   7.324   0.591  0.0999 -0.2017 -0.2202
  440MOL0     C59317   6.333   7.836   0.775  0.5484  0.8534 -0.6358
  440MOL0     C59318   6.192   7.830   0.783 -0.2372 -0.1334 -0.4878
  440MOL0     C59319   5.752   7.696   0.633 -0.1763 -0.1746 -0.0769
  440MOL0     C59320   5.671   7.651   0.529 -0.1152 -0.3049 -0.1582
  440MOL0     C59321   5.532   7.652   0.533  0.2719 -0.0720 -0.2082
  440MOL0     C59322   5.476   7.692   0.652  0.1561  0.1940  0.3437
  440MOL0     O59323   5.342   7.701   0.664 -0.0339  0.2065  0.0730
  440MOL0     C59324   5.281   7.619   0.767  0.1380 -0.4346 -1.3925
  440MOL0     C59325   5.141   7.578   0.722 -0.6262 -0.1063  0.6245
  440MOL0     C59326   5.050   7.564   0.842  0.3970  0.9339 -0.3909
  440MOL0     C59327   4.921   7.496   0.798 -0.5468 -0.3785  0.0256
  440MOL0     C59328   4.926   7.346   0.781 -0.5870 -0.4998 -0.4426
  440MOL0     C59329   4.943   7.229   0.758  0.4948  0.2055  0.1788
  440MOL0     C59330   5.547   7.741   0.758 -0.0511  0.2599  1.0088
  440MOL0     C59331   5.688   7.745   0.751  0.9470  0.1247 -0.0431
  440MOL0     C59332   5.756   7.780   0.878 -0.4253  0.1315 -0.0169
  440MOL0     H59333   6.147   7.537   0.615  1.2348  1.1052 -1.2469
  440MOL0     H59334   6.380   7.530   0.635  3.4456  2.7289 -2.4116
  440MOL0     H59335   6.558   7.673   0.536  0.0802 -2.8643 -0.7924
  440MOL0     H59336   6.695   7.761   0.604 -1.2703  0.4091  0.4524
  440MOL0     H59337   6.618   7.472   0.685 -2.8477  2.3924  1.9207
  440MOL0     H59338   6.747   7.582   0.767  0.2739 -0.3951  1.2981
  440MOL0     H59339   6.870   7.591   0.557  1.1511 -0.1639  0.9721
  440MOL0     H59340   6.746   7.488   0.477 -0.7204 -0.0544  0.5336
  440MOL0     H59341   6.892   7.398   0.717 -2.2881  0.5971 -0.2029
  440MOL0     H59342   6.824   7.293   0.594  0.3550  0.4798 -0.6615
  440MOL0     H59343   7.027   7.426   0.442  0.5330 -1.7394 -0.5843
  440MOL0     H59344   7.062   7.482   0.601 -1.0531  1.1649 -1.9726
  440MOL0     H59345   7.125   7.270   0.683  0.5002  0.0692  1.5919
  440MOL0     H59346   7.089   7.190   0.532  0.0984  1.0071 -0.8433
  440MOL0     H59347   7.303   7.415   0.537 -0.6096 -1.0529 -0.6885
  440MOL0     H59348   7.253   7.313   0.404 -0.3966 -2.4698 -0.5567
  440MOL0     H59349   7.366   7.219   0.657  3.7807  0.2118 -0.1644
  440MOL0     H59350   7.368   7.120   0.502  4.2898  1.4746 -3.4475
  440MOL0     H59351   7.493   7.264   0.287 -1.3334  1.3609 -0.1901
  440MOL0     H59352   7.662   7.425   0.187  1.4252  1.2988 -1.9511
  440MOL0     H59353   7.762   7.524   0.284  0.3606  0.5688 -0.6058
  440MOL0     H59354   7.907   7.397   0.159 -0.4887  2.6573  1.4955
  440MOL0     H59355   7.916   7.332   0.323 -1.0825 -0.2713 -0.0117
  440MOL0     H59356   7.775   7.187   0.096  1.6007 -1.1032 -1.8953
  440MOL0     H59357   7.813   7.121   0.259 -0.5323 -0.1984  0.7138
  440MOL0     H59358   7.952   7.022   0.110 -0.4442  0.5041 -2.9785
  440MOL0     H59359   8.058   7.144   0.196 -0.1298  2.3245 -0.1836
  440MOL0     H59360   8.044   7.226  -0.250 -1.4375  0.8047  1.8534
  440MOL0     H59361   8.257   7.295  -0.353 -0.7173  0.9252  0.5184
  440MOL0     H59362   8.842   7.314  -0.061  2.8764  0.9821  0.3372
  440MOL0     H59363   9.055   7.333  -0.174  0.5814 -0.5698 -0.8483
  440MOL0     H59364   9.057   7.216  -0.588 -0.3699  1.1472 -2.4700
  440MOL0     H59365   9.068   7.389  -0.610  1.8262  1.2180 -0.6702
  440MOL0     H59366   9.251   7.252  -0.705 -3.0536 -0.5719  0.7662
  440MOL0     H59367   9.299   7.410  -0.636  2.7884 -0.6175 -2.0342
  440MOL0     H59368   9.356   7.279  -0.412  0.5485  3.7387 -0.6952
  440MOL0     H59369   9.354   7.136  -0.519  3.3837 -0.1386  1.5695
  440MOL0     H59370   9.523   7.284  -0.674 -0.7140  2.4115  0.4690
  440MOL0     H59371   9.575   7.213  -0.519  0.8104 -0.1021 -1.2428
  440MOL0     H59372   9.564   7.426  -0.416  3.0747 -1.4482  0.1723
  440MOL0     H59373   9.490   7.507  -0.557 -1.0956 -1.3373  1.1138
  440MOL0     H59374   9.729   7.556  -0.509 -2.9704 -0.2492  1.1669
  440MOL0     H59375   9.761   7.389  -0.537 -1.0602 -1.8240  0.6730
  440MOL0     H59376   9.670   7.623  -0.723  1.3974  0.4300  0.1613
  440MOL0     H59377   9.668   7.462  -0.791  1.8793 -0.2456 -1.0705
  440MOL0     H59378   9.861   7.592  -0.861 -4.3247  0.4252  0.4545
  440MOL0     H59379   9.921   7.605  -0.694 -2.0507 -0.6890  3.1462
  440MOL0     H59380   8.858   7.285  -0.546 -1.4635  1.3994 -0.2205
  440MOL0     H59381   8.652   7.254  -0.439  1.3960  0.2625 -0.7724
  440MOL0     H59382   8.452   7.262   0.028 -0.7684 -1.1819  1.4403
  440MOL0     H59383   8.243   7.223   0.140 -1.1359 -0.0462 -0.0713
  440MOL0     H59384   6.401   7.912   0.814  0.1530  0.0061  1.8843
  440MOL0     H59385   6.141   7.920   0.816  2.0542  1.3796 -0.8125
  440MOL0     H59386   5.712   7.630   0.431 -0.1937  2.1166 -0.7635
  440MOL0     H59387   5.473   7.625   0.447  0.1689 -0.8576  0.1014
  440MOL0     H59388   5.272   7.682   0.856 -1.4170 -2.6925  0.1305
  440MOL0     H59389   5.350   7.543   0.804  1.3606  2.2882  2.6005
  440MOL0     H59390   5.148   7.483   0.667  0.2489  0.0901  0.3796
  440MOL0     H59391   5.096   7.647   0.650 -2.9161 -2.4508 -0.3560
  440MOL0     H59392   5.025   7.661   0.887  1.9535  1.7257 -1.1492
  440MOL0     H59393   5.106   7.499   0.910  0.0832 -1.4105 -2.2192
  440MOL0     H59394   4.849   7.515   0.878  2.5215  2.1045  2.4586
  440MOL0     H59395   4.873   7.546   0.714 -1.3668  1.4589  1.5009
  440MOL0     H59396   4.970   7.126   0.748 -2.4818 -0.6393 -0.3763
  440MOL0     H59397   5.496   7.777   0.847 -1.5407  0.4568  0.0986
  440MOL0     H59398   5.786   7.885   0.873 -0.2339  0.1351  0.9651
  440MOL0     H59399   5.689   7.772   0.964  1.0781  0.5404  1.2282
  440MOL0     H59400   5.839   7.714   0.907 -0.7477  0.4107  1.6307
  441MOL0     O59401   9.771   1.125   9.365 -0.5895  0.0994 -0.6612
  441MOL0     C59402   9.853   1.066   9.438 -1.1941  0.2289 -0.1509
  441MOL0     O59403   9.986   1.071   9.417  0.2801  0.4623 -0.1980
  441MOL0     C59404  10.043   1.102   9.300 -0.6591  0.2200  0.3569
  441MOL0     C59405   9.989   1.143   9.176 -0.0938  1.0106 -0.4494
  441MOL0     C59406  10.068   1.169   9.067  0.6345 -0.8379  0.2229
  441MOL0     C59407  10.208   1.167   9.079  0.7894 -0.4428 -0.4347
  441MOL0     O59408  10.296   1.191   8.974 -0.1117 -0.3506 -0.1839
  441MOL0     C59409  10.241   1.224   8.847  0.5639  0.4038 -0.0609
  441MOL0     C59410  10.347   1.286   8.754 -0.4437 -0.0949 -0.5776
  441MOL0     C59411  10.299   1.300   8.613 -0.7023 -0.0228 -0.2473
  441MOL0     C59412  10.404   1.386   8.535  0.2424 -0.2762  0.6232
  441MOL0     C59413  10.526   1.297   8.490  0.5411  0.2492 -0.4806
  441MOL0     C59414  10.646   1.393   8.455 -0.4688  0.4972  0.4846
  441MOL0     C59415  10.758   1.314   8.382  0.4207  0.2909 -0.2030
  441MOL0     C59416  10.905   1.359   8.411  0.0254 -0.0308  0.3454
  441MOL0     N59417  10.957   1.267   8.516  0.3420 -0.4014  0.1935
  441MOL0     C59418  10.969   1.304   8.647 -0.1503  1.3311  0.1822
  441MOL0     C59419  11.017   1.193   8.711 -0.0142  0.2636  0.8341
  441MOL0     C59420  11.054   1.184   8.852  0.0458 -0.0715 -0.9229
  441MOL0     C59421  11.160   1.085   8.884 -0.0712 -0.5428 -0.2447
  441MOL0     C59422  11.301   1.123   8.836 -0.7526  0.2193  0.6132
  441MOL0     C59423  11.401   1.024   8.899  0.1999 -0.2395  0.5927
  441MOL0     O59424  11.525   1.077   8.874 -0.0930 -0.1605 -0.0633
  441MOL0     C59425  11.639   0.993   8.887  0.2889  1.2890  0.3058
  441MOL0     C59426  11.634   0.866   8.956 -0.2969 -0.4968  0.1426
  441MOL0     C59427  11.760   0.801   8.972  1.6235 -0.7054 -0.7266
  441MOL0     C59428  11.877   0.849   8.925  0.1583 -0.1488 -0.0734
  441MOL0     C59429  12.007   0.779   8.944 -0.2166 -0.4157 -0.1721
  441MOL0     O59430  12.121   0.850   8.920 -0.7471  0.0846 -0.0329
  441MOL0     C59431  12.250   0.805   8.944 -0.8703  0.2391  0.2030
  441MOL0     C59432  12.289   0.716   9.050  0.5402 -1.0710  0.3531
  441MOL0     C59433  12.425   0.688   9.073  0.7844  0.1576  0.2807
  441MOL0     C59434  12.514   0.745   8.995  0.2120  0.6852  0.7920
  441MOL0     O59435  12.643   0.726   9.039  0.3324  0.4605  0.8195
  441MOL0     C59436  12.740   0.813   8.988  0.5508 -0.1857  0.0702
  441MOL0     C59437  12.879   0.803   9.047  0.3757 -0.3778  0.3181
  441MOL0     C59438  12.868   0.829   9.200 -0.2615  0.6859 -1.2476
  441MOL0     C59439  13.008   0.828   9.263  0.1063  0.2127  0.0124
  441MOL0     C59440  13.015   0.830   9.418 -0.0730  0.1573 -0.6216
  441MOL0     C59441  13.163   0.839   9.477  0.2897 -0.5330 -0.4899
  441MOL0     C59442  13.169   0.838   9.633  0.1427  0.3315  0.3670
  441MOL0     C59443  13.316   0.824   9.688 -0.2416 -0.1907  0.0177
  441MOL0    Cl59444  13.409   0.985   9.674  0.1571  0.0604  0.2171
  441MOL0     C59445  12.484   0.828   8.880 -0.2362 -0.0337 -0.1096
  441MOL0     C59446  12.354   0.852   8.860  0.3832  0.1923 -1.0219
  441MOL0     O59447  12.012   0.658   8.963  0.0745  0.1030  0.1156
  441MOL0     C59448  11.883   0.971   8.858 -0.1773  0.5618  0.4974
  441MOL0     C59449  11.767   1.041   8.841 -0.6759  0.2961  0.0015
  441MOL0     N59450  11.033   1.090   8.621  0.4593  0.4051 -0.6179
  441MOL0     N59451  10.999   1.135   8.501 -0.3582 -0.4009  0.1811
  441MOL0     C59452  10.259   1.141   9.201 -0.4455 -0.1637 -0.3055
  441MOL0     C59453  10.182   1.103   9.306 -0.1005 -0.0951 -0.4718
  441MOL0     C59454   9.805   0.979   9.545  0.6122 -0.3987  0.1084
  441MOL0     C59455   9.881   0.873   9.591 -0.3053 -0.0424 -0.4090
  441MOL0     C59456   9.840   0.775   9.686  0.0536 -0.1423  0.4253
  441MOL0     C59457   9.706   0.780   9.739  0.5899 -0.0790  0.9779
  441MOL0     O59458   9.644   0.696   9.829 -0.8586 -0.1059 -0.2822
  441MOL0     C59459   9.705   0.565   9.832 -0.0047  0.5197 -0.0216
  441MOL0     C59460   9.622   0.479   9.925 -0.1040  0.6748  0.4581
  441MOL0     C59461   9.481   0.449   9.872  0.5643  0.5444  0.4934
  441MOL0     C59462   9.377   0.388   9.962  0.6802  0.5817 -0.5651
  441MOL0     C59463   9.265   0.336   9.890 -0.1972  0.2464 -0.1490
  441MOL0     C59464   9.173   0.285   9.825  0.3313  1.3844 -0.0403
  441MOL0     C59465   9.627   0.885   9.694  0.2774 -0.3774  0.4339
  441MOL0     C59466   9.670   0.987   9.600 -0.2196  0.5993 -0.5163
  441MOL0     C59467   9.576   1.102   9.574  0.5121 -0.1254  0.3235
  441MOL0     H59468   9.882   1.150   9.159 -0.4719 -1.9116  0.1705
  441MOL0     H59469  10.010   1.192   8.978  2.3370 -0.6677 -0.8841
  441MOL0     H59470  10.200   1.138   8.793 -0.4659 -0.5449  2.0958
  441MOL0     H59471  10.158   1.295   8.853 -0.2955 -0.6778  2.1954
  441MOL0     H59472  10.432   1.221   8.774  0.3942  1.0441 -0.3422
  441MOL0     H59473  10.370   1.387   8.790  3.5553 -1.1039  0.1860
  441MOL0     H59474  10.203   1.353   8.613  0.1466  1.5768 -0.7513
  441MOL0     H59475  10.300   1.205   8.561  1.6598  0.0382 -0.4536
  441MOL0     H59476  10.353   1.441   8.456 -1.7759 -1.0930  1.2958
  441MOL0     H59477  10.432   1.468   8.601 -1.5904  0.3852  0.6280
  441MOL0     H59478  10.551   1.222   8.567 -0.7600 -0.5604 -0.8063
  441MOL0     H59479  10.500   1.234   8.404  1.1584 -3.3976  1.7675
  441MOL0     H59480  10.620   1.477   8.390  2.4801 -0.6872 -2.5089
  441MOL0     H59481  10.684   1.433   8.550  0.2997  0.4539  0.2042
  441MOL0     H59482  10.735   1.330   8.277  2.0406  1.0517 -0.4798
  441MOL0     H59483  10.747   1.206   8.396 -0.8677  0.5112  0.6683
  441MOL0     H59484  10.965   1.339   8.322 -0.7462 -0.1201 -0.1608
  441MOL0     H59485  10.914   1.463   8.444 -3.7124  0.1196  1.2554
  441MOL0     H59486  10.937   1.394   8.699  1.5769  1.6172  0.8315
  441MOL0     H59487  11.080   1.283   8.891 -0.3531 -0.0626 -0.6748
  441MOL0     H59488  10.966   1.145   8.904  0.3052 -1.3346 -1.4167
  441MOL0     H59489  11.175   1.077   8.992  3.3352  1.4488 -0.4173
  441MOL0     H59490  11.132   0.987   8.844  2.9372 -2.7735  2.5842
  441MOL0     H59491  11.308   1.227   8.870 -2.4777  0.8019 -0.6812
  441MOL0     H59492  11.316   1.133   8.728  1.2773  3.0303  1.0292
  441MOL0     H59493  11.397   0.919   8.869  0.0151 -0.0092 -0.2318
  441MOL0     H59494  11.388   1.031   9.007 -0.9524  1.0085  0.3989
  441MOL0     H59495  11.540   0.826   8.992 -0.5761  0.2898  0.2927
  441MOL0     H59496  11.765   0.702   9.015  1.7421 -0.6171 -0.5334
  441MOL0     H59497  12.220   0.665   9.117 -1.7061 -1.1786 -1.8618
  441MOL0     H59498  12.459   0.638   9.163  2.5976 -0.2325 -0.5694
  441MOL0     H59499  12.753   0.802   8.880  0.4439  0.0134  0.0351
  441MOL0     H59500  12.712   0.917   9.012 -0.6835 -0.3351 -0.6785
  441MOL0     H59501  12.925   0.707   9.023  2.2141 -0.1277  2.4574
  441MOL0     H59502  12.944   0.876   8.997  2.8896 -0.8394  2.6619
  441MOL0     H59503  12.805   0.913   9.231 -0.3402  0.3134 -0.3562
  441MOL0     H59504  12.814   0.740   9.236  2.5114 -1.2844 -1.5747
  441MOL0     H59505  13.064   0.913   9.224 -0.8239  0.6064 -0.4875
  441MOL0     H59506  13.052   0.733   9.230  0.3791  0.5095 -0.4853
  441MOL0     H59507  12.973   0.734   9.448  0.1564  0.6173  1.3083
  441MOL0     H59508  12.947   0.905   9.461 -0.9237 -2.0317  2.1924
  441MOL0     H59509  13.226   0.756   9.444  3.3416  1.3439  0.1853
  441MOL0     H59510  13.203   0.935   9.442 -0.8187 -0.7122 -2.3886
  441MOL0     H59511  13.104   0.756   9.664  1.1291 -0.5324  0.2104
  441MOL0     H59512  13.122   0.934   9.655 -0.2808  1.0983 -3.1387
  441MOL0     H59513  13.317   0.794   9.793 -3.3996  2.2911  0.9168
  441MOL0     H59514  13.382   0.754   9.636  0.6806  0.1959  0.6367
  441MOL0     H59515  12.556   0.889   8.826 -1.6548  2.4096  0.6191
  441MOL0     H59516  12.312   0.910   8.779  0.1412  2.8377  0.8832
  441MOL0     H59517  11.967   1.013   8.803 -0.7902 -0.0575 -0.9767
  441MOL0     H59518  11.768   1.137   8.791  1.1144  0.2972 -0.0228
  441MOL0     H59519  10.367   1.134   9.216 -0.3584 -2.3160 -1.5007
  441MOL0     H59520  10.222   1.078   9.404  0.5566  3.0826  0.1746
  441MOL0     H59521   9.981   0.853   9.554  0.1296 -1.6455  1.4625
  441MOL0     H59522   9.903   0.690   9.707 -0.1141 -0.4353 -0.2251
  441MOL0     H59523   9.806   0.565   9.875 -0.2078 -2.1289  0.6241
  441MOL0     H59524   9.711   0.526   9.730 -0.3816 -3.1682  1.2097
  441MOL0     H59525   9.610   0.525  10.024 -0.7813  0.6463  0.3941
  441MOL0     H59526   9.675   0.386   9.948 -0.2758  0.1712 -1.0860
  441MOL0     H59527   9.502   0.389   9.783  1.4139 -0.5139  1.3846
  441MOL0     H59528   9.449   0.549   9.839  2.1340  1.4686  1.6186
  441MOL0     H59529   9.428   0.305  10.013  1.3783  0.5962 -1.2117
  441MOL0     H59530   9.336   0.466  10.026  0.3406  2.0398 -2.4569
  441MOL0     H59531   9.087   0.242   9.778 -0.5419  1.7559  1.1799
  441MOL0     H59532   9.522   0.879   9.721  1.2462 -3.2160  4.4661
  441MOL0     H59533   9.533   1.088   9.475  0.2965  0.4274  0.3387
  441MOL0     H59534   9.489   1.097   9.640  0.6163 -1.4836  0.3878
  441MOL0     H59535   9.625   1.199   9.582 -1.5219  1.0653 -0.9266
  442MOL0     O59536   8.264   1.676  11.007  0.4414  0.3958 -0.5213
  442MOL0     C59537   8.248   1.549  11.003 -0.7875 -0.0181  0.0897
  442MOL0     O59538   8.348   1.462  11.016 -0.0157 -0.6165  0.0956
  442MOL0     C59539   8.477   1.508  11.020  1.0416 -0.2567 -0.0568
  442MOL0     C59540   8.550   1.586  10.923 -0.1432  1.2108 -0.2060
  442MOL0     C59541   8.689   1.604  10.948  0.0971 -0.0846  0.0665
  442MOL0     C59542   8.744   1.554  11.063  0.0612  0.7163  0.1537
  442MOL0     O59543   8.878   1.572  11.087  0.0006  0.0160 -0.8921
  442MOL0     C59544   8.943   1.515  11.202  0.0901 -0.6897  1.1968
  442MOL0     C59545   9.089   1.550  11.190  0.1590 -0.2007  0.0422
  442MOL0     C59546   9.122   1.698  11.224  0.0229 -0.1115  0.7225
  442MOL0     C59547   9.261   1.716  11.263  0.7513 -0.1262 -0.1375
  442MOL0     C59548   9.300   1.675  11.407  0.5622  0.4155  0.0819
  442MOL0     C59549   9.455   1.664  11.404  0.0489 -0.7843  0.3219
  442MOL0     C59550   9.502   1.515  11.397  0.6547 -0.0573  0.3472
  442MOL0     C59551   9.646   1.503  11.345  0.6207 -0.5692  0.3563
  442MOL0     N59552   9.704   1.374  11.327  0.1635  0.5978  0.1446
  442MOL0     C59553   9.753   1.308  11.212 -0.2562  0.4534  0.6750
  442MOL0     C59554   9.797   1.184  11.251 -0.4830 -0.7642  0.7769
  442MOL0     C59555   9.857   1.074  11.177 -0.0397 -0.3557 -0.2811
  442MOL0     C59556   9.995   1.126  11.126 -0.6459 -0.7563 -0.3253
  442MOL0     C59557  10.098   1.133  11.232 -0.1680  0.4057  0.2987
  442MOL0     C59558  10.234   1.162  11.164  0.5611  0.3296 -0.5143
  442MOL0     O59559  10.261   1.302  11.162 -0.5001  0.0113  0.4491
  442MOL0     C59560  10.371   1.336  11.087  0.0888 -0.8413  0.5489
  442MOL0     C59561  10.394   1.470  11.074 -0.5918 -0.6277 -0.2148
  442MOL0     C59562  10.507   1.524  11.002  0.3486 -0.1684 -0.8576
  442MOL0     C59563  10.599   1.441  10.933 -0.1233  0.7142  0.0246
  442MOL0     C59564  10.714   1.497  10.858 -0.2452  0.2858 -0.4339
  442MOL0     O59565  10.802   1.408  10.792 -0.3752 -0.4814  0.3170
  442MOL0     C59566  10.917   1.443  10.724  1.1534  0.6604 -0.3972
  442MOL0     C59567  10.926   1.564  10.651  0.8232 -0.1940 -0.3023
  442MOL0     C59568  11.041   1.584  10.575  0.7506  0.3385 -0.2661
  442MOL0     C59569  11.146   1.491  10.564 -0.4860  0.3021 -0.5849
  442MOL0     O59570  11.279   1.493  10.505 -0.6023  0.0087  0.1837
  442MOL0     C59571  11.321   1.617  10.445  0.4754 -0.0256 -0.5931
  442MOL0     C59572  11.467   1.661  10.450  0.5271 -0.3278  0.0163
  442MOL0     C59573  11.531   1.681  10.581 -0.3685 -0.1036 -0.7570
  442MOL0     C59574  11.668   1.755  10.587 -0.0028  0.3904  0.1971
  442MOL0     C59575  11.738   1.745  10.724  0.0925 -0.7688  0.7933
  442MOL0     C59576  11.663   1.824  10.831 -1.1358  0.4386  0.6253
  442MOL0     C59577  11.707   1.974  10.835 -0.3145 -0.2580 -0.6363
  442MOL0     C59578  11.629   2.050  10.948 -1.8942  0.0658  0.4871
  442MOL0    Cl59579  11.455   2.071  10.897 -0.0971  0.1397 -0.0198
  442MOL0     C59580  11.132   1.374  10.641  1.2414 -0.8847 -0.1251
  442MOL0     C59581  11.019   1.349  10.718  0.4825 -0.5922  0.8423
  442MOL0     O59582  10.734   1.622  10.879  0.5236  0.3443  0.4278
  442MOL0     C59583  10.576   1.302  10.942  0.1842 -0.2778  0.2212
  442MOL0     C59584  10.463   1.255  11.014  0.2088  0.3162  0.5039
  442MOL0     N59585   9.777   1.180  11.392  0.1111 -0.3788  0.6180
  442MOL0     N59586   9.717   1.286  11.431  0.2164  0.1735 -0.4902
  442MOL0     C59587   8.666   1.494  11.164 -0.1323 -0.8058  0.1865
  442MOL0     C59588   8.534   1.469  11.138 -0.0034  0.9271 -0.5204
  442MOL0     C59589   8.116   1.496  10.962 -0.2785 -0.5471  1.1008
  442MOL0     C59590   8.115   1.355  10.934  1.2349  0.1924  0.3624
  442MOL0     C59591   7.998   1.291  10.885 -0.0527 -0.3479  0.0698
  442MOL0     C59592   7.875   1.365  10.875 -0.4785  0.2184  0.1339
  442MOL0     O59593   7.755   1.305  10.860 -0.0107 -0.3983  0.1637
  442MOL0     C59594   7.751   1.171  10.808  0.6253 -0.1991  0.4130
  442MOL0     C59595   7.614   1.137  10.752 -0.0760 -0.4231 -0.4698
  442MOL0     C59596   7.497   1.181  10.848 -0.0316 -0.0084  0.3569
  442MOL0     C59597   7.499   1.122  10.982 -0.2881 -0.2935  0.3360
  442MOL0     C59598   7.498   0.972  10.990 -0.6049  0.4480 -0.0900
  442MOL0     C59599   7.484   0.858  10.993  0.0165  0.5037  0.4019
  442MOL0     C59600   7.873   1.500  10.914  0.4001 -0.4960  0.0143
  442MOL0     C59601   7.996   1.566  10.953 -0.5547  0.3037 -0.2522
  442MOL0     C59602   7.982   1.714  10.956 -0.8207  0.0826  0.2392
  442MOL0     H59603   8.495   1.606  10.832 -0.1285 -1.7650 -0.9632
  442MOL0     H59604   8.745   1.660  10.874 -1.2335  0.8710 -0.2627
  442MOL0     H59605   8.898   1.553  11.294  0.4690  1.5651  0.5216
  442MOL0     H59606   8.932   1.408  11.184 -0.8675 -0.1681 -1.7719
  442MOL0     H59607   9.116   1.528  11.086  2.1598 -1.2626  0.7353
  442MOL0     H59608   9.149   1.482  11.251  1.5625  1.9529  1.2139
  442MOL0     H59609   9.063   1.734  11.308  0.1515 -1.8131  1.5716
  442MOL0     H59610   9.108   1.761  11.136  2.0396  0.0173  0.4363
  442MOL0     H59611   9.318   1.665  11.186 -1.4370 -0.4188 -1.6647
  442MOL0     H59612   9.281   1.824  11.259 -0.4127  0.0624 -1.7090
  442MOL0     H59613   9.266   1.749  11.480 -1.3776 -0.5142  0.1642
  442MOL0     H59614   9.253   1.577  11.414 -1.5301  1.1752 -1.9704
  442MOL0     H59615   9.491   1.728  11.323 -2.8356  1.1878  0.4565
  442MOL0     H59616   9.499   1.709  11.493  0.4926 -1.4267  0.4338
  442MOL0     H59617   9.441   1.455  11.330  2.2289 -2.6567  1.1151
  442MOL0     H59618   9.498   1.479  11.500 -1.5634  1.6725  0.9675
  442MOL0     H59619   9.652   1.556  11.249 -0.7900 -0.4375  0.3253
  442MOL0     H59620   9.707   1.565  11.411  1.3421  2.1064 -2.5643
  442MOL0     H59621   9.749   1.341  11.109  1.1946  1.8129  1.0060
  442MOL0     H59622   9.860   0.984  11.239 -2.5292 -3.0223 -3.6658
  442MOL0     H59623   9.797   1.036  11.094 -1.5938 -0.0283  0.6654
  442MOL0     H59624  10.024   1.074  11.034  1.1138 -0.1034 -0.1787
  442MOL0     H59625   9.978   1.232  11.104 -4.4676 -1.1541 -0.0186
  442MOL0     H59626  10.110   1.039  11.287 -2.0696 -1.0606 -1.5967
  442MOL0     H59627  10.075   1.207  11.309  1.8554  2.1212 -0.6584
  442MOL0     H59628  10.246   1.125  11.062  1.6943  2.3167 -1.1640
  442MOL0     H59629  10.301   1.119  11.239 -1.4253  1.5917  2.1398
  442MOL0     H59630  10.326   1.540  11.123  0.6249  1.8299 -1.8347
  442MOL0     H59631  10.523   1.630  10.991  1.5007 -0.2490 -0.1888
  442MOL0     H59632  10.843   1.635  10.648 -0.3894 -1.4506  1.3355
  442MOL0     H59633  11.058   1.681  10.530  0.6195  1.8704  2.7383
  442MOL0     H59634  11.295   1.605  10.339  0.8095 -0.1415 -0.6599
  442MOL0     H59635  11.262   1.702  10.482  0.1989 -0.3792 -0.2158
  442MOL0     H59636  11.519   1.575  10.406 -0.8092 -2.0879  1.6944
  442MOL0     H59637  11.471   1.755  10.396 -1.0113  0.7125  1.6063
  442MOL0     H59638  11.460   1.729  10.650  1.5707  1.8097  0.0123
  442MOL0     H59639  11.541   1.582  10.627 -3.4878  0.0221  0.4801
  442MOL0     H59640  11.648   1.858  10.559 -2.4686 -0.1124 -0.1081
  442MOL0     H59641  11.732   1.720  10.505  1.1550  2.2158  0.2817
  442MOL0     H59642  11.840   1.782  10.710  0.0436 -1.4096 -1.6669
  442MOL0     H59643  11.746   1.643  10.765  0.2198 -0.4748  1.5219
  442MOL0     H59644  11.554   1.821  10.818 -1.2776  2.0879  1.1539
  442MOL0     H59645  11.691   1.787  10.930  0.2133  2.0100  0.8824
  442MOL0     H59646  11.696   2.019  10.735  0.3417 -2.0708 -1.5720
  442MOL0     H59647  11.811   1.968  10.869 -0.7853  0.4929  1.0204
  442MOL0     H59648  11.650   1.990  11.037  1.9801 -0.6771 -0.7512
  442MOL0     H59649  11.669   2.152  10.956  1.3866 -1.1515  0.9588
  442MOL0     H59650  11.204   1.295  10.622  1.3293 -1.0257  0.7789
  442MOL0     H59651  11.027   1.252  10.767 -1.7599 -0.6954  1.1067
  442MOL0     H59652  10.639   1.236  10.884 -1.8003  0.2792 -2.7526
  442MOL0     H59653  10.463   1.147  11.024  3.1763  0.0032 -1.4827
  442MOL0     H59654   8.706   1.451  11.255  1.3053 -0.3858 -0.2170
  442MOL0     H59655   8.481   1.421  11.219  2.5294 -0.7438  0.2583
  442MOL0     H59656   8.201   1.289  10.945  1.1900 -0.0687 -0.7486
  442MOL0     H59657   8.005   1.185  10.864 -1.7133 -0.6000  0.6324
  442MOL0     H59658   7.775   1.099  10.886  2.8727 -0.4363 -0.4368
  442MOL0     H59659   7.822   1.151  10.727  2.0325  1.4894  1.1690
  442MOL0     H59660   7.609   1.029  10.733 -0.2039 -0.6756  0.9036
  442MOL0     H59661   7.597   1.183  10.654 -2.2707 -0.7544 -0.2875
  442MOL0     H59662   7.399   1.151  10.809 -0.4624  0.6460  0.9135
  442MOL0     H59663   7.491   1.290  10.846  0.2858  0.0081 -1.9756
  442MOL0     H59664   7.587   1.150  11.039 -1.1042 -3.0329  3.2258
  442MOL0     H59665   7.413   1.156  11.040 -0.4073 -0.5861  0.3318
  442MOL0     H59666   7.464   0.754  11.008 -0.1043  0.6473  1.2493
  442MOL0     H59667   7.774   1.545  10.913  0.5715 -0.0622 -2.0046
  442MOL0     H59668   8.058   1.756  10.889 -0.8112  1.1848  0.9181
  442MOL0     H59669   7.879   1.742  10.933 -0.5412 -0.9197 -2.6457
  442MOL0     H59670   8.002   1.743  11.060 -2.2015  0.0657  0.5284
  443MOL0     O59671   2.842   0.349   6.119 -0.8607 -0.1500 -0.7792
  443MOL0     C59672   2.791   0.416   6.035 -0.2132 -0.4645  0.8357
  443MOL0     O59673   2.849   0.517   5.964 -0.4543  0.7714 -0.0572
  443MOL0     C59674   2.986   0.533   5.973  0.2594  0.6958  0.5622
  443MOL0     C59675   3.035   0.658   5.977  0.2242 -0.1005 -0.8212
  443MOL0     C59676   3.171   0.681   5.966 -0.1477  0.1852  0.4534
  443MOL0     C59677   3.258   0.578   5.935 -0.0696 -0.3706 -0.0796
  443MOL0     O59678   3.384   0.624   5.904 -0.3447 -0.1220 -0.3670
  443MOL0     C59679   3.455   0.556   5.801 -0.0829 -0.4837 -0.0442
  443MOL0     C59680   3.578   0.476   5.845 -0.2765  0.3083 -0.3528
  443MOL0     C59681   3.687   0.554   5.910  0.0527  0.3977  1.3035
  443MOL0     C59682   3.798   0.561   5.796 -0.1673 -0.0612 -0.3810
  443MOL0     C59683   3.924   0.609   5.865  0.3925 -1.2208 -0.0148
  443MOL0     C59684   4.024   0.629   5.750 -0.2762  0.6009  0.5357
  443MOL0     C59685   4.155   0.654   5.816 -0.0017  0.4782  0.5590
  443MOL0     C59686   4.259   0.718   5.718 -0.0257 -0.3660  0.5589
  443MOL0     N59687   4.391   0.723   5.776 -0.4227  0.0043 -0.6028
  443MOL0     C59688   4.415   0.799   5.893  0.9964  0.7181  0.1180
  443MOL0     C59689   4.544   0.769   5.942  0.0985  0.2928  0.0506
  443MOL0     C59690   4.609   0.844   6.056 -0.3138 -0.9692 -0.0606
  443MOL0     C59691   4.647   0.989   6.010  0.3568  0.9143 -0.2505
  443MOL0     C59692   4.757   1.045   6.115  0.2580 -0.3633 -0.4740
  443MOL0     C59693   4.822   1.179   6.064 -1.0671  0.5402 -0.6779
  443MOL0     O59694   4.906   1.151   5.952  0.4969 -0.3185 -0.2356
  443MOL0     C59695   4.994   1.248   5.907 -0.8295  0.2009  0.7125
  443MOL0     C59696   4.980   1.384   5.929  0.0791  0.1194 -0.4242
  443MOL0     C59697   5.079   1.467   5.892 -0.3123 -1.2156 -0.2077
  443MOL0     C59698   5.192   1.428   5.822 -0.4662 -0.1797 -1.3582
  443MOL0     C59699   5.298   1.527   5.785 -0.0549  0.3907  0.4091
  443MOL0     O59700   5.409   1.474   5.726  0.0605  0.4618  0.0174
  443MOL0     C59701   5.528   1.541   5.713  0.9379 -0.3930  0.1907
  443MOL0     C59702   5.581   1.644   5.800  0.1823 -0.6292  0.1964
  443MOL0     C59703   5.709   1.704   5.781  0.3208  0.0355  0.9453
  443MOL0     C59704   5.787   1.682   5.666 -0.0181 -0.3390 -0.3250
  443MOL0     O59705   5.905   1.745   5.621 -0.3621  0.5762  0.6804
  443MOL0     C59706   5.967   1.819   5.732  0.4957  0.4194 -0.2232
  443MOL0     C59707   6.100   1.881   5.688  0.4356  0.3841 -0.2154
  443MOL0     C59708   6.164   1.961   5.801 -0.5933 -0.2812 -0.2915
  443MOL0     C59709   6.317   1.975   5.788  0.8271  0.3709  0.1351
  443MOL0     C59710   6.361   2.072   5.676  0.2132  0.4511  0.3842
  443MOL0     C59711   6.317   2.220   5.689  0.0530 -0.3857 -0.3919
  443MOL0     C59712   6.381   2.317   5.587  0.8744  0.1780 -0.0078
  443MOL0     C59713   6.329   2.459   5.605 -0.0077 -0.0028  0.4568
  443MOL0    Cl59714   6.392   2.536   5.748  0.2585 -0.5308  0.3892
  443MOL0     C59715   5.740   1.571   5.593 -1.0735  0.3032 -0.4922
  443MOL0     C59716   5.619   1.502   5.620  0.4824  0.9050  0.4743
  443MOL0     O59717   5.274   1.643   5.804  0.1848 -0.1660  0.2633
  443MOL0     C59718   5.203   1.284   5.795 -0.3426 -0.0231  0.0275
  443MOL0     C59719   5.103   1.194   5.836  0.1603  0.6003  0.6491
  443MOL0     N59720   4.591   0.670   5.851  0.0467  0.5340 -0.9403
  443MOL0     N59721   4.502   0.640   5.760 -1.4762 -0.8700 -0.5445
  443MOL0     C59722   3.206   0.446   5.933  0.1209  0.8502  0.4881
  443MOL0     C59723   3.070   0.423   5.960 -0.2458  0.1568 -0.3071
  443MOL0     C59724   2.638   0.397   6.027 -0.5238 -0.1163  0.2221
  443MOL0     C59725   2.573   0.353   6.146  0.2556  0.1935  0.7275
  443MOL0     C59726   2.435   0.334   6.150  0.6282 -0.3970 -0.1068
  443MOL0     C59727   2.350   0.355   6.037  0.3628  1.2749  0.4062
  443MOL0     O59728   2.217   0.324   6.029  0.1548  0.2243  0.1335
  443MOL0     C59729   2.145   0.357   6.149 -0.1949  0.2126 -0.3719
  443MOL0     C59730   2.091   0.245   6.235 -0.5893  0.3395 -0.2208
  443MOL0     C59731   2.103   0.283   6.376 -0.0746  0.5205 -0.6980
  443MOL0     C59732   1.994   0.371   6.424  0.0939  0.4880 -0.4179
  443MOL0     C59733   1.851   0.327   6.411 -0.1869  1.0123  0.2792
  443MOL0     C59734   1.735   0.287   6.413 -0.0723 -0.0120  0.3420
  443MOL0     C59735   2.419   0.386   5.924 -0.6399 -0.0633  0.7007
  443MOL0     C59736   2.562   0.411   5.915 -0.5705  0.5013 -0.7844
  443MOL0     C59737   2.626   0.452   5.774  0.3904 -0.8235 -0.2187
  443MOL0     H59738   2.963   0.739   5.973  1.2639  0.9793  1.0548
  443MOL0     H59739   3.204   0.782   5.988 -0.5533  0.3732  0.1922
  443MOL0     H59740   3.383   0.488   5.754 -2.4039  1.7602  0.0926
  443MOL0     H59741   3.486   0.630   5.726 -3.2201 -2.0892 -3.2110
  443MOL0     H59742   3.609   0.397   5.775 -1.6491 -0.3770 -0.2044
  443MOL0     H59743   3.531   0.418   5.925  1.7738  1.1389  1.5770
  443MOL0     H59744   3.724   0.501   5.998  1.6847 -1.6427 -0.4984
  443MOL0     H59745   3.652   0.653   5.942 -2.9135 -0.8089  2.1377
  443MOL0     H59746   3.810   0.459   5.758  0.0098 -0.7493  1.3906
  443MOL0     H59747   3.764   0.622   5.712 -2.3275 -0.2297  0.3004
  443MOL0     H59748   3.902   0.707   5.907 -1.8913 -1.3804 -0.7033
  443MOL0     H59749   3.961   0.540   5.941 -1.3260 -0.5147  1.5273
  443MOL0     H59750   4.016   0.540   5.686 -1.8675  2.6276 -2.3449
  443MOL0     H59751   4.006   0.717   5.686 -0.0395 -0.4522 -1.0522
  443MOL0     H59752   4.199   0.559   5.850 -1.2821 -0.2662  0.2248
  443MOL0     H59753   4.148   0.713   5.907  0.4616  0.0932  0.8530
  443MOL0     H59754   4.272   0.661   5.626  1.9760  0.8845 -0.0059
  443MOL0     H59755   4.235   0.819   5.685  1.1834 -0.7559 -1.7186
  443MOL0     H59756   4.359   0.876   5.944  2.0672  2.5814 -1.3624
  443MOL0     H59757   4.528   0.853   6.129 -2.1204 -2.6562 -1.7472
  443MOL0     H59758   4.699   0.792   6.090  0.6600  0.4613 -0.3453
  443MOL0     H59759   4.685   1.000   5.908 -1.2590 -0.0928 -1.0105
  443MOL0     H59760   4.560   1.055   6.013 -0.4717 -0.1696  1.4298
  443MOL0     H59761   4.841   0.976   6.131  1.1924  1.0318  0.8530
  443MOL0     H59762   4.703   1.074   6.205  2.6098 -1.1747  1.3304
  443MOL0     H59763   4.885   1.231   6.137  1.0657  0.4697 -2.3567
  443MOL0     H59764   4.740   1.245   6.034 -1.0038 -0.2378 -2.6929
  443MOL0     H59765   4.885   1.409   5.976 -0.4545 -1.8060 -0.3999
  443MOL0     H59766   5.066   1.574   5.902  0.1726 -1.3262  2.1339
  443MOL0     H59767   5.517   1.667   5.885 -0.9385  1.1346 -1.0459
  443MOL0     H59768   5.734   1.779   5.856 -0.1192 -0.3826  1.5258
  443MOL0     H59769   5.894   1.896   5.760  0.5897  0.4588 -0.0854
  443MOL0     H59770   5.974   1.755   5.820  0.3110 -3.0638 -2.5499
  443MOL0     H59771   6.154   1.790   5.660 -0.2414 -0.5886  1.5117
  443MOL0     H59772   6.085   1.936   5.594 -3.0447 -0.6126 -0.3745
  443MOL0     H59773   6.123   2.062   5.814 -0.2414 -0.0916 -0.6172
  443MOL0     H59774   6.132   1.918   5.896 -0.7379 -1.5391 -0.8913
  443MOL0     H59775   6.360   1.876   5.772 -3.2665 -1.5760 -0.0858
  443MOL0     H59776   6.360   2.021   5.878  0.1350  2.0194 -0.3508
  443MOL0     H59777   6.318   2.026   5.586  0.7085  0.4557  0.1411
  443MOL0     H59778   6.470   2.070   5.685  0.0311  0.0748  4.0634
  443MOL0     H59779   6.210   2.228   5.667 -0.2087 -1.4105  0.4171
  443MOL0     H59780   6.341   2.250   5.791  0.3068 -0.0903 -0.5363
  443MOL0     H59781   6.367   2.281   5.485 -0.8629  2.0971 -0.5170
  443MOL0     H59782   6.490   2.312   5.600  0.7494 -1.4968  0.6464
  443MOL0     H59783   6.354   2.518   5.516 -1.4318  0.3873  0.2861
  443MOL0     H59784   6.220   2.459   5.604 -0.0211  0.9664 -0.4784
  443MOL0     H59785   5.803   1.539   5.510  1.3366  3.0499  0.1245
  443MOL0     H59786   5.608   1.412   5.562  2.5225  0.3520  0.8892
  443MOL0     H59787   5.292   1.245   5.746  0.1066 -0.9015  1.4640
  443MOL0     H59788   5.116   1.089   5.810  0.3698  1.3724 -2.7387
  443MOL0     H59789   3.286   0.375   5.915  1.4486  2.9165 -2.7904
  443MOL0     H59790   3.023   0.326   5.967  1.3003 -0.5149  1.5512
  443MOL0     H59791   2.629   0.334   6.237  2.7122  0.8493 -0.5621
  443MOL0     H59792   2.386   0.294   6.238 -0.4625  3.4133  1.2400
  443MOL0     H59793   2.054   0.407   6.114  0.7964  1.2131 -1.5987
  443MOL0     H59794   2.200   0.436   6.200  2.9203 -1.3490 -1.0679
  443MOL0     H59795   2.158   0.160   6.218 -2.2882 -0.9661 -0.7156
  443MOL0     H59796   1.989   0.213   6.214 -0.5081  1.0215 -1.8145
  443MOL0     H59797   2.207   0.316   6.386  0.3797 -0.4888 -1.9181
  443MOL0     H59798   2.081   0.197   6.440  1.1627  0.8386  0.1988
  443MOL0     H59799   1.991   0.399   6.530 -1.5702 -2.0171  0.2834
  443MOL0     H59800   2.002   0.462   6.364 -1.4764  1.3411  0.6014
  443MOL0     H59801   1.636   0.247   6.424 -0.2803  0.4669  0.2869
  443MOL0     H59802   2.360   0.388   5.832  0.4791 -1.1121 -0.0693
  443MOL0     H59803   2.732   0.478   5.769  0.1435  0.1399 -0.6087
  443MOL0     H59804   2.611   0.367   5.706 -1.0260 -0.5691 -0.2674
  443MOL0     H59805   2.574   0.543   5.742 -1.0198 -2.0794 -1.7197
  444MOL0     O59806   2.605   0.467   6.470  0.0448  0.3047  0.4427
  444MOL0     C59807   2.588   0.421   6.580  0.2116 -0.2913 -0.5124
  444MOL0     O59808   2.683   0.369   6.664 -0.5488 -0.8391 -0.1619
  444MOL0     C59809   2.815   0.344   6.632  0.4873 -0.0448 -0.7119
  444MOL0     C59810   2.888   0.311   6.742 -0.5500 -1.0961 -0.4536
  444MOL0     C59811   3.031   0.273   6.724  0.8686  0.3238 -0.0264
  444MOL0     C59812   3.087   0.284   6.600  0.3493 -0.1954  1.0000
  444MOL0     O59813   3.222   0.282   6.571  0.6897 -0.0332  0.4677
  444MOL0     C59814   3.307   0.226   6.666 -0.1782  0.2605 -0.8678
  444MOL0     C59815   3.449   0.212   6.605 -0.2677 -0.0261  0.4576
  444MOL0     C59816   3.545   0.125   6.683 -0.4314  0.1502 -0.1068
  444MOL0     C59817   3.671   0.086   6.604 -0.7190  0.4981  0.1230
  444MOL0     C59818   3.787   0.032   6.683  0.4211  0.7957 -0.0803
  444MOL0     C59819   3.742  -0.086   6.771  0.0003  0.2409  0.3001
  444MOL0     C59820   3.856  -0.186   6.825  0.1933  0.2003  0.7878
  444MOL0     C59821   3.916  -0.289   6.727  0.8044 -0.8011  0.5449
  444MOL0     N59822   4.029  -0.240   6.646 -0.0014 -0.5995 -0.5028
  444MOL0     C59823   4.135  -0.163   6.688 -0.4242 -0.4133  0.0131
  444MOL0     C59824   4.226  -0.170   6.584  0.8223 -0.4095  1.2172
  444MOL0     C59825   4.364  -0.134   6.591 -1.6866 -0.4076 -0.4864
  444MOL0     C59826   4.447  -0.165   6.465 -0.1280  0.2133 -0.9223
  444MOL0     C59827   4.594  -0.115   6.476 -0.1560  0.1578  0.2711
  444MOL0     C59828   4.681  -0.163   6.358 -0.8772 -0.2650  0.5114
  444MOL0     O59829   4.823  -0.131   6.375  0.4121  0.1931 -0.1949
  444MOL0     C59830   4.919  -0.165   6.280  0.1929  0.0186 -0.9769
  444MOL0     C59831   4.893  -0.196   6.151  0.2800  0.2378  0.1317
  444MOL0     C59832   4.998  -0.213   6.061  0.1388 -0.3016  0.0355
  444MOL0     C59833   5.131  -0.210   6.100 -0.7409 -0.4812 -0.1366
  444MOL0     C59834   5.245  -0.229   6.006  0.1721 -0.9937 -0.8564
  444MOL0     O59835   5.367  -0.238   6.061  0.0243  0.5260 -0.1724
  444MOL0     C59836   5.465  -0.300   5.981  0.1988  1.1306 -0.5342
  444MOL0     C59837   5.486  -0.441   5.970  1.0257  0.4430  0.6993
  444MOL0     C59838   5.602  -0.478   5.902 -0.1284  0.6362  0.0044
  444MOL0     C59839   5.702  -0.388   5.845 -0.0199  0.0086  0.1169
  444MOL0     O59840   5.794  -0.441   5.765  0.1475  0.0165 -0.7889
  444MOL0     C59841   5.915  -0.476   5.827 -0.7226 -0.3611  0.7829
  444MOL0     C59842   6.039  -0.432   5.745 -0.0711 -0.6397  0.5112
  444MOL0     C59843   6.149  -0.536   5.756 -0.1253  0.4572  0.0627
  444MOL0     C59844   6.276  -0.490   5.679 -0.2710  0.5370 -0.3392
  444MOL0     C59845   6.403  -0.575   5.694 -0.0151  0.6241  0.0101
  444MOL0     C59846   6.522  -0.536   5.617 -0.3791 -0.3266  0.3016
  444MOL0     C59847   6.585  -0.398   5.673  0.3501 -0.7814  0.4795
  444MOL0     C59848   6.698  -0.340   5.601  0.2254 -0.1557 -0.1976
  444MOL0    Cl59849   6.842  -0.447   5.591 -0.0147 -0.1826 -0.1843
  444MOL0     C59850   5.672  -0.255   5.855  0.0486  0.1799 -0.5341
  444MOL0     C59851   5.560  -0.211   5.926  0.8050 -0.0614 -0.2963
  444MOL0     O59852   5.220  -0.228   5.884 -0.5798 -0.2651  0.1621
  444MOL0     C59853   5.154  -0.170   6.235 -1.0986  0.2958  0.4951
  444MOL0     C59854   5.050  -0.156   6.326  0.4545  0.2815 -0.2793
  444MOL0     N59855   4.151  -0.215   6.470 -0.2559  0.5271  0.0169
  444MOL0     N59856   4.046  -0.270   6.519  0.1512 -0.4274  0.0822
  444MOL0     C59857   3.007   0.318   6.492  0.1861  0.6938 -0.7370
  444MOL0     C59858   2.872   0.345   6.504  0.6102 -0.1881 -0.7904
  444MOL0     C59859   2.453   0.438   6.646  1.0887  0.1067  0.3353
  444MOL0     C59860   2.433   0.351   6.759  0.0063 -0.3056  0.5895
  444MOL0     C59861   2.311   0.351   6.837  0.1866 -0.1068  0.0266
  444MOL0     C59862   2.204   0.439   6.805 -0.2904 -0.2766  0.2203
  444MOL0     O59863   2.083   0.462   6.871 -0.6336 -0.2401 -0.3984
  444MOL0     C59864   2.043   0.357   6.958 -0.3912  1.0947  0.3715
  444MOL0     C59865   2.014   0.231   6.868 -0.0657  0.2379 -0.3113
  444MOL0     C59866   1.893   0.239   6.779  0.0683 -0.4383 -0.7516
  444MOL0     C59867   1.751   0.238   6.850  0.1141 -0.0136 -0.0843
  444MOL0     C59868   1.643   0.189   6.759 -0.2909 -0.3590 -0.2834
  444MOL0     C59869   1.562   0.138   6.682  0.2544 -0.0934 -0.2604
  444MOL0     C59870   2.225   0.527   6.698 -0.4511 -0.4618 -0.0216
  444MOL0     C59871   2.345   0.521   6.615 -0.3391  0.5312  0.4469
  444MOL0     C59872   2.345   0.603   6.484 -0.5032 -0.5040  0.0266
  444MOL0     H59873   2.842   0.309   6.840  0.3461  1.2077  0.0800
  444MOL0     H59874   3.098   0.256   6.807  1.1266 -0.7421 -0.4396
  444MOL0     H59875   3.314   0.291   6.753 -0.9786  0.0502 -0.6339
  444MOL0     H59876   3.271   0.128   6.700  1.5867 -0.4689 -1.0095
  444MOL0     H59877   3.491   0.313   6.598  0.8713 -0.5160 -0.1109
  444MOL0     H59878   3.447   0.169   6.505  3.0602 -0.2675  0.3708
  444MOL0     H59879   3.486   0.035   6.703  1.3697 -0.7089  1.6997
  444MOL0     H59880   3.574   0.188   6.767 -0.2580  0.6393 -0.5326
  444MOL0     H59881   3.637   0.005   6.540 -2.5574 -0.4256  2.1395
  444MOL0     H59882   3.707   0.173   6.547 -1.7787  0.8025 -0.1021
  444MOL0     H59883   3.846  -0.007   6.599  1.0905  2.2170 -0.2918
  444MOL0     H59884   3.841   0.110   6.738  2.9697 -1.3566  0.7150
  444MOL0     H59885   3.684  -0.051   6.856 -0.2623  1.1058 -0.2169
  444MOL0     H59886   3.667  -0.147   6.720  0.5285 -1.9749  2.0514
  444MOL0     H59887   3.809  -0.247   6.903 -1.9944  0.1120 -0.4971
  444MOL0     H59888   3.929  -0.122   6.875  1.0108  1.3571 -1.6951
  444MOL0     H59889   3.965  -0.366   6.787  0.7004 -1.5111 -0.2679
  444MOL0     H59890   3.838  -0.335   6.666  2.0708  0.0839 -1.9169
  444MOL0     H59891   4.154  -0.156   6.794 -2.0088 -1.2740  0.3932
  444MOL0     H59892   4.380  -0.028   6.615 -0.4166 -0.1591 -2.2414
  444MOL0     H59893   4.409  -0.182   6.678 -0.8387  1.1331 -0.0245
  444MOL0     H59894   4.440  -0.269   6.434  0.9715 -0.1134 -0.1572
  444MOL0     H59895   4.414  -0.108   6.378  4.3777 -0.8408 -3.6692
  444MOL0     H59896   4.643  -0.155   6.565 -1.9846  0.0543  1.2619
  444MOL0     H59897   4.599  -0.006   6.480  2.7908  0.1327 -0.1308
  444MOL0     H59898   4.643  -0.119   6.265  3.2027 -0.3070 -1.4102
  444MOL0     H59899   4.670  -0.270   6.335 -0.6175 -0.2525  0.3135
  444MOL0     H59900   4.795  -0.203   6.106  0.0014 -0.8556  0.8699
  444MOL0     H59901   4.983  -0.233   5.955  0.5981 -2.3313  0.3047
  444MOL0     H59902   5.428  -0.521   6.015  2.0678 -0.9326 -0.3223
  444MOL0     H59903   5.616  -0.584   5.887  1.6330  0.9688 -0.9194
  444MOL0     H59904   5.916  -0.433   5.927 -0.1021 -3.1727  2.0649
  444MOL0     H59905   5.915  -0.584   5.843  0.3713 -0.1113  2.6384
  444MOL0     H59906   6.008  -0.429   5.640  1.4846 -0.5057  0.0255
  444MOL0     H59907   6.063  -0.330   5.775  0.2071 -1.0065  1.5636
  444MOL0     H59908   6.176  -0.555   5.860  2.3679 -2.2456 -0.9346
  444MOL0     H59909   6.131  -0.633   5.710  0.7444 -0.0448  0.7583
  444MOL0     H59910   6.300  -0.390   5.718 -0.4252  0.7433 -0.7586
  444MOL0     H59911   6.271  -0.467   5.572  2.3598  0.8374 -0.4781
  444MOL0     H59912   6.378  -0.676   5.659 -1.0069  0.8818 -0.0578
  444MOL0     H59913   6.434  -0.590   5.797  0.7964  3.0517  0.1693
  444MOL0     H59914   6.603  -0.610   5.614 -0.8144 -0.9409  2.4015
  444MOL0     H59915   6.493  -0.509   5.515  0.2132 -1.6560 -0.2494
  444MOL0     H59916   6.611  -0.400   5.779 -0.2132  0.5431  0.6601
  444MOL0     H59917   6.512  -0.317   5.668  0.4070 -0.7629 -0.1067
  444MOL0     H59918   6.663  -0.310   5.502  0.3508  0.7895  0.0344
  444MOL0     H59919   6.736  -0.247   5.645 -0.1768 -0.1811  0.2060
  444MOL0     H59920   5.734  -0.171   5.826 -0.6668  1.1499  0.5909
  444MOL0     H59921   5.547  -0.104   5.940  0.5881  0.0925 -1.5931
  444MOL0     H59922   5.254  -0.147   6.271 -0.9865 -2.0089  1.8311
  444MOL0     H59923   5.059  -0.128   6.430  1.0861  0.6688 -0.4323
  444MOL0     H59924   3.050   0.326   6.393 -0.3086 -1.1925 -1.1370
  444MOL0     H59925   2.819   0.369   6.413  0.0316  1.0264 -0.1585
  444MOL0     H59926   2.513   0.287   6.794  1.8388  1.0452 -0.9154
  444MOL0     H59927   2.316   0.288   6.926  0.7915 -2.1966 -1.4005
  444MOL0     H59928   1.959   0.376   7.025 -0.0360 -1.5605  1.7237
  444MOL0     H59929   2.127   0.337   7.026  0.3153  0.2199 -0.7144
  444MOL0     H59930   2.003   0.146   6.936 -0.6945  2.0142  1.9166
  444MOL0     H59931   2.104   0.222   6.808  0.3257 -0.5711  0.3802
  444MOL0     H59932   1.892   0.150   6.716 -1.3184 -1.8210  1.1154
  444MOL0     H59933   1.901   0.325   6.712  3.3292 -0.1259 -0.1214
  444MOL0     H59934   1.755   0.178   6.942  1.4060 -1.1498 -0.8413
  444MOL0     H59935   1.732   0.342   6.877  1.8294  0.0861  0.9026
  444MOL0     H59936   1.505   0.084   6.608 -0.2005  0.2806 -0.1880
  444MOL0     H59937   2.146   0.601   6.692 -0.3761 -0.0207  2.9892
  444MOL0     H59938   2.340   0.532   6.401 -1.2419 -0.8245  0.3358
  444MOL0     H59939   2.259   0.671   6.471 -0.5062 -0.4572  0.2965
  444MOL0     H59940   2.426   0.675   6.472 -0.6890 -0.0029  1.5807
  445MOL0     O59941   0.225  10.802   4.679  0.1699  0.1876 -0.3161
  445MOL0     C59942   0.231  10.737   4.783  0.7875 -0.1853 -0.4657
  445MOL0     O59943   0.332  10.741   4.868  0.2151  0.0936  0.9178
  445MOL0     C59944   0.451  10.752   4.813  0.4284 -0.4594  0.1253
  445MOL0     C59945   0.509  10.646   4.739  0.4886 -0.4422 -0.3681
  445MOL0     C59946   0.633  10.661   4.678  1.3613  0.1767  1.4437
  445MOL0     C59947   0.697  10.785   4.687 -0.7324 -0.5869 -0.8728
  445MOL0     O59948   0.810  10.805   4.613 -0.1393  0.1393 -0.0983
  445MOL0     C59949   0.934  10.772   4.675 -0.4944  0.0418  0.3371
  445MOL0     C59950   0.998  10.897   4.737 -1.0438 -0.0981 -0.4589
  445MOL0     C59951   1.148  10.883   4.743 -0.1319  0.0026 -0.0120
  445MOL0     C59952   1.207  10.971   4.850  0.1528 -0.9669 -0.1246
  445MOL0     C59953   1.209  10.902   4.979 -0.0102  0.1321  0.1966
  445MOL0     C59954   1.266  10.986   5.081  0.6836  0.1153 -0.9907
  445MOL0     C59955   1.416  11.002   5.096 -0.5542  0.3216  1.4942
  445MOL0     C59956   1.466  10.873   5.165  0.4041 -0.1392  0.9570
  445MOL0     N59957   1.600  10.890   5.225  0.0513 -0.0684 -0.3876
  445MOL0     C59958   1.630  10.877   5.355 -0.0543  0.0915 -1.1102
  445MOL0     C59959   1.760  10.899   5.357 -0.8105 -0.7099 -0.8863
  445MOL0     C59960   1.846  10.918   5.480  0.2164  0.9161  0.5249
  445MOL0     C59961   1.953  10.811   5.497 -0.0456 -0.0978 -0.2416
  445MOL0     C59962   1.892  10.665   5.495 -0.6009 -0.0210 -0.1471
  445MOL0     C59963   1.983  10.565   5.566 -0.5313 -0.4109  0.2486
  445MOL0     O59964   2.117  10.586   5.520  0.0988 -0.1119 -0.0031
  445MOL0     C59965   2.210  10.564   5.625 -0.8459 -0.2265 -0.4718
  445MOL0     C59966   2.253  10.435   5.667  0.4934  0.2588  0.3566
  445MOL0     C59967   2.350  10.414   5.759  0.3452  0.3375 -0.0237
  445MOL0     C59968   2.410  10.514   5.829  0.3363  0.4476  0.0818
  445MOL0     C59969   2.506  10.503   5.930  0.3177  0.5768 -0.6034
  445MOL0     O59970   2.596  10.609   5.952  0.4754 -0.4481  0.0251
  445MOL0     C59971   2.714  10.586   6.022 -0.6476 -0.4524 -0.2957
  445MOL0     C59972   2.818  10.672   5.997 -0.4982 -0.1610  0.1286
  445MOL0     C59973   2.942  10.667   6.065  0.3045 -0.6380 -0.1141
  445MOL0     C59974   2.973  10.569   6.161 -0.3315  1.0864  0.9021
  445MOL0     O59975   3.086  10.576   6.231 -0.1780 -0.8829 -0.1045
  445MOL0     C59976   3.088  10.518   6.363  0.0066  0.3195  0.1734
  445MOL0     C59977   3.230  10.513   6.424 -0.8270 -0.2654 -0.0600
  445MOL0     C59978   3.327  10.430   6.333  0.2741  0.5136  0.0045
  445MOL0     C59979   3.472  10.426   6.388  0.3521  0.5424  0.0865
  445MOL0     C59980   3.568  10.408   6.280  0.6589 -0.0532 -0.0402
  445MOL0     C59981   3.710  10.389   6.337 -0.5316  0.6146  0.8884
  445MOL0     C59982   3.805  10.365   6.217 -0.6565 -0.2277 -0.4296
  445MOL0     C59983   3.924  10.266   6.256  0.2496 -0.4526 -0.0309
  445MOL0    Cl59984   4.004  10.202   6.108 -0.2867  0.1935 -0.0767
  445MOL0     C59985   2.873  10.471   6.166 -0.3545  0.8898 -0.5639
  445MOL0     C59986   2.748  10.481   6.104  0.2204 -0.0100 -0.1927
  445MOL0     O59987   2.500  10.395   5.993 -0.0556 -0.1791  0.6001
  445MOL0     C59988   2.371  10.644   5.801  0.0442  0.1866  1.2353
  445MOL0     C59989   2.273  10.670   5.694 -0.6403 -1.0195 -0.4596
  445MOL0     N59990   1.804  10.909   5.230 -0.2926 -1.1874  0.6979
  445MOL0     N59991   1.705  10.917   5.153 -0.4070  0.8604  0.0742
  445MOL0     C59992   0.641  10.889   4.763  1.2268  0.2656  0.3148
  445MOL0     C59993   0.518  10.873   4.828 -0.0849 -0.4979 -0.6863
  445MOL0     C59994   0.097  10.676   4.816  0.8368 -0.7029  0.4941
  445MOL0     C59995  -0.013  10.694   4.729  0.0140 -0.1883  0.5861
  445MOL0     C59996  -0.139  10.640   4.757 -0.5620  0.0597  0.3069
  445MOL0     C59997  -0.151  10.545   4.857  0.5255  0.2714 -0.0470
  445MOL0     O59998  -0.271  10.479   4.872 -0.2824  0.3511 -0.2670
  445MOL0     C59999  -0.315  10.418   4.755 -0.3187 -0.1621 -0.8699
  445MOL0     C60000  -0.438  10.336   4.770  1.0353  0.1911 -0.5864
  445MOL0     C60001  -0.567  10.411   4.799  0.2990 -0.3363  0.1194
  445MOL0     C60002  -0.690  10.330   4.761 -0.0468 -0.1983  0.3642
  445MOL0     C60003  -0.810  10.405   4.787  0.2205  0.0198 -0.0865
  445MOL0     C60004  -0.914  10.455   4.839 -0.4130 -0.1019  0.2200
  445MOL0     C60005  -0.052  10.534   4.946 -0.2959 -0.7691 -0.5207
  445MOL0     C60006   0.076  10.594   4.929  0.0709 -0.4615 -0.1710
  445MOL0     C60007   0.185  10.574   5.030 -0.6998  0.3246  0.1772
  445MOL0     H60008   0.459  10.550   4.729  0.7578 -0.6742  0.4275
  445MOL0     H60009   0.684  10.588   4.617 -1.4558 -0.5281 -0.2212
  445MOL0     H60010   0.926  10.689   4.746 -0.0354  1.3721  2.0119
  445MOL0     H60011   0.996  10.744   4.590  0.9953 -2.4878  2.1118
  445MOL0     H60012   0.958  10.913   4.838  0.7525  0.2961  0.2250
  445MOL0     H60013   0.974  10.989   4.683 -1.0690 -0.0576 -0.3800
  445MOL0     H60014   1.200  10.910   4.650  0.5607  0.4274  0.4916
  445MOL0     H60015   1.163  10.777   4.768 -1.9675 -0.3141 -0.0859
  445MOL0     H60016   1.310  10.991   4.820  0.8904 -2.3199  1.3659
  445MOL0     H60017   1.150  11.062   4.870  2.2305  0.2759  0.3985
  445MOL0     H60018   1.104  10.875   4.993  0.0943 -1.8866 -2.2625
  445MOL0     H60019   1.267  10.810   4.977 -1.8866 -1.1443  1.5657
  445MOL0     H60020   1.205  11.077   5.080  0.4150  0.1942  3.5785
  445MOL0     H60021   1.235  10.924   5.165 -0.7405 -1.6090 -2.6960
  445MOL0     H60022   1.439  11.090   5.156  2.4317  0.2928  0.5340
  445MOL0     H60023   1.460  11.007   4.996 -5.6804  0.0864 -1.1029
  445MOL0     H60024   1.389  10.835   5.232 -1.3951  0.7076 -0.5407
  445MOL0     H60025   1.472  10.793   5.090  2.3290  0.2861  0.6015
  445MOL0     H60026   1.566  10.869   5.442  2.4156  4.1229  1.4314
  445MOL0     H60027   1.901  11.013   5.483  1.9551 -0.0223 -0.4720
  445MOL0     H60028   1.791  10.910   5.575  1.1855 -0.1655  1.0221
  445MOL0     H60029   2.029  10.824   5.419 -0.9090 -2.8986 -1.6888
  445MOL0     H60030   2.007  10.814   5.593  1.5833  1.9521 -1.1368
  445MOL0     H60031   1.884  10.630   5.391 -0.0126 -1.9818  0.4261
  445MOL0     H60032   1.802  10.665   5.557  0.1915  0.4360  1.0299
  445MOL0     H60033   1.950  10.461   5.549 -0.1010 -1.0348  2.8148
  445MOL0     H60034   1.980  10.582   5.674  0.5165 -0.7088  0.3284
  445MOL0     H60035   2.196  10.362   5.612  0.2611 -0.6045  1.6987
  445MOL0     H60036   2.378  10.312   5.783  0.2118  0.0344 -1.0908
  445MOL0     H60037   2.799  10.757   5.932 -0.1166 -0.1197  0.0669
  445MOL0     H60038   3.013  10.749   6.053  2.0979 -1.9974  0.6182
  445MOL0     H60039   3.013  10.580   6.414 -0.7375 -0.3715 -0.0624
  445MOL0     H60040   3.054  10.415   6.365  1.1778 -0.0689  2.3482
  445MOL0     H60041   3.264  10.616   6.436  1.4651 -0.7806 -1.4572
  445MOL0     H60042   3.242  10.477   6.527  0.6607 -0.4614 -0.2722
  445MOL0     H60043   3.289  10.328   6.341 -1.0784  0.8109 -1.9786
  445MOL0     H60044   3.326  10.455   6.227 -1.6992  0.0811 -0.1208
  445MOL0     H60045   3.480  10.347   6.463  1.4015  2.0227  1.6307
  445MOL0     H60046   3.492  10.514   6.450  2.6164  0.2344 -0.0975
  445MOL0     H60047   3.572  10.502   6.224 -1.3410 -0.7568 -1.5139
  445MOL0     H60048   3.540  10.328   6.211  1.1130  0.3283 -0.6815
  445MOL0     H60049   3.744  10.481   6.385 -0.7142 -0.5237  3.3614
  445MOL0     H60050   3.711  10.311   6.414 -2.4486 -0.0012  0.3541
  445MOL0     H60051   3.841  10.463   6.183 -0.2503 -0.0130  0.5941
  445MOL0     H60052   3.757  10.327   6.126  1.4404  1.8318 -2.5816
  445MOL0     H60053   3.995  10.307   6.328  0.0010 -1.7830  1.0072
  445MOL0     H60054   3.883  10.181   6.311 -0.1644 -0.1666  0.1067
  445MOL0     H60055   2.903  10.381   6.218 -0.2091  0.5432 -1.2452
  445MOL0     H60056   2.681  10.399   6.128 -0.9309  0.4773 -1.6602
  445MOL0     H60057   2.399  10.727   5.866 -1.4803  3.0247 -1.4700
  445MOL0     H60058   2.248  10.774   5.677 -2.0853 -1.6590 -2.5453
  445MOL0     H60059   0.696  10.981   4.747 -2.2877  2.4321 -0.3333
  445MOL0     H60060   0.486  10.953   4.893 -0.7486 -0.6843 -0.7727
  445MOL0     H60061  -0.003  10.750   4.636  0.9421 -0.8197  0.2936
  445MOL0     H60062  -0.218  10.665   4.687 -1.1811  3.0541  1.9314
  445MOL0     H60063  -0.227  10.358   4.726 -0.4909  0.7146 -3.4953
  445MOL0     H60064  -0.325  10.494   4.678  0.7761  1.0551  0.1407
  445MOL0     H60065  -0.428  10.267   4.855 -1.9618  3.2269  2.5134
  445MOL0     H60066  -0.447  10.275   4.679 -1.6959 -0.9945  0.3844
  445MOL0     H60067  -0.561  10.499   4.734  2.5452  0.0146  0.7203
  445MOL0     H60068  -0.558  10.444   4.903  0.3740  0.5213 -0.1464
  445MOL0     H60069  -0.707  10.300   4.657 -2.9205  0.2858  0.6024
  445MOL0     H60070  -0.698  10.234   4.814 -1.1275 -1.2145 -1.5062
  445MOL0     H60071  -0.998  10.501   4.887 -0.6496 -1.5328  1.2684
  445MOL0     H60072  -0.061  10.465   5.029  0.1649  0.8543  0.9582
  445MOL0     H60073   0.221  10.670   5.068  1.6876  0.7989 -2.9517
  445MOL0     H60074   0.150  10.518   5.117 -1.7746  1.0005  0.1956
  445MOL0     H60075   0.268  10.524   4.980 -0.7550 -1.9273  2.1714
  446MOL0     O60076   6.686   0.889  10.003 -0.0181  0.0409 -0.8340
  446MOL0     C60077   6.746   0.916  10.108  0.2225 -0.5765 -0.5882
  446MOL0     O60078   6.688   0.973  10.219  0.2100  0.0135  0.7315
  446MOL0     C60079   6.547   0.976  10.227  0.1396 -0.3104 -0.3385
  446MOL0     C60080   6.464   1.032  10.130  0.2540  0.6555  0.0003
  446MOL0     C60081   6.325   1.051  10.148  0.1904 -0.2099  0.1813
  446MOL0     C60082   6.272   1.020  10.279 -0.9064 -0.4800 -0.5243
  446MOL0     O60083   6.144   1.038  10.312  0.1096 -0.6289  0.2827
  446MOL0     C60084   6.052   0.988  10.214 -0.3539  0.0475  1.2918
  446MOL0     C60085   5.914   0.984  10.274 -0.1701 -0.0652 -0.3684
  446MOL0     C60086   5.896   0.878  10.386 -0.0685 -0.0175  1.2309
  446MOL0     C60087   5.746   0.880  10.427  0.1525 -0.0967 -0.2810
  446MOL0     C60088   5.714   0.749  10.504 -0.1169  0.3361 -0.1322
  446MOL0     C60089   5.789   0.731  10.637  0.5472 -1.4543  0.1622
  446MOL0     C60090   5.762   0.852  10.734 -0.2217  1.4612 -1.1558
  446MOL0     C60091   5.802   0.823  10.882  0.5531  1.0715  0.1242
  446MOL0     N60092   5.948   0.789  10.898 -0.1514  0.5671  0.2667
  446MOL0     C60093   6.058   0.866  10.915 -0.7377 -0.3948 -0.5433
  446MOL0     C60094   6.163   0.774  10.910 -0.7054  0.5072 -0.0398
  446MOL0     C60095   6.310   0.799  10.918  0.0046  0.1136 -0.1959
  446MOL0     C60096   6.356   0.949  10.949  0.4335  0.1353  0.8597
  446MOL0     C60097   6.507   0.954  10.941  0.6750 -0.6841  0.1143
  446MOL0     C60098   6.576   0.865  11.054  1.3355 -0.0599 -0.3788
  446MOL0     O60099   6.716   0.898  11.060 -0.3726  0.0587 -0.3489
  446MOL0     C60100   6.815   0.855  10.983 -0.3756  0.0928 -0.3030
  446MOL0     C60101   6.943   0.914  11.010 -0.1888  0.1043 -0.5347
  446MOL0     C60102   7.053   0.891  10.929  0.3304 -0.3732  0.2396
  446MOL0     C60103   7.039   0.816  10.814 -0.0570  0.0227 -0.9438
  446MOL0     C60104   7.142   0.816  10.716 -0.0168  0.0749  0.1983
  446MOL0     O60105   7.256   0.898  10.742 -0.1166  0.9879 -0.4959
  446MOL0     C60106   7.343   0.895  10.638  0.3033  0.7358  0.3480
  446MOL0     C60107   7.339   0.988  10.533 -0.0667 -0.0607  0.4261
  446MOL0     C60108   7.436   0.992  10.431 -0.3977  0.4637  0.3473
  446MOL0     C60109   7.547   0.902  10.427 -0.4044  0.2077  0.3335
  446MOL0     O60110   7.658   0.932  10.345 -0.1523 -0.5068  0.6351
  446MOL0     C60111   7.763   0.828  10.313  0.9770 -0.5145  0.6118
  446MOL0     C60112   7.856   0.873  10.199  0.5009  0.0150  0.0470
  446MOL0     C60113   7.901   1.022  10.207  0.4363 -0.2858  0.5532
  446MOL0     C60114   7.989   1.068  10.326 -0.8264 -0.9336  0.1476
  446MOL0     C60115   8.006   1.220  10.326  0.3583 -0.2093 -0.1747
  446MOL0     C60116   8.107   1.274  10.428 -0.0867 -0.0095 -0.7748
  446MOL0     C60117   8.256   1.238  10.404  0.0164  0.8284  0.4341
  446MOL0     C60118   8.340   1.302  10.518 -0.2458 -0.0453 -0.4594
  446MOL0    Cl60119   8.301   1.218  10.678 -0.1548 -0.0017 -0.1578
  446MOL0     C60120   7.560   0.824  10.544  0.5694  0.7379  0.1404
  446MOL0     C60121   7.459   0.812  10.649  0.6509  0.4193 -0.4464
  446MOL0     O60122   7.115   0.753  10.613  0.0475  0.1204  0.2409
  446MOL0     C60123   6.912   0.755  10.787  0.3114 -0.4622  0.7885
  446MOL0     C60124   6.801   0.768  10.872  0.1640  0.0618 -0.1535
  446MOL0     N60125   6.115   0.646  10.915 -0.0448  0.4184  0.4479
  446MOL0     N60126   5.986   0.655  10.916 -0.3085  0.1712 -0.3540
  446MOL0     C60127   6.356   0.972  10.372 -0.5748 -0.2621 -0.4599
  446MOL0     C60128   6.491   0.945  10.354  0.0772 -0.0636 -0.5596
  446MOL0     C60129   6.892   0.910  10.101 -0.3266  0.7155  0.7360
  446MOL0     C60130   6.947   0.895   9.970  0.5250  0.4961  0.2559
  446MOL0     C60131   7.085   0.894   9.951  0.5935  0.0548 -0.0742
  446MOL0     C60132   7.167   0.886  10.064 -0.6108 -0.3572 -0.6564
  446MOL0     O60133   7.299   0.864  10.031 -0.2698 -0.2124 -0.4078
  446MOL0     C60134   7.366   0.763  10.110 -0.5618  0.1331  0.4856
  446MOL0     C60135   7.507   0.752  10.058  0.3415 -0.4033 -0.0802
  446MOL0     C60136   7.512   0.709   9.914 -0.7004 -0.3919  0.1355
  446MOL0     C60137   7.645   0.729   9.855  0.1730 -1.2905  0.1421
  446MOL0     C60138   7.713   0.861   9.857  0.5885  0.4234  0.5630
  446MOL0     C60139   7.758   0.972   9.851 -1.1969  0.6674 -0.3137
  446MOL0     C60140   7.117   0.893  10.189  0.1412 -0.9642 -1.1223
  446MOL0     C60141   6.978   0.910  10.213  0.4396 -0.3610  0.4661
  446MOL0     C60142   6.925   0.913  10.359 -0.2748  0.1057  0.0552
  446MOL0     H60143   6.502   1.062  10.033  0.4251  4.3751  1.0658
  446MOL0     H60144   6.261   1.096  10.074  0.1456  2.5209  1.7556
  446MOL0     H60145   6.043   1.052  10.125  1.5318 -2.2793 -0.7095
  446MOL0     H60146   6.086   0.888  10.188 -0.9412 -0.3615  2.0528
  446MOL0     H60147   5.831   0.967  10.204  0.6254 -0.4644 -1.2245
  446MOL0     H60148   5.894   1.088  10.304 -2.0119  0.2373 -2.3669
  446MOL0     H60149   5.959   0.920  10.465 -0.7642  1.8207  0.8527
  446MOL0     H60150   5.941   0.779  10.372 -1.9093 -0.9165  1.4039
  446MOL0     H60151   5.717   0.970  10.482 -0.3873 -0.9227  0.8440
  446MOL0     H60152   5.681   0.885  10.339 -0.0408  1.3776 -0.0760
  446MOL0     H60153   5.606   0.745  10.521  0.0009  2.6879  1.6875
  446MOL0     H60154   5.741   0.664  10.440 -0.6981  0.0702 -0.0279
  446MOL0     H60155   5.768   0.631  10.675 -0.8863 -1.3693 -0.3449
  446MOL0     H60156   5.897   0.735  10.619  0.8153 -2.2121  1.4355
  446MOL0     H60157   5.655   0.870  10.726 -0.4953  0.7246  0.3810
  446MOL0     H60158   5.821   0.938  10.702  2.4863  1.5995  3.3272
  446MOL0     H60159   5.774   0.914  10.937 -0.8766  0.2782  0.7588
  446MOL0     H60160   5.735   0.745  10.919  3.1617 -0.2282  2.4801
  446MOL0     H60161   6.065   0.973  10.930  2.2657 -0.4632 -0.7302
  446MOL0     H60162   6.355   0.733  10.993  0.8745  3.1194  2.0993
  446MOL0     H60163   6.356   0.772  10.822 -0.3889  3.0806 -1.3200
  446MOL0     H60164   6.313   1.010  10.869 -1.0919  0.5184  1.9321
  446MOL0     H60165   6.326   0.999  11.041  0.5518 -0.8318  1.4371
  446MOL0     H60166   6.533   1.060  10.947 -1.3741  0.0197 -1.8004
  446MOL0     H60167   6.535   0.916  10.842  1.3743 -0.5107  0.2408
  446MOL0     H60168   6.559   0.758  11.039  0.0016  0.1273 -0.2397
  446MOL0     H60169   6.528   0.886  11.150 -1.9542  0.6568 -2.0343
  446MOL0     H60170   6.956   0.980  11.094 -0.4564  0.4260 -0.7456
  446MOL0     H60171   7.146   0.947  10.935  0.6269 -0.0282 -4.3482
  446MOL0     H60172   7.271   1.072  10.549 -0.9907 -0.9075  1.0444
  446MOL0     H60173   7.430   1.069  10.355 -0.1780 -0.8724 -1.0455
  446MOL0     H60174   7.821   0.809  10.404  2.6201 -1.0085 -0.5047
  446MOL0     H60175   7.724   0.729  10.288  2.2425 -1.0204  0.5543
  446MOL0     H60176   7.945   0.810  10.214  2.1083  1.7693 -1.6950
  446MOL0     H60177   7.805   0.854  10.105  0.7978  0.0058 -0.1143
  446MOL0     H60178   7.946   1.050  10.112 -2.1243  2.2832 -0.0390
  446MOL0     H60179   7.806   1.076  10.213 -0.9384 -2.3575 -1.3986
  446MOL0     H60180   8.089   1.029  10.304  0.3414  1.6655  0.4735
  446MOL0     H60181   7.951   1.035  10.423 -0.7335 -3.8634 -0.7208
  446MOL0     H60182   7.916   1.278  10.345  1.2210  1.0370  0.2420
  446MOL0     H60183   8.045   1.244  10.227 -0.1733  0.5996 -0.1984
  446MOL0     H60184   8.102   1.384  10.428  1.3141  0.0891  0.7304
  446MOL0     H60185   8.086   1.242  10.530 -0.2150 -1.1283 -1.1436
  446MOL0     H60186   8.275   1.284  10.307 -0.0533  1.1570  0.5769
  446MOL0     H60187   8.281   1.131  10.395  0.3417  1.0577 -2.3042
  446MOL0     H60188   8.442   1.275  10.488  0.8884  0.9892  2.2060
  446MOL0     H60189   8.340   1.411  10.520  2.2081  0.1071 -2.7075
  446MOL0     H60190   7.652   0.769  10.558  0.8771  1.2101 -0.0069
  446MOL0     H60191   7.477   0.760  10.743  0.0761 -0.4042 -0.7829
  446MOL0     H60192   6.885   0.697  10.700 -3.2902  0.4887  1.1206
  446MOL0     H60193   6.710   0.714  10.852  0.3368 -0.4737  0.4640
  446MOL0     H60194   6.305   0.956  10.466 -0.5246 -0.0682 -0.4012
  446MOL0     H60195   6.546   0.902  10.437  0.2860 -0.0500 -0.6900
  446MOL0     H60196   6.881   0.910   9.885  1.3032  1.4438 -0.1943
  446MOL0     H60197   7.129   0.884   9.852 -1.7903 -1.5371 -1.0486
  446MOL0     H60198   7.315   0.667  10.106 -2.0369  0.9234 -0.6707
  446MOL0     H60199   7.361   0.798  10.214 -1.0109  0.8927  0.2214
  446MOL0     H60200   7.564   0.682  10.119 -1.0767 -3.7663 -2.3229
  446MOL0     H60201   7.555   0.851  10.057 -0.1910 -0.1309 -1.5565
  446MOL0     H60202   7.441   0.759   9.847  0.1094  1.3533  0.5210
  446MOL0     H60203   7.489   0.602   9.915  1.2889 -0.8969  2.9965
  446MOL0     H60204   7.717   0.666   9.909  0.7620 -0.6163  0.1588
  446MOL0     H60205   7.645   0.692   9.752  1.1693  1.1762 -0.8227
  446MOL0     H60206   7.809   1.066   9.856 -0.1910  0.0854  1.2670
  446MOL0     H60207   7.188   0.886  10.271  1.1235  1.4155 -1.6801
  446MOL0     H60208   7.003   0.887  10.431  0.0657  3.8529  1.2735
  446MOL0     H60209   6.888   1.012  10.388  3.4234  1.0997  2.0069
  446MOL0     H60210   6.846   0.841  10.384  0.3782 -1.0274 -1.0262
  447MOL0     O60211   2.393   2.813   9.187  0.5708 -0.4046  0.4604
  447MOL0     C60212   2.302   2.879   9.241  0.7454 -0.3872 -0.0825
  447MOL0     O60213   2.317   3.001   9.310  0.3248 -0.0829  0.3056
  447MOL0     C60214   2.442   3.052   9.343 -0.2451  1.5162 -0.1067
  447MOL0     C60215   2.557   3.031   9.270 -0.3725  0.0551  0.5722
  447MOL0     C60216   2.682   3.058   9.313  0.5759 -0.4622 -0.4627
  447MOL0     C60217   2.696   3.117   9.439  0.1623  1.1222 -0.0140
  447MOL0     O60218   2.823   3.139   9.494 -0.0670  0.1289 -0.2425
  447MOL0     C60219   2.941   3.124   9.415  0.1840 -0.5717  0.2442
  447MOL0     C60220   3.070   3.142   9.493 -0.5300  0.6868  0.2025
  447MOL0     C60221   3.191   3.154   9.399  0.7699  0.7947 -0.5083
  447MOL0     C60222   3.301   3.204   9.495  0.6134 -0.1830 -0.1338
  447MOL0     C60223   3.438   3.193   9.441  0.1352  0.6565 -0.2547
  447MOL0     C60224   3.561   3.195   9.540  0.0569 -0.5091  0.0807
  447MOL0     C60225   3.567   3.327   9.620 -0.2477 -0.2766  0.3898
  447MOL0     C60226   3.691   3.332   9.715  0.5003 -1.3706 -0.4058
  447MOL0     N60227   3.821   3.296   9.664 -0.4626  0.4952 -0.3077
  447MOL0     C60228   3.900   3.372   9.581  0.5955  0.1539 -0.4985
  447MOL0     C60229   4.016   3.300   9.572  0.0378 -1.0991 -0.5738
  447MOL0     C60230   4.144   3.360   9.506  0.2566 -1.1981 -0.3695
  447MOL0     C60231   4.251   3.339   9.614 -0.4252 -0.2894  0.0378
  447MOL0     C60232   4.386   3.413   9.563  0.5036 -0.6949 -0.9090
  447MOL0     C60233   4.451   3.370   9.436  0.4700 -0.6605 -0.7031
  447MOL0     O60234   4.577   3.434   9.423  0.3819  0.4909  0.2194
  447MOL0     C60235   4.673   3.377   9.354 -0.6703  0.0727 -0.1353
  447MOL0     C60236   4.804   3.437   9.366  0.5126  0.1016 -0.6904
  447MOL0     C60237   4.910   3.389   9.305  0.1227 -0.2788 -0.0714
  447MOL0     C60238   4.904   3.264   9.239 -0.1719 -0.2187 -0.5245
  447MOL0     C60239   5.032   3.199   9.192 -0.6991 -0.1233 -0.1825
  447MOL0     O60240   5.157   3.256   9.220  0.1536 -0.1142 -0.4151
  447MOL0     C60241   5.276   3.191   9.223  0.3853  0.5966 -0.2277
  447MOL0     C60242   5.288   3.057   9.263  0.0117 -0.5283  0.4431
  447MOL0     C60243   5.414   2.996   9.272 -0.0331  0.5606 -0.8790
  447MOL0     C60244   5.533   3.063   9.246  1.3458  0.5123  0.2096
  447MOL0     O60245   5.656   2.998   9.257 -0.3415  1.0276 -0.6110
  447MOL0     C60246   5.779   3.077   9.242  0.1165  0.1742 -0.7564
  447MOL0     C60247   5.908   3.004   9.276  0.3540 -0.2246  0.2362
  447MOL0     C60248   6.019   3.046   9.185  0.6231  0.7018  0.3863
  447MOL0     C60249   6.155   2.989   9.228  0.1208  0.0468 -0.0223
  447MOL0     C60250   6.248   3.039   9.112 -0.6390  0.3942 -0.2035
  447MOL0     C60251   6.392   2.992   9.109 -0.5633 -0.8674 -0.1246
  447MOL0     C60252   6.459   3.063   8.992 -0.0810 -1.4116  0.3607
  447MOL0     C60253   6.608   3.044   8.977 -0.3913 -0.2098  1.3342
  447MOL0    Cl60254   6.674   3.163   8.858 -0.1092 -0.0925 -0.3805
  447MOL0     C60255   5.520   3.195   9.198  0.1891  1.3650 -0.4301
  447MOL0     C60256   5.394   3.260   9.198  0.1763  0.0463  0.4014
  447MOL0     O60257   5.022   3.089   9.139 -0.4151  0.4450 -1.0312
  447MOL0     C60258   4.778   3.209   9.215  0.9468  0.2733  0.0773
  447MOL0     C60259   4.664   3.260   9.280  0.7797 -0.6570  0.2427
  447MOL0     N60260   4.002   3.187   9.651 -0.0601  0.0519 -0.0929
  447MOL0     N60261   3.884   3.184   9.709  0.2958 -0.1328  0.1997
  447MOL0     C60262   2.582   3.139   9.523  0.2422  0.0340  0.4759
  447MOL0     C60263   2.455   3.110   9.470 -0.0298 -0.1861 -0.8431
  447MOL0     C60264   2.158   2.835   9.227  1.0408 -0.1529 -0.3637
  447MOL0     C60265   2.060   2.933   9.235 -0.3679 -0.1105 -0.5126
  447MOL0     C60266   1.922   2.903   9.250 -0.7129 -0.1018  0.0745
  447MOL0     C60267   1.874   2.773   9.232 -0.0325  0.2906  0.0103
  447MOL0     O60268   1.746   2.728   9.236 -0.3254 -0.2169 -0.3368
  447MOL0     C60269   1.637   2.809   9.267 -0.8454  0.0856  0.7089
  447MOL0     C60270   1.525   2.713   9.307  0.2968 -0.9403  0.7971
  447MOL0     C60271   1.501   2.590   9.217 -0.2313  0.5541 -0.7381
  447MOL0     C60272   1.356   2.546   9.245  0.6033  0.2838  0.8312
  447MOL0     C60273   1.339   2.478   9.378 -1.3276 -0.1281 -0.7289
  447MOL0     C60274   1.321   2.441   9.493  0.5149 -0.2230  0.0571
  447MOL0     C60275   1.971   2.673   9.213 -0.2773  0.0522 -0.1986
  447MOL0     C60276   2.115   2.698   9.222 -0.4723  0.2983  0.8800
  447MOL0     C60277   2.204   2.578   9.216  0.7753 -0.3093  0.6618
  447MOL0     H60278   2.546   2.986   9.172 -1.7162  0.1283  0.6658
  447MOL0     H60279   2.766   3.035   9.248  1.8005 -0.5365  1.0826
  447MOL0     H60280   2.944   3.027   9.365  1.7187  0.7710 -2.5202
  447MOL0     H60281   2.927   3.190   9.329 -0.6815 -2.2191 -0.9448
  447MOL0     H60282   3.095   3.052   9.549  0.0632  0.9985  0.4578
  447MOL0     H60283   3.062   3.231   9.556  2.6681 -0.9639  3.3047
  447MOL0     H60284   3.155   3.221   9.320 -2.2226 -2.0179 -1.7157
  447MOL0     H60285   3.213   3.063   9.343 -0.1306 -0.0185  0.4179
  447MOL0     H60286   3.279   3.309   9.515 -0.4069  0.2030 -2.8933
  447MOL0     H60287   3.301   3.138   9.582  1.1244 -0.1492 -0.1059
  447MOL0     H60288   3.453   3.106   9.377  0.5268  0.1745  0.4703
  447MOL0     H60289   3.458   3.277   9.374 -1.1629 -0.2122 -1.7998
  447MOL0     H60290   3.576   3.113   9.611  1.3905 -0.8077 -0.4939
  447MOL0     H60291   3.650   3.187   9.476  0.8714  0.7846  1.0191
  447MOL0     H60292   3.486   3.336   9.693  0.4726 -0.4518  1.2474
  447MOL0     H60293   3.563   3.409   9.549  0.1939 -0.3256  0.3039
  447MOL0     H60294   3.688   3.433   9.755  0.0346 -1.0068 -1.3235
  447MOL0     H60295   3.668   3.267   9.800 -0.9770 -0.9663 -0.4808
  447MOL0     H60296   3.888   3.476   9.551  0.6242 -0.0054 -1.0661
  447MOL0     H60297   4.162   3.298   9.419 -0.3699 -3.4195  1.0123
  447MOL0     H60298   4.131   3.468   9.488  1.1862 -0.9914  0.1479
  447MOL0     H60299   4.229   3.360   9.719 -0.4106 -4.4874  1.0500
  447MOL0     H60300   4.284   3.235   9.606  1.1287  0.1515  0.3850
  447MOL0     H60301   4.449   3.415   9.652 -1.4778  2.6575  0.6239
  447MOL0     H60302   4.355   3.515   9.537 -2.2010 -1.0779  0.4817
  447MOL0     H60303   4.378   3.392   9.357  1.7983  2.7623 -1.1849
  447MOL0     H60304   4.456   3.261   9.441  0.7910 -0.6389 -0.5743
  447MOL0     H60305   4.818   3.527   9.425  0.8399 -0.0002 -0.6102
  447MOL0     H60306   5.003   3.443   9.302 -0.9722  1.7379 -2.9987
  447MOL0     H60307   5.205   2.996   9.297 -0.4781  0.5677  1.2577
  447MOL0     H60308   5.410   2.895   9.312 -4.3610 -0.2095 -2.6543
  447MOL0     H60309   5.777   3.106   9.137 -0.0619  1.0788 -0.5068
  447MOL0     H60310   5.765   3.165   9.306  3.0149 -0.0945  0.3923
  447MOL0     H60311   5.941   3.024   9.378  1.2068  2.3343 -0.4545
  447MOL0     H60312   5.885   2.899   9.261  0.7123 -0.3609  0.6073
  447MOL0     H60313   5.983   2.997   9.093 -4.7108 -0.3636  2.6472
  447MOL0     H60314   6.015   3.155   9.175  1.2746  0.6116 -1.2683
  447MOL0     H60315   6.162   2.880   9.243 -1.4389 -0.0877 -0.0899
  447MOL0     H60316   6.188   3.036   9.320  0.5352  1.1213 -0.7066
  447MOL0     H60317   6.246   3.148   9.109  1.1951  0.4648 -0.1342
  447MOL0     H60318   6.206   2.998   9.020  0.3483  1.3184 -1.0985
  447MOL0     H60319   6.441   3.019   9.203 -1.1080  1.6635 -0.5155
  447MOL0     H60320   6.395   2.883   9.095 -0.8121 -0.6174 -2.5721
  447MOL0     H60321   6.440   3.171   8.991 -3.7001 -1.8932  1.7651
  447MOL0     H60322   6.408   3.034   8.900  0.4882  0.7154 -0.6882
  447MOL0     H60323   6.656   3.043   9.075 -1.9632 -3.0124  2.1770
  447MOL0     H60324   6.625   2.941   8.943  1.7369  0.8986 -1.3178
  447MOL0     H60325   5.607   3.258   9.183  0.9480  0.8288  1.5056
  447MOL0     H60326   5.384   3.367   9.183 -1.3128 -0.0640  0.4694
  447MOL0     H60327   4.765   3.127   9.145  3.8228 -2.6685  2.6012
  447MOL0     H60328   4.564   3.231   9.250  0.7343  0.2025 -0.4728
  447MOL0     H60329   2.609   3.178   9.621  2.5900 -0.7730  0.2011
  447MOL0     H60330   2.370   3.127   9.534  1.0982  0.2594  0.6054
  447MOL0     H60331   2.096   3.035   9.247 -0.5765  0.0387 -1.1241
  447MOL0     H60332   1.852   2.985   9.258  0.6348  1.0621  0.3595
  447MOL0     H60333   1.611   2.881   9.189 -0.6046  0.8959  1.3667
  447MOL0     H60334   1.659   2.879   9.347  0.7808  0.9992 -0.4794
  447MOL0     H60335   1.430   2.762   9.289  2.6187  2.6832 -3.5021
  447MOL0     H60336   1.534   2.698   9.415 -0.7948 -0.5790  0.9480
  447MOL0     H60337   1.574   2.509   9.229  0.4571  0.9421 -2.1092
  447MOL0     H60338   1.523   2.617   9.114  2.9913  1.5533  0.0899
  447MOL0     H60339   1.282   2.625   9.234  0.5205 -0.1063 -2.0849
  447MOL0     H60340   1.331   2.470   9.170 -0.0373 -0.5866  1.8996
  447MOL0     H60341   1.305   2.425   9.598  2.3408 -0.7061  0.2882
  447MOL0     H60342   1.936   2.571   9.218  0.2642 -0.1317 -0.0360
  447MOL0     H60343   2.268   2.587   9.304 -0.7689 -0.1584  1.8248
  447MOL0     H60344   2.152   2.482   9.224  3.1537 -1.6106  1.4513
  447MOL0     H60345   2.278   2.577   9.136  0.7946  1.7003  0.6136
  448MOL0     O60346  11.085   8.420   6.399  0.0611  0.3035 -0.1019
  448MOL0     C60347  11.013   8.327   6.368  0.0002  0.6175  0.0453
  448MOL0     O60348  11.056   8.214   6.306 -0.4069 -0.1875  0.0653
  448MOL0     C60349  11.187   8.190   6.290 -0.1834 -1.4362  0.0402
  448MOL0     C60350  11.263   8.122   6.389  0.5065  0.3371 -0.8275
  448MOL0     C60351  11.403   8.108   6.385  0.1927 -0.3208 -0.1582
  448MOL0     C60352  11.473   8.169   6.283  0.4255 -0.6569  1.0571
  448MOL0     O60353  11.609   8.173   6.263 -0.5147 -0.1684 -0.2261
  448MOL0     C60354  11.686   8.170   6.380 -0.1172  0.7284  0.2046
  448MOL0     C60355  11.798   8.280   6.379 -0.1295 -0.0822 -0.3487
  448MOL0     C60356  11.904   8.253   6.488  0.8803 -0.7511  0.3825
  448MOL0     C60357  12.007   8.366   6.483 -0.3585 -0.0098 -0.0827
  448MOL0     C60358  12.114   8.342   6.594  0.1954 -0.5026 -0.1636
  448MOL0     C60359  12.207   8.471   6.607  0.0264  0.1293  0.5720
  448MOL0     C60360  12.314   8.447   6.713 -0.4769 -0.5107  0.3305
  448MOL0     C60361  12.394   8.579   6.725 -0.6952 -0.1798 -0.2370
  448MOL0     N60362  12.478   8.568   6.844 -0.1182  0.7061  0.2590
  448MOL0     C60363  12.435   8.561   6.976  0.5103  0.3374 -0.2086
  448MOL0     C60364  12.549   8.546   7.053 -0.4979  0.3740  0.4586
  448MOL0     C60365  12.559   8.529   7.198  0.0691  0.3038 -0.6671
  448MOL0     C60366  12.554   8.376   7.220 -0.1682  0.1522 -0.7641
  448MOL0     C60367  12.588   8.346   7.364 -1.0929  0.2879  0.4078
  448MOL0     C60368  12.621   8.196   7.379  1.0246  0.2930 -0.5524
  448MOL0     O60369  12.732   8.158   7.294  0.5953 -0.0831  0.0971
  448MOL0     C60370  12.831   8.077   7.353  0.9297  0.3972  0.0106
  448MOL0     C60371  12.864   8.057   7.489 -1.4718  0.3608  0.6867
  448MOL0     C60372  12.961   7.968   7.530 -0.1824 -0.3984  0.7304
  448MOL0     C60373  13.049   7.914   7.430  0.2772 -0.5037  0.7529
  448MOL0     C60374  13.170   7.846   7.478 -0.1883  0.7238  0.6372
  448MOL0     O60375  13.160   7.784   7.600  0.3769 -0.0175 -0.3666
  448MOL0     C60376  13.273   7.756   7.672  1.0868  0.6760 -0.2874
  448MOL0     C60377  13.261   7.650   7.751  0.4916 -0.8950 -0.9124
  448MOL0     C60378  13.365   7.613   7.837  0.2461 -0.8237  0.2329
  448MOL0     C60379  13.490   7.675   7.836  0.0659  0.1447 -0.8490
  448MOL0     O60380  13.591   7.626   7.916  0.0011 -0.3108  0.3551
  448MOL0     C60381  13.735   7.644   7.888  0.2281 -0.7838 -0.0011
  448MOL0     C60382  13.807   7.561   7.995 -0.1445  0.4815  0.4225
  448MOL0     C60383  13.956   7.579   7.985 -0.6196  0.0233  0.5817
  448MOL0     C60384  14.028   7.472   8.072 -0.0733 -0.4091  0.1868
  448MOL0     C60385  14.184   7.488   8.075  0.8984 -0.3796  0.0096
  448MOL0     C60386  14.243   7.352   8.128 -0.0992 -0.8444 -0.1956
  448MOL0     C60387  14.398   7.357   8.138  0.7691 -1.0707  0.3625
  448MOL0     C60388  14.457   7.245   8.222 -0.4266  0.2346  0.2191
  448MOL0    Cl60389  14.637   7.245   8.213 -0.2012  0.2216 -0.2064
  448MOL0     C60390  13.504   7.786   7.751  0.3755 -0.1394  0.1490
  448MOL0     C60391  13.391   7.819   7.668 -0.2916  0.0530 -0.0327
  448MOL0     O60392  13.265   7.834   7.400 -0.7030 -0.2660  0.3346
  448MOL0     C60393  13.021   7.930   7.290  0.7213  0.3751 -0.2778
  448MOL0     C60394  12.912   8.009   7.256  0.4209  0.1986 -0.2703
  448MOL0     N60395  12.652   8.535   6.964  0.6513 -0.3872 -0.0448
  448MOL0     N60396  12.615   8.543   6.838  1.1227 -0.3562 -0.3467
  448MOL0     C60397  11.394   8.240   6.184 -0.3157 -0.0871 -0.6613
  448MOL0     C60398  11.253   8.250   6.189  0.4064 -0.4794 -0.2291
  448MOL0     C60399  10.866   8.330   6.394 -0.1659  0.4129 -0.9213
  448MOL0     C60400  10.778   8.222   6.344 -0.1548 -0.3935 -0.3054
  448MOL0     C60401  10.642   8.239   6.356  0.1271  0.1577  0.9130
  448MOL0     C60402  10.586   8.346   6.433 -1.1631  0.3099  0.0866
  448MOL0     O60403  10.446   8.344   6.452  0.2484 -0.1142  0.3946
  448MOL0     C60404  10.380   8.406   6.566 -0.3475 -1.1380 -0.3046
  448MOL0     C60405  10.253   8.329   6.594  0.5504 -0.1360  0.0840
  448MOL0     C60406  10.169   8.391   6.702 -0.3872  0.7676  0.5645
  448MOL0     C60407  10.226   8.348   6.842 -0.4831 -1.2068 -0.5511
  448MOL0     C60408  10.127   8.370   6.944  0.1269 -0.0574  0.2599
  448MOL0     C60409  10.022   8.378   7.014 -1.2541 -0.8104 -0.5082
  448MOL0     C60410  10.676   8.443   6.494  0.0820  0.3883  0.4254
  448MOL0     C60411  10.809   8.435   6.466 -0.7500 -0.1096  0.2327
  448MOL0     C60412  10.885   8.538   6.553 -0.4375  0.3891  0.4740
  448MOL0     H60413  11.204   8.083   6.471 -1.1612 -0.2048 -2.2328
  448MOL0     H60414  11.459   8.044   6.453  2.0375  0.8962 -0.4759
  448MOL0     H60415  11.625   8.198   6.466  0.7490  3.1249  0.0910
  448MOL0     H60416  11.724   8.068   6.388 -2.1376  0.0883  4.5272
  448MOL0     H60417  11.751   8.375   6.404  0.6037  0.0451  0.6067
  448MOL0     H60418  11.854   8.283   6.285  0.0857 -3.4280 -0.4573
  448MOL0     H60419  11.936   8.149   6.475 -0.4989 -1.2825  1.0364
  448MOL0     H60420  11.860   8.267   6.587  2.1224  0.1860  0.8368
  448MOL0     H60421  12.057   8.369   6.385  2.0854 -1.7007  1.0053
  448MOL0     H60422  11.954   8.461   6.491 -2.3504 -0.8176 -2.4877
  448MOL0     H60423  12.064   8.321   6.689 -1.0872 -0.0865 -0.7178
  448MOL0     H60424  12.166   8.248   6.569  2.1609  0.5817 -0.3268
  448MOL0     H60425  12.250   8.464   6.507 -0.0489  2.7127  0.2895
  448MOL0     H60426  12.154   8.566   6.616  0.4794  0.3123  1.4616
  448MOL0     H60427  12.384   8.365   6.695 -1.0547 -1.0537  0.5190
  448MOL0     H60428  12.253   8.427   6.801 -3.4676 -0.2249 -1.5150
  448MOL0     H60429  12.463   8.601   6.644  1.6497  0.5011  1.8244
  448MOL0     H60430  12.325   8.664   6.731 -1.3980 -0.6191 -1.5501
  448MOL0     H60431  12.334   8.565   7.014 -0.1007  1.1168 -1.8294
  448MOL0     H60432  12.653   8.564   7.242 -0.6294  1.8614 -0.3567
  448MOL0     H60433  12.475   8.571   7.253 -1.0310 -2.6722  0.1582
  448MOL0     H60434  12.453   8.336   7.210 -0.7221  1.8217 -2.7182
  448MOL0     H60435  12.633   8.333   7.157  2.4521  2.1132  0.9734
  448MOL0     H60436  12.515   8.367   7.442 -1.0248  1.1893  0.2374
  448MOL0     H60437  12.682   8.394   7.392 -0.3684  0.2045 -1.7174
  448MOL0     H60438  12.527   8.147   7.350 -0.5459 -0.2621  4.5512
  448MOL0     H60439  12.633   8.168   7.484  3.3317  0.1394 -0.7999
  448MOL0     H60440  12.802   8.112   7.559 -0.4446  0.7779  1.2799
  448MOL0     H60441  12.991   7.950   7.633  2.9836 -0.1682 -0.0285
  448MOL0     H60442  13.171   7.590   7.765  0.2634 -0.5837 -1.0469
  448MOL0     H60443  13.340   7.532   7.905 -2.5521  0.0106  0.3404
  448MOL0     H60444  13.758   7.610   7.787  0.8227 -0.0187 -0.1301
  448MOL0     H60445  13.781   7.742   7.901  0.9835 -1.2262  0.7660
  448MOL0     H60446  13.774   7.601   8.092 -0.0588 -1.4986  1.3232
  448MOL0     H60447  13.769   7.459   7.980  0.7952  0.3766 -1.4913
  448MOL0     H60448  13.993   7.553   7.885  1.2683 -3.0178  1.9332
  448MOL0     H60449  13.984   7.682   8.006 -3.0853  0.9521 -0.3267
  448MOL0     H60450  13.999   7.381   8.019  1.5185 -1.0404  0.3251
  448MOL0     H60451  13.989   7.461   8.173 -0.2046 -3.0994 -0.0840
  448MOL0     H60452  14.198   7.569   8.148 -1.8502  1.2584 -1.1407
  448MOL0     H60453  14.220   7.515   7.976  0.1751 -0.3930 -0.2598
  448MOL0     H60454  14.192   7.331   8.223 -0.1108 -0.7276 -0.1750
  448MOL0     H60455  14.212   7.273   8.060 -1.5015  1.2463 -2.1440
  448MOL0     H60456  14.432   7.454   8.177  1.0410  0.0206 -2.3996
  448MOL0     H60457  14.440   7.344   8.038 -2.2250  0.7153 -1.2850
  448MOL0     H60458  14.427   7.246   8.327 -1.6013 -0.5547 -0.1011
  448MOL0     H60459  14.417   7.148   8.191 -0.4724  0.7090 -1.2652
  448MOL0     H60460  13.596   7.843   7.747 -0.0841  0.5942 -0.1108
  448MOL0     H60461  13.407   7.900   7.598  0.3151  0.2138  0.2833
  448MOL0     H60462  13.084   7.883   7.216 -0.8490 -1.1217 -0.7246
  448MOL0     H60463  12.875   8.043   7.160 -1.4069  2.1138  1.0132
  448MOL0     H60464  11.453   8.291   6.109  0.3441  0.4755  0.2146
  448MOL0     H60465  11.201   8.313   6.117  0.7759  0.6160  0.4255
  448MOL0     H60466  10.819   8.133   6.298  1.2214 -0.0997  0.3134
  448MOL0     H60467  10.577   8.165   6.311 -2.5338  3.0929 -0.5014
  448MOL0     H60468  10.369   8.513   6.549  0.1038 -0.9169  0.6957
  448MOL0     H60469  10.447   8.397   6.653 -0.5908 -1.3084 -0.1320
  448MOL0     H60470  10.288   8.230   6.626  0.7636 -0.5997 -1.4720
  448MOL0     H60471  10.191   8.325   6.503 -0.6228 -0.0021  0.8644
  448MOL0     H60472  10.065   8.357   6.701 -1.4295  3.1053  4.9380
  448MOL0     H60473  10.164   8.500   6.694 -2.0103  0.6504 -0.5626
  448MOL0     H60474  10.278   8.252   6.843  0.1967 -0.8430 -0.3918
  448MOL0     H60475  10.302   8.418   6.878 -2.2316 -0.2186  1.4049
  448MOL0     H60476   9.935   8.372   7.077 -0.6572 -0.0145  0.4214
  448MOL0     H60477  10.629   8.520   6.553 -0.0394  0.3031  0.4398
  448MOL0     H60478  10.943   8.605   6.490 -1.4125 -0.5275 -1.4644
  448MOL0     H60479  10.814   8.604   6.603 -3.5630 -2.8114  0.6976
  448MOL0     H60480  10.949   8.493   6.630  1.0008  0.9256 -0.3645
  449MOL0     O60481   1.504   5.705   3.147  0.0265  0.6432  0.5807
  449MOL0     C60482   1.470   5.798   3.077 -0.3058 -0.3506  0.4258
  449MOL0     O60483   1.538   5.911   3.054  0.1693 -0.0465  0.7675
  449MOL0     C60484   1.637   5.934   3.141  0.3990  0.7205  0.7525
  449MOL0     C60485   1.605   5.978   3.273  0.4490 -0.2969 -0.0921
  449MOL0     C60486   1.714   6.033   3.345 -0.2236 -0.5592 -0.3157
  449MOL0     C60487   1.842   6.054   3.292  0.1109 -0.1911 -1.1191
  449MOL0     O60488   1.930   6.085   3.394 -0.1015  0.2475  0.5884
  449MOL0     C60489   2.057   6.126   3.358 -0.6980 -0.5890 -0.4882
  449MOL0     C60490   2.142   6.133   3.481  0.4519 -0.0961  0.0563
  449MOL0     C60491   2.263   6.229   3.458 -0.0530  0.5095 -0.0873
  449MOL0     C60492   2.282   6.322   3.586  0.6536 -0.3974 -0.6001
  449MOL0     C60493   2.411   6.404   3.558 -0.2550 -0.7311 -0.9723
  449MOL0     C60494   2.428   6.518   3.661 -0.5945 -0.0391  0.2594
  449MOL0     C60495   2.454   6.474   3.808  0.4907  0.4608 -0.2654
  449MOL0     C60496   2.479   6.583   3.910  0.1875 -0.8833  0.3081
  449MOL0     N60497   2.619   6.630   3.905 -0.3249 -0.1412 -0.4888
  449MOL0     C60498   2.663   6.763   3.912  0.8880 -0.1868  0.9255
  449MOL0     C60499   2.793   6.770   3.942  0.2488  0.0860  0.2747
  449MOL0     C60500   2.891   6.887   3.962  0.0154  0.5663 -0.4611
  449MOL0     C60501   3.039   6.863   3.905 -0.4033 -0.2484  0.1898
  449MOL0     C60502   3.125   6.992   3.902 -0.2598 -1.0501  0.0272
  449MOL0     C60503   3.156   7.042   4.051  0.4154  1.0109 -0.3013
  449MOL0     O60504   3.220   7.162   4.032 -0.1542  0.1621 -0.4020
  449MOL0     C60505   3.333   7.196   4.107  0.7052  0.3211 -0.1505
  449MOL0     C60506   3.350   7.151   4.238  0.3883 -0.3331  0.1624
  449MOL0     C60507   3.452   7.197   4.320  0.2002 -0.0265  1.2105
  449MOL0     C60508   3.551   7.285   4.268  0.2682 -0.2094  0.5043
  449MOL0     C60509   3.669   7.321   4.344 -0.2619 -0.2744  0.3335
  449MOL0     O60510   3.699   7.249   4.458  1.3450 -0.0403  0.1261
  449MOL0     C60511   3.820   7.275   4.519 -0.0083 -0.6475 -0.0270
  449MOL0     C60512   3.941   7.308   4.451  0.7715 -0.0359  0.4107
  449MOL0     C60513   4.056   7.350   4.519  0.9683 -0.8590 -0.7624
  449MOL0     C60514   4.058   7.352   4.662  0.4879  1.0019  1.0912
  449MOL0     O60515   4.164   7.400   4.729 -0.1017 -0.3260  0.5347
  449MOL0     C60516   4.129   7.516   4.806  0.6357  0.7892  0.6400
  449MOL0     C60517   4.249   7.609   4.818  0.1309 -0.6810 -0.2390
  449MOL0     C60518   4.328   7.587   4.942 -0.3370  0.4185  0.8354
  449MOL0     C60519   4.470   7.644   4.930 -0.5541  0.5190  0.0087
  449MOL0     C60520   4.557   7.642   5.059  0.0735  0.1548  0.7830
  449MOL0     C60521   4.694   7.705   5.046  0.3892  0.6402  0.3311
  449MOL0     C60522   4.795   7.609   4.976 -0.5912 -0.5448  0.1226
  449MOL0     C60523   4.951   7.656   4.968  0.5692  0.1092 -0.1324
  449MOL0    Cl60524   5.021   7.642   5.133  0.0115  0.1587  0.0769
  449MOL0     C60525   3.945   7.295   4.729 -0.5579 -0.2375  0.4409
  449MOL0     C60526   3.831   7.257   4.660 -0.1376 -0.7279 -0.1018
  449MOL0     O60527   3.721   7.430   4.301  0.7043  0.0390  0.0378
  449MOL0     C60528   3.523   7.338   4.138  1.0042 -0.2296  0.0858
  449MOL0     C60529   3.411   7.294   4.057  0.0882  0.4264 -0.2625
  449MOL0     N60530   2.832   6.636   3.957 -0.2660  0.2589  0.5434
  449MOL0     N60531   2.730   6.551   3.933  0.4531 -0.3631 -0.0315
  449MOL0     C60532   1.869   6.019   3.163  0.5347  1.3481 -0.4091
  449MOL0     C60533   1.765   5.957   3.089 -0.3088 -0.2159  0.8398
  449MOL0     C60534   1.324   5.800   3.035  0.8816  0.1789  0.5835
  449MOL0     C60535   1.259   5.927   3.003  0.3451 -0.2424 -0.0241
  449MOL0     C60536   1.123   5.937   2.987 -0.4107  0.1785  0.0738
  449MOL0     C60537   1.044   5.826   2.987  0.7453  0.7959 -0.0212
  449MOL0     O60538   0.913   5.847   2.984 -0.4721 -0.1947  0.2097
  449MOL0     C60539   0.819   5.742   3.017  0.3591 -0.6418  0.2096
  449MOL0     C60540   0.787   5.664   2.893 -0.5010  0.0320  0.3660
  449MOL0     C60541   0.710   5.530   2.911  0.6955  0.0423  0.0051
  449MOL0     C60542   0.810   5.419   2.950 -0.1613 -0.2585 -1.0717
  449MOL0     C60543   0.904   5.404   2.841 -0.8915 -0.9063  0.1313
  449MOL0     C60544   0.987   5.395   2.755 -0.1410 -0.3630 -0.0638
  449MOL0     C60545   1.108   5.700   3.011  0.2425  0.3698 -0.2393
  449MOL0     C60546   1.247   5.684   3.036 -0.3828  0.3275  0.4409
  449MOL0     C60547   1.287   5.537   3.059 -0.6643  0.0847 -0.5022
  449MOL0     H60548   1.504   5.962   3.309  0.6335  0.0914  0.6024
  449MOL0     H60549   1.697   6.054   3.450 -1.2493 -0.0701 -0.5679
  449MOL0     H60550   2.102   6.064   3.280 -0.8082 -0.7088 -0.4563
  449MOL0     H60551   2.055   6.232   3.327  2.0938 -0.2094  0.3646
  449MOL0     H60552   2.171   6.028   3.490 -0.3371 -0.5336 -2.1113
  449MOL0     H60553   2.088   6.166   3.571  1.2364 -0.9670  0.8820
  449MOL0     H60554   2.248   6.293   3.371 -1.9364  2.3483  1.4556
  449MOL0     H60555   2.350   6.166   3.441  0.0950  0.7652 -0.2874
  449MOL0     H60556   2.193   6.385   3.597 -0.8772 -2.5378  0.0324
  449MOL0     H60557   2.285   6.268   3.681 -1.6581  1.4078  0.5924
  449MOL0     H60558   2.496   6.336   3.566 -0.3684 -0.6680  3.1605
  449MOL0     H60559   2.409   6.450   3.459 -2.2853  1.9893  0.1930
  449MOL0     H60560   2.516   6.577   3.633  0.1967 -2.2582 -2.4353
  449MOL0     H60561   2.346   6.591   3.661  0.8619  1.7459  2.5399
  449MOL0     H60562   2.535   6.400   3.808  1.2753  1.2969  0.7947
  449MOL0     H60563   2.361   6.427   3.842 -0.1361  0.2633 -2.1711
  449MOL0     H60564   2.416   6.670   3.888  1.6941  0.7240  2.0014
  449MOL0     H60565   2.450   6.561   4.013  0.0923 -0.7685  0.3074
  449MOL0     H60566   2.609   6.855   3.894  1.1780 -0.3369 -0.9277
  449MOL0     H60567   2.855   6.973   3.904  1.9228  0.4112 -2.0025
  449MOL0     H60568   2.884   6.905   4.069 -1.9515 -2.5679  0.0808
  449MOL0     H60569   3.093   6.788   3.964  2.4931  1.4699 -0.0491
  449MOL0     H60570   3.027   6.814   3.808 -3.1535 -1.9814  1.3088
  449MOL0     H60571   3.069   7.074   3.855  1.5246  0.1680 -0.0668
  449MOL0     H60572   3.213   6.970   3.841  1.1963 -1.4603  2.1556
  449MOL0     H60573   3.210   6.968   4.112 -2.7013 -0.6338  0.7306
  449MOL0     H60574   3.068   7.055   4.115  0.9191 -0.6919  0.8250
  449MOL0     H60575   3.283   7.083   4.292  0.8074 -1.4072 -0.6419
  449MOL0     H60576   3.455   7.169   4.425  0.5509  0.9936  1.4778
  449MOL0     H60577   3.953   7.317   4.343 -2.1086 -0.3317 -0.0149
  449MOL0     H60578   4.143   7.382   4.463  0.7630 -1.2705 -1.3353
  449MOL0     H60579   4.054   7.573   4.751  0.1299  0.7149  1.2518
  449MOL0     H60580   4.074   7.497   4.898 -5.1677  1.2231 -2.2686
  449MOL0     H60581   4.323   7.592   4.739  2.6217 -0.0126  1.8275
  449MOL0     H60582   4.209   7.710   4.820 -1.6107 -1.2761 -2.0515
  449MOL0     H60583   4.285   7.632   5.032  1.9872 -0.9703  2.7795
  449MOL0     H60584   4.342   7.479   4.956 -1.0185 -0.0917 -1.9007
  449MOL0     H60585   4.466   7.749   4.899  1.8334  1.4463  2.5015
  449MOL0     H60586   4.523   7.585   4.854 -1.6170 -2.8687  1.6711
  449MOL0     H60587   4.574   7.537   5.087 -3.3093 -0.5332  0.7266
  449MOL0     H60588   4.503   7.699   5.136 -0.6111  2.7912 -1.4820
  449MOL0     H60589   4.687   7.799   4.991 -1.9778  1.3601  1.7459
  449MOL0     H60590   4.739   7.725   5.143  3.3649  0.6107 -0.9366
  449MOL0     H60591   4.754   7.587   4.877  0.6040  1.5912 -0.9238
  449MOL0     H60592   4.793   7.517   5.035  0.2299  0.9566  2.6184
  449MOL0     H60593   5.006   7.592   4.898 -2.4599 -1.4935 -1.2511
  449MOL0     H60594   4.955   7.760   4.935  0.3160  0.4005  0.7459
  449MOL0     H60595   3.950   7.276   4.836 -0.4936  3.0004  1.1066
  449MOL0     H60596   3.752   7.218   4.723  0.5725  0.0909  1.3514
  449MOL0     H60597   3.588   7.412   4.093 -1.1214  1.1860 -0.7567
  449MOL0     H60598   3.379   7.323   3.957 -0.6735 -2.0342 -0.8110
  449MOL0     H60599   1.965   6.017   3.112  1.1016 -3.4313  0.3311
  449MOL0     H60600   1.773   5.943   2.981  0.6420 -1.3675  1.0443
  449MOL0     H60601   1.316   6.019   3.008  0.7930 -0.5964  1.8330
  449MOL0     H60602   1.074   6.033   2.978 -0.8938 -0.0569  0.1315
  449MOL0     H60603   0.722   5.787   3.039  0.0432 -1.3375  0.2645
  449MOL0     H60604   0.860   5.681   3.098  0.9447 -0.7298 -0.1460
  449MOL0     H60605   0.884   5.645   2.845  1.3217 -0.3895  3.8570
  449MOL0     H60606   0.734   5.726   2.821 -2.3560 -1.5459  0.2889
  449MOL0     H60607   0.649   5.511   2.822 -3.5204  0.6976  2.4808
  449MOL0     H60608   0.632   5.545   2.986  0.3183  0.8312 -0.5322
  449MOL0     H60609   0.859   5.453   3.041  1.0875 -0.4822 -1.6356
  449MOL0     H60610   0.765   5.321   2.966  1.0860 -0.7158 -0.2885
  449MOL0     H60611   1.060   5.372   2.679  2.1777 -3.4519  2.7830
  449MOL0     H60612   1.042   5.616   2.991 -0.2430  0.7788 -0.4124
  449MOL0     H60613   1.383   5.506   3.015 -0.3977 -3.7338  2.1746
  449MOL0     H60614   1.299   5.532   3.168 -0.3734 -1.1069 -0.5666
  449MOL0     H60615   1.210   5.470   3.019  1.0162 -0.0870 -3.8226
  450MOL0     O60616   1.016   2.670   9.490 -0.2039  0.1255 -0.0601
  450MOL0     C60617   1.060   2.612   9.589  0.5318  0.3108  0.5129
  450MOL0     O60618   1.161   2.660   9.669  0.1678  0.4434 -0.3028
  450MOL0     C60619   1.207   2.784   9.652  0.0245 -0.6348  0.4028
  450MOL0     C60620   1.111   2.897   9.641  0.5178  0.0064 -0.5419
  450MOL0     C60621   1.167   3.023   9.660 -0.6403  0.1246 -0.1160
  450MOL0     C60622   1.300   3.053   9.679 -0.0955 -0.5614  0.5152
  450MOL0     O60623   1.343   3.184   9.670 -0.3327  0.2222  0.0845
  450MOL0     C60624   1.253   3.277   9.605 -0.0289  1.0372  0.3106
  450MOL0     C60625   1.303   3.418   9.574 -0.0142  1.0835  0.1296
  450MOL0     C60626   1.227   3.489   9.468  0.6885 -0.0491  0.0993
  450MOL0     C60627   1.111   3.581   9.521  0.4635  0.1557 -0.2982
  450MOL0     C60628   1.024   3.638   9.412  0.2081  0.5093 -0.3204
  450MOL0     C60629   0.896   3.703   9.457  0.2522  0.0945 -0.3893
  450MOL0     C60630   0.817   3.778   9.349 -0.0093  0.6238  0.4160
  450MOL0     C60631   0.676   3.840   9.384  0.0503 -0.6942 -0.4695
  450MOL0     N60632   0.599   3.856   9.266  0.5590 -0.2891 -0.1461
  450MOL0     C60633   0.527   3.761   9.201 -1.0848 -0.0318  0.1467
  450MOL0     C60634   0.455   3.828   9.108  0.3942 -0.4683 -0.8685
  450MOL0     C60635   0.369   3.771   9.003 -0.3046 -0.9994  0.6416
  450MOL0     C60636   0.346   3.849   8.874  0.1486 -0.3359 -0.2280
  450MOL0     C60637   0.226   3.800   8.793  0.2291  0.1860  0.2460
  450MOL0     C60638   0.178   3.913   8.698  0.6410  0.9322  0.2131
  450MOL0     O60639   0.074   3.843   8.622 -0.8725 -0.5151  0.7568
  450MOL0     C60640  -0.054   3.885   8.612 -0.5380  0.5513 -0.2015
  450MOL0     C60641  -0.091   4.010   8.635 -0.1982 -0.7022  0.1722
  450MOL0     C60642  -0.224   4.059   8.611 -0.7576 -0.6873  0.2964
  450MOL0     C60643  -0.312   3.966   8.574 -0.3101  0.9058  0.0659
  450MOL0     C60644  -0.444   4.013   8.539  0.9575  0.1863  0.2755
  450MOL0     O60645  -0.537   3.912   8.494 -0.6011 -0.3713  0.2002
  450MOL0     C60646  -0.664   3.937   8.464 -0.1760  0.0850  1.0127
  450MOL0     C60647  -0.746   4.013   8.546  0.3520  0.3325  0.1562
  450MOL0     C60648  -0.888   4.032   8.516  0.5742  0.0935 -0.8512
  450MOL0     C60649  -0.951   3.966   8.414 -0.3695  0.1765 -0.7517
  450MOL0     O60650  -1.083   3.990   8.396 -0.1009  0.2152 -0.1258
  450MOL0     C60651  -1.151   3.892   8.320 -0.1509 -1.0421 -0.6219
  450MOL0     C60652  -1.303   3.925   8.338  0.4462 -0.6260  0.6348
  450MOL0     C60653  -1.391   3.864   8.229 -0.1852 -0.3011  0.9492
  450MOL0     C60654  -1.527   3.818   8.287  0.1989 -0.4565 -0.1713
  450MOL0     C60655  -1.618   3.772   8.174  0.3479 -0.3502  0.6289
  450MOL0     C60656  -1.750   3.729   8.229 -0.5450 -0.0429  0.4693
  450MOL0     C60657  -1.837   3.674   8.109  0.1559  0.2132 -0.3482
  450MOL0     C60658  -1.965   3.605   8.154 -0.3934  0.2486 -1.0884
  450MOL0    Cl60659  -2.068   3.591   8.006  0.0937 -0.1136  0.4145
  450MOL0     C60660  -0.874   3.885   8.331 -1.1213  0.5077  0.1475
  450MOL0     C60661  -0.734   3.869   8.362  0.0395 -0.5293  0.3646
  450MOL0     O60662  -0.468   4.134   8.543  0.5290 -0.2025  0.3989
  450MOL0     C60663  -0.279   3.829   8.553 -0.5410  0.8323  0.2600
  450MOL0     C60664  -0.150   3.793   8.569 -0.1480 -0.6005  0.2513
  450MOL0     N60665   0.483   3.962   9.120 -0.5361  0.6685  0.5990
  450MOL0     N60666   0.571   3.977   9.208 -0.2671 -0.4474  0.7212
  450MOL0     C60667   1.393   2.941   9.674  0.5129 -0.7237 -0.2254
  450MOL0     C60668   1.338   2.815   9.666  0.0152 -0.5909  0.1206
  450MOL0     C60669   0.993   2.483   9.637 -0.2583 -0.2855 -1.1006
  450MOL0     C60670   0.953   2.384   9.544  0.3033  0.5320 -0.2035
  450MOL0     C60671   0.901   2.263   9.589 -0.5714  0.6048 -0.2502
  450MOL0     C60672   0.848   2.244   9.715 -0.7554  0.1296 -0.7764
  450MOL0     O60673   0.782   2.134   9.772  0.2184  0.1069  0.2176
  450MOL0     C60674   0.716   2.043   9.683  0.1726 -0.2197 -0.7459
  450MOL0     C60675   0.605   1.964   9.747 -0.9337 -0.0497 -0.6154
  450MOL0     C60676   0.665   1.847   9.830 -0.8155  0.1497 -0.0095
  450MOL0     C60677   0.565   1.745   9.882  0.1591  0.1428 -1.0835
  450MOL0     C60678   0.458   1.705   9.791  0.3305 -1.0453 -0.3502
  450MOL0     C60679   0.365   1.674   9.717  0.1634 -0.2881 -0.2451
  450MOL0     C60680   0.890   2.340   9.809 -0.2915  0.5253 -0.5997
  450MOL0     C60681   0.963   2.459   9.777  0.3776  0.4172  0.8402
  450MOL0     C60682   0.992   2.551   9.885 -0.3033 -0.1036  0.3306
  450MOL0     H60683   1.007   2.868   9.645  0.1662  1.2293 -0.3698
  450MOL0     H60684   1.087   3.096   9.658 -0.0272  0.7814 -0.8905
  450MOL0     H60685   1.229   3.232   9.508  3.0453 -1.6615  0.6524
  450MOL0     H60686   1.156   3.276   9.655 -0.9043 -2.4272 -1.2090
  450MOL0     H60687   1.408   3.406   9.548 -0.3432  0.4143 -0.9925
  450MOL0     H60688   1.302   3.485   9.660 -1.7322  1.3114 -0.0326
  450MOL0     H60689   1.177   3.420   9.398  0.0187  0.2492  0.2745
  450MOL0     H60690   1.294   3.554   9.410 -0.7526  1.1309 -0.3053
  450MOL0     H60691   1.046   3.535   9.596  0.5904  2.7392  1.5555
  450MOL0     H60692   1.158   3.669   9.567  0.9673  1.1992 -2.6588
  450MOL0     H60693   1.081   3.715   9.360  0.0822  0.6566 -0.2425
  450MOL0     H60694   0.998   3.557   9.344 -0.0103  0.9903 -0.8244
  450MOL0     H60695   0.844   3.610   9.485  3.3637 -1.4504  0.8288
  450MOL0     H60696   0.909   3.778   9.535 -0.4446 -0.2858  0.1060
  450MOL0     H60697   0.796   3.695   9.281  1.0249 -0.0730  0.9174
  450MOL0     H60698   0.879   3.848   9.293 -1.1500 -1.2156 -3.4629
  450MOL0     H60699   0.617   3.780   9.453  1.0970 -0.7330  0.4371
  450MOL0     H60700   0.683   3.941   9.427  2.9856 -0.3193 -1.5319
  450MOL0     H60701   0.523   3.654   9.218  2.0554 -0.5086 -1.3193
  450MOL0     H60702   0.422   3.682   8.967  4.1662  1.7635 -0.3710
  450MOL0     H60703   0.273   3.741   9.046  1.2033 -4.2107  2.1402
  450MOL0     H60704   0.341   3.956   8.896 -3.8596 -0.1970 -1.1939
  450MOL0     H60705   0.435   3.837   8.811  0.3402 -1.4955  0.2231
  450MOL0     H60706   0.141   3.786   8.860  1.6418  0.7234  2.2896
  450MOL0     H60707   0.259   3.707   8.746  1.9829  1.7847 -1.8783
  450MOL0     H60708   0.261   3.941   8.633 -0.0254  0.0977 -1.0475
  450MOL0     H60709   0.145   4.004   8.748 -1.4086  1.7854 -2.3877
  450MOL0     H60710  -0.015   4.083   8.661 -1.3676  0.3769  0.7166
  450MOL0     H60711  -0.244   4.166   8.612  1.6142 -0.1980  2.0521
  450MOL0     H60712  -0.710   4.079   8.624 -0.4431  0.9489  0.0120
  450MOL0     H60713  -0.953   4.090   8.580 -1.0312 -0.7781 -1.6339
  450MOL0     H60714  -1.126   3.914   8.216 -1.2429  1.4039 -0.4296
  450MOL0     H60715  -1.124   3.790   8.351  0.5344 -0.7898 -0.3542
  450MOL0     H60716  -1.339   3.892   8.435 -0.9050 -2.4277 -0.4325
  450MOL0     H60717  -1.318   4.034   8.336 -4.8625 -1.1033  0.7814
  450MOL0     H60718  -1.394   3.930   8.141  3.9014  0.5263  1.2322
  450MOL0     H60719  -1.339   3.775   8.192 -2.7254 -2.3645  2.0385
  450MOL0     H60720  -1.575   3.901   8.338  0.5879  0.2056 -0.8697
  450MOL0     H60721  -1.513   3.737   8.360 -2.3414 -0.7340  0.0943
  450MOL0     H60722  -1.566   3.690   8.125  2.4798  0.1441  1.9451
  450MOL0     H60723  -1.650   3.854   8.109 -1.3259 -1.4077  0.0530
  450MOL0     H60724  -1.729   3.644   8.295 -1.2711  1.8629  3.3514
  450MOL0     H60725  -1.802   3.804   8.290 -1.2106 -0.5961  0.5891
  450MOL0     H60726  -1.788   3.598   8.047  2.3974  0.9592  0.4169
  450MOL0     H60727  -1.851   3.759   8.041  3.5117  0.6372 -0.6370
  450MOL0     H60728  -1.941   3.505   8.192  0.5935  0.5364 -0.9169
  450MOL0     H60729  -2.019   3.667   8.227  1.7337  0.4587  0.3862
  450MOL0     H60730  -0.903   3.824   8.247  4.0823 -0.4686 -1.2464
  450MOL0     H60731  -0.665   3.813   8.300  0.8148 -1.1557  1.7502
  450MOL0     H60732  -0.349   3.753   8.519  1.0374 -0.9867  0.8787
  450MOL0     H60733  -0.131   3.690   8.540 -4.1837 -1.2875 -0.6031
  450MOL0     H60734   1.500   2.962   9.676  0.6297 -1.1891 -1.0725
  450MOL0     H60735   1.405   2.730   9.681  0.8694  0.1385  0.5302
  450MOL0     H60736   0.975   2.380   9.437 -0.5214 -2.0238 -0.3547
  450MOL0     H60737   0.872   2.187   9.517  0.9569  1.6709 -2.0733
  450MOL0     H60738   0.793   1.980   9.636  1.0736  0.9518 -0.8709
  450MOL0     H60739   0.662   2.101   9.607 -1.9769 -0.6441  0.3812
  450MOL0     H60740   0.552   1.929   9.658  0.1458  0.2523 -1.4095
  450MOL0     H60741   0.540   2.029   9.806  1.3284  0.8407  1.0709
  450MOL0     H60742   0.726   1.884   9.912 -1.3826 -1.5335  1.2110
  450MOL0     H60743   0.748   1.796   9.780  1.5430  2.9806  0.7693
  450MOL0     H60744   0.616   1.666   9.938  1.0006  0.6521 -1.1138
  450MOL0     H60745   0.517   1.796   9.966  0.9100 -0.6645 -0.1391
  450MOL0     H60746   0.282   1.662   9.651 -0.2849  1.0364  0.0453
  450MOL0     H60747   0.863   2.321   9.913  1.6398 -0.5258 -0.2397
  450MOL0     H60748   0.943   2.513   9.975  1.2249  1.1778  1.7788
  450MOL0     H60749   1.093   2.545   9.927 -0.1574  1.2106  0.2314
  450MOL0     H60750   0.981   2.658   9.864  0.1077 -0.6173 -3.1619
  451MOL0     O60751   1.502   8.658   9.574 -0.3193  0.5771  0.0191
  451MOL0     C60752   1.428   8.685   9.666  0.6860 -0.8190  0.6871
  451MOL0     O60753   1.460   8.764   9.777  0.7151 -0.0441  0.4852
  451MOL0     C60754   1.586   8.816   9.782 -0.0319 -0.3472  0.2443
  451MOL0     C60755   1.631   8.906   9.686  0.8252 -0.1131  0.1402
  451MOL0     C60756   1.765   8.951   9.680 -0.8442 -0.4643 -0.2696
  451MOL0     C60757   1.860   8.894   9.762  0.2794  0.1039 -0.4559
  451MOL0     O60758   1.989   8.934   9.751 -0.1631  0.3229 -0.2994
  451MOL0     C60759   2.018   9.059   9.688  0.3533  0.7407  0.1912
  451MOL0     C60760   2.160   9.100   9.722  0.1794 -0.2657 -0.4193
  451MOL0     C60761   2.270   8.986   9.717 -0.1774  0.3917 -0.4544
  451MOL0     C60762   2.379   9.036   9.609  0.2818  0.1064  0.0081
  451MOL0     C60763   2.493   8.925   9.581 -0.2045  0.4593  0.2001
  451MOL0     C60764   2.497   8.866   9.435  0.0329 -0.1106  0.3595
  451MOL0     C60765   2.511   8.964   9.317  0.0781  0.2619 -0.9117
  451MOL0     C60766   2.479   8.898   9.180  0.4238  0.0610 -0.8936
  451MOL0     N60767   2.456   8.990   9.070  0.5245 -0.0982 -0.0368
  451MOL0     C60768   2.543   9.091   9.025 -0.3283  0.3510 -0.0588
  451MOL0     C60769   2.476   9.137   8.908 -0.5435 -0.2719  0.1977
  451MOL0     C60770   2.545   9.240   8.825 -0.2635 -0.5188  0.7880
  451MOL0     C60771   2.519   9.229   8.674 -0.2720  0.1641 -0.6742
  451MOL0     C60772   2.585   9.346   8.598 -0.1372 -0.4302  0.0751
  451MOL0     C60773   2.533   9.360   8.461  0.5810  0.7081 -0.3923
  451MOL0     O60774   2.574   9.473   8.388 -0.1639  0.0533  0.7688
  451MOL0     C60775   2.713   9.477   8.359 -0.3573 -0.0824 -0.2363
  451MOL0     C60776   2.772   9.601   8.335 -0.2355  0.4008 -0.7465
  451MOL0     C60777   2.907   9.616   8.301 -0.0565  0.1642 -0.3415
  451MOL0     C60778   2.988   9.497   8.297  1.1866 -0.3443 -0.2539
  451MOL0     C60779   3.128   9.500   8.263 -0.3849  0.1708  0.1697
  451MOL0     O60780   3.190   9.395   8.191 -0.7416  0.1429 -0.3304
  451MOL0     C60781   3.328   9.404   8.175  0.0988  0.3082  0.3216
  451MOL0     C60782   3.416   9.369   8.284 -0.6555 -0.0944  0.3967
  451MOL0     C60783   3.558   9.386   8.267  0.4356  0.5416  0.0459
  451MOL0     C60784   3.606   9.406   8.136 -0.2233 -0.0369 -0.0709
  451MOL0     O60785   3.741   9.397   8.122 -0.6033  0.4864 -0.3635
  451MOL0     C60786   3.811   9.393   7.993 -0.5801 -0.0122  0.0533
  451MOL0     C60787   3.961   9.370   8.008 -0.3105 -1.0228  0.3700
  451MOL0     C60788   4.009   9.232   8.041 -0.5825 -0.3174 -0.6203
  451MOL0     C60789   4.157   9.230   8.019 -0.2718 -0.4324 -0.0100
  451MOL0     C60790   4.247   9.300   8.123 -0.6298  0.2137 -0.5897
  451MOL0     C60791   4.388   9.284   8.099  0.4708  0.8211  0.0680
  451MOL0     C60792   4.479   9.344   8.210  0.4628 -1.1862  0.2675
  451MOL0     C60793   4.623   9.326   8.170  0.2431 -0.2096  1.6044
  451MOL0    Cl60794   4.661   9.157   8.129 -0.1083 -0.0586 -0.1860
  451MOL0     C60795   3.519   9.431   8.030 -0.3670  0.3451 -0.9456
  451MOL0     C60796   3.381   9.427   8.046  1.1473 -0.2161 -0.3095
  451MOL0     O60797   3.186   9.603   8.293  0.8673  0.3583 -0.4742
  451MOL0     C60798   2.923   9.374   8.313 -0.9008  0.0837 -0.5759
  451MOL0     C60799   2.791   9.360   8.344 -0.5085  0.1704 -1.0690
  451MOL0     N60800   2.355   9.072   8.899  0.5992  0.3319 -0.3356
  451MOL0     N60801   2.340   8.986   8.998  0.8651  0.0216  1.3905
  451MOL0     C60802   1.821   8.806   9.863 -0.1644 -0.1507 -0.0196
  451MOL0     C60803   1.683   8.760   9.863  0.5148  0.0467 -0.3150
  451MOL0     C60804   1.283   8.626   9.666  0.0943 -0.5709 -0.0820
  451MOL0     C60805   1.224   8.613   9.789 -0.5623 -0.1047 -0.4971
  451MOL0     C60806   1.093   8.559   9.792 -0.5470  0.5879  0.6791
  451MOL0     C60807   1.026   8.528   9.673  0.6305 -0.2652  0.1118
  451MOL0     O60808   0.899   8.479   9.671 -0.0511  0.2499  0.0152
  451MOL0     C60809   0.819   8.513   9.785  0.7000  0.0888  0.7368
  451MOL0     C60810   0.672   8.504   9.753 -0.6543 -0.3720 -0.2122
  451MOL0     C60811   0.640   8.562   9.620  0.6185 -0.2879  0.2674
  451MOL0     C60812   0.493   8.525   9.575  0.8406 -0.8392  0.4528
  451MOL0     C60813   0.433   8.604   9.465 -0.3419 -0.0527  0.2506
  451MOL0     C60814   0.367   8.653   9.383 -0.2690  0.3449  0.4394
  451MOL0     C60815   1.088   8.542   9.546 -1.2778 -0.4463 -0.8181
  451MOL0     C60816   1.216   8.597   9.539 -0.3094  0.5154  0.0323
  451MOL0     C60817   1.267   8.606   9.399 -0.1295  0.4506  0.9531
  451MOL0     H60818   1.568   8.943   9.606 -0.2634 -0.7985  0.6530
  451MOL0     H60819   1.789   9.020   9.601 -1.1377 -1.4731 -1.2606
  451MOL0     H60820   2.011   9.053   9.579 -0.8485 -3.4481  0.3428
  451MOL0     H60821   1.952   9.137   9.727  0.5648  0.3210  1.4180
  451MOL0     H60822   2.144   9.142   9.822 -0.1300  0.7936 -0.9067
  451MOL0     H60823   2.174   9.189   9.660  0.9473  1.2431  1.7918
  451MOL0     H60824   2.228   8.888   9.693  1.1023 -0.0355 -1.0333
  451MOL0     H60825   2.329   8.967   9.807  3.3184  0.3053 -2.5764
  451MOL0     H60826   2.330   9.048   9.512 -1.9166 -0.2509  1.0114
  451MOL0     H60827   2.421   9.130   9.644 -1.7461  1.2298 -0.4263
  451MOL0     H60828   2.590   8.971   9.600  0.7024 -1.6645  1.0335
  451MOL0     H60829   2.472   8.842   9.648 -0.4138  1.2415  1.1233
  451MOL0     H60830   2.582   8.798   9.429  0.1935  0.0498  0.7584
  451MOL0     H60831   2.403   8.810   9.430 -0.0915 -0.0346  1.5099
  451MOL0     H60832   2.606   9.017   9.310  1.6457 -2.3835 -1.0722
  451MOL0     H60833   2.431   9.039   9.317  0.5266  0.7508 -1.6623
  451MOL0     H60834   2.569   8.839   9.158  0.4096 -1.2559  2.1119
  451MOL0     H60835   2.391   8.834   9.183  0.1744  0.3884 -1.1460
  451MOL0     H60836   2.636   9.121   9.072  0.8504  0.2852 -2.2425
  451MOL0     H60837   2.526   9.342   8.859  2.6491  0.2954  0.1948
  451MOL0     H60838   2.652   9.219   8.826 -0.6317 -3.1397 -1.8506
  451MOL0     H60839   2.546   9.130   8.636 -1.4371 -1.4012  2.2029
  451MOL0     H60840   2.411   9.246   8.665  0.0171  1.1429 -2.7908
  451MOL0     H60841   2.690   9.322   8.583  0.0626  1.4399 -1.9751
  451MOL0     H60842   2.571   9.445   8.643 -1.8126  0.0406 -1.3640
  451MOL0     H60843   2.425   9.374   8.461  0.2726 -0.7711 -3.5597
  451MOL0     H60844   2.551   9.262   8.414 -1.2048  0.5563 -0.8088
  451MOL0     H60845   2.709   9.690   8.336 -2.8442 -1.3584  1.0828
  451MOL0     H60846   2.946   9.717   8.288  0.2763  0.0722 -0.0662
  451MOL0     H60847   3.368   9.345   8.379  0.8184 -2.2079  0.6762
  451MOL0     H60848   3.614   9.372   8.358 -3.1130 -1.3124  2.1607
  451MOL0     H60849   3.769   9.309   7.937 -0.7143 -1.0755  1.6488
  451MOL0     H60850   3.786   9.490   7.951  0.8714  0.5811  0.4928
  451MOL0     H60851   4.005   9.410   7.916 -3.8892  3.2876  0.1928
  451MOL0     H60852   3.995   9.433   8.090 -0.1043 -0.1280 -0.3840
  451MOL0     H60853   3.987   9.206   8.145 -0.0392 -3.1712 -1.1474
  451MOL0     H60854   3.957   9.168   7.970 -0.1486  0.0589 -1.2934
  451MOL0     H60855   4.184   9.272   7.922  0.1785  1.8079  1.0209
  451MOL0     H60856   4.176   9.123   8.006 -2.2582 -0.7572 -0.5268
  451MOL0     H60857   4.205   9.258   8.214 -0.5243  1.2255 -0.0576
  451MOL0     H60858   4.224   9.407   8.124 -4.0865 -0.3879 -0.7171
  451MOL0     H60859   4.405   9.177   8.093  0.6173  0.8440  0.0691
  451MOL0     H60860   4.408   9.327   8.001  1.9453  4.3403  1.7258
  451MOL0     H60861   4.456   9.294   8.305  0.0813  1.1265  1.4703
  451MOL0     H60862   4.450   9.450   8.214 -0.6741 -1.4847  0.2497
  451MOL0     H60863   4.636   9.381   8.076  0.7815  0.0454  1.8225
  451MOL0     H60864   4.703   9.375   8.227  1.3674  1.1699 -0.9525
  451MOL0     H60865   3.555   9.443   7.928  0.3942  0.2862 -0.6885
  451MOL0     H60866   3.314   9.434   7.962  1.4305 -0.4404 -0.5566
  451MOL0     H60867   2.971   9.278   8.297 -1.6469 -0.3225 -0.4196
  451MOL0     H60868   2.756   9.257   8.343 -2.4407  0.7606 -0.0429
  451MOL0     H60869   1.893   8.765   9.933  0.7023  1.6436  0.1801
  451MOL0     H60870   1.663   8.690   9.943  1.9533 -1.0106 -0.8421
  451MOL0     H60871   1.278   8.622   9.883 -1.2720 -1.2930  0.0500
  451MOL0     H60872   1.049   8.538   9.889 -1.2890  1.0027  0.4367
  451MOL0     H60873   0.844   8.612   9.822 -3.3478  2.0218 -0.9717
  451MOL0     H60874   0.827   8.434   9.860 -2.7020 -0.0415  1.1323
  451MOL0     H60875   0.605   8.542   9.830 -2.2594 -1.6711 -0.9037
  451MOL0     H60876   0.641   8.400   9.761 -0.2067 -0.4930 -0.0616
  451MOL0     H60877   0.708   8.518   9.547 -0.2654 -2.3526  0.6161
  451MOL0     H60878   0.643   8.672   9.618  1.0788 -0.2987 -2.3203
  451MOL0     H60879   0.500   8.420   9.544  1.1313 -0.6952  0.0168
  451MOL0     H60880   0.433   8.535   9.666 -2.0822  2.3246 -1.5623
  451MOL0     H60881   0.299   8.694   9.310  0.0516 -0.5758 -0.4062
  451MOL0     H60882   1.017   8.521   9.467 -1.9486  2.6924 -1.1664
  451MOL0     H60883   1.188   8.650   9.338  0.0866  1.7590  1.5951
  451MOL0     H60884   1.354   8.668   9.377 -0.9110  0.9809 -0.7408
  451MOL0     H60885   1.290   8.502   9.373  0.5635  0.6264  0.8501
  452MOL0     O60886   9.058   4.992   8.817  0.3891 -0.2397  0.7522
  452MOL0     C60887   8.990   5.073   8.871  0.5294  0.4683 -0.0399
  452MOL0     O60888   9.029   5.192   8.920 -0.5181 -0.1692 -0.7374
  452MOL0     C60889   9.168   5.202   8.933  0.0763 -0.1531  0.0024
  452MOL0     C60890   9.235   5.289   8.841  0.2547 -0.6984 -0.5091
  452MOL0     C60891   9.369   5.321   8.853  0.4804  0.6740 -0.1329
  452MOL0     C60892   9.438   5.282   8.969  0.4333  0.0968  0.4000
  452MOL0     O60893   9.561   5.342   8.988 -0.5560 -0.6427 -0.1329
  452MOL0     C60894   9.663   5.283   9.074  0.8066  0.1194 -0.4275
  452MOL0     C60895   9.785   5.374   9.062  0.3187 -0.1535 -0.5572
  452MOL0     C60896   9.749   5.519   9.104  0.0045  0.3045  0.0167
  452MOL0     C60897   9.860   5.609   9.086  0.2952 -0.6637 -0.2519
  452MOL0     C60898   9.962   5.609   9.200  0.2497  0.1183 -0.7797
  452MOL0     C60899  10.069   5.707   9.183  0.8099 -0.1295  0.1013
  452MOL0     C60900  10.171   5.700   9.296  0.9886  0.2446  0.8286
  452MOL0     C60901  10.309   5.753   9.240  0.0922  0.0782  0.0290
  452MOL0     N60902  10.309   5.887   9.182  0.4215 -0.4747  0.3412
  452MOL0     C60903  10.379   5.993   9.235  0.1670 -0.1975  0.5627
  452MOL0     C60904  10.348   6.105   9.162 -1.0353 -0.3049 -0.1381
  452MOL0     C60905  10.407   6.236   9.182  0.0225 -0.1758 -0.1882
  452MOL0     C60906  10.408   6.328   9.058  0.0829  0.3968 -0.4655
  452MOL0     C60907  10.482   6.459   9.092  0.0901  0.1744 -0.4403
  452MOL0     C60908  10.493   6.549   8.971 -0.8817 -0.0035  0.1041
  452MOL0     O60909  10.611   6.627   8.986  0.1808 -0.0780  0.1033
  452MOL0     C60910  10.644   6.698   8.879 -0.5410 -1.2268  0.0134
  452MOL0     C60911  10.575   6.727   8.760 -0.0057 -0.7917 -0.1749
  452MOL0     C60912  10.619   6.821   8.664  0.2964 -0.3520  0.1946
  452MOL0     C60913  10.720   6.904   8.698 -0.0067  0.7308 -0.4239
  452MOL0     C60914  10.759   7.027   8.614 -0.6154 -0.5970  0.8399
  452MOL0     O60915  10.666   7.064   8.518 -0.1188  0.0987  0.3462
  452MOL0     C60916  10.698   7.163   8.426 -0.2056  0.7683  1.0950
  452MOL0     C60917  10.765   7.286   8.444 -0.1797  0.3594 -0.4923
  452MOL0     C60918  10.802   7.370   8.343  0.1694 -0.8765  0.4186
  452MOL0     C60919  10.764   7.340   8.212 -0.3111 -0.2333  0.0873
  452MOL0     O60920  10.777   7.417   8.098 -0.2627  0.0085 -0.6868
  452MOL0     C60921  10.886   7.509   8.101 -0.0746  0.2231  0.1699
  452MOL0     C60922  10.932   7.515   7.949 -0.1982 -0.3410  0.5285
  452MOL0     C60923  11.034   7.629   7.940  0.0272  0.2861 -0.3907
  452MOL0     C60924  11.086   7.625   7.795 -0.6513  0.3376  0.6398
  452MOL0     C60925  11.230   7.561   7.795  0.2145 -0.1082 -0.6618
  452MOL0     C60926  11.261   7.529   7.652 -0.0389 -0.1964 -0.2326
  452MOL0     C60927  11.405   7.477   7.648 -0.0618  0.4617 -0.1545
  452MOL0     C60928  11.434   7.411   7.508 -0.5018 -0.1511  0.0572
  452MOL0    Cl60929  11.479   7.525   7.380 -0.3029 -0.0896  0.5942
  452MOL0     C60930  10.690   7.221   8.194  0.1281 -1.2249 -0.0017
  452MOL0     C60931  10.655   7.130   8.293  0.2797  0.1139 -0.7142
  452MOL0     O60932  10.872   7.077   8.625 -0.1845  0.0356 -0.8353
  452MOL0     C60933  10.799   6.869   8.811 -0.2297  0.1972  0.5201
  452MOL0     C60934  10.759   6.769   8.897 -0.7191 -0.2266 -0.5841
  452MOL0     N60935  10.263   6.060   9.071  0.2192 -0.6761 -0.0937
  452MOL0     N60936  10.240   5.937   9.081  0.4636  0.1008  0.0816
  452MOL0     C60937   9.371   5.202   9.064  1.3449  0.7379 -0.1345
  452MOL0     C60938   9.237   5.157   9.046 -0.1039  0.1736 -0.2079
  452MOL0     C60939   8.838   5.047   8.876 -0.5704 -0.1372 -0.1267
  452MOL0     C60940   8.751   5.161   8.888 -0.1751  0.0684  0.5920
  452MOL0     C60941   8.618   5.137   8.875  0.1674 -0.6572 -0.6224
  452MOL0     C60942   8.568   5.011   8.891  0.3330 -0.6324  0.4246
  452MOL0     O60943   8.438   5.005   8.901 -0.3509  0.1914 -0.4569
  452MOL0     C60944   8.391   4.949   9.024  0.2791  0.8190  0.2354
  452MOL0     C60945   8.258   4.883   9.000  0.5479  0.4556 -0.3790
  452MOL0     C60946   8.266   4.744   8.928 -0.1082 -0.4771 -0.9917
  452MOL0     C60947   8.134   4.681   8.896  0.0828  0.2142  0.4078
  452MOL0     C60948   8.074   4.755   8.779 -0.4995  0.0724  0.0087
  452MOL0     C60949   8.020   4.807   8.688  0.4317  0.0155 -0.3805
  452MOL0     C60950   8.654   4.902   8.900  0.3517  0.0946 -0.8116
  452MOL0     C60951   8.786   4.917   8.880 -0.3801  0.4961  0.7364
  452MOL0     C60952   8.878   4.787   8.896 -0.6344 -0.3234  0.1090
  452MOL0     H60953   9.172   5.332   8.764 -2.4858  0.8421  2.3940
  452MOL0     H60954   9.418   5.386   8.782 -0.1424  0.0672 -1.1327
  452MOL0     H60955   9.633   5.275   9.179  0.5385 -1.8444 -0.6108
  452MOL0     H60956   9.698   5.187   9.035  4.4161  0.8628  0.6250
  452MOL0     H60957   9.811   5.376   8.956  1.9525 -0.6709 -0.1937
  452MOL0     H60958   9.863   5.332   9.126  0.2369 -0.1064 -0.4266
  452MOL0     H60959   9.711   5.513   9.206  0.3615 -1.3623  0.0835
  452MOL0     H60960   9.673   5.569   9.044  1.0430  1.3254 -0.4736
  452MOL0     H60961   9.908   5.571   8.996 -0.0003  0.9914 -1.1466
  452MOL0     H60962   9.828   5.713   9.068  0.1505 -0.9369 -1.7299
  452MOL0     H60963   9.902   5.628   9.290 -2.4915 -2.3870 -1.8836
  452MOL0     H60964   9.997   5.505   9.205 -1.0353 -0.3025  1.8644
  452MOL0     H60965  10.114   5.686   9.085  0.7345  1.1315 -0.2258
  452MOL0     H60966  10.044   5.813   9.168  1.3651 -0.3249 -3.0153
  452MOL0     H60967  10.178   5.597   9.330  0.3692  0.0953  0.5100
  452MOL0     H60968  10.138   5.764   9.379  0.3900 -0.1840  0.9208
  452MOL0     H60969  10.392   5.739   9.310  0.1326 -1.2933 -0.2772
  452MOL0     H60970  10.326   5.695   9.149 -2.7302 -0.0826 -0.4797
  452MOL0     H60971  10.443   5.986   9.322 -2.1985 -1.3805  2.3495
  452MOL0     H60972  10.353   6.286   9.264 -1.3138 -2.3320  0.3203
  452MOL0     H60973  10.508   6.214   9.217  0.6045  2.7163  0.2271
  452MOL0     H60974  10.462   6.280   8.975 -0.2274  1.7240 -1.4626
  452MOL0     H60975  10.304   6.350   9.033  0.2206  0.8089 -0.6762
  452MOL0     H60976  10.582   6.436   9.130  0.9745  0.3503 -2.5450
  452MOL0     H60977  10.418   6.510   9.164 -0.5198  0.3368 -1.0917
  452MOL0     H60978  10.418   6.627   8.986 -0.9164 -0.2164  1.0982
  452MOL0     H60979  10.473   6.495   8.878 -2.4748 -1.7058  1.3646
  452MOL0     H60980  10.486   6.673   8.728  0.3232  0.7338 -4.2363
  452MOL0     H60981  10.552   6.842   8.582  1.7933 -0.1149 -1.0088
  452MOL0     H60982  10.797   7.308   8.546 -0.1825 -5.8340  1.2305
  452MOL0     H60983  10.846   7.468   8.353 -0.6923 -0.2039 -1.7735
  452MOL0     H60984  10.859   7.611   8.132 -0.4113  1.0460 -2.5806
  452MOL0     H60985  10.960   7.465   8.169 -0.5692  1.8744  1.8871
  452MOL0     H60986  10.986   7.428   7.910  1.6625  1.8178 -2.0081
  452MOL0     H60987  10.848   7.532   7.882 -0.2971 -2.4295  0.0414
  452MOL0     H60988  10.992   7.725   7.969  0.3481 -0.1401  1.6337
  452MOL0     H60989  11.120   7.612   8.005  0.3135 -2.9187 -1.4035
  452MOL0     H60990  11.099   7.728   7.762  0.3832  0.3041  0.9085
  452MOL0     H60991  11.023   7.569   7.724 -0.3036 -0.2313  0.7721
  452MOL0     H60992  11.232   7.480   7.869  0.9212  2.8245  2.8346
  452MOL0     H60993  11.298   7.637   7.834  0.0566  0.0200 -0.6402
  452MOL0     H60994  11.193   7.448   7.624 -2.3279  0.5931  2.6208
  452MOL0     H60995  11.246   7.618   7.589 -0.5159 -0.8767 -1.1039
  452MOL0     H60996  11.422   7.410   7.732 -0.1828  0.9405  0.2606
  452MOL0     H60997  11.470   7.564   7.660 -2.1020  2.1301 -0.6131
  452MOL0     H60998  11.523   7.348   7.519 -0.0731  0.5356  0.6333
  452MOL0     H60999  11.351   7.347   7.477 -0.9443  0.3525  0.1894
  452MOL0     H61000  10.658   7.195   8.094 -0.1459 -1.1641  0.0717
  452MOL0     H61001  10.598   7.040   8.272  2.4926 -1.3748 -0.7085
  452MOL0     H61002  10.892   6.916   8.840 -1.4923 -0.0364  6.1357
  452MOL0     H61003  10.819   6.738   8.982 -0.7841 -0.8295 -0.7568
  452MOL0     H61004   9.414   5.167   9.158 -2.1698 -2.6488  0.4630
  452MOL0     H61005   9.186   5.085   9.109  2.5718 -1.5424  0.1317
  452MOL0     H61006   8.783   5.264   8.902 -0.7515  0.1197  1.6542
  452MOL0     H61007   8.553   5.224   8.882  1.1357  0.1636 -1.4898
  452MOL0     H61008   8.401   5.022   9.106  2.6524 -0.6691  1.4073
  452MOL0     H61009   8.457   4.868   9.057  0.1238  0.2971 -0.7061
  452MOL0     H61010   8.196   4.959   8.951  0.9139  1.2397  0.3490
  452MOL0     H61011   8.208   4.867   9.095  2.5919  0.2365  0.7278
  452MOL0     H61012   8.321   4.671   8.989 -0.8042 -1.7507 -1.8421
  452MOL0     H61013   8.322   4.751   8.834  0.6980 -0.0809 -0.4974
  452MOL0     H61014   8.145   4.575   8.870 -1.0961 -0.0195  0.8162
  452MOL0     H61015   8.066   4.686   8.981  0.5341  0.4280  0.7558
  452MOL0     H61016   7.984   4.834   8.591  1.2543  1.1083 -0.4076
  452MOL0     H61017   8.604   4.810   8.927  0.6425  0.6599  1.9288
  452MOL0     H61018   8.977   4.802   8.941  0.2895 -0.4108 -1.8020
  452MOL0     H61019   8.824   4.718   8.961 -0.3601 -0.4619  0.1929
  452MOL0     H61020   8.897   4.745   8.797  1.4249  0.6271  0.0306
  453MOL0     O61021   3.250   0.403   8.276  0.2248  0.5825 -0.3281
  453MOL0     C61022   3.290   0.437   8.168 -0.0437 -0.4033 -0.9544
  453MOL0     O61023   3.230   0.410   8.054  0.2030  0.7612  0.1358
  453MOL0     C61024   3.108   0.345   8.053  0.1957  0.0064  0.1016
  453MOL0     C61025   2.992   0.419   8.081 -0.4766 -0.0342  0.4599
  453MOL0     C61026   2.871   0.357   8.082  0.0645 -0.4466  0.5376
  453MOL0     C61027   2.857   0.222   8.042  0.4740 -0.4126 -0.3434
  453MOL0     O61028   2.731   0.178   8.019 -0.2001  0.1128  0.0104
  453MOL0     C61029   2.708   0.050   7.959 -0.3326 -0.6487  0.0075
  453MOL0     C61030   2.568   0.008   7.998 -0.1232 -0.7137 -0.5596
  453MOL0     C61031   2.453   0.095   7.951 -0.7620  0.3039 -0.2612
  453MOL0     C61032   2.436   0.095   7.802 -0.6406  0.0401 -0.7907
  453MOL0     C61033   2.310   0.173   7.758 -0.6349 -0.8262 -0.0346
  453MOL0     C61034   2.170   0.130   7.810  0.0186 -0.2472  0.0824
  453MOL0     C61035   2.061   0.229   7.759 -0.6895  0.2341  0.8972
  453MOL0     C61036   2.007   0.195   7.625  1.1368  0.0547  0.3791
  453MOL0     N61037   1.860   0.162   7.618  0.0320 -0.4675  0.1218
  453MOL0     C61038   1.762   0.247   7.578 -0.0913  0.1227  0.4541
  453MOL0     C61039   1.652   0.163   7.578  0.3901 -0.2253 -0.2728
  453MOL0     C61040   1.516   0.215   7.534  0.0946  0.1599 -0.9128
  453MOL0     C61041   1.419   0.207   7.649  0.9619 -0.3154 -0.0465
  453MOL0     C61042   1.296   0.303   7.634  0.0728  0.1852  0.7031
  453MOL0     C61043   1.193   0.269   7.532  0.7051  0.2379  0.1747
  453MOL0     O61044   1.079   0.354   7.524 -0.2162 -0.2848 -0.1261
  453MOL0     C61045   0.980   0.337   7.427 -0.4408  0.3384 -0.6416
  453MOL0     C61046   0.973   0.227   7.333 -0.5489  0.0349  0.0021
  453MOL0     C61047   0.871   0.222   7.239 -0.5146 -0.0153 -0.7894
  453MOL0     C61048   0.772   0.321   7.231 -0.2405 -0.4174 -0.7549
  453MOL0     C61049   0.675   0.316   7.126  0.9447 -0.7885  0.4251
  453MOL0     O61050   0.642   0.193   7.082  0.2125  0.2478  0.9322
  453MOL0     C61051   0.543   0.182   6.984 -0.8975  0.3280  0.1775
  453MOL0     C61052   0.590   0.128   6.866  0.1191 -0.3054 -0.3168
  453MOL0     C61053   0.520   0.142   6.744  0.6248  0.7806 -0.8448
  453MOL0     C61054   0.383   0.192   6.749  0.2771  0.9216 -0.4144
  453MOL0     O61055   0.311   0.203   6.634  0.2981  0.4522  0.1180
  453MOL0     C61056   0.180   0.258   6.642  0.3137  0.5592  0.1101
  453MOL0     C61057   0.117   0.266   6.500  0.1029 -0.1224  0.6105
  453MOL0     C61058   0.198   0.336   6.391 -1.1811 -0.1555  1.0442
  453MOL0     C61059   0.202   0.485   6.421  0.1434 -0.2263 -0.3141
  453MOL0     C61060   0.319   0.567   6.371  0.8007  0.0487 -0.3901
  453MOL0     C61061   0.350   0.564   6.219 -0.4225  0.5763 -0.0559
  453MOL0     C61062   0.478   0.642   6.181 -0.0603  0.3532  0.3862
  453MOL0     C61063   0.490   0.651   6.031 -0.6849  0.4807 -0.5699
  453MOL0    Cl61064   0.550   0.500   5.961 -0.0325 -0.3565 -0.0744
  453MOL0     C61065   0.329   0.220   6.879  0.3612 -0.5144 -0.4321
  453MOL0     C61066   0.407   0.224   6.994 -1.1066  0.8269  0.2355
  453MOL0     O61067   0.611   0.419   7.102  0.1446  0.3007  0.7210
  453MOL0     C61068   0.777   0.428   7.320 -0.1239  0.0952 -0.1382
  453MOL0     C61069   0.877   0.434   7.425 -0.5141  1.1552 -0.2669
  453MOL0     N61070   1.687   0.034   7.610 -0.1791  0.1821 -0.3288
  453MOL0     N61071   1.814   0.040   7.641 -0.5606  0.5283 -0.5606
  453MOL0     C61072   2.972   0.146   8.022 -0.3869  0.6363  0.6984
  453MOL0     C61073   3.096   0.207   8.021 -0.1628 -0.5680 -0.0436
  453MOL0     C61074   3.405   0.530   8.161 -0.6991  0.5891  0.1149
  453MOL0     C61075   3.423   0.603   8.282 -0.5528  0.6046  0.2217
  453MOL0     C61076   3.524   0.689   8.298 -0.4100  0.6227  0.2053
  453MOL0     C61077   3.619   0.715   8.198  0.6938  0.2677 -0.2732
  453MOL0     O61078   3.728   0.798   8.209  0.3870  0.2659  0.0500
  453MOL0     C61079   3.774   0.855   8.334 -0.1335  0.5958 -0.3405
  453MOL0     C61080   3.906   0.930   8.331  0.7977 -0.2788 -0.0972
  453MOL0     C61081   4.001   0.850   8.247 -0.0421  0.4041  0.4702
  453MOL0     C61082   4.139   0.909   8.244 -0.8501  0.2355 -0.1550
  453MOL0     C61083   4.224   0.806   8.182 -1.3401 -0.0095 -0.9069
  453MOL0     C61084   4.287   0.720   8.120  0.5369  0.2817 -0.7693
  453MOL0     C61085   3.596   0.652   8.079 -0.2255 -0.4921  0.3096
  453MOL0     C61086   3.490   0.566   8.053 -0.2181  1.0061 -0.1967
  453MOL0     C61087   3.493   0.500   7.918  0.0995  0.8028  0.4597
  453MOL0     H61088   3.000   0.522   8.115 -0.2540 -0.3994  1.5729
  453MOL0     H61089   2.783   0.418   8.100 -0.4566 -0.8551 -0.5369
  453MOL0     H61090   2.716   0.049   7.850  1.8927  1.2129  0.0659
  453MOL0     H61091   2.770  -0.031   7.997 -2.0301 -2.4060 -0.8104
  453MOL0     H61092   2.572   0.012   8.107 -0.8895  1.5937 -0.5644
  453MOL0     H61093   2.549  -0.088   7.950  0.2917 -0.6875 -0.7826
  453MOL0     H61094   2.461   0.201   7.978  0.9264  0.1398 -0.0268
  453MOL0     H61095   2.367   0.054   8.004 -0.1151 -0.6836  0.0377
  453MOL0     H61096   2.526   0.143   7.762  1.0329 -0.3200  2.2635
  453MOL0     H61097   2.430  -0.008   7.764 -2.3514 -0.4277  0.6231
  453MOL0     H61098   2.316   0.276   7.794 -1.0151 -1.0411  0.6659
  453MOL0     H61099   2.309   0.191   7.650  0.8898  2.6606  0.4153
  453MOL0     H61100   2.150   0.026   7.781 -0.4877 -0.4824  1.2206
  453MOL0     H61101   2.159   0.127   7.919  0.0979 -0.3363  0.0877
  453MOL0     H61102   2.089   0.335   7.766 -0.6222  0.2677  0.1979
  453MOL0     H61103   1.981   0.215   7.832 -1.1510  0.6046  0.4668
  453MOL0     H61104   2.027   0.270   7.547  0.7792 -1.6980 -1.4913
  453MOL0     H61105   2.057   0.109   7.579  3.1244  1.0011  0.6548
  453MOL0     H61106   1.770   0.353   7.554  0.2164  0.2883  1.2254
  453MOL0     H61107   1.528   0.321   7.508  0.5937  0.2163 -0.4754
  453MOL0     H61108   1.483   0.160   7.445 -0.0734  1.0501 -1.4125
  453MOL0     H61109   1.377   0.106   7.653 -0.4481  0.0771 -2.6052
  453MOL0     H61110   1.464   0.231   7.746 -1.1033  1.8741  0.4488
  453MOL0     H61111   1.341   0.400   7.612  0.1453 -0.2730 -1.3539
  453MOL0     H61112   1.244   0.315   7.730 -0.9686  0.9547  0.0666
  453MOL0     H61113   1.153   0.170   7.555 -1.0828  1.2328  1.5908
  453MOL0     H61114   1.239   0.255   7.434 -2.6918 -0.4819 -1.4499
  453MOL0     H61115   1.052   0.153   7.341 -1.7006 -1.0692  2.3534
  453MOL0     H61116   0.873   0.138   7.169  0.1602 -1.3815  0.8147
  453MOL0     H61117   0.688   0.082   6.864  1.0511  1.4642  1.0739
  453MOL0     H61118   0.563   0.107   6.651  1.3309  2.0681 -1.0207
  453MOL0     H61119   0.119   0.190   6.701  0.5700 -0.0562 -0.3311
  453MOL0     H61120   0.180   0.358   6.688  3.8273  2.0073 -2.5596
  453MOL0     H61121   0.101   0.163   6.467 -1.2634  0.4293 -0.5259
  453MOL0     H61122   0.023   0.322   6.503 -1.3374 -2.1686 -1.9961
  453MOL0     H61123   0.291   0.279   6.388 -1.6057 -0.8409 -2.0747
  453MOL0     H61124   0.151   0.330   6.293 -1.7299  0.0567  1.2923
  453MOL0     H61125   0.194   0.521   6.524  1.9554  3.8212 -1.4201
  453MOL0     H61126   0.108   0.520   6.379 -0.4081  2.1930  2.6154
  453MOL0     H61127   0.406   0.547   6.434 -0.1394  0.0171  0.9458
  453MOL0     H61128   0.282   0.667   6.398 -1.4716 -1.3355  2.0934
  453MOL0     H61129   0.356   0.458   6.191 -0.4785  0.5317  0.1018
  453MOL0     H61130   0.268   0.606   6.160  1.2524  2.6328 -1.0845
  453MOL0     H61131   0.569   0.593   6.216 -0.3187  0.1285  0.7526
  453MOL0     H61132   0.473   0.744   6.222 -0.3465  0.8094 -0.7575
  453MOL0     H61133   0.397   0.681   5.982  0.0690 -0.5144 -2.7611
  453MOL0     H61134   0.566   0.725   6.003  0.8313 -0.8400 -0.0614
  453MOL0     H61135   0.225   0.245   6.897  0.5985 -0.2648  0.6095
  453MOL0     H61136   0.376   0.268   7.088  2.3194 -1.8323  2.8877
  453MOL0     H61137   0.696   0.500   7.315 -1.4845 -1.4663 -2.2191
  453MOL0     H61138   0.881   0.515   7.497  2.5093 -0.6460  1.8450
  453MOL0     H61139   2.967   0.041   7.997  3.4113  0.8106 -1.6280
  453MOL0     H61140   3.188   0.156   7.994  0.8923  2.0514 -1.8968
  453MOL0     H61141   3.352   0.606   8.364 -2.9849  4.0563 -1.7356
  453MOL0     H61142   3.535   0.741   8.393 -0.6088  1.7673 -0.3808
  453MOL0     H61143   3.788   0.777   8.409  0.9441 -0.5969 -1.7448
  453MOL0     H61144   3.698   0.929   8.360 -0.7688  1.2521 -3.6445
  453MOL0     H61145   3.945   0.949   8.432 -1.0170 -2.1841  1.0528
  453MOL0     H61146   3.887   1.023   8.277  0.5594  0.1368  0.6890
  453MOL0     H61147   3.974   0.843   8.141  0.9732 -0.6699  0.2548
  453MOL0     H61148   4.003   0.748   8.288  0.7435  0.2293  0.0189
  453MOL0     H61149   4.147   0.999   8.183  3.0003 -0.3304 -0.7724
  453MOL0     H61150   4.157   0.924   8.351 -1.6569 -3.3239  0.6321
  453MOL0     H61151   4.346   0.653   8.060  0.8890 -0.1215  0.0070
  453MOL0     H61152   3.663   0.683   7.999 -0.3792  0.6238  0.5975
  453MOL0     H61153   3.573   0.427   7.901  1.5713  2.8949 -2.3790
  453MOL0     H61154   3.401   0.447   7.892  0.8854 -1.4642  1.8868
  453MOL0     H61155   3.496   0.587   7.853  0.1336 -1.0343 -2.1723
  454MOL0     O61156   9.861   0.422   6.563 -0.0467 -0.3139 -0.2832
  454MOL0     C61157   9.837   0.312   6.616  0.3525 -0.2783  0.1320
  454MOL0     O61158   9.927   0.213   6.630 -0.0466 -0.2184  0.5520
  454MOL0     C61159  10.066   0.237   6.613 -0.2826 -0.2093 -0.6119
  454MOL0     C61160  10.144   0.225   6.729 -1.4731 -0.3438  0.1475
  454MOL0     C61161  10.285   0.254   6.726  0.4307  0.6522 -0.3861
  454MOL0     C61162  10.358   0.283   6.607  0.3057 -0.7295  0.7036
  454MOL0     O61163  10.493   0.307   6.612 -0.1182  0.7119 -0.7820
  454MOL0     C61164  10.580   0.315   6.493 -0.1323  0.2613  0.3078
  454MOL0     C61165  10.723   0.354   6.539 -0.1613  0.5740  0.0930
  454MOL0     C61166  10.792   0.236   6.606 -0.0492  0.3226  0.1690
  454MOL0     C61167  10.944   0.265   6.633  0.7677  0.7147  0.1772
  454MOL0     C61168  11.019   0.137   6.671  0.1531  0.3056  0.2395
  454MOL0     C61169  11.018   0.112   6.819  0.0035  0.5524  0.4066
  454MOL0     C61170  11.076  -0.037   6.842  0.0292  0.1559  0.1680
  454MOL0     C61171  11.110  -0.077   6.982  0.6270  0.0131 -0.3794
  454MOL0     N61172  11.206   0.006   7.051 -0.6312  0.0392  0.8866
  454MOL0     C61173  11.188   0.081   7.160 -1.3068  0.5336 -0.1212
  454MOL0     C61174  11.291   0.164   7.167 -0.5468  0.7456  1.1211
  454MOL0     C61175  11.320   0.276   7.263  0.4567  0.6597  0.1488
  454MOL0     C61176  11.196   0.359   7.291  0.0285  0.1499  0.1599
  454MOL0     C61177  11.209   0.461   7.409 -0.2397  0.4112 -0.1979
  454MOL0     C61178  11.087   0.550   7.428 -0.2409  0.3175 -0.6122
  454MOL0     O61179  10.978   0.461   7.462 -1.0546  0.0838  0.4409
  454MOL0     C61180  10.854   0.506   7.461  0.0158 -0.5859  0.6554
  454MOL0     C61181  10.757   0.420   7.501 -0.8046  0.0977  0.2129
  454MOL0     C61182  10.618   0.439   7.505 -0.2461 -1.1279 -0.1439
  454MOL0     C61183  10.576   0.563   7.453  0.6697  0.1570  0.3675
  454MOL0     C61184  10.433   0.610   7.447 -0.2591  0.2162 -0.7348
  454MOL0     O61185  10.349   0.546   7.536  0.5561  0.2881  1.1917
  454MOL0     C61186  10.209   0.559   7.536  0.0447  0.5865 -0.7670
  454MOL0     C61187  10.142   0.465   7.614  0.2832  0.7037  0.8167
  454MOL0     C61188  10.006   0.469   7.623 -0.4355  0.2653 -0.9725
  454MOL0     C61189   9.928   0.562   7.558  0.1002  0.6100  0.6227
  454MOL0     O61190   9.794   0.546   7.582 -0.8918  0.1323 -0.0491
  454MOL0     C61191   9.701   0.620   7.502 -0.0495  0.3094  0.4392
  454MOL0     C61192   9.549   0.592   7.527  0.8564 -0.1771 -0.5122
  454MOL0     C61193   9.505   0.580   7.677 -0.3747 -0.0998 -0.6061
  454MOL0     C61194   9.342   0.572   7.684 -0.8100 -0.4940  0.1075
  454MOL0     C61195   9.288   0.588   7.822 -0.3811  0.1510  0.2570
  454MOL0     C61196   9.303   0.452   7.900  0.0355 -1.0604 -0.0971
  454MOL0     C61197   9.276   0.468   8.053  1.2061 -0.8880  0.6598
  454MOL0     C61198   9.254   0.340   8.116 -0.3201 -0.1505  0.0315
  454MOL0    Cl61199   9.153   0.365   8.264 -0.4497  0.1239  0.0978
  454MOL0     C61200   9.992   0.656   7.478 -0.6558 -1.0573  0.2196
  454MOL0     C61201  10.131   0.658   7.473 -0.0095  0.8631  0.6304
  454MOL0     O61202  10.403   0.691   7.364 -0.3416  0.4724 -1.0922
  454MOL0     C61203  10.667   0.656   7.401 -0.4380 -0.4340 -0.2569
  454MOL0     C61204  10.808   0.630   7.409  0.6445  0.1700  0.1766
  454MOL0     N61205  11.387   0.116   7.079 -0.1884  0.1262  0.0808
  454MOL0     N61206  11.340   0.018   7.009  0.3377  0.5592  0.2938
  454MOL0     C61207  10.276   0.289   6.495 -0.1024 -0.1218 -0.4126
  454MOL0     C61208  10.139   0.262   6.498  0.0684 -0.2367 -0.3924
  454MOL0     C61209   9.698   0.292   6.677  0.3945 -0.8647 -0.1958
  454MOL0     C61210   9.658   0.167   6.734 -1.0979 -0.0963 -0.0020
  454MOL0     C61211   9.539   0.141   6.796 -1.1857  0.5148 -0.4045
  454MOL0     C61212   9.438   0.236   6.798 -0.4453 -0.1501 -0.1167
  454MOL0     O61213   9.305   0.220   6.834 -0.2322 -0.1148 -0.0989
  454MOL0     C61214   9.274   0.126   6.935  0.3463 -0.0337  0.2396
  454MOL0     C61215   9.135   0.141   6.985  0.2705  0.1858 -0.3939
  454MOL0     C61216   9.017   0.123   6.875  0.0366  0.2550 -0.7330
  454MOL0     C61217   8.871   0.117   6.940  0.6563 -0.4092  0.9519
  454MOL0     C61218   8.832  -0.014   6.990  0.2961  0.5534  0.3413
  454MOL0     C61219   8.806  -0.130   7.025 -0.6971 -0.6278  0.3613
  454MOL0     C61220   9.471   0.360   6.737 -0.9569 -0.2547 -0.0649
  454MOL0     C61221   9.605   0.394   6.677  1.4610  0.6766 -0.6388
  454MOL0     C61222   9.616   0.534   6.612 -0.5451  0.1744 -0.4465
  454MOL0     H61223  10.089   0.205   6.820 -0.1899  1.6033  1.4018
  454MOL0     H61224  10.349   0.230   6.811  1.5578 -0.1978 -1.4466
  454MOL0     H61225  10.577   0.215   6.448 -0.7610  1.0907 -1.5869
  454MOL0     H61226  10.546   0.384   6.416  0.7381 -3.0283 -3.3896
  454MOL0     H61227  10.714   0.440   6.607  1.9470  3.3047 -2.7874
  454MOL0     H61228  10.786   0.387   6.456  0.6701 -0.4994  0.2805
  454MOL0     H61229  10.792   0.155   6.533 -1.7271 -0.8062  1.3389
  454MOL0     H61230  10.744   0.204   6.699  1.0562 -1.5502  0.1300
  454MOL0     H61231  10.995   0.306   6.545  1.6385  0.3778  0.5104
  454MOL0     H61232  10.954   0.330   6.721 -0.1261  0.5982  0.3659
  454MOL0     H61233  10.989   0.050   6.613 -1.7866  1.4658 -0.5735
  454MOL0     H61234  11.123   0.136   6.637  0.0952 -0.6440  0.0653
  454MOL0     H61235  11.080   0.184   6.871 -0.6672  0.7375  0.9572
  454MOL0     H61236  10.917   0.108   6.862  0.7096 -0.9968  2.0338
  454MOL0     H61237  11.162  -0.065   6.779 -1.0138 -1.9018 -0.4401
  454MOL0     H61238  10.996  -0.101   6.805  1.2543 -1.3065 -0.0643
  454MOL0     H61239  11.018  -0.085   7.040  1.0561  0.4042  0.3623
  454MOL0     H61240  11.158  -0.175   6.988  0.7737  0.1062 -0.0609
  454MOL0     H61241  11.104   0.068   7.227 -0.3767  1.2337  1.2202
  454MOL0     H61242  11.362   0.226   7.351 -2.4898 -0.4860  1.0131
  454MOL0     H61243  11.396   0.337   7.214 -0.4703  1.4433 -0.3445
  454MOL0     H61244  11.170   0.399   7.192  0.3224 -0.7960 -0.3075
  454MOL0     H61245  11.113   0.297   7.323  0.5792 -0.7598 -0.1428
  454MOL0     H61246  11.294   0.529   7.393 -1.3924  1.2938 -3.3296
  454MOL0     H61247  11.219   0.399   7.498  1.4150  1.3428  0.3162
  454MOL0     H61248  11.077   0.612   7.338  1.0987  0.6901 -0.5357
  454MOL0     H61249  11.100   0.616   7.514 -1.2580 -0.9297  0.5414
  454MOL0     H61250  10.798   0.326   7.538 -1.0283 -0.6927 -1.4436
  454MOL0     H61251  10.560   0.365   7.560 -0.0359 -0.8838  0.4087
  454MOL0     H61252  10.193   0.387   7.669  0.3793  0.2343  0.0767
  454MOL0     H61253   9.954   0.395   7.682 -0.0153  0.6926 -0.0393
  454MOL0     H61254   9.722   0.727   7.516 -0.8864  0.2224  2.8089
  454MOL0     H61255   9.721   0.599   7.397  0.2955 -3.2946  1.1211
  454MOL0     H61256   9.490   0.661   7.466  2.0559  1.3639  0.0051
  454MOL0     H61257   9.523   0.491   7.496 -0.4182 -0.0077 -0.0370
  454MOL0     H61258   9.549   0.490   7.722  1.0917 -0.1586 -2.0551
  454MOL0     H61259   9.539   0.660   7.743  0.7798  0.9589 -2.4061
  454MOL0     H61260   9.309   0.473   7.651  1.1312 -0.7833 -1.1104
  454MOL0     H61261   9.297   0.653   7.627 -0.8703 -0.1378  0.6567
  454MOL0     H61262   9.182   0.615   7.816 -0.7446 -0.9893  1.2182
  454MOL0     H61263   9.331   0.670   7.881 -0.6023  0.5251 -0.0946
  454MOL0     H61264   9.241   0.371   7.862  0.1463 -0.8369 -0.7699
  454MOL0     H61265   9.406   0.417   7.887 -0.1191 -1.2117 -0.9304
  454MOL0     H61266   9.185   0.525   8.071  1.6480 -0.9046  3.4323
  454MOL0     H61267   9.353   0.523   8.107  1.3699  1.4274 -1.7329
  454MOL0     H61268   9.196   0.266   8.060 -2.3573  0.7197  0.8791
  454MOL0     H61269   9.350   0.291   8.134 -0.4184 -0.7251 -0.9418
  454MOL0     H61270   9.935   0.739   7.438 -1.9811 -1.4981  1.1425
  454MOL0     H61271  10.177   0.737   7.415  1.1935  1.1655  1.9331
  454MOL0     H61272  10.641   0.748   7.350  0.5974 -0.4924 -0.9076
  454MOL0     H61273  10.885   0.705   7.392  1.5065 -0.9440 -1.1737
  454MOL0     H61274  10.323   0.306   6.399  1.2556 -1.0243  0.0554
  454MOL0     H61275  10.079   0.251   6.408  1.7801 -2.4032 -1.3458
  454MOL0     H61276   9.730   0.086   6.738 -1.1585 -0.3045 -1.8750
  454MOL0     H61277   9.520   0.044   6.840  1.8103  0.5671  1.3138
  454MOL0     H61278   9.343   0.120   7.019  1.5483 -0.5860 -0.7610
  454MOL0     H61279   9.292   0.027   6.891  2.2891  1.1643 -1.8168
  454MOL0     H61280   9.134   0.242   7.025  0.6225 -0.3895  1.1136
  454MOL0     H61281   9.117   0.071   7.067  1.4752 -1.0799 -1.1533
  454MOL0     H61282   9.038   0.028   6.825 -0.5294 -0.7508  0.8611
  454MOL0     H61283   9.029   0.206   6.805 -0.5943 -2.2809 -4.1313
  454MOL0     H61284   8.862   0.191   7.021 -0.0016  0.8540 -0.2354
  454MOL0     H61285   8.803   0.152   6.862  2.6496  1.4200 -0.0554
  454MOL0     H61286   8.778  -0.229   7.054 -0.9787 -0.7781 -0.4002
  454MOL0     H61287   9.398   0.440   6.740 -0.1966  0.4196  0.5567
  454MOL0     H61288   9.679   0.601   6.671 -1.1124  1.2302 -1.0067
  454MOL0     H61289   9.665   0.526   6.515  1.1496  1.7229  0.2183
  454MOL0     H61290   9.521   0.583   6.586 -0.2393  1.5960  0.9099
  455MOL0     O61291   5.641   8.930   2.767 -0.1672  1.3096 -0.0219
  455MOL0     C61292   5.649   9.003   2.866  0.1557  0.7483  0.3867
  455MOL0     O61293   5.767   9.050   2.919  0.1903  0.5607  0.1581
  455MOL0     C61294   5.891   9.006   2.867 -0.1362 -0.5229 -0.7251
  455MOL0     C61295   5.982   9.073   2.782 -0.2957  0.2102  0.6067
  455MOL0     C61296   6.104   9.027   2.758 -1.0541 -1.8105 -0.3071
  455MOL0     C61297   6.159   8.922   2.825 -1.5147 -0.7840  0.3808
  455MOL0     O61298   6.287   8.882   2.779 -0.4772 -0.7935 -0.1119
  455MOL0     C61299   6.394   8.870   2.878 -0.1833 -0.3857 -0.3682
  455MOL0     C61300   6.523   8.867   2.795 -0.1012  0.2957 -0.2095
  455MOL0     C61301   6.642   8.859   2.884  0.4350  0.1625 -0.2629
  455MOL0     C61302   6.769   8.847   2.809 -0.6374 -0.2111  0.7076
  455MOL0     C61303   6.883   8.822   2.908 -0.7637  0.3344 -0.3701
  455MOL0     C61304   7.032   8.812   2.859 -0.2177  0.6231  0.2906
  455MOL0     C61305   7.053   8.677   2.788 -0.4023  0.1408  0.1841
  455MOL0     C61306   7.198   8.634   2.773  0.9592 -0.2579 -0.2411
  455MOL0     N61307   7.210   8.497   2.718  0.6468 -0.6214  0.0224
  455MOL0     C61308   7.224   8.376   2.785  0.1029  0.1081 -0.3169
  455MOL0     C61309   7.313   8.307   2.710  0.0019  0.3622  0.4359
  455MOL0     C61310   7.374   8.172   2.732 -0.1394 -0.5907  0.0029
  455MOL0     C61311   7.477   8.175   2.850  0.1423  0.4093 -0.3175
  455MOL0     C61312   7.596   8.272   2.838  0.8114  0.1157  0.3961
  455MOL0     C61313   7.694   8.262   2.957  0.1345 -0.5034  0.4428
  455MOL0     O61314   7.789   8.161   2.940 -0.1313  0.2641 -0.3519
  455MOL0     C61315   7.903   8.181   2.865  0.5506  0.3065 -0.2611
  455MOL0     C61316   7.982   8.069   2.865 -0.3123 -0.0430 -0.2857
  455MOL0     C61317   8.102   8.064   2.791  0.6372 -1.0418  0.0551
  455MOL0     C61318   8.150   8.177   2.718  0.6120  0.2073 -0.5161
  455MOL0     C61319   8.273   8.171   2.636  0.2328  0.1039  0.2015
  455MOL0     O61320   8.360   8.069   2.661 -0.1612  0.3129  0.0807
  455MOL0     C61321   8.483   8.069   2.604 -0.0001 -0.5168  0.6116
  455MOL0     C61322   8.549   7.946   2.630  0.5115 -0.3895 -0.0167
  455MOL0     C61323   8.676   7.923   2.580  0.3159  0.0475  0.9203
  455MOL0     C61324   8.740   8.023   2.501  0.6378 -0.1543 -0.1371
  455MOL0     O61325   8.864   8.009   2.452 -0.5929  0.0603  0.9591
  455MOL0     C61326   8.958   7.974   2.555 -0.7849  0.1451  0.1704
  455MOL0     C61327   8.988   8.096   2.644  0.0678 -0.0997  0.5705
  455MOL0     C61328   9.089   8.068   2.768  1.0238  0.2263  0.5360
  455MOL0     C61329   9.112   8.199   2.853 -0.0250 -0.3357  0.7810
  455MOL0     C61330   9.165   8.174   2.994  0.0303  0.7587  0.4789
  455MOL0     C61331   9.076   8.098   3.087  0.2104 -0.7603  0.8981
  455MOL0     C61332   9.110   8.126   3.242  0.4069 -0.5136  0.7238
  455MOL0     C61333   9.033   8.044   3.347  0.2330 -0.7662  0.7159
  455MOL0    Cl61334   8.855   8.055   3.311 -0.2700 -0.0696  0.0295
  455MOL0     C61335   8.688   8.152   2.488  0.0489  0.7571 -0.2047
  455MOL0     C61336   8.556   8.173   2.535 -0.7321  0.2565 -0.8709
  455MOL0     O61337   8.296   8.275   2.569  0.2276  0.2552  0.6158
  455MOL0     C61338   8.069   8.296   2.724 -0.3616  0.7720  0.4208
  455MOL0     C61339   7.953   8.294   2.798 -0.3244  0.1241  0.8342
  455MOL0     N61340   7.340   8.379   2.596  0.2524  0.3023 -0.3015
  455MOL0     N61341   7.273   8.491   2.595 -0.1442 -0.0402 -0.6874
  455MOL0     C61342   6.075   8.848   2.905  0.0870 -0.7004 -0.2352
  455MOL0     C61343   5.945   8.895   2.927  0.1059 -0.1186  0.1486
  455MOL0     C61344   5.522   9.049   2.920 -0.4468  0.0048  0.1592
  455MOL0     C61345   5.498   9.179   2.952 -0.4910  0.2795  0.0288
  455MOL0     C61346   5.384   9.223   3.011  0.7588  0.2259  0.0216
  455MOL0     C61347   5.279   9.132   3.040 -1.0045  0.1467 -0.0444
  455MOL0     O61348   5.159   9.157   3.102 -0.4697  0.1652  0.2092
  455MOL0     C61349   5.117   9.293   3.125  0.3167  0.0983 -0.3225
  455MOL0     C61350   4.964   9.322   3.133 -1.1615 -0.7754  0.7391
  455MOL0     C61351   4.905   9.230   3.240 -0.3237  0.6406  0.6618
  455MOL0     C61352   4.877   9.089   3.186 -0.2294  1.1445  0.5115
  455MOL0     C61353   4.829   9.008   3.295 -0.6387  0.0326  0.0473
  455MOL0     C61354   4.781   8.939   3.380  0.5085 -0.3359  0.0643
  455MOL0     C61355   5.304   8.995   3.017 -0.0831 -0.5474  0.0705
  455MOL0     C61356   5.422   8.954   2.963 -0.2949 -0.0001 -0.0313
  455MOL0     C61357   5.436   8.804   2.955 -0.0148 -0.0050 -0.4883
  455MOL0     H61358   5.933   9.159   2.737  0.5962 -0.4537 -1.7706
  455MOL0     H61359   6.166   9.078   2.685 -1.8449 -0.4098 -0.0220
  455MOL0     H61360   6.399   8.948   2.954 -1.4600 -0.9973  0.3740
  455MOL0     H61361   6.383   8.778   2.936 -0.5727 -0.2662 -0.2488
  455MOL0     H61362   6.528   8.953   2.727 -2.6395  0.0591 -0.7652
  455MOL0     H61363   6.521   8.780   2.729  2.2541  1.8567 -2.5715
  455MOL0     H61364   6.641   8.777   2.957  0.2496 -0.4122 -0.8990
  455MOL0     H61365   6.656   8.945   2.950 -1.1216 -1.1515  1.9166
  455MOL0     H61366   6.777   8.767   2.735  2.9069  0.8897 -0.3080
  455MOL0     H61367   6.779   8.938   2.749  2.2358 -1.8183 -1.5403
  455MOL0     H61368   6.878   8.901   2.983 -1.4229 -2.5269  2.8278
  455MOL0     H61369   6.861   8.726   2.954 -0.6382  0.0062 -0.9840
  455MOL0     H61370   7.063   8.899   2.800 -1.1356  1.5453  1.1151
  455MOL0     H61371   7.101   8.805   2.944  1.5716  1.0710 -1.0629
  455MOL0     H61372   7.011   8.676   2.687 -2.1294  0.4955  0.8635
  455MOL0     H61373   6.991   8.612   2.850 -2.2057  0.7685 -0.8881
  455MOL0     H61374   7.230   8.713   2.704  1.3138 -2.0849 -2.2703
  455MOL0     H61375   7.259   8.649   2.862  1.6535 -3.0917 -0.1648
  455MOL0     H61376   7.195   8.347   2.886 -0.0814 -0.8654 -0.6369
  455MOL0     H61377   7.295   8.099   2.753 -0.1971 -0.1484  1.4292
  455MOL0     H61378   7.436   8.140   2.648  0.9226 -0.2341  0.6334
  455MOL0     H61379   7.422   8.209   2.938  2.0956  0.0905  1.0815
  455MOL0     H61380   7.514   8.074   2.868 -1.3590 -0.3238 -1.1142
  455MOL0     H61381   7.563   8.377   2.834  2.0746  0.5163 -0.3434
  455MOL0     H61382   7.654   8.243   2.750 -4.8356 -1.3117 -3.3827
  455MOL0     H61383   7.637   8.240   3.048  1.0043 -1.0083  0.8816
  455MOL0     H61384   7.746   8.356   2.976  1.3672 -0.8842 -0.8978
  455MOL0     H61385   7.937   8.000   2.935 -0.9097  0.9138  0.3002
  455MOL0     H61386   8.155   7.970   2.796 -0.7542 -1.7946  3.0703
  455MOL0     H61387   8.494   7.870   2.685 -0.3616 -0.8793 -1.4821
  455MOL0     H61388   8.718   7.825   2.602  4.9235  1.6941  0.4737
  455MOL0     H61389   8.929   7.882   2.606 -2.2542  0.0054 -0.8378
  455MOL0     H61390   9.057   7.953   2.514 -0.9948 -2.1027  0.6947
  455MOL0     H61391   9.032   8.174   2.581 -0.2347  1.3737  2.0997
  455MOL0     H61392   8.892   8.126   2.687 -0.1090  0.7552 -0.3792
  455MOL0     H61393   9.050   7.988   2.832  1.3128 -0.6207 -0.3291
  455MOL0     H61394   9.177   8.019   2.726  1.1601  0.9529 -0.0646
  455MOL0     H61395   9.023   8.259   2.873  0.3491 -0.0298  1.5553
  455MOL0     H61396   9.183   8.258   2.794  0.7695 -1.2574  0.7942
  455MOL0     H61397   9.196   8.268   3.042 -2.6698  1.9001  0.1854
  455MOL0     H61398   9.257   8.117   2.979 -0.3246  0.5531 -1.0343
  455MOL0     H61399   8.974   8.127   3.061  1.6365  1.1821 -3.2927
  455MOL0     H61400   9.089   7.993   3.058 -1.7549 -0.8965  0.3826
  455MOL0     H61401   9.105   8.234   3.260  0.8661 -0.2622 -0.5177
  455MOL0     H61402   9.214   8.093   3.255  0.3445 -1.0405 -0.0410
  455MOL0     H61403   9.066   7.940   3.342  3.9110  0.2794  0.3438
  455MOL0     H61404   9.061   8.070   3.450  2.5694  1.8088 -0.4295
  455MOL0     H61405   8.760   8.222   2.446  0.3328  0.8376  0.3920
  455MOL0     H61406   8.525   8.276   2.524 -0.8668  0.7324  2.7348
  455MOL0     H61407   8.100   8.390   2.681 -0.4305  1.4055  1.6982
  455MOL0     H61408   7.888   8.379   2.815 -2.2412 -1.2804  0.8870
  455MOL0     H61409   6.113   8.754   2.944  1.9645 -1.4786 -3.6182
  455MOL0     H61410   5.887   8.825   2.986  0.9640 -0.5976  0.4481
  455MOL0     H61411   5.573   9.253   2.926 -0.6913 -0.1996 -2.0907
  455MOL0     H61412   5.383   9.329   3.035  1.3387  0.3149 -0.3309
  455MOL0     H61413   5.162   9.362   3.053  2.5127  0.2829  1.1223
  455MOL0     H61414   5.160   9.317   3.223 -2.0117 -0.4129  0.8830
  455MOL0     H61415   4.905   9.328   3.041 -1.6274  0.4557  1.0991
  455MOL0     H61416   4.956   9.423   3.174  0.6772  0.0120 -0.6569
  455MOL0     H61417   4.812   9.272   3.279 -0.8085  1.2184 -1.0243
  455MOL0     H61418   4.976   9.239   3.322 -2.1555  1.2195  2.2607
  455MOL0     H61419   4.801   9.086   3.107  1.4916 -1.3630 -1.2202
  455MOL0     H61420   4.963   9.036   3.142 -1.2901  0.2066 -0.5108
  455MOL0     H61421   4.721   8.873   3.439  0.6987 -2.1365 -1.6278
  455MOL0     H61422   5.226   8.930   3.055  1.4191 -1.7783  1.1417
  455MOL0     H61423   5.422   8.769   2.852  1.4956 -1.8492 -0.1184
  455MOL0     H61424   5.535   8.772   2.987 -0.1580  0.2437  0.2087
  455MOL0     H61425   5.361   8.759   3.021  0.1142 -0.1496 -0.4421
  456MOL0     O61426   3.208   5.568   4.501  0.2221  0.0367 -0.2386
  456MOL0     C61427   3.167   5.548   4.617 -0.4625  0.5683  0.4011
  456MOL0     O61428   3.229   5.475   4.715 -0.9582 -0.2180 -0.6888
  456MOL0     C61429   3.352   5.424   4.680  0.1820 -0.5778 -0.1972
  456MOL0     C61430   3.369   5.287   4.722 -0.1803  0.0629 -0.1650
  456MOL0     C61431   3.484   5.222   4.676 -0.6382  0.2701  0.4741
  456MOL0     C61432   3.591   5.282   4.602 -0.5459  0.1988 -0.9081
  456MOL0     O61433   3.710   5.223   4.560 -0.8317 -0.6075  0.3628
  456MOL0     C61434   3.776   5.118   4.634 -0.1869 -0.2475  0.0554
  456MOL0     C61435   3.741   4.979   4.569  0.1243 -0.1993  0.6161
  456MOL0     C61436   3.810   4.852   4.627 -0.7733 -1.1710 -0.3823
  456MOL0     C61437   3.958   4.868   4.622  0.0266 -0.6437  0.4698
  456MOL0     C61438   4.027   4.742   4.664  0.0167 -0.8271  0.8436
  456MOL0     C61439   4.178   4.754   4.676 -0.8304  1.0828  0.1755
  456MOL0     C61440   4.251   4.629   4.706 -0.3797  0.0455 -0.2755
  456MOL0     C61441   4.233   4.603   4.863  0.0554 -0.1180  0.6562
  456MOL0     N61442   4.293   4.479   4.897 -0.6518 -0.2409 -0.5237
  456MOL0     C61443   4.428   4.459   4.922 -0.3005 -0.1034  0.4545
  456MOL0     C61444   4.456   4.326   4.922  0.2945  1.2546 -0.2738
  456MOL0     C61445   4.589   4.269   4.937 -0.5856  0.3422 -0.2616
  456MOL0     C61446   4.686   4.292   4.812  0.1257 -0.8356  0.2685
  456MOL0     C61447   4.836   4.273   4.838 -0.1016 -0.2123 -1.0755
  456MOL0     C61448   4.864   4.136   4.880 -0.4201  0.0895 -0.7925
  456MOL0     O61449   4.984   4.118   4.958  0.0546  0.0758 -0.2039
  456MOL0     C61450   5.107   4.123   4.894 -0.1915 -0.4558  0.2250
  456MOL0     C61451   5.216   4.163   4.970  0.3390 -0.5998 -0.2871
  456MOL0     C61452   5.346   4.165   4.912 -0.5492  0.1238 -0.3017
  456MOL0     C61453   5.369   4.129   4.782 -0.2877  0.5256 -0.2011
  456MOL0     C61454   5.506   4.124   4.735 -0.5374  1.1775  0.0989
  456MOL0     O61455   5.603   4.178   4.810 -0.8801  0.5193 -0.4123
  456MOL0     C61456   5.734   4.176   4.767  1.3253 -0.1550  0.6050
  456MOL0     C61457   5.800   4.060   4.742 -0.4068 -0.3835 -0.2189
  456MOL0     C61458   5.924   4.062   4.684 -0.2683 -0.0047 -0.0903
  456MOL0     C61459   5.990   4.180   4.642  0.5674 -0.3354  0.9944
  456MOL0     O61460   6.112   4.162   4.580  0.5881  0.7268 -0.0661
  456MOL0     C61461   6.193   4.279   4.549 -0.5383  0.5344 -0.2593
  456MOL0     C61462   6.330   4.243   4.506 -0.3959  1.0796  0.5571
  456MOL0     C61463   6.414   4.162   4.609  0.5332 -0.8827  0.3374
  456MOL0     C61464   6.503   4.262   4.697  0.6482  0.6566 -0.7497
  456MOL0     C61465   6.610   4.331   4.623  0.2783  0.2357  0.8244
  456MOL0     C61466   6.708   4.406   4.711  0.0777  0.5178  0.8399
  456MOL0     C61467   6.814   4.463   4.604 -1.2138 -1.1115 -0.4315
  456MOL0     C61468   6.943   4.523   4.668 -0.4474 -0.1159  0.4274
  456MOL0    Cl61469   7.046   4.599   4.542 -0.4539 -0.1123 -0.2602
  456MOL0     C61470   5.918   4.297   4.669  0.2236  0.2164  0.7553
  456MOL0     C61471   5.787   4.291   4.717  0.1952  0.1924  0.1535
  456MOL0     O61472   5.523   4.066   4.628 -0.7234 -0.2374 -0.0609
  456MOL0     C61473   5.261   4.084   4.709 -0.4584  0.1257  0.3454
  456MOL0     C61474   5.135   4.085   4.769  0.5066  0.0353  0.5508
  456MOL0     N61475   4.335   4.268   4.905 -0.2095  0.5845  0.1374
  456MOL0     N61476   4.241   4.355   4.893  0.6758 -0.1840 -0.5415
  456MOL0     C61477   3.573   5.421   4.577 -0.5828  0.1774 -0.3298
  456MOL0     C61478   3.458   5.494   4.615 -0.1042  0.6315  0.6111
  456MOL0     C61479   3.039   5.615   4.643  0.1784  0.1874  0.0219
  456MOL0     C61480   2.956   5.660   4.533 -0.9962  0.2760  0.6893
  456MOL0     C61481   2.830   5.708   4.547 -0.4800  0.3445  0.1329
  456MOL0     C61482   2.773   5.713   4.671  0.2793  0.3476 -0.9215
  456MOL0     O61483   2.640   5.750   4.681 -0.1241  0.5212 -0.0884
  456MOL0     C61484   2.560   5.729   4.799 -0.2918  0.5265  0.9984
  456MOL0     C61485   2.549   5.859   4.882  1.2452  1.0950 -0.6496
  456MOL0     C61486   2.413   5.915   4.927 -0.6517 -0.1145  0.2480
  456MOL0     C61487   2.321   5.937   4.809 -0.5372  0.6974  0.5715
  456MOL0     C61488   2.199   5.981   4.862 -0.8312  0.6799 -0.4889
  456MOL0     C61489   2.091   6.005   4.907  0.4217 -0.0506  0.6704
  456MOL0     C61490   2.853   5.682   4.788 -0.2307  0.1203  0.0985
  456MOL0     C61491   2.984   5.628   4.778  0.1285 -0.0969  0.1228
  456MOL0     C61492   3.045   5.580   4.903  0.0533 -0.1191 -0.6746
  456MOL0     H61493   3.293   5.227   4.770  1.0778 -2.1315 -0.7911
  456MOL0     H61494   3.489   5.117   4.703 -0.1917  0.2700  0.3888
  456MOL0     H61495   3.883   5.135   4.652 -0.9376  1.1276  4.9497
  456MOL0     H61496   3.744   5.122   4.739 -2.6804  1.3226 -0.6762
  456MOL0     H61497   3.756   4.985   4.461 -0.8459  0.6427  0.5043
  456MOL0     H61498   3.632   4.969   4.578  0.1713  0.0559  1.5836
  456MOL0     H61499   3.771   4.771   4.565  0.8486  0.5338 -3.8617
  456MOL0     H61500   3.781   4.836   4.732  1.0177  0.7541  0.4774
  456MOL0     H61501   3.988   4.883   4.517  0.4491  1.3181  0.8340
  456MOL0     H61502   3.983   4.956   4.681 -1.4844  1.6937 -2.1632
  456MOL0     H61503   3.989   4.705   4.760  0.2399 -1.2631  0.7635
  456MOL0     H61504   4.002   4.666   4.590  0.7617  0.7197 -1.0802
  456MOL0     H61505   4.222   4.800   4.587 -0.1922 -1.5391 -0.9695
  456MOL0     H61506   4.202   4.829   4.751  1.9824 -0.1260  0.6100
  456MOL0     H61507   4.359   4.631   4.685 -0.2610 -1.5973  0.0207
  456MOL0     H61508   4.199   4.555   4.645  1.2377  0.0855 -1.8006
  456MOL0     H61509   4.272   4.691   4.916 -0.0169  0.3425 -0.0510
  456MOL0     H61510   4.131   4.595   4.900  0.7604 -0.5936  2.6933
  456MOL0     H61511   4.503   4.536   4.936  1.9258 -1.8939 -1.1082
  456MOL0     H61512   4.649   4.305   5.021  1.6757  0.8499 -1.9905
  456MOL0     H61513   4.577   4.161   4.952 -2.8738  0.2000 -2.4236
  456MOL0     H61514   4.654   4.234   4.725 -3.7034 -2.8252  2.7116
  456MOL0     H61515   4.679   4.398   4.788 -1.1743 -0.5992  1.6039
  456MOL0     H61516   4.875   4.339   4.916 -0.8091 -1.7098  0.6155
  456MOL0     H61517   4.901   4.289   4.752  2.1987 -1.8981  0.2459
  456MOL0     H61518   4.855   4.071   4.793  2.6464 -0.3253 -0.9058
  456MOL0     H61519   4.780   4.118   4.948  0.7381  2.4886  1.4519
  456MOL0     H61520   5.215   4.189   5.075  1.7245 -2.8070  0.3454
  456MOL0     H61521   5.428   4.198   4.975  0.9508  0.9156 -2.5791
  456MOL0     H61522   5.758   3.971   4.788 -2.1009  0.7653  0.5668
  456MOL0     H61523   5.971   3.967   4.663  0.6502  0.5022 -0.3883
  456MOL0     H61524   6.144   4.327   4.463  0.4889 -0.4617 -1.4313
  456MOL0     H61525   6.213   4.331   4.643 -1.3984 -3.4123  2.3322
  456MOL0     H61526   6.316   4.186   4.414  1.5937  0.0357  0.8344
  456MOL0     H61527   6.393   4.325   4.469  1.3620 -0.6487 -0.4984
  456MOL0     H61528   6.341   4.100   4.660 -1.5020  1.1624  0.0703
  456MOL0     H61529   6.488   4.097   4.562  2.5120  0.7233  1.0748
  456MOL0     H61530   6.551   4.210   4.780  1.0168  2.0951 -0.0339
  456MOL0     H61531   6.436   4.340   4.734  1.3834  2.7680 -3.5163
  456MOL0     H61532   6.582   4.404   4.546  0.4933  1.3639  1.7832
  456MOL0     H61533   6.666   4.257   4.564 -0.2737 -1.0689  1.8915
  456MOL0     H61534   6.658   4.485   4.768 -0.5573  0.1983  0.7409
  456MOL0     H61535   6.754   4.327   4.772 -1.5715 -1.3046 -0.1734
  456MOL0     H61536   6.777   4.557   4.562  4.0255  0.8274 -1.4160
  456MOL0     H61537   6.839   4.396   4.521  0.2478 -1.7452  0.4865
  456MOL0     H61538   6.908   4.604   4.733  0.4071  2.5847 -2.2536
  456MOL0     H61539   7.004   4.454   4.728  2.3572  1.7245 -0.1146
  456MOL0     H61540   5.966   4.379   4.616  2.3790 -0.9215  0.8466
  456MOL0     H61541   5.732   4.382   4.739 -0.6498 -0.1434 -0.4808
  456MOL0     H61542   5.285   4.055   4.608  0.3465  0.6668  0.3706
  456MOL0     H61543   5.048   4.044   4.720  0.3873 -1.0430  1.6115
  456MOL0     H61544   3.654   5.478   4.533 -0.7989 -0.6561 -1.8854
  456MOL0     H61545   3.457   5.599   4.587  0.6692  0.2957 -0.7675
  456MOL0     H61546   2.980   5.650   4.428 -1.8651  2.0277  0.2876
  456MOL0     H61547   2.789   5.742   4.452  2.0012 -0.7595 -1.4672
  456MOL0     H61548   2.599   5.645   4.857  0.9182 -0.4479 -1.0835
  456MOL0     H61549   2.464   5.688   4.767 -0.3155 -1.3154  3.2002
  456MOL0     H61550   2.614   5.936   4.839  1.7051  1.0140 -0.1247
  456MOL0     H61551   2.598   5.836   4.978  0.0811  1.4101  0.0404
  456MOL0     H61552   2.439   6.014   4.966 -0.9331  0.2194 -0.3734
  456MOL0     H61553   2.387   5.847   5.008 -0.7345  0.6994  0.9187
  456MOL0     H61554   2.366   6.001   4.732  0.2450  1.8377  1.9285
  456MOL0     H61555   2.300   5.847   4.751 -0.1620  1.2043 -0.3691
  456MOL0     H61556   1.987   6.028   4.921  0.2408  0.3911 -1.1305
  456MOL0     H61557   2.805   5.694   4.884 -3.5080 -2.6428 -0.9536
  456MOL0     H61558   3.140   5.634   4.913  0.0834 -0.2884 -0.0678
  456MOL0     H61559   2.983   5.608   4.988  1.0697  0.1276 -0.0022
  456MOL0     H61560   3.064   5.473   4.903  1.4072  0.0898  0.7987
  457MOL0     O61561   1.293   3.794   9.722 -1.0130  0.0840  0.5869
  457MOL0     C61562   1.395   3.865   9.727 -0.6027 -0.3880  0.5059
  457MOL0     O61563   1.421   3.964   9.822  0.4921 -0.0526 -0.2994
  457MOL0     C61564   1.327   3.995   9.917 -0.2333  0.5616 -0.4977
  457MOL0     C61565   1.192   3.977   9.913  0.6845 -0.3904 -0.4649
  457MOL0     C61566   1.105   4.001  10.022 -0.8572 -0.1874 -0.1569
  457MOL0     C61567   1.160   4.046  10.141 -0.0722 -0.2230 -0.3547
  457MOL0     O61568   1.092   4.067  10.258  0.8316  0.0957  0.0796
  457MOL0     C61569   0.957   4.042  10.267  0.0732 -0.2264  0.1225
  457MOL0     C61570   0.932   4.080  10.414  0.1008 -0.1110 -0.8031
  457MOL0     C61571   0.782   4.094  10.444  0.1112 -0.2482  0.0805
  457MOL0     C61572   0.758   4.137  10.586 -0.8527 -0.7480  0.6068
  457MOL0     C61573   0.620   4.213  10.599 -0.1648  0.4718 -0.7252
  457MOL0     C61574   0.571   4.234  10.748 -0.0112 -0.6819 -0.2739
  457MOL0     C61575   0.690   4.275  10.840  0.8220 -0.3218 -0.3661
  457MOL0     C61576   0.757   4.412  10.800 -0.2061  0.7836 -0.1512
  457MOL0     N61577   0.854   4.469  10.892 -0.0685 -0.2616 -0.5375
  457MOL0     C61578   0.820   4.555  10.998 -0.0242 -0.1027 -0.0311
  457MOL0     C61579   0.921   4.523  11.084 -0.0729 -0.5145 -0.2089
  457MOL0     C61580   0.954   4.596  11.214  0.1688 -0.0186  0.3345
  457MOL0     C61581   0.991   4.494  11.326 -0.3106 -0.4713 -0.5790
  457MOL0     C61582   1.019   4.544  11.466 -0.0866  0.4963  0.6886
  457MOL0     C61583   1.015   4.441  11.571 -0.1077  0.3747  0.2700
  457MOL0     O61584   1.020   4.491  11.706  0.0319 -0.6357  0.4712
  457MOL0     C61585   1.139   4.536  11.758 -0.3060 -0.2684 -0.8903
  457MOL0     C61586   1.249   4.455  11.769 -0.4394 -0.9584 -0.2758
  457MOL0     C61587   1.385   4.499  11.803  0.6409 -0.0222  0.1214
  457MOL0     C61588   1.405   4.637  11.820 -0.5670 -0.2773  0.9391
  457MOL0     C61589   1.539   4.698  11.861  0.4047 -0.9645 -0.1359
  457MOL0     O61590   1.547   4.842  11.875  0.6239 -0.1022 -0.8074
  457MOL0     C61591   1.670   4.888  11.901 -0.7906  0.4965 -0.0380
  457MOL0     C61592   1.761   4.918  11.796  0.6607  0.1602  0.5137
  457MOL0     C61593   1.893   4.947  11.825  0.5897  0.4690 -0.0413
  457MOL0     C61594   1.934   4.960  11.960  0.0878 -0.0894  0.2607
  457MOL0     O61595   2.064   4.996  11.998  0.1157  0.2215 -0.1670
  457MOL0     C61596   2.144   5.083  11.915  0.2745  0.5241  0.2818
  457MOL0     C61597   2.082   5.227  11.900 -0.1782  0.6525  0.0411
  457MOL0     C61598   2.051   5.289  12.043  0.2581 -0.5085  0.5095
  457MOL0     C61599   2.020   5.436  12.024 -0.0204  0.5608  0.2545
  457MOL0     C61600   2.004   5.532  12.150 -0.6546 -0.4449 -0.8133
  457MOL0     C61601   2.092   5.490  12.268 -0.8978  0.3070 -0.2950
  457MOL0     C61602   2.106   5.586  12.389  0.8108 -0.3036  0.3090
  457MOL0     C61603   2.254   5.616  12.416  0.1780  0.6063 -0.5884
  457MOL0    Cl61604   2.341   5.483  12.505  0.6480 -0.4994 -0.2888
  457MOL0     C61605   1.846   4.929  12.063  0.3533  0.1537  0.5119
  457MOL0     C61606   1.714   4.897  12.035  0.9433  0.2422  0.4042
  457MOL0     O61607   1.629   4.618  11.872  0.5552 -0.4300 -0.0771
  457MOL0     C61608   1.295   4.723  11.818  0.0753  0.2273  0.8809
  457MOL0     C61609   1.157   4.674  11.788 -0.3509 -0.6596  0.5417
  457MOL0     N61610   1.016   4.452  11.025 -0.2021  0.0729 -1.0864
  457MOL0     N61611   0.978   4.412  10.916  1.6163  0.3284 -0.4100
  457MOL0     C61612   1.289   4.064  10.150  0.0746  0.5162  0.1347
  457MOL0     C61613   1.373   4.041  10.035 -0.4618  0.0595  0.4531
  457MOL0     C61614   1.501   3.840   9.619 -0.5373 -0.1574  0.4604
  457MOL0     C61615   1.466   3.775   9.504  0.5623 -0.2026 -1.2319
  457MOL0     C61616   1.551   3.724   9.412  0.3060  0.2876 -0.0856
  457MOL0     C61617   1.692   3.753   9.422 -1.2462  0.2845  0.1995
  457MOL0     O61618   1.789   3.714   9.328  0.1362  0.6800 -0.3677
  457MOL0     C61619   1.741   3.634   9.222  0.8913 -0.2855  1.2139
  457MOL0     C61620   1.836   3.644   9.110 -0.5236 -0.4940 -0.0763
  457MOL0     C61621   1.778   3.563   8.995  0.1487 -0.2818 -0.1089
  457MOL0     C61622   1.686   3.645   8.899  0.4094 -0.6792  0.0704
  457MOL0     C61623   1.749   3.646   8.762  0.0072  0.7717 -0.4873
  457MOL0     C61624   1.814   3.649   8.660 -0.6727  0.8093 -1.4660
  457MOL0     C61625   1.733   3.825   9.537  0.5934 -0.0425 -0.2062
  457MOL0     C61626   1.639   3.869   9.633 -0.8110 -0.6148  0.0475
  457MOL0     C61627   1.687   3.946   9.757  0.1598 -0.2246  0.5838
  457MOL0     H61628   1.154   3.951   9.814  1.8343 -2.0636 -0.5065
  457MOL0     H61629   0.998   3.988  10.019 -0.8619 -1.6836  2.8452
  457MOL0     H61630   0.905   4.109  10.198 -2.0827 -1.0845  0.8411
  457MOL0     H61631   0.931   3.938  10.244 -2.1920 -0.1908  2.1818
  457MOL0     H61632   0.992   4.171  10.420  0.0352  0.3287 -4.3000
  457MOL0     H61633   0.970   3.997  10.474 -0.1381 -0.9195 -1.7512
  457MOL0     H61634   0.737   3.998  10.418 -0.1018 -0.1613  0.1241
  457MOL0     H61635   0.736   4.166  10.376  2.3197  0.0424 -1.1818
  457MOL0     H61636   0.773   4.052  10.653  1.3462  0.1061  1.3070
  457MOL0     H61637   0.842   4.206  10.599  0.1424 -1.5078 -1.4387
  457MOL0     H61638   0.626   4.312  10.553  0.6484  0.4083 -0.7770
  457MOL0     H61639   0.537   4.158  10.554 -0.0879 -1.0850  0.9144
  457MOL0     H61640   0.499   4.316  10.743  0.1899 -0.3382  1.7635
  457MOL0     H61641   0.523   4.148  10.796  3.6351 -1.0543  3.2342
  457MOL0     H61642   0.768   4.198  10.841  1.0019 -0.3284 -3.8213
  457MOL0     H61643   0.659   4.283  10.945 -0.3887 -1.0582 -0.6488
  457MOL0     H61644   0.799   4.381  10.704  1.9827 -0.4381  1.1135
  457MOL0     H61645   0.686   4.490  10.773 -2.5291 -1.7501 -1.8749
  457MOL0     H61646   0.733   4.617  11.019 -0.6646 -1.5868  2.0348
  457MOL0     H61647   1.030   4.671  11.191 -2.9426  3.5911  0.7960
  457MOL0     H61648   0.876   4.663  11.249  1.5401  1.1313  1.2714
  457MOL0     H61649   0.919   4.413  11.341  1.2978 -2.1185 -1.3567
  457MOL0     H61650   1.080   4.443  11.287  2.8274 -0.3082  5.2307
  457MOL0     H61651   0.949   4.618  11.506  0.3067  0.0502  2.2748
  457MOL0     H61652   1.121   4.584  11.462  1.9460 -3.7506  3.3072
  457MOL0     H61653   1.101   4.376  11.555 -1.0124 -0.8415  0.1804
  457MOL0     H61654   0.925   4.380  11.555 -0.1508  0.7452 -0.9576
  457MOL0     H61655   1.229   4.354  11.736 -0.3676 -0.6884 -1.1828
  457MOL0     H61656   1.462   4.423  11.803 -3.9015 -5.3207  1.8338
  457MOL0     H61657   1.730   4.916  11.692  1.3196  1.8834  0.2586
  457MOL0     H61658   1.969   4.967  11.750  1.5291 -1.1705  0.4026
  457MOL0     H61659   2.240   5.071  11.965  0.2136 -1.8460 -0.0552
  457MOL0     H61660   2.158   5.044  11.814 -0.3508  0.9129  0.0351
  457MOL0     H61661   2.160   5.288  11.854  0.2411  2.6598  3.1765
  457MOL0     H61662   1.996   5.233  11.832  1.7932 -0.1940 -2.6991
  457MOL0     H61663   1.963   5.240  12.085  0.6275 -0.8221  0.9278
  457MOL0     H61664   2.130   5.267  12.115 -0.6385 -1.1456  1.3167
  457MOL0     H61665   1.937   5.441  11.952 -0.7488  1.1290  1.1221
  457MOL0     H61666   2.104   5.487  11.976  0.3186 -2.2375 -2.5029
  457MOL0     H61667   1.898   5.528  12.178 -1.0209 -1.6903 -2.2254
  457MOL0     H61668   2.031   5.633  12.120 -1.3917  0.5581  1.6300
  457MOL0     H61669   2.055   5.394  12.307  0.1033  0.5177  1.2643
  457MOL0     H61670   2.192   5.460  12.235 -1.0747  0.3936 -0.9258
  457MOL0     H61671   2.041   5.556  12.473  0.1762  1.8082  0.6326
  457MOL0     H61672   2.048   5.674  12.360 -3.0880 -2.4965  0.6522
  457MOL0     H61673   2.308   5.655  12.329  1.1289  2.1873  0.6488
  457MOL0     H61674   2.278   5.698  12.484  3.3150 -0.4142 -0.2826
  457MOL0     H61675   1.888   4.931  12.163 -0.8481  3.2764  1.0826
  457MOL0     H61676   1.645   4.881  12.117 -0.4058 -0.8317 -0.8893
  457MOL0     H61677   1.317   4.827  11.838  0.5504  0.1528  0.7619
  457MOL0     H61678   1.067   4.734  11.780 -0.8279 -1.4941 -0.6407
  457MOL0     H61679   1.323   4.113  10.241 -2.2095 -1.3814  2.1658
  457MOL0     H61680   1.480   4.049  10.047 -0.6733  1.0496  1.8616
  457MOL0     H61681   1.360   3.751   9.494 -0.0781  1.7932  0.1364
  457MOL0     H61682   1.511   3.667   9.329  3.8585 -1.4643 -0.7960
  457MOL0     H61683   1.655   3.679   9.174  2.1669 -1.0177 -2.0251
  457MOL0     H61684   1.718   3.531   9.252  0.0939 -0.2745  0.6643
  457MOL0     H61685   1.932   3.598   9.134  0.1774 -0.8643 -3.2674
  457MOL0     H61686   1.854   3.749   9.084 -0.7696 -0.0784  1.3241
  457MOL0     H61687   1.715   3.484   9.035  1.7121 -0.2433  2.6883
  457MOL0     H61688   1.861   3.513   8.945  0.8327 -2.5519  3.0070
  457MOL0     H61689   1.596   3.584   8.890  1.8951 -3.1299  0.7845
  457MOL0     H61690   1.671   3.751   8.924  0.9778 -0.4366 -0.5951
  457MOL0     H61691   1.885   3.643   8.579  0.8466 -4.6164 -0.2190
  457MOL0     H61692   1.835   3.859   9.554  1.3995 -1.2013 -2.3430
  457MOL0     H61693   1.642   4.046   9.757  0.1304 -0.2325 -0.1675
  457MOL0     H61694   1.655   3.894   9.848  2.6851 -0.1792  1.5789
  457MOL0     H61695   1.796   3.955   9.757  0.0154  3.2276 -0.5326
  458MOL0     O61696   0.176  10.552  10.086  0.4540 -0.1974 -0.2263
  458MOL0     C61697   0.136  10.527   9.972  1.4443  0.5036 -0.3705
  458MOL0     O61698   0.205  10.573   9.855  0.0223 -0.5766  0.0112
  458MOL0     C61699   0.317  10.641   9.861 -0.0586  0.2280  0.3187
  458MOL0     C61700   0.434  10.577   9.904  0.2810  0.3013 -0.3576
  458MOL0     C61701   0.550  10.646   9.889  0.7061  0.2050  0.4947
  458MOL0     C61702   0.558  10.774   9.832 -0.5739  0.0128 -0.9546
  458MOL0     O61703   0.684  10.820   9.798  0.3253  0.5565 -0.5709
  458MOL0     C61704   0.677  10.929   9.709 -0.6929  0.3025 -0.0231
  458MOL0     C61705   0.805  10.971   9.655 -0.2194 -0.5461  0.0042
  458MOL0     C61706   0.894  10.857   9.613 -0.0895 -0.1106  0.5847
  458MOL0     C61707   1.011  10.912   9.526  0.2756  0.5799  0.3835
  458MOL0     C61708   1.096  10.801   9.476 -0.4943  0.4653 -0.0198
  458MOL0     C61709   1.038  10.693   9.380  0.5135  0.6779 -0.4285
  458MOL0     C61710   1.104  10.556   9.382  0.4047  0.8495 -0.7343
  458MOL0     C61711   1.250  10.576   9.327  0.8267 -0.4764 -0.0650
  458MOL0     N61712   1.308  10.439   9.320  0.3080  0.5895 -0.0918
  458MOL0     C61713   1.348  10.357   9.427  0.4996  0.6665  0.1633
  458MOL0     C61714   1.353  10.227   9.370 -0.9670 -0.8146  0.2379
  458MOL0     C61715   1.393  10.098   9.438 -0.0043  0.4920 -0.8658
  458MOL0     C61716   1.538  10.053   9.467 -0.0414 -0.3654 -0.2114
  458MOL0     C61717   1.625  10.036   9.336  0.7633  0.0644 -0.4184
  458MOL0     C61718   1.772  10.016   9.365 -0.2289 -0.2333 -0.4037
  458MOL0     O61719   1.839  10.144   9.356  0.2550  0.2467  0.4101
  458MOL0     C61720   1.977  10.145   9.358 -0.0135  0.1102 -0.5833
  458MOL0     C61721   2.036  10.274   9.320  0.1044  0.1764 -0.0580
  458MOL0     C61722   2.172  10.277   9.305 -0.2101  0.3013 -0.1381
  458MOL0     C61723   2.254  10.168   9.332 -0.5318 -0.1594 -0.1027
  458MOL0     C61724   2.407  10.187   9.338 -0.0743  0.5155 -0.1027
  458MOL0     O61725   2.461  10.305   9.314 -0.2377 -0.6104 -0.4773
  458MOL0     C61726   2.605  10.314   9.313  0.3476 -0.2494  0.4011
  458MOL0     C61727   2.671  10.370   9.206 -1.1620 -0.0526  0.2457
  458MOL0     C61728   2.814  10.392   9.206 -0.6418 -0.0137  0.1076
  458MOL0     C61729   2.891  10.348   9.311  0.3808  0.5565  0.3396
  458MOL0     O61730   3.027  10.362   9.333  0.5225 -0.2992 -0.1192
  458MOL0     C61731   3.103  10.373   9.216  0.0437  0.0892  0.2190
  458MOL0     C61732   3.251  10.377   9.238  0.1786 -0.3395  0.5529
  458MOL0     C61733   3.340  10.438   9.123 -0.2000 -0.0384 -0.4994
  458MOL0     C61734   3.463  10.489   9.181  0.1193 -0.9228  0.1982
  458MOL0     C61735   3.555  10.383   9.241 -0.3071  0.1060  0.6155
  458MOL0     C61736   3.687  10.428   9.312 -0.3923 -0.1574 -0.4390
  458MOL0     C61737   3.786  10.489   9.216  0.4204 -0.0888  0.8891
  458MOL0     C61738   3.869  10.380   9.149  0.3466 -0.0404 -0.1306
  458MOL0    Cl61739   4.022  10.444   9.069  0.2429  0.3589  0.0683
  458MOL0     C61740   2.827  10.280   9.415 -0.1596  0.2780 -0.0258
  458MOL0     C61741   2.685  10.271   9.418  0.6136 -0.0750 -0.5896
  458MOL0     O61742   2.468  10.081   9.358 -0.2332  0.0384  0.3119
  458MOL0     C61743   2.202  10.046   9.364 -0.0887  0.1446  0.0639
  458MOL0     C61744   2.066  10.028   9.356  0.4990 -0.6156  0.1378
  458MOL0     N61745   1.338  10.237   9.235 -0.3571 -0.2520 -0.3058
  458MOL0     N61746   1.316  10.362   9.207  0.5059 -0.2244 -0.3770
  458MOL0     C61747   0.436  10.847   9.808  0.2564 -0.0745 -0.8993
  458MOL0     C61748   0.317  10.782   9.827  0.2078  0.1245 -0.1905
  458MOL0     C61749   0.012  10.445   9.959 -0.1293 -0.1280  0.2542
  458MOL0     C61750  -0.021  10.384   9.837  0.3140 -0.8030  0.1314
  458MOL0     C61751  -0.134  10.306   9.816 -0.5391  1.4020  0.5194
  458MOL0     C61752  -0.215  10.273   9.920 -0.6233  0.0032 -0.1996
  458MOL0     O61753  -0.330  10.204   9.894 -0.7355  0.1909  0.1828
  458MOL0     C61754  -0.313  10.083   9.810 -0.0836 -1.0861 -0.6180
  458MOL0     C61755  -0.427  10.066   9.705  0.0316 -0.3250  1.1380
  458MOL0     C61756  -0.538   9.979   9.749  0.6296 -0.2136 -0.1118
  458MOL0     C61757  -0.675  10.028   9.696 -0.3165  0.7196  0.7079
  458MOL0     C61758  -0.760   9.907   9.708 -0.2125  0.0622 -0.1397
  458MOL0     C61759  -0.822   9.803   9.706  0.4586  0.7181 -0.0315
  458MOL0     C61760  -0.186  10.321  10.044  0.1497 -0.3035  0.2810
  458MOL0     C61761  -0.078  10.404  10.065  0.0125 -0.0983 -0.1873
  458MOL0     C61762  -0.075  10.469  10.196 -0.1320  0.3791  0.3131
  458MOL0     H61763   0.433  10.477   9.947  2.8679  0.7840  1.0447
  458MOL0     H61764   0.640  10.592   9.914  1.0727  0.2640 -0.6169
  458MOL0     H61765   0.610  10.906   9.626 -1.2199 -0.9996  0.7387
  458MOL0     H61766   0.638  11.009   9.772 -0.7174 -1.2860  2.0728
  458MOL0     H61767   0.866  11.024   9.729 -0.8538 -0.8155  0.7286
  458MOL0     H61768   0.782  11.027   9.563  2.6517 -1.9037 -1.7067
  458MOL0     H61769   0.837  10.779   9.562  1.1320 -1.9768  1.9379
  458MOL0     H61770   0.941  10.819   9.704  0.4003 -0.2301  0.2838
  458MOL0     H61771   0.971  10.977   9.447  0.3575  1.3322  0.9469
  458MOL0     H61772   1.067  10.969   9.602 -0.4220  2.0136 -0.1377
  458MOL0     H61773   1.174  10.859   9.425 -1.1786  1.8271  0.4419
  458MOL0     H61774   1.134  10.747   9.563  1.6004  0.4821 -0.8741
  458MOL0     H61775   0.929  10.689   9.379  0.2385  4.2370 -0.3679
  458MOL0     H61776   1.059  10.723   9.277 -1.2380 -0.2087 -1.0909
  458MOL0     H61777   1.042  10.499   9.313 -1.0871  1.4090  0.0891
  458MOL0     H61778   1.116  10.505   9.479  1.5053  1.6110 -0.4460
  458MOL0     H61779   1.256  10.611   9.224  0.0493 -0.2499 -0.0381
  458MOL0     H61780   1.299  10.645   9.397  1.5055 -1.7710  0.7750
  458MOL0     H61781   1.356  10.369   9.535 -0.5229 -0.7734  0.4479
  458MOL0     H61782   1.339  10.099   9.533 -0.2292  0.7274 -0.9941
  458MOL0     H61783   1.357  10.022   9.368  4.3199 -2.5101 -0.2471
  458MOL0     H61784   1.592  10.118   9.536 -0.6435 -1.8230  1.6983
  458MOL0     H61785   1.526   9.955   9.513 -1.2000  1.8223  4.7326
  458MOL0     H61786   1.609  10.127   9.277 -4.2405 -0.2926  0.0111
  458MOL0     H61787   1.597   9.949   9.277  1.8314 -0.6621  0.1142
  458MOL0     H61788   1.810   9.950   9.287 -0.1045  0.8038 -1.2507
  458MOL0     H61789   1.781   9.977   9.467 -2.9375  1.7394  0.7099
  458MOL0     H61790   1.969  10.355   9.292 -1.2611 -0.4856  1.1740
  458MOL0     H61791   2.214  10.370   9.269 -0.7320  0.2196 -0.9912
  458MOL0     H61792   2.626  10.405   9.114 -0.2048  1.5113  0.3246
  458MOL0     H61793   2.853  10.422   9.110 -0.6900  0.7055  0.3069
  458MOL0     H61794   3.076  10.286   9.155  0.1328 -0.9048  1.5378
  458MOL0     H61795   3.072  10.465   9.167  0.2497 -0.3835 -0.8285
  458MOL0     H61796   3.273  10.435   9.327  0.2627  1.8589 -0.8163
  458MOL0     H61797   3.286  10.274   9.244  1.6850  0.1064 -0.0402
  458MOL0     H61798   3.364  10.363   9.047 -0.9682 -1.9542  1.0456
  458MOL0     H61799   3.285  10.520   9.078 -0.0017  0.8598  0.8496
  458MOL0     H61800   3.437  10.556   9.264 -2.8660 -1.8610  0.1430
  458MOL0     H61801   3.513  10.542   9.099 -0.3861  0.3469  0.6850
  458MOL0     H61802   3.585  10.316   9.159  0.0940  0.8525  0.1452
  458MOL0     H61803   3.499  10.316   9.306  1.9222 -1.1206  1.3721
  458MOL0     H61804   3.655  10.498   9.389 -0.4487 -1.8552  1.1627
  458MOL0     H61805   3.734  10.345   9.367 -0.1504 -0.0651 -0.5077
  458MOL0     H61806   3.850  10.552   9.278  1.5985 -0.8358  0.4607
  458MOL0     H61807   3.744  10.559   9.143 -1.3036 -0.8555  1.0966
  458MOL0     H61808   3.897  10.311   9.229 -1.3918 -0.1478  0.4112
  458MOL0     H61809   3.806  10.325   9.078  0.9363 -3.0475  1.4927
  458MOL0     H61810   2.884  10.250   9.503 -0.8797  0.8962  0.6654
  458MOL0     H61811   2.643  10.213   9.500 -0.4640 -0.8554 -1.6583
  458MOL0     H61812   2.263   9.959   9.386 -0.4624  0.2231  1.5049
  458MOL0     H61813   2.023   9.930   9.372  0.9261 -1.2915 -2.4695
  458MOL0     H61814   0.436  10.953   9.784  0.0527 -0.2729 -1.8236
  458MOL0     H61815   0.217  10.820   9.805 -0.7581 -2.4062 -0.5642
  458MOL0     H61816   0.045  10.403   9.753  2.2411  0.6322  1.8844
  458MOL0     H61817  -0.148  10.258   9.719  0.7521  1.4518  0.2882
  458MOL0     H61818  -0.339  10.002   9.878 -3.1801  0.1388 -0.1541
  458MOL0     H61819  -0.217  10.059   9.763  0.2879 -2.7342  0.8945
  458MOL0     H61820  -0.386  10.029   9.611  2.4443  0.1062  1.9475
  458MOL0     H61821  -0.470  10.164   9.682  0.9435 -0.3613 -0.8992
  458MOL0     H61822  -0.551   9.990   9.857  1.0670  4.5766 -0.3441
  458MOL0     H61823  -0.521   9.876   9.714  1.7386 -0.6772  1.6720
  458MOL0     H61824  -0.705  10.104   9.770 -1.2849 -0.6692  1.7907
  458MOL0     H61825  -0.681  10.064   9.593  1.9179 -1.3813 -0.2692
  458MOL0     H61826  -0.869   9.710   9.684  0.2044  1.1154 -1.2314
  458MOL0     H61827  -0.252  10.297  10.127 -0.3608 -1.1121 -0.3442
  458MOL0     H61828  -0.163  10.454  10.260 -1.3857  1.9757 -0.9123
  458MOL0     H61829   0.011  10.423  10.244  2.5008  2.8545 -1.6700
  458MOL0     H61830  -0.054  10.576  10.187  2.1567 -0.0832 -0.3724
  459MOL0     O61831   6.260   7.130   2.423 -0.2947 -1.1419  0.0293
  459MOL0     C61832   6.306   7.214   2.345 -0.2186  1.0756  0.5754
  459MOL0     O61833   6.252   7.239   2.220  0.8363 -0.7476  0.7108
  459MOL0     C61834   6.153   7.159   2.161  0.0032 -0.4384 -0.1526
  459MOL0     C61835   6.151   7.185   2.025  0.4902  0.6320  0.2955
  459MOL0     C61836   6.054   7.137   1.939  0.4931 -0.2509  0.2603
  459MOL0     C61837   5.957   7.046   1.988  0.9276 -0.5142  0.1278
  459MOL0     O61838   5.853   7.000   1.905 -0.2006  1.1328  0.2569
  459MOL0     C61839   5.718   7.002   1.960 -0.1911 -0.2088  0.4168
  459MOL0     C61840   5.648   6.863   1.937 -0.2912 -0.3823  0.1994
  459MOL0     C61841   5.658   6.800   1.801  0.6194  0.5006 -0.0266
  459MOL0     C61842   5.584   6.877   1.691 -0.6317 -0.8493 -0.1137
  459MOL0     C61843   5.570   6.796   1.565 -0.5345  0.1346 -0.1138
  459MOL0     C61844   5.456   6.698   1.567  0.0985  0.0288 -0.0080
  459MOL0     C61845   5.414   6.629   1.427  0.0754  0.2032  0.2442
  459MOL0     C61846   5.527   6.574   1.333 -0.6706 -0.3626 -1.2113
  459MOL0     N61847   5.609   6.482   1.414 -0.3358 -0.1725  0.1432
  459MOL0     C61848   5.568   6.390   1.514  0.2076  0.0342  0.6380
  459MOL0     C61849   5.681   6.340   1.563 -0.6266 -0.0715 -0.7483
  459MOL0     C61850   5.685   6.274   1.695 -0.5897  0.2482  0.5501
  459MOL0     C61851   5.820   6.298   1.773  0.6093 -0.9122  0.1752
  459MOL0     C61852   5.833   6.242   1.911 -0.1399 -0.2245  0.3497
  459MOL0     C61853   5.968   6.283   1.991 -0.1620 -0.0406  0.3311
  459MOL0     O61854   6.082   6.223   1.918 -0.2656  0.2617 -0.8355
  459MOL0     C61855   6.205   6.258   1.973 -0.6011  0.2625  0.1678
  459MOL0     C61856   6.230   6.309   2.097 -0.2556  0.6780  0.1353
  459MOL0     C61857   6.354   6.330   2.139 -0.2561 -0.1612 -0.1156
  459MOL0     C61858   6.466   6.297   2.062 -0.0512  0.2691 -0.0217
  459MOL0     C61859   6.603   6.312   2.117  0.1801 -0.1150  0.1081
  459MOL0     O61860   6.701   6.264   2.035 -0.1294 -0.4614  0.3691
  459MOL0     C61861   6.833   6.262   2.078  0.1025 -0.7454  0.1020
  459MOL0     C61862   6.918   6.200   1.981  0.9215  0.0560 -0.9398
  459MOL0     C61863   7.062   6.214   2.006 -0.8643  0.1683  0.2737
  459MOL0     C61864   7.110   6.293   2.110 -0.4310  0.0178  0.2479
  459MOL0     O61865   7.250   6.302   2.118  0.1585 -0.2065 -0.0192
  459MOL0     C61866   7.285   6.405   2.215  0.4039  1.0633  0.1656
  459MOL0     C61867   7.419   6.457   2.167  0.3031 -0.0451 -0.3864
  459MOL0     C61868   7.524   6.369   2.233 -0.7467 -0.0511  0.1430
  459MOL0     C61869   7.662   6.428   2.206 -0.7445 -0.1876 -0.6543
  459MOL0     C61870   7.773   6.339   2.269  0.4743  0.8444 -0.2599
  459MOL0     C61871   7.889   6.445   2.318  1.0727 -0.3434  0.4829
  459MOL0     C61872   7.963   6.529   2.210 -0.1906 -0.0002  1.0706
  459MOL0     C61873   8.106   6.563   2.244  0.2998 -1.0369  0.0538
  459MOL0    Cl61874   8.216   6.423   2.271 -0.1305  0.3198 -0.3051
  459MOL0     C61875   7.022   6.326   2.215  0.9447 -0.7344  0.5669
  459MOL0     C61876   6.888   6.311   2.198  0.7045 -0.0992  0.1496
  459MOL0     O61877   6.613   6.357   2.232 -0.6574  0.5798  0.3367
  459MOL0     C61878   6.448   6.238   1.936 -0.0491  0.1586 -0.0633
  459MOL0     C61879   6.317   6.228   1.891 -0.2978 -0.6050 -0.3730
  459MOL0     N61880   5.793   6.392   1.488 -0.4220 -0.2714  1.1871
  459MOL0     N61881   5.745   6.476   1.397 -0.6690 -0.0706 -0.5543
  459MOL0     C61882   5.976   7.008   2.124  0.1004 -0.8948 -0.1117
  459MOL0     C61883   6.062   7.068   2.219  0.2972  0.0132  0.5926
  459MOL0     C61884   6.440   7.273   2.374  0.2742  0.3386 -0.8387
  459MOL0     C61885   6.496   7.347   2.270 -0.4350 -0.4736  0.4225
  459MOL0     C61886   6.622   7.409   2.281 -1.2675 -0.4789 -1.1373
  459MOL0     C61887   6.692   7.404   2.405  0.2749 -0.0594  1.2622
  459MOL0     O61888   6.819   7.458   2.403 -0.3875  0.3468 -0.9879
  459MOL0     C61889   6.893   7.444   2.527  0.5200 -1.0849 -0.3293
  459MOL0     C61890   7.018   7.524   2.500  0.2092  0.2473  0.0336
  459MOL0     C61891   6.995   7.670   2.446 -0.2092 -0.0998 -0.2189
  459MOL0     C61892   7.126   7.754   2.454  0.0607  0.4336 -0.1438
  459MOL0     C61893   7.251   7.689   2.406 -0.3216  0.5227  0.6132
  459MOL0     C61894   7.351   7.644   2.357  0.4376 -0.6709 -0.0747
  459MOL0     C61895   6.631   7.335   2.504 -0.5839 -0.5572  0.1465
  459MOL0     C61896   6.512   7.263   2.493  0.3600 -0.7866  0.5441
  459MOL0     C61897   6.461   7.195   2.618  0.2366  0.1111  0.3710
  459MOL0     H61898   6.229   7.251   1.989  0.2658 -1.2379 -4.3644
  459MOL0     H61899   6.045   7.160   1.834 -0.6858  2.8128  0.9251
  459MOL0     H61900   5.716   7.027   2.067  0.0605 -1.1899  0.6566
  459MOL0     H61901   5.655   7.071   1.903 -2.0960 -3.4572 -1.6941
  459MOL0     H61902   5.540   6.870   1.954 -0.2130  2.3158  0.1458
  459MOL0     H61903   5.711   6.805   2.005  4.6980  2.8501 -1.1221
  459MOL0     H61904   5.619   6.700   1.822 -0.3411  1.5403  4.1123
  459MOL0     H61905   5.760   6.792   1.762  0.0804 -1.9396 -1.1443
  459MOL0     H61906   5.486   6.907   1.729 -0.7147 -2.4171  1.0222
  459MOL0     H61907   5.653   6.959   1.669 -1.9895 -0.3296 -2.8266
  459MOL0     H61908   5.541   6.862   1.482  0.3471  2.1073  1.0749
  459MOL0     H61909   5.661   6.744   1.535 -2.1408 -0.8890 -3.8263
  459MOL0     H61910   5.480   6.622   1.642  1.4278 -0.1133 -0.5401
  459MOL0     H61911   5.369   6.755   1.600  1.3151  0.9488  1.7159
  459MOL0     H61912   5.343   6.689   1.371 -0.4215  1.6081  2.2737
  459MOL0     H61913   5.346   6.546   1.449 -0.0631 -0.1140 -1.2790
  459MOL0     H61914   5.477   6.515   1.257  0.1056 -1.6746 -0.7348
  459MOL0     H61915   5.582   6.652   1.279 -2.0603 -0.0918 -2.3003
  459MOL0     H61916   5.468   6.363   1.546  0.9198 -1.2224  1.9335
  459MOL0     H61917   5.597   6.309   1.749  0.0576  2.5241  0.2267
  459MOL0     H61918   5.677   6.165   1.688  0.8042 -0.0836  3.0974
  459MOL0     H61919   5.907   6.265   1.715  0.1895  1.1937 -1.8010
  459MOL0     H61920   5.829   6.406   1.788 -1.5828 -0.6819  0.1418
  459MOL0     H61921   5.831   6.133   1.911 -2.2607 -0.2352  1.8270
  459MOL0     H61922   5.758   6.272   1.984 -2.4503  1.3314 -2.4373
  459MOL0     H61923   5.960   6.249   2.094  2.2149  1.5279  1.1090
  459MOL0     H61924   5.975   6.392   1.989 -0.3754 -0.0175  0.8915
  459MOL0     H61925   6.156   6.321   2.176  1.8142  1.5963  2.0633
  459MOL0     H61926   6.368   6.371   2.238 -1.2035  2.2959 -0.9359
  459MOL0     H61927   6.872   6.153   1.894 -1.9038  2.2771 -0.7932
  459MOL0     H61928   7.140   6.177   1.940  3.7491  1.2255  4.5059
  459MOL0     H61929   7.211   6.485   2.224 -2.9727 -1.7526 -0.5301
  459MOL0     H61930   7.289   6.361   2.316  2.1571 -2.8931 -1.4074
  459MOL0     H61931   7.439   6.450   2.060  0.5672  0.8781 -0.4103
  459MOL0     H61932   7.432   6.562   2.198  0.8867  0.9539 -3.6599
  459MOL0     H61933   7.517   6.363   2.342  3.1068  0.6102  0.5758
  459MOL0     H61934   7.505   6.274   2.180 -5.0524  0.1045  1.0309
  459MOL0     H61935   7.667   6.530   2.246 -1.5674  0.1032 -1.2742
  459MOL0     H61936   7.667   6.427   2.097 -1.6106  0.8133 -0.7144
  459MOL0     H61937   7.813   6.264   2.200  0.9861  0.2717  0.6414
  459MOL0     H61938   7.744   6.296   2.365  0.5502  1.7899  0.2037
  459MOL0     H61939   7.842   6.511   2.391  1.3556 -2.1344  2.3497
  459MOL0     H61940   7.964   6.386   2.370 -0.1906 -2.0569  0.4459
  459MOL0     H61941   7.913   6.624   2.191  0.9952  0.2337 -1.3487
  459MOL0     H61942   7.957   6.476   2.114 -2.3055  1.0682  0.5486
  459MOL0     H61943   8.149   6.630   2.169  0.4603  0.7677  1.6766
  459MOL0     H61944   8.104   6.622   2.337  0.5616 -0.2747 -0.4167
  459MOL0     H61945   7.053   6.383   2.302  1.1689  2.2482 -1.3400
  459MOL0     H61946   6.822   6.333   2.282 -1.7486 -2.0356 -1.1540
  459MOL0     H61947   6.526   6.195   1.874  1.0801  0.4806  1.0911
  459MOL0     H61948   6.298   6.191   1.790 -1.9454  5.1363 -2.5595
  459MOL0     H61949   5.900   6.940   2.161  1.3577 -1.9256  0.6626
  459MOL0     H61950   6.062   7.039   2.324 -0.3726 -3.2299 -0.1991
  459MOL0     H61951   6.435   7.365   2.183  0.2864 -0.7445 -0.1482
  459MOL0     H61952   6.670   7.472   2.207 -1.5828  1.8053  0.5024
  459MOL0     H61953   6.915   7.339   2.545  0.6303 -0.9181  0.5281
  459MOL0     H61954   6.835   7.481   2.612  0.3491  1.0752 -1.3082
  459MOL0     H61955   7.081   7.476   2.425 -1.3386  0.8485 -1.7226
  459MOL0     H61956   7.077   7.522   2.592  0.9705  0.9214 -0.4250
  459MOL0     H61957   6.916   7.709   2.512 -2.8020 -1.5243 -2.2919
  459MOL0     H61958   6.959   7.677   2.343 -0.3893  1.4719 -0.0788
  459MOL0     H61959   7.102   7.841   2.392 -1.7428 -0.8526 -1.3468
  459MOL0     H61960   7.148   7.787   2.556 -0.1489  0.7003 -0.1833
  459MOL0     H61961   7.436   7.589   2.322  1.4120  0.8845 -0.2762
  459MOL0     H61962   6.688   7.321   2.596  1.6823  0.2891 -1.0285
  459MOL0     H61963   6.371   7.248   2.652  0.8080  0.7194  0.9849
  459MOL0     H61964   6.440   7.089   2.598  0.3119  0.4149 -1.5054
  459MOL0     H61965   6.538   7.198   2.696  0.5779 -0.7477  0.0793
  460MOL0     O61966   8.686   4.625   6.960 -0.2948 -0.1721 -0.8784
  460MOL0     C61967   8.628   4.626   6.857  0.7390  0.2982  0.2977
  460MOL0     O61968   8.684   4.611   6.725 -0.1118 -0.2560 -0.2819
  460MOL0     C61969   8.814   4.606   6.718  0.2274 -0.2664 -0.0766
  460MOL0     C61970   8.864   4.513   6.624 -0.1671 -0.4446 -0.4565
  460MOL0     C61971   8.998   4.500   6.607 -0.7002 -0.9294  0.7079
  460MOL0     C61972   9.090   4.574   6.682 -0.5648  1.4098 -0.0278
  460MOL0     O61973   9.223   4.539   6.668  0.1470 -0.1727 -0.5701
  460MOL0     C61974   9.321   4.620   6.731 -0.0688 -0.0980 -0.1676
  460MOL0     C61975   9.461   4.603   6.667 -0.2132  0.2748 -0.3790
  460MOL0     C61976   9.554   4.721   6.710  0.1098  0.2605  0.5458
  460MOL0     C61977   9.604   4.704   6.846 -0.0387 -0.1987 -0.6424
  460MOL0     C61978   9.696   4.817   6.888  0.0526  0.4841  0.4769
  460MOL0     C61979   9.616   4.926   6.961 -0.3123 -0.0229  0.5397
  460MOL0     C61980   9.707   5.051   6.982  0.0107 -0.0024 -0.1365
  460MOL0     C61981   9.813   5.027   7.096  0.4345  0.2996 -1.1296
  460MOL0     N61982   9.912   5.135   7.107 -0.4353  0.5924  0.5125
  460MOL0     C61983  10.016   5.151   7.017 -1.0163  0.6401 -0.4836
  460MOL0     C61984  10.101   5.243   7.061  0.9901 -0.0980 -0.9811
  460MOL0     C61985  10.232   5.287   7.001 -0.2908  0.0932  0.2443
  460MOL0     C61986  10.305   5.401   7.075  0.7160 -0.1676 -0.2777
  460MOL0     C61987  10.234   5.531   7.065 -0.3178  0.0606  0.5509
  460MOL0     C61988  10.339   5.644   7.084  0.8163 -0.4388  0.1178
  460MOL0     O61989  10.276   5.773   7.094 -0.6472  0.3894  0.5226
  460MOL0     C61990  10.350   5.883   7.117  0.0034  0.4776  0.3978
  460MOL0     C61991  10.288   6.004   7.094 -0.1090 -0.0748  0.2326
  460MOL0     C61992  10.353   6.123   7.119  0.0383  0.2114 -0.0577
  460MOL0     C61993  10.483   6.122   7.168 -0.1337 -1.4074  0.2209
  460MOL0     C61994  10.554   6.248   7.194 -0.0573  0.2787  0.6054
  460MOL0     O61995  10.687   6.251   7.207  0.1892  0.2711  0.1521
  460MOL0     C61996  10.741   6.363   7.264 -0.1465  0.3483 -0.5333
  460MOL0     C61997  10.715   6.492   7.221  0.4361 -0.4635  0.1065
  460MOL0     C61998  10.777   6.600   7.285 -0.4994  0.7155  0.4266
  460MOL0     C61999  10.852   6.588   7.403  0.1212  0.7676 -0.7451
  460MOL0     O62000  10.917   6.699   7.452  0.3855 -0.5298  0.4241
  460MOL0     C62001  11.044   6.668   7.521  0.8048  0.6038  0.2888
  460MOL0     C62002  11.121   6.796   7.538  0.2125 -0.0617  0.7996
  460MOL0     C62003  11.254   6.772   7.620 -0.0299 -0.5859 -0.6851
  460MOL0     C62004  11.356   6.669   7.563 -0.5956  0.2940 -0.6071
  460MOL0     C62005  11.471   6.643   7.653 -0.1494 -0.6447  0.0505
  460MOL0     C62006  11.573   6.763   7.645 -0.2151  0.4174  0.3686
  460MOL0     C62007  11.678   6.762   7.757 -0.3136 -0.4754 -0.0422
  460MOL0     C62008  11.788   6.858   7.731  0.1806  0.2253 -0.0238
  460MOL0    Cl62009  11.898   6.783   7.610 -0.2519 -0.1044  0.3156
  460MOL0     C62010  10.877   6.455   7.446  0.1849 -1.3986  0.4076
  460MOL0     C62011  10.822   6.345   7.375  0.1498 -0.3022 -0.2194
  460MOL0     O62012  10.480   6.347   7.207  0.0818  0.1569 -0.2514
  460MOL0     C62013  10.556   6.001   7.178  0.0003  0.4709  0.5097
  460MOL0     C62014  10.489   5.876   7.146  0.3449 -1.2597  0.4347
  460MOL0     N62015  10.039   5.293   7.179 -0.4540  0.1761  0.7552
  460MOL0     N62016   9.929   5.224   7.208  0.1419  0.5674 -0.3495
  460MOL0     C62017   9.040   4.683   6.757 -0.5670 -0.1373  0.2918
  460MOL0     C62018   8.901   4.699   6.778  1.1710 -0.2604  1.0404
  460MOL0     C62019   8.474   4.616   6.857 -0.6904 -0.6252 -0.2871
  460MOL0     C62020   8.404   4.628   6.741 -0.0715  0.1992 -0.0307
  460MOL0     C62021   8.272   4.602   6.733 -0.0178  0.0007 -0.1637
  460MOL0     C62022   8.197   4.566   6.848 -0.4558  0.5622  1.2079
  460MOL0     O62023   8.067   4.534   6.848  0.5896 -0.3865 -0.7806
  460MOL0     C62024   7.971   4.572   6.745 -0.3460 -0.1767 -0.2933
  460MOL0     C62025   7.833   4.555   6.807  0.5805 -0.2815  0.1866
  460MOL0     C62026   7.715   4.587   6.712 -0.7671  0.3259  0.3553
  460MOL0     C62027   7.590   4.625   6.791  0.0852  0.0524  0.1122
  460MOL0     C62028   7.553   4.506   6.866  0.6142 -0.4158  0.1851
  460MOL0     C62029   7.539   4.406   6.930 -0.4088  0.7149  0.0354
  460MOL0     C62030   8.264   4.561   6.968 -0.0618 -0.7025  0.3901
  460MOL0     C62031   8.403   4.584   6.980 -0.6840 -0.7302 -0.2319
  460MOL0     C62032   8.469   4.588   7.121  0.2258 -0.6008 -0.0663
  460MOL0     H62033   8.791   4.453   6.572  0.0958 -2.6528  1.5152
  460MOL0     H62034   9.029   4.414   6.547  1.4302  0.1498  0.1561
  460MOL0     H62035   9.288   4.723   6.715 -1.6048 -0.1247  2.1923
  460MOL0     H62036   9.332   4.600   6.838  1.2342  1.0912 -0.0663
  460MOL0     H62037   9.456   4.604   6.558  1.2886 -0.9987 -0.4929
  460MOL0     H62038   9.490   4.503   6.700 -0.6058  1.0777  2.7449
  460MOL0     H62039   9.497   4.813   6.692 -0.6391 -0.7087 -2.6541
  460MOL0     H62040   9.644   4.721   6.648 -0.4501 -1.3633 -0.3234
  460MOL0     H62041   9.533   4.690   6.928  1.4872 -0.1399  0.7194
  460MOL0     H62042   9.658   4.611   6.833  0.6405  0.2572 -1.1451
  460MOL0     H62043   9.780   4.780   6.948 -2.1429 -1.4387  2.5349
  460MOL0     H62044   9.748   4.860   6.801 -2.2537  1.9255 -0.2672
  460MOL0     H62045   9.541   4.956   6.888  1.2836 -0.7838 -1.5217
  460MOL0     H62046   9.567   4.891   7.052  0.2870 -2.6164 -0.0368
  460MOL0     H62047   9.640   5.134   7.005 -1.8831 -1.0024 -1.7656
  460MOL0     H62048   9.762   5.068   6.889 -0.9249 -0.4473 -0.7817
  460MOL0     H62049   9.770   5.012   7.196  2.3590 -2.5748 -0.6223
  460MOL0     H62050   9.865   4.932   7.080 -1.9757 -0.9514 -1.9883
  460MOL0     H62051  10.041   5.086   6.933  0.2416 -1.1651  1.1922
  460MOL0     H62052  10.301   5.205   6.982 -1.9560 -1.0398 -1.2606
  460MOL0     H62053  10.208   5.318   6.899  0.5957  0.9051  0.2671
  460MOL0     H62054  10.327   5.380   7.180  0.2842  2.8757  0.4998
  460MOL0     H62055  10.411   5.409   7.048  1.2644 -0.2281  1.6806
  460MOL0     H62056  10.160   5.541   7.145 -1.5216 -0.0875 -0.5126
  460MOL0     H62057  10.181   5.540   6.970  2.4075  0.5892 -0.9839
  460MOL0     H62058  10.405   5.627   6.999  1.7542 -2.2929  1.1561
  460MOL0     H62059  10.407   5.623   7.167  1.6381 -2.3208 -0.9472
  460MOL0     H62060  10.187   6.005   7.055  0.1284  3.5927 -0.6691
  460MOL0     H62061  10.303   6.219   7.110 -3.4515 -1.6033 -2.4034
  460MOL0     H62062  10.647   6.507   7.138  0.0835 -1.9164  0.1071
  460MOL0     H62063  10.772   6.700   7.244  1.2861 -0.4054 -2.8854
  460MOL0     H62064  11.027   6.622   7.618 -2.0722  1.2496  0.1783
  460MOL0     H62065  11.105   6.594   7.468  2.7866  0.7671  2.1808
  460MOL0     H62066  11.144   6.846   7.443 -3.1167 -0.2716 -0.2553
  460MOL0     H62067  11.062   6.874   7.586  2.0372  2.5401 -0.8827
  460MOL0     H62068  11.309   6.865   7.607 -0.2822 -0.4605 -0.8645
  460MOL0     H62069  11.233   6.754   7.726 -0.8015  1.0004 -0.5446
  460MOL0     H62070  11.388   6.686   7.460  0.3282 -2.8998 -0.9764
  460MOL0     H62071  11.303   6.574   7.558  1.0950 -0.7481  0.2244
  460MOL0     H62072  11.528   6.552   7.635  4.0911  2.2056 -2.5546
  460MOL0     H62073  11.425   6.633   7.752 -1.7769 -2.2316 -0.8044
  460MOL0     H62074  11.622   6.760   7.547  0.7522  4.2650  0.5848
  460MOL0     H62075  11.523   6.860   7.638 -1.9708 -0.4775 -0.0954
  460MOL0     H62076  11.723   6.663   7.759 -0.4515 -0.6058 -1.6672
  460MOL0     H62077  11.622   6.795   7.845  1.1589 -1.7221  1.4159
  460MOL0     H62078  11.740   6.950   7.697 -1.4077 -0.9156 -1.0363
  460MOL0     H62079  11.839   6.882   7.825  2.4671 -0.9477 -0.9023
  460MOL0     H62080  10.939   6.444   7.534 -1.5262  1.3334  2.1153
  460MOL0     H62081  10.836   6.258   7.438  0.3259  0.9142  1.5136
  460MOL0     H62082  10.659   5.996   7.211  0.0399 -1.6835  0.2236
  460MOL0     H62083  10.546   5.784   7.156  1.6577 -0.7417 -1.6767
  460MOL0     H62084   9.103   4.757   6.805 -0.4595 -1.1530  1.7652
  460MOL0     H62085   8.863   4.778   6.841 -3.1676 -2.4628  1.5909
  460MOL0     H62086   8.453   4.652   6.647  0.4829  2.0440  0.6877
  460MOL0     H62087   8.217   4.613   6.640  0.1162  1.9536 -0.0410
  460MOL0     H62088   7.983   4.502   6.662  0.3194 -0.9397  0.4172
  460MOL0     H62089   7.985   4.672   6.704  0.9483 -0.0749  0.3425
  460MOL0     H62090   7.820   4.618   6.895 -0.3184  0.8588 -0.7377
  460MOL0     H62091   7.830   4.455   6.851  0.8544  1.3432  4.3550
  460MOL0     H62092   7.706   4.497   6.651 -0.4921  0.5736 -0.0599
  460MOL0     H62093   7.746   4.672   6.650 -0.9716  0.7567  0.8429
  460MOL0     H62094   7.603   4.720   6.843  0.8551 -0.5173  0.9847
  460MOL0     H62095   7.510   4.643   6.718 -0.4152  0.5134  0.7568
  460MOL0     H62096   7.515   4.326   6.998  0.3876  0.4557  0.0216
  460MOL0     H62097   8.208   4.540   7.059  0.0640 -1.2426  0.3456
  460MOL0     H62098   8.534   4.673   7.145  1.1222 -1.2408 -0.1516
  460MOL0     H62099   8.384   4.586   7.189  0.2644  0.2504  0.0247
  460MOL0     H62100   8.527   4.496   7.132 -1.4960 -1.8408 -1.0057
  461MOL0     O62101   1.540   9.306   6.919 -0.2084 -0.0664  0.6366
  461MOL0     C62102   1.529   9.184   6.940 -0.2565 -0.8024 -0.5409
  461MOL0     O62103   1.607   9.115   7.028 -0.0337 -0.2387  0.0416
  461MOL0     C62104   1.709   9.186   7.087  0.9124  0.3594  0.5064
  461MOL0     C62105   1.709   9.175   7.225 -0.3374 -1.1538 -0.1844
  461MOL0     C62106   1.816   9.231   7.306 -0.7742  0.1962  0.6052
  461MOL0     C62107   1.928   9.290   7.239  1.0830 -0.0105  0.5034
  461MOL0     O62108   2.053   9.321   7.295  0.1578 -0.2513 -0.0695
  461MOL0     C62109   2.040   9.367   7.428 -0.2308 -0.0945  0.2853
  461MOL0     C62110   2.179   9.420   7.466 -0.7597 -0.9410 -0.5358
  461MOL0     C62111   2.291   9.316   7.464  0.6653  0.2480 -0.2438
  461MOL0     C62112   2.423   9.361   7.525  0.2653  0.5206  0.0863
  461MOL0     C62113   2.527   9.247   7.529 -0.6502  1.1229  0.5576
  461MOL0     C62114   2.503   9.153   7.650  0.4758 -0.1714 -0.2349
  461MOL0     C62115   2.600   9.043   7.658  0.2580  0.0945 -0.7288
  461MOL0     C62116   2.616   8.976   7.798 -0.1407 -0.2905 -0.0283
  461MOL0     N62117   2.721   8.871   7.772  0.5674 -0.1908 -0.2022
  461MOL0     C62118   2.860   8.892   7.747  0.0861  0.1431  0.1129
  461MOL0     C62119   2.909   8.761   7.733  0.9140 -0.4321 -0.9724
  461MOL0     C62120   3.055   8.735   7.695  0.1651 -0.0131 -0.8696
  461MOL0     C62121   3.156   8.731   7.818  0.0808  0.0550  0.2191
  461MOL0     C62122   3.298   8.689   7.784  0.7873 -0.6016  0.1593
  461MOL0     C62123   3.379   8.674   7.909  0.3262 -0.4552  0.3204
  461MOL0     O62124   3.510   8.652   7.872 -0.1795  0.0843 -0.3990
  461MOL0     C62125   3.594   8.597   7.961 -0.0641  0.6836  0.3608
  461MOL0     C62126   3.555   8.551   8.092  0.3411 -0.6479  0.4861
  461MOL0     C62127   3.654   8.496   8.174  0.1859  1.0151  0.0859
  461MOL0     C62128   3.789   8.469   8.138  0.5429 -0.0394  0.3382
  461MOL0     C62129   3.877   8.393   8.230 -0.3992 -0.2175  0.7750
  461MOL0     O62130   4.000   8.349   8.165 -0.2795  0.0905 -0.0018
  461MOL0     C62131   4.088   8.267   8.230 -0.0976  0.4944 -0.2229
  461MOL0     C62132   4.123   8.281   8.369 -0.0977  0.0925 -0.7495
  461MOL0     C62133   4.198   8.184   8.431 -0.0558 -0.1149  0.4684
  461MOL0     C62134   4.257   8.079   8.363 -0.4934  0.4648  0.4621
  461MOL0     O62135   4.356   8.000   8.413 -0.0922 -0.5933  0.6469
  461MOL0     C62136   4.370   7.991   8.556 -0.0035  0.4497  0.3918
  461MOL0     C62137   4.462   7.869   8.581  0.0981  1.2086 -0.1787
  461MOL0     C62138   4.594   7.864   8.511  0.0619 -1.0095  0.2326
  461MOL0     C62139   4.675   7.731   8.507 -0.1796  0.0896  0.1392
  461MOL0     C62140   4.787   7.727   8.411 -1.0427 -0.2870  1.1303
  461MOL0     C62141   4.886   7.841   8.440 -0.4475  0.0072 -0.0103
  461MOL0     C62142   4.996   7.858   8.333  0.2288  1.0617  1.0215
  461MOL0     C62143   5.095   7.740   8.319 -0.3145 -0.4222 -0.5466
  461MOL0    Cl62144   5.256   7.811   8.262 -0.2541  0.0888  0.1421
  461MOL0     C62145   4.237   8.073   8.224  0.6327  0.7512 -0.2508
  461MOL0     C62146   4.150   8.167   8.158 -0.5307  0.4570 -0.8794
  461MOL0     O62147   3.843   8.378   8.354 -0.0084  0.0344  0.3173
  461MOL0     C62148   3.817   8.503   8.002 -0.4550  0.6513 -0.3377
  461MOL0     C62149   3.719   8.565   7.913 -0.1024  0.1687  0.2948
  461MOL0     N62150   2.811   8.669   7.760  0.8605 -0.3479  0.1923
  461MOL0     N62151   2.703   8.741   7.780  0.3467  0.1647 -0.4687
  461MOL0     C62152   1.918   9.298   7.098  0.3242 -0.0123  0.0471
  461MOL0     C62153   1.811   9.241   7.023 -0.4278  0.5180  0.6086
  461MOL0     C62154   1.407   9.117   6.885 -0.6178  0.0767  0.5115
  461MOL0     C62155   1.321   9.198   6.801 -0.0847  0.6407  0.1095
  461MOL0     C62156   1.201   9.144   6.751  0.2852  0.5200  0.2403
  461MOL0     C62157   1.160   9.011   6.775 -0.0217 -0.3554  0.7098
  461MOL0     O62158   1.047   8.949   6.742  0.8201 -0.9628  0.0174
  461MOL0     C62159   0.930   9.037   6.717 -0.5964  0.0646 -0.0583
  461MOL0     C62160   0.795   8.973   6.766 -0.1986 -0.1680  0.2168
  461MOL0     C62161   0.809   8.947   6.917  0.1330  0.2829 -0.0817
  461MOL0     C62162   0.681   8.880   6.980 -0.0456 -0.4099  0.6342
  461MOL0     C62163   0.711   8.832   7.114 -0.5461  0.8743  0.5525
  461MOL0     C62164   0.731   8.791   7.230 -0.7130  0.4811  1.4778
  461MOL0     C62165   1.240   8.944   6.863 -0.8283  0.5013 -0.1372
  461MOL0     C62166   1.361   8.990   6.913 -0.2697  0.6689  0.8571
  461MOL0     C62167   1.440   8.899   7.005  0.1847 -0.3932 -0.2550
  461MOL0     H62168   1.620   9.131   7.268  0.4273 -3.4508 -0.8204
  461MOL0     H62169   1.813   9.213   7.413  3.8566 -0.5001  0.7969
  461MOL0     H62170   1.967   9.448   7.439 -0.0331 -0.1088  1.9400
  461MOL0     H62171   2.021   9.291   7.504  2.1437  0.8672  1.9655
  461MOL0     H62172   2.178   9.479   7.558  1.6436 -0.3071 -0.8324
  461MOL0     H62173   2.200   9.500   7.394 -1.1260 -0.0539  0.3255
  461MOL0     H62174   2.306   9.288   7.359  1.5984  3.0818 -0.9598
  461MOL0     H62175   2.252   9.222   7.503 -0.5737  1.0745  0.6003
  461MOL0     H62176   2.461   9.442   7.460  2.0463 -1.4159 -1.4453
  461MOL0     H62177   2.409   9.403   7.625 -0.0743  1.4298 -0.3358
  461MOL0     H62178   2.521   9.184   7.439  1.1531  0.0797  1.1032
  461MOL0     H62179   2.624   9.296   7.515 -0.1256 -0.2133 -0.7020
  461MOL0     H62180   2.516   9.222   7.734 -0.0198  3.3164 -2.8020
  461MOL0     H62181   2.400   9.114   7.648  1.8722 -4.3355 -0.6258
  461MOL0     H62182   2.695   9.089   7.629  0.6296  0.0020  0.2939
  461MOL0     H62183   2.569   8.964   7.589  0.1483 -0.7949  0.3050
  461MOL0     H62184   2.646   9.049   7.874 -2.4256 -0.0353  0.6956
  461MOL0     H62185   2.520   8.930   7.825  0.3523 -2.6147 -1.8617
  461MOL0     H62186   2.916   8.983   7.734  1.7506 -1.2453 -4.0162
  461MOL0     H62187   3.060   8.643   7.636 -2.3124  0.2590 -1.5971
  461MOL0     H62188   3.078   8.818   7.627 -1.0607  0.7811 -0.3510
  461MOL0     H62189   3.159   8.826   7.873  2.7266  1.8511 -2.6356
  461MOL0     H62190   3.115   8.654   7.883 -1.2933  2.5975  2.5626
  461MOL0     H62191   3.347   8.769   7.728  1.1290 -1.5181 -0.8766
  461MOL0     H62192   3.301   8.600   7.720  1.8671 -0.5288  0.1009
  461MOL0     H62193   3.330   8.591   7.962 -1.0144 -1.7523 -2.7429
  461MOL0     H62194   3.369   8.764   7.971  1.6354 -0.3127  0.3716
  461MOL0     H62195   3.455   8.571   8.129  0.3979  0.3890  0.1137
  461MOL0     H62196   3.618   8.460   8.270  0.5078 -1.7462 -0.7162
  461MOL0     H62197   4.085   8.369   8.421 -0.6954 -0.9589  0.6785
  461MOL0     H62198   4.212   8.212   8.535  2.1713  1.2479 -0.1269
  461MOL0     H62199   4.415   8.082   8.598  3.7085 -1.7000  1.5048
  461MOL0     H62200   4.270   7.971   8.598 -0.7754  1.0247 -1.1199
  461MOL0     H62201   4.477   7.851   8.687 -1.3072  1.4990  0.0872
  461MOL0     H62202   4.399   7.790   8.538  2.1256  0.0206 -1.1140
  461MOL0     H62203   4.574   7.900   8.409  1.2993  0.1186  0.3599
  461MOL0     H62204   4.653   7.940   8.563  0.1096 -2.3404  2.2439
  461MOL0     H62205   4.614   7.645   8.478 -0.4719  0.5366 -0.6053
  461MOL0     H62206   4.720   7.717   8.605  2.5060 -0.2074 -1.0536
  461MOL0     H62207   4.733   7.742   8.317 -0.2393  0.4511  0.7723
  461MOL0     H62208   4.840   7.632   8.419  1.2080  0.9128  1.3641
  461MOL0     H62209   4.843   7.941   8.448  3.5401  1.8518  1.1013
  461MOL0     H62210   4.925   7.818   8.540 -1.5905 -0.9224  0.2531
  461MOL0     H62211   5.061   7.943   8.358 -0.2351  1.1996  1.7855
  461MOL0     H62212   4.952   7.883   8.236 -1.1587 -2.2362  0.6960
  461MOL0     H62213   5.110   7.683   8.411  0.0472 -0.8663 -0.8730
  461MOL0     H62214   5.053   7.662   8.256 -0.1167 -0.9103 -0.0809
  461MOL0     H62215   4.295   8.000   8.167  0.7428  1.4895 -1.1175
  461MOL0     H62216   4.131   8.164   8.051  0.0884  0.8525 -1.0070
  461MOL0     H62217   3.922   8.497   7.974  0.2572  0.3689  2.1395
  461MOL0     H62218   3.746   8.593   7.812 -0.2416 -1.4519 -0.2247
  461MOL0     H62219   2.001   9.322   7.032  0.7017  0.7823  0.7948
  461MOL0     H62220   1.824   9.227   6.917  1.8662 -2.1040  1.1181
  461MOL0     H62221   1.337   9.304   6.781 -1.2754  1.0862  1.3380
  461MOL0     H62222   1.140   9.201   6.682  1.5974 -0.6234 -1.9635
  461MOL0     H62223   0.924   9.053   6.609  2.0592  1.2137 -0.1190
  461MOL0     H62224   0.947   9.134   6.766  0.9608 -0.2232  0.0193
  461MOL0     H62225   0.767   8.887   6.705 -2.2779  1.6383 -1.5298
  461MOL0     H62226   0.708   9.031   6.735 -0.0552 -1.7456 -3.6568
  461MOL0     H62227   0.830   9.046   6.960  4.1117 -1.0092  1.3027
  461MOL0     H62228   0.895   8.884   6.940  0.7981  0.4602 -1.9864
  461MOL0     H62229   0.595   8.947   6.981 -1.0639 -1.6842  0.6685
  461MOL0     H62230   0.656   8.796   6.914 -0.7751  0.8201 -0.7076
  461MOL0     H62231   0.730   8.749   7.328 -0.8695 -2.1284  0.4196
  461MOL0     H62232   1.213   8.842   6.886  1.0247 -0.0115 -0.0725
  461MOL0     H62233   1.430   8.935   7.107  3.7960 -1.6735  0.7200
  461MOL0     H62234   1.392   8.801   7.007 -0.7978  0.0695 -0.7128
  461MOL0     H62235   1.545   8.897   6.973 -0.5771 -1.5588 -2.9915
  462MOL0     O62236   1.308   0.418  10.064 -0.1645  0.1209 -0.2771
  462MOL0     C62237   1.240   0.366  10.153 -0.5792 -0.4271 -0.6325
  462MOL0     O62238   1.300   0.308  10.265 -0.0419  0.7329 -0.3357
  462MOL0     C62239   1.430   0.322  10.282  0.3738  0.2615  1.0139
  462MOL0     C62240   1.501   0.441  10.267  0.0034 -0.4136 -0.6171
  462MOL0     C62241   1.639   0.442  10.293  1.0402 -0.6696  0.1488
  462MOL0     C62242   1.711   0.335  10.325  0.1656 -0.8494  0.1642
  462MOL0     O62243   1.842   0.344  10.361 -0.6598  0.2775  0.2876
  462MOL0     C62244   1.864   0.436  10.474 -0.2256 -0.0660 -0.0193
  462MOL0     C62245   1.956   0.549  10.430  0.1351  0.1560  0.5272
  462MOL0     C62246   2.100   0.499  10.402  0.4693 -0.2614 -0.1689
  462MOL0     C62247   2.197   0.622  10.378  0.4621  0.4122  0.1100
  462MOL0     C62248   2.330   0.557  10.359 -0.0333 -0.6354  0.0901
  462MOL0     C62249   2.438   0.663  10.337 -0.3137  0.1106 -0.7869
  462MOL0     C62250   2.447   0.773  10.451  0.5161  0.3605 -0.7922
  462MOL0     C62251   2.443   0.720  10.602 -0.0761 -0.6497  0.4847
  462MOL0     N62252   2.551   0.635  10.649 -0.2227  0.4784  0.3439
  462MOL0     C62253   2.661   0.687  10.725  0.1985  0.2222  0.6469
  462MOL0     C62254   2.758   0.589  10.709  0.1379 -0.3386 -0.5853
  462MOL0     C62255   2.903   0.609  10.741  0.1890 -0.3609  0.0420
  462MOL0     C62256   2.980   0.681  10.630  0.0920  0.1241  0.2803
  462MOL0     C62257   3.104   0.763  10.677  0.8671  0.2668 -1.1933
  462MOL0     C62258   3.211   0.669  10.725  0.1277  0.9613 -0.1058
  462MOL0     O62259   3.338   0.735  10.737 -0.1787  0.6639  0.4357
  462MOL0     C62260   3.450   0.663  10.760 -0.2715 -0.1124 -0.0201
  462MOL0     C62261   3.578   0.716  10.740  0.5135 -0.3777  1.0387
  462MOL0     C62262   3.697   0.647  10.737 -0.0825  1.1244  1.0491
  462MOL0     C62263   3.691   0.518  10.790  0.8533 -0.2502  0.2382
  462MOL0     C62264   3.814   0.437  10.811  0.0859  0.1713 -0.3068
  462MOL0     O62265   3.801   0.310  10.848  0.0705 -0.1287 -0.1664
  462MOL0     C62266   3.919   0.243  10.863  0.2336  0.0492 -0.1944
  462MOL0     C62267   3.978   0.176  10.760 -0.1040  1.3958  0.9809
  462MOL0     C62268   4.103   0.106  10.775 -0.0692 -0.7582 -1.1428
  462MOL0     C62269   4.160   0.102  10.904 -1.3522 -0.3438 -0.1031
  462MOL0     O62270   4.271   0.035  10.933  0.5445  0.6458  0.0618
  462MOL0     C62271   4.373   0.058  10.831  0.1672 -0.2323  0.4569
  462MOL0     C62272   4.508   0.026  10.885 -1.6681 -0.1070 -0.5374
  462MOL0     C62273   4.546   0.127  11.009 -0.4119 -0.0536  0.3833
  462MOL0     C62274   4.635   0.058  11.118  0.5561 -0.5053  0.1801
  462MOL0     C62275   4.671   0.132  11.241 -0.2634 -0.6807 -0.4148
  462MOL0     C62276   4.755   0.258  11.202  0.0743 -0.4887  0.0715
  462MOL0     C62277   4.834   0.284  11.338  0.7825  0.2611 -0.9683
  462MOL0     C62278   4.929   0.398  11.305 -0.2726 -0.1521 -0.3036
  462MOL0    Cl62279   5.020   0.439  11.459 -0.0875 -0.3583  0.1010
  462MOL0     C62280   4.096   0.162  11.014 -0.1902  0.0913  0.6179
  462MOL0     C62281   3.973   0.231  10.995 -0.0175  0.3564  0.6202
  462MOL0     O62282   3.922   0.498  10.787  0.2048  0.3235  0.0412
  462MOL0     C62283   3.566   0.463  10.816 -0.6671  0.3743 -1.1281
  462MOL0     C62284   3.449   0.524  10.797  0.0519  0.3268  0.1972
  462MOL0     N62285   2.700   0.479  10.640 -0.2916 -0.5524  0.5135
  462MOL0     N62286   2.586   0.511  10.597 -0.2482 -0.2136 -0.3224
  462MOL0     C62287   1.640   0.219  10.323 -0.3617 -0.0875 -0.3051
  462MOL0     C62288   1.502   0.209  10.315  0.0299  1.0088  0.2618
  462MOL0     C62289   1.091   0.371  10.143  0.3945 -0.9204 -0.6107
  462MOL0     C62290   1.024   0.462  10.053 -0.1477  0.4941  0.4406
  462MOL0     C62291   0.883   0.475  10.044 -0.2630 -0.0024 -0.0054
  462MOL0     C62292   0.801   0.399  10.122  0.4406 -0.0112 -0.1259
  462MOL0     O62293   0.661   0.416  10.122 -0.3556 -0.2558  0.9215
  462MOL0     C62294   0.601   0.539  10.076  0.6813  0.7532  0.7112
  462MOL0     C62295   0.459   0.536  10.114  0.4524  0.5267 -0.5366
  462MOL0     C62296   0.375   0.416  10.069 -0.7489  0.1674  0.0427
  462MOL0     C62297   0.222   0.437  10.100  0.8730 -0.2544  0.2994
  462MOL0     C62298   0.144   0.311  10.108 -0.0714 -0.6127  0.2037
  462MOL0     C62299   0.077   0.212  10.131 -0.0221 -0.0932 -0.3342
  462MOL0     C62300   0.862   0.323  10.222 -0.5568  0.0756  0.1151
  462MOL0     C62301   1.007   0.298  10.231  0.8641  0.7499 -0.0190
  462MOL0     C62302   1.042   0.186  10.340  0.3223  0.0017  1.0474
  462MOL0     H62303   1.453   0.533  10.236  0.8645 -0.1203 -1.1033
  462MOL0     H62304   1.689   0.539  10.291  1.2037 -0.6884  1.8594
  462MOL0     H62305   1.771   0.476  10.514 -1.3734 -0.8600 -1.8039
  462MOL0     H62306   1.920   0.392  10.558  0.0454 -0.5512 -0.4485
  462MOL0     H62307   1.962   0.635  10.496  0.6996  3.0017 -2.9561
  462MOL0     H62308   1.908   0.589  10.341  1.4294 -1.8576 -1.1738
  462MOL0     H62309   2.090   0.433  10.316  1.2087 -1.6533  0.7690
  462MOL0     H62310   2.133   0.429  10.480 -0.8312  0.5178  1.1283
  462MOL0     H62311   2.168   0.669  10.283  2.1789 -0.0947 -0.6906
  462MOL0     H62312   2.197   0.702  10.452  2.5521  2.6177 -2.0724
  462MOL0     H62313   2.355   0.496  10.447  1.0342 -0.6464 -0.1978
  462MOL0     H62314   2.326   0.496  10.268 -0.8619 -0.3173 -0.0909
  462MOL0     H62315   2.526   0.599  10.328 -0.5562 -0.3797  0.2072
  462MOL0     H62316   2.405   0.706  10.242 -0.1271  0.1256 -0.8464
  462MOL0     H62317   2.367   0.847  10.444  0.7740  0.5309 -2.4427
  462MOL0     H62318   2.540   0.826  10.425  1.1982 -1.6083 -2.6320
  462MOL0     H62319   2.451   0.806  10.669 -0.4136 -1.5515  1.7079
  462MOL0     H62320   2.345   0.683  10.634 -0.3977  2.4640  3.7959
  462MOL0     H62321   2.661   0.787  10.765 -1.8115  1.3713 -1.9476
  462MOL0     H62322   2.911   0.680  10.824 -2.7791  2.0708 -1.5521
  462MOL0     H62323   2.945   0.511  10.767 -1.1753 -1.2793 -1.0404
  462MOL0     H62324   3.010   0.609  10.553 -0.7121 -0.5807  0.5962
  462MOL0     H62325   2.921   0.758  10.579  1.3358 -0.3684 -2.0152
  462MOL0     H62326   3.072   0.838  10.749  4.5859 -1.8098  3.1099
  462MOL0     H62327   3.134   0.810  10.582 -0.3873  1.2597 -1.1268
  462MOL0     H62328   3.224   0.591  10.649  1.7858  1.6329 -0.5545
  462MOL0     H62329   3.192   0.642  10.829  2.2542  1.0407  0.3553
  462MOL0     H62330   3.584   0.820  10.710 -3.4189 -0.2930  0.0138
  462MOL0     H62331   3.794   0.687  10.708 -0.3653  1.1338  0.1145
  462MOL0     H62332   3.938   0.184  10.659  1.8729 -0.1403 -0.0039
  462MOL0     H62333   4.141   0.051  10.690  0.0582  0.0495 -1.6223
  462MOL0     H62334   4.348  -0.019  10.757  0.8897 -1.4684  1.4569
  462MOL0     H62335   4.384   0.155  10.783 -1.0680 -0.3175 -0.0443
  462MOL0     H62336   4.515  -0.073  10.930 -2.4113  0.3370  0.5866
  462MOL0     H62337   4.591   0.027  10.814 -1.7181  1.2292 -0.6011
  462MOL0     H62338   4.604   0.212  10.973  0.8540 -0.4196  1.4531
  462MOL0     H62339   4.456   0.166  11.057 -0.1823  0.0686  0.7185
  462MOL0     H62340   4.724   0.036  11.057  2.0245  0.9918  1.6780
  462MOL0     H62341   4.582  -0.026  11.163  0.7645 -0.1385  1.1410
  462MOL0     H62342   4.739   0.064  11.293 -0.7715 -0.3355  0.7442
  462MOL0     H62343   4.592   0.153  11.314 -1.6174 -2.4462 -1.2917
  462MOL0     H62344   4.822   0.250  11.116 -0.2911  3.3384 -0.7358
  462MOL0     H62345   4.677   0.329  11.173 -0.4789 -1.1414 -0.0652
  462MOL0     H62346   4.903   0.203  11.363  0.8853  0.4671 -0.5885
  462MOL0     H62347   4.779   0.308  11.429  2.9541 -0.1822  0.5243
  462MOL0     H62348   5.008   0.376  11.232  0.0198 -0.6856  0.1650
  462MOL0     H62349   4.878   0.486  11.265  0.0382 -0.4583 -1.3972
  462MOL0     H62350   4.137   0.160  11.115 -0.7849 -3.6899  0.9155
  462MOL0     H62351   3.931   0.292  11.075 -2.3183  3.3913 -2.6104
  462MOL0     H62352   3.566   0.360  10.852 -0.9682  1.0831  1.0040
  462MOL0     H62353   3.359   0.465  10.810  1.1331 -1.7407 -1.1394
  462MOL0     H62354   1.704   0.134  10.343  0.7142  0.9419  0.7137
  462MOL0     H62355   1.455   0.112  10.323  1.4956  0.3264  0.8296
  462MOL0     H62356   1.079   0.523   9.981 -3.0804  2.1716 -0.5568
  462MOL0     H62357   0.851   0.549   9.972 -0.2765  0.0427  0.0470
  462MOL0     H62358   0.605   0.535   9.967  1.0212  2.8931  0.5968
  462MOL0     H62359   0.648   0.632  10.110 -0.8479  2.6033 -1.8667
  462MOL0     H62360   0.402   0.625  10.086 -0.3672 -0.5407 -2.3705
  462MOL0     H62361   0.462   0.529  10.223  1.2633 -0.9161 -0.6298
  462MOL0     H62362   0.411   0.327  10.120  0.0274  2.2695  3.5167
  462MOL0     H62363   0.396   0.396   9.963  0.8995  0.7629  0.2178
  462MOL0     H62364   0.200   0.484  10.196  2.3406 -1.7801  1.4409
  462MOL0     H62365   0.184   0.504  10.022  0.8641  0.3260  0.8027
  462MOL0     H62366   0.016   0.124  10.134  0.8780 -0.7399 -0.6138
  462MOL0     H62367   0.792   0.278  10.292 -0.7457 -0.4534 -0.4084
  462MOL0     H62368   1.048   0.229  10.441  0.3797 -0.5831  1.2935
  462MOL0     H62369   0.959   0.116  10.325 -0.8488  0.8551  3.1169
  462MOL0     H62370   1.132   0.130  10.314 -3.2168 -5.2398 -1.6088
  463MOL0     O62371   1.263   0.979   3.577  0.2051  0.9842 -0.4322
  463MOL0     C62372   1.241   1.100   3.589  0.4843  0.7016 -0.2163
  463MOL0     O62373   1.338   1.198   3.619  0.5476 -0.4066 -0.0786
  463MOL0     C62374   1.464   1.147   3.618  0.5332 -0.5179 -1.4190
  463MOL0     C62375   1.519   1.108   3.743 -0.3448  0.2976 -0.1732
  463MOL0     C62376   1.653   1.068   3.744  0.6177 -0.1739 -0.5797
  463MOL0     C62377   1.728   1.062   3.628 -1.0653  0.3897  1.0064
  463MOL0     O62378   1.853   1.004   3.637  0.2666 -0.0521  0.4534
  463MOL0     C62379   1.957   1.102   3.651 -0.1023 -0.1150  0.7406
  463MOL0     C62380   2.079   1.034   3.727  0.5021  0.4125  0.1466
  463MOL0     C62381   2.193   1.134   3.718  0.6008 -0.3127  0.4590
  463MOL0     C62382   2.319   1.087   3.798 -0.2118 -0.0444 -0.2230
  463MOL0     C62383   2.435   1.180   3.792 -0.1894  0.6421 -0.4506
  463MOL0     C62384   2.555   1.132   3.879 -0.3142 -0.0060 -0.0243
  463MOL0     C62385   2.674   1.232   3.858 -0.2388  0.3277 -0.5566
  463MOL0     C62386   2.644   1.379   3.879  0.2704  0.5302  0.8996
  463MOL0     N62387   2.754   1.472   3.898  0.7223  0.2400  0.2841
  463MOL0     C62388   2.856   1.474   3.815 -0.3531 -0.3759  0.1719
  463MOL0     C62389   2.936   1.567   3.863  0.0960 -0.2914  0.5725
  463MOL0     C62390   3.072   1.620   3.806  0.3232 -0.3267  0.5625
  463MOL0     C62391   3.192   1.556   3.871  0.2568 -0.6183  0.3402
  463MOL0     C62392   3.327   1.606   3.805  0.1091 -0.5873  0.2297
  463MOL0     C62393   3.453   1.583   3.890 -0.9041  0.2778  0.0473
  463MOL0     O62394   3.559   1.652   3.814  0.7577  0.6085  0.3468
  463MOL0     C62395   3.683   1.679   3.863 -0.2280  0.2387  0.1978
  463MOL0     C62396   3.783   1.713   3.770  0.1290  0.3528  0.4816
  463MOL0     C62397   3.918   1.735   3.814  2.0284 -0.2496  0.3317
  463MOL0     C62398   3.944   1.719   3.949 -0.2640 -0.0613 -0.4100
  463MOL0     C62399   4.084   1.740   3.988  0.2308  0.9910  0.2905
  463MOL0     O62400   4.178   1.728   3.895  0.4221  0.0553  0.3414
  463MOL0     C62401   4.299   1.779   3.918 -0.7331 -0.1967 -0.0999
  463MOL0     C62402   4.384   1.717   4.018  0.1859 -0.6462  0.1650
  463MOL0     C62403   4.507   1.776   4.041 -1.1359 -1.4214  0.3809
  463MOL0     C62404   4.561   1.885   3.963  1.1131 -0.7843 -0.4342
  463MOL0     O62405   4.669   1.954   4.002  0.0946  0.1843 -0.0999
  463MOL0     C62406   4.793   1.882   3.989 -0.0972  0.1733 -0.2834
  463MOL0     C62407   4.807   1.826   3.846  0.7907  0.0586  0.0236
  463MOL0     C62408   4.949   1.771   3.820 -0.3939  0.4532 -0.0309
  463MOL0     C62409   5.064   1.882   3.822  0.0943 -0.9796 -0.1041
  463MOL0     C62410   5.203   1.819   3.798 -0.5730 -0.2344  0.0992
  463MOL0     C62411   5.306   1.921   3.837  0.6173  0.7732 -0.3291
  463MOL0     C62412   5.453   1.894   3.796  1.1616  0.8327  0.1053
  463MOL0     C62413   5.517   1.764   3.862  0.0086  0.7046  1.0705
  463MOL0    Cl62414   5.536   1.786   4.042 -0.0886  0.4831  0.0876
  463MOL0     C62415   4.475   1.937   3.864 -0.4187  0.2884 -0.5699
  463MOL0     C62416   4.349   1.884   3.845  0.3911  0.3494  0.2003
  463MOL0     O62417   4.104   1.755   4.111  0.5680 -0.5284  0.6737
  463MOL0     C62418   3.845   1.680   4.045 -0.1170  0.4465  0.2692
  463MOL0     C62419   3.715   1.664   3.999 -0.3969 -0.0505  0.5107
  463MOL0     N62420   2.880   1.610   3.987 -0.0365 -0.5083  0.6489
  463MOL0     N62421   2.770   1.550   3.999  0.1035  0.3129 -0.3059
  463MOL0     C62422   1.674   1.098   3.509 -0.4404  0.2215 -0.1870
  463MOL0     C62423   1.543   1.146   3.504 -0.0019  0.0035 -0.5015
  463MOL0     C62424   1.110   1.146   3.545  0.0561  0.1049 -0.4422
  463MOL0     C62425   1.105   1.284   3.536  1.3070 -0.7141  0.4485
  463MOL0     C62426   0.983   1.352   3.530 -0.5770 -0.5639 -0.0360
  463MOL0     C62427   0.861   1.275   3.517 -0.8881 -0.4197  0.6736
  463MOL0     O62428   0.748   1.349   3.506  0.2084  0.9638  0.3756
  463MOL0     C62429   0.617   1.283   3.493 -0.8592 -0.5020  0.0545
  463MOL0     C62430   0.504   1.384   3.462  0.1695 -0.6670  0.0415
  463MOL0     C62431   0.493   1.418   3.309  0.9694  0.8225 -0.6897
  463MOL0     C62432   0.392   1.529   3.293  0.9711  0.3094  0.8698
  463MOL0     C62433   0.256   1.468   3.297  0.4732  0.1576  0.5210
  463MOL0     C62434   0.134   1.436   3.301 -0.8609  0.2643  0.1955
  463MOL0     C62435   0.868   1.135   3.529  0.2090 -0.8485  0.0197
  463MOL0     C62436   0.991   1.071   3.537  0.1491 -0.0468 -0.4765
  463MOL0     C62437   0.994   0.919   3.533 -0.1691  0.0139  0.7888
  463MOL0     H62438   1.469   1.107   3.839  0.8029  1.5449  0.4788
  463MOL0     H62439   1.699   1.034   3.836  1.6787  1.5039 -0.4420
  463MOL0     H62440   1.986   1.126   3.549  0.0149  0.0435  0.8102
  463MOL0     H62441   1.923   1.189   3.708  0.3134 -1.0613  2.5218
  463MOL0     H62442   2.108   0.937   3.687 -2.6120 -1.7096  2.5697
  463MOL0     H62443   2.058   1.020   3.834  1.5066  2.7143  0.7161
  463MOL0     H62444   2.156   1.233   3.748  0.2854  0.0301 -0.9616
  463MOL0     H62445   2.223   1.144   3.613 -1.5185  1.2589 -0.0869
  463MOL0     H62446   2.285   1.067   3.900 -0.6173 -2.5104 -0.7721
  463MOL0     H62447   2.348   0.991   3.753 -0.3629  0.8736 -2.3964
  463MOL0     H62448   2.483   1.191   3.694  0.9789  2.2866  0.2642
  463MOL0     H62449   2.401   1.277   3.829  2.2078  1.2517  0.3108
  463MOL0     H62450   2.525   1.130   3.984 -2.5626 -2.3817 -0.5985
  463MOL0     H62451   2.569   1.028   3.851 -1.2056 -0.1995  0.2136
  463MOL0     H62452   2.715   1.225   3.757  1.1523  1.9158 -0.1392
  463MOL0     H62453   2.759   1.205   3.922  0.6594  0.5706 -1.5993
  463MOL0     H62454   2.590   1.420   3.793  1.3916 -0.5051 -0.3550
  463MOL0     H62455   2.582   1.384   3.969 -3.7394  1.1272 -1.6457
  463MOL0     H62456   2.863   1.411   3.726 -0.3597 -1.2074  0.7484
  463MOL0     H62457   3.069   1.613   3.697 -0.6101 -1.0980  0.6174
  463MOL0     H62458   3.078   1.726   3.833 -0.4062 -0.0657 -0.2494
  463MOL0     H62459   3.192   1.582   3.977 -2.6152  0.0906  0.2403
  463MOL0     H62460   3.195   1.448   3.854  0.9181 -0.4792 -0.4988
  463MOL0     H62461   3.321   1.715   3.796  3.5325 -0.4454 -3.3912
  463MOL0     H62462   3.336   1.577   3.699 -2.0993 -3.3379  0.6663
  463MOL0     H62463   3.493   1.482   3.894  3.3975  1.7869  0.7732
  463MOL0     H62464   3.442   1.618   3.993 -0.2969  0.1653  0.1553
  463MOL0     H62465   3.770   1.720   3.663  0.5023  0.4977  0.4427
  463MOL0     H62466   3.985   1.770   3.736 -1.2217  0.5970 -2.2951
  463MOL0     H62467   4.353   1.630   4.075  0.2988 -0.2712  0.8049
  463MOL0     H62468   4.556   1.733   4.128 -1.3341 -1.1280  0.6364
  463MOL0     H62469   4.877   1.943   4.023  0.2688 -0.0606 -0.7556
  463MOL0     H62470   4.803   1.793   4.052 -0.3584 -0.5879 -1.2885
  463MOL0     H62471   4.738   1.747   3.817 -0.5851  2.2841 -3.4248
  463MOL0     H62472   4.784   1.907   3.776 -1.5023 -1.4970 -1.1155
  463MOL0     H62473   4.969   1.688   3.888  1.0472 -1.1794 -2.2827
  463MOL0     H62474   4.937   1.721   3.723  0.3919 -1.8783  0.9858
  463MOL0     H62475   5.074   1.915   3.926  2.4482 -1.0713 -0.2557
  463MOL0     H62476   5.050   1.963   3.751  5.8391 -0.3387 -0.9396
  463MOL0     H62477   5.216   1.799   3.691  0.2421  0.4773  0.0570
  463MOL0     H62478   5.206   1.729   3.860 -0.7976 -1.6333 -1.8384
  463MOL0     H62479   5.275   2.010   3.780 -0.4980 -1.1832 -2.9724
  463MOL0     H62480   5.303   1.940   3.945  0.6252 -0.8306 -0.0305
  463MOL0     H62481   5.511   1.986   3.809  1.1705  0.8283  0.0976
  463MOL0     H62482   5.453   1.885   3.687  0.9713 -0.8932  0.2191
  463MOL0     H62483   5.463   1.671   3.839  3.0163 -1.2980  1.4986
  463MOL0     H62484   5.618   1.765   3.820  0.1118  0.5519  1.3157
  463MOL0     H62485   4.516   2.015   3.800  0.6194  0.2135 -0.0105
  463MOL0     H62486   4.285   1.937   3.774 -0.6277  1.9192  2.1816
  463MOL0     H62487   3.868   1.670   4.151 -1.7339  0.3267  0.6289
  463MOL0     H62488   3.648   1.623   4.074  2.2307 -2.8912  1.5228
  463MOL0     H62489   1.729   1.072   3.420 -1.1000  0.5246 -0.6952
  463MOL0     H62490   1.509   1.187   3.409 -0.5170  1.1600  0.1615
  463MOL0     H62491   1.193   1.347   3.541  1.1177 -0.2271 -1.5387
  463MOL0     H62492   0.965   1.459   3.534  1.6649  0.0543 -3.0942
  463MOL0     H62493   0.593   1.229   3.585 -2.0843  1.0864  0.7154
  463MOL0     H62494   0.627   1.218   3.405  0.4208 -2.3281  1.4682
  463MOL0     H62495   0.515   1.476   3.520  0.9454 -0.4854 -0.3730
  463MOL0     H62496   0.416   1.326   3.491  1.0442 -1.6555  0.7923
  463MOL0     H62497   0.476   1.330   3.246 -0.1129 -0.7274  1.6154
  463MOL0     H62498   0.591   1.457   3.280  0.8973  1.3071 -0.3029
  463MOL0     H62499   0.407   1.613   3.361  0.5139  0.9446  0.1993
  463MOL0     H62500   0.400   1.562   3.189  1.1336 -0.8040  0.5082
  463MOL0     H62501   0.030   1.421   3.319 -0.8289  0.6033  0.6917
  463MOL0     H62502   0.775   1.078   3.525  0.6172 -1.5147 -0.1821
  463MOL0     H62503   1.042   0.882   3.623  0.0238 -1.9759 -0.0718
  463MOL0     H62504   0.894   0.877   3.519 -0.5451  0.5286  1.8947
  463MOL0     H62505   1.045   0.879   3.444  0.5816 -2.3852  2.2210
  464MOL0     O62506   8.812   3.090   5.588  0.1657 -0.4974 -0.0788
  464MOL0     C62507   8.803   2.996   5.664  0.7856  0.6988 -0.3204
  464MOL0     O62508   8.901   2.939   5.735 -0.2853 -0.2942 -0.6812
  464MOL0     C62509   9.030   2.954   5.700 -0.3740  0.4106 -0.1128
  464MOL0     C62510   9.080   2.854   5.614  0.0023  0.5956  0.2126
  464MOL0     C62511   9.214   2.866   5.562 -0.7149 -1.1737 -0.2678
  464MOL0     C62512   9.291   2.983   5.583  0.2190  0.1052 -0.4139
  464MOL0     O62513   9.419   2.996   5.526 -0.5810  0.8047 -0.5112
  464MOL0     C62514   9.527   3.067   5.583  0.8058 -0.1526 -0.1399
  464MOL0     C62515   9.619   2.981   5.670  0.3454  0.3408  1.0401
  464MOL0     C62516   9.752   3.032   5.693 -0.1276 -0.0774  0.3724
  464MOL0     C62517   9.825   2.935   5.774  0.4037 -0.8463 -0.4514
  464MOL0     C62518   9.977   2.944   5.771 -0.2529  0.1893 -0.2546
  464MOL0     C62519  10.035   2.864   5.889 -0.5248 -0.7203  0.0996
  464MOL0     C62520  10.182   2.839   5.877  0.0315 -0.3531  0.1256
  464MOL0     C62521  10.250   2.801   6.004 -0.0465  0.0556  0.9708
  464MOL0     N62522  10.284   2.927   6.075  1.1302 -0.1869 -0.7087
  464MOL0     C62523  10.403   3.002   6.065 -0.0011  0.5333  0.9602
  464MOL0     C62524  10.410   3.079   6.167  1.5481  0.0076 -0.0177
  464MOL0     C62525  10.509   3.185   6.196 -0.1103 -0.3089  0.1321
  464MOL0     C62526  10.639   3.142   6.144  0.0005  0.2433 -1.1712
  464MOL0     C62527  10.749   3.232   6.186 -0.6168 -0.4071 -1.0072
  464MOL0     C62528  10.798   3.198   6.326 -0.2251 -0.1681  0.1150
  464MOL0     O62529  10.821   3.322   6.398  0.1189 -0.0726 -0.3173
  464MOL0     C62530  10.939   3.384   6.412 -0.5109 -0.1023 -0.4048
  464MOL0     C62531  11.061   3.328   6.371  0.4897 -0.5889  1.0310
  464MOL0     C62532  11.186   3.385   6.383 -0.6595 -0.2735  0.3071
  464MOL0     C62533  11.192   3.516   6.437 -0.6748 -0.5645  0.8651
  464MOL0     C62534  11.322   3.589   6.462  1.1786  0.1053  0.4693
  464MOL0     O62535  11.422   3.540   6.386  0.5129 -0.3169 -0.7127
  464MOL0     C62536  11.545   3.608   6.380 -0.0584  0.5898  0.1931
  464MOL0     C62537  11.561   3.751   6.383  0.1437 -0.3079  0.6375
  464MOL0     C62538  11.691   3.803   6.374  0.2483 -0.2367 -0.6234
  464MOL0     C62539  11.800   3.715   6.356 -0.2133 -0.0407 -0.1011
  464MOL0     O62540  11.925   3.758   6.359 -0.2857  0.4818  0.2942
  464MOL0     C62541  11.947   3.894   6.421 -0.7599 -0.1874  0.0870
  464MOL0     C62542  12.086   3.921   6.481  0.4596 -0.1036 -0.0609
  464MOL0     C62543  12.196   3.933   6.381  0.1484 -0.5401 -1.2867
  464MOL0     C62544  12.329   3.911   6.450 -0.3148  0.2397  0.1551
  464MOL0     C62545  12.446   3.944   6.361  0.3014  0.0415  0.0727
  464MOL0     C62546  12.574   3.898   6.423 -0.1257  1.0627 -0.0368
  464MOL0     C62547  12.695   3.930   6.355  0.5227 -0.3565 -0.2960
  464MOL0     C62548  12.811   3.856   6.416  0.6702 -0.7565  0.0201
  464MOL0    Cl62549  12.822   3.899   6.588  0.3659  0.0956 -0.5819
  464MOL0     C62550  11.782   3.581   6.353 -0.0799 -0.3632 -0.3950
  464MOL0     C62551  11.656   3.523   6.362 -0.6021 -0.4115  0.6916
  464MOL0     O62552  11.328   3.680   6.541  0.1230 -0.2711 -0.0475
  464MOL0     C62553  11.073   3.571   6.492 -0.0982 -0.0237 -0.0491
  464MOL0     C62554  10.952   3.504   6.478  0.5035 -0.3008 -0.4382
  464MOL0     N62555  10.310   3.042   6.252  0.1877 -0.0481 -0.0319
  464MOL0     N62556  10.233   2.957   6.202  0.2996 -0.1065 -0.9591
  464MOL0     C62557   9.238   3.068   5.680  0.2101 -0.8841 -0.9121
  464MOL0     C62558   9.111   3.058   5.736  0.1874  0.1913 -0.3989
  464MOL0     C62559   8.667   2.972   5.716 -0.3911  0.4439 -0.8765
  464MOL0     C62560   8.655   2.938   5.853  0.8036 -0.0660  0.4618
  464MOL0     C62561   8.532   2.920   5.913  0.0877 -0.3020 -0.2436
  464MOL0     C62562   8.419   2.924   5.829  0.6933 -0.0397  0.2621
  464MOL0     O62563   8.303   2.885   5.892  0.3960  0.8723  0.1832
  464MOL0     C62564   8.175   2.919   5.826  0.5966 -0.3622  0.2524
  464MOL0     C62565   8.062   2.873   5.915  0.3276 -0.0260  0.6892
  464MOL0     C62566   7.932   2.922   5.846  1.2457 -0.5302  0.3643
  464MOL0     C62567   7.814   2.869   5.919  0.4669 -0.4099 -0.3178
  464MOL0     C62568   7.693   2.921   5.855 -0.1718  0.3904 -0.5723
  464MOL0     C62569   7.588   2.956   5.814  0.9670 -1.4124 -0.2348
  464MOL0     C62570   8.430   2.944   5.692 -0.3461 -0.5767  0.6393
  464MOL0     C62571   8.555   2.958   5.628  0.5001 -0.0838 -0.0777
  464MOL0     C62572   8.564   2.963   5.479 -0.9620  0.6554  0.8234
  464MOL0     H62573   9.010   2.776   5.585  2.5774 -1.8997  0.1921
  464MOL0     H62574   9.264   2.785   5.510 -0.9230 -2.9456  2.1246
  464MOL0     H62575   9.575   3.108   5.494 -1.4966  0.4034 -1.1990
  464MOL0     H62576   9.490   3.155   5.636  1.5944  1.3988 -2.0289
  464MOL0     H62577   9.615   2.880   5.628 -1.8747 -1.1319  4.3373
  464MOL0     H62578   9.566   2.969   5.765 -0.8892 -1.7752  0.1418
  464MOL0     H62579   9.759   3.130   5.741 -0.4487 -0.1399  0.5453
  464MOL0     H62580   9.807   3.045   5.599 -0.2924 -0.7780  0.1739
  464MOL0     H62581   9.785   2.961   5.872  2.2860  0.1696  0.0988
  464MOL0     H62582   9.793   2.831   5.760 -2.7714 -0.0248  0.0377
  464MOL0     H62583  10.020   2.914   5.675  4.4369  0.0968  1.6402
  464MOL0     H62584   9.993   3.051   5.788 -0.8017  0.9082 -3.5485
  464MOL0     H62585  10.011   2.921   5.979  2.9650  2.4078 -0.6515
  464MOL0     H62586   9.994   2.763   5.887  0.2037 -1.0974  1.9188
  464MOL0     H62587  10.234   2.926   5.834 -0.8963  0.9219  1.4642
  464MOL0     H62588  10.193   2.757   5.806 -2.4376 -0.9055  0.2937
  464MOL0     H62589  10.203   2.731   6.074  0.7903 -0.8138  0.6922
  464MOL0     H62590  10.341   2.744   5.982 -0.7342 -1.3119  1.5500
  464MOL0     H62591  10.487   3.000   5.997 -0.4663  2.6715  0.2678
  464MOL0     H62592  10.478   3.283   6.157 -0.8528  0.0833  1.6364
  464MOL0     H62593  10.516   3.199   6.304 -1.9309 -1.6923  0.4721
  464MOL0     H62594  10.657   3.040   6.179 -1.4847 -0.4871 -2.4639
  464MOL0     H62595  10.638   3.142   6.034 -1.9549  2.3720 -1.2354
  464MOL0     H62596  10.722   3.338   6.177  1.6163  0.1857 -1.2331
  464MOL0     H62597  10.834   3.225   6.118 -0.8239 -0.2743 -1.2818
  464MOL0     H62598  10.887   3.137   6.310  0.1984  0.2550  0.7767
  464MOL0     H62599  10.720   3.144   6.379 -3.0992  3.6155  0.2001
  464MOL0     H62600  11.063   3.226   6.332 -0.8839 -0.1160 -0.3886
  464MOL0     H62601  11.274   3.331   6.349 -0.9764 -0.2847 -0.5337
  464MOL0     H62602  11.472   3.811   6.396  1.0206  1.2128 -0.1173
  464MOL0     H62603  11.692   3.911   6.379  2.2332 -0.2438 -0.0942
  464MOL0     H62604  11.937   3.975   6.348  0.7833  1.1397  1.2896
  464MOL0     H62605  11.876   3.913   6.502  1.1611 -1.8295  2.2623
  464MOL0     H62606  12.084   4.020   6.528  1.4344  0.2114 -0.6576
  464MOL0     H62607  12.098   3.846   6.560 -4.2512  0.0426  1.1030
  464MOL0     H62608  12.177   3.856   6.305  0.9146 -0.9889 -1.0410
  464MOL0     H62609  12.194   4.030   6.331  1.3728  0.2366  0.0919
  464MOL0     H62610  12.333   3.804   6.473 -0.4866 -0.0749 -1.2015
  464MOL0     H62611  12.334   3.948   6.553 -2.3793  2.1112 -0.3546
  464MOL0     H62612  12.456   4.051   6.340  1.0776  0.1904  1.1408
  464MOL0     H62613  12.425   3.897   6.264 -0.2935  1.1035 -0.3372
  464MOL0     H62614  12.575   3.942   6.524 -1.0666  2.0122 -0.4275
  464MOL0     H62615  12.567   3.792   6.449 -0.1666  1.3584  1.2696
  464MOL0     H62616  12.707   4.038   6.357 -0.0312 -0.2819 -0.7737
  464MOL0     H62617  12.683   3.901   6.251  1.6603  1.8649 -1.1004
  464MOL0     H62618  12.794   3.748   6.414  1.1149 -0.8276  0.1552
  464MOL0     H62619  12.903   3.879   6.363 -0.4212  3.2930 -0.4549
  464MOL0     H62620  11.868   3.515   6.349 -0.1186 -0.7323  2.5780
  464MOL0     H62621  11.641   3.416   6.372  0.3586 -0.4377  2.0204
  464MOL0     H62622  11.055   3.670   6.532 -1.6330 -0.3275  0.0782
  464MOL0     H62623  10.862   3.545   6.522  0.0202 -1.2260 -0.5299
  464MOL0     H62624   9.293   3.160   5.701 -1.2301  0.2199 -1.8430
  464MOL0     H62625   9.060   3.128   5.802  0.7311 -0.3000  0.5779
  464MOL0     H62626   8.744   2.932   5.915  0.7927  5.1996  1.5137
  464MOL0     H62627   8.522   2.889   6.016 -0.6233  1.0757  0.1247
  464MOL0     H62628   8.156   2.887   5.723 -3.5077  2.8294 -0.2431
  464MOL0     H62629   8.159   3.027   5.827  2.7526 -0.0001 -0.1328
  464MOL0     H62630   8.073   2.920   6.013  0.7615  0.1755  0.5459
  464MOL0     H62631   8.045   2.764   5.914  0.8527 -0.2025 -2.9937
  464MOL0     H62632   7.937   2.889   5.742 -1.1010  0.5982 -0.1676
  464MOL0     H62633   7.935   3.031   5.852 -2.0277 -0.3732  0.8009
  464MOL0     H62634   7.816   2.760   5.910 -1.0176 -0.6620  1.7668
  464MOL0     H62635   7.802   2.901   6.023  0.9606  0.3595 -0.4855
  464MOL0     H62636   7.491   2.987   5.781  1.7000  0.4874 -0.7375
  464MOL0     H62637   8.346   2.943   5.623  0.9948 -2.4226 -1.0684
  464MOL0     H62638   8.520   3.059   5.451 -2.1274 -0.4141 -1.3205
  464MOL0     H62639   8.668   2.956   5.444 -1.5280  1.5633 -1.2302
  464MOL0     H62640   8.506   2.887   5.425  1.0578 -0.6405  0.3827
  465MOL0     O62641   6.123   9.968   4.972 -0.5858 -0.3670  0.0030
  465MOL0     C62642   6.062  10.064   4.930 -0.1237 -0.6205 -0.1184
  465MOL0     O62643   6.117  10.174   4.861  0.1685  0.1764  0.6324
  465MOL0     C62644   6.246  10.181   4.835 -0.9406  0.1865 -1.0552
  465MOL0     C62645   6.292  10.230   4.716  0.1496 -0.4418  0.0930
  465MOL0     C62646   6.426  10.233   4.677 -0.0563  0.4941 -0.1467
  465MOL0     C62647   6.520  10.206   4.773  1.1403  0.0608 -0.1377
  465MOL0     O62648   6.653  10.202   4.745 -0.0801  0.2646  0.1830
  465MOL0     C62649   6.706  10.220   4.609 -0.4035  0.2634 -0.1157
  465MOL0     C62650   6.738  10.374   4.604 -0.0546  1.1727 -0.3785
  465MOL0     C62651   6.796  10.425   4.470  0.2424 -0.0052  0.3624
  465MOL0     C62652   6.948  10.388   4.476  0.7392  0.5422  0.8572
  465MOL0     C62653   6.996  10.374   4.335  0.3371 -0.6117  0.5191
  465MOL0     C62654   7.138  10.312   4.336  0.0426 -0.6296  0.4490
  465MOL0     C62655   7.210  10.346   4.199 -1.3068  0.5575 -0.3716
  465MOL0     C62656   7.362  10.324   4.212  0.4451  1.0925  0.2661
  465MOL0     N62657   7.438  10.346   4.089 -0.0823 -0.0621 -0.7062
  465MOL0     C62658   7.493  10.471   4.050 -0.5210 -0.9556 -0.4418
  465MOL0     C62659   7.584  10.438   3.954 -0.5959  0.2242 -1.1863
  465MOL0     C62660   7.675  10.524   3.884 -0.5694 -0.1201 -0.6153
  465MOL0     C62661   7.779  10.602   3.975  0.4915 -0.5048  0.4239
  465MOL0     C62662   7.880  10.684   3.889  0.2012 -0.1828  0.1617
  465MOL0     C62663   7.992  10.745   3.968 -0.6708 -0.1010 -0.0140
  465MOL0     O62664   8.060  10.640   4.043  0.2527  0.1813 -0.4715
  465MOL0     C62665   8.179  10.665   4.098  0.0641 -0.0471  0.2107
  465MOL0     C62666   8.233  10.790   4.115 -0.8240 -1.0260  0.4496
  465MOL0     C62667   8.365  10.803   4.162 -0.0657 -0.6434 -0.0710
  465MOL0     C62668   8.442  10.691   4.199 -0.5611  0.5880 -0.9553
  465MOL0     C62669   8.588  10.714   4.233 -0.6448 -0.5366  0.0858
  465MOL0     O62670   8.678  10.611   4.215  1.0959 -0.0507  0.6382
  465MOL0     C62671   8.812  10.611   4.253  0.3128  0.1589  0.4867
  465MOL0     C62672   8.866  10.674   4.367  0.1297  0.0727  0.0319
  465MOL0     C62673   9.006  10.667   4.390  0.3852 -0.1791  0.4342
  465MOL0     C62674   9.090  10.609   4.303 -0.0016  1.1383  1.3845
  465MOL0     O62675   9.226  10.608   4.320 -0.1333  0.7745  0.2207
  465MOL0     C62676   9.305  10.705   4.397  0.2746 -0.2780 -0.1111
  465MOL0     C62677   9.429  10.740   4.315  0.2704  0.4606  0.0973
  465MOL0     C62678   9.549  10.651   4.294 -0.0716 -0.6530  0.2387
  465MOL0     C62679   9.536  10.546   4.187 -0.2542 -0.8620 -0.0083
  465MOL0     C62680   9.658  10.462   4.187  0.0160 -0.5922 -0.4256
  465MOL0     C62681   9.648  10.355   4.078 -0.2916  0.6496  0.6069
  465MOL0     C62682   9.757  10.247   4.084 -0.5548 -0.1751 -0.0208
  465MOL0     C62683   9.764  10.171   3.950  0.4633 -0.7505  0.8373
  465MOL0    Cl62684   9.893  10.045   3.956 -0.7908 -0.5994 -0.4540
  465MOL0     C62685   9.043  10.542   4.185  0.1571 -0.2146 -0.6435
  465MOL0     C62686   8.901  10.536   4.172  0.4838 -0.3908  0.0500
  465MOL0     O62687   8.621  10.829   4.285  0.4946  1.1611  0.3501
  465MOL0     C62688   8.390  10.562   4.181  1.3575 -0.2760  0.4615
  465MOL0     C62689   8.251  10.554   4.132 -0.0904  0.8277 -0.4893
  465MOL0     N62690   7.580  10.299   3.938  0.0023 -0.1170 -0.5880
  465MOL0     N62691   7.489  10.244   4.018  0.6150  0.3059  0.3450
  465MOL0     C62692   6.481  10.151   4.894  0.6903 -0.9038  0.3637
  465MOL0     C62693   6.348  10.147   4.927 -0.4039 -0.0255  0.6431
  465MOL0     C62694   5.916  10.072   4.948 -0.3883  0.4277  0.8100
  465MOL0     C62695   5.844   9.951   4.972 -0.2694 -0.1365 -0.0195
  465MOL0     C62696   5.709   9.946   5.001  0.0970 -0.3823  0.1083
  465MOL0     C62697   5.636  10.061   4.999 -0.4516 -1.1722 -0.2239
  465MOL0     O62698   5.505  10.086   5.030  0.1066  0.0540 -0.1427
  465MOL0     C62699   5.421   9.978   5.022 -0.8254  0.7567 -0.2339
  465MOL0     C62700   5.275  10.025   5.025  0.5019  0.1884 -0.4264
  465MOL0     C62701   5.174   9.906   4.998 -0.1847 -0.7623  0.6341
  465MOL0     C62702   5.036   9.961   4.999  0.1367 -0.4224  0.3029
  465MOL0     C62703   4.990  10.004   5.132 -0.2155  0.2591  0.2270
  465MOL0     C62704   4.960  10.051   5.243  0.4125  0.1509  0.3825
  465MOL0     C62705   5.705  10.176   4.961 -0.0069 -0.0140  0.2776
  465MOL0     C62706   5.840  10.187   4.938  0.3321  0.0634  0.4356
  465MOL0     C62707   5.889  10.332   4.926 -0.1913  0.0768 -0.1318
  465MOL0     H62708   6.227  10.276   4.642 -0.5715  2.0527  2.1239
  465MOL0     H62709   6.446  10.265   4.575 -0.7311  1.3980 -0.0104
  465MOL0     H62710   6.801  10.166   4.604 -0.9811 -0.8631  0.7618
  465MOL0     H62711   6.640  10.203   4.523  1.2467 -0.5587 -1.2822
  465MOL0     H62712   6.804  10.390   4.689 -3.7153  0.3452  2.8871
  465MOL0     H62713   6.646  10.430   4.627 -0.2325  0.7371 -0.0192
  465MOL0     H62714   6.778  10.533   4.465 -1.6027 -0.3111 -0.6798
  465MOL0     H62715   6.742  10.378   4.387 -2.3545 -0.2245  2.0563
  465MOL0     H62716   6.994  10.479   4.518 -1.8857  1.9855  0.8259
  465MOL0     H62717   6.966  10.300   4.538 -0.2859 -0.4955 -0.2976
  465MOL0     H62718   6.944  10.300   4.273  2.0206 -0.8549 -0.6768
  465MOL0     H62719   6.991  10.472   4.285 -1.6657  0.7890  3.2225
  465MOL0     H62720   7.188  10.353   4.424 -0.3188  3.5465 -1.0325
  465MOL0     H62721   7.126  10.203   4.334  2.7936 -1.0375  2.0406
  465MOL0     H62722   7.178  10.442   4.156 -3.1145 -0.1970 -0.8382
  465MOL0     H62723   7.161  10.281   4.125 -4.1402 -0.9991  2.5989
  465MOL0     H62724   7.399  10.394   4.289 -0.3420  1.4686  0.3160
  465MOL0     H62725   7.379  10.226   4.257 -2.3028 -0.0474 -1.0022
  465MOL0     H62726   7.469  10.574   4.076  0.8016 -0.0587 -2.4857
  465MOL0     H62727   7.727  10.465   3.808 -1.8633 -0.4898 -1.2345
  465MOL0     H62728   7.608  10.588   3.826 -0.6387 -0.3222 -0.7577
  465MOL0     H62729   7.724  10.653   4.055  0.6193 -1.2640  1.0091
  465MOL0     H62730   7.835  10.526   4.030 -1.4581 -0.1843  3.0553
  465MOL0     H62731   7.823  10.763   3.839  1.7336 -0.0148 -1.4061
  465MOL0     H62732   7.932  10.622   3.815 -1.3105 -1.7302  0.3339
  465MOL0     H62733   7.940  10.816   4.033  0.3938 -0.3629  1.1666
  465MOL0     H62734   8.053  10.796   3.893 -1.8032 -1.0265 -1.6011
  465MOL0     H62735   8.189  10.883   4.082 -1.0472 -0.1546  3.0001
  465MOL0     H62736   8.407  10.903   4.165 -0.4476 -0.4549 -0.7253
  465MOL0     H62737   8.811  10.737   4.437 -0.9642 -1.4009  0.5473
  465MOL0     H62738   9.043  10.709   4.483 -0.1287  0.5152  0.3236
  465MOL0     H62739   9.248  10.798   4.397  3.2559  1.6977 -1.6620
  465MOL0     H62740   9.313  10.654   4.494 -1.4127 -0.0322  0.1953
  465MOL0     H62741   9.379  10.769   4.223 -1.2238  1.2606  1.1133
  465MOL0     H62742   9.470  10.826   4.370  0.4073 -1.1084  2.5812
  465MOL0     H62743   9.635  10.710   4.260  1.3824 -0.5222  3.7126
  465MOL0     H62744   9.581  10.602   4.386 -0.6726  2.0749  2.0390
  465MOL0     H62745   9.495  10.584   4.093 -3.7071 -1.5143  1.0745
  465MOL0     H62746   9.451  10.488   4.225 -0.6311 -0.7352 -0.6377
  465MOL0     H62747   9.672  10.408   4.281 -2.5308 -2.5858 -1.0799
  465MOL0     H62748   9.746  10.524   4.170  0.1917 -0.7103  0.0341
  465MOL0     H62749   9.553  10.300   4.081  0.3034 -0.6191 -1.5041
  465MOL0     H62750   9.656  10.402   3.979 -0.6659  3.4097  1.7907
  465MOL0     H62751   9.740  10.188   4.175  1.6705 -0.6045  0.1519
  465MOL0     H62752   9.852  10.296   4.105 -0.0412 -0.7471 -0.9900
  465MOL0     H62753   9.671  10.115   3.959  1.0241 -1.8087  0.2121
  465MOL0     H62754   9.772  10.242   3.867 -0.0817  1.0173  2.2305
  465MOL0     H62755   9.121  10.509   4.118  1.3874  1.5207 -0.1231
  465MOL0     H62756   8.866  10.473   4.091 -1.2920 -1.2447  1.4270
  465MOL0     H62757   8.441  10.473   4.214 -0.5118 -1.2859  0.7307
  465MOL0     H62758   8.211  10.453   4.129  4.0740 -1.0750  0.2540
  465MOL0     H62759   6.562  10.122   4.959  1.4772 -0.7645 -0.5301
  465MOL0     H62760   6.319  10.107   5.024 -1.3117  0.3008  0.5225
  465MOL0     H62761   5.899   9.858   4.979 -0.3356 -0.1591  0.2285
  465MOL0     H62762   5.658   9.856   5.031 -0.6024 -0.1486 -0.3696
  465MOL0     H62763   5.443   9.906   5.101 -0.3923 -0.7976 -1.6899
  465MOL0     H62764   5.454   9.936   4.926  0.9766  3.4517 -0.8838
  465MOL0     H62765   5.261  10.105   4.952 -0.9658 -0.3970 -0.8131
  465MOL0     H62766   5.248  10.060   5.125  1.2389  0.5615 -0.3527
  465MOL0     H62767   5.172   9.822   5.067 -3.1611  0.1580  1.8079
  465MOL0     H62768   5.206   9.868   4.901  1.2023  1.0013  0.3494
  465MOL0     H62769   5.036  10.039   4.922  0.0052 -2.1699 -1.5564
  465MOL0     H62770   4.969   9.882   4.962  0.7061 -0.3113 -1.0304
  465MOL0     H62771   4.950  10.106   5.334  0.6315  0.2026  0.3766
  465MOL0     H62772   5.649  10.269   4.954  0.2862  0.3662  2.3463
  465MOL0     H62773   5.926  10.340   4.824  0.6753 -2.2977 -0.0726
  465MOL0     H62774   5.813  10.409   4.938  0.0326  0.2941 -0.1145
  465MOL0     H62775   5.969  10.355   4.997  0.2402 -0.8644 -0.2842
  466MOL0     O62776   7.785   5.421   0.294 -0.4068  0.2080  0.8905
  466MOL0     C62777   7.753   5.503   0.201  0.6412  0.1345 -0.0825
  466MOL0     O62778   7.846   5.569   0.117  0.2779  0.6085  0.0094
  466MOL0     C62779   7.977   5.572   0.148 -0.4139  0.3851 -0.6102
  466MOL0     C62780   8.075   5.554   0.053 -0.1125  0.1561  0.2948
  466MOL0     C62781   8.207   5.580   0.096  0.0355  0.6230 -0.0005
  466MOL0     C62782   8.243   5.629   0.223  0.4176 -0.3450 -0.2366
  466MOL0     O62783   8.376   5.656   0.250  0.1465 -0.4427  0.1331
  466MOL0     C62784   8.437   5.622   0.378 -0.1784 -0.6447  0.0513
  466MOL0     C62785   8.535   5.732   0.427 -0.2849  0.7665 -0.2624
  466MOL0     C62786   8.453   5.857   0.460  0.0684 -0.4534  0.0445
  466MOL0     C62787   8.543   5.986   0.492 -0.0759  0.5031 -1.0318
  466MOL0     C62788   8.446   6.107   0.525 -1.4541  1.0168  0.3375
  466MOL0     C62789   8.499   6.205   0.619  0.5350 -0.6525  0.2140
  466MOL0     C62790   8.638   6.257   0.576  0.0512 -0.4105 -0.5915
  466MOL0     C62791   8.690   6.361   0.675  0.3140  0.6628  0.3693
  466MOL0     N62792   8.832   6.377   0.642 -0.7620 -0.8469  0.5336
  466MOL0     C62793   8.931   6.284   0.674  0.9218  0.1793  0.5757
  466MOL0     C62794   9.041   6.342   0.622 -1.2516 -0.4396 -0.2424
  466MOL0     C62795   9.170   6.265   0.620  0.4353  1.0317 -0.8976
  466MOL0     C62796   9.251   6.273   0.494 -0.8867 -0.4947 -0.0504
  466MOL0     C62797   9.339   6.144   0.475  0.3790 -0.1966  1.3141
  466MOL0     C62798   9.477   6.170   0.423  0.7145 -0.6314 -0.4242
  466MOL0     O62799   9.547   6.044   0.431  0.2345  0.5766 -0.1169
  466MOL0     C62800   9.680   6.045   0.409 -1.0722  0.1147 -0.2394
  466MOL0     C62801   9.748   5.926   0.449  0.5753 -0.5022  0.0608
  466MOL0     C62802   9.885   5.915   0.446  0.5705 -0.2663 -0.1581
  466MOL0     C62803   9.961   6.021   0.400  0.0241 -0.1848  0.1381
  466MOL0     C62804  10.110   6.027   0.417  0.2631  0.3036 -0.1251
  466MOL0     O62805  10.166   6.140   0.399 -0.8551 -0.1843  0.2618
  466MOL0     C62806  10.305   6.146   0.388 -0.3227  0.4642  0.6825
  466MOL0     C62807  10.377   6.081   0.286  0.8111  0.3663 -0.1916
  466MOL0     C62808  10.508   6.110   0.255  0.1815  0.3832  0.8458
  466MOL0     C62809  10.572   6.211   0.319 -0.5640  0.4752  0.8741
  466MOL0     O62810  10.709   6.240   0.313  0.1397  0.3572 -0.0669
  466MOL0     C62811  10.794   6.152   0.373 -0.2782  0.7005 -0.2227
  466MOL0     C62812  10.934   6.212   0.392 -0.0858 -0.1957  0.1131
  466MOL0     C62813  10.980   6.286   0.261  0.3463 -0.3189  0.3429
  466MOL0     C62814  11.130   6.283   0.261  0.4777 -0.8189 -0.2863
  466MOL0     C62815  11.196   6.149   0.217  0.1666 -0.4658 -0.1508
  466MOL0     C62816  11.350   6.167   0.202 -0.1898  0.6550  0.3624
  466MOL0     C62817  11.422   6.038   0.164  0.3448  0.3510 -0.0707
  466MOL0     C62818  11.574   6.055   0.164  0.5125  0.0778  0.1396
  466MOL0    Cl62819  11.626   6.153   0.018 -0.1696  0.0438  0.3666
  466MOL0     C62820  10.503   6.272   0.420 -0.2555 -0.5596  0.2225
  466MOL0     C62821  10.375   6.239   0.462 -0.2340 -0.4654  0.6703
  466MOL0     O62822  10.161   5.922   0.461  0.0145  0.1632  0.2299
  466MOL0     C62823   9.889   6.137   0.356 -0.9396  1.0517  0.4465
  466MOL0     C62824   9.755   6.145   0.364 -0.5426 -0.8468 -0.2619
  466MOL0     N62825   9.005   6.461   0.561  0.1064 -0.4799 -0.1444
  466MOL0     N62826   8.879   6.486   0.580 -0.6104  0.4132 -0.0464
  466MOL0     C62827   8.146   5.651   0.319  0.8233 -0.2722  0.5947
  466MOL0     C62828   8.015   5.617   0.279 -0.2252  0.1043  0.9275
  466MOL0     C62829   7.615   5.534   0.190  0.3404  0.0831  0.8839
  466MOL0     C62830   7.508   5.443   0.239  0.0434  0.1144 -0.7769
  466MOL0     C62831   7.379   5.487   0.258 -0.6325 -0.9336 -0.3987
  466MOL0     C62832   7.348   5.616   0.229 -0.0211  0.4687 -0.6365
  466MOL0     O62833   7.222   5.645   0.260 -0.3749 -0.0778 -0.3655
  466MOL0     C62834   7.210   5.748   0.352  0.7891 -0.0225 -0.3229
  466MOL0     C62835   7.065   5.778   0.387 -0.3288  0.2159  1.0238
  466MOL0     C62836   6.972   5.844   0.273 -0.6908  0.1370 -0.4191
  466MOL0     C62837   7.017   5.981   0.236  0.1004 -0.0501  0.2887
  466MOL0     C62838   7.007   6.074   0.352 -0.3981  0.5394 -0.0953
  466MOL0     C62839   7.022   6.138   0.456  0.1057 -0.7706  0.1345
  466MOL0     C62840   7.443   5.708   0.180  0.0182  0.2163  1.2837
  466MOL0     C62841   7.571   5.664   0.155 -0.1389  0.3571  0.5474
  466MOL0     C62842   7.669   5.774   0.105  0.0668  0.6933 -0.7290
  466MOL0     H62843   8.046   5.521  -0.046 -0.6259 -0.4765  0.6521
  466MOL0     H62844   8.292   5.566   0.030  0.2789  2.2884 -0.0774
  466MOL0     H62845   8.355   5.601   0.447 -0.4320  0.6935  0.1892
  466MOL0     H62846   8.497   5.537   0.346 -0.4686 -1.7667  2.2656
  466MOL0     H62847   8.614   5.752   0.354  0.9339 -0.9844  0.5257
  466MOL0     H62848   8.580   5.709   0.524 -1.5785  1.0068  0.4223
  466MOL0     H62849   8.387   5.823   0.540  0.6216  0.8507  1.1022
  466MOL0     H62850   8.394   5.885   0.372 -0.9625 -0.1034  0.8233
  466MOL0     H62851   8.602   5.963   0.581 -2.6139 -2.7721 -0.0163
  466MOL0     H62852   8.606   6.009   0.406  1.4841  3.4778  0.7340
  466MOL0     H62853   8.433   6.165   0.432  0.8743 -0.8281 -1.2411
  466MOL0     H62854   8.349   6.066   0.555 -1.0229 -0.6774 -0.4657
  466MOL0     H62855   8.427   6.287   0.629 -0.8346 -1.5508 -1.6330
  466MOL0     H62856   8.506   6.154   0.715  0.7718  0.5858  0.8740
  466MOL0     H62857   8.637   6.298   0.475  1.7318  1.0211 -0.0598
  466MOL0     H62858   8.705   6.170   0.571 -0.7841 -1.0200 -1.6869
  466MOL0     H62859   8.629   6.450   0.663 -0.0486  0.1295 -2.4124
  466MOL0     H62860   8.685   6.320   0.776  1.0188 -2.0363 -0.5845
  466MOL0     H62861   8.917   6.191   0.728 -0.9983 -0.2737 -0.6105
  466MOL0     H62862   9.239   6.293   0.700  1.1713  1.2039 -1.5872
  466MOL0     H62863   9.137   6.160   0.623 -0.9106  1.4223 -1.3274
  466MOL0     H62864   9.183   6.275   0.408 -1.7678 -1.8409  0.5715
  466MOL0     H62865   9.318   6.359   0.502 -0.4977 -0.8876  0.9953
  466MOL0     H62866   9.285   6.084   0.402 -0.8859  1.5567  0.7377
  466MOL0     H62867   9.352   6.083   0.565  0.5790 -1.1452  0.6514
  466MOL0     H62868   9.521   6.239   0.496 -2.2107  1.0212 -0.0574
  466MOL0     H62869   9.479   6.211   0.322 -2.4717 -1.8083 -1.0700
  466MOL0     H62870   9.680   5.845   0.474 -2.1572  1.1758 -1.4249
  466MOL0     H62871   9.928   5.827   0.494 -1.0169 -0.8897  0.1973
  466MOL0     H62872  10.313   6.015   0.229  0.4616  1.4070 -1.0363
  466MOL0     H62873  10.563   6.049   0.183  0.3122 -0.1895  1.4223
  466MOL0     H62874  10.749   6.105   0.462 -0.4182 -0.9558 -1.1193
  466MOL0     H62875  10.805   6.066   0.306  1.3252  0.7864 -0.1104
  466MOL0     H62876  10.930   6.268   0.487  2.7442 -3.3054  2.2868
  466MOL0     H62877  11.002   6.128   0.408  0.2408  0.1112  0.3559
  466MOL0     H62878  10.929   6.250   0.170  1.5055 -2.1430  0.3619
  466MOL0     H62879  10.937   6.386   0.265  2.2808  0.5632  0.1923
  466MOL0     H62880  11.161   6.314   0.361 -2.6481 -1.0686  0.8589
  466MOL0     H62881  11.166   6.351   0.183 -0.6002 -1.2923 -1.2226
  466MOL0     H62882  11.152   6.134   0.118 -2.6589  1.8408  0.6016
  466MOL0     H62883  11.157   6.072   0.284  0.3423  1.0319  1.7790
  466MOL0     H62884  11.375   6.238   0.122  0.7731  0.3744  0.3979
  466MOL0     H62885  11.396   6.212   0.290  0.0234 -2.3847  1.9272
  466MOL0     H62886  11.384   6.001   0.068 -0.0153 -1.1035  0.5939
  466MOL0     H62887  11.397   5.954   0.229 -2.0916 -0.9737 -2.4846
  466MOL0     H62888  11.623   6.094   0.253  2.2782  0.0141 -0.7523
  466MOL0     H62889  11.606   5.953   0.140 -2.3952 -0.6579 -1.0823
  466MOL0     H62890  10.555   6.353   0.469  0.2096 -0.3858 -0.5453
  466MOL0     H62891  10.328   6.291   0.545  0.5799  1.3059  0.0784
  466MOL0     H62892   9.952   6.223   0.335 -0.1774  0.2836 -0.5448
  466MOL0     H62893   9.708   6.240   0.336 -4.2497 -1.8215  1.9243
  466MOL0     H62894   8.159   5.703   0.413  0.2520 -1.7186  1.5114
  466MOL0     H62895   7.938   5.635   0.353 -1.5249  1.4935 -0.6774
  466MOL0     H62896   7.530   5.345   0.280 -2.8769 -0.7025 -0.9596
  466MOL0     H62897   7.306   5.414   0.292  0.3340 -1.7913 -0.1071
  466MOL0     H62898   7.247   5.835   0.297 -2.3506  1.1134 -0.8575
  466MOL0     H62899   7.270   5.727   0.441  0.1947 -1.0359 -0.1436
  466MOL0     H62900   7.065   5.843   0.475  0.3665 -0.4348  1.5115
  466MOL0     H62901   7.007   5.692   0.423  2.0788 -1.0213  2.1694
  466MOL0     H62902   6.866   5.851   0.301 -1.1174  2.2939 -2.2796
  466MOL0     H62903   6.961   5.782   0.184 -2.0156  2.0713 -1.6866
  466MOL0     H62904   7.123   5.966   0.214  0.1691  0.1147  0.5146
  466MOL0     H62905   6.968   6.008   0.142 -1.5713 -3.9851 -0.1478
  466MOL0     H62906   7.022   6.211   0.535 -2.3284 -0.0938 -0.4085
  466MOL0     H62907   7.414   5.809   0.153  0.3515  0.2681  1.1152
  466MOL0     H62908   7.700   5.751   0.003 -0.0936  0.1775 -0.6619
  466MOL0     H62909   7.611   5.867   0.098 -0.4764  0.3981 -0.2255
  466MOL0     H62910   7.758   5.785   0.168 -0.2249  0.0791 -0.2051
  467MOL0     O62911   7.763   8.354   1.012  0.4808  0.1127 -0.8593
  467MOL0     C62912   7.728   8.388   0.899  0.7515 -1.1823  0.2842
  467MOL0     O62913   7.802   8.463   0.818 -0.0716 -0.2460  0.7660
  467MOL0     C62914   7.934   8.504   0.842 -0.3171 -0.5231  0.2741
  467MOL0     C62915   7.959   8.618   0.918  0.0153  0.7983 -0.2597
  467MOL0     C62916   8.091   8.666   0.936  0.0826 -0.7245  0.5477
  467MOL0     C62917   8.194   8.598   0.866 -0.4236  0.4310  0.8381
  467MOL0     O62918   8.332   8.628   0.887  0.2971  0.6373 -0.3400
  467MOL0     C62919   8.361   8.765   0.927 -0.8850 -0.1926 -0.0362
  467MOL0     C62920   8.506   8.785   0.886  0.1513 -0.7570  0.1061
  467MOL0     C62921   8.536   8.936   0.902  0.1069  0.1372 -0.0017
  467MOL0     C62922   8.690   8.956   0.891  0.7165  0.0895  0.4944
  467MOL0     C62923   8.739   9.099   0.922  0.6615 -0.8743 -0.2548
  467MOL0     C62924   8.891   9.104   0.942  0.1843  0.7926 -0.1085
  467MOL0     C62925   8.939   9.042   1.069 -1.0561 -0.3255 -0.4790
  467MOL0     C62926   9.090   9.077   1.094  0.3006 -0.8589  0.5714
  467MOL0     N62927   9.188   9.020   0.996  0.5967  0.1403  0.4085
  467MOL0     C62928   9.164   8.909   0.922  0.4201  0.8579 -0.2370
  467MOL0     C62929   9.255   8.905   0.822  0.3248  0.2613  0.4771
  467MOL0     C62930   9.279   8.790   0.727 -0.6511  1.1833  0.1970
  467MOL0     C62931   9.191   8.780   0.600  0.9952  0.7356  0.7333
  467MOL0     C62932   9.041   8.774   0.637  0.9380 -0.4314  0.9283
  467MOL0     C62933   8.970   8.768   0.499  0.1066 -0.6309  0.1761
  467MOL0     O62934   8.825   8.767   0.518  0.0284 -0.4720 -0.0749
  467MOL0     C62935   8.755   8.648   0.525  0.2626  0.2411  0.3282
  467MOL0     C62936   8.820   8.531   0.563 -0.4942  1.0315 -0.8461
  467MOL0     C62937   8.745   8.413   0.578  1.0065  0.1764 -1.0104
  467MOL0     C62938   8.602   8.409   0.559 -0.0104 -1.0099 -0.2468
  467MOL0     C62939   8.522   8.282   0.569  0.0795 -0.4772 -0.2354
  467MOL0     O62940   8.402   8.286   0.517  0.4558 -0.0339 -0.1735
  467MOL0     C62941   8.296   8.202   0.557 -0.9758  0.3864  0.1536
  467MOL0     C62942   8.164   8.252   0.524 -0.1617 -0.3003 -0.7460
  467MOL0     C62943   8.057   8.174   0.532  0.7674 -0.7543  0.3527
  467MOL0     C62944   8.059   8.054   0.583  0.3434 -0.5758  0.6078
  467MOL0     O62945   7.937   7.989   0.590 -0.4085 -0.7405 -0.0202
  467MOL0     C62946   7.934   7.873   0.670  0.3213 -0.5749 -0.3345
  467MOL0     C62947   7.787   7.829   0.677 -0.5824 -0.0197  0.3325
  467MOL0     C62948   7.707   7.933   0.755  0.7472  0.1581 -0.2499
  467MOL0     C62949   7.565   7.889   0.801  0.8682  0.4889  0.5649
  467MOL0     C62950   7.471   7.858   0.691  0.8945  0.2019 -0.0249
  467MOL0     C62951   7.331   7.814   0.760  0.7596  0.5665  1.3657
  467MOL0     C62952   7.226   7.795   0.651 -0.0541  0.1591  0.2546
  467MOL0     C62953   7.090   7.763   0.710 -0.3618  0.0328 -0.3234
  467MOL0    Cl62954   7.097   7.610   0.825 -0.0157  0.0459  0.1711
  467MOL0     C62955   8.186   8.002   0.612  0.9102 -0.3232 -0.5864
  467MOL0     C62956   8.305   8.076   0.611  0.4517  0.6818 -0.3755
  467MOL0     O62957   8.571   8.185   0.635 -0.0988 -0.2685 -0.3216
  467MOL0     C62958   8.545   8.538   0.528 -0.6941 -0.5144 -0.0858
  467MOL0     C62959   8.619   8.654   0.515 -0.6083 -0.5267 -0.0469
  467MOL0     N62960   9.331   9.021   0.833 -0.2341  0.1012  1.1508
  467MOL0     N62961   9.297   9.088   0.934  0.3293 -1.0166 -0.4959
  467MOL0     C62962   8.171   8.493   0.790  0.0193 -0.6432 -1.1140
  467MOL0     C62963   8.041   8.456   0.770  0.7220  0.8693  0.9712
  467MOL0     C62964   7.591   8.350   0.849  0.5310  0.4881 -0.2280
  467MOL0     C62965   7.550   8.403   0.720  0.1599 -0.6935 -0.3421
  467MOL0     C62966   7.426   8.376   0.663 -0.2387 -0.1034  0.2603
  467MOL0     C62967   7.336   8.302   0.738  0.7833 -0.0393  0.5878
  467MOL0     O62968   7.217   8.290   0.676  0.0247 -0.1597 -0.1619
  467MOL0     C62969   7.121   8.207   0.734 -0.9375  0.0385 -0.2620
  467MOL0     C62970   6.981   8.219   0.663 -0.2551  0.2591  0.2750
  467MOL0     C62971   6.984   8.145   0.532  0.0551  0.6524  1.2645
  467MOL0     C62972   6.939   8.219   0.401 -0.4095  0.2293 -0.4134
  467MOL0     C62973   6.808   8.280   0.401 -0.2581  0.2159  0.0827
  467MOL0     C62974   6.704   8.341   0.387 -0.0323 -0.5319 -0.0524
  467MOL0     C62975   7.370   8.236   0.857  0.2452  0.5761  0.9964
  467MOL0     C62976   7.496   8.264   0.914  0.2283  1.1191 -0.8232
  467MOL0     C62977   7.536   8.195   1.040  0.2775  0.7585  0.7169
  467MOL0     H62978   7.871   8.673   0.949 -0.0532  2.5776 -3.2533
  467MOL0     H62979   8.105   8.759   0.990 -0.2734 -0.1257 -0.3761
  467MOL0     H62980   8.298   8.839   0.876  0.7837  1.5267  0.2846
  467MOL0     H62981   8.356   8.777   1.036  1.6872  0.8963  0.0297
  467MOL0     H62982   8.528   8.747   0.785  1.6236 -0.7923  0.4202
  467MOL0     H62983   8.571   8.721   0.946  0.5030 -0.7481 -0.2660
  467MOL0     H62984   8.499   8.976   0.997 -2.3543 -0.7708 -0.4805
  467MOL0     H62985   8.484   8.988   0.821 -0.9879  0.0443  0.6114
  467MOL0     H62986   8.752   8.897   0.960  0.4051 -0.7905  0.0421
  467MOL0     H62987   8.725   8.932   0.790 -0.8853  0.9008 -0.2811
  467MOL0     H62988   8.718   9.169   0.841  3.1950  0.8972  0.4816
  467MOL0     H62989   8.705   9.147   1.014 -0.3482  0.3294 -1.2203
  467MOL0     H62990   8.937   9.044   0.863 -2.2706 -2.0885  0.4656
  467MOL0     H62991   8.924   9.207   0.929  0.4550  0.6643 -0.4451
  467MOL0     H62992   8.937   8.933   1.070  4.9062 -0.8027 -1.9821
  467MOL0     H62993   8.880   9.077   1.154  1.0367  1.7672  0.2024
  467MOL0     H62994   9.088   9.187   1.095 -0.7343 -0.7864 -1.7848
  467MOL0     H62995   9.101   9.037   1.195 -2.4246 -0.4101  1.1381
  467MOL0     H62996   9.081   8.841   0.937  0.6532 -0.0537 -2.6382
  467MOL0     H62997   9.381   8.789   0.689 -1.5484  2.7842 -2.5468
  467MOL0     H62998   9.262   8.691   0.772 -0.9780 -0.3157 -2.9444
  467MOL0     H62999   9.207   8.865   0.533 -1.8038 -0.9320 -2.3476
  467MOL0     H63000   9.213   8.689   0.543 -0.6027 -0.2088  1.5423
  467MOL0     H63001   9.011   8.865   0.690 -0.8312 -1.8336  2.4927
  467MOL0     H63002   9.011   8.686   0.694  0.9225  0.2364  1.9825
  467MOL0     H63003   8.998   8.675   0.448 -3.9695 -1.8592 -0.2207
  467MOL0     H63004   8.990   8.850   0.430  1.1316 -1.4095 -0.4858
  467MOL0     H63005   8.927   8.522   0.579 -0.7229 -0.8356 -0.0839
  467MOL0     H63006   8.789   8.317   0.604 -1.4870 -0.9362 -0.5813
  467MOL0     H63007   8.157   8.353   0.486 -0.2394 -1.0729 -2.8856
  467MOL0     H63008   7.960   8.221   0.526  0.6015 -0.7319  2.4201
  467MOL0     H63009   7.987   7.796   0.612  1.0705  0.1643 -0.6396
  467MOL0     H63010   7.965   7.892   0.774 -0.1970  0.7900 -0.4153
  467MOL0     H63011   7.744   7.836   0.577 -1.0868  0.2044  0.5575
  467MOL0     H63012   7.780   7.731   0.724  1.2308 -0.9288 -1.1955
  467MOL0     H63013   7.761   7.955   0.848  1.6511  2.1491 -1.1785
  467MOL0     H63014   7.703   8.027   0.699 -1.7400 -0.9169 -2.0660
  467MOL0     H63015   7.522   7.977   0.850 -0.3247  0.3619 -0.2077
  467MOL0     H63016   7.576   7.803   0.868 -1.3864  0.0673  0.4735
  467MOL0     H63017   7.502   7.769   0.636  0.7805 -1.1783  2.0232
  467MOL0     H63018   7.470   7.948   0.630 -1.4516 -1.5303 -2.8166
  467MOL0     H63019   7.346   7.720   0.813  0.0293 -1.8273 -2.3628
  467MOL0     H63020   7.288   7.878   0.838 -3.0674 -1.5917  1.2655
  467MOL0     H63021   7.265   7.714   0.589 -0.1496  0.2747  0.0442
  467MOL0     H63022   7.232   7.883   0.586  2.2538 -1.2495 -1.6479
  467MOL0     H63023   7.050   7.847   0.767  0.2737  0.0593  0.1031
  467MOL0     H63024   7.026   7.737   0.626 -1.6344 -1.8952  1.1386
  467MOL0     H63025   8.187   7.900   0.649 -1.5831  0.4342  1.9152
  467MOL0     H63026   8.397   8.035   0.651 -0.5730 -0.6065  0.7509
  467MOL0     H63027   8.437   8.549   0.528 -0.8544 -1.8394 -0.7706
  467MOL0     H63028   8.574   8.749   0.489  0.9238  0.1346 -0.3892
  467MOL0     H63029   8.248   8.450   0.726 -0.2733  0.7811 -2.4930
  467MOL0     H63030   8.017   8.373   0.705 -0.9293  1.2260  1.0850
  467MOL0     H63031   7.625   8.460   0.666  1.1159 -1.5144  0.0999
  467MOL0     H63032   7.413   8.427   0.569 -1.0528 -0.5809  0.1073
  467MOL0     H63033   7.106   8.227   0.841  0.6741 -2.5974  0.5493
  467MOL0     H63034   7.158   8.104   0.730 -1.3955 -0.1550  0.2913
  467MOL0     H63035   6.958   8.321   0.632  2.7443  0.5953 -1.1682
  467MOL0     H63036   6.910   8.180   0.737  2.3406 -2.0740  1.7446
  467MOL0     H63037   6.908   8.067   0.543 -0.1529 -0.4674 -4.7238
  467MOL0     H63038   7.077   8.091   0.513 -0.2812  0.4273  0.1809
  467MOL0     H63039   7.003   8.308   0.397  0.1613 -0.1887 -0.6375
  467MOL0     H63040   6.935   8.147   0.319 -0.3609 -3.3678  2.4523
  467MOL0     H63041   6.622   8.406   0.363  1.0505  0.5157 -1.0063
  467MOL0     H63042   7.301   8.165   0.899  3.7852 -2.1113  2.8433
  467MOL0     H63043   7.578   8.259   1.118  2.4188 -2.6902  2.6770
  467MOL0     H63044   7.453   8.133   1.076 -0.6818  1.9080  0.5603
  467MOL0     H63045   7.628   8.136   1.030 -1.0525 -1.9392  2.7920
  468MOL0     O63046   4.153   2.936   2.563  0.2226 -0.1817 -0.4004
  468MOL0     C63047   4.121   2.842   2.635  0.0011 -0.0741  0.5538
  468MOL0     O63048   4.202   2.775   2.719  0.3457  0.2626  0.0457
  468MOL0     C63049   4.334   2.817   2.740 -0.4955 -0.3941 -0.3108
  468MOL0     C63050   4.420   2.885   2.649  0.3508 -0.1453 -0.0599
  468MOL0     C63051   4.553   2.921   2.690 -0.4762 -0.0424  0.1409
  468MOL0     C63052   4.606   2.894   2.824 -0.0289  0.7356  0.8960
  468MOL0     O63053   4.738   2.902   2.869 -0.6421 -0.4272 -0.0406
  468MOL0     C63054   4.829   2.993   2.794 -0.3658  0.1619  0.2453
  468MOL0     C63055   4.954   3.031   2.877  0.7216  0.1582  0.1991
  468MOL0     C63056   5.021   2.899   2.930 -0.1744 -0.2661  0.2599
  468MOL0     C63057   5.134   2.856   2.831 -0.8818  0.9651 -0.0829
  468MOL0     C63058   5.221   2.726   2.872 -0.1112 -0.4399 -0.3501
  468MOL0     C63059   5.290   2.743   3.004 -0.2491  0.7919 -0.0376
  468MOL0     C63060   5.244   2.628   3.108 -0.2050  0.0286  0.1587
  468MOL0     C63061   5.305   2.648   3.244  0.6192 -0.2131  0.3998
  468MOL0     N63062   5.433   2.593   3.255 -0.3182  0.0465 -0.1038
  468MOL0     C63063   5.516   2.646   3.349  0.4108  0.4488 -0.3266
  468MOL0     C63064   5.624   2.570   3.349 -0.2381  1.1265  0.3411
  468MOL0     C63065   5.747   2.579   3.443 -0.3824  0.6322 -0.3099
  468MOL0     C63066   5.822   2.720   3.436  0.3868  1.0883 -0.1241
  468MOL0     C63067   5.945   2.741   3.525 -0.1394  1.0390  0.1497
  468MOL0     C63068   5.909   2.732   3.672  0.6250 -0.0893 -0.0824
  468MOL0     O63069   5.934   2.602   3.734  0.3783  0.2737  0.6385
  468MOL0     C63070   6.056   2.579   3.791  0.9184  0.4847 -0.0027
  468MOL0     C63071   6.185   2.615   3.740  0.1961  0.0189 -1.2537
  468MOL0     C63072   6.309   2.580   3.798  0.3428 -0.2011 -0.4832
  468MOL0     C63073   6.301   2.520   3.923  0.1020  0.0783 -0.1697
  468MOL0     C63074   6.424   2.498   3.995 -0.8492  0.7833  0.2549
  468MOL0     O63075   6.524   2.585   3.972 -0.6561 -0.2288 -0.1908
  468MOL0     C63076   6.646   2.543   4.017 -0.3507  0.5709 -0.2232
  468MOL0     C63077   6.717   2.633   4.081 -0.5134  0.1060  0.2716
  468MOL0     C63078   6.838   2.602   4.141  0.5965 -0.2826 -0.4082
  468MOL0     C63079   6.898   2.483   4.122 -0.2806  0.2344  0.0359
  468MOL0     O63080   7.027   2.461   4.170 -0.4410 -0.2278  1.3859
  468MOL0     C63081   7.101   2.346   4.124  0.3085 -0.8492 -0.1208
  468MOL0     C63082   7.230   2.316   4.194 -0.4950 -0.6020  0.2777
  468MOL0     C63083   7.321   2.438   4.174 -0.5659 -0.1366 -0.7340
  468MOL0     C63084   7.457   2.430   4.243 -0.5397 -0.4572 -1.2561
  468MOL0     C63085   7.556   2.318   4.217  0.1532 -0.9243  0.0879
  468MOL0     C63086   7.675   2.319   4.302 -0.0307 -0.7470 -1.5397
  468MOL0     C63087   7.774   2.427   4.266  0.0974  0.1119  0.4363
  468MOL0     C63088   7.889   2.438   4.364  0.3423 -0.1622 -0.1129
  468MOL0    Cl63089   7.984   2.290   4.359 -0.3201 -0.0424 -0.2393
  468MOL0     C63090   6.829   2.379   4.051 -0.3670 -0.0385 -1.0237
  468MOL0     C63091   6.699   2.413   4.003 -0.6655 -0.1116  0.2494
  468MOL0     O63092   6.426   2.403   4.078 -0.3366 -0.6845  0.1811
  468MOL0     C63093   6.181   2.486   3.987 -0.1294 -0.3837  0.4025
  468MOL0     C63094   6.060   2.511   3.915  0.2255  0.6843 -0.1619
  468MOL0     N63095   5.617   2.481   3.249 -0.6139  0.2268 -0.2133
  468MOL0     N63096   5.503   2.490   3.192 -0.0313 -0.2263 -0.8552
  468MOL0     C63097   4.522   2.817   2.905 -0.3592  0.2993  0.4365
  468MOL0     C63098   4.394   2.781   2.857 -0.6806  0.1976  0.2626
  468MOL0     C63099   3.976   2.800   2.647 -0.2631  0.4854 -0.2469
  468MOL0     C63100   3.955   2.672   2.681  0.2431  0.1784 -0.0986
  468MOL0     C63101   3.828   2.617   2.692 -0.6643  0.0836  0.7327
  468MOL0     C63102   3.711   2.696   2.674 -0.6655  0.2219  0.3192
  468MOL0     O63103   3.597   2.629   2.701  0.4196 -0.5410  0.2238
  468MOL0     C63104   3.476   2.698   2.731 -0.1282  0.0827 -0.0946
  468MOL0     C63105   3.475   2.753   2.881 -0.1367  0.3812 -0.2353
  468MOL0     C63106   3.328   2.795   2.918 -0.2075 -0.0865 -0.4638
  468MOL0     C63107   3.225   2.689   2.907 -1.0864  0.0645 -0.6267
  468MOL0     C63108   3.096   2.746   2.933 -0.6520 -0.6532 -0.5034
  468MOL0     C63109   2.988   2.791   2.969 -0.3082 -0.5767 -0.0344
  468MOL0     C63110   3.731   2.833   2.645 -0.0622  0.4706 -0.2918
  468MOL0     C63111   3.861   2.883   2.635 -0.4427 -0.3825  0.2093
  468MOL0     C63112   3.865   3.028   2.602  0.3635 -0.7981  0.8867
  468MOL0     H63113   4.390   2.898   2.545 -1.2416  0.2173  0.4134
  468MOL0     H63114   4.606   2.962   2.604  2.5998 -0.5939  1.6404
  468MOL0     H63115   4.855   2.946   2.699 -0.6491 -2.1387  1.2258
  468MOL0     H63116   4.777   3.084   2.764 -1.5102 -0.1369  1.2472
  468MOL0     H63117   4.940   3.101   2.959 -0.1250 -0.3924  0.5400
  468MOL0     H63118   5.025   3.087   2.816 -1.6277  2.0865 -0.9702
  468MOL0     H63119   4.954   2.813   2.935  2.6808 -2.7410 -1.0524
  468MOL0     H63120   5.066   2.907   3.029  2.3050 -1.3587 -0.7031
  468MOL0     H63121   5.097   2.850   2.728 -1.4615 -0.2121  0.1713
  468MOL0     H63122   5.208   2.936   2.824  0.8089 -0.2628  2.2873
  468MOL0     H63123   5.144   2.648   2.877  0.9626 -1.5392 -0.4640
  468MOL0     H63124   5.292   2.695   2.794  2.3576 -1.0809  1.9886
  468MOL0     H63125   5.399   2.731   2.997 -0.2446  0.2746  0.8222
  468MOL0     H63126   5.270   2.845   3.038  0.9946  2.0290 -2.7308
  468MOL0     H63127   5.266   2.526   3.075 -0.0791  0.4019 -0.9504
  468MOL0     H63128   5.135   2.634   3.119 -0.2313 -0.2008  0.0270
  468MOL0     H63129   5.308   2.757   3.254  1.1904 -0.2803  1.0409
  468MOL0     H63130   5.243   2.600   3.320  0.3010  1.2818  1.1173
  468MOL0     H63131   5.503   2.718   3.430  0.4334 -1.4607  1.4659
  468MOL0     H63132   5.721   2.574   3.549 -1.7870  0.8805 -0.6182
  468MOL0     H63133   5.819   2.505   3.407 -3.3418 -1.7696 -1.8247
  468MOL0     H63134   5.856   2.733   3.333 -0.7101  0.3494 -0.5995
  468MOL0     H63135   5.749   2.798   3.462  0.2692  1.0159 -0.2384
  468MOL0     H63136   5.973   2.846   3.508 -3.6963  2.5543  2.5248
  468MOL0     H63137   6.027   2.677   3.490  0.4034  0.8697  1.6757
  468MOL0     H63138   5.807   2.767   3.693  0.7125 -1.8420  4.6273
  468MOL0     H63139   5.977   2.804   3.718  0.2334  0.2173  0.0261
  468MOL0     H63140   6.191   2.667   3.645  0.7684 -0.4412 -1.4744
  468MOL0     H63141   6.401   2.613   3.750 -0.0086  1.1611 -0.2618
  468MOL0     H63142   6.681   2.735   4.084  1.3067  0.7773  0.5974
  468MOL0     H63143   6.898   2.683   4.182 -0.9429  0.0504  1.3440
  468MOL0     H63144   7.033   2.261   4.141 -1.8898  0.4436 -1.9318
  468MOL0     H63145   7.124   2.352   4.017 -0.4883 -1.1444 -0.3164
  468MOL0     H63146   7.199   2.301   4.298 -0.6665  2.6714  0.7839
  468MOL0     H63147   7.285   2.234   4.146 -0.6252  0.3030 -1.4950
  468MOL0     H63148   7.351   2.448   4.069  1.7670 -1.2303 -0.2254
  468MOL0     H63149   7.275   2.529   4.213  0.4559  0.0870 -0.0322
  468MOL0     H63150   7.432   2.425   4.349 -0.8226  2.7172 -1.0804
  468MOL0     H63151   7.512   2.522   4.224  0.0170 -0.8300 -1.4926
  468MOL0     H63152   7.583   2.310   4.111 -0.9197  1.6154 -0.4534
  468MOL0     H63153   7.502   2.225   4.236 -0.0513 -0.5395  1.4759
  468MOL0     H63154   7.662   2.335   4.409  1.6959 -0.5975 -1.3128
  468MOL0     H63155   7.727   2.224   4.287  1.5622 -0.0378 -0.8169
  468MOL0     H63156   7.714   2.518   4.264 -0.9353 -0.5693 -1.1275
  468MOL0     H63157   7.825   2.412   4.170 -0.5539 -1.8437  0.3417
  468MOL0     H63158   7.950   2.522   4.331 -0.2512 -0.6169 -2.5035
  468MOL0     H63159   7.852   2.445   4.467 -0.6176 -3.0671 -0.1679
  468MOL0     H63160   6.874   2.283   4.028 -0.8151 -0.7276  0.8196
  468MOL0     H63161   6.647   2.330   3.957  2.2949 -2.0235  0.0982
  468MOL0     H63162   6.179   2.428   4.078  0.4896 -1.4831 -0.2638
  468MOL0     H63163   5.971   2.486   3.972 -0.7228 -0.6031 -2.1062
  468MOL0     H63164   4.553   2.802   3.008  1.6606 -0.1921 -0.1939
  468MOL0     H63165   4.326   2.719   2.915  0.2986 -0.8577  0.3178
  468MOL0     H63166   4.035   2.603   2.705 -1.7145 -1.9828  0.5659
  468MOL0     H63167   3.830   2.510   2.709 -1.1466 -0.2304 -0.9306
  468MOL0     H63168   3.402   2.621   2.707 -2.1995  2.6798 -2.8159
  468MOL0     H63169   3.451   2.774   2.657  0.1314 -3.4882 -4.2165
  468MOL0     H63170   3.540   2.840   2.872  3.0375 -1.9971 -4.6134
  468MOL0     H63171   3.502   2.677   2.955 -0.4626  1.2117  0.7663
  468MOL0     H63172   3.299   2.879   2.854 -0.3596  0.5153  0.3881
  468MOL0     H63173   3.340   2.837   3.018  1.5870  2.6709 -1.7244
  468MOL0     H63174   3.228   2.639   2.810  1.7835 -0.5600 -0.3121
  468MOL0     H63175   3.234   2.619   2.990  1.2060  0.1686 -0.7272
  468MOL0     H63176   2.895   2.828   3.007  0.8691  0.7089  1.7549
  468MOL0     H63177   3.642   2.894   2.635 -1.6286 -1.7410 -0.6809
  468MOL0     H63178   3.947   3.071   2.660 -1.3166  1.3038  1.8520
  468MOL0     H63179   3.877   3.031   2.494 -0.1643  0.2790  0.8466
  468MOL0     H63180   3.776   3.079   2.639  0.9132  1.0756 -0.2775
  469MOL0     O63181   9.739   7.649   4.073  0.0601 -0.3938  0.0152
  469MOL0     C63182   9.703   7.581   4.166  0.8359  0.3845 -0.5126
  469MOL0     O63183   9.747   7.456   4.190 -0.0836  0.2198  0.0494
  469MOL0     C63184   9.851   7.399   4.123 -0.7989 -0.2672 -0.2595
  469MOL0     C63185   9.884   7.404   3.983 -0.5934 -0.0964 -0.0197
  469MOL0     C63186  10.002   7.347   3.935  0.0600 -0.1266  0.3788
  469MOL0     C63187  10.075   7.266   4.011 -0.3597 -0.0828  0.0042
  469MOL0     O63188  10.184   7.200   3.952  0.2397 -0.2691  0.3808
  469MOL0     C63189  10.302   7.172   4.033  0.0647 -0.2809  0.2598
  469MOL0     C63190  10.420   7.146   3.941 -0.2858  0.0112 -0.0354
  469MOL0     C63191  10.545   7.098   4.026 -0.1808 -1.1749  0.3173
  469MOL0     C63192  10.652   7.069   3.925  0.6125  0.6041 -0.5201
  469MOL0     C63193  10.779   7.001   3.993 -0.2584  0.1760  0.7997
  469MOL0     C63194  10.877   6.959   3.872 -0.0693  0.2285 -0.0204
  469MOL0     C63195  11.003   6.886   3.914  0.1237 -0.2700  0.4119
  469MOL0     C63196  10.967   6.735   3.920  0.6531 -0.1303  0.1506
  469MOL0     N63197  11.091   6.657   3.926  1.1617  0.2653 -0.3409
  469MOL0     C63198  11.102   6.545   3.996  0.3469  0.1168  0.3611
  469MOL0     C63199  11.232   6.500   3.979  0.1997 -0.2126 -0.6196
  469MOL0     C63200  11.294   6.373   4.038  0.2902  0.3407 -0.4577
  469MOL0     C63201  11.442   6.395   4.056  0.0019 -0.9335  0.1997
  469MOL0     C63202  11.496   6.257   4.084  0.0289  0.3933  0.5684
  469MOL0     C63203  11.646   6.258   4.112 -0.0046 -0.1802  0.5004
  469MOL0     O63204  11.710   6.320   4.000 -0.0030 -0.1654 -0.8404
  469MOL0     C63205  11.847   6.348   4.010 -0.1682  0.4543 -0.4563
  469MOL0     C63206  11.930   6.307   4.121  0.0664 -0.7804 -0.3854
  469MOL0     C63207  12.070   6.328   4.111  0.0206 -0.1784 -0.9231
  469MOL0     C63208  12.130   6.383   4.000  0.0123 -0.6645  0.6370
  469MOL0     C63209  12.274   6.403   3.980 -0.3852  0.1848  0.6148
  469MOL0     O63210  12.351   6.393   4.085  0.6741  0.4435 -0.7841
  469MOL0     C63211  12.488   6.430   4.082 -0.1321 -0.8158 -0.9983
  469MOL0     C63212  12.542   6.418   4.209 -0.2429  0.2774 -0.6418
  469MOL0     C63213  12.673   6.457   4.241  0.2156 -0.3217 -0.0558
  469MOL0     C63214  12.748   6.516   4.142 -1.3648 -0.5768 -0.1224
  469MOL0     O63215  12.876   6.580   4.150  0.0347  0.4555 -1.2847
  469MOL0     C63216  12.943   6.576   4.283  0.1790  0.2524  0.3223
  469MOL0     C63217  13.074   6.650   4.280 -0.0779 -0.7396  0.0713
  469MOL0     C63218  13.141   6.640   4.419 -0.4341 -0.5212  0.3641
  469MOL0     C63219  13.258   6.735   4.425  0.4584  0.5707  0.2873
  469MOL0     C63220  13.324   6.708   4.563 -0.9441 -0.6181 -1.1899
  469MOL0     C63221  13.424   6.811   4.598 -0.3088 -0.0708  0.2218
  469MOL0     C63222  13.548   6.799   4.509  0.1667  0.2565  0.0637
  469MOL0     C63223  13.681   6.810   4.592  0.2302 -0.6420  0.9466
  469MOL0    Cl63224  13.720   6.975   4.643 -0.2450 -0.2267 -0.1093
  469MOL0     C63225  12.705   6.519   4.007  0.3411 -0.9654 -0.0151
  469MOL0     C63226  12.578   6.471   3.974  1.7277  0.9657 -0.0065
  469MOL0     O63227  12.317   6.448   3.873  0.0630  0.1206  0.1379
  469MOL0     C63228  12.046   6.411   3.895 -0.2021  0.5813  0.2247
  469MOL0     C63229  11.908   6.396   3.900 -0.2267  0.2699  0.1487
  469MOL0     N63230  11.298   6.601   3.900  0.7415  0.1156  0.6194
  469MOL0     N63231  11.211   6.691   3.870 -1.3356 -0.2084 -0.5302
  469MOL0     C63232  10.038   7.256   4.142 -0.0391  0.0199  0.4763
  469MOL0     C63233   9.933   7.322   4.201  0.8208  0.8053  0.7785
  469MOL0     C63234   9.614   7.645   4.268 -0.6722 -0.1638 -0.0815
  469MOL0     C63235   9.545   7.758   4.229 -0.7817 -0.0543 -0.1859
  469MOL0     C63236   9.480   7.836   4.324 -0.0584 -0.3053 -0.3056
  469MOL0     C63237   9.474   7.801   4.466  0.3661  0.2240 -0.1053
  469MOL0     O63238   9.415   7.879   4.570 -0.4805 -0.2678  0.7383
  469MOL0     C63239   9.406   8.017   4.534 -1.1404  0.6968  0.3536
  469MOL0     C63240   9.389   8.082   4.670  0.0669 -0.9638  0.4639
  469MOL0     C63241   9.239   8.087   4.716  0.3378 -0.4158 -0.2597
  469MOL0     C63242   9.215   8.025   4.855 -0.4231 -0.1332  0.4811
  469MOL0     C63243   9.249   7.882   4.845 -0.0020 -0.0714 -1.4281
  469MOL0     C63244   9.277   7.771   4.829  0.2997  0.0636  0.4903
  469MOL0     C63245   9.531   7.679   4.497 -0.2295 -0.4056 -0.4841
  469MOL0     C63246   9.600   7.599   4.402  0.0756 -0.2727 -0.9560
  469MOL0     C63247   9.669   7.475   4.460  0.2979 -0.7087 -0.4202
  469MOL0     H63248   9.832   7.467   3.913 -0.9828  0.3044  0.6272
  469MOL0     H63249  10.040   7.359   3.833 -1.1771 -0.0493 -0.0878
  469MOL0     H63250  10.329   7.264   4.085 -1.9993 -0.5092  1.8806
  469MOL0     H63251  10.297   7.096   4.112  0.4631 -1.0224 -0.4118
  469MOL0     H63252  10.442   7.230   3.875  1.0308  0.7443  1.2778
  469MOL0     H63253  10.393   7.066   3.871  0.8485 -3.3294  3.0091
  469MOL0     H63254  10.528   7.016   4.096  1.4641 -0.6633  1.3711
  469MOL0     H63255  10.576   7.181   4.089 -2.5538 -1.5214  2.0722
  469MOL0     H63256  10.619   6.987   3.861  3.4743 -0.6718 -0.5130
  469MOL0     H63257  10.681   7.157   3.866 -1.0315  0.4955 -1.5512
  469MOL0     H63258  10.831   7.065   4.064  0.7827 -1.6862  1.7857
  469MOL0     H63259  10.759   6.911   4.051  1.5893  0.3496  1.7721
  469MOL0     H63260  10.819   6.898   3.803 -1.2794  1.4702 -0.1438
  469MOL0     H63261  10.901   7.046   3.811  1.4353 -1.6638 -2.3197
  469MOL0     H63262  11.050   6.931   4.002 -0.2670  3.1986 -0.9908
  469MOL0     H63263  11.068   6.905   3.828 -0.3416 -1.5025 -0.2321
  469MOL0     H63264  10.895   6.717   4.000  1.2522  2.0451  1.2776
  469MOL0     H63265  10.920   6.704   3.827  0.9553  4.1255 -1.6444
  469MOL0     H63266  11.023   6.508   4.060 -0.7669 -0.8815 -1.5028
  469MOL0     H63267  11.236   6.343   4.126 -0.9083  1.6475 -0.7715
  469MOL0     H63268  11.268   6.300   3.961 -3.1909  0.9826 -0.0602
  469MOL0     H63269  11.498   6.440   3.973 -0.1009 -2.0104 -0.4731
  469MOL0     H63270  11.463   6.451   4.148  2.1445 -2.9118  0.9956
  469MOL0     H63271  11.473   6.191   3.999  1.3407  0.5182  0.1008
  469MOL0     H63272  11.437   6.212   4.164  1.9838 -0.7191  1.4446
  469MOL0     H63273  11.684   6.156   4.124  2.8229  0.5005 -1.5061
  469MOL0     H63274  11.678   6.304   4.206  2.6527 -2.7109  0.9750
  469MOL0     H63275  11.881   6.276   4.212  2.7723 -1.0939  1.0485
  469MOL0     H63276  12.136   6.309   4.195  1.4640  1.2674 -1.6840
  469MOL0     H63277  12.476   6.373   4.282 -0.1302 -3.6568 -2.6951
  469MOL0     H63278  12.703   6.468   4.345  1.3627 -0.4787 -0.3551
  469MOL0     H63279  12.885   6.637   4.352 -0.8142 -1.6359  1.2425
  469MOL0     H63280  12.967   6.472   4.310  1.5633  0.3595 -0.3972
  469MOL0     H63281  13.148   6.625   4.203  0.6140 -1.8092  1.0476
  469MOL0     H63282  13.050   6.754   4.257  1.4480 -0.4393 -0.2500
  469MOL0     H63283  13.064   6.654   4.496 -2.3107 -1.1290 -1.2950
  469MOL0     H63284  13.183   6.540   4.424  1.5754  0.3533  2.8466
  469MOL0     H63285  13.228   6.840   4.417  0.4955  0.4967 -1.0298
  469MOL0     H63286  13.318   6.704   4.339 -0.7003 -2.3861  0.4569
  469MOL0     H63287  13.360   6.604   4.569  0.6800 -0.2054 -3.0329
  469MOL0     H63288  13.256   6.720   4.648  2.1521 -0.2458  1.4753
  469MOL0     H63289  13.379   6.910   4.587  1.7881  0.8538 -0.6093
  469MOL0     H63290  13.460   6.802   4.701  0.0977  0.3127  0.1158
  469MOL0     H63291  13.545   6.866   4.423 -0.2467 -0.4290 -0.4633
  469MOL0     H63292  13.548   6.700   4.464  1.9451  0.5511 -0.6425
  469MOL0     H63293  13.667   6.738   4.673 -3.2360 -1.5508 -0.2667
  469MOL0     H63294  13.757   6.766   4.526 -1.7156 -0.1973 -1.7417
  469MOL0     H63295  12.771   6.551   3.926 -0.0959 -0.9753 -0.3760
  469MOL0     H63296  12.541   6.468   3.872 -1.9176 -1.2526  1.1715
  469MOL0     H63297  12.090   6.461   3.809 -0.4232  4.1414  2.0121
  469MOL0     H63298  11.855   6.433   3.813  2.3101  0.2420 -1.5272
  469MOL0     H63299  10.103   7.195   4.202  1.7898  0.9822 -0.4481
  469MOL0     H63300   9.905   7.314   4.306 -4.4996  2.2033 -0.2366
  469MOL0     H63301   9.553   7.787   4.125  0.2808 -0.4182 -0.2166
  469MOL0     H63302   9.439   7.930   4.289  1.1162 -0.0973 -1.1510
  469MOL0     H63303   9.324   8.042   4.466 -0.1095  0.7852 -0.8955
  469MOL0     H63304   9.502   8.059   4.502 -0.9348  1.8666  2.3262
  469MOL0     H63305   9.414   8.187   4.655 -4.5430  0.4220  0.8788
  469MOL0     H63306   9.447   8.030   4.747 -2.5720  0.1637  3.4856
  469MOL0     H63307   9.169   8.030   4.654  1.8312 -2.0307 -0.5157
  469MOL0     H63308   9.205   8.191   4.715 -0.0690 -0.5476 -0.2934
  469MOL0     H63309   9.271   8.083   4.928 -0.2707 -0.7348  0.8544
  469MOL0     H63310   9.108   8.031   4.876 -0.8783 -2.2018 -0.8513
  469MOL0     H63311   9.301   7.667   4.818 -0.1696 -0.5247  3.8658
  469MOL0     H63312   9.538   7.660   4.603  0.1970 -0.5378 -0.5350
  469MOL0     H63313   9.776   7.478   4.440  0.6836 -1.6927  1.2571
  469MOL0     H63314   9.661   7.483   4.569  3.8986  1.0727 -0.1547
  469MOL0     H63315   9.628   7.379   4.430 -1.1240  0.2304 -1.6421
  470MOL0     O63316   0.079  10.308   4.347 -0.2502  0.0978  0.7481
  470MOL0     C63317   0.018  10.410   4.372  0.6137 -0.0531 -0.1887
  470MOL0     O63318   0.081  10.532   4.382  0.2794 -0.6364  0.6090
  470MOL0     C63319   0.212  10.548   4.341 -0.2784  0.6536  0.2342
  470MOL0     C63320   0.247  10.497   4.217  0.0776 -0.0495  0.1383
  470MOL0     C63321   0.378  10.513   4.163  0.0882 -0.2156  0.0741
  470MOL0     C63322   0.470  10.587   4.236  0.3892  0.2667  0.2470
  470MOL0     O63323   0.596  10.585   4.180  0.0500  0.6180 -0.3499
  470MOL0     C63324   0.677  10.686   4.231 -0.9169 -0.0625  0.5417
  470MOL0     C63325   0.813  10.678   4.153 -0.4794  0.3299 -0.2219
  470MOL0     C63326   0.926  10.754   4.222  0.0660 -0.1764  0.4549
  470MOL0     C63327   1.048  10.710   4.146 -0.5766  0.0688 -0.8312
  470MOL0     C63328   1.179  10.756   4.210 -0.5985 -0.8353 -1.0054
  470MOL0     C63329   1.214  10.679   4.333 -0.8145 -0.2650  0.4258
  470MOL0     C63330   1.368  10.684   4.367  0.6085  0.5924 -0.4070
  470MOL0     C63331   1.434  10.820   4.348  0.3473 -0.3840  0.5683
  470MOL0     N63332   1.576  10.826   4.386  0.2123  0.7182  0.4017
  470MOL0     C63333   1.616  10.827   4.514  0.1285 -1.0826 -0.2704
  470MOL0     C63334   1.751  10.852   4.503 -1.0234  0.8067  0.4647
  470MOL0     C63335   1.847  10.853   4.617 -0.5729 -0.2318  0.2110
  470MOL0     C63336   1.990  10.874   4.565 -0.0364  0.7967  0.4459
  470MOL0     C63337   2.090  10.871   4.674 -0.4950 -1.0068 -0.3464
  470MOL0     C63338   2.235  10.874   4.629  0.0808 -0.5396  0.5502
  470MOL0     O63339   2.314  10.894   4.750 -0.1928  0.3978  0.1799
  470MOL0     C63340   2.452  10.887   4.734 -1.2059  0.0703 -0.9678
  470MOL0     C63341   2.519  10.874   4.611 -0.0846 -0.7838  0.3923
  470MOL0     C63342   2.656  10.870   4.604 -0.5702  0.6924  0.3936
  470MOL0     C63343   2.735  10.885   4.719 -0.1132  0.4780 -0.2307
  470MOL0     C63344   2.875  10.878   4.716 -0.1119  0.1681 -1.0118
  470MOL0     O63345   2.947  10.900   4.833 -0.0328  0.1088  0.3927
  470MOL0     C63346   3.087  10.870   4.821  0.4798 -0.2776 -1.0649
  470MOL0     C63347   3.138  10.773   4.906  0.3405 -0.4599  0.1288
  470MOL0     C63348   3.272  10.730   4.892 -0.1528  0.5690 -0.1336
  470MOL0     C63349   3.363  10.793   4.806 -0.1698  0.8907  0.2465
  470MOL0     O63350   3.493  10.746   4.806 -0.0470  0.6230 -0.0188
  470MOL0     C63351   3.584  10.802   4.708  0.1323 -0.3958 -0.0017
  470MOL0     C63352   3.730  10.752   4.735  0.2603 -0.0830  0.0498
  470MOL0     C63353   3.830  10.795   4.626 -0.5266  0.3597 -0.0909
  470MOL0     C63354   3.969  10.811   4.695 -0.2643 -0.0632 -0.6385
  470MOL0     C63355   4.068  10.887   4.615 -0.4267  0.1956  0.6124
  470MOL0     C63356   4.199  10.912   4.694  0.2221 -0.2505  1.0907
  470MOL0     C63357   4.309  11.001   4.627  0.4065 -0.4177  0.5507
  470MOL0     C63358   4.379  10.926   4.506  0.1135  0.2671  0.2881
  470MOL0    Cl63359   4.530  11.005   4.462 -0.1367  0.0746  0.2889
  470MOL0     C63360   3.311  10.895   4.732  0.0175 -0.5390 -0.2882
  470MOL0     C63361   3.176  10.929   4.734  0.0665  0.0505 -0.4866
  470MOL0     O63362   2.926  10.857   4.606  0.2526  0.2381 -0.0761
  470MOL0     C63363   2.667  10.908   4.836 -0.4575  0.2779 -0.2307
  470MOL0     C63364   2.529  10.904   4.847 -0.4471  0.1625 -0.2285
  470MOL0     N63365   1.790  10.842   4.368 -0.3874 -0.6967  0.1246
  470MOL0     N63366   1.684  10.829   4.303  0.7126 -0.1641 -0.0844
  470MOL0     C63367   0.435  10.640   4.365 -0.1811 -0.4194 -0.9484
  470MOL0     C63368   0.307  10.617   4.417  0.4700  0.1509 -0.0144
  470MOL0     C63369  -0.122  10.404   4.393 -0.2825  0.2780  0.1929
  470MOL0     C63370  -0.198  10.523   4.389  0.2335  0.8123 -0.0061
  470MOL0     C63371  -0.341  10.527   4.391  0.1640  0.9044 -0.4300
  470MOL0     C63372  -0.411  10.410   4.399  0.5310  0.0383 -0.2726
  470MOL0     O63373  -0.552  10.412   4.403 -0.0366 -0.8714 -0.2682
  470MOL0     C63374  -0.625  10.321   4.319 -0.6387  0.0860  0.7895
  470MOL0     C63375  -0.774  10.347   4.299 -1.2424  0.0225  0.1941
  470MOL0     C63376  -0.861  10.341   4.425  0.7336 -0.1247  0.2189
  470MOL0     C63377  -1.011  10.351   4.374  0.5681  0.0443 -1.3116
  470MOL0     C63378  -1.110  10.311   4.475  0.0930 -0.0837 -0.5166
  470MOL0     C63379  -1.199  10.281   4.550  0.0539 -0.8038  0.4658
  470MOL0     C63380  -0.331  10.292   4.421 -0.0599  0.1685  0.4908
  470MOL0     C63381  -0.193  10.291   4.419  0.0527 -0.5872 -0.1448
  470MOL0     C63382  -0.127  10.157   4.448  0.4779  0.0902 -0.6700
  470MOL0     H63383   0.174  10.440   4.162 -0.4985  1.2975 -0.5344
  470MOL0     H63384   0.382  10.473   4.062 -5.0671  3.0627 -1.8411
  470MOL0     H63385   0.639  10.787   4.215 -0.5950  0.1578  1.1412
  470MOL0     H63386   0.690  10.661   4.336  1.9632 -0.4780  0.1772
  470MOL0     H63387   0.790  10.724   4.056 -3.7276  1.4879  0.9641
  470MOL0     H63388   0.824  10.570   4.140 -0.1938  0.2128  0.9165
  470MOL0     H63389   0.924  10.732   4.330 -1.4268 -0.4378  0.3895
  470MOL0     H63390   0.916  10.862   4.214  2.3809  0.2649  2.2671
  470MOL0     H63391   1.048  10.600   4.145 -0.0158  0.0412  0.4961
  470MOL0     H63392   1.048  10.751   4.044  1.3842 -1.7228 -1.6234
  470MOL0     H63393   1.263  10.754   4.140 -0.8072  0.3952 -1.3119
  470MOL0     H63394   1.171  10.863   4.233  0.5392 -0.5578 -1.8034
  470MOL0     H63395   1.155  10.717   4.417 -1.5871  2.1719 -1.0910
  470MOL0     H63396   1.193  10.572   4.326 -0.0339 -0.4273  0.4678
  470MOL0     H63397   1.424  10.615   4.303  2.8173 -0.2780  2.2180
  470MOL0     H63398   1.368  10.651   4.472 -3.5380  1.7103  0.0905
  470MOL0     H63399   1.445  10.841   4.241 -0.6077  0.5583  0.6389
  470MOL0     H63400   1.382  10.898   4.405 -0.6789 -0.0958 -0.7136
  470MOL0     H63401   1.558  10.820   4.606  0.0489  0.1539 -0.2134
  470MOL0     H63402   1.823  10.931   4.690  1.3030  0.3932  0.2178
  470MOL0     H63403   1.848  10.753   4.662 -1.1389  0.2856  1.4186
  470MOL0     H63404   2.008  10.804   4.483 -4.6814  1.8888 -1.8722
  470MOL0     H63405   2.003  10.972   4.520 -2.7403  0.2341 -1.8984
  470MOL0     H63406   2.072  10.778   4.727  2.5203 -1.8769 -0.7119
  470MOL0     H63407   2.072  10.958   4.738 -1.4483 -2.0777  0.8840
  470MOL0     H63408   2.245  10.962   4.564 -0.7512 -1.4704 -0.8986
  470MOL0     H63409   2.259  10.781   4.576  0.3438 -0.9085  1.3187
  470MOL0     H63410   2.463  10.863   4.518 -1.8974 -2.0392  1.5648
  470MOL0     H63411   2.694  10.847   4.505 -0.7431  0.2772  0.4203
  470MOL0     H63412   3.070  10.734   4.981 -1.6519  2.2744 -0.1057
  470MOL0     H63413   3.307  10.653   4.959 -2.0283 -0.4737 -0.2781
  470MOL0     H63414   3.541  10.767   4.614 -2.7160 -1.4745  1.5778
  470MOL0     H63415   3.585  10.911   4.716  0.1435 -0.3139 -1.0245
  470MOL0     H63416   3.757  10.777   4.838  1.5390 -3.6394  0.7521
  470MOL0     H63417   3.743  10.643   4.727  2.4862  0.2489 -1.6691
  470MOL0     H63418   3.825  10.708   4.559 -0.4837  0.7185 -0.5650
  470MOL0     H63419   3.803  10.886   4.572  1.8239  0.5201 -1.0851
  470MOL0     H63420   4.018  10.714   4.705  0.0067  0.0757 -0.6063
  470MOL0     H63421   3.959  10.858   4.794  1.1615 -0.2493 -0.3843
  470MOL0     H63422   4.030  10.986   4.586  0.1841  0.1074 -0.5321
  470MOL0     H63423   4.089  10.839   4.519  0.2597  0.6958  0.5024
  470MOL0     H63424   4.170  10.960   4.788  0.4580 -0.7916  1.4473
  470MOL0     H63425   4.246  10.815   4.710 -1.9887 -1.4400  0.6619
  470MOL0     H63426   4.383  11.038   4.698 -2.9556  2.0199  3.0833
  470MOL0     H63427   4.265  11.090   4.582  0.4318 -0.6274  0.1082
  470MOL0     H63428   4.409  10.832   4.553 -0.4371 -0.0874 -0.0621
  470MOL0     H63429   4.321  10.912   4.415 -0.9058  1.1446  0.7863
  470MOL0     H63430   3.384  10.933   4.661  0.6135 -1.6361 -0.2904
  470MOL0     H63431   3.131  11.005   4.671 -1.1355  1.7874  2.2962
  470MOL0     H63432   2.731  10.935   4.920  2.9332 -0.3775 -2.4234
  470MOL0     H63433   2.475  10.923   4.939 -1.9791  2.0878 -1.4414
  470MOL0     H63434   0.507  10.695   4.425  1.7330 -2.1921 -1.5046
  470MOL0     H63435   0.285  10.647   4.519 -0.1747  0.4665 -0.2416
  470MOL0     H63436  -0.147  10.618   4.399  3.0938 -0.5766 -0.3695
  470MOL0     H63437  -0.385  10.627   4.394 -0.2190  0.7322 -0.2766
  470MOL0     H63438  -0.614  10.221   4.363 -0.1427  0.2362  1.0124
  470MOL0     H63439  -0.575  10.319   4.222  0.0096  0.0795  1.1160
  470MOL0     H63440  -0.801  10.260   4.237  0.2179 -1.4631  1.5484
  470MOL0     H63441  -0.789  10.439   4.243 -0.3932 -1.0814 -2.0039
  470MOL0     H63442  -0.834  10.420   4.495  0.4371  1.7158 -1.6526
  470MOL0     H63443  -0.862  10.248   4.484  1.0389 -0.2228  0.0722
  470MOL0     H63444  -1.025  10.453   4.337 -0.1597  1.4925  2.4536
  470MOL0     H63445  -1.035  10.287   4.289 -0.0772  1.6091 -2.3402
  470MOL0     H63446  -1.276  10.230   4.603 -0.3881 -0.4845  0.1391
  470MOL0     H63447  -0.380  10.198   4.444 -2.7858  0.6524 -2.5342
  470MOL0     H63448  -0.077  10.121   4.358 -0.1000  2.6105 -2.1103
  470MOL0     H63449  -0.053  10.168   4.528  2.7139  1.0796 -2.7375
  470MOL0     H63450  -0.189  10.075   4.484  1.1090  0.1985  0.7308
  471MOL0     O63451   4.788   7.948  10.465  0.7918 -0.0928  0.0399
  471MOL0     C63452   4.804   7.929  10.347  1.0031  0.6581  0.3172
  471MOL0     O63453   4.922   7.930  10.285 -0.2773 -0.1697 -0.0252
  471MOL0     C63454   5.032   7.962  10.354 -0.2269  0.0808  1.4572
  471MOL0     C63455   5.138   7.868  10.372  0.4054  0.1431  0.0505
  471MOL0     C63456   5.247   7.887  10.458 -0.0355 -0.0912 -0.9327
  471MOL0     C63457   5.269   8.011  10.520 -1.1808 -0.1064  0.1943
  471MOL0     O63458   5.383   8.035  10.599  0.9484 -0.0638  0.2585
  471MOL0     C63459   5.391   7.954  10.718  0.1053  0.1880 -0.7302
  471MOL0     C63460   5.527   7.978  10.792 -0.4603 -0.6709  0.7770
  471MOL0     C63461   5.568   7.872  10.892  0.6582 -0.1656 -0.1978
  471MOL0     C63462   5.704   7.902  10.940 -0.5348  0.9664 -1.1876
  471MOL0     C63463   5.730   8.028  11.024  0.4374 -0.0810 -0.2967
  471MOL0     C63464   5.875   8.081  11.019  0.5383  0.8953 -0.2037
  471MOL0     C63465   5.889   8.190  11.134  0.2395  0.2556 -0.0912
  471MOL0     C63466   6.027   8.263  11.151  0.5517  0.0750  0.6836
  471MOL0     N63467   6.093   8.289  11.020 -0.1439 -0.7887 -0.6350
  471MOL0     C63468   6.060   8.404  10.941 -0.3493  0.7702 -0.1546
  471MOL0     C63469   6.137   8.389  10.831 -1.2891  0.5321  0.4610
  471MOL0     C63470   6.151   8.501  10.730  0.1449  0.2165 -0.0032
  471MOL0     C63471   6.282   8.515  10.658 -0.0916 -0.3573  0.0816
  471MOL0     C63472   6.280   8.642  10.562  0.6119  0.6836  0.3843
  471MOL0     C63473   6.400   8.641  10.466 -0.0811 -0.1261 -0.6778
  471MOL0     O63474   6.521   8.641  10.547  0.1375  0.4633 -0.0521
  471MOL0     C63475   6.643   8.631  10.489 -0.6462  0.1278 -0.5936
  471MOL0     C63476   6.745   8.575  10.555 -0.1056  0.4598  0.0615
  471MOL0     C63477   6.872   8.573  10.506 -0.6395 -0.6066  0.0985
  471MOL0     C63478   6.896   8.619  10.373 -0.8282 -0.1097  0.0721
  471MOL0     C63479   7.035   8.617  10.312  0.1784  0.6189 -0.4718
  471MOL0     O63480   7.130   8.542  10.380  0.6444  0.2958  0.1799
  471MOL0     C63481   7.258   8.534  10.326  0.2687 -0.3980 -0.4013
  471MOL0     C63482   7.370   8.595  10.390  0.0552 -0.1726  0.4138
  471MOL0     C63483   7.500   8.577  10.347 -0.4638  0.2408 -0.3052
  471MOL0     C63484   7.527   8.507  10.229  0.0332 -0.0209 -0.6604
  471MOL0     O63485   7.661   8.514  10.192  0.1374 -0.2945 -0.4638
  471MOL0     C63486   7.712   8.444  10.077  0.0399  0.4457  0.1960
  471MOL0     C63487   7.850   8.401  10.098 -0.2035 -0.1948  0.1957
  471MOL0     C63488   7.950   8.509  10.063 -0.2991 -0.8995  0.5194
  471MOL0     C63489   8.088   8.453  10.061 -0.7157 -0.1624 -0.0083
  471MOL0     C63490   8.195   8.563  10.029  0.6313 -0.6191  0.2348
  471MOL0     C63491   8.171   8.620   9.891 -1.0646  0.1861  0.2595
  471MOL0     C63492   8.272   8.736   9.857 -0.2712  0.0289 -0.9440
  471MOL0     C63493   8.212   8.815   9.733 -0.6917 -0.4832 -0.2832
  471MOL0    Cl63494   8.043   8.872   9.769  0.0782 -0.2144 -0.1298
  471MOL0     C63495   7.419   8.440  10.168 -0.7868  0.7580  0.5927
  471MOL0     C63496   7.288   8.452  10.220 -0.1429  0.4888  0.4229
  471MOL0     O63497   7.049   8.678  10.211 -0.0411 -0.1087 -0.6945
  471MOL0     C63498   6.791   8.680  10.305 -0.1965  0.3271  0.1463
  471MOL0     C63499   6.667   8.690  10.369  0.3035 -0.5034 -0.1089
  471MOL0     N63500   6.217   8.281  10.844  0.1164  0.3644 -0.4781
  471MOL0     N63501   6.187   8.217  10.950 -0.9237  0.3357  0.8303
  471MOL0     C63502   5.172   8.108  10.499 -0.1670  0.3789  0.0701
  471MOL0     C63503   5.048   8.084  10.421  0.1063 -0.9149  0.7932
  471MOL0     C63504   4.686   7.899  10.255  0.1233 -0.3497  0.0310
  471MOL0     C63505   4.711   7.825  10.137 -0.2572  0.0792 -0.1550
  471MOL0     C63506   4.605   7.791  10.052 -0.7674  0.1984 -0.0055
  471MOL0     C63507   4.475   7.826  10.085 -0.2578  0.2886  0.7349
  471MOL0     O63508   4.367   7.789   9.994 -0.1939 -0.9813 -0.2748
  471MOL0     C63509   4.238   7.854  10.006  0.5028  0.4711 -0.2769
  471MOL0     C63510   4.147   7.779   9.913 -0.2872 -0.9368 -0.2400
  471MOL0     C63511   3.999   7.811   9.955 -0.1179 -0.4090 -0.1990
  471MOL0     C63512   3.904   7.790   9.842  0.2228  0.9273 -0.0208
  471MOL0     C63513   3.785   7.731   9.910 -0.0670 -0.5113 -0.0371
  471MOL0     C63514   3.692   7.684   9.968  0.3410  0.0567 -1.1962
  471MOL0     C63515   4.451   7.899  10.202  0.8077 -0.4938  0.9093
  471MOL0     C63516   4.552   7.936  10.288 -0.0136 -0.0651 -0.0630
  471MOL0     C63517   4.512   8.007  10.421  1.1208  0.1777 -0.1277
  471MOL0     H63518   5.133   7.780  10.308 -0.1919  1.4433 -1.7749
  471MOL0     H63519   5.315   7.803  10.469 -1.5479 -1.4048 -1.1794
  471MOL0     H63520   5.304   7.975  10.780 -0.8394  1.8537 -2.4803
  471MOL0     H63521   5.388   7.848  10.692 -1.1860  0.0874 -0.2471
  471MOL0     H63522   5.533   8.079  10.833 -1.1977 -0.0915 -0.5008
  471MOL0     H63523   5.603   7.973  10.714 -2.9473 -2.8815 -1.7724
  471MOL0     H63524   5.558   7.779  10.834  0.0172  0.1080 -0.5311
  471MOL0     H63525   5.492   7.859  10.969  1.3750  0.2628  0.6004
  471MOL0     H63526   5.737   7.825  11.011 -0.2426  0.4262 -1.9040
  471MOL0     H63527   5.782   7.891  10.864  1.2378 -1.0354  0.7604
  471MOL0     H63528   5.658   8.103  10.992 -3.5744 -1.0199  5.0811
  471MOL0     H63529   5.704   8.005  11.127  2.4152  1.2896  0.5580
  471MOL0     H63530   5.942   7.998  11.042  3.3489  2.7008 -1.4085
  471MOL0     H63531   5.901   8.114  10.918 -2.4207 -0.3532 -1.5131
  471MOL0     H63532   5.863   8.155  11.234 -3.0613  2.7186  0.0628
  471MOL0     H63533   5.828   8.274  11.100  1.8497  1.5004 -0.0184
  471MOL0     H63534   6.016   8.353  11.211  1.8289  0.0540  0.9838
  471MOL0     H63535   6.099   8.199  11.204  0.1071 -0.6632  0.4122
  471MOL0     H63536   5.980   8.473  10.964 -0.3014  1.0299 -0.7460
  471MOL0     H63537   6.077   8.477  10.654  0.9232  0.1255 -0.7440
  471MOL0     H63538   6.130   8.597  10.777 -2.4084 -0.4481  0.4036
  471MOL0     H63539   6.362   8.535  10.730  0.7365  2.6555 -1.4916
  471MOL0     H63540   6.316   8.424  10.608  0.2792  0.0711 -0.4750
  471MOL0     H63541   6.285   8.727  10.630 -0.1177 -0.3163  1.7416
  471MOL0     H63542   6.190   8.646  10.500  0.2515  0.7785  0.9006
  471MOL0     H63543   6.400   8.735  10.410 -2.3849 -0.9355 -2.1754
  471MOL0     H63544   6.391   8.555  10.400  1.1120 -2.2010  1.6770
  471MOL0     H63545   6.711   8.539  10.651 -0.4296  1.3879  0.3099
  471MOL0     H63546   6.950   8.530  10.569 -1.3074 -0.7939  0.8221
  471MOL0     H63547   7.336   8.642  10.481 -2.9436  2.3622 -1.7768
  471MOL0     H63548   7.586   8.613  10.401 -1.2891 -0.1641  1.3410
  471MOL0     H63549   7.648   8.357  10.060  1.7254 -0.9089  0.5154
  471MOL0     H63550   7.716   8.508   9.989  2.1364  0.3053  0.1456
  471MOL0     H63551   7.861   8.359  10.199  1.2182  0.1544  0.2102
  471MOL0     H63552   7.867   8.312  10.038  0.3761  0.5744 -0.8150
  471MOL0     H63553   7.936   8.546   9.961  1.5082  1.2862  0.9721
  471MOL0     H63554   7.947   8.590  10.137  0.9797  1.2763 -1.6788
  471MOL0     H63555   8.107   8.378   9.983  1.6888 -0.8317  1.1209
  471MOL0     H63556   8.109   8.419  10.163 -1.3128 -0.7428 -0.0730
  471MOL0     H63557   8.298   8.530  10.047  1.1657  0.2383 -1.1271
  471MOL0     H63558   8.177   8.645  10.099 -0.5318 -1.1800  0.6197
  471MOL0     H63559   8.195   8.531   9.832  1.1078 -0.2172  1.6603
  471MOL0     H63560   8.068   8.653   9.873 -0.8943  0.3679 -0.4153
  471MOL0     H63561   8.371   8.698   9.832  0.2231  0.2060  0.5975
  471MOL0     H63562   8.291   8.802   9.943 -2.6785  0.4164 -0.6234
  471MOL0     H63563   8.279   8.898   9.709  0.7156 -1.1950  1.0241
  471MOL0     H63564   8.202   8.748   9.647 -1.1004 -1.8751  0.8034
  471MOL0     H63565   7.426   8.394  10.070 -0.6508  2.5898 -0.2967
  471MOL0     H63566   7.207   8.393  10.178  1.3698 -1.3511 -0.0480
  471MOL0     H63567   6.795   8.724  10.206  0.9865 -0.3301 -0.1153
  471MOL0     H63568   6.596   8.754  10.319  0.0239 -0.9086 -0.2374
  471MOL0     H63569   5.190   8.203  10.549  2.3153 -1.2632  2.5769
  471MOL0     H63570   4.973   8.162  10.418  2.0633  1.0289 -0.2814
  471MOL0     H63571   4.808   7.789  10.103 -0.4241 -2.0329  1.4024
  471MOL0     H63572   4.617   7.755   9.950  1.0701 -0.2650  0.3391
  471MOL0     H63573   4.242   7.960   9.977  0.0873  0.2857 -1.0406
  471MOL0     H63574   4.198   7.848  10.107 -1.6622  1.7529 -0.9718
  471MOL0     H63575   4.165   7.671   9.922 -1.6394 -1.0712  1.1152
  471MOL0     H63576   4.169   7.812   9.811  1.9873 -1.1296  0.1370
  471MOL0     H63577   3.990   7.909  10.002 -3.4659  0.0786 -1.5861
  471MOL0     H63578   3.966   7.743  10.034  0.6991 -0.1049  0.4044
  471MOL0     H63579   3.882   7.888   9.799  0.9576  0.0707 -2.5580
  471MOL0     H63580   3.928   7.727   9.755 -0.9252  0.7430 -0.2161
  471MOL0     H63581   3.611   7.630  10.013  2.2547 -1.1418  0.9970
  471MOL0     H63582   4.351   7.929  10.229  0.9415  1.0206 -0.1626
  471MOL0     H63583   4.499   7.934  10.500 -2.2113  0.3384 -0.3655
  471MOL0     H63584   4.582   8.089  10.441  0.5516  1.2658 -2.2388
  471MOL0     H63585   4.412   8.049  10.404  1.6152  0.8966 -1.4354
  472MOL0     O63586  10.368   3.591   9.190 -0.2773  0.1803  1.0910
  472MOL0     C63587  10.368   3.595   9.311  0.5469 -0.7381  1.6723
  472MOL0     O63588  10.472   3.588   9.387 -0.1465 -0.2701  0.0810
  472MOL0     C63589  10.603   3.615   9.346  1.0254  0.1855  0.5937
  472MOL0     C63590  10.664   3.546   9.238  0.0838  0.8135  0.0049
  472MOL0     C63591  10.792   3.574   9.195 -0.1356 -0.8027 -0.0620
  472MOL0     C63592  10.864   3.664   9.265 -0.0807 -0.4160  0.1940
  472MOL0     O63593  10.996   3.683   9.226  0.3447 -0.2032  1.0343
  472MOL0     C63594  11.081   3.744   9.314 -0.1052  0.3273  0.1131
  472MOL0     C63595  11.223   3.722   9.276  0.2807 -0.0756 -0.5405
  472MOL0     C63596  11.301   3.806   9.381  0.2378  0.1156  0.1877
  472MOL0     C63597  11.443   3.823   9.338 -0.0916  0.4348  0.0341
  472MOL0     C63598  11.517   3.888   9.456  0.3389 -1.1411  1.1188
  472MOL0     C63599  11.474   4.038   9.473 -0.0784  0.1385 -0.3534
  472MOL0     C63600  11.573   4.132   9.544 -0.2612 -0.1635  0.5866
  472MOL0     C63601  11.690   4.176   9.455 -0.1476  0.6787 -0.7438
  472MOL0     N63602  11.781   4.261   9.534  0.0138  0.3971  0.5068
  472MOL0     C63603  11.763   4.394   9.552 -0.2192 -0.7089 -0.5221
  472MOL0     C63604  11.877   4.434   9.613  0.4695  0.3469 -0.2943
  472MOL0     C63605  11.910   4.572   9.652 -0.1114  0.0248 -0.6789
  472MOL0     C63606  11.913   4.588   9.803  1.1736 -0.0696 -0.2383
  472MOL0     C63607  11.896   4.735   9.839 -0.1795 -0.5778 -0.7798
  472MOL0     C63608  11.906   4.749   9.990 -0.7639 -0.4369 -0.4578
  472MOL0     O63609  11.905   4.895  10.018 -0.0057 -0.4529  0.2180
  472MOL0     C63610  12.025   4.958  10.054 -0.9257 -0.4589 -0.8600
  472MOL0     C63611  12.115   4.911  10.157  0.2364 -0.9355  1.3013
  472MOL0     C63612  12.235   4.970  10.189 -0.3388  0.7678  0.8367
  472MOL0     C63613  12.275   5.073  10.114 -0.0960 -0.4238  0.9110
  472MOL0     C63614  12.412   5.122  10.144  0.5067 -0.4175  0.2733
  472MOL0     O63615  12.473   5.091  10.261  0.3451  0.2218 -0.4843
  472MOL0     C63616  12.598   5.134  10.292 -0.4094 -1.0940 -0.0094
  472MOL0     C63617  12.717   5.063  10.277  0.1503  0.1666  1.2068
  472MOL0     C63618  12.835   5.102  10.340 -0.0749 -0.0820 -0.9854
  472MOL0     C63619  12.846   5.231  10.395  0.4599  0.3592  0.3031
  472MOL0     O63620  12.961   5.288  10.443  0.5737 -0.5496 -0.2754
  472MOL0     C63621  13.063   5.188  10.473  0.3610  0.3151 -0.6087
  472MOL0     C63622  13.187   5.243  10.561  0.3467  0.1452  0.1788
  472MOL0     C63623  13.292   5.326  10.493 -0.2388 -0.1719 -0.1924
  472MOL0     C63624  13.410   5.388  10.583 -0.4461 -0.3954  0.4489
  472MOL0     C63625  13.544   5.408  10.522 -1.0440  0.9334 -0.4298
  472MOL0     C63626  13.555   5.529  10.423  0.4661 -0.4417 -0.3072
  472MOL0     C63627  13.701   5.553  10.395  0.3577 -0.9299 -0.1168
  472MOL0     C63628  13.792   5.640  10.494 -0.3009  0.3390  0.7976
  472MOL0    Cl63629  13.916   5.522  10.555 -0.4120  0.2911  0.6717
  472MOL0     C63630  12.730   5.313  10.388  0.2427 -0.2947  0.4347
  472MOL0     C63631  12.610   5.266  10.344  0.7456  0.2767  0.5217
  472MOL0     O63632  12.463   5.184  10.055 -0.8701 -0.6074  0.4910
  472MOL0     C63633  12.190   5.127  10.008  0.4135 -0.3228 -0.2047
  472MOL0     C63634  12.069   5.066   9.976  0.3724  0.0611  0.1575
  472MOL0     N63635  11.952   4.317   9.652  0.2441 -1.2464  0.3366
  472MOL0     N63636  11.887   4.213   9.606  0.4471  0.4760 -0.3560
  472MOL0     C63637  10.814   3.745   9.371 -0.1627  0.1723 -0.0196
  472MOL0     C63638  10.683   3.711   9.409  0.5587 -0.3478  0.5912
  472MOL0     C63639  10.242   3.620   9.377  0.7956 -0.4174 -0.4766
  472MOL0     C63640  10.246   3.644   9.514  0.1757 -0.8579  0.6254
  472MOL0     C63641  10.132   3.682   9.586  0.9107  0.4551 -0.2333
  472MOL0     C63642  10.007   3.683   9.525 -1.4154  0.3425  0.1170
  472MOL0     O63643   9.900   3.699   9.613 -0.3170 -0.2090 -0.1798
  472MOL0     C63644   9.764   3.684   9.562 -0.0678 -0.6374 -0.5452
  472MOL0     C63645   9.680   3.622   9.670 -0.0686  0.6434  1.0230
  472MOL0     C63646   9.533   3.609   9.626 -0.6140  0.6163 -1.3081
  472MOL0     C63647   9.439   3.539   9.726  0.0808  0.0551  0.0664
  472MOL0     C63648   9.470   3.400   9.755 -0.2004 -0.0081  0.2389
  472MOL0     C63649   9.487   3.294   9.798 -0.3301 -0.1967 -0.3222
  472MOL0     C63650  10.002   3.666   9.387  0.4879  0.7666  0.2110
  472MOL0     C63651  10.114   3.640   9.313 -0.3206 -0.0594  0.3123
  472MOL0     C63652  10.095   3.612   9.165  0.7110 -0.2261  0.1754
  472MOL0     H63653  10.613   3.469   9.181  3.3613  1.0882 -3.7512
  472MOL0     H63654  10.836   3.520   9.111 -2.4302 -1.7283 -0.7614
  472MOL0     H63655  11.060   3.851   9.323  1.2826  0.5222  1.4402
  472MOL0     H63656  11.067   3.695   9.411  2.5890  0.1990  0.5275
  472MOL0     H63657  11.235   3.759   9.174 -1.0795  2.0548  0.0044
  472MOL0     H63658  11.247   3.615   9.280  1.5928  0.1231 -2.0012
  472MOL0     H63659  11.290   3.758   9.478 -3.2951  0.1888 -0.0450
  472MOL0     H63660  11.262   3.906   9.400  0.6235  0.3543 -0.2400
  472MOL0     H63661  11.495   3.728   9.326  0.6332  0.9261 -0.8460
  472MOL0     H63662  11.446   3.876   9.242 -1.1060 -1.9098 -1.3796
  472MOL0     H63663  11.506   3.824   9.544  0.5497 -2.4246  0.2435
  472MOL0     H63664  11.623   3.889   9.430  0.0109  2.6656 -0.8031
  472MOL0     H63665  11.433   4.077   9.379 -0.9624  0.8075  0.2829
  472MOL0     H63666  11.388   4.034   9.541 -1.1202  1.4715 -1.5166
  472MOL0     H63667  11.610   4.094   9.639 -0.7300  1.6174  1.5372
  472MOL0     H63668  11.513   4.221   9.566 -1.1741 -0.6269  0.0340
  472MOL0     H63669  11.748   4.089   9.422  0.2588  0.5896  0.1678
  472MOL0     H63670  11.662   4.239   9.371 -2.1778  2.1238  0.9394
  472MOL0     H63671  11.680   4.450   9.511 -0.0124 -0.8494 -1.1489
  472MOL0     H63672  12.005   4.606   9.608 -0.5094 -1.1587 -2.5681
  472MOL0     H63673  11.828   4.637   9.618  1.3716  2.0535 -0.5968
  472MOL0     H63674  11.836   4.535   9.861  0.3851  1.8696  0.5823
  472MOL0     H63675  12.009   4.552   9.840  1.9173  0.4166 -1.6418
  472MOL0     H63676  11.796   4.772   9.813  0.7187  1.7185 -1.1849
  472MOL0     H63677  11.973   4.791   9.786  0.3389 -2.5623 -2.2407
  472MOL0     H63678  12.000   4.714  10.034  1.0182  1.8982 -2.0743
  472MOL0     H63679  11.820   4.699  10.035 -2.1152  0.9828 -1.3573
  472MOL0     H63680  12.091   4.826  10.220  3.2736 -1.0793  2.4458
  472MOL0     H63681  12.292   4.926  10.270  0.8764 -0.0960 -0.4374
  472MOL0     H63682  12.704   4.967  10.230 -0.0353  1.2998 -1.1840
  472MOL0     H63683  12.912   5.026  10.353  1.7706  1.7030 -0.9389
  472MOL0     H63684  13.014   5.106  10.526 -0.7895 -1.7535 -4.5650
  472MOL0     H63685  13.106   5.150  10.380  2.6999  1.5489 -0.1098
  472MOL0     H63686  13.148   5.322  10.626  2.3277  2.7445 -1.6086
  472MOL0     H63687  13.222   5.156  10.618 -2.6342 -0.3758  1.4198
  472MOL0     H63688  13.327   5.271  10.405 -1.6667  2.3773 -2.5094
  472MOL0     H63689  13.229   5.407  10.456 -0.7790 -0.9080 -0.9191
  472MOL0     H63690  13.439   5.323  10.667  0.9800  0.3134  0.5377
  472MOL0     H63691  13.378   5.480  10.632  1.6908  1.3584 -1.2141
  472MOL0     H63692  13.566   5.314  10.470 -0.7370  0.3797  0.6630
  472MOL0     H63693  13.625   5.418  10.595  2.1301 -5.7104 -2.2105
  472MOL0     H63694  13.496   5.510  10.333 -0.2199  2.8130 -0.6603
  472MOL0     H63695  13.517   5.616  10.477 -0.5005  0.8360 -2.8730
  472MOL0     H63696  13.710   5.599  10.296  0.4557 -1.7422 -0.4919
  472MOL0     H63697  13.736   5.450  10.384 -0.5121 -1.3480  0.8234
  472MOL0     H63698  13.837   5.727  10.446 -1.6142  1.9602  2.3421
  472MOL0     H63699  13.720   5.677  10.569 -2.6359 -1.5575 -0.3583
  472MOL0     H63700  12.742   5.415  10.425  1.8282 -0.0512 -0.6196
  472MOL0     H63701  12.519   5.318  10.371  1.5837  0.8337  2.4235
  472MOL0     H63702  12.229   5.217   9.961 -0.3324  1.2401  1.9710
  472MOL0     H63703  12.003   5.119   9.908 -0.9603 -0.7197  0.8125
  472MOL0     H63704  10.862   3.834   9.411 -0.2376  0.9025 -1.5099
  472MOL0     H63705  10.642   3.755   9.500 -0.7320  0.9718 -0.5757
  472MOL0     H63706  10.339   3.632   9.568  1.8490 -3.5571 -2.4183
  472MOL0     H63707  10.134   3.686   9.695 -1.3152 -1.3534 -0.0365
  472MOL0     H63708   9.771   3.618   9.475  2.3395 -0.6431 -0.4026
  472MOL0     H63709   9.723   3.782   9.538 -2.1150 -1.7518 -1.9943
  472MOL0     H63710   9.695   3.679   9.763 -1.4552  1.1823  0.9477
  472MOL0     H63711   9.721   3.521   9.679  0.0322  0.4610 -1.1059
  472MOL0     H63712   9.531   3.549   9.534 -1.4939  1.7283 -2.0412
  472MOL0     H63713   9.487   3.707   9.610 -4.0832 -0.7501 -0.6036
  472MOL0     H63714   9.450   3.598   9.817  1.3652  3.4638 -2.0985
  472MOL0     H63715   9.333   3.544   9.697  0.4516  1.6559 -1.1692
  472MOL0     H63716   9.503   3.203   9.853  2.2473  1.9639  2.8857
  472MOL0     H63717   9.901   3.661   9.348 -0.0472  1.6760  1.4402
  472MOL0     H63718   9.993   3.627   9.131  1.1239 -1.3063 -1.6557
  472MOL0     H63719  10.162   3.672   9.103  1.1240  1.3340  2.0088
  472MOL0     H63720  10.117   3.506   9.150  0.0843 -0.3089 -0.1691
  473MOL0     O63721   9.165   4.040   5.104  0.2127 -0.2347  0.0977
  473MOL0     C63722   9.108   4.153   5.098 -0.1099 -0.7545  0.1904
  473MOL0     O63723   9.173   4.276   5.072 -0.4567  0.2261 -0.2526
  473MOL0     C63724   9.315   4.257   5.065  0.3614  0.5025  0.0795
  473MOL0     C63725   9.376   4.187   4.952  0.3326  1.0910  0.6540
  473MOL0     C63726   9.513   4.161   4.946  0.4225 -0.3211 -0.9613
  473MOL0     C63727   9.600   4.207   5.047  0.4181  0.0766  0.5150
  473MOL0     O63728   9.739   4.185   5.058 -0.0483  0.2039  0.4824
  473MOL0     C63729   9.809   4.123   4.947 -0.1254  0.6248 -0.3639
  473MOL0     C63730   9.961   4.153   4.963  0.2291  0.9456 -0.3903
  473MOL0     C63731  10.036   4.066   5.077 -0.1879 -1.0246  0.0253
  473MOL0     C63732  10.188   4.059   5.045  0.0282 -0.0665  0.1705
  473MOL0     C63733  10.262   3.956   5.121  0.3029  0.3001  0.4536
  473MOL0     C63734  10.406   3.962   5.093 -0.6577  0.2136  0.3300
  473MOL0     C63735  10.477   3.874   5.199  0.2985 -0.0813 -0.3352
  473MOL0     C63736  10.481   3.930   5.342 -1.2873  0.2600 -0.7995
  473MOL0     N63737  10.563   3.847   5.436 -0.2255 -0.6499  0.4474
  473MOL0     C63738  10.691   3.805   5.434 -0.5877 -0.4628 -0.0304
  473MOL0     C63739  10.718   3.738   5.549 -0.6090 -0.0254  0.2149
  473MOL0     C63740  10.850   3.685   5.602 -0.3136  0.3560  0.2046
  473MOL0     C63741  10.968   3.663   5.509 -0.4515  0.3116  0.4412
  473MOL0     C63742  11.085   3.605   5.589 -0.1939  0.0994  0.3725
  473MOL0     C63743  11.199   3.580   5.483 -0.3214 -0.2450 -0.6118
  473MOL0     O63744  11.313   3.558   5.568 -0.0219 -0.3443  0.5015
  473MOL0     C63745  11.412   3.643   5.596 -0.4545 -0.7869 -0.7226
  473MOL0     C63746  11.530   3.589   5.661  0.8376  0.1844 -0.0473
  473MOL0     C63747  11.630   3.669   5.725  0.5990  0.4768 -0.2035
  473MOL0     C63748  11.617   3.807   5.706 -0.6347  0.5847  0.7146
  473MOL0     C63749  11.733   3.891   5.749 -0.3805  0.2648  0.6433
  473MOL0     O63750  11.850   3.821   5.789  0.9959 -0.0816  0.0001
  473MOL0     C63751  11.954   3.898   5.822  0.1684 -0.0045  0.1105
  473MOL0     C63752  12.011   3.987   5.729  0.7548  0.5635 -0.7429
  473MOL0     C63753  12.135   4.045   5.761  0.1541 -0.1066  0.1428
  473MOL0     C63754  12.199   4.013   5.887 -1.3970 -0.2886  1.0972
  473MOL0     O63755  12.327   4.068   5.907 -0.9410 -0.3774  0.1337
  473MOL0     C63756  12.416   3.983   5.983 -0.4613  0.9359  0.2132
  473MOL0     C63757  12.557   4.031   5.986 -0.3120 -0.2764 -0.2050
  473MOL0     C63758  12.623   4.069   5.861  0.0772 -0.5170  0.1243
  473MOL0     C63759  12.770   4.122   5.884  0.7578  0.0583 -0.2629
  473MOL0     C63760  12.830   4.161   5.746 -0.2403 -0.1843 -0.3048
  473MOL0     C63761  12.966   4.237   5.759 -0.5196 -0.7041  0.2059
  473MOL0     C63762  13.022   4.269   5.617 -0.6274 -0.7875  0.0568
  473MOL0     C63763  13.154   4.360   5.635  0.4028  1.0613  0.0071
  473MOL0    Cl63764  13.292   4.269   5.701  0.2316 -0.5821 -0.0189
  473MOL0     C63765  12.139   3.922   5.967  0.2887 -0.2709  0.5851
  473MOL0     C63766  12.019   3.860   5.941  0.0522  1.1049  0.1820
  473MOL0     O63767  11.713   4.012   5.749  0.1717  0.0988  0.3051
  473MOL0     C63768  11.498   3.869   5.642  0.5792 -0.1717  0.1656
  473MOL0     C63769  11.396   3.783   5.593 -0.6766 -0.4947 -0.1118
  473MOL0     N63770  10.599   3.721   5.612 -0.4242  0.8041  1.1916
  473MOL0     N63771  10.504   3.795   5.546  0.4425 -0.2527  0.0108
  473MOL0     C63772   9.547   4.287   5.151 -0.3285  0.4698 -0.7366
  473MOL0     C63773   9.399   4.316   5.156 -0.7000 -0.2585  0.2443
  473MOL0     C63774   8.955   4.164   5.097 -0.3397  1.0875  0.1797
  473MOL0     C63775   8.895   4.281   5.056 -1.0610  0.5705  0.5093
  473MOL0     C63776   8.764   4.304   5.062 -0.3134  0.5102  0.0107
  473MOL0     C63777   8.675   4.209   5.115 -0.5052 -0.2472 -0.2509
  473MOL0     O63778   8.545   4.233   5.148  0.9841 -0.2312  0.4047
  473MOL0     C63779   8.489   4.367   5.141  0.7900 -0.6592  0.4508
  473MOL0     C63780   8.361   4.371   5.220  0.3834  0.4371 -0.8081
  473MOL0     C63781   8.374   4.326   5.366  0.2204  0.3086 -0.4255
  473MOL0     C63782   8.301   4.183   5.389  0.1545  0.3054  0.1295
  473MOL0     C63783   8.377   4.104   5.481 -0.8600 -0.5611  0.5862
  473MOL0     C63784   8.440   4.036   5.552  0.5353 -0.3064  0.5112
  473MOL0     C63785   8.728   4.080   5.155  0.4221  0.2239  0.0460
  473MOL0     C63786   8.871   4.061   5.158 -0.2873 -0.0393 -0.2251
  473MOL0     C63787   8.927   3.931   5.213 -0.4623 -1.0288  0.2717
  473MOL0     H63788   9.319   4.136   4.875 -1.3237 -0.1465  2.5659
  473MOL0     H63789   9.559   4.105   4.866  0.5980  1.2451 -2.0129
  473MOL0     H63790   9.789   4.017   4.932  1.1277  0.6068 -2.0722
  473MOL0     H63791   9.779   4.175   4.856 -1.6579  1.7843  0.7530
  473MOL0     H63792   9.966   4.260   4.985 -1.0853  0.7845  0.9192
  473MOL0     H63793  10.005   4.134   4.866 -1.3492  2.8656 -1.5697
  473MOL0     H63794   9.999   3.963   5.074 -2.1176 -0.3780  0.3129
  473MOL0     H63795  10.017   4.121   5.170  1.0372 -0.9782  0.2611
  473MOL0     H63796  10.207   4.036   4.940  0.8344  1.0555  0.0526
  473MOL0     H63797  10.242   4.153   5.055  1.9723 -1.1311  0.0985
  473MOL0     H63798  10.239   3.961   5.228  0.9405 -0.7328  0.6509
  473MOL0     H63799  10.226   3.855   5.102 -0.4858  1.0530 -2.6072
  473MOL0     H63800  10.430   3.914   4.997  2.0451 -1.2737  1.6201
  473MOL0     H63801  10.441   4.065   5.087  1.4063 -0.3784  1.2949
  473MOL0     H63802  10.585   3.864   5.185  0.5710  0.1522  1.3640
  473MOL0     H63803  10.435   3.773   5.201  1.6969 -0.7304 -1.3816
  473MOL0     H63804  10.528   4.028   5.332  0.9513 -0.3085  2.4957
  473MOL0     H63805  10.385   3.955   5.387 -0.8510 -0.2547  0.4624
  473MOL0     H63806  10.764   3.818   5.355  0.5701 -0.3863  1.0119
  473MOL0     H63807  10.887   3.753   5.679 -0.2282  0.5666 -0.0199
  473MOL0     H63808  10.824   3.589   5.648  0.1821 -0.6407 -1.5094
  473MOL0     H63809  10.945   3.596   5.425  0.7711 -0.6269  0.8357
  473MOL0     H63810  10.988   3.760   5.462  1.0912 -0.3697 -0.3899
  473MOL0     H63811  11.076   3.519   5.656  4.3006 -1.9699 -1.2195
  473MOL0     H63812  11.113   3.690   5.651  0.1484 -0.6780  1.2977
  473MOL0     H63813  11.207   3.672   5.425  1.0968 -0.2093 -0.3739
  473MOL0     H63814  11.169   3.495   5.420 -0.2977 -3.1964  3.0267
  473MOL0     H63815  11.539   3.482   5.678  0.4115  0.6276  4.2177
  473MOL0     H63816  11.707   3.617   5.781 -0.2300 -0.7228 -0.1540
  473MOL0     H63817  11.969   4.014   5.633  5.2742 -0.4984 -3.3719
  473MOL0     H63818  12.177   4.124   5.701 -0.0597  2.7255  3.3649
  473MOL0     H63819  12.376   3.977   6.085 -1.1960 -0.8006 -0.1341
  473MOL0     H63820  12.412   3.889   5.927 -0.4437  1.3732 -0.5453
  473MOL0     H63821  12.558   4.116   6.056 -0.1078  0.0493 -0.5960
  473MOL0     H63822  12.615   3.950   6.031  2.5719  1.0838 -1.2416
  473MOL0     H63823  12.620   3.982   5.795 -4.3203 -0.7935  0.3817
  473MOL0     H63824  12.549   4.139   5.820  0.3791  1.0266  2.0794
  473MOL0     H63825  12.827   4.040   5.927  2.0337  1.0240 -0.0490
  473MOL0     H63826  12.775   4.213   5.946  1.3892  1.1523 -1.8560
  473MOL0     H63827  12.753   4.215   5.691 -1.6095 -0.4941  1.2507
  473MOL0     H63828  12.864   4.074   5.689  2.5703  0.0928  0.7869
  473MOL0     H63829  12.967   4.333   5.811 -0.6936  0.7507 -2.3301
  473MOL0     H63830  13.037   4.174   5.814 -0.1032  0.2929  0.8359
  473MOL0     H63831  12.950   4.326   5.557 -0.8744  0.8618  1.8223
  473MOL0     H63832  13.053   4.183   5.557 -3.8883 -1.1594 -1.3426
  473MOL0     H63833  13.185   4.410   5.543  3.3567  2.3899  1.5855
  473MOL0     H63834  13.137   4.445   5.702 -0.7177  1.1896 -0.4219
  473MOL0     H63835  12.179   3.882   6.060  2.4280 -2.5258 -1.1828
  473MOL0     H63836  11.984   3.791   6.017  2.8747  3.0124  3.5634
  473MOL0     H63837  11.502   3.976   5.629 -0.7560 -0.0993  0.2174
  473MOL0     H63838  11.318   3.831   5.536 -0.2421  1.0881  0.5888
  473MOL0     H63839   9.615   4.339   5.218 -2.4815  0.2258  1.8040
  473MOL0     H63840   9.366   4.393   5.225  1.6604  0.9101  0.1835
  473MOL0     H63841   8.961   4.357   5.015  0.0621 -0.2166  0.8138
  473MOL0     H63842   8.743   4.399   5.014  2.2549  0.3369 -1.6765
  473MOL0     H63843   8.466   4.398   5.039 -1.0338 -1.1032  0.6942
  473MOL0     H63844   8.556   4.445   5.179 -0.8290 -0.1378  2.3531
  473MOL0     H63845   8.289   4.307   5.168 -0.1693 -1.2783  1.8743
  473MOL0     H63846   8.318   4.472   5.225 -0.2072  0.1594  2.3928
  473MOL0     H63847   8.334   4.387   5.448 -0.4655  0.8451 -1.1404
  473MOL0     H63848   8.480   4.331   5.394 -0.3613 -1.5369  2.5225
  473MOL0     H63849   8.200   4.192   5.431 -0.8193 -1.7335 -1.5505
  473MOL0     H63850   8.301   4.139   5.289 -0.6997  0.2101  0.1639
  473MOL0     H63851   8.504   3.988   5.624  2.0328 -1.0887 -1.2582
  473MOL0     H63852   8.664   4.002   5.193 -1.9761  2.3363  0.6234
  473MOL0     H63853   8.941   3.863   5.129  0.6603  0.7390 -1.0506
  473MOL0     H63854   9.022   3.943   5.267 -0.1142 -2.2760 -0.0250
  473MOL0     H63855   8.856   3.883   5.281 -1.2357 -1.0371 -0.5328
  474MOL0     O63856   3.110  11.290   0.149  0.4233 -1.0334  0.0402
  474MOL0     C63857   3.036  11.392   0.175 -0.5446  0.4988  0.3699
  474MOL0     O63858   3.080  11.505   0.220  0.0835 -0.2200  0.4340
  474MOL0     C63859   3.212  11.514   0.265  1.0121 -0.0966 -0.3078
  474MOL0     C63860   3.271  11.425   0.347 -0.4394  0.0540 -0.2617
  474MOL0     C63861   3.398  11.441   0.390  0.1041  0.9077 -0.7389
  474MOL0     C63862   3.467  11.555   0.367 -0.4279 -0.1350  0.4292
  474MOL0     O63863   3.594  11.566   0.418 -0.3776 -0.7133  0.0626
  474MOL0     C63864   3.670  11.446   0.458  0.4061 -0.5385  0.1250
  474MOL0     C63865   3.822  11.470   0.452  0.2493  0.2561 -0.3712
  474MOL0     C63866   3.881  11.554   0.567  0.0663 -0.2971  0.4733
  474MOL0     C63867   4.035  11.587   0.540 -0.2377 -0.1356 -0.1475
  474MOL0     C63868   4.046  11.716   0.454 -0.2693  0.2181 -0.5603
  474MOL0     C63869   4.208  11.749   0.443  0.3002  0.4741 -0.7230
  474MOL0     C63870   4.241  11.888   0.378 -0.4090  0.4306 -0.3901
  474MOL0     C63871   4.280  11.869   0.231  1.2853 -0.0031 -0.0630
  474MOL0     N63872   4.157  11.817   0.154  0.5680 -0.9204 -0.0563
  474MOL0     C63873   4.045  11.889   0.124  0.0080 -1.1896 -0.2760
  474MOL0     C63874   3.984  11.810   0.038  0.1982 -0.0453  0.2847
  474MOL0     C63875   3.864  11.836  -0.045  0.8222  0.3485  0.0875
  474MOL0     C63876   3.746  11.776   0.036  0.0897 -0.6232  0.5982
  474MOL0     C63877   3.633  11.730  -0.050  0.7464 -0.1487  0.3468
  474MOL0     C63878   3.560  11.849  -0.113  0.2309  0.7669  0.3844
  474MOL0     O63879   3.491  11.925  -0.020 -0.3652  0.0714 -0.6648
  474MOL0     C63880   3.392  12.006  -0.058  0.8352 -0.0495  0.5618
  474MOL0     C63881   3.309  12.060   0.036 -0.3047 -1.4901 -0.8672
  474MOL0     C63882   3.214  12.155   0.009 -0.6078 -0.2720  0.1746
  474MOL0     C63883   3.192  12.195  -0.125 -0.2814 -0.1498 -0.4324
  474MOL0     C63884   3.100  12.299  -0.160  0.6407  0.2718  0.2775
  474MOL0     O63885   3.083  12.399  -0.055 -0.7283  0.0143  0.5238
  474MOL0     C63886   2.986  12.495  -0.064  0.3283 -0.1975  0.6887
  474MOL0     C63887   2.855  12.462  -0.116 -0.1561 -0.0296 -0.0033
  474MOL0     C63888   2.757  12.563  -0.150 -1.0213  0.4459  0.1440
  474MOL0     C63889   2.776  12.693  -0.101 -0.2114  0.7520  0.4715
  474MOL0     O63890   2.668  12.779  -0.123 -0.5220  1.0718 -0.6342
  474MOL0     C63891   2.662  12.893  -0.039 -0.7180  0.5793  0.6164
  474MOL0     C63892   2.527  12.954  -0.042 -0.3354  0.8536  0.4034
  474MOL0     C63893   2.428  12.860   0.028  0.8549  0.1386  0.5130
  474MOL0     C63894   2.305  12.935   0.073  0.9306  0.5508  0.4506
  474MOL0     C63895   2.216  12.840   0.159  0.3408 -0.1350 -0.8985
  474MOL0     C63896   2.079  12.898   0.168  0.0027  0.3350  0.4678
  474MOL0     C63897   1.981  12.812   0.248  0.1594  0.1520 -0.0437
  474MOL0     C63898   1.840  12.820   0.195 -0.0357 -0.1987  0.2791
  474MOL0    Cl63899   1.770  12.973   0.239 -0.3658  0.1780  0.1235
  474MOL0     C63900   2.895  12.726  -0.033 -0.1559 -0.0989 -0.2911
  474MOL0     C63901   3.003  12.627  -0.021 -0.1930 -0.4981  0.2217
  474MOL0     O63902   3.048  12.293  -0.269  0.1879  0.2304  0.0603
  474MOL0     C63903   3.275  12.136  -0.218 -0.0348 -0.2343 -0.0287
  474MOL0     C63904   3.369  12.038  -0.193 -1.3156 -0.2394  0.1567
  474MOL0     N63905   4.054  11.690   0.020 -0.3616 -0.6392 -0.6610
  474MOL0     N63906   4.158  11.695   0.093  0.3904  0.4931  0.0791
  474MOL0     C63907   3.419  11.648   0.286  1.2386  0.0272  0.1456
  474MOL0     C63908   3.289  11.631   0.230 -0.3727 -0.6556 -0.3197
  474MOL0     C63909   2.898  11.387   0.143  0.5620 -0.4209 -0.8600
  474MOL0     C63910   2.815  11.473   0.219  0.2995  0.1359  0.0761
  474MOL0     C63911   2.676  11.478   0.201 -0.2798 -0.3777 -0.3685
  474MOL0     C63912   2.613  11.401   0.105 -0.0630  0.1180 -0.5383
  474MOL0     O63913   2.478  11.417   0.103  0.9167  0.4366  0.6085
  474MOL0     C63914   2.416  11.406  -0.025  0.5599 -0.1442 -0.2883
  474MOL0     C63915   2.281  11.470  -0.002  0.2462  0.1906  0.3639
  474MOL0     C63916   2.189  11.416   0.105  0.2469 -0.0362  0.0784
  474MOL0     C63917   2.060  11.504   0.128  0.3587 -0.4226  0.0016
  474MOL0     C63918   1.976  11.517   0.004  0.6547  1.2291  0.0636
  474MOL0     C63919   1.905  11.539  -0.090  0.2171  0.0794 -0.0792
  474MOL0     C63920   2.693  11.310   0.031  0.3595 -0.9597 -0.1132
  474MOL0     C63921   2.833  11.310   0.048  0.2978 -0.2859  0.1049
  474MOL0     C63922   2.910  11.232  -0.059 -0.0307  0.1077 -0.3299
  474MOL0     H63923   3.213  11.347   0.396  1.8113  0.0949  2.7419
  474MOL0     H63924   3.432  11.369   0.464 -1.1773 -0.0241 -1.0167
  474MOL0     H63925   3.644  11.409   0.558  0.3533  0.3127  0.4364
  474MOL0     H63926   3.644  11.369   0.385 -1.2104  2.2207 -2.4898
  474MOL0     H63927   3.843  11.521   0.358 -0.6283 -1.9045 -1.8137
  474MOL0     H63928   3.879  11.377   0.462  0.1208  0.0676 -1.3260
  474MOL0     H63929   3.890  11.497   0.660 -0.8166  0.7167  1.2052
  474MOL0     H63930   3.822  11.642   0.594 -0.0306 -0.3192  0.3343
  474MOL0     H63931   4.086  11.610   0.634 -0.9387  4.0626 -0.5810
  474MOL0     H63932   4.088  11.502   0.496  1.3181 -1.4207  3.7522
  474MOL0     H63933   4.000  11.700   0.356 -0.0423 -1.0753 -0.4776
  474MOL0     H63934   3.988  11.793   0.505 -1.7390 -0.5020 -1.0677
  474MOL0     H63935   4.254  11.754   0.542 -0.1053  1.6943 -0.5874
  474MOL0     H63936   4.258  11.671   0.384  0.6151  0.2274 -0.1395
  474MOL0     H63937   4.323  11.930   0.437 -0.0730  0.7493 -1.0708
  474MOL0     H63938   4.154  11.954   0.386 -0.0319  0.8867  0.0219
  474MOL0     H63939   4.311  11.970   0.204  2.9493 -0.3985  0.2870
  474MOL0     H63940   4.360  11.797   0.209 -2.0621 -3.3159 -2.7670
  474MOL0     H63941   4.017  11.990   0.152  1.2330 -0.5429 -1.2642
  474MOL0     H63942   3.851  11.945  -0.046  2.1556  0.5233 -0.4420
  474MOL0     H63943   3.861  11.799  -0.148 -1.5897 -0.1641  0.2813
  474MOL0     H63944   3.776  11.689   0.094 -0.0861 -1.3600 -0.3867
  474MOL0     H63945   3.720  11.846   0.116 -1.2937 -0.2801 -0.1306
  474MOL0     H63946   3.567  11.669   0.012  0.3044 -0.5292 -0.4857
  474MOL0     H63947   3.665  11.671  -0.136 -2.1769 -3.2376  1.1517
  474MOL0     H63948   3.485  11.803  -0.178  1.6524 -1.1776  0.0108
  474MOL0     H63949   3.627  11.913  -0.170  0.6229  2.9717  3.0914
  474MOL0     H63950   3.334  12.036   0.139 -2.0922 -2.7783 -0.6764
  474MOL0     H63951   3.163  12.206   0.091  0.1262  1.5545 -0.4401
  474MOL0     H63952   2.833  12.357  -0.134 -2.2360  0.7730 -2.8393
  474MOL0     H63953   2.669  12.539  -0.209  0.8265  1.1276 -3.1567
  474MOL0     H63954   2.671  12.866   0.066  0.8564 -0.6648  0.1954
  474MOL0     H63955   2.734  12.966  -0.077  1.6160 -0.0599  3.4659
  474MOL0     H63956   2.526  13.055   0.000  0.4235  0.5786  1.1090
  474MOL0     H63957   2.494  12.966  -0.145 -0.2843 -0.6301  0.1961
  474MOL0     H63958   2.395  12.781  -0.040  0.6936 -2.0666  2.9937
  474MOL0     H63959   2.472  12.816   0.118 -1.4118 -4.3205 -0.2506
  474MOL0     H63960   2.254  12.964  -0.019  0.9536 -0.0142  0.2613
  474MOL0     H63961   2.327  13.024   0.134 -2.7195 -0.2790  3.3775
  474MOL0     H63962   2.256  12.833   0.261 -4.3801  2.0699  1.4525
  474MOL0     H63963   2.208  12.737   0.125 -0.8928  0.2640 -1.8686
  474MOL0     H63964   2.092  12.999   0.208  1.3801  0.4797 -0.2748
  474MOL0     H63965   2.038  12.913   0.067  0.3304  3.2159  0.6887
  474MOL0     H63966   1.980  12.840   0.354  1.5745 -1.3852  0.4221
  474MOL0     H63967   2.009  12.706   0.245 -2.3408 -0.5842  0.3549
  474MOL0     H63968   1.849  12.811   0.086 -2.2443 -2.0392  0.1668
  474MOL0     H63969   1.791  12.733   0.240 -2.3260  0.6667 -0.3922
  474MOL0     H63970   2.920  12.825   0.004 -1.7762  0.1552  0.2119
  474MOL0     H63971   3.093  12.670   0.023 -0.1737 -0.2901 -0.0207
  474MOL0     H63972   3.267  12.166  -0.322  1.4445 -1.8720 -0.6842
  474MOL0     H63973   3.427  12.007  -0.279  0.1917  0.5750  0.8493
  474MOL0     H63974   3.465  11.738   0.245 -1.3208  0.5263 -1.9156
  474MOL0     H63975   3.247  11.712   0.171  1.3612 -0.9211 -2.0086
  474MOL0     H63976   2.854  11.536   0.299 -0.1453 -0.5047  0.8159
  474MOL0     H63977   2.624  11.538   0.274  2.1929  1.7380 -0.2275
  474MOL0     H63978   2.407  11.304  -0.064  0.6490  0.2097 -1.2701
  474MOL0     H63979   2.473  11.459  -0.101  0.7045  1.4528  0.8853
  474MOL0     H63980   2.224  11.453  -0.094  0.3346  1.3842  0.0648
  474MOL0     H63981   2.294  11.579   0.004 -1.5177  0.5255 -1.0288
  474MOL0     H63982   2.236  11.418   0.203 -3.7611  1.1255  2.2000
  474MOL0     H63983   2.164  11.314   0.074  3.1641 -0.2162 -2.2253
  474MOL0     H63984   2.009  11.449   0.207  0.4734  0.3943  0.6632
  474MOL0     H63985   2.089  11.602   0.169 -0.5127  0.3839 -1.2402
  474MOL0     H63986   1.839  11.563  -0.170 -1.4789 -1.4076  0.8154
  474MOL0     H63987   2.661  11.250  -0.054  2.1641  1.4825 -2.7039
  474MOL0     H63988   2.975  11.158  -0.012  1.8567  0.3941 -2.3192
  474MOL0     H63989   2.832  11.174  -0.109 -1.5980 -0.8648  2.9982
  474MOL0     H63990   2.965  11.293  -0.131  0.8952 -1.8372 -1.3416
  475MOL0     O63991   2.262   0.516   3.775 -0.3706  0.1843 -0.0328
  475MOL0     C63992   2.179   0.566   3.852  0.6958  0.1209  0.0519
  475MOL0     O63993   2.201   0.648   3.962 -0.1826  0.5493  0.1812
  475MOL0     C63994   2.333   0.643   4.009  0.3745  0.3622  0.8741
  475MOL0     C63995   2.390   0.525   4.068  0.6167  0.4962 -0.6148
  475MOL0     C63996   2.519   0.526   4.123  0.1765 -0.6528 -0.2424
  475MOL0     C63997   2.594   0.645   4.121  0.0072 -0.6409 -0.7993
  475MOL0     O63998   2.715   0.635   4.200  0.2515  0.4104  0.0165
  475MOL0     C63999   2.814   0.736   4.205 -0.4727 -0.8499 -0.3733
  475MOL0     C64000   2.901   0.735   4.083  0.7405  0.0248  0.5515
  475MOL0     C64001   2.988   0.866   4.095 -0.8310 -0.3498 -0.1089
  475MOL0     C64002   2.924   0.996   4.034 -0.0705  0.7598  0.4019
  475MOL0     C64003   3.027   1.114   4.030  0.3600  0.3209  0.2775
  475MOL0     C64004   3.054   1.178   4.167  1.2548  0.0568 -0.7242
  475MOL0     C64005   3.116   1.315   4.148  0.2614 -0.1949  0.1320
  475MOL0     C64006   3.093   1.413   4.268  0.6757  0.1738 -1.1346
  475MOL0     N64007   3.158   1.368   4.389 -0.9493 -0.6948 -0.0514
  475MOL0     C64008   3.293   1.342   4.416  0.0764  0.4437  0.1526
  475MOL0     C64009   3.303   1.341   4.549 -0.7603  0.3843  0.5722
  475MOL0     C64010   3.431   1.331   4.626 -0.0676 -0.2250  0.0048
  475MOL0     C64011   3.491   1.468   4.657 -0.1264  0.2900 -0.8467
  475MOL0     C64012   3.608   1.440   4.757 -0.0658 -0.9377  0.9191
  475MOL0     C64013   3.641   1.571   4.833 -0.1584 -0.2737  0.6487
  475MOL0     O64014   3.723   1.566   4.949  0.2515 -0.1526 -0.3160
  475MOL0     C64015   3.852   1.526   4.927 -0.5786 -1.1343  0.5050
  475MOL0     C64016   3.899   1.409   4.889 -0.5789  0.8364  0.1784
  475MOL0     C64017   4.029   1.373   4.895 -1.3173  0.1865 -0.2617
  475MOL0     C64018   4.125   1.480   4.929 -0.1380  1.2690  0.3224
  475MOL0     C64019   4.270   1.452   4.943 -0.0929  0.3684  0.0173
  475MOL0     O64020   4.345   1.549   5.005  0.5977 -0.0696 -0.6020
  475MOL0     C64021   4.469   1.517   5.034 -0.5073  0.9176  0.2908
  475MOL0     C64022   4.513   1.524   5.166 -0.6333 -0.5920 -0.6649
  475MOL0     C64023   4.646   1.491   5.199 -0.7064  0.0434  0.5235
  475MOL0     C64024   4.737   1.446   5.094  0.0141  0.0562 -0.6135
  475MOL0     O64025   4.861   1.401   5.102  0.8064  0.3614  0.2547
  475MOL0     C64026   4.890   1.335   5.226 -0.2182 -0.3528 -1.0623
  475MOL0     C64027   5.040   1.315   5.210  0.3938 -0.5387  0.9724
  475MOL0     C64028   5.091   1.203   5.305  0.3096 -0.0269 -0.3372
  475MOL0     C64029   5.237   1.245   5.347 -0.1746 -0.0029 -0.1853
  475MOL0     C64030   5.314   1.130   5.397 -0.4456  0.0492 -0.0072
  475MOL0     C64031   5.463   1.173   5.404 -0.1674  0.0623 -1.2409
  475MOL0     C64032   5.544   1.087   5.503  0.4613  0.5682 -0.2353
  475MOL0     C64033   5.690   1.105   5.478 -0.1166 -0.1509 -0.1832
  475MOL0    Cl64034   5.791   1.124   5.628 -0.0879 -0.2942 -0.1655
  475MOL0     C64035   4.692   1.452   4.960  0.5295 -0.1605  0.9623
  475MOL0     C64036   4.563   1.496   4.925  0.0269  0.9787 -0.0576
  475MOL0     O64037   4.311   1.349   4.892 -0.1197 -0.5291  1.0001
  475MOL0     C64038   4.073   1.604   4.962 -0.7448 -0.0949  0.5269
  475MOL0     C64039   3.939   1.630   4.950  0.6085 -0.0681  0.0178
  475MOL0     N64040   3.172   1.351   4.602 -0.3362  0.3022  0.3920
  475MOL0     N64041   3.093   1.386   4.506 -0.2848 -0.0205 -0.2812
  475MOL0     C64042   2.540   0.758   4.069 -0.0321 -0.4685 -0.3320
  475MOL0     C64043   2.412   0.757   4.010  0.0561  0.4552 -0.1920
  475MOL0     C64044   2.033   0.564   3.816  0.2566  0.5786  0.0170
  475MOL0     C64045   1.965   0.689   3.812  0.6747 -0.0507  0.2017
  475MOL0     C64046   1.832   0.685   3.772  0.0865 -0.1893 -0.4530
  475MOL0     C64047   1.762   0.567   3.757  0.2337 -0.1858  0.2439
  475MOL0     O64048   1.625   0.560   3.718  0.0004  0.6533  0.0043
  475MOL0     C64049   1.554   0.675   3.683 -0.4040  0.1199 -0.9220
  475MOL0     C64050   1.422   0.636   3.623  0.1236  0.1469  0.4727
  475MOL0     C64051   1.324   0.599   3.734  0.5884  0.3414 -0.1965
  475MOL0     C64052   1.186   0.566   3.669 -0.3194  0.5774 -0.2110
  475MOL0     C64053   1.089   0.500   3.754 -0.1258  0.4175  0.5337
  475MOL0     C64054   1.022   0.427   3.828 -0.3368  0.3640  0.1654
  475MOL0     C64055   1.831   0.446   3.774  0.4109 -1.2546  0.8508
  475MOL0     C64056   1.966   0.440   3.788  0.1542 -1.0069 -0.2057
  475MOL0     C64057   2.040   0.311   3.796 -0.0648 -0.5703  0.1698
  475MOL0     H64058   2.328   0.436   4.060 -0.1305  1.1826 -4.8787
  475MOL0     H64059   2.553   0.440   4.180 -0.8816 -0.0533  1.3770
  475MOL0     H64060   2.762   0.830   4.227 -0.3157 -1.2496  1.9265
  475MOL0     H64061   2.867   0.707   4.296 -0.9235  1.7291  0.8202
  475MOL0     H64062   2.850   0.732   3.986 -1.3680  2.2287  1.5131
  475MOL0     H64063   2.953   0.639   4.082 -1.5367 -1.2689  0.1826
  475MOL0     H64064   3.076   0.857   4.031  0.6248  3.2150  1.1004
  475MOL0     H64065   3.005   0.888   4.201  0.8935 -2.3738  0.0997
  475MOL0     H64066   2.883   0.961   3.939  0.9270 -1.0700  0.6062
  475MOL0     H64067   2.839   1.031   4.093  0.6328  0.7556  1.4437
  475MOL0     H64068   3.120   1.068   3.995 -0.2240 -1.6053  1.0943
  475MOL0     H64069   2.995   1.191   3.959 -2.4083 -0.1600  0.8874
  475MOL0     H64070   2.965   1.191   4.229  0.8619  1.6463 -1.5571
  475MOL0     H64071   3.119   1.109   4.222 -0.3020  0.5390  1.8902
  475MOL0     H64072   3.063   1.355   4.062  0.7286 -1.8310 -0.9761
  475MOL0     H64073   3.223   1.318   4.122  1.0024  3.0631  2.7534
  475MOL0     H64074   3.130   1.512   4.238  0.0443  0.0262 -2.4680
  475MOL0     H64075   2.991   1.447   4.287  1.5895  2.2978  0.3382
  475MOL0     H64076   3.377   1.337   4.347 -0.2324 -2.9719 -0.1651
  475MOL0     H64077   3.415   1.274   4.717  2.3210 -2.5575 -0.9027
  475MOL0     H64078   3.502   1.279   4.561  0.9057  2.5392 -1.3425
  475MOL0     H64079   3.521   1.509   4.560  1.7777 -3.0583 -1.8513
  475MOL0     H64080   3.416   1.532   4.703 -0.5139 -0.4279 -0.4676
  475MOL0     H64081   3.688   1.410   4.689 -2.3529  0.1491 -2.5253
  475MOL0     H64082   3.589   1.354   4.822 -1.3387 -1.9039 -0.6613
  475MOL0     H64083   3.549   1.600   4.883 -2.9023 -0.9158 -3.5059
  475MOL0     H64084   3.660   1.652   4.761 -1.1310 -0.8176 -0.2465
  475MOL0     H64085   3.834   1.323   4.871  0.2220  0.6923 -2.4186
  475MOL0     H64086   4.057   1.270   4.878  1.7439  0.3347  2.7374
  475MOL0     H64087   4.439   1.537   5.244  3.4878 -0.1205  3.6235
  475MOL0     H64088   4.680   1.488   5.302  1.6270  0.4421 -0.1760
  475MOL0     H64089   4.883   1.396   5.317 -1.8228 -2.4196  0.3052
  475MOL0     H64090   4.831   1.244   5.243 -2.7701  1.5222  1.0996
  475MOL0     H64091   5.052   1.274   5.110  0.6212  0.1234  0.7219
  475MOL0     H64092   5.100   1.406   5.226 -2.1975  1.2489  1.1061
  475MOL0     H64093   5.032   1.215   5.396  0.0083  3.6679 -0.8713
  475MOL0     H64094   5.078   1.100   5.269  1.3072  0.7337 -3.1652
  475MOL0     H64095   5.239   1.331   5.415 -0.2544  2.3339 -2.9508
  475MOL0     H64096   5.287   1.278   5.256  0.6380  1.8696  0.8678
  475MOL0     H64097   5.306   1.041   5.333  0.6786 -1.2756  1.6047
  475MOL0     H64098   5.272   1.099   5.494 -1.7135  2.3408  0.2422
  475MOL0     H64099   5.506   1.166   5.304  0.2809 -0.3789 -1.0186
  475MOL0     H64100   5.486   1.277   5.431  1.6770 -0.8932  1.2680
  475MOL0     H64101   5.520   0.981   5.501 -0.6598  0.8158 -0.7938
  475MOL0     H64102   5.526   1.122   5.605  1.9696 -0.9008  0.5901
  475MOL0     H64103   5.728   1.018   5.423  1.7289  0.9161 -0.6942
  475MOL0     H64104   5.710   1.197   5.421  5.0652  0.3709  1.9533
  475MOL0     H64105   4.757   1.416   4.881 -2.5354  0.0349 -1.8517
  475MOL0     H64106   4.526   1.503   4.824  1.8415  0.8981 -0.7625
  475MOL0     H64107   4.139   1.687   4.985 -0.8157  0.8283 -2.2790
  475MOL0     H64108   3.904   1.727   4.986 -0.4221 -0.9613  1.5504
  475MOL0     H64109   2.590   0.854   4.074  0.4007 -0.7374  0.7755
  475MOL0     H64110   2.380   0.849   3.963  0.7053  1.2592  0.8628
  475MOL0     H64111   2.017   0.781   3.836  0.3376 -0.0258  0.8620
  475MOL0     H64112   1.777   0.778   3.762  0.7505  0.5198  1.8131
  475MOL0     H64113   1.603   0.734   3.605  0.5565  0.5193 -0.0423
  475MOL0     H64114   1.544   0.749   3.763  1.7417  1.7811 -2.0632
  475MOL0     H64115   1.439   0.551   3.555 -0.4688  0.7332 -0.4359
  475MOL0     H64116   1.372   0.712   3.563 -4.5829 -2.1462  0.9872
  475MOL0     H64117   1.320   0.677   3.810  0.4877 -2.2187  2.6143
  475MOL0     H64118   1.366   0.511   3.784  1.8597  1.2131  0.3050
  475MOL0     H64119   1.142   0.660   3.635  0.0641  1.3851  1.4488
  475MOL0     H64120   1.210   0.509   3.578  2.6318  1.9518 -0.4289
  475MOL0     H64121   0.951   0.369   3.882 -0.0453 -0.6707 -0.5413
  475MOL0     H64122   1.774   0.356   3.753 -2.3373  0.7817 -1.0690
  475MOL0     H64123   1.983   0.227   3.755  1.0634 -2.1599  1.7068
  475MOL0     H64124   2.129   0.312   3.732  0.4445  1.7898  0.8183
  475MOL0     H64125   2.070   0.290   3.899 -0.1703 -1.1606  0.0846
  476MOL0     O64126   8.765   3.191   7.521  0.0041  0.2582  0.2350
  476MOL0     C64127   8.745   3.090   7.590 -1.0573  0.2939  0.1847
  476MOL0     O64128   8.840   3.025   7.662 -0.6322  0.1122  0.3401
  476MOL0     C64129   8.966   3.073   7.675 -1.2026  0.3950  0.5639
  476MOL0     C64130   8.987   3.170   7.768 -0.2993 -0.3956 -0.1139
  476MOL0     C64131   9.118   3.223   7.789 -0.2648  0.5377 -0.6741
  476MOL0     C64132   9.224   3.177   7.712  0.2646 -0.2085 -0.8304
  476MOL0     O64133   9.350   3.233   7.725  0.0692  1.0681 -0.9989
  476MOL0     C64134   9.351   3.368   7.767  0.4048 -0.2100  0.0875
  476MOL0     C64135   9.489   3.424   7.746  0.0488  0.6437  0.0017
  476MOL0     C64136   9.590   3.332   7.817 -0.5943 -0.2440 -0.2511
  476MOL0     C64137   9.727   3.407   7.812  0.2281 -0.4124  0.3017
  476MOL0     C64138   9.846   3.342   7.886 -0.5220 -0.2985  0.6834
  476MOL0     C64139   9.975   3.420   7.882  0.0995  0.3967  0.7796
  476MOL0     C64140  10.081   3.339   7.957 -0.0716  0.3670 -0.1368
  476MOL0     C64141  10.220   3.366   7.896  0.8331 -0.2565 -0.6827
  476MOL0     N64142  10.252   3.507   7.924 -0.4019  0.2835  1.1210
  476MOL0     C64143  10.261   3.606   7.833 -0.0275  0.1824 -0.4797
  476MOL0     C64144  10.265   3.720   7.903 -0.5370  0.8449  0.1936
  476MOL0     C64145  10.284   3.862   7.843  0.0974 -0.1854  0.2685
  476MOL0     C64146  10.395   3.935   7.925  0.0469  1.0376  0.2728
  476MOL0     C64147  10.531   3.860   7.920  0.9915  0.2707  0.0959
  476MOL0     C64148  10.638   3.934   7.994  0.2712  0.5922  0.5231
  476MOL0     O64149  10.745   3.845   8.026 -0.1933 -0.7709  0.0120
  476MOL0     C64150  10.866   3.901   8.074  0.8023  0.3270 -0.3855
  476MOL0     C64151  10.883   4.025   8.119  0.1968 -0.3532  0.3341
  476MOL0     C64152  11.012   4.066   8.155  0.0713  0.4842 -0.3072
  476MOL0     C64153  11.120   3.975   8.148 -0.3626 -0.4366 -0.1888
  476MOL0     C64154  11.260   4.009   8.171 -0.5562  0.2201 -0.4070
  476MOL0     O64155  11.354   3.916   8.197 -0.2144 -0.5112  0.8053
  476MOL0     C64156  11.483   3.960   8.229 -0.2509  0.4609 -0.4628
  476MOL0     C64157  11.513   4.025   8.346 -0.4891 -0.3404  0.5746
  476MOL0     C64158  11.635   4.084   8.364  0.6282  0.7777  0.3868
  476MOL0     C64159  11.732   4.062   8.264 -0.8389  0.4512 -0.1371
  476MOL0     O64160  11.856   4.112   8.293  0.2913 -0.0964  0.3603
  476MOL0     C64161  11.972   4.089   8.204  0.9204  0.2917  0.9110
  476MOL0     C64162  12.082   4.174   8.253 -0.6805 -0.6506  0.0459
  476MOL0     C64163  12.142   4.111   8.378  0.3789  0.4450 -0.2537
  476MOL0     C64164  12.241   4.206   8.454 -0.6589  0.0025  0.2259
  476MOL0     C64165  12.305   4.131   8.569 -0.9519 -0.0583  0.4163
  476MOL0     C64166  12.411   4.223   8.636  1.0551 -0.1253  0.7410
  476MOL0     C64167  12.526   4.150   8.693  0.0580 -0.0953  0.3511
  476MOL0     C64168  12.619   4.238   8.780  0.0722  0.8323  0.1598
  476MOL0    Cl64169  12.758   4.137   8.840 -0.1258  0.3879 -0.2680
  476MOL0     C64170  11.704   3.986   8.152 -0.4413  0.2553  0.1416
  476MOL0     C64171  11.577   3.933   8.139  0.8060  0.2485 -0.2705
  476MOL0     O64172  11.290   4.131   8.168 -0.2139 -0.7126 -0.3586
  476MOL0     C64173  11.102   3.852   8.084 -0.4195  0.8921  0.2803
  476MOL0     C64174  10.973   3.816   8.058  1.0151 -0.2247 -0.2004
  476MOL0     N64175  10.264   3.688   8.043  0.4050 -0.1518  0.2258
  476MOL0     N64176  10.250   3.562   8.050 -0.1264  0.0690 -0.1915
  476MOL0     C64177   9.197   3.087   7.608 -0.3722 -0.5041 -0.4688
  476MOL0     C64178   9.072   3.024   7.594  0.7497 -0.6013 -0.7201
  476MOL0     C64179   8.605   3.029   7.599 -0.5208  0.5329 -0.5746
  476MOL0     C64180   8.586   2.925   7.693  1.0419 -0.3454 -1.4085
  476MOL0     C64181   8.454   2.875   7.712 -0.5480  0.3754  0.5325
  476MOL0     C64182   8.345   2.916   7.639  0.7912 -0.7544  0.5289
  476MOL0     O64183   8.219   2.870   7.642  0.1875  0.9200 -0.7194
  476MOL0     C64184   8.214   2.736   7.684 -0.7931  0.0625 -0.1327
  476MOL0     C64185   8.105   2.679   7.590 -0.6513  0.0739 -0.8182
  476MOL0     C64186   7.969   2.724   7.636  1.0287 -0.6254  1.1643
  476MOL0     C64187   7.852   2.648   7.592  0.3589  0.5564  0.4191
  476MOL0     C64188   7.735   2.712   7.656  0.3169 -0.7265 -0.3442
  476MOL0     C64189   7.634   2.760   7.688 -0.5461 -0.2796  1.1545
  476MOL0     C64190   8.362   3.025   7.555  0.1078  0.1501 -0.4525
  476MOL0     C64191   8.493   3.087   7.537  1.0808 -0.0798  0.2118
  476MOL0     C64192   8.494   3.214   7.448 -0.0630  0.6546 -0.0656
  476MOL0     H64193   8.907   3.201   7.834 -0.7767 -1.7090 -0.0450
  476MOL0     H64194   9.117   3.305   7.860  1.7094  0.4256 -0.4618
  476MOL0     H64195   9.280   3.424   7.705  2.1931  0.1201 -1.7866
  476MOL0     H64196   9.318   3.364   7.871  1.3384 -0.4864  0.3870
  476MOL0     H64197   9.500   3.524   7.789 -0.7715  0.2791  1.1224
  476MOL0     H64198   9.506   3.430   7.638  1.1927  0.2957  0.1460
  476MOL0     H64199   9.613   3.235   7.773 -0.7958 -1.3555  1.9726
  476MOL0     H64200   9.545   3.313   7.915 -0.0683  0.4830  0.1483
  476MOL0     H64201   9.754   3.437   7.710  2.5616  0.3825  1.0777
  476MOL0     H64202   9.712   3.506   7.857 -1.4399  0.8842 -2.7962
  476MOL0     H64203   9.826   3.290   7.981  0.9470  0.5357  1.4970
  476MOL0     H64204   9.859   3.260   7.815 -2.2856 -0.1512  0.1583
  476MOL0     H64205  10.012   3.437   7.780  0.7074  0.9921  1.0887
  476MOL0     H64206   9.960   3.512   7.940 -0.0384 -0.3697  1.9835
  476MOL0     H64207  10.054   3.233   7.957 -1.1479  0.6225  0.8133
  476MOL0     H64208  10.084   3.371   8.062 -2.4621 -0.8551  0.3727
  476MOL0     H64209  10.288   3.304   7.955  1.3962  2.9255  2.3860
  476MOL0     H64210  10.225   3.349   7.788 -0.1106  0.4716 -0.8541
  476MOL0     H64211  10.279   3.604   7.726 -0.7829  0.8522 -0.6342
  476MOL0     H64212  10.307   3.861   7.736  0.5166 -2.8498  0.2969
  476MOL0     H64213  10.189   3.911   7.867 -0.2467 -1.2917  1.2897
  476MOL0     H64214  10.404   4.041   7.900 -0.1020  0.9224 -0.2765
  476MOL0     H64215  10.371   3.929   8.032  3.4981 -1.5051  1.1083
  476MOL0     H64216  10.557   3.838   7.817 -0.9269 -2.8227  0.1423
  476MOL0     H64217  10.511   3.761   7.964 -0.6575 -0.1313 -1.4643
  476MOL0     H64218  10.603   3.988   8.082 -0.8317 -0.1252  0.5380
  476MOL0     H64219  10.677   4.014   7.929 -0.7594  1.8125  1.3477
  476MOL0     H64220  10.795   4.088   8.130 -0.2228 -1.1443  1.9235
  476MOL0     H64221  11.022   4.163   8.201 -6.0296  1.5786 -0.5089
  476MOL0     H64222  11.440   4.037   8.425  1.3980  0.6416  2.2682
  476MOL0     H64223  11.654   4.138   8.456 -0.0173  0.0571  0.9557
  476MOL0     H64224  11.999   3.984   8.191 -2.4229 -0.3388 -2.7997
  476MOL0     H64225  11.947   4.115   8.101 -2.1828  1.2952  1.8120
  476MOL0     H64226  12.155   4.178   8.172 -1.6044 -0.3510 -0.7957
  476MOL0     H64227  12.044   4.275   8.272 -2.6464 -0.9447 -1.9245
  476MOL0     H64228  12.061   4.092   8.449  2.4140  2.1515  2.7443
  476MOL0     H64229  12.200   4.022   8.354 -1.9328 -1.5442  1.1302
  476MOL0     H64230  12.188   4.293   8.492 -1.7512  0.4028 -2.0273
  476MOL0     H64231  12.310   4.232   8.373  2.8392 -3.7607  1.6631
  476MOL0     H64232  12.363   4.052   8.520  0.9997  2.8305 -2.3323
  476MOL0     H64233  12.235   4.086   8.639 -0.5319  0.6970  1.3442
  476MOL0     H64234  12.441   4.305   8.570  0.8467 -1.1353 -0.6721
  476MOL0     H64235  12.370   4.273   8.724  0.9590  2.4027 -0.6516
  476MOL0     H64236  12.591   4.105   8.618  1.5740  0.1058  1.4904
  476MOL0     H64237  12.486   4.068   8.755  0.9627  1.9895  3.9874
  476MOL0     H64238  12.649   4.327   8.724 -3.8038  1.6370 -0.9314
  476MOL0     H64239  12.558   4.269   8.865  0.2549 -0.1539  0.6728
  476MOL0     H64240  11.778   3.962   8.077  0.4245  0.9941  0.7313
  476MOL0     H64241  11.555   3.880   8.047 -0.1186 -2.2721  1.3155
  476MOL0     H64242  11.182   3.798   8.035  1.5151  1.8865  2.2084
  476MOL0     H64243  10.953   3.718   8.016 -0.3281 -0.4825  0.9731
  476MOL0     H64244   9.275   3.079   7.532  0.5112 -2.0094  0.5357
  476MOL0     H64245   9.055   2.950   7.516 -0.2990 -0.8192 -0.2964
  476MOL0     H64246   8.673   2.883   7.743 -0.4790 -3.3571 -1.0866
  476MOL0     H64247   8.429   2.808   7.794 -1.3680  0.3557  0.2739
  476MOL0     H64248   8.180   2.736   7.788  0.4766  2.2394  0.3306
  476MOL0     H64249   8.298   2.671   7.657 -0.4454  0.4189  0.0850
  476MOL0     H64250   8.108   2.571   7.605  2.1780  0.4096  2.4642
  476MOL0     H64251   8.119   2.721   7.490  0.4412  0.4583 -0.5239
  476MOL0     H64252   7.964   2.826   7.596 -0.9419 -1.1167  0.0727
  476MOL0     H64253   7.971   2.731   7.746 -0.0173  0.5352  1.1274
  476MOL0     H64254   7.838   2.652   7.484 -2.1457 -1.1507  0.6152
  476MOL0     H64255   7.862   2.544   7.626 -2.1556  0.2603  0.4031
  476MOL0     H64256   7.537   2.793   7.719 -0.1448  1.9574  0.1994
  476MOL0     H64257   8.274   3.073   7.514 -2.7538 -4.1568  0.0516
  476MOL0     H64258   8.513   3.295   7.518 -2.6457 -0.4309  2.0645
  476MOL0     H64259   8.577   3.209   7.378  1.5224 -2.5528  1.7911
  476MOL0     H64260   8.406   3.226   7.385  2.7773 -0.2256 -4.6685
  477MOL0     O64261   1.243   9.164   7.591 -0.1948 -0.6356 -0.4558
  477MOL0     C64262   1.146   9.216   7.654 -0.2852  0.0274 -0.2113
  477MOL0     O64263   1.157   9.297   7.759  0.0108 -0.2688  0.4392
  477MOL0     C64264   1.271   9.356   7.799 -0.6888 -0.5486 -0.3589
  477MOL0     C64265   1.293   9.494   7.799  0.7376 -0.6901  0.5268
  477MOL0     C64266   1.397   9.550   7.870 -0.6673 -0.5837  0.5120
  477MOL0     C64267   1.498   9.471   7.930  0.0877  0.0402 -0.4082
  477MOL0     O64268   1.607   9.538   7.975 -0.1518 -0.6758 -0.2092
  477MOL0     C64269   1.654   9.499   8.107  0.0674 -0.3587  0.0556
  477MOL0     C64270   1.552   9.495   8.218  0.2363  0.1017 -0.5679
  477MOL0     C64271   1.627   9.506   8.351  0.5651 -0.2861 -0.1605
  477MOL0     C64272   1.529   9.513   8.476  0.1690  0.4298  0.1719
  477MOL0     C64273   1.611   9.544   8.607  0.4427  0.6132  0.0154
  477MOL0     C64274   1.530   9.554   8.741  0.2017  0.2037  0.0435
  477MOL0     C64275   1.617   9.582   8.868  0.3310  0.8806  0.3394
  477MOL0     C64276   1.677   9.728   8.880  0.9567 -0.4659 -0.0500
  477MOL0     N64277   1.792   9.729   8.965  0.4791  0.8680  0.4774
  477MOL0     C64278   1.913   9.673   8.947 -0.2671 -0.5525  0.4085
  477MOL0     C64279   1.983   9.702   9.055  0.0300 -0.6253  0.4308
  477MOL0     C64280   2.115   9.634   9.100 -0.1637  0.0245  0.5910
  477MOL0     C64281   2.238   9.733   9.098 -0.9977 -0.4817 -0.1817
  477MOL0     C64282   2.368   9.678   9.169  0.4275  0.8064  0.1102
  477MOL0     C64283   2.483   9.785   9.171  0.1949  0.0644  0.0700
  477MOL0     O64284   2.611   9.732   9.217 -0.1242  0.3643  0.5746
  477MOL0     C64285   2.730   9.803   9.192  0.3105 -0.3114  0.5954
  477MOL0     C64286   2.742   9.938   9.161  0.2698 -0.2828 -0.0845
  477MOL0     C64287   2.869   9.995   9.138  0.3533  0.5040 -1.0086
  477MOL0     C64288   2.984   9.922   9.162  0.1903 -0.0108  0.2622
  477MOL0     C64289   3.115   9.982   9.140 -0.5972 -0.3887 -1.1461
  477MOL0     O64290   3.223   9.931   9.224  0.1945 -0.0495 -0.4280
  477MOL0     C64291   3.356   9.953   9.193  0.1617  0.2323 -0.2509
  477MOL0     C64292   3.407   9.898   9.079 -0.2242 -0.2240  0.3651
  477MOL0     C64293   3.541   9.916   9.044  0.0098 -0.7830  0.4721
  477MOL0     C64294   3.627  10.002   9.115  0.4901 -0.2563 -0.0932
  477MOL0     O64295   3.746  10.042   9.075 -0.6846 -0.3012 -0.0685
  477MOL0     C64296   3.797   9.973   8.958 -0.0180 -0.3484 -0.6009
  477MOL0     C64297   3.939  10.045   8.931  0.7165  0.1549  0.0937
  477MOL0     C64298   4.007  10.018   8.789 -0.4010 -0.0248 -0.8099
  477MOL0     C64299   4.112  10.128   8.760  0.5215  0.1064  0.3133
  477MOL0     C64300   4.254  10.095   8.812 -0.1944 -0.9756 -0.1789
  477MOL0     C64301   4.358  10.208   8.773  0.4818  0.8014  0.3175
  477MOL0     C64302   4.490  10.184   8.835  0.4884 -0.0218 -0.7706
  477MOL0     C64303   4.597  10.297   8.799 -0.7583  0.4404  0.5224
  477MOL0    Cl64304   4.621  10.312   8.618  0.0306  0.1710 -0.3848
  477MOL0     C64305   3.579  10.045   9.236  0.1136  0.1804 -0.2520
  477MOL0     C64306   3.449  10.016   9.275  0.3041 -0.4446  0.0623
  477MOL0     O64307   3.126  10.072   9.056 -0.4722 -0.0482 -0.3172
  477MOL0     C64308   2.969   9.790   9.203  0.1856  0.1719 -0.4109
  477MOL0     C64309   2.844   9.729   9.206  0.0351  0.8179  0.8446
  477MOL0     N64310   1.894   9.759   9.149  0.8042 -0.0720  0.4429
  477MOL0     N64311   1.780   9.767   9.095 -0.1444 -0.0497 -0.6719
  477MOL0     C64312   1.471   9.340   7.935 -0.4963  0.5155  0.0841
  477MOL0     C64313   1.365   9.278   7.870 -0.3433  0.8962  0.0940
  477MOL0     C64314   1.005   9.179   7.609  0.2330 -0.7661  0.7955
  477MOL0     C64315   0.987   9.140   7.476 -0.7073 -0.8042  0.3688
  477MOL0     C64316   0.863   9.101   7.428 -0.9543 -0.0090 -0.4732
  477MOL0     C64317   0.756   9.105   7.511  0.0916 -0.3571 -0.1968
  477MOL0     O64318   0.651   9.065   7.443  0.5311 -0.3128  0.4809
  477MOL0     C64319   0.514   9.099   7.480 -0.1003  0.8474 -0.4733
  477MOL0     C64320   0.408   9.028   7.401  0.3570  0.1361 -0.5199
  477MOL0     C64321   0.437   8.882   7.358 -0.0591  0.0569  0.3457
  477MOL0     C64322   0.310   8.813   7.315  0.1357 -0.1795 -0.4383
  477MOL0     C64323   0.330   8.671   7.277  0.6150 -0.9282  0.4077
  477MOL0     C64324   0.344   8.555   7.252  0.3431 -0.2667 -0.1513
  477MOL0     C64325   0.760   9.147   7.642  0.0179 -1.2716  0.6670
  477MOL0     C64326   0.888   9.178   7.693 -0.3391 -0.6622 -0.6292
  477MOL0     C64327   0.901   9.210   7.832  0.7829  0.3360 -0.3097
  477MOL0     H64328   1.232   9.547   7.727  2.5620 -1.2043 -1.4878
  477MOL0     H64329   1.403   9.658   7.862 -2.5832 -0.5750 -2.2927
  477MOL0     H64330   1.721   9.412   8.107  0.8953  0.2585  0.7849
  477MOL0     H64331   1.722   9.581   8.133  1.2335 -1.8761  2.1839
  477MOL0     H64332   1.485   9.408   8.217 -0.2348  0.3393  2.5651
  477MOL0     H64333   1.483   9.579   8.208 -0.1846  0.8736  5.4219
  477MOL0     H64334   1.690   9.596   8.355  5.0548 -3.0913 -0.4803
  477MOL0     H64335   1.697   9.422   8.361  3.0175  1.2606 -2.7513
  477MOL0     H64336   1.456   9.594   8.471  0.4444  0.7404  0.9228
  477MOL0     H64337   1.475   9.419   8.492 -0.6028  0.9252  0.5512
  477MOL0     H64338   1.693   9.472   8.601 -0.8887 -0.9548 -0.4508
  477MOL0     H64339   1.665   9.638   8.599 -0.3429  1.1046  0.3556
  477MOL0     H64340   1.470   9.646   8.734 -0.2104  0.2086  2.6292
  477MOL0     H64341   1.461   9.472   8.765 -2.0639  1.7611 -0.7902
  477MOL0     H64342   1.692   9.503   8.871 -0.4242  0.0685 -1.0883
  477MOL0     H64343   1.549   9.570   8.954 -0.6087 -0.7689 -0.5911
  477MOL0     H64344   1.691   9.778   8.783 -1.0388  0.7060  0.2079
  477MOL0     H64345   1.593   9.779   8.929 -0.5634 -2.4260 -0.4930
  477MOL0     H64346   1.942   9.619   8.858  1.1026  0.6520  0.0827
  477MOL0     H64347   2.092   9.597   9.200 -2.5748 -0.3789 -0.0413
  477MOL0     H64348   2.141   9.550   9.035 -1.0605  1.5131 -1.8347
  477MOL0     H64349   2.257   9.763   8.995  1.9475  3.1956  1.2085
  477MOL0     H64350   2.207   9.829   9.140 -1.0431  0.5413 -2.4296
  477MOL0     H64351   2.413   9.593   9.116  0.2111 -0.3561  1.7313
  477MOL0     H64352   2.339   9.641   9.267  1.0793  0.2126  0.0835
  477MOL0     H64353   2.461   9.863   9.245  1.2234 -3.4765  4.5558
  477MOL0     H64354   2.489   9.816   9.066 -0.1820 -2.0563 -0.6169
  477MOL0     H64355   2.650   9.995   9.159  0.8073  0.5801 -0.9479
  477MOL0     H64356   2.865  10.103   9.122 -0.8192  0.8040  0.9606
  477MOL0     H64357   3.350   9.822   9.026 -0.7980  0.9669 -0.7789
  477MOL0     H64358   3.575   9.886   8.946 -0.8728  1.5764 -0.6522
  477MOL0     H64359   3.800   9.864   8.967 -0.9612 -0.1801  2.8019
  477MOL0     H64360   3.729   9.997   8.875 -2.9606  1.4883  2.1389
  477MOL0     H64361   3.934  10.153   8.949  2.6072  0.0973  1.3315
  477MOL0     H64362   4.005  10.007   9.010 -0.6010  0.7537  1.5435
  477MOL0     H64363   4.063   9.924   8.797  0.4549  0.5558  0.2254
  477MOL0     H64364   3.936  10.021   8.706 -0.8787  1.6878 -0.3812
  477MOL0     H64365   4.083  10.226   8.798  1.5163  1.3047 -1.8097
  477MOL0     H64366   4.111  10.144   8.652  1.4003 -1.8983 -0.0451
  477MOL0     H64367   4.290   9.997   8.779 -0.0668 -1.1059  0.3472
  477MOL0     H64368   4.251  10.095   8.921  2.5495 -0.1340 -0.0291
  477MOL0     H64369   4.371  10.212   8.664  0.2948 -0.7026  0.2213
  477MOL0     H64370   4.318  10.308   8.790 -1.0286  0.2595  0.1365
  477MOL0     H64371   4.522  10.085   8.802 -0.7011 -0.7160  0.0805
  477MOL0     H64372   4.477  10.181   8.943  1.9371 -0.9617 -0.5965
  477MOL0     H64373   4.562  10.395   8.833 -0.2645  1.9040 -2.8144
  477MOL0     H64374   4.694  10.282   8.847 -0.7084 -0.1909  0.2364
  477MOL0     H64375   3.646  10.111   9.288 -0.3539 -0.3008  0.9947
  477MOL0     H64376   3.405  10.064   9.362 -2.0690 -1.1527 -0.6765
  477MOL0     H64377   3.060   9.734   9.222  0.9985  2.0668  1.8102
  477MOL0     H64378   2.830   9.621   9.213  2.0060  0.5504  1.1537
  477MOL0     H64379   1.549   9.289   7.990 -0.3073 -1.8831 -2.2169
  477MOL0     H64380   1.355   9.170   7.875  2.3883  0.6041  1.1679
  477MOL0     H64381   1.070   9.142   7.407 -0.1325  0.7175  1.0466
  477MOL0     H64382   0.860   9.076   7.323  0.8934  3.2868 -1.4499
  477MOL0     H64383   0.489   9.206   7.478 -3.3049  0.2084  0.3487
  477MOL0     H64384   0.502   9.063   7.583  0.4547  1.4427 -0.1948
  477MOL0     H64385   0.399   9.093   7.314  0.5867  1.2903  0.2917
  477MOL0     H64386   0.315   9.033   7.459 -0.3952  1.9255 -1.8014
  477MOL0     H64387   0.477   8.829   7.446 -0.2908  0.1453  0.5057
  477MOL0     H64388   0.511   8.874   7.279  0.0497 -0.4704  0.4967
  477MOL0     H64389   0.237   8.812   7.397  0.1110 -2.7082 -0.3960
  477MOL0     H64390   0.254   8.866   7.238 -1.2097  1.5573  1.6093
  477MOL0     H64391   0.377   8.458   7.220  0.5335  0.0873 -1.0739
  477MOL0     H64392   0.676   9.141   7.710  1.2287 -1.4656  2.2208
  477MOL0     H64393   0.804   9.194   7.881  3.0458  1.2671  5.2084
  477MOL0     H64394   0.983   9.156   7.881 -0.8580 -1.7476  0.3127
  477MOL0     H64395   0.924   9.317   7.844  2.3239 -0.2394  3.2790
  478MOL0     O64396   0.041   8.096   5.691  0.3632 -0.1430 -0.5181
  478MOL0     C64397   0.063   8.213   5.714 -0.4600  0.2430 -0.3413
  478MOL0     O64398   0.183   8.272   5.680  0.1690  0.1489  0.4384
  478MOL0     C64399   0.299   8.200   5.654 -0.3702  0.1620  0.4005
  478MOL0     C64400   0.416   8.241   5.717 -0.9286  1.0381  0.4945
  478MOL0     C64401   0.533   8.164   5.718  0.4766 -0.1718  0.6352
  478MOL0     C64402   0.546   8.035   5.666 -0.2817 -0.6122  0.0812
  478MOL0     O64403   0.657   7.957   5.682 -0.1390 -0.3413  0.7350
  478MOL0     C64404   0.666   7.822   5.653 -0.5600 -0.1593  0.0292
  478MOL0     C64405   0.808   7.776   5.687  0.3278 -0.3126 -0.9658
  478MOL0     C64406   0.931   7.871   5.673  0.5334  0.0923  0.0346
  478MOL0     C64407   1.060   7.808   5.723 -0.2423  0.3499  0.1547
  478MOL0     C64408   1.187   7.873   5.668  0.5341  0.1347 -0.2397
  478MOL0     C64409   1.306   7.807   5.723  0.2696 -0.7473  0.2198
  478MOL0     C64410   1.427   7.860   5.635  0.5948  0.0815 -0.2984
  478MOL0     C64411   1.555   7.808   5.691  0.0065  0.1983 -0.2097
  478MOL0     N64412   1.669   7.822   5.601  0.0712  0.1211 -0.2075
  478MOL0     C64413   1.761   7.925   5.593  0.8485  0.6063  0.3639
  478MOL0     C64414   1.838   7.900   5.487  0.3681  0.8591 -0.5855
  478MOL0     C64415   1.947   7.991   5.439 -0.5876 -0.6648 -0.0154
  478MOL0     C64416   2.087   7.947   5.476  0.4761 -0.2940  0.4989
  478MOL0     C64417   2.198   8.033   5.414  0.4539 -0.2423  0.6448
  478MOL0     C64418   2.335   7.980   5.463 -0.1674  0.3266 -0.2034
  478MOL0     O64419   2.351   7.840   5.433 -1.3684  0.4459  0.3407
  478MOL0     C64420   2.458   7.805   5.354  0.9389  0.1213  0.0175
  478MOL0     C64421   2.545   7.712   5.398 -0.3041 -0.2252 -0.1930
  478MOL0     C64422   2.648   7.670   5.321 -0.3303 -0.0778  0.5008
  478MOL0     C64423   2.673   7.728   5.194  0.1557 -0.4877 -0.1308
  478MOL0     C64424   2.781   7.680   5.111  0.9354 -0.0646  0.1737
  478MOL0     O64425   2.866   7.593   5.175  0.2725  0.4946  0.0363
  478MOL0     C64426   2.978   7.548   5.103 -0.3696 -0.1298 -0.1073
  478MOL0     C64427   2.984   7.431   5.037  0.3567  0.6303 -0.5743
  478MOL0     C64428   3.099   7.403   4.964  0.3654  0.9670 -1.0226
  478MOL0     C64429   3.197   7.492   4.939 -0.1662 -0.8352  0.3965
  478MOL0     O64430   3.289   7.446   4.854 -0.5045 -0.4051 -0.1220
  478MOL0     C64431   3.337   7.535   4.751  0.1202 -0.2077  0.5116
  478MOL0     C64432   3.449   7.454   4.675  0.4196 -0.8512 -0.5245
  478MOL0     C64433   3.583   7.504   4.720 -0.3248  0.2462  0.0728
  478MOL0     C64434   3.623   7.621   4.622 -1.0372  0.8953  0.5114
  478MOL0     C64435   3.746   7.689   4.684 -0.2648  0.4648 -0.0323
  478MOL0     C64436   3.798   7.797   4.592  0.3797  0.0328  0.2879
  478MOL0     C64437   3.932   7.853   4.641  0.8128  0.6265 -0.2928
  478MOL0     C64438   3.994   7.942   4.538 -1.0934 -0.0041 -0.2584
  478MOL0    Cl64439   4.155   7.986   4.593 -0.2757 -0.0048 -0.0897
  478MOL0     C64440   3.191   7.612   5.004 -0.4426  0.4299  1.2757
  478MOL0     C64441   3.080   7.646   5.086  0.4432  0.1478 -0.1343
  478MOL0     O64442   2.786   7.702   4.992  0.0459 -0.4777 -0.2775
  478MOL0     C64443   2.585   7.832   5.149 -0.7996  0.1901  0.2724
  478MOL0     C64444   2.481   7.872   5.230  0.6464  0.1380 -0.6820
  478MOL0     N64445   1.792   7.786   5.428  0.0574  0.4840 -0.1464
  478MOL0     N64446   1.694   7.736   5.501 -0.2315 -0.6959  0.5427
  478MOL0     C64447   0.433   7.997   5.597 -0.1035 -0.3017 -0.0723
  478MOL0     C64448   0.306   8.074   5.593 -0.3098 -0.0963 -0.2745
  478MOL0     C64449  -0.038   8.310   5.787 -0.0433  0.2209  0.6296
  478MOL0     C64450   0.012   8.412   5.866 -0.7037  0.5632  0.3632
  478MOL0     C64451  -0.082   8.496   5.933 -0.1902  0.7920  0.4831
  478MOL0     C64452  -0.219   8.480   5.922 -0.1145 -0.2085  0.4360
  478MOL0     O64453  -0.292   8.579   5.981 -0.0462 -0.8328 -0.5880
  478MOL0     C64454  -0.434   8.580   5.973  0.2415 -0.7222  0.2627
  478MOL0     C64455  -0.483   8.698   6.069  0.4362  0.4229  0.2673
  478MOL0     C64456  -0.505   8.654   6.216 -0.7207  0.2876 -0.0093
  478MOL0     C64457  -0.596   8.747   6.293  0.4326 -0.9403  0.1231
  478MOL0     C64458  -0.559   8.888   6.265  0.0152  0.2154  1.1447
  478MOL0     C64459  -0.514   8.999   6.258 -0.0266 -0.3398 -0.3652
  478MOL0     C64460  -0.265   8.378   5.844  0.4590  0.1109  0.6492
  478MOL0     C64461  -0.178   8.290   5.774 -0.2975 -0.4901 -0.2081
  478MOL0     C64462  -0.248   8.173   5.707  0.3464  0.5895 -0.8721
  478MOL0     H64463   0.416   8.345   5.749  1.6935  1.1000  0.5206
  478MOL0     H64464   0.619   8.201   5.773  0.6042 -0.0330  0.3494
  478MOL0     H64465   0.600   7.766   5.720  1.0961 -1.3308  0.7710
  478MOL0     H64466   0.639   7.800   5.550 -0.9259  0.4738 -0.0143
  478MOL0     H64467   0.835   7.677   5.651 -0.3219 -1.0990  0.5772
  478MOL0     H64468   0.803   7.764   5.796 -1.5843 -1.6186 -1.1469
  478MOL0     H64469   0.906   7.959   5.734  0.8462 -0.8268  1.5312
  478MOL0     H64470   0.933   7.907   5.570  1.2657  0.4359  0.1624
  478MOL0     H64471   1.061   7.809   5.833  0.0036 -1.6241  0.1905
  478MOL0     H64472   1.062   7.704   5.692 -1.3620 -0.6557  3.0628
  478MOL0     H64473   1.183   7.863   5.559 -1.2804 -1.5039 -0.0669
  478MOL0     H64474   1.174   7.979   5.693 -2.8171  0.0066 -0.9847
  478MOL0     H64475   1.314   7.831   5.830  1.0880 -1.1398  0.2532
  478MOL0     H64476   1.301   7.698   5.711  2.3339 -0.6492 -2.4240
  478MOL0     H64477   1.421   7.969   5.628  3.3831  0.3526  0.3015
  478MOL0     H64478   1.421   7.821   5.533  1.2315 -1.5526  0.2519
  478MOL0     H64479   1.575   7.883   5.768 -0.9488  1.9863 -1.6211
  478MOL0     H64480   1.543   7.708   5.733  0.0478 -0.1223 -0.9438
  478MOL0     H64481   1.774   7.997   5.673 -0.4347  0.3433  0.8472
  478MOL0     H64482   1.936   8.012   5.333 -1.8378 -0.7369  0.0838
  478MOL0     H64483   1.940   8.093   5.479  1.5123 -0.0616 -1.0335
  478MOL0     H64484   2.100   7.952   5.585  1.7464  1.0400  0.3106
  478MOL0     H64485   2.090   7.851   5.423 -2.1789  1.1599 -2.6403
  478MOL0     H64486   2.178   8.132   5.454 -2.7303  0.2068 -1.6884
  478MOL0     H64487   2.202   8.042   5.305  2.8701 -0.2527  0.6641
  478MOL0     H64488   2.324   7.996   5.570 -0.5423 -0.4776 -0.1190
  478MOL0     H64489   2.412   8.040   5.413  1.5478 -1.8094 -0.2479
  478MOL0     H64490   2.526   7.666   5.494 -4.6003 -0.2160 -0.8344
  478MOL0     H64491   2.704   7.583   5.353  2.9828  1.1047 -1.4769
  478MOL0     H64492   2.904   7.358   5.033  0.6813  0.1012  1.5681
  478MOL0     H64493   3.101   7.317   4.898  1.3509  1.8858 -2.2492
  478MOL0     H64494   3.261   7.558   4.675  1.5818  0.8843 -0.6820
  478MOL0     H64495   3.377   7.635   4.772  1.5358 -0.4493 -0.8103
  478MOL0     H64496   3.441   7.346   4.696  1.8646 -0.5692  1.9635
  478MOL0     H64497   3.439   7.473   4.568  1.6497  1.1532 -0.3281
  478MOL0     H64498   3.570   7.535   4.824 -2.0689 -0.2941  0.0418
  478MOL0     H64499   3.665   7.432   4.724 -0.6788 -0.1267  0.7972
  478MOL0     H64500   3.540   7.693   4.618 -1.6760  0.1348 -2.0552
  478MOL0     H64501   3.652   7.584   4.523  2.0780 -1.3169  2.0688
  478MOL0     H64502   3.825   7.617   4.706 -2.0027 -1.6705 -0.4038
  478MOL0     H64503   3.712   7.733   4.779  0.5716  1.4957 -0.1932
  478MOL0     H64504   3.814   7.757   4.492  0.4289  1.1455 -0.1581
  478MOL0     H64505   3.717   7.870   4.581 -0.4272 -0.8233  0.4576
  478MOL0     H64506   4.000   7.771   4.668  0.2481 -0.6668 -2.5276
  478MOL0     H64507   3.911   7.902   4.736 -2.4031 -0.0814 -0.5114
  478MOL0     H64508   4.009   7.875   4.453 -0.5805  0.1074 -0.2563
  478MOL0     H64509   3.930   8.027   4.512 -3.4310 -2.0788 -1.7555
  478MOL0     H64510   3.276   7.678   5.014 -0.0707  0.0831  0.4398
  478MOL0     H64511   3.071   7.748   5.123 -0.5860  0.0033  0.0381
  478MOL0     H64512   2.612   7.875   5.053 -2.7589  1.4934  0.2590
  478MOL0     H64513   2.428   7.959   5.193  0.0999 -0.4307 -1.2723
  478MOL0     H64514   0.429   7.902   5.544  0.3013 -0.2799 -0.1450
  478MOL0     H64515   0.221   8.040   5.535 -1.7884  1.1738  1.0641
  478MOL0     H64516   0.118   8.432   5.864 -0.5328 -0.3369 -0.7678
  478MOL0     H64517  -0.057   8.572   6.007 -2.5252 -0.1489  2.3519
  478MOL0     H64518  -0.476   8.484   6.005 -1.2184 -0.6025 -1.1475
  478MOL0     H64519  -0.466   8.591   5.869 -0.1434 -0.7923  0.3701
  478MOL0     H64520  -0.581   8.730   6.032  2.0310  2.6751 -2.4475
  478MOL0     H64521  -0.408   8.776   6.052  1.5302 -0.9136 -1.3546
  478MOL0     H64522  -0.409   8.648   6.267 -1.0598  2.7737  1.0620
  478MOL0     H64523  -0.541   8.551   6.227 -0.7111 -0.0286 -2.4504
  478MOL0     H64524  -0.698   8.728   6.261  0.1127  3.0608 -1.9292
  478MOL0     H64525  -0.591   8.732   6.401 -0.9976 -0.3035  0.3010
  478MOL0     H64526  -0.462   9.092   6.249  0.6697 -0.8694 -2.1538
  478MOL0     H64527  -0.372   8.370   5.826  0.0699  1.6752  2.0495
  478MOL0     H64528  -0.251   8.087   5.775 -2.2584  1.8365  0.7306
  478MOL0     H64529  -0.355   8.186   5.690 -0.0599 -1.3010  0.0277
  478MOL0     H64530  -0.185   8.137   5.624  2.0481 -1.9105  1.3501
  479MOL0     O64531   1.651   7.634   2.832 -0.3251 -0.2535  0.5178
  479MOL0     C64532   1.586   7.557   2.759  0.3695  0.2856  0.8232
  479MOL0     O64533   1.628   7.501   2.650 -0.7422  0.3752 -0.4509
  479MOL0     C64534   1.747   7.547   2.585  0.1132 -0.1961  0.6388
  479MOL0     C64535   1.873   7.565   2.640  0.5959  0.3226  0.9437
  479MOL0     C64536   1.984   7.603   2.575 -0.4388 -0.6954 -0.5068
  479MOL0     C64537   1.975   7.625   2.435  0.3656  0.6063 -0.3649
  479MOL0     O64538   2.095   7.658   2.368 -0.0393  0.3816 -0.9007
  479MOL0     C64539   2.100   7.675   2.226  0.4019 -0.5048  0.2215
  479MOL0     C64540   2.234   7.663   2.177  0.4776  0.2208  0.2981
  479MOL0     C64541   2.336   7.764   2.235 -0.2795 -0.9480  0.4814
  479MOL0     C64542   2.470   7.704   2.274  0.5287  0.7197 -0.6343
  479MOL0     C64543   2.565   7.822   2.297 -0.8941 -1.1418 -1.4105
  479MOL0     C64544   2.671   7.789   2.401 -0.3277 -0.6618  0.2151
  479MOL0     C64545   2.770   7.905   2.434 -0.0681 -0.0467 -0.4737
  479MOL0     C64546   2.894   7.861   2.521  1.1029 -0.2694  0.6497
  479MOL0     N64547   3.005   7.962   2.506  0.5235  0.1039 -0.4784
  479MOL0     C64548   2.998   8.090   2.555  0.6034  0.6674  0.3689
  479MOL0     C64549   3.115   8.147   2.509  0.6664 -0.2995 -0.2706
  479MOL0     C64550   3.148   8.289   2.536  0.4362 -0.4630  0.4216
  479MOL0     C64551   3.297   8.315   2.540  0.4329  0.6297 -0.0400
  479MOL0     C64552   3.332   8.467   2.552 -0.1790 -0.2221 -0.2756
  479MOL0     C64553   3.480   8.489   2.595  0.3505 -0.2650  0.2032
  479MOL0     O64554   3.575   8.412   2.511 -0.3118  0.5368 -0.3549
  479MOL0     C64555   3.710   8.423   2.542  0.8305 -1.5533  0.0159
  479MOL0     C64556   3.791   8.355   2.458 -0.3941  0.2807  0.3350
  479MOL0     C64557   3.933   8.337   2.486  0.2859  1.0835  0.4128
  479MOL0     C64558   3.988   8.396   2.599 -0.1040  0.5117  1.1590
  479MOL0     C64559   4.121   8.361   2.648  0.1959 -0.7203  0.5593
  479MOL0     O64560   4.203   8.282   2.570  0.0643  0.1921 -0.2913
  479MOL0     C64561   4.311   8.239   2.635 -0.1825 -0.2929  0.4854
  479MOL0     C64562   4.436   8.314   2.619  0.2450  0.1995 -0.2464
  479MOL0     C64563   4.555   8.253   2.672 -0.3914 -0.3503  0.1978
  479MOL0     C64564   4.552   8.133   2.738 -0.2633 -0.1517  0.6659
  479MOL0     O64565   4.670   8.075   2.779  0.3860  0.0757 -0.1305
  479MOL0     C64566   4.796   8.148   2.778  0.7663 -0.5304  0.3410
  479MOL0     C64567   4.898   8.070   2.853  0.1553 -0.7414  0.6092
  479MOL0     C64568   4.997   8.164   2.912  0.2702 -0.3291 -0.2397
  479MOL0     C64569   5.101   8.077   2.988  0.4620 -0.4073  0.3244
  479MOL0     C64570   5.227   8.153   3.040  0.2018 -0.2869  0.3642
  479MOL0     C64571   5.302   8.038   3.124 -0.1859 -0.9201 -0.0199
  479MOL0     C64572   5.430   8.106   3.179  0.0185 -0.2053  0.0480
  479MOL0     C64573   5.538   8.005   3.228 -0.0599 -0.4167 -0.3768
  479MOL0    Cl64574   5.468   7.898   3.350  0.1241 -0.0459 -0.4219
  479MOL0     C64575   4.429   8.070   2.761  0.1568 -0.3385  0.7431
  479MOL0     C64576   4.309   8.117   2.708  0.9616  0.2567  0.1736
  479MOL0     O64577   4.145   8.398   2.768  0.5236  0.7770 -0.2882
  479MOL0     C64578   3.896   8.474   2.669 -0.3339 -0.6739 -0.8475
  479MOL0     C64579   3.762   8.495   2.648  0.2834 -0.2102  0.6981
  479MOL0     N64580   3.183   8.050   2.433  0.7203  0.6991  0.0496
  479MOL0     N64581   3.116   7.942   2.435 -0.3096 -0.1614  0.0966
  479MOL0     C64582   1.856   7.595   2.364  1.0423 -0.2540 -0.6506
  479MOL0     C64583   1.735   7.565   2.443 -0.4101 -0.3954  0.3256
  479MOL0     C64584   1.451   7.514   2.785  0.3580 -0.7885 -0.3857
  479MOL0     C64585   1.358   7.516   2.676 -0.4646  0.1900  0.3888
  479MOL0     C64586   1.226   7.484   2.699 -0.0762 -0.8104 -0.3594
  479MOL0     C64587   1.184   7.465   2.823  0.1592  0.4052  0.2214
  479MOL0     O64588   1.046   7.451   2.842  0.0662  0.7080 -0.5698
  479MOL0     C64589   0.942   7.491   2.755 -0.9832  0.1455 -0.0396
  479MOL0     C64590   0.808   7.460   2.823  0.2410 -0.0727  0.6616
  479MOL0     C64591   0.759   7.322   2.813  0.0340  0.6953  1.0642
  479MOL0     C64592   0.648   7.297   2.923 -0.3435 -0.1553  0.4131
  479MOL0     C64593   0.569   7.178   2.898  0.1535  0.9126 -1.1487
  479MOL0     C64594   0.506   7.083   2.859  0.6544 -0.9211 -0.7065
  479MOL0     C64595   1.271   7.454   2.931 -0.1716  0.2001 -0.9364
  479MOL0     C64596   1.405   7.470   2.913 -0.0241  0.2042  0.6806
  479MOL0     C64597   1.499   7.439   3.028 -0.2024 -0.4236 -0.1143
  479MOL0     H64598   1.864   7.542   2.746  1.5792 -1.8309  0.6140
  479MOL0     H64599   2.068   7.615   2.642 -2.5059  4.1689  1.7317
  479MOL0     H64600   2.037   7.612   2.162  2.0482 -0.3797 -1.6208
  479MOL0     H64601   2.076   7.779   2.199  1.4363  0.4351  2.5750
  479MOL0     H64602   2.235   7.678   2.069  2.2982 -0.7212  0.1443
  479MOL0     H64603   2.265   7.560   2.198  3.1378  1.2867  2.1126
  479MOL0     H64604   2.294   7.815   2.321 -0.4578 -1.1679  0.5248
  479MOL0     H64605   2.350   7.833   2.151 -2.5759 -1.6623 -0.5619
  479MOL0     H64606   2.454   7.637   2.359  0.0526  1.2100 -0.3280
  479MOL0     H64607   2.518   7.651   2.192  1.3024  3.6692 -2.2459
  479MOL0     H64608   2.603   7.855   2.200 -2.1747  0.9318 -1.2853
  479MOL0     H64609   2.507   7.903   2.344  1.3592 -2.2617  3.9794
  479MOL0     H64610   2.621   7.760   2.494 -2.3360  1.9876  0.0732
  479MOL0     H64611   2.719   7.698   2.365 -1.4996 -2.4317  2.7837
  479MOL0     H64612   2.720   7.977   2.499  1.7712 -0.7538  1.8998
  479MOL0     H64613   2.800   7.947   2.338 -3.5827  0.1671 -1.6054
  479MOL0     H64614   2.869   7.845   2.626 -2.2624 -0.5598 -0.0890
  479MOL0     H64615   2.928   7.766   2.479 -1.9908 -1.4379  0.5258
  479MOL0     H64616   2.916   8.134   2.610 -0.1395 -0.1324 -0.0870
  479MOL0     H64617   3.102   8.361   2.468 -0.2048  0.8791  2.2091
  479MOL0     H64618   3.098   8.316   2.629  2.8365 -0.4510  1.7958
  479MOL0     H64619   3.337   8.266   2.629 -1.0642 -1.3958 -0.3910
  479MOL0     H64620   3.341   8.273   2.449 -1.0344 -0.6632 -0.2100
  479MOL0     H64621   3.274   8.519   2.629  1.2819  1.2102 -0.0748
  479MOL0     H64622   3.309   8.517   2.457  1.2420 -0.6654 -0.8800
  479MOL0     H64623   3.496   8.461   2.700 -0.6683  1.0403  0.7487
  479MOL0     H64624   3.510   8.592   2.574  4.3086 -1.3211 -0.1196
  479MOL0     H64625   3.740   8.307   2.376  1.5318 -0.1026 -0.6978
  479MOL0     H64626   3.989   8.267   2.425 -1.2053 -0.1480  0.3878
  479MOL0     H64627   4.438   8.398   2.550 -5.9802  1.5170  0.6145
  479MOL0     H64628   4.639   8.312   2.636 -2.5022  2.8224  0.0161
  479MOL0     H64629   4.824   8.161   2.673  1.0115  1.0602  0.5775
  479MOL0     H64630   4.778   8.240   2.833 -1.6118 -1.1835  0.7514
  479MOL0     H64631   4.851   8.009   2.932 -1.3555  0.1525  0.4484
  479MOL0     H64632   4.958   8.004   2.790  0.1582 -0.0704 -0.0950
  479MOL0     H64633   5.039   8.215   2.824 -0.3467 -2.1253 -1.6366
  479MOL0     H64634   4.957   8.237   2.983  1.1135  0.0053 -0.0922
  479MOL0     H64635   5.140   8.006   2.915  0.0022 -0.5749  0.2396
  479MOL0     H64636   5.046   8.024   3.067 -0.7280  0.8348  0.3634
  479MOL0     H64637   5.207   8.247   3.091  0.9621  0.9041 -1.4218
  479MOL0     H64638   5.286   8.174   2.950 -0.5060  0.3577  0.0404
  479MOL0     H64639   5.231   8.009   3.202 -0.8384  0.9595  0.1526
  479MOL0     H64640   5.340   7.964   3.053  0.9848  1.4794 -2.0468
  479MOL0     H64641   5.407   8.168   3.266 -0.6876 -0.2692 -0.0882
  479MOL0     H64642   5.472   8.169   3.100  0.4651  1.1738  1.3369
  479MOL0     H64643   5.582   7.956   3.140  0.4864  0.5906 -0.6875
  479MOL0     H64644   5.618   8.057   3.281  0.9161 -2.7128  0.5460
  479MOL0     H64645   4.434   7.987   2.831  0.0623 -0.9578  0.0407
  479MOL0     H64646   4.209   8.082   2.730  0.5267 -0.6206 -2.8229
  479MOL0     H64647   3.945   8.519   2.755 -3.3285  1.0536  0.0698
  479MOL0     H64648   3.703   8.563   2.709  0.6570  0.6427  0.1383
  479MOL0     H64649   1.837   7.596   2.257  4.0603 -1.5741 -1.2990
  479MOL0     H64650   1.640   7.561   2.391  0.0946  2.0610 -0.9583
  479MOL0     H64651   1.380   7.547   2.575  2.3190  1.0261  1.1657
  479MOL0     H64652   1.156   7.473   2.617 -0.6518 -0.2119  0.0347
  479MOL0     H64653   0.961   7.445   2.657 -0.8421 -0.3718  0.2285
  479MOL0     H64654   0.961   7.599   2.748 -2.9167  0.5679  0.6827
  479MOL0     H64655   0.730   7.525   2.781  0.7416 -1.7150 -3.1109
  479MOL0     H64656   0.813   7.480   2.931  2.9823  1.3288  0.3619
  479MOL0     H64657   0.839   7.247   2.812 -0.9904 -0.4237  0.2251
  479MOL0     H64658   0.703   7.310   2.720 -2.2447 -0.1006  2.4595
  479MOL0     H64659   0.685   7.280   3.024 -1.4975 -0.0544  0.8727
  479MOL0     H64660   0.581   7.384   2.928 -2.3230 -1.5320 -0.5887
  479MOL0     H64661   0.463   6.997   2.812  0.2235 -0.8946 -0.3701
  479MOL0     H64662   1.232   7.435   3.030  1.0426 -1.4546 -0.7337
  479MOL0     H64663   1.593   7.390   2.998  0.5052  0.7605  0.1187
  479MOL0     H64664   1.513   7.534   3.079 -2.2029 -0.2075  0.0863
  479MOL0     H64665   1.451   7.376   3.104 -1.0694  0.9538  0.5046
  480MOL0     O64666   0.884   6.694   2.323 -0.7233 -0.1777 -0.1360
  480MOL0     C64667   0.882   6.594   2.398 -0.3626 -0.2928 -0.2907
  480MOL0     O64668   0.987   6.536   2.464 -0.4061 -0.2305  0.1105
  480MOL0     C64669   1.109   6.602   2.472 -0.1683  0.3703 -0.0030
  480MOL0     C64670   1.187   6.631   2.364 -0.4902  0.2298 -0.3163
  480MOL0     C64671   1.316   6.687   2.383 -0.2171  1.4874  0.1454
  480MOL0     C64672   1.362   6.721   2.511  0.2632  0.1400 -0.0926
  480MOL0     O64673   1.486   6.772   2.541 -0.3600  1.1541 -0.3635
  480MOL0     C64674   1.597   6.785   2.448 -0.0142 -0.6762  0.1022
  480MOL0     C64675   1.658   6.649   2.401 -0.2922  0.3866  0.8639
  480MOL0     C64676   1.782   6.661   2.300  0.4669  0.8963  0.9067
  480MOL0     C64677   1.899   6.729   2.355  0.0910 -0.5674  0.0173
  480MOL0     C64678   2.024   6.702   2.262 -0.5542  0.1097 -1.1801
  480MOL0     C64679   2.145   6.757   2.334  0.4354 -0.0504  0.2026
  480MOL0     C64680   2.274   6.749   2.245  0.6162 -1.1360  0.3471
  480MOL0     C64681   2.396   6.820   2.308  0.2942  0.2475  0.2063
  480MOL0     N64682   2.515   6.790   2.230 -0.3035 -0.1043 -0.1706
  480MOL0     C64683   2.595   6.883   2.171 -0.0137  0.0697  0.0136
  480MOL0     C64684   2.698   6.812   2.119  0.4262 -0.6794  0.1195
  480MOL0     C64685   2.823   6.859   2.040 -0.2484  0.0918  0.0617
  480MOL0     C64686   2.860   6.756   1.931 -0.1816  1.1033  0.4562
  480MOL0     C64687   2.978   6.793   1.841  0.3771  0.2825  0.0106
  480MOL0     C64688   3.094   6.854   1.909 -0.0527 -0.5752  0.0323
  480MOL0     O64689   3.143   6.764   2.014 -0.1649  0.1136  0.0219
  480MOL0     C64690   3.247   6.809   2.097  0.1018  0.5564  0.3995
  480MOL0     C64691   3.345   6.901   2.059  0.2412 -0.3790 -1.1389
  480MOL0     C64692   3.442   6.950   2.147  0.0585 -0.5714 -0.1056
  480MOL0     C64693   3.462   6.888   2.273  0.5084 -0.1116  0.6177
  480MOL0     C64694   3.570   6.929   2.366 -0.3707 -0.6060  0.8895
  480MOL0     O64695   3.556   6.892   2.494  0.0970  0.1436  0.6740
  480MOL0     C64696   3.664   6.943   2.574 -0.2339  0.1500  0.4902
  480MOL0     C64697   3.805   6.931   2.542  0.7138 -0.2492  0.5221
  480MOL0     C64698   3.904   6.953   2.634 -0.0417 -0.5582  1.0565
  480MOL0     C64699   3.863   6.954   2.768 -0.6703  0.4463  0.0196
  480MOL0     O64700   3.962   6.957   2.868  0.0133  0.2290 -0.1704
  480MOL0     C64701   4.089   6.896   2.846 -0.1230 -0.3565  0.0149
  480MOL0     C64702   4.153   6.854   2.973  0.7284  0.3050 -0.5672
  480MOL0     C64703   4.232   6.968   3.022 -0.3110 -0.6831 -0.8105
  480MOL0     C64704   4.291   6.934   3.161 -0.8005  0.7039  0.2024
  480MOL0     C64705   4.387   7.041   3.213 -0.3300  0.3301  0.7727
  480MOL0     C64706   4.467   6.990   3.341 -0.1009 -0.4281  0.5643
  480MOL0     C64707   4.537   7.098   3.426  0.0993  0.0153  0.2229
  480MOL0     C64708   4.615   7.024   3.533  0.0946  0.1209 -0.5457
  480MOL0    Cl64709   4.746   6.926   3.459 -0.0046 -0.1605  0.2200
  480MOL0     C64710   3.731   6.945   2.806 -0.6614 -0.7975 -0.1590
  480MOL0     C64711   3.634   6.946   2.715 -0.4656 -0.0117  0.9667
  480MOL0     O64712   3.658   7.009   2.321 -0.1090  0.9332  0.2154
  480MOL0     C64713   3.377   6.787   2.302 -0.4349 -0.4451  0.3733
  480MOL0     C64714   3.265   6.755   2.222  0.4523  0.2838  0.1033
  480MOL0     N64715   2.681   6.680   2.152  0.4821  0.1626 -0.1722
  480MOL0     N64716   2.580   6.673   2.228  0.1413  0.1561  0.2926
  480MOL0     C64717   1.281   6.684   2.617  1.0460  0.3765 -0.8015
  480MOL0     C64718   1.164   6.622   2.596 -0.3770 -0.0141  0.2926
  480MOL0     C64719   0.751   6.530   2.419  0.5512 -0.1765 -0.3465
  480MOL0     C64720   0.749   6.392   2.448 -0.3637  0.0189  0.4015
  480MOL0     C64721   0.632   6.313   2.455 -0.2385 -1.4631  0.5204
  480MOL0     C64722   0.507   6.378   2.445 -0.0070 -0.4384 -0.0953
  480MOL0     O64723   0.394   6.295   2.469 -0.0967  0.3191  0.0799
  480MOL0     C64724   0.275   6.358   2.422  0.1821  0.3645 -0.1635
  480MOL0     C64725   0.158   6.257   2.452  0.4627  0.0879  0.7388
  480MOL0     C64726   0.023   6.293   2.387 -0.3812  0.9659 -0.0562
  480MOL0     C64727  -0.070   6.174   2.419 -0.5522 -0.1300  0.3651
  480MOL0     C64728  -0.201   6.204   2.367  0.5689 -0.0359 -0.3761
  480MOL0     C64729  -0.319   6.211   2.338 -0.9203  0.0943 -0.1127
  480MOL0     C64730   0.509   6.513   2.419  0.5121 -0.0346 -0.3276
  480MOL0     C64731   0.625   6.594   2.405  1.2545  0.7784  0.0917
  480MOL0     C64732   0.603   6.740   2.367 -0.5998 -0.0753 -0.2860
  480MOL0     H64733   1.146   6.608   2.266  1.9571  0.9058 -1.5864
  480MOL0     H64734   1.385   6.699   2.300  1.2650 -1.6517  0.7849
  480MOL0     H64735   1.562   6.847   2.366  1.2448 -0.8580 -0.6042
  480MOL0     H64736   1.674   6.836   2.506 -2.6125  1.4221  1.9692
  480MOL0     H64737   1.578   6.591   2.354  1.3396 -1.2086 -0.0928
  480MOL0     H64738   1.702   6.588   2.480  0.2943 -1.1399 -0.5582
  480MOL0     H64739   1.750   6.714   2.209 -0.6962  2.1264  1.9807
  480MOL0     H64740   1.809   6.562   2.262  1.2676  0.5966  2.2012
  480MOL0     H64741   1.873   6.834   2.374 -0.6901 -1.1950  2.8798
  480MOL0     H64742   1.917   6.677   2.450  1.6228  2.1348  1.3318
  480MOL0     H64743   2.038   6.594   2.258  2.7667  0.3954  0.0460
  480MOL0     H64744   2.011   6.748   2.163  2.1320  1.8354 -0.8193
  480MOL0     H64745   2.124   6.864   2.346  1.1792  0.1617 -0.3311
  480MOL0     H64746   2.162   6.724   2.437 -0.1121  0.2420  0.3919
  480MOL0     H64747   2.252   6.794   2.148 -0.5745  0.3772  1.2666
  480MOL0     H64748   2.291   6.643   2.230 -1.0655 -1.5267  0.9521
  480MOL0     H64749   2.382   6.928   2.318 -2.7399  0.0032 -0.4218
  480MOL0     H64750   2.404   6.775   2.407 -1.5066 -0.7804 -0.0678
  480MOL0     H64751   2.575   6.990   2.175 -0.0878  0.0169  2.6325
  480MOL0     H64752   2.794   6.955   1.997 -1.6319 -1.2182 -2.0920
  480MOL0     H64753   2.908   6.874   2.108 -2.0677 -2.1690  3.1499
  480MOL0     H64754   2.893   6.667   1.985  0.7283  1.6455  0.8245
  480MOL0     H64755   2.770   6.737   1.872 -0.9129 -0.7388  2.0483
  480MOL0     H64756   2.940   6.861   1.763  1.2155 -1.3423 -1.9033
  480MOL0     H64757   3.010   6.703   1.788 -1.2675 -0.4143  0.1438
  480MOL0     H64758   3.073   6.948   1.960  2.6301 -0.3968  0.9688
  480MOL0     H64759   3.171   6.868   1.834  2.2359 -1.7560  2.0021
  480MOL0     H64760   3.350   6.957   1.966 -1.5224 -0.4863 -1.3292
  480MOL0     H64761   3.513   7.026   2.117  2.0065 -2.7073 -1.1855
  480MOL0     H64762   3.845   6.905   2.445 -2.8737 -2.8644 -0.4305
  480MOL0     H64763   4.008   6.947   2.607  0.9836 -0.2192  4.4990
  480MOL0     H64764   4.071   6.807   2.785  0.2211 -2.2722  2.5649
  480MOL0     H64765   4.159   6.963   2.794 -1.3087  0.3226 -0.7589
  480MOL0     H64766   4.081   6.811   3.044 -0.6798  1.1168 -1.4501
  480MOL0     H64767   4.223   6.773   2.952 -0.2243 -0.3570 -1.2936
  480MOL0     H64768   4.312   6.990   2.951  0.1242 -1.7639 -0.6643
  480MOL0     H64769   4.156   7.045   3.043 -0.7882 -1.7316  1.6128
  480MOL0     H64770   4.357   6.847   3.156 -0.5928  0.7022  2.1514
  480MOL0     H64771   4.219   6.905   3.238  0.7518 -4.5879  0.0123
  480MOL0     H64772   4.333   7.129   3.249 -1.5602 -0.5936  1.2820
  480MOL0     H64773   4.454   7.079   3.135  2.0184  2.2108  3.4764
  480MOL0     H64774   4.390   6.942   3.401 -1.1050  0.3460 -0.0706
  480MOL0     H64775   4.535   6.914   3.301 -1.2929 -1.7169  0.9400
  480MOL0     H64776   4.453   7.145   3.478  1.1422 -0.8172  2.8209
  480MOL0     H64777   4.594   7.172   3.370  0.4544  0.4076  1.0870
  480MOL0     H64778   4.647   7.092   3.613 -3.2834  0.6054  0.5351
  480MOL0     H64779   4.550   6.950   3.580  0.9696 -0.9579 -0.9975
  480MOL0     H64780   3.707   6.945   2.912 -0.2364  1.0547 -0.0334
  480MOL0     H64781   3.528   6.945   2.741 -1.4577  2.2257 -2.3054
  480MOL0     H64782   3.388   6.732   2.396  3.3552  0.7022  0.7439
  480MOL0     H64783   3.194   6.681   2.255  0.9639  0.2751  1.2372
  480MOL0     H64784   1.304   6.702   2.722 -3.1745  2.3218 -0.0251
  480MOL0     H64785   1.096   6.584   2.671  1.2728 -2.4312  0.6698
  480MOL0     H64786   0.839   6.335   2.467 -1.6079 -2.5191 -0.8047
  480MOL0     H64787   0.630   6.207   2.478 -1.2809 -1.4886  0.3719
  480MOL0     H64788   0.277   6.391   2.318 -3.3318  1.4028 -0.0188
  480MOL0     H64789   0.245   6.452   2.469 -0.2861  0.0807  0.1136
  480MOL0     H64790   0.156   6.232   2.559 -1.7296 -1.0120  0.4967
  480MOL0     H64791   0.189   6.160   2.411 -1.7924 -1.1092  1.7024
  480MOL0     H64792   0.040   6.305   2.279  1.2708  2.5302  0.3271
  480MOL0     H64793  -0.018   6.382   2.436  0.2216 -1.2851  5.0678
  480MOL0     H64794  -0.027   6.080   2.386 -1.1681 -1.1831  2.3989
  480MOL0     H64795  -0.073   6.153   2.526  2.2689 -0.2373  0.4871
  480MOL0     H64796  -0.417   6.242   2.305 -1.2793 -0.2899  0.5685
  480MOL0     H64797   0.411   6.556   2.405 -2.3744 -5.5419  0.2819
  480MOL0     H64798   0.506   6.779   2.398 -1.2612 -2.4014  0.8271
  480MOL0     H64799   0.675   6.801   2.421 -1.3521  0.3876  0.2187
  480MOL0     H64800   0.622   6.758   2.261  1.7595 -0.1334  0.0758
  481MOL0     O64801   4.124   4.668  10.295 -0.0662 -0.1916  0.2275
  481MOL0     C64802   4.179   4.688  10.405 -0.0167 -0.0397  0.0479
  481MOL0     O64803   4.299   4.758  10.427 -0.5586 -0.4745 -0.1896
  481MOL0     C64804   4.385   4.795  10.328  0.3661 -0.4984 -0.1533
  481MOL0     C64805   4.482   4.895  10.349 -0.2954  0.1896  0.0781
  481MOL0     C64806   4.575   4.931  10.250 -0.3376  0.3438  0.9348
  481MOL0     C64807   4.585   4.845  10.138  0.2767  0.3639  0.0465
  481MOL0     O64808   4.666   4.888  10.041 -0.9195  0.3479 -0.6088
  481MOL0     C64809   4.695   4.799   9.936 -0.3936 -0.1921  0.5154
  481MOL0     C64810   4.798   4.863   9.841  0.1599 -0.1789  0.4379
  481MOL0     C64811   4.928   4.895   9.909 -0.7587  0.3168  0.2431
  481MOL0     C64812   5.030   4.943   9.804 -1.4348  0.8067 -0.9989
  481MOL0     C64813   5.134   5.037   9.859  0.2345 -0.3158  0.0084
  481MOL0     C64814   5.237   5.069   9.762  0.6278  0.4844  0.3736
  481MOL0     C64815   5.330   5.175   9.831 -0.2426  0.1437  0.2573
  481MOL0     C64816   5.439   5.240   9.736 -0.0673 -0.4064 -0.0633
  481MOL0     N64817   5.518   5.138   9.673 -0.6364 -0.4831  0.0720
  481MOL0     C64818   5.607   5.049   9.734 -0.2345 -0.1681 -0.1012
  481MOL0     C64819   5.656   4.970   9.629 -0.8386 -0.0778 -0.6609
  481MOL0     C64820   5.762   4.860   9.653  0.4335  0.5250 -0.1037
  481MOL0     C64821   5.714   4.754   9.755  0.1025 -0.5019 -0.8576
  481MOL0     C64822   5.815   4.640   9.783 -0.4312 -0.1038  0.6528
  481MOL0     C64823   5.945   4.706   9.827 -0.2602  0.9323  0.5619
  481MOL0     O64824   6.034   4.722   9.714  0.4127 -0.0671 -0.6892
  481MOL0     C64825   6.169   4.749   9.747  0.1557 -0.2287 -0.5206
  481MOL0     C64826   6.264   4.727   9.644  0.3843  0.3007 -0.0202
  481MOL0     C64827   6.399   4.741   9.669  0.2007 -0.4817 -0.2300
  481MOL0     C64828   6.439   4.784   9.796  0.1429  0.1613 -0.0487
  481MOL0     C64829   6.588   4.812   9.815 -0.5038  0.4965 -0.1685
  481MOL0     O64830   6.681   4.755   9.739 -0.8511 -0.3939  0.2092
  481MOL0     C64831   6.810   4.776   9.781 -0.5638  0.2279  0.8346
  481MOL0     C64832   6.900   4.827   9.700 -0.2435  0.7946 -0.3553
  481MOL0     C64833   7.035   4.854   9.742  0.0394 -0.0685 -0.6841
  481MOL0     C64834   7.074   4.838   9.874 -0.0263  0.2672  0.5859
  481MOL0     O64835   7.207   4.862   9.915  0.5513  0.4614 -0.4542
  481MOL0     C64836   7.217   4.972  10.011 -0.1371  0.3458 -0.6383
  481MOL0     C64837   7.286   5.089   9.948 -0.6638  0.1283 -0.3697
  481MOL0     C64838   7.426   5.053   9.905 -0.4391 -0.8645  0.0578
  481MOL0     C64839   7.514   5.175   9.858 -0.0804 -0.0448  0.9776
  481MOL0     C64840   7.651   5.134   9.808  0.6834 -0.2214  0.2590
  481MOL0     C64841   7.721   5.256   9.740  0.1252  0.1761 -1.1376
  481MOL0     C64842   7.844   5.211   9.653  0.6619 -0.4656 -0.1045
  481MOL0     C64843   7.923   5.329   9.592 -0.4701  0.0263  0.2431
  481MOL0    Cl64844   8.056   5.263   9.486  0.0244 -0.1110 -0.3877
  481MOL0     C64845   6.981   4.773   9.955 -0.3871  0.1356 -0.1409
  481MOL0     C64846   6.853   4.743   9.914 -0.6646 -0.0276 -0.2144
  481MOL0     O64847   6.607   4.905   9.889  0.1081 -0.5172 -0.0537
  481MOL0     C64848   6.345   4.808   9.898 -0.8114 -0.0061  0.3249
  481MOL0     C64849   6.210   4.804   9.865  0.0921  0.7366  0.4839
  481MOL0     N64850   5.596   5.019   9.516 -0.0351  0.2509  0.5331
  481MOL0     N64851   5.513   5.106   9.547  0.1198 -0.3517 -0.3209
  481MOL0     C64852   4.497   4.737  10.124 -0.8338  0.1325  0.0814
  481MOL0     C64853   4.405   4.710  10.223  0.2272  0.3748  0.0059
  481MOL0     C64854   4.109   4.625  10.525  0.3630 -0.6379  0.3180
  481MOL0     C64855   4.198   4.585  10.626 -0.5218  0.0449 -0.1513
  481MOL0     C64856   4.142   4.533  10.744  0.2459 -0.6302  0.3406
  481MOL0     C64857   4.006   4.510  10.764  0.5064  1.1458  0.3121
  481MOL0     O64858   3.964   4.460  10.883  0.1351 -0.2750  0.6014
  481MOL0     C64859   4.028   4.335  10.924 -0.2255 -0.1252 -0.6473
  481MOL0     C64860   3.966   4.286  11.060  1.1410  0.2954  0.0192
  481MOL0     C64861   3.827   4.226  11.042  0.6225  0.5799 -0.4296
  481MOL0     C64862   3.784   4.149  11.168 -0.4612  0.5515  0.1017
  481MOL0     C64863   3.637   4.127  11.180 -0.6150 -0.2711  0.3800
  481MOL0     C64864   3.514   4.098  11.176 -1.1667  0.1122  0.4473
  481MOL0     C64865   3.921   4.539  10.652  0.7447 -0.0274  0.1490
  481MOL0     C64866   3.969   4.598  10.535  0.2336  0.1981  0.0965
  481MOL0     C64867   3.873   4.651  10.433  1.0160 -0.0489 -0.2946
  481MOL0     H64868   4.473   4.955  10.439  0.3889 -0.6735  0.7458
  481MOL0     H64869   4.643   5.014  10.264 -0.1334 -0.0910  2.6631
  481MOL0     H64870   4.733   4.701   9.967  0.3809 -0.3113 -0.7394
  481MOL0     H64871   4.609   4.780   9.870  0.8739  2.2252 -2.0333
  481MOL0     H64872   4.753   4.956   9.807  1.2235  0.5302  0.9075
  481MOL0     H64873   4.812   4.800   9.753 -0.5684  0.4938 -0.1744
  481MOL0     H64874   4.971   4.814   9.969 -0.4554  1.9417  2.3698
  481MOL0     H64875   4.902   4.967   9.988 -1.0058 -1.1838  1.5658
  481MOL0     H64876   5.073   4.861   9.745  2.0995  3.4565 -2.4900
  481MOL0     H64877   4.969   5.002   9.734  0.3355  4.3412  0.2025
  481MOL0     H64878   5.085   5.129   9.893 -0.0228 -1.1191  1.9380
  481MOL0     H64879   5.171   5.000   9.955 -1.9348  1.2636  1.5475
  481MOL0     H64880   5.293   4.979   9.738  0.2676  0.3347  0.0789
  481MOL0     H64881   5.188   5.112   9.674 -0.4574 -1.1563  0.1351
  481MOL0     H64882   5.373   5.128   9.920  0.0286  0.3013  0.2110
  481MOL0     H64883   5.270   5.262   9.861 -1.6733 -0.2653 -1.2719
  481MOL0     H64884   5.391   5.306   9.663 -0.7866  0.7284  1.3716
  481MOL0     H64885   5.503   5.304   9.798  1.6047 -1.3581 -0.7421
  481MOL0     H64886   5.641   5.053   9.837 -3.1600 -0.6140  0.9568
  481MOL0     H64887   5.785   4.811   9.558 -0.0313 -2.5342  1.2364
  481MOL0     H64888   5.853   4.906   9.691 -1.6499  3.1327  2.1845
  481MOL0     H64889   5.692   4.813   9.844 -1.0351 -0.2484 -1.2790
  481MOL0     H64890   5.620   4.713   9.716 -0.5056  0.1865 -0.1393
  481MOL0     H64891   5.831   4.588   9.689  1.9157  1.3233  0.1946
  481MOL0     H64892   5.772   4.572   9.858  0.6246  0.6349  1.9731
  481MOL0     H64893   5.992   4.636   9.896 -1.6090  0.6533  1.2335
  481MOL0     H64894   5.930   4.799   9.882 -3.6134  0.9674 -0.1614
  481MOL0     H64895   6.223   4.716   9.544 -0.2634  1.5733  0.0887
  481MOL0     H64896   6.465   4.729   9.584  0.7084 -2.6810  0.4257
  481MOL0     H64897   6.869   4.839   9.596 -2.3078  0.6262  0.1844
  481MOL0     H64898   7.098   4.895   9.663 -1.1725 -0.9496 -2.1721
  481MOL0     H64899   7.118   4.991  10.053  0.2650 -3.2225  2.4631
  481MOL0     H64900   7.279   4.941  10.095  0.3942  2.5958 -0.1436
  481MOL0     H64901   7.241   5.125   9.855 -0.7596  1.5388  0.1949
  481MOL0     H64902   7.302   5.174  10.014  2.1572 -1.0828  0.6679
  481MOL0     H64903   7.486   5.010   9.985  1.4485  0.5424 -0.5330
  481MOL0     H64904   7.418   4.979   9.825  0.1575 -1.7749  0.8206
  481MOL0     H64905   7.529   5.236   9.947 -1.7621 -0.7145  1.7574
  481MOL0     H64906   7.459   5.224   9.777  1.0344  0.3478  0.4358
  481MOL0     H64907   7.648   5.049   9.738  0.3188 -0.6583  0.7985
  481MOL0     H64908   7.714   5.103   9.892 -0.3653 -3.1654  0.0901
  481MOL0     H64909   7.649   5.317   9.683 -1.5997 -1.3694 -0.6981
  481MOL0     H64910   7.751   5.317   9.825 -0.0233 -0.3581 -0.6994
  481MOL0     H64911   7.811   5.152   9.567 -0.9576  1.9309 -1.2656
  481MOL0     H64912   7.919   5.156   9.711  0.4512 -1.5743 -0.8643
  481MOL0     H64913   7.863   5.391   9.525  0.4693 -0.2943 -0.9341
  481MOL0     H64914   7.957   5.390   9.676 -2.2035 -0.4723  1.3671
  481MOL0     H64915   7.018   4.744  10.053  0.0398  0.8223 -0.0885
  481MOL0     H64916   6.775   4.702   9.978 -1.4560  1.4536 -0.1983
  481MOL0     H64917   6.376   4.837   9.998  0.7631  0.0962 -0.1658
  481MOL0     H64918   6.138   4.836   9.940 -3.5942 -2.0626 -1.4903
  481MOL0     H64919   4.514   4.664  10.046  0.4750  0.5272 -0.0210
  481MOL0     H64920   4.341   4.622  10.218 -2.1254  1.9394  0.8696
  481MOL0     H64921   4.306   4.592  10.624 -0.5143  1.3432  1.8538
  481MOL0     H64922   4.206   4.509  10.828  0.3958  1.3725  0.8450
  481MOL0     H64923   4.136   4.328  10.938 -0.5142 -2.5277  1.0114
  481MOL0     H64924   4.017   4.262  10.843 -0.6448  0.8444 -1.4840
  481MOL0     H64925   3.950   4.373  11.125  0.9879  0.1707  0.1489
  481MOL0     H64926   4.037   4.224  11.116  0.4550  0.9484  1.6746
  481MOL0     H64927   3.835   4.151  10.963 -2.8031  1.0412 -1.3660
  481MOL0     H64928   3.747   4.297  11.022 -0.7353 -1.3641 -2.2863
  481MOL0     H64929   3.838   4.054  11.171  3.2645  2.5355  1.4023
  481MOL0     H64930   3.830   4.203  11.251 -3.2978  1.1614  1.4232
  481MOL0     H64931   3.417   4.052  11.182 -0.0854 -2.4799 -0.7665
  481MOL0     H64932   3.814   4.531  10.670  1.1246 -1.4219  2.0603
  481MOL0     H64933   3.771   4.652  10.471  0.6730  0.5816 -1.1920
  481MOL0     H64934   3.893   4.755  10.407 -1.9600  0.9137  0.8415
  481MOL0     H64935   3.881   4.588  10.344  1.7079 -0.3808 -0.0016
  482MOL0     O64936   4.863   2.861   0.871  0.4080 -0.8586  0.7906
  482MOL0     C64937   4.744   2.866   0.835 -0.4908 -0.2147  0.1394
  482MOL0     O64938   4.687   2.973   0.771 -0.4929  0.0840 -0.1443
  482MOL0     C64939   4.751   3.092   0.760 -0.0088  0.4731 -0.0797
  482MOL0     C64940   4.876   3.108   0.719  0.1017  0.8360 -0.2436
  482MOL0     C64941   4.942   3.233   0.717  0.1911 -0.6501  0.0222
  482MOL0     C64942   4.862   3.345   0.757 -0.5469 -0.4906 -0.8635
  482MOL0     O64943   4.916   3.472   0.765  0.2631 -0.3517 -0.2001
  482MOL0     C64944   5.056   3.491   0.748  0.1261  0.0343  0.0074
  482MOL0     C64945   5.145   3.422   0.850 -0.9846 -0.1277  0.3669
  482MOL0     C64946   5.257   3.507   0.922 -0.1436 -0.2226  0.6190
  482MOL0     C64947   5.335   3.420   1.021  0.3544 -0.0519 -0.0386
  482MOL0     C64948   5.464   3.493   1.066 -0.0027 -0.1287  0.4140
  482MOL0     C64949   5.553   3.422   1.168  1.5763 -0.1334 -1.1202
  482MOL0     C64950   5.683   3.493   1.203  0.1752 -0.3429  0.2045
  482MOL0     C64951   5.803   3.443   1.114 -0.2733 -0.1465 -0.6013
  482MOL0     N64952   5.918   3.533   1.146 -0.3924  1.1566  0.2516
  482MOL0     C64953   5.987   3.519   1.264 -0.3766 -0.3512  0.3244
  482MOL0     C64954   6.089   3.598   1.247 -0.0465 -0.7883 -0.3482
  482MOL0     C64955   6.193   3.607   1.352  0.4329 -0.3145  0.1016
  482MOL0     C64956   6.280   3.474   1.370 -0.0747 -0.1716  0.1403
  482MOL0     C64957   6.390   3.459   1.264 -0.1206  0.7611 -0.6118
  482MOL0     C64958   6.451   3.320   1.274 -0.0564 -0.0852  0.5404
  482MOL0     O64959   6.506   3.306   1.409 -0.3349 -1.0529  0.0726
  482MOL0     C64960   6.640   3.335   1.440  0.0614 -0.0080  0.6764
  482MOL0     C64961   6.733   3.384   1.348  0.7072  0.3030 -0.0439
  482MOL0     C64962   6.863   3.416   1.382 -0.2224 -0.2245 -0.5796
  482MOL0     C64963   6.910   3.414   1.518  0.9424  0.0636 -0.4540
  482MOL0     C64964   7.043   3.461   1.538 -0.0570 -0.9422 -0.1993
  482MOL0     O64965   7.121   3.494   1.426  0.0370 -0.4624  0.7163
  482MOL0     C64966   7.245   3.552   1.427 -0.7322  0.1953 -0.2550
  482MOL0     C64967   7.350   3.481   1.359 -0.0983  0.1819 -0.1340
  482MOL0     C64968   7.480   3.524   1.387  0.4768 -0.1067 -0.0181
  482MOL0     C64969   7.510   3.635   1.461  0.0216  0.8830 -0.6820
  482MOL0     O64970   7.644   3.686   1.473  0.6383  0.2895  0.1119
  482MOL0     C64971   7.761   3.604   1.443 -0.1642  0.6463 -0.1417
  482MOL0     C64972   7.889   3.641   1.511  0.0751 -0.0199 -0.0171
  482MOL0     C64973   7.894   3.612   1.663  0.3334 -0.1895  0.6882
  482MOL0     C64974   8.016   3.661   1.735 -0.8256 -0.6485 -0.4583
  482MOL0     C64975   8.031   3.606   1.878 -0.4575 -0.9336 -0.3065
  482MOL0     C64976   8.173   3.620   1.942  0.3673  0.2098  0.2459
  482MOL0     C64977   8.240   3.757   1.928  0.2216  0.0038 -0.5128
  482MOL0     C64978   8.378   3.746   1.991  0.5636 -0.6446  0.2264
  482MOL0    Cl64979   8.492   3.639   1.894 -0.1285 -0.0796 -0.0509
  482MOL0     C64980   7.403   3.699   1.525  0.4196  0.0824  0.1038
  482MOL0     C64981   7.275   3.660   1.512 -1.1527  0.3553 -0.0504
  482MOL0     O64982   7.088   3.467   1.648 -0.0024 -0.6693 -0.1186
  482MOL0     C64983   6.815   3.366   1.614 -0.6185 -1.1793 -0.6271
  482MOL0     C64984   6.686   3.335   1.575  1.2312  0.4365  0.8548
  482MOL0     N64985   6.085   3.666   1.123 -0.3845  0.2811  0.0596
  482MOL0     N64986   5.983   3.612   1.060  0.0213  0.7103 -0.1291
  482MOL0     C64987   4.725   3.328   0.788  0.4756  0.0797 -0.1553
  482MOL0     C64988   4.669   3.198   0.798 -0.4963  0.5423 -0.5004
  482MOL0     C64989   4.651   2.748   0.853  0.4829 -0.1231  0.2332
  482MOL0     C64990   4.538   2.734   0.770  1.0455 -1.0284 -0.4387
  482MOL0     C64991   4.465   2.620   0.776  0.3591  0.6179 -0.2345
  482MOL0     C64992   4.489   2.516   0.868  0.2740  0.1671 -0.0565
  482MOL0     O64993   4.419   2.392   0.876 -0.1608  0.0752  0.5569
  482MOL0     C64994   4.321   2.361   0.773  0.0948  0.7769  0.2075
  482MOL0     C64995   4.378   2.292   0.656 -0.0512 -0.3987 -0.4944
  482MOL0     C64996   4.290   2.320   0.528 -0.0658  0.1761 -0.4065
  482MOL0     C64997   4.157   2.244   0.544  0.6561  0.8812  0.9674
  482MOL0     C64998   4.168   2.094   0.559 -0.6421 -0.3995  0.8570
  482MOL0     C64999   4.170   1.981   0.587  0.0877  0.2334  0.5382
  482MOL0     C65000   4.592   2.531   0.956  0.6293 -0.6558 -0.5231
  482MOL0     C65001   4.673   2.647   0.951  0.3304  0.1439  0.2493
  482MOL0     C65002   4.785   2.648   1.045  0.2735  0.4449 -0.1232
  482MOL0     H65003   4.936   3.019   0.702  1.4851  1.5553  0.6536
  482MOL0     H65004   5.042   3.247   0.679 -0.8536  0.4936 -2.4848
  482MOL0     H65005   5.088   3.467   0.646 -0.7236  0.5607 -0.4026
  482MOL0     H65006   5.077   3.598   0.764  0.6019 -0.5282  4.2292
  482MOL0     H65007   5.200   3.335   0.814 -1.3538 -0.1112 -0.2427
  482MOL0     H65008   5.075   3.390   0.927 -1.3484 -1.2224 -0.3962
  482MOL0     H65009   5.201   3.590   0.967 -0.8651 -0.5750  0.3879
  482MOL0     H65010   5.325   3.542   0.844 -0.3052 -0.8279  0.2016
  482MOL0     H65011   5.277   3.419   1.114 -0.4217  4.0184 -0.3197
  482MOL0     H65012   5.345   3.319   0.979 -1.2998 -0.8613  1.3608
  482MOL0     H65013   5.527   3.522   0.982 -0.7841  1.2974  0.2802
  482MOL0     H65014   5.423   3.585   1.110  0.9352 -0.4389  2.0109
  482MOL0     H65015   5.492   3.417   1.259  4.3825  1.9850  1.0682
  482MOL0     H65016   5.575   3.324   1.126  3.4372  0.1201 -0.8363
  482MOL0     H65017   5.712   3.469   1.305  2.4728  3.7167  0.7566
  482MOL0     H65018   5.680   3.603   1.201  1.2694 -0.3088 -0.6436
  482MOL0     H65019   5.827   3.338   1.128  0.4280  0.1096  0.1866
  482MOL0     H65020   5.783   3.461   1.008  1.0798  2.6202 -0.5006
  482MOL0     H65021   5.952   3.456   1.345 -3.3819 -2.0944 -2.1126
  482MOL0     H65022   6.264   3.687   1.329  1.0310 -0.5545  1.0615
  482MOL0     H65023   6.143   3.631   1.447 -1.8162 -2.0201 -0.5701
  482MOL0     H65024   6.325   3.473   1.470  0.0015  0.5869  0.1183
  482MOL0     H65025   6.222   3.381   1.372  2.6475 -2.0050 -0.6215
  482MOL0     H65026   6.475   3.523   1.292  0.0357 -0.7270  2.8655
  482MOL0     H65027   6.359   3.484   1.162  2.1271  0.5460 -1.4058
  482MOL0     H65028   6.523   3.304   1.193  2.0295  1.4327  1.9723
  482MOL0     H65029   6.366   3.252   1.269 -1.4134  1.6288 -0.7834
  482MOL0     H65030   6.701   3.409   1.247 -1.1325  2.7596  1.0400
  482MOL0     H65031   6.928   3.455   1.304  0.4826 -0.5075 -0.1450
  482MOL0     H65032   7.329   3.389   1.307 -1.0471  0.5046 -0.3417
  482MOL0     H65033   7.560   3.471   1.335  2.3616  3.2393 -0.8279
  482MOL0     H65034   7.753   3.502   1.484 -3.5340  1.6866  2.2825
  482MOL0     H65035   7.763   3.594   1.335 -0.0511 -1.2977  0.0025
  482MOL0     H65036   7.969   3.591   1.455 -0.6352  1.2507 -2.3065
  482MOL0     H65037   7.913   3.747   1.502  0.9563 -0.2385 -0.4232
  482MOL0     H65038   7.804   3.648   1.714 -0.7070 -2.1641  0.3398
  482MOL0     H65039   7.885   3.504   1.678  2.5234 -0.3279  1.5476
  482MOL0     H65040   8.010   3.770   1.740 -7.5073 -0.5826 -1.0051
  482MOL0     H65041   8.104   3.626   1.680 -1.1794 -0.6191 -1.0449
  482MOL0     H65042   7.998   3.502   1.875 -2.6293 -0.4888  2.9655
  482MOL0     H65043   7.971   3.680   1.932  0.8181  1.2658 -1.7664
  482MOL0     H65044   8.176   3.600   2.049 -1.1525 -1.0388  0.0813
  482MOL0     H65045   8.234   3.551   1.884  0.3796  0.2887  0.1635
  482MOL0     H65046   8.182   3.827   1.989  1.3021  1.6484 -1.3088
  482MOL0     H65047   8.249   3.793   1.826 -0.6505 -3.9208 -2.1543
  482MOL0     H65048   8.411   3.850   1.989 -1.8616  0.2827  2.6680
  482MOL0     H65049   8.378   3.716   2.096 -1.2367 -0.8473  0.2000
  482MOL0     H65050   7.445   3.783   1.580  1.1324 -0.7383  0.8489
  482MOL0     H65051   7.193   3.719   1.553 -2.6665 -1.3819 -0.4578
  482MOL0     H65052   6.835   3.365   1.720 -0.9895  2.3385 -0.3992
  482MOL0     H65053   6.608   3.318   1.649 -0.3598 -0.9409 -1.0094
  482MOL0     H65054   4.663   3.410   0.822  0.0269 -0.4055  0.2125
  482MOL0     H65055   4.568   3.181   0.835 -0.9496  3.4883 -0.1165
  482MOL0     H65056   4.504   2.808   0.697 -0.7972 -0.3973  0.9874
  482MOL0     H65057   4.395   2.604   0.695  0.5365  0.6144 -0.3889
  482MOL0     H65058   4.266   2.443   0.727  0.3795  0.6521 -0.3715
  482MOL0     H65059   4.256   2.291   0.826  1.4998  0.4032  1.4858
  482MOL0     H65060   4.392   2.185   0.674  1.3214 -0.4949 -1.9569
  482MOL0     H65061   4.481   2.327   0.647 -0.2382  0.9680  1.8706
  482MOL0     H65062   4.336   2.276   0.439  0.4955  0.2500 -0.1562
  482MOL0     H65063   4.270   2.427   0.514  0.9851  0.4815  0.2834
  482MOL0     H65064   4.097   2.279   0.629  0.4267 -0.4452  1.3882
  482MOL0     H65065   4.087   2.253   0.460  0.7265 -0.1143  0.7844
  482MOL0     H65066   4.161   1.881   0.625 -0.4939 -0.0997 -0.4353
  482MOL0     H65067   4.606   2.451   1.027 -2.0529  0.0809  1.0015
  482MOL0     H65068   4.771   2.713   1.131  1.4429  1.8866 -0.9672
  482MOL0     H65069   4.786   2.542   1.074 -1.5452  0.2597 -0.6274
  482MOL0     H65070   4.881   2.662   0.993  0.6777 -2.0294 -0.1965
  483MOL0     O65071   0.076   8.753   1.207 -0.0506  0.8816 -0.5750
  483MOL0     C65072  -0.015   8.835   1.240  0.0941  0.3374 -0.3143
  483MOL0     O65073   0.003   8.964   1.254  0.2413  0.9785  0.4238
  483MOL0     C65074   0.121   9.017   1.260 -0.4349 -0.2803  1.0325
  483MOL0     C65075   0.252   8.964   1.287 -0.1628 -0.4542  0.0627
  483MOL0     C65076   0.366   9.047   1.295  0.0175 -0.7597 -0.0105
  483MOL0     C65077   0.355   9.185   1.268  0.5132 -0.2173  0.2788
  483MOL0     O65078   0.468   9.265   1.289  0.3217 -0.2395  0.0747
  483MOL0     C65079   0.464   9.408   1.253  0.6680 -0.9360 -0.3240
  483MOL0     C65080   0.597   9.475   1.217 -0.9764  0.1788  0.1351
  483MOL0     C65081   0.690   9.485   1.331 -0.5114  0.3267 -0.4753
  483MOL0     C65082   0.829   9.521   1.280 -0.7612  0.0893  0.1874
  483MOL0     C65083   0.938   9.487   1.379 -0.3874  0.2937 -0.4074
  483MOL0     C65084   1.056   9.582   1.357 -0.4313  0.1512  0.1091
  483MOL0     C65085   1.129   9.538   1.221 -0.3690  0.3474  0.2178
  483MOL0     C65086   1.252   9.624   1.197 -0.6888  0.0919 -0.7140
  483MOL0     N65087   1.367   9.613   1.294 -0.3890 -0.1594 -0.1879
  483MOL0     C65088   1.382   9.697   1.400 -0.7440 -0.6746  1.1138
  483MOL0     C65089   1.476   9.638   1.483 -0.3780  0.3760 -0.1260
  483MOL0     C65090   1.545   9.701   1.601  0.2853 -0.3529 -0.0856
  483MOL0     C65091   1.691   9.744   1.580  0.0939  0.5676  0.5053
  483MOL0     C65092   1.703   9.836   1.461  0.5913  0.2815 -0.1383
  483MOL0     C65093   1.832   9.907   1.445  0.7946  0.1598 -0.1872
  483MOL0     O65094   1.852   9.983   1.567 -0.7647  0.1333 -0.0909
  483MOL0     C65095   1.965  10.056   1.589  0.0854  0.0319  0.0517
  483MOL0     C65096   2.062  10.083   1.486  0.2129  0.5685  1.4194
  483MOL0     C65097   2.168  10.157   1.516 -0.1294  1.0447 -0.1086
  483MOL0     C65098   2.185  10.213   1.641 -0.4797 -0.2855 -0.9555
  483MOL0     C65099   2.306  10.292   1.672 -0.6384 -0.3533  0.0807
  483MOL0     O65100   2.316  10.371   1.781 -0.7377  0.3221 -0.3822
  483MOL0     C65101   2.423  10.450   1.798 -0.8085  0.3982  0.6020
  483MOL0     C65102   2.558  10.398   1.790 -0.4343  0.3608  0.4321
  483MOL0     C65103   2.671  10.485   1.817  0.3021 -0.5256  0.3278
  483MOL0     C65104   2.653  10.620   1.858 -0.1871  0.7489  0.0603
  483MOL0     O65105   2.765  10.683   1.901 -0.0511  0.4885 -0.3092
  483MOL0     C65106   2.751  10.807   1.972  0.0386  0.7010 -0.9708
  483MOL0     C65107   2.885  10.858   2.036  0.2629 -0.5128 -0.1205
  483MOL0     C65108   3.008  10.854   1.936 -0.1718  0.6386 -0.1464
  483MOL0     C65109   3.135  10.915   1.995  0.5905 -0.2452 -0.3236
  483MOL0     C65110   3.251  10.941   1.897  0.2714 -0.1931  0.4050
  483MOL0     C65111   3.364  11.014   1.972 -0.4348  0.4724  0.7352
  483MOL0     C65112   3.493  10.979   1.892 -0.7034 -0.1565  0.0556
  483MOL0     C65113   3.607  11.067   1.949  0.1520 -0.6732  0.0390
  483MOL0    Cl65114   3.763  11.019   1.874 -0.1154  0.8145 -0.5050
  483MOL0     C65115   2.517  10.662   1.875 -1.0068  0.2027  0.0317
  483MOL0     C65116   2.408  10.584   1.841  0.1904  1.2028 -0.1516
  483MOL0     O65117   2.394  10.281   1.588  0.6210  0.3400  0.0860
  483MOL0     C65118   2.086  10.202   1.739 -0.3111 -0.6442  0.0916
  483MOL0     C65119   1.979  10.121   1.714 -0.2090 -0.1980 -0.1862
  483MOL0     N65120   1.516   9.516   1.423 -0.1704 -0.3189  0.3999
  483MOL0     N65121   1.442   9.499   1.318  0.0252 -0.2683  0.3228
  483MOL0     C65122   0.227   9.242   1.245 -0.0467  0.3342 -0.6430
  483MOL0     C65123   0.111   9.156   1.249  0.6028 -0.6633  0.7962
  483MOL0     C65124  -0.157   8.782   1.248 -0.4855 -0.3754  0.5669
  483MOL0     C65125  -0.170   8.647   1.279  0.9448 -0.7039  0.5121
  483MOL0     C65126  -0.299   8.597   1.286  0.5298  0.2921 -0.5002
  483MOL0     C65127  -0.416   8.666   1.257 -0.1504  0.0548 -0.6292
  483MOL0     O65128  -0.540   8.602   1.283  0.3644  0.0540  0.1515
  483MOL0     C65129  -0.655   8.692   1.306 -0.0202  0.1794 -0.1080
  483MOL0     C65130  -0.774   8.601   1.341 -0.6210  0.5588  0.6075
  483MOL0     C65131  -0.744   8.525   1.475  0.3512  0.1777 -0.3442
  483MOL0     C65132  -0.868   8.453   1.520 -0.1253 -0.6116  0.4049
  483MOL0     C65133  -0.855   8.398   1.662 -0.5003  0.7962 -0.2094
  483MOL0     C65134  -0.855   8.350   1.772  0.8149 -0.7223  0.3310
  483MOL0     C65135  -0.402   8.798   1.224 -0.2833  0.0845  0.3860
  483MOL0     C65136  -0.273   8.857   1.220 -0.0927 -0.5318  0.4661
  483MOL0     C65137  -0.278   9.002   1.176 -0.6665  0.0124 -0.2252
  483MOL0     H65138   0.268   8.857   1.296  2.3610 -0.0554  1.1995
  483MOL0     H65139   0.462   9.002   1.317  0.6190  0.0157 -0.9657
  483MOL0     H65140   0.397   9.418   1.168  0.3378  0.8955  0.1077
  483MOL0     H65141   0.419   9.466   1.333 -0.3086 -0.6513 -1.0621
  483MOL0     H65142   0.584   9.575   1.174  2.7340  0.9381  0.4865
  483MOL0     H65143   0.640   9.413   1.138 -0.2847 -1.8907  2.0420
  483MOL0     H65144   0.686   9.393   1.390  0.5551  2.3690  3.0772
  483MOL0     H65145   0.649   9.553   1.406 -1.3989 -2.7848  2.0710
  483MOL0     H65146   0.850   9.473   1.184  1.8932  0.6619  0.4139
  483MOL0     H65147   0.829   9.628   1.257 -1.9799  0.4281  1.6225
  483MOL0     H65148   0.913   9.517   1.481  0.5877  2.3352 -0.7112
  483MOL0     H65149   0.974   9.384   1.372  1.1992  0.8135 -0.5407
  483MOL0     H65150   1.014   9.683   1.354 -0.1499  0.2822 -3.2184
  483MOL0     H65151   1.125   9.578   1.442 -2.4515  0.3293  1.8345
  483MOL0     H65152   1.058   9.535   1.138 -1.0121 -2.9843  0.7399
  483MOL0     H65153   1.176   9.440   1.232  0.6559  0.8428  0.4900
  483MOL0     H65154   1.290   9.602   1.097  0.0302 -0.1362 -0.4030
  483MOL0     H65155   1.217   9.728   1.194  0.0891  0.5396  2.1364
  483MOL0     H65156   1.351   9.801   1.403  1.1407  0.0680 -1.4780
  483MOL0     H65157   1.482   9.787   1.626 -0.2995 -0.7289 -0.2322
  483MOL0     H65158   1.538   9.633   1.686 -0.7967  0.5584  0.5811
  483MOL0     H65159   1.719   9.797   1.672  0.2112  2.5658 -0.6299
  483MOL0     H65160   1.760   9.660   1.565 -1.7313 -0.4871 -2.7771
  483MOL0     H65161   1.623   9.910   1.451  0.9577  0.6225 -0.5785
  483MOL0     H65162   1.688   9.776   1.371  0.4296  1.2343 -0.7539
  483MOL0     H65163   1.821   9.978   1.362  0.7163  1.3651  0.8288
  483MOL0     H65164   1.919   9.843   1.427  0.1815 -1.0564  0.9725
  483MOL0     H65165   2.055  10.052   1.382 -0.3801  0.4384  1.4900
  483MOL0     H65166   2.250  10.163   1.446 -0.2201 -3.0150 -0.8173
  483MOL0     H65167   2.580  10.301   1.746 -1.6187 -0.4967  1.6464
  483MOL0     H65168   2.763  10.433   1.789  0.6127  0.1164  0.1201
  483MOL0     H65169   2.708  10.889   1.914 -0.1250  1.3376  0.0172
  483MOL0     H65170   2.684  10.792   2.058  1.8154  1.8744  0.6890
  483MOL0     H65171   2.868  10.962   2.064  2.1144 -0.8299  2.6012
  483MOL0     H65172   2.904  10.804   2.129 -0.4642  1.3856  1.1775
  483MOL0     H65173   3.038  10.752   1.912 -0.8803  0.0667  1.3084
  483MOL0     H65174   2.978  10.904   1.843 -0.8146  0.6812  0.0820
  483MOL0     H65175   3.167  10.860   2.084  1.3292  0.2237 -0.2959
  483MOL0     H65176   3.104  11.009   2.042 -1.5368 -1.1866  0.2983
  483MOL0     H65177   3.218  11.006   1.816 -0.9332  0.1463  1.1567
  483MOL0     H65178   3.266  10.843   1.851  0.2651  0.6904 -1.5611
  483MOL0     H65179   3.343  11.121   1.981 -0.5984  0.5677 -0.5352
  483MOL0     H65180   3.364  10.962   2.068 -1.4944 -3.3108 -1.1072
  483MOL0     H65181   3.478  11.001   1.786  0.8621  1.3998  0.1148
  483MOL0     H65182   3.514  10.872   1.903 -0.8458 -0.0658  1.4462
  483MOL0     H65183   3.587  11.170   1.917 -1.1100 -0.3552  1.6980
  483MOL0     H65184   3.601  11.047   2.057 -0.4702  1.3405  0.4223
  483MOL0     H65185   2.497  10.746   1.941  1.3014 -1.8584  3.7032
  483MOL0     H65186   2.303  10.605   1.858 -0.4659  0.8345 -3.1856
  483MOL0     H65187   2.100  10.249   1.835 -0.9950 -0.6691  0.2057
  483MOL0     H65188   1.897  10.101   1.782 -0.2462 -1.8010 -0.6528
  483MOL0     H65189   0.215   9.350   1.237 -0.5579  0.2899 -0.5169
  483MOL0     H65190   0.010   9.197   1.251  0.5246 -0.8882  2.9166
  483MOL0     H65191  -0.085   8.587   1.311  1.7569  0.2476  0.2069
  483MOL0     H65192  -0.305   8.488   1.290  0.8153  0.2992  0.2863
  483MOL0     H65193  -0.683   8.745   1.215 -0.0230 -0.5425 -0.5337
  483MOL0     H65194  -0.634   8.756   1.392 -0.8369 -2.6528  2.3567
  483MOL0     H65195  -0.782   8.526   1.262  0.3162  1.0129  0.0597
  483MOL0     H65196  -0.874   8.645   1.341 -2.4505 -3.0254 -2.3701
  483MOL0     H65197  -0.710   8.600   1.548  1.6187 -1.4327  0.7953
  483MOL0     H65198  -0.661   8.457   1.456  0.6442  0.7000 -0.9758
  483MOL0     H65199  -0.960   8.513   1.517 -1.4633 -2.5454  0.6919
  483MOL0     H65200  -0.879   8.369   1.450 -3.8177  0.0375 -0.0124
  483MOL0     H65201  -0.853   8.300   1.867  2.6326 -2.5815 -0.6076
  483MOL0     H65202  -0.483   8.861   1.189  0.6940  1.0369 -0.2429
  483MOL0     H65203  -0.207   9.025   1.096 -1.0751  0.1743 -0.5459
  483MOL0     H65204  -0.371   9.033   1.128 -0.5250  1.4917  0.4151
  483MOL0     H65205  -0.246   9.055   1.266  2.4490 -2.0685  0.0588
  484MOL0     O65206   6.668   0.524   2.918  0.6530 -0.3677  1.0992
  484MOL0     C65207   6.637   0.633   2.875 -0.4423 -0.4465 -0.1669
  484MOL0     O65208   6.718   0.743   2.887  0.3294  0.4567  0.6093
  484MOL0     C65209   6.854   0.722   2.876  0.3376  0.1533  0.4094
  484MOL0     C65210   6.914   0.626   2.791 -0.1574  0.8421 -0.5274
  484MOL0     C65211   7.054   0.614   2.792 -0.4063 -0.0811  0.1101
  484MOL0     C65212   7.143   0.691   2.876  0.0783  0.0864  0.1826
  484MOL0     O65213   7.281   0.690   2.877  0.0805  0.0617  0.0870
  484MOL0     C65214   7.333   0.580   2.813 -0.8106  0.9519 -0.1499
  484MOL0     C65215   7.491   0.590   2.825 -0.9235 -0.0250  0.8540
  484MOL0     C65216   7.570   0.493   2.746 -0.7820 -0.1594  0.0904
  484MOL0     C65217   7.562   0.344   2.802  0.2967 -0.0756  0.6194
  484MOL0     C65218   7.678   0.257   2.756 -0.7535  0.3211  0.3258
  484MOL0     C65219   7.800   0.280   2.856 -0.0235  0.2486  0.8857
  484MOL0     C65220   7.933   0.287   2.763 -0.7735 -0.1200  0.1104
  484MOL0     C65221   7.952   0.429   2.706 -0.5131 -0.0829  0.0715
  484MOL0     N65222   8.094   0.443   2.675  0.4362  0.2248  0.0252
  484MOL0     C65223   8.158   0.385   2.565  0.9794  0.4441  0.3209
  484MOL0     C65224   8.281   0.424   2.574 -0.6695  0.9263  0.0629
  484MOL0     C65225   8.375   0.387   2.457 -0.5581  0.1045 -0.0263
  484MOL0     C65226   8.519   0.385   2.496 -0.4294  0.1580  0.0809
  484MOL0     C65227   8.612   0.340   2.383 -0.0995  0.3649  1.0314
  484MOL0     C65228   8.756   0.326   2.428 -0.6746 -0.2091  0.3973
  484MOL0     O65229   8.775   0.212   2.510 -0.1974  0.4508  0.1022
  484MOL0     C65230   8.903   0.196   2.554 -0.0846 -0.3342 -0.2244
  484MOL0     C65231   8.938   0.066   2.589 -0.2911  0.2291  0.4559
  484MOL0     C65232   9.072   0.033   2.627  0.0069 -0.0541 -0.2860
  484MOL0     C65233   9.171   0.133   2.632  0.2524 -0.6642  1.0275
  484MOL0     C65234   9.317   0.104   2.643 -0.1466 -0.7183 -0.7972
  484MOL0     O65235   9.415   0.204   2.639  0.3924 -0.1594 -0.0320
  484MOL0     C65236   9.549   0.169   2.635 -0.7091 -0.8687  0.1750
  484MOL0     C65237   9.608   0.095   2.738 -0.2905 -0.5596 -0.0445
  484MOL0     C65238   9.745   0.090   2.746 -0.0323  0.1965 -0.3237
  484MOL0     C65239   9.828   0.179   2.670  0.3593  0.7898  0.3187
  484MOL0     O65240   9.962   0.193   2.685 -0.1229  0.8231 -0.2019
  484MOL0     C65241  10.046   0.083   2.657 -0.3655  0.2411  0.1423
  484MOL0     C65242  10.181   0.136   2.618 -0.8382  0.6797  0.9737
  484MOL0     C65243  10.291   0.029   2.621 -0.5943  0.5154 -0.4946
  484MOL0     C65244  10.414   0.053   2.528  0.3998  0.0494 -0.2852
  484MOL0     C65245  10.517  -0.054   2.555 -0.1444  0.1956 -0.8258
  484MOL0     C65246  10.637  -0.018   2.468  0.4189  0.0190  0.0207
  484MOL0     C65247  10.772  -0.097   2.490  0.3118  0.0218  0.4714
  484MOL0     C65248  10.876  -0.041   2.397  0.2893 -0.7384 -0.1786
  484MOL0    Cl65249  11.023  -0.132   2.418  0.0530  0.1052 -0.4261
  484MOL0     C65250   9.767   0.250   2.565 -1.9727 -0.0469 -0.2403
  484MOL0     C65251   9.630   0.247   2.545  0.0082  0.4288  0.5552
  484MOL0     O65252   9.340  -0.011   2.654  0.4571  0.6248  0.0378
  484MOL0     C65253   9.128   0.267   2.619  0.7575 -1.0310  0.7453
  484MOL0     C65254   9.001   0.299   2.577  0.2660  0.6283  0.6591
  484MOL0     N65255   8.298   0.490   2.695  0.1016 -0.4456  0.9470
  484MOL0     N65256   8.184   0.506   2.746  0.3546  0.1251 -0.3984
  484MOL0     C65257   7.074   0.789   2.949  0.1247 -0.6534 -0.7670
  484MOL0     C65258   6.931   0.810   2.952  0.0309 -0.2628  0.1309
  484MOL0     C65259   6.499   0.658   2.835  0.0826  0.1221 -0.1630
  484MOL0     C65260   6.467   0.786   2.786 -0.1953  0.7566 -0.0011
  484MOL0     C65261   6.337   0.817   2.748  0.6335 -0.3760 -0.2648
  484MOL0     C65262   6.223   0.737   2.780 -0.2036 -0.2989 -0.2704
  484MOL0     O65263   6.096   0.783   2.724 -0.7373  0.8148 -0.9693
  484MOL0     C65264   5.989   0.691   2.751 -1.0893 -0.2850  0.0139
  484MOL0     C65265   5.853   0.749   2.719 -0.5854 -0.7610 -0.2052
  484MOL0     C65266   5.815   0.774   2.573  0.2257  0.1203 -0.0178
  484MOL0     C65267   5.676   0.846   2.561  0.1636 -0.2913 -0.5039
  484MOL0     C65268   5.563   0.787   2.630  0.4961 -0.9704  0.4137
  484MOL0     C65269   5.465   0.749   2.690 -0.2715 -0.5535  0.3130
  484MOL0     C65270   6.256   0.606   2.827 -0.1746  0.4016 -0.0087
  484MOL0     C65271   6.389   0.572   2.853  0.5981  0.5551 -0.1358
  484MOL0     C65272   6.400   0.429   2.915  0.3687 -0.9113 -0.0372
  484MOL0     H65273   6.854   0.565   2.724 -1.4576 -0.8653  1.9994
  484MOL0     H65274   7.088   0.546   2.714  1.4983  0.4007  0.4734
  484MOL0     H65275   7.305   0.493   2.873 -1.5275  1.6914  0.6120
  484MOL0     H65276   7.299   0.559   2.711 -0.2613 -0.6316 -0.0363
  484MOL0     H65277   7.512   0.571   2.931 -0.7456  2.5700  1.3453
  484MOL0     H65278   7.523   0.690   2.792 -0.4308 -0.8363 -1.2506
  484MOL0     H65279   7.674   0.526   2.751 -0.8633  0.2685 -0.9581
  484MOL0     H65280   7.537   0.493   2.642  2.2041 -1.5830 -0.9755
  484MOL0     H65281   7.558   0.340   2.911  0.6407 -2.3489  0.5974
  484MOL0     H65282   7.471   0.290   2.773  1.2958 -1.8493  0.6354
  484MOL0     H65283   7.652   0.151   2.767  1.9777 -0.2660  2.3186
  484MOL0     H65284   7.702   0.278   2.651  2.5002 -1.6471  0.5350
  484MOL0     H65285   7.786   0.367   2.920 -1.7473  1.6771 -1.2721
  484MOL0     H65286   7.820   0.201   2.928  3.8837 -0.2883 -0.5392
  484MOL0     H65287   7.914   0.215   2.683 -2.6132  0.8752 -0.4002
  484MOL0     H65288   8.017   0.260   2.828 -0.8478  0.5164  0.4774
  484MOL0     H65289   7.885   0.449   2.621 -0.1432  1.9244  0.1981
  484MOL0     H65290   7.927   0.498   2.787 -3.8111 -3.2874  2.0827
  484MOL0     H65291   8.099   0.343   2.484  1.3334  1.1942 -0.3459
  484MOL0     H65292   8.345   0.293   2.409  0.5140  0.9185 -2.4794
  484MOL0     H65293   8.364   0.461   2.377 -0.6007  1.0686  0.8500
  484MOL0     H65294   8.549   0.483   2.533  0.5350  0.1197 -0.5651
  484MOL0     H65295   8.530   0.314   2.579 -1.5762 -1.9396 -1.4654
  484MOL0     H65296   8.608   0.405   2.295 -0.6335 -1.2744 -0.2048
  484MOL0     H65297   8.573   0.244   2.349 -2.0441  0.6927  2.2245
  484MOL0     H65298   8.790   0.412   2.487  1.9642  0.0199 -1.2608
  484MOL0     H65299   8.818   0.321   2.337  2.0489  0.9635  2.0538
  484MOL0     H65300   8.863  -0.012   2.580 -2.0734  1.8099  0.8196
  484MOL0     H65301   9.100  -0.069   2.647  1.9590 -0.0381 -2.5344
  484MOL0     H65302   9.555   0.031   2.808  2.7744 -1.1855  1.9275
  484MOL0     H65303   9.790   0.027   2.821  0.8081  0.8123 -0.2889
  484MOL0     H65304  10.048   0.034   2.755 -1.0576 -0.5070 -0.2174
  484MOL0     H65305   9.999   0.029   2.575 -2.4228  1.6807  0.2972
  484MOL0     H65306  10.165   0.170   2.515 -1.8093  0.6441  1.1077
  484MOL0     H65307  10.213   0.221   2.680 -1.4852  0.4960  1.5706
  484MOL0     H65308  10.311   0.015   2.727  1.6644  2.2571 -0.6265
  484MOL0     H65309  10.244  -0.061   2.580  2.5821 -1.2891 -0.4865
  484MOL0     H65310  10.458   0.148   2.560 -1.2971  0.0823  2.2244
  484MOL0     H65311  10.391   0.053   2.421  2.6337  1.5687 -0.8285
  484MOL0     H65312  10.467  -0.150   2.538 -1.7479  0.8542 -0.0293
  484MOL0     H65313  10.554  -0.052   2.658  0.8827  0.5299 -1.1903
  484MOL0     H65314  10.606  -0.036   2.365  0.5121  0.3234 -0.0639
  484MOL0     H65315  10.660   0.087   2.492 -0.9077  0.3669 -0.1269
  484MOL0     H65316  10.747  -0.200   2.464 -0.9605  0.2764  0.6244
  484MOL0     H65317  10.804  -0.098   2.595 -1.7075 -0.4831  1.1303
  484MOL0     H65318  10.835  -0.051   2.296 -1.7358  2.8471  0.1127
  484MOL0     H65319  10.889   0.067   2.410  0.4224 -0.7888  0.1094
  484MOL0     H65320   9.829   0.317   2.504  0.3903  0.0980  2.1372
  484MOL0     H65321   9.575   0.294   2.464 -1.2363  0.1339  1.1965
  484MOL0     H65322   9.194   0.352   2.628 -3.0021  2.8027 -3.1433
  484MOL0     H65323   8.974   0.404   2.566  0.4416  0.6372  0.3080
  484MOL0     H65324   7.141   0.853   3.006  1.5489 -1.0102 -1.9903
  484MOL0     H65325   6.879   0.895   2.995 -3.2551 -1.5728 -0.9747
  484MOL0     H65326   6.554   0.852   2.791  1.2059 -1.0820  2.1534
  484MOL0     H65327   6.324   0.913   2.699 -0.8283 -0.9392 -1.0207
  484MOL0     H65328   5.990   0.648   2.851 -1.3053 -0.7676 -0.1882
  484MOL0     H65329   6.010   0.607   2.684 -0.6117 -1.5601  1.7084
  484MOL0     H65330   5.846   0.841   2.778 -0.6136 -1.4334  0.8695
  484MOL0     H65331   5.779   0.685   2.767  0.1833 -0.5310  1.3793
  484MOL0     H65332   5.816   0.683   2.513  1.7149 -1.4831  2.2448
  484MOL0     H65333   5.897   0.831   2.529  2.3120 -1.9705  0.9215
  484MOL0     H65334   5.684   0.953   2.583  2.8088 -0.1164 -1.9337
  484MOL0     H65335   5.646   0.842   2.456 -0.1813  2.0716 -0.5581
  484MOL0     H65336   5.376   0.714   2.738 -0.4629 -2.3529 -1.2138
  484MOL0     H65337   6.172   0.542   2.854  1.3276 -1.3977  0.5711
  484MOL0     H65338   6.302   0.400   2.954  0.0743  0.0718 -0.0219
  484MOL0     H65339   6.427   0.353   2.841  0.4046 -0.5509 -0.3928
  484MOL0     H65340   6.475   0.418   2.994  0.6771 -2.0101 -0.4654
  485MOL0     O65341   5.503   6.671   3.593  0.0851  0.3768 -0.1957
  485MOL0     C65342   5.467   6.699   3.476  0.2011 -0.4182 -0.2453
  485MOL0     O65343   5.560   6.747   3.384 -0.1032 -0.3645  0.1403
  485MOL0     C65344   5.686   6.791   3.420  0.1108 -0.5973  0.4033
  485MOL0     C65345   5.791   6.765   3.332  0.8545 -0.4390  0.8418
  485MOL0     C65346   5.924   6.791   3.359 -0.0491  0.4247  0.1075
  485MOL0     C65347   5.949   6.868   3.475  0.5308 -0.3036 -0.0454
  485MOL0     O65348   6.069   6.911   3.517 -1.1207 -0.1598 -0.1789
  485MOL0     C65349   6.174   6.904   3.416 -0.0936 -0.4951 -0.3181
  485MOL0     C65350   6.293   6.986   3.474 -0.4855  0.2344  0.0846
  485MOL0     C65351   6.424   6.983   3.387 -0.3220  0.0734  0.2599
  485MOL0     C65352   6.544   7.051   3.461  0.0736 -0.1485 -0.5289
  485MOL0     C65353   6.664   7.043   3.366  0.3613 -0.1987  0.5978
  485MOL0     C65354   6.793   7.120   3.409  0.4264 -0.5807  0.0780
  485MOL0     C65355   6.911   7.094   3.303  1.3331  0.3742 -0.3478
  485MOL0     C65356   7.016   7.196   3.320  0.4979  0.1909 -0.3580
  485MOL0     N65357   7.119   7.183   3.220  0.2030 -0.9863 -0.4227
  485MOL0     C65358   7.125   7.237   3.093  0.9676 -0.4589 -0.0324
  485MOL0     C65359   7.253   7.207   3.050  0.4280 -0.4404 -0.1003
  485MOL0     C65360   7.308   7.262   2.923 -1.0950 -0.5793  0.7935
  485MOL0     C65361   7.391   7.393   2.948  0.6880 -0.4510  0.2996
  485MOL0     C65362   7.520   7.369   3.028 -0.5101  0.2922  0.3657
  485MOL0     C65363   7.627   7.275   2.971 -0.0907 -0.0608 -0.6053
  485MOL0     O65364   7.744   7.352   2.943 -0.0030 -0.6351  0.3089
  485MOL0     C65365   7.857   7.274   2.929  0.0177  0.5170 -0.1583
  485MOL0     C65366   7.868   7.186   2.819  0.5516  0.2485 -0.3164
  485MOL0     C65367   7.985   7.110   2.799  0.0625  1.2334 -0.8869
  485MOL0     C65368   8.101   7.141   2.864 -0.4746 -0.2295  0.6915
  485MOL0     C65369   8.227   7.076   2.833 -0.7999  0.0001 -1.0151
  485MOL0     O65370   8.227   6.980   2.731  0.0443 -0.5396  0.1108
  485MOL0     C65371   8.337   6.921   2.689 -1.4982  0.3785 -0.8374
  485MOL0     C65372   8.336   6.785   2.655  0.1325 -0.2024  0.7439
  485MOL0     C65373   8.456   6.720   2.624 -0.2547 -0.1139  0.4766
  485MOL0     C65374   8.584   6.787   2.624 -0.0643  0.1142  0.7838
  485MOL0     O65375   8.700   6.713   2.591 -0.6610  0.0979 -0.1211
  485MOL0     C65376   8.809   6.796   2.543 -0.9172  0.2979 -0.0852
  485MOL0     C65377   8.918   6.702   2.483 -0.1979  0.9512  0.0939
  485MOL0     C65378   9.043   6.785   2.456  0.3293 -0.1762  0.0669
  485MOL0     C65379   9.044   6.821   2.306 -0.0497  0.7052  0.0804
  485MOL0     C65380   9.189   6.865   2.260  0.3394 -0.0028  0.8510
  485MOL0     C65381   9.178   6.905   2.112  0.0887  0.6615 -0.3764
  485MOL0     C65382   9.309   6.898   2.034  0.0727  0.3198 -0.0326
  485MOL0     C65383   9.402   7.010   2.084  0.2258 -0.3735 -0.0251
  485MOL0    Cl65384   9.504   6.934   2.201 -0.1898  0.3296  0.1098
  485MOL0     C65385   8.585   6.924   2.659 -0.1651 -0.3096 -0.0845
  485MOL0     C65386   8.466   6.989   2.696  0.8201 -0.4592  0.8161
  485MOL0     O65387   8.318   7.096   2.917 -0.5388 -0.7326  0.7628
  485MOL0     C65388   8.090   7.233   2.980 -0.4450  0.6104 -0.1892
  485MOL0     C65389   7.973   7.302   3.007  0.4994  0.1418  0.3505
  485MOL0     N65390   7.310   7.127   3.147 -0.7395 -0.1687  0.5599
  485MOL0     N65391   7.229   7.115   3.246  0.9055 -0.0631  0.4249
  485MOL0     C65392   5.842   6.914   3.551  0.1543 -0.4908  0.1504
  485MOL0     C65393   5.712   6.876   3.526  0.1082 -0.6476  0.6324
  485MOL0     C65394   5.324   6.663   3.439 -1.2697  0.2452 -0.3794
  485MOL0     C65395   5.295   6.643   3.305  0.6432  0.4310  1.1253
  485MOL0     C65396   5.162   6.637   3.261  0.4832  0.4898  1.1210
  485MOL0     C65397   5.051   6.644   3.348  1.0585 -0.3021 -0.3473
  485MOL0     O65398   4.918   6.648   3.317  0.3000 -0.5064 -0.4571
  485MOL0     C65399   4.899   6.664   3.175  0.5445 -0.4430  0.4884
  485MOL0     C65400   4.745   6.650   3.160  0.0333  0.0008  0.3943
  485MOL0     C65401   4.714   6.681   3.011  0.3094 -0.7266  0.1556
  485MOL0     C65402   4.575   6.635   2.969  0.0029  0.4455 -0.2118
  485MOL0     C65403   4.556   6.644   2.823  1.0826  0.5924  0.1186
  485MOL0     C65404   4.547   6.645   2.702 -0.6636  0.2720  0.0738
  485MOL0     C65405   5.084   6.660   3.480  0.2577 -0.3049  0.1788
  485MOL0     C65406   5.214   6.670   3.531 -1.8207  0.4325  0.9003
  485MOL0     C65407   5.230   6.671   3.680 -0.1864  0.6197  0.4027
  485MOL0     H65408   5.778   6.710   3.240 -1.8562  0.9846  0.2876
  485MOL0     H65409   6.001   6.748   3.296 -1.6244 -3.3410  0.5324
  485MOL0     H65410   6.207   6.800   3.411  1.2808 -0.3292  3.0070
  485MOL0     H65411   6.140   6.938   3.317 -0.1965  4.5121  1.1712
  485MOL0     H65412   6.316   6.938   3.569 -1.0279 -1.5539 -0.6396
  485MOL0     H65413   6.255   7.085   3.496 -0.7192  0.5966 -1.7736
  485MOL0     H65414   6.410   7.046   3.299  0.5523  0.7379  0.5815
  485MOL0     H65415   6.450   6.880   3.358  0.7558  0.2104  0.6988
  485MOL0     H65416   6.518   7.154   3.485 -3.3582 -0.3431 -2.6586
  485MOL0     H65417   6.569   6.991   3.549 -0.2346  0.1224 -0.2601
  485MOL0     H65418   6.691   6.939   3.349  1.6600  0.2703 -0.4339
  485MOL0     H65419   6.632   7.066   3.265  1.7321  0.4862  0.2933
  485MOL0     H65420   6.780   7.228   3.419  0.4544 -0.4141 -1.4604
  485MOL0     H65421   6.827   7.082   3.506 -1.6072 -2.2122  0.2127
  485MOL0     H65422   6.870   7.088   3.201  0.7086  2.6419 -0.2768
  485MOL0     H65423   6.955   6.996   3.323  2.4191  1.3505  2.4538
  485MOL0     H65424   6.967   7.294   3.316 -0.5329 -0.2824  0.2107
  485MOL0     H65425   7.064   7.186   3.418  1.3892 -0.0189 -0.8090
  485MOL0     H65426   7.047   7.298   3.048  1.0708 -1.2679 -1.3371
  485MOL0     H65427   7.362   7.188   2.864 -0.7334  0.1958  0.1394
  485MOL0     H65428   7.229   7.294   2.854  0.0502  1.2809  0.2617
  485MOL0     H65429   7.414   7.452   2.859  2.9930  2.1382  2.4099
  485MOL0     H65430   7.330   7.461   3.009  2.2971 -0.0458  1.5475
  485MOL0     H65431   7.496   7.335   3.130  0.5662  4.0276  2.0519
  485MOL0     H65432   7.566   7.468   3.042 -2.4451  1.4371 -0.8851
  485MOL0     H65433   7.598   7.217   2.882  5.1969 -4.1661 -0.1405
  485MOL0     H65434   7.650   7.198   3.045 -3.6116 -1.1744 -0.4470
  485MOL0     H65435   7.780   7.169   2.757  1.4537 -1.0883 -1.2986
  485MOL0     H65436   8.000   7.047   2.712 -1.9197 -1.4197  0.5136
  485MOL0     H65437   8.240   6.735   2.648 -0.0637  0.4208 -1.8927
  485MOL0     H65438   8.449   6.619   2.586 -0.9814 -0.8727  2.4848
  485MOL0     H65439   8.774   6.861   2.464  0.1752  0.9738 -0.0376
  485MOL0     H65440   8.861   6.846   2.625 -1.5280 -2.0637  1.8805
  485MOL0     H65441   8.952   6.616   2.542 -0.7426 -0.4653 -1.5725
  485MOL0     H65442   8.875   6.659   2.392 -0.4972  0.6740  0.3608
  485MOL0     H65443   9.039   6.876   2.517 -0.0145  0.1929 -0.4980
  485MOL0     H65444   9.134   6.732   2.484  0.3588  0.4531  1.2410
  485MOL0     H65445   8.965   6.896   2.292 -2.1760 -1.0814  1.7960
  485MOL0     H65446   9.020   6.733   2.247  1.4550  0.0795  0.3540
  485MOL0     H65447   9.255   6.778   2.260  1.3673  0.7283 -0.6985
  485MOL0     H65448   9.222   6.955   2.314  0.6576 -0.5269  1.5339
  485MOL0     H65449   9.127   6.820   2.065 -0.3321  0.7194 -0.0379
  485MOL0     H65450   9.115   6.994   2.105 -2.4373 -0.7390  2.2375
  485MOL0     H65451   9.288   6.924   1.929 -1.5197  3.9307  1.0104
  485MOL0     H65452   9.353   6.798   2.034 -0.7614 -0.0561 -0.5905
  485MOL0     H65453   9.474   7.047   2.010  1.7787 -1.4047  0.9049
  485MOL0     H65454   9.357   7.092   2.140  1.8225  0.6253 -0.1469
  485MOL0     H65455   8.670   6.990   2.649  1.3481 -2.4568 -5.9092
  485MOL0     H65456   8.464   7.095   2.720 -1.4948 -0.9324  3.1653
  485MOL0     H65457   8.172   7.248   3.050 -0.4933 -0.0053  0.0066
  485MOL0     H65458   7.971   7.367   3.094  0.0056  1.0394 -0.3076
  485MOL0     H65459   5.859   6.964   3.646  2.1953 -1.5255  0.3913
  485MOL0     H65460   5.632   6.914   3.589  0.0476 -0.2168  0.2963
  485MOL0     H65461   5.379   6.645   3.237  0.4891 -0.5110  0.8904
  485MOL0     H65462   5.164   6.646   3.153  3.5607  0.1671  1.0761
  485MOL0     H65463   4.963   6.591   3.124  0.7287 -3.3693  4.3550
  485MOL0     H65464   4.936   6.761   3.142  2.6840 -1.0244  0.9979
  485MOL0     H65465   4.690   6.705   3.236 -0.1153 -1.4326  1.3534
  485MOL0     H65466   4.723   6.544   3.175  1.9830 -0.1613  2.5852
  485MOL0     H65467   4.791   6.634   2.950 -0.9413  0.4766 -2.5142
  485MOL0     H65468   4.722   6.788   2.994 -1.4478 -0.6253 -0.2307
  485MOL0     H65469   4.542   6.535   2.998  1.2068 -0.4142 -1.6560
  485MOL0     H65470   4.497   6.692   3.019 -0.2121  0.0917 -0.1427
  485MOL0     H65471   4.538   6.633   2.596 -4.1910 -1.3787  0.3806
  485MOL0     H65472   4.993   6.657   3.539 -0.3519 -1.2095 -0.7795
  485MOL0     H65473   5.250   6.569   3.717 -0.3573  0.7734  0.9230
  485MOL0     H65474   5.301   6.744   3.720 -0.9231  1.3275  0.4230
  485MOL0     H65475   5.138   6.702   3.729 -0.5771 -2.6612  2.0255
  486MOL0     O65476  10.761  10.814   0.042 -0.0155  0.3207  0.8107
  486MOL0     C65477  10.743  10.940   0.053 -1.0698  0.5267 -0.2881
  486MOL0     O65478  10.838  11.035   0.062 -0.0731  0.5019  0.6804
  486MOL0     C65479  10.970  11.014   0.022 -1.1263  0.1103  0.2388
  486MOL0     C65480  10.985  11.020  -0.114  0.2311 -0.3148 -0.8472
  486MOL0     C65481  11.111  11.023  -0.176 -0.1712 -0.7601  0.5665
  486MOL0     C65482  11.229  11.013  -0.105 -0.1706  0.7200 -0.1690
  486MOL0     O65483  11.347  11.022  -0.173  0.3900 -0.1402  0.4554
  486MOL0     C65484  11.474  10.984  -0.121 -0.1408 -0.0011 -0.0171
  486MOL0     C65485  11.486  10.833  -0.078 -0.8988  0.0219 -0.4471
  486MOL0     C65486  11.614  10.799   0.000  0.5156 -0.5688  0.2463
  486MOL0     C65487  11.734  10.850  -0.065 -0.4828  0.5695 -0.3625
  486MOL0     C65488  11.860  10.777  -0.006  0.4257 -0.2139 -0.1429
  486MOL0     C65489  11.971  10.878  -0.015 -0.6873 -0.4661  0.0558
  486MOL0     C65490  12.110  10.827   0.023 -0.5557 -0.1211  0.1880
  486MOL0     C65491  12.172  10.739  -0.072  0.5780 -0.3313  0.1139
  486MOL0     N65492  12.320  10.730  -0.056  0.5584  0.2233 -0.5561
  486MOL0     C65493  12.403  10.750  -0.165 -0.3442 -0.6971 -1.1255
  486MOL0     C65494  12.525  10.780  -0.112  0.5819  0.4552 -0.1943
  486MOL0     C65495  12.652  10.814  -0.181 -0.4412 -0.2503 -0.0640
  486MOL0     C65496  12.745  10.702  -0.157  0.3262 -0.2654 -0.1271
  486MOL0     C65497  12.874  10.701  -0.243 -0.3892 -0.2465 -0.3652
  486MOL0     C65498  12.991  10.627  -0.185  0.0184 -0.2898 -0.4925
  486MOL0     O65499  13.111  10.640  -0.257 -0.1755  0.0952  0.0603
  486MOL0     C65500  13.228  10.633  -0.194  0.6365 -0.2858  0.7212
  486MOL0     C65501  13.252  10.567  -0.073  0.3727 -0.3658  0.1332
  486MOL0     C65502  13.382  10.552  -0.024  0.0544 -0.9122  0.2983
  486MOL0     C65503  13.489  10.614  -0.098  0.0022 -0.9561 -0.0836
  486MOL0     C65504  13.630  10.601  -0.050  0.2802  0.0593 -0.2305
  486MOL0     O65505  13.646  10.601   0.089  0.4733 -0.4559  0.3369
  486MOL0     C65506  13.765  10.567   0.148 -0.4450 -1.0350  0.9752
  486MOL0     C65507  13.860  10.663   0.196 -0.1714 -0.3451  0.8030
  486MOL0     C65508  13.973  10.621   0.266  0.5635 -1.2692  0.1424
  486MOL0     C65509  13.992  10.486   0.291 -0.4112  0.2350  0.3846
  486MOL0     O65510  14.108  10.455   0.355 -0.0868  0.3853 -0.1455
  486MOL0     C65511  14.156  10.319   0.362 -0.0973  0.5676  0.6616
  486MOL0     C65512  14.311  10.316   0.384 -0.1421  0.1012  0.1395
  486MOL0     C65513  14.365  10.165   0.384 -0.4485  0.0644  0.7215
  486MOL0     C65514  14.518  10.161   0.399 -0.6781 -0.1456  0.4038
  486MOL0     C65515  14.585  10.018   0.384  0.1645  0.0078 -0.3645
  486MOL0     C65516  14.737  10.008   0.433  0.5612  0.3830 -0.3668
  486MOL0     C65517  14.780   9.867   0.423  0.1439 -0.3013  0.1341
  486MOL0     C65518  14.925   9.863   0.486  1.0007 -0.0950  0.4385
  486MOL0    Cl65519  15.050   9.959   0.406  0.3800  0.3238 -0.0824
  486MOL0     C65520  13.894  10.395   0.260 -0.3220 -0.4911  0.3593
  486MOL0     C65521  13.784  10.435   0.183 -0.1962 -0.3230 -0.6076
  486MOL0     O65522  13.728  10.603  -0.129  0.0770 -0.0601 -0.2106
  486MOL0     C65523  13.461  10.684  -0.219  0.2782  1.0115  0.1847
  486MOL0     C65524  13.329  10.703  -0.256 -0.4707  0.3069  0.8016
  486MOL0     N65525  12.507  10.768   0.030  0.3046 -0.0199  0.3771
  486MOL0     N65526  12.383  10.738   0.064 -0.2598  0.7517  0.7252
  486MOL0     C65527  11.209  11.002   0.037 -0.0907  0.1266 -0.0937
  486MOL0     C65528  11.082  11.002   0.102 -0.0700  0.6733  0.0693
  486MOL0     C65529  10.612  10.990   0.043 -0.3587  0.3614  0.4648
  486MOL0     C65530  10.589  11.078  -0.063 -0.7970  0.0735 -0.4599
  486MOL0     C65531  10.474  11.138  -0.092 -0.3138 -0.1092 -0.2378
  486MOL0     C65532  10.362  11.095  -0.020 -0.3278 -0.4079  0.4773
  486MOL0     O65533  10.244  11.160  -0.065 -0.7382  0.4832 -0.2515
  486MOL0     C65534  10.125  11.143   0.012  0.0843  0.2684 -0.8615
  486MOL0     C65535  10.000  11.193  -0.058  0.1978 -0.0881  0.2018
  486MOL0     C65536   9.972  11.121  -0.183  0.6876  0.7230 -0.0439
  486MOL0     C65537   9.821  11.121  -0.208  0.7052  0.3247  0.6055
  486MOL0     C65538   9.782  11.246  -0.270 -0.0454 -0.0522  0.1924
  486MOL0     C65539   9.753  11.363  -0.297  0.0757  0.3575  0.2564
  486MOL0     C65540  10.380  10.996   0.079  0.2391 -0.3004  0.2597
  486MOL0     C65541  10.501  10.941   0.118 -0.4331  0.9873 -0.2698
  486MOL0     C65542  10.509  10.846   0.230  0.2121 -0.2243  0.6214
  486MOL0     H65543  10.892  11.036  -0.167  0.2349  1.0389 -0.4847
  486MOL0     H65544  11.118  11.043  -0.282 -0.6271 -1.2959  0.4344
  486MOL0     H65545  11.547  11.002  -0.201  0.4191  1.6350  0.8249
  486MOL0     H65546  11.505  11.049  -0.040 -0.7709  2.3858 -1.5936
  486MOL0     H65547  11.491  10.762  -0.162  1.2755  0.6852 -0.9512
  486MOL0     H65548  11.404  10.813  -0.009  0.6745  0.1701  1.5667
  486MOL0     H65549  11.618  10.690   0.015  0.1409 -0.5074  0.8262
  486MOL0     H65550  11.601  10.859   0.091  1.2711  0.2706 -0.1884
  486MOL0     H65551  11.727  10.840  -0.174 -0.9192 -2.6307 -0.1470
  486MOL0     H65552  11.747  10.951  -0.027  1.6696 -0.4799  2.0528
  486MOL0     H65553  11.842  10.737   0.094 -0.7720  1.1270  0.2104
  486MOL0     H65554  11.877  10.690  -0.070 -1.9262 -0.7225 -0.1664
  486MOL0     H65555  11.974  10.925  -0.114 -0.7107  3.5368  1.7626
  486MOL0     H65556  11.950  10.969   0.042 -1.5795 -0.6446  0.0375
  486MOL0     H65557  12.102  10.774   0.119 -0.0491  0.8891  0.8098
  486MOL0     H65558  12.186  10.903   0.043  0.1181 -0.4351 -1.0956
  486MOL0     H65559  12.124  10.642  -0.059 -0.6849  0.1041 -0.9986
  486MOL0     H65560  12.151  10.769  -0.175  1.7579 -1.6949 -0.5617
  486MOL0     H65561  12.367  10.740  -0.267  0.1109 -2.9792 -1.1076
  486MOL0     H65562  12.636  10.824  -0.289  2.5157 -1.7128 -0.7453
  486MOL0     H65563  12.671  10.915  -0.143 -1.0354 -0.4893  0.9063
  486MOL0     H65564  12.776  10.695  -0.052  0.5446  0.5676 -0.1279
  486MOL0     H65565  12.689  10.609  -0.173 -0.8999  0.6532 -1.4466
  486MOL0     H65566  12.912  10.802  -0.256  2.0255 -1.1552 -0.8697
  486MOL0     H65567  12.849  10.669  -0.345  2.0692  2.2969 -1.8945
  486MOL0     H65568  12.963  10.521  -0.186  3.1506 -1.2184  0.0154
  486MOL0     H65569  13.004  10.674  -0.087 -2.1323  0.2955 -0.4257
  486MOL0     H65570  13.173  10.530  -0.008  0.5089 -0.5957  0.1701
  486MOL0     H65571  13.398  10.512   0.075  3.7626  1.5174  0.9167
  486MOL0     H65572  13.838  10.769   0.198 -1.4335 -0.5884  0.8590
  486MOL0     H65573  14.037  10.702   0.300 -1.6890 -0.5503  2.9849
  486MOL0     H65574  14.103  10.261   0.438 -1.2558 -0.3900 -0.8215
  486MOL0     H65575  14.132  10.270   0.268  2.8521 -0.0501  0.1460
  486MOL0     H65576  14.353  10.364   0.295  0.1164 -0.1576  0.1193
  486MOL0     H65577  14.338  10.369   0.475 -0.7997 -0.5122  0.7056
  486MOL0     H65578  14.329  10.119   0.476 -2.7612  3.1300  1.5490
  486MOL0     H65579  14.329  10.128   0.288  0.4142 -0.8061  0.7195
  486MOL0     H65580  14.556  10.207   0.491  1.0047 -0.1665 -0.2372
  486MOL0     H65581  14.560  10.224   0.320 -2.8898  3.7974  2.1082
  486MOL0     H65582  14.572   9.984   0.281 -1.8845  1.4851 -0.6712
  486MOL0     H65583  14.521   9.950   0.441 -0.8758 -2.4060 -4.0720
  486MOL0     H65584  14.798  10.069   0.366 -1.3681 -0.9887 -3.6253
  486MOL0     H65585  14.742  10.042   0.537 -2.0437 -0.0908 -0.0081
  486MOL0     H65586  14.787   9.832   0.320  0.8129  0.2124 -0.0014
  486MOL0     H65587  14.704   9.804   0.470 -0.2650 -1.4815 -1.9999
  486MOL0     H65588  14.908   9.892   0.590 -0.1527  1.4936 -0.1673
  486MOL0     H65589  14.959   9.759   0.480  1.1305  0.0204 -1.7446
  486MOL0     H65590  13.899  10.289   0.283 -1.7621 -0.8101 -0.6430
  486MOL0     H65591  13.701  10.366   0.185  0.5382 -1.2035  0.5578
  486MOL0     H65592  13.542  10.724  -0.279  2.4505 -3.3189 -0.1690
  486MOL0     H65593  13.311  10.759  -0.347  1.3878  0.3259  0.4134
  486MOL0     H65594  11.298  11.002   0.100  0.5007  1.8571 -0.8696
  486MOL0     H65595  11.060  10.990   0.207 -0.2750 -2.1314 -0.2156
  486MOL0     H65596  10.676  11.100  -0.124  0.5085 -1.8059  0.6163
  486MOL0     H65597  10.470  11.217  -0.166 -3.4124  0.1131  0.0135
  486MOL0     H65598  10.132  11.185   0.112  2.1456 -1.5176 -0.1901
  486MOL0     H65599  10.114  11.035   0.026 -0.8797  0.1404 -2.3648
  486MOL0     H65600  10.007  11.301  -0.074 -1.3875  0.6360  3.6286
  486MOL0     H65601   9.917  11.185   0.012 -0.2933  1.7556 -0.0974
  486MOL0     H65602  10.002  11.016  -0.176 -2.8443 -0.3156  1.7549
  486MOL0     H65603  10.020  11.165  -0.271 -1.5689 -0.9751 -2.2929
  486MOL0     H65604   9.813  11.039  -0.281  0.4937 -0.0910  1.0900
  486MOL0     H65605   9.758  11.093  -0.124 -2.6706 -1.1510 -2.1690
  486MOL0     H65606   9.725  11.462  -0.324 -0.3617 -0.2310 -1.5801
  486MOL0     H65607  10.299  10.965   0.144  0.0523  1.6991  1.0707
  486MOL0     H65608  10.566  10.756   0.208  3.8678  1.9530  0.3813
  486MOL0     H65609  10.567  10.893   0.309  0.7554 -0.1266  0.1686
  486MOL0     H65610  10.414  10.811   0.272  0.9899 -1.2945  1.5164
  487MOL0     O65611   6.311   0.328   0.210  0.0793  0.0790 -0.3023
  487MOL0     C65612   6.292   0.305   0.329 -0.2357  0.1338  0.1999
  487MOL0     O65613   6.383   0.257   0.418 -0.5399 -0.0814 -0.1041
  487MOL0     C65614   6.512   0.226   0.385 -0.2097  0.6488 -0.7864
  487MOL0     C65615   6.583   0.230   0.261  0.9129 -0.2479 -0.1332
  487MOL0     C65616   6.721   0.215   0.251 -0.0265  0.5500  1.1236
  487MOL0     C65617   6.797   0.193   0.367 -0.0251  0.1498  0.8618
  487MOL0     O65618   6.935   0.177   0.353 -0.1774  0.4260 -0.1160
  487MOL0     C65619   7.008   0.226   0.240  0.2263 -0.1393 -0.3509
  487MOL0     C65620   7.153   0.248   0.269  1.0305 -0.5158 -0.1820
  487MOL0     C65621   7.224   0.337   0.164  0.0774 -0.1121 -0.2065
  487MOL0     C65622   7.368   0.333   0.207  0.4843  0.0697 -0.0063
  487MOL0     C65623   7.444   0.363   0.083 -1.1653  0.0645 -0.7366
  487MOL0     C65624   7.596   0.336   0.116 -0.1450 -0.2142  0.4191
  487MOL0     C65625   7.680   0.380   0.002 -0.0325  0.6367  0.4478
  487MOL0     C65626   7.821   0.335   0.016 -0.2470 -0.7814  0.3969
  487MOL0     N65627   7.894   0.377  -0.106  0.2474  0.2461 -0.6864
  487MOL0     C65628   7.905   0.306  -0.225 -1.0812  0.0153 -0.1951
  487MOL0     C65629   7.991   0.390  -0.298  0.8907 -0.5859 -0.0181
  487MOL0     C65630   8.023   0.344  -0.440 -0.2686 -0.2015  0.4449
  487MOL0     C65631   8.150   0.411  -0.503  0.5477  0.0759  0.2471
  487MOL0     C65632   8.288   0.385  -0.440 -0.4827 -0.0623  0.1237
  487MOL0     C65633   8.397   0.430  -0.533 -0.2777  0.2805  0.1963
  487MOL0     O65634   8.522   0.426  -0.457 -0.1140  0.0199  1.1861
  487MOL0     C65635   8.632   0.499  -0.512  0.0216  0.1734  0.0222
  487MOL0     C65636   8.637   0.559  -0.642 -0.9462 -0.2748 -0.1543
  487MOL0     C65637   8.747   0.641  -0.672 -0.7514 -0.2145 -0.1581
  487MOL0     C65638   8.856   0.650  -0.584 -0.2082 -0.5094 -0.4265
  487MOL0     C65639   8.976   0.732  -0.612 -0.0947  0.6609 -0.4512
  487MOL0     O65640   8.969   0.794  -0.729  0.3705  0.4455 -0.4426
  487MOL0     C65641   9.083   0.858  -0.777  0.5398  0.1559  0.0960
  487MOL0     C65642   9.210   0.797  -0.772  0.0253 -0.9501 -0.9431
  487MOL0     C65643   9.315   0.860  -0.844  0.3625  0.2505 -0.1182
  487MOL0     C65644   9.302   0.974  -0.922 -0.3870  0.1902  0.3446
  487MOL0     O65645   9.410   1.029  -0.978  1.0121  0.1801  0.2222
  487MOL0     C65646   9.401   1.163  -1.024 -0.0675  0.4807 -0.2350
  487MOL0     C65647   9.536   1.213  -1.075  0.8553 -0.0570 -0.1489
  487MOL0     C65648   9.650   1.183  -0.980  0.1979  1.1468 -0.7472
  487MOL0     C65649   9.784   1.235  -1.048 -0.4058  0.0824 -1.3353
  487MOL0     C65650   9.778   1.393  -1.069 -0.4334 -0.1728 -0.2123
  487MOL0     C65651   9.919   1.459  -1.071  0.1080 -0.5837 -0.6417
  487MOL0     C65652  10.005   1.413  -1.186 -0.1651 -0.7535  0.3198
  487MOL0     C65653  10.136   1.478  -1.196 -0.1329  0.4019 -0.5823
  487MOL0    Cl65654  10.216   1.484  -1.034  0.5596 -0.0735 -0.1972
  487MOL0     C65655   9.172   1.030  -0.931 -0.6028  0.3154  0.5945
  487MOL0     C65656   9.062   0.977  -0.855 -0.2799 -0.0672 -0.6590
  487MOL0     O65657   9.068   0.745  -0.532  0.0419 -0.3169  0.0286
  487MOL0     C65658   8.838   0.593  -0.459  0.0530 -1.0211 -0.4654
  487MOL0     C65659   8.732   0.515  -0.422 -0.3782  0.6091  0.0426
  487MOL0     N65660   8.039   0.495  -0.221 -0.2361 -0.6175 -0.0134
  487MOL0     N65661   7.979   0.484  -0.103 -0.0406 -0.1358 -0.4715
  487MOL0     C65662   6.725   0.169   0.491 -0.1612  0.4016  0.7282
  487MOL0     C65663   6.592   0.185   0.496  0.9111 -0.5317  0.2709
  487MOL0     C65664   6.151   0.318   0.368  0.1417  0.3809 -0.0223
  487MOL0     C65665   6.056   0.346   0.268  0.6268 -0.1557 -0.3050
  487MOL0     C65666   5.922   0.368   0.303  0.0064  0.1710  0.4075
  487MOL0     C65667   5.875   0.351   0.435 -0.1424  0.2906 -0.3192
  487MOL0     O65668   5.749   0.389   0.478  0.9081  0.2977  0.0222
  487MOL0     C65669   5.668   0.494   0.410 -0.7135  0.1328 -1.8157
  487MOL0     C65670   5.614   0.601   0.513  0.0666 -1.0081  0.8471
  487MOL0     C65671   5.726   0.659   0.601 -0.7927 -0.8320  0.0521
  487MOL0     C65672   5.672   0.709   0.735  0.4650  0.1476  0.6462
  487MOL0     C65673   5.556   0.794   0.710 -0.4251  0.5437 -1.4524
  487MOL0     C65674   5.457   0.865   0.700 -0.3248 -0.3758 -0.0379
  487MOL0     C65675   5.967   0.323   0.541  0.0852  0.4189  0.0536
  487MOL0     C65676   6.097   0.306   0.499 -0.4327 -0.4625 -0.2004
  487MOL0     C65677   6.177   0.270   0.619 -0.1422  0.1604 -0.1100
  487MOL0     H65678   6.526   0.256   0.172 -5.4876 -0.8772  3.2717
  487MOL0     H65679   6.759   0.233   0.151 -0.5256 -1.2668  0.5756
  487MOL0     H65680   6.990   0.163   0.152 -0.7783 -0.6447  0.1975
  487MOL0     H65681   6.962   0.322   0.214 -0.8908 -0.3789  0.6357
  487MOL0     H65682   7.199   0.150   0.283 -0.2966 -0.9295  1.6904
  487MOL0     H65683   7.152   0.295   0.368 -0.2879 -0.1527 -0.3435
  487MOL0     H65684   7.201   0.441   0.189  2.0799  0.1567  0.6917
  487MOL0     H65685   7.197   0.313   0.060 -1.9249  0.9089  0.0138
  487MOL0     H65686   7.399   0.399   0.289  1.0698 -1.9119  1.4283
  487MOL0     H65687   7.394   0.231   0.237 -1.3805 -0.8326 -1.2238
  487MOL0     H65688   7.409   0.301  -0.000 -1.4594  0.2508 -0.7528
  487MOL0     H65689   7.427   0.469   0.060  1.8842  1.1122  1.1895
  487MOL0     H65690   7.613   0.397   0.205 -1.2831  0.9940 -0.1782
  487MOL0     H65691   7.613   0.229   0.136 -0.1242 -0.1410  0.8108
  487MOL0     H65692   7.670   0.489   0.004  2.1563  0.8818  0.6379
  487MOL0     H65693   7.636   0.331  -0.085 -0.2313 -0.2203  1.0176
  487MOL0     H65694   7.870   0.381   0.102 -0.7150 -0.5274  0.5270
  487MOL0     H65695   7.832   0.226   0.028  0.9544 -0.5126  2.2171
  487MOL0     H65696   7.861   0.210  -0.252 -0.1292  0.2671 -2.9635
  487MOL0     H65697   8.030   0.236  -0.423 -0.5868 -0.1176  1.1663
  487MOL0     H65698   7.938   0.368  -0.504  1.3205  0.4945 -1.5231
  487MOL0     H65699   8.147   0.375  -0.606  3.1284 -1.7049  0.6900
  487MOL0     H65700   8.131   0.519  -0.506 -0.3006 -0.0397  1.2904
  487MOL0     H65701   8.309   0.279  -0.422 -1.5025 -0.1183  1.0534
  487MOL0     H65702   8.292   0.451  -0.353  1.0608  0.3137 -0.1964
  487MOL0     H65703   8.376   0.530  -0.572 -0.4005 -0.4003 -1.5811
  487MOL0     H65704   8.406   0.349  -0.605  1.0810 -1.5547  2.3096
  487MOL0     H65705   8.547   0.547  -0.701 -1.4463  1.0775  0.3079
  487MOL0     H65706   8.750   0.676  -0.775  0.1563 -0.5810 -0.2568
  487MOL0     H65707   9.245   0.718  -0.708 -0.6892  0.5241  1.3832
  487MOL0     H65708   9.415   0.819  -0.832  0.7779  1.4048  0.4757
  487MOL0     H65709   9.341   1.157  -1.115  0.7327  0.2088 -0.7575
  487MOL0     H65710   9.356   1.233  -0.953 -3.4841 -0.2695 -1.4736
  487MOL0     H65711   9.539   1.170  -1.176 -1.0132  1.2546 -0.8405
  487MOL0     H65712   9.525   1.320  -1.094 -1.1569  0.2337  2.1538
  487MOL0     H65713   9.645   1.242  -0.888 -1.3923  0.1890 -0.1834
  487MOL0     H65714   9.647   1.079  -0.949  1.7750  1.3446  0.1396
  487MOL0     H65715   9.793   1.180  -1.143  3.3925 -2.1334  0.0625
  487MOL0     H65716   9.869   1.198  -0.990 -0.1017 -0.3582 -2.0370
  487MOL0     H65717   9.705   1.439  -1.001 -3.5098 -0.5667 -3.0251
  487MOL0     H65718   9.731   1.413  -1.165 -0.4219  1.9735  0.1865
  487MOL0     H65719   9.912   1.567  -1.055  1.0986 -0.5125 -0.6135
  487MOL0     H65720   9.974   1.425  -0.983  0.0243 -1.4613 -0.9191
  487MOL0     H65721   9.955   1.430  -1.282 -0.8941 -0.5007  0.7295
  487MOL0     H65722  10.016   1.305  -1.173 -0.0222 -0.8105 -0.2411
  487MOL0     H65723  10.198   1.442  -1.279  3.3601  1.9998  1.1136
  487MOL0     H65724  10.120   1.582  -1.225  0.3555  1.2297  1.9576
  487MOL0     H65725   9.146   1.114  -0.995  0.8737 -0.1912 -0.7382
  487MOL0     H65726   8.966   1.027  -0.857  0.6536  1.8085 -0.6736
  487MOL0     H65727   8.915   0.604  -0.384 -1.9687  0.8355  1.4950
  487MOL0     H65728   8.732   0.464  -0.326 -0.2009  0.8906  0.1950
  487MOL0     H65729   6.782   0.142   0.579  0.9296 -3.4942 -0.9584
  487MOL0     H65730   6.559   0.165   0.597  0.1585 -2.0134 -0.2346
  487MOL0     H65731   6.079   0.371   0.165 -1.7460 -1.0305 -1.1103
  487MOL0     H65732   5.862   0.392   0.216  2.1316 -0.3250 -1.2858
  487MOL0     H65733   5.583   0.445   0.362 -1.7807 -1.6499  1.5399
  487MOL0     H65734   5.735   0.543   0.339  2.3517 -0.7584  0.2563
  487MOL0     H65735   5.531   0.562   0.573  0.6865  1.6883  3.7635
  487MOL0     H65736   5.564   0.682   0.460 -1.3323 -0.7608  2.4463
  487MOL0     H65737   5.756   0.749   0.547 -0.0874 -0.5859  0.8277
  487MOL0     H65738   5.806   0.585   0.612  0.4290  0.1231 -1.9153
  487MOL0     H65739   5.637   0.624   0.795 -0.3428 -1.1878 -1.6216
  487MOL0     H65740   5.743   0.764   0.798 -0.2648  3.8709 -1.4944
  487MOL0     H65741   5.381   0.940   0.686 -0.0283  0.5092  2.4670
  487MOL0     H65742   5.924   0.314   0.641  1.5785 -2.7305  0.5314
  487MOL0     H65743   6.249   0.349   0.642  0.4045 -0.6324  1.0129
  487MOL0     H65744   6.120   0.265   0.712 -3.8291 -3.7454 -2.2306
  487MOL0     H65745   6.224   0.173   0.602 -0.6020 -0.0354 -0.2911
  488MOL0     O65746   5.573   5.091   5.886 -0.2063 -0.3398 -0.3657
  488MOL0     C65747   5.517   5.020   5.970 -0.7981  0.0425 -0.3480
  488MOL0     O65748   5.583   4.936   6.058  0.3197 -0.0103 -0.4874
  488MOL0     C65749   5.707   4.889   6.023  0.5522 -0.5711  0.5138
  488MOL0     C65750   5.770   4.812   6.127 -0.1432  0.4576 -0.0486
  488MOL0     C65751   5.905   4.791   6.126  0.3353  0.4287 -0.0762
  488MOL0     C65752   5.981   4.820   6.017  0.1105  0.7633 -0.0558
  488MOL0     O65753   6.115   4.802   6.000 -0.5165 -0.4079  0.0836
  488MOL0     C65754   6.188   4.740   6.105 -0.0633 -0.2459 -0.1471
  488MOL0     C65755   6.342   4.699   6.066  0.1166  0.2599 -0.0386
  488MOL0     C65756   6.361   4.578   5.967  0.2503 -0.4928 -0.3733
  488MOL0     C65757   6.495   4.596   5.889  0.4030 -0.1540  0.0539
  488MOL0     C65758   6.629   4.591   5.965  0.6908 -0.2596 -0.9346
  488MOL0     C65759   6.751   4.618   5.879 -0.1121 -0.3514  0.2935
  488MOL0     C65760   6.889   4.581   5.933  0.2224 -0.0437 -0.7420
  488MOL0     C65761   6.995   4.608   5.833 -0.5420 -0.0648  0.6178
  488MOL0     N65762   7.122   4.576   5.900 -0.0258 -0.4141 -0.2538
  488MOL0     C65763   7.214   4.655   5.962 -1.2012 -0.4834  0.5417
  488MOL0     C65764   7.314   4.580   5.998 -1.1972  0.1017 -0.6885
  488MOL0     C65765   7.430   4.626   6.090 -0.1219  0.3015  0.2763
  488MOL0     C65766   7.549   4.532   6.109  0.4844 -0.0529 -0.3267
  488MOL0     C65767   7.627   4.578   6.241 -1.0954  0.4498  0.3020
  488MOL0     C65768   7.768   4.504   6.259  0.1118  0.5519  0.4666
  488MOL0     O65769   7.842   4.577   6.357 -0.0078  0.4922 -0.5868
  488MOL0     C65770   7.977   4.553   6.344 -0.4225  0.4570  0.2200
  488MOL0     C65771   8.074   4.660   6.334  0.2628  0.0749  0.6780
  488MOL0     C65772   8.213   4.633   6.320  0.2998  0.5008 -0.6768
  488MOL0     C65773   8.263   4.505   6.305 -1.0175  0.0078  1.0578
  488MOL0     C65774   8.404   4.476   6.277 -0.5083  0.1626 -0.5741
  488MOL0     O65775   8.480   4.581   6.296  0.1379  0.4701  0.3824
  488MOL0     C65776   8.608   4.579   6.261  0.1476 -0.1289  0.3518
  488MOL0     C65777   8.653   4.533   6.134  0.7743  0.2560  0.2810
  488MOL0     C65778   8.782   4.552   6.101 -0.0116 -0.2255 -0.0608
  488MOL0     C65779   8.880   4.586   6.199  0.1128  0.4963  0.0218
  488MOL0     O65780   9.011   4.580   6.168  0.4174  0.8452  0.0791
  488MOL0     C65781   9.105   4.654   6.240 -0.2785 -0.5103 -0.4781
  488MOL0     C65782   9.236   4.602   6.184  0.8363 -1.0459  0.0121
  488MOL0     C65783   9.346   4.700   6.220 -0.3374 -0.6288  0.3869
  488MOL0     C65784   9.358   4.814   6.129 -0.2919 -0.4495 -0.3447
  488MOL0     C65785   9.499   4.885   6.140 -0.7888  0.2190 -0.2569
  488MOL0     C65786   9.506   4.999   6.236 -0.1847 -0.5085 -0.7068
  488MOL0     C65787   9.567   4.969   6.375  0.6666  0.2273 -0.2876
  488MOL0     C65788   9.713   4.945   6.362 -0.0220  0.2495 -0.1874
  488MOL0    Cl65789   9.779   4.950   6.526  0.0280 -0.0415 -0.2376
  488MOL0     C65790   8.833   4.640   6.319  0.2805  0.1072 -0.2114
  488MOL0     C65791   8.698   4.638   6.353 -0.1543 -0.1572  0.7268
  488MOL0     O65792   8.439   4.360   6.254  0.0583  0.5337  0.5998
  488MOL0     C65793   8.169   4.401   6.311  0.2214 -0.1403  0.8184
  488MOL0     C65794   8.033   4.425   6.331 -0.2945  0.4717 -0.5521
  488MOL0     N65795   7.288   4.450   5.958 -0.8595  1.0241  0.4411
  488MOL0     N65796   7.166   4.448   5.915 -1.0982  0.1888 -0.1655
  488MOL0     C65797   5.914   4.868   5.906 -0.4692 -0.3644  0.2717
  488MOL0     C65798   5.783   4.909   5.910 -0.0629  0.7160 -0.1013
  488MOL0     C65799   5.368   5.011   5.980 -0.0761  0.3387 -0.9006
  488MOL0     C65800   5.307   4.938   6.083 -0.0938 -0.0173 -0.4752
  488MOL0     C65801   5.167   4.935   6.108  0.8326 -0.8244  0.7720
  488MOL0     C65802   5.075   5.012   6.031 -0.0973  0.3519 -1.1013
  488MOL0     O65803   4.943   5.031   6.049  0.5007 -0.0003 -0.5639
  488MOL0     C65804   4.876   4.959   6.153  0.3669 -0.4503 -1.1896
  488MOL0     C65805   4.748   4.923   6.087  0.5649  0.6890 -0.4623
  488MOL0     C65806   4.668   5.047   6.059  0.1626  0.8519  0.6350
  488MOL0     C65807   4.517   5.017   6.025  0.5016  0.0383 -0.3503
  488MOL0     C65808   4.446   4.972   6.138 -0.0038 -0.3652 -0.2613
  488MOL0     C65809   4.381   4.923   6.226 -0.0025  0.4270  0.3737
  488MOL0     C65810   5.135   5.092   5.928 -0.2853 -0.9360  0.0145
  488MOL0     C65811   5.274   5.094   5.900 -0.6717 -0.2463  0.0463
  488MOL0     C65812   5.310   5.193   5.799  0.1281  0.0617 -0.8798
  488MOL0     H65813   5.711   4.797   6.217 -2.0054  0.6351 -1.1887
  488MOL0     H65814   5.953   4.746   6.213 -1.6829 -1.6921  0.0298
  488MOL0     H65815   6.185   4.812   6.186  1.9694 -0.9381  0.6048
  488MOL0     H65816   6.151   4.641   6.133  2.6406 -1.8867 -1.8943
  488MOL0     H65817   6.393   4.673   6.159  1.2428 -1.2566 -1.0266
  488MOL0     H65818   6.394   4.784   6.021  0.0259  0.2735 -0.1173
  488MOL0     H65819   6.280   4.575   5.894  1.7171 -0.1821 -2.0835
  488MOL0     H65820   6.352   4.485   6.023 -0.7775 -0.7742 -0.9765
  488MOL0     H65821   6.488   4.507   5.825 -4.1086  0.0031  0.0082
  488MOL0     H65822   6.489   4.685   5.826 -2.3069 -2.3129 -3.1542
  488MOL0     H65823   6.624   4.667   6.043  1.2778 -3.0475  2.0006
  488MOL0     H65824   6.631   4.501   6.027 -0.6123  1.1564  1.3311
  488MOL0     H65825   6.730   4.567   5.784 -1.4869 -1.0657  0.9518
  488MOL0     H65826   6.756   4.727   5.865 -0.2594 -0.1466  1.7210
  488MOL0     H65827   6.892   4.473   5.952  2.1803 -0.2365 -1.9125
  488MOL0     H65828   6.910   4.644   6.020 -0.5360  0.6156 -1.0250
  488MOL0     H65829   6.997   4.534   5.752  1.9569 -2.0828  2.3540
  488MOL0     H65830   6.984   4.710   5.795  1.0030 -0.5312 -1.2487
  488MOL0     H65831   7.213   4.763   5.967  0.3465 -0.3150 -1.4076
  488MOL0     H65832   7.466   4.723   6.053  1.6200 -0.2574  0.4120
  488MOL0     H65833   7.395   4.640   6.193  2.0118  2.0648  0.8177
  488MOL0     H65834   7.512   4.429   6.105 -1.9377  0.7745 -1.6819
  488MOL0     H65835   7.607   4.529   6.017 -2.1507 -1.7832 -2.0554
  488MOL0     H65836   7.571   4.567   6.335  2.6121 -0.0746  2.6526
  488MOL0     H65837   7.634   4.686   6.231  0.1336  0.4731  1.1604
  488MOL0     H65838   7.811   4.514   6.159 -2.1479  1.2638 -0.4759
  488MOL0     H65839   7.738   4.400   6.276 -2.8717  1.0575 -1.0696
  488MOL0     H65840   8.036   4.762   6.340  1.5169  0.6387 -0.3161
  488MOL0     H65841   8.272   4.722   6.339 -0.0682  0.5987  0.0458
  488MOL0     H65842   8.591   4.474   6.068  0.9361  0.4824 -0.0754
  488MOL0     H65843   8.808   4.514   6.002  3.5438 -5.1711  2.3457
  488MOL0     H65844   9.090   4.762   6.237 -1.5725 -0.5789  1.6328
  488MOL0     H65845   9.125   4.632   6.345  0.9934 -2.1649 -1.0260
  488MOL0     H65846   9.261   4.507   6.233 -0.1906  0.3599  3.6454
  488MOL0     H65847   9.224   4.579   6.078 -1.6654  0.4455 -0.1189
  488MOL0     H65848   9.343   4.736   6.323 -1.2339  0.8991 -0.1334
  488MOL0     H65849   9.443   4.651   6.206  0.6513  0.6991  2.1831
  488MOL0     H65850   9.272   4.880   6.141  0.0847  0.2633 -1.3795
  488MOL0     H65851   9.355   4.773   6.028 -1.2958  2.3555 -1.5438
  488MOL0     H65852   9.517   4.923   6.039  1.8995  2.8488  1.0516
  488MOL0     H65853   9.589   4.825   6.156 -1.4620 -0.2276  2.1945
  488MOL0     H65854   9.558   5.081   6.186  2.7119 -1.4147  0.6104
  488MOL0     H65855   9.401   5.024   6.255 -0.3602  0.0252 -2.2672
  488MOL0     H65856   9.524   4.881   6.425  0.4987  0.0842 -0.6833
  488MOL0     H65857   9.545   5.054   6.439 -0.7803  1.6469 -2.5391
  488MOL0     H65858   9.737   4.849   6.315  3.6894  0.9570 -0.0852
  488MOL0     H65859   9.751   5.031   6.306 -1.5760  0.4667 -0.9574
  488MOL0     H65860   8.897   4.683   6.396 -0.1570  0.5602 -0.0967
  488MOL0     H65861   8.670   4.675   6.452 -1.0384 -1.5010  1.0150
  488MOL0     H65862   8.202   4.300   6.291 -0.3386 -0.2968  0.6567
  488MOL0     H65863   7.968   4.339   6.336  1.5670 -0.9498  2.6152
  488MOL0     H65864   5.960   4.893   5.811 -1.9265 -0.9831 -0.6384
  488MOL0     H65865   5.746   4.971   5.830  1.3963  3.3358  1.1211
  488MOL0     H65866   5.368   4.892   6.160  0.5813  1.5790 -0.0117
  488MOL0     H65867   5.136   4.885   6.200 -0.9655  0.8812  1.1695
  488MOL0     H65868   4.860   5.027   6.238 -0.0192  0.1747 -1.7575
  488MOL0     H65869   4.927   4.868   6.186  0.0685 -0.3585 -0.4542
  488MOL0     H65870   4.688   4.863   6.155 -2.3387  0.9042 -2.6377
  488MOL0     H65871   4.768   4.861   5.999 -1.4510 -0.1451 -0.3925
  488MOL0     H65872   4.722   5.090   5.974 -0.9213  1.3644  0.1851
  488MOL0     H65873   4.667   5.114   6.145 -1.3865  2.9218 -0.8790
  488MOL0     H65874   4.461   5.093   5.970 -2.4636 -0.3288  1.8716
  488MOL0     H65875   4.527   4.941   5.947  2.3521 -1.8828  1.6227
  488MOL0     H65876   4.322   4.868   6.297 -0.3839 -0.6484 -0.7598
  488MOL0     H65877   5.067   5.141   5.860 -1.0170 -1.3042  0.4742
  488MOL0     H65878   5.225   5.259   5.777 -0.0986  0.2936  0.5949
  488MOL0     H65879   5.396   5.253   5.832  0.3445  0.5253 -2.1966
  488MOL0     H65880   5.352   5.145   5.710 -2.0512 -0.4182 -1.6975
  489MOL0     O65881   8.197   4.348   4.901  0.5648  0.4932  0.5070
  489MOL0     C65882   8.163   4.381   4.786  0.0823  0.8930  0.0098
  489MOL0     O65883   8.251   4.430   4.698  0.5344 -0.2308  0.5883
  489MOL0     C65884   8.378   4.380   4.683  0.2304  0.5512  0.0654
  489MOL0     C65885   8.471   4.455   4.610 -0.1337 -0.6363  0.8686
  489MOL0     C65886   8.601   4.416   4.608 -0.9841 -0.1707 -0.6823
  489MOL0     C65887   8.652   4.299   4.670  0.5159 -0.1718  0.0895
  489MOL0     O65888   8.788   4.273   4.667  0.1945  0.3495 -0.3744
  489MOL0     C65889   8.806   4.144   4.613 -0.2876 -0.3361  0.4074
  489MOL0     C65890   8.892   4.054   4.701 -0.1783  0.4938 -1.1432
  489MOL0     C65891   8.951   3.940   4.612  0.1540 -0.4091 -0.6974
  489MOL0     C65892   9.059   3.886   4.713 -0.3005  0.5001 -0.7305
  489MOL0     C65893   9.086   3.735   4.692  0.3399  0.5425  0.3232
  489MOL0     C65894   9.215   3.691   4.761  0.6632 -0.2487 -0.1046
  489MOL0     C65895   9.245   3.539   4.736  0.6689 -0.9478  0.5002
  489MOL0     C65896   9.366   3.531   4.638  0.3253  0.7473  0.8169
  489MOL0     N65897   9.408   3.387   4.624  0.5418 -0.2971  0.0705
  489MOL0     C65898   9.520   3.323   4.667  0.7996 -0.0648 -0.6867
  489MOL0     C65899   9.517   3.202   4.614  0.9354 -0.4466  0.4100
  489MOL0     C65900   9.624   3.086   4.625  0.2799 -0.4846 -0.8201
  489MOL0     C65901   9.562   2.954   4.574 -0.2991  0.9084  0.3407
  489MOL0     C65902   9.680   2.855   4.543  0.7879 -0.0800 -0.2270
  489MOL0     C65903   9.724   2.764   4.660  0.0512 -0.0591  0.2457
  489MOL0     O65904   9.742   2.839   4.775 -0.2661  0.0803 -0.6707
  489MOL0     C65905   9.869   2.893   4.805  0.0489 -0.0620  1.3115
  489MOL0     C65906   9.979   2.879   4.716  0.3775 -0.7510 -0.7706
  489MOL0     C65907  10.096   2.951   4.738 -0.7810  0.0159  1.0199
  489MOL0     C65908  10.121   3.006   4.868 -0.5225  1.0822 -0.4131
  489MOL0     C65909  10.254   3.078   4.904 -0.1110  0.3397  0.5442
  489MOL0     O65910  10.353   3.073   4.807 -0.9376 -0.3981 -0.0846
  489MOL0     C65911  10.487   3.111   4.829  0.2614 -0.2341 -0.3496
  489MOL0     C65912  10.559   3.086   4.947 -0.4822 -0.1740  0.1586
  489MOL0     C65913  10.695   3.116   4.955 -0.5244 -0.0495  0.2588
  489MOL0     C65914  10.759   3.183   4.850 -0.3525  0.3588 -1.0855
  489MOL0     O65915  10.894   3.206   4.865 -0.4572  0.1443  0.0792
  489MOL0     C65916  10.964   3.279   4.761 -0.4004  0.4649 -0.7956
  489MOL0     C65917  11.114   3.258   4.787 -0.3163  0.0514  0.3271
  489MOL0     C65918  11.151   3.117   4.737  0.1751 -0.0891  0.2711
  489MOL0     C65919  11.156   3.103   4.585 -0.1766  0.3642  0.1582
  489MOL0     C65920  11.194   2.957   4.548  0.0553 -0.1738 -0.4160
  489MOL0     C65921  11.339   2.904   4.585 -0.0330 -0.2463 -0.2651
  489MOL0     C65922  11.450   2.989   4.527  0.4798 -0.7870 -0.1756
  489MOL0     C65923  11.447   2.980   4.375  0.1306 -0.1456  0.5020
  489MOL0    Cl65924  11.517   2.828   4.301  0.1045  0.3055 -0.3512
  489MOL0     C65925  10.681   3.220   4.742 -0.4028  0.4861  0.4995
  489MOL0     C65926  10.546   3.186   4.731 -0.3750  0.2830  0.5792
  489MOL0     O65927  10.269   3.123   5.014  1.2162 -0.0847  0.4771
  489MOL0     C65928  10.015   2.997   4.967 -0.4341 -0.1416  0.1070
  489MOL0     C65929   9.894   2.942   4.935 -0.3593  0.4246  0.4178
  489MOL0     N65930   9.406   3.196   4.533  0.2978 -0.0642  0.5049
  489MOL0     N65931   9.340   3.307   4.530 -0.1015 -0.7189 -0.0804
  489MOL0     C65932   8.550   4.219   4.732  0.6137  0.3018  0.3834
  489MOL0     C65933   8.415   4.252   4.727 -0.1520 -0.2107  0.2609
  489MOL0     C65934   8.025   4.414   4.763  0.1223  0.2263 -0.2769
  489MOL0     C65935   7.934   4.389   4.870 -0.2183  0.4495 -0.1422
  489MOL0     C65936   7.798   4.413   4.867  0.3718  0.3528 -0.3084
  489MOL0     C65937   7.755   4.476   4.751 -0.0602  0.1430 -0.9190
  489MOL0     O65938   7.624   4.522   4.743 -0.0752 -0.2490 -0.4447
  489MOL0     C65939   7.549   4.504   4.621 -0.1826  0.1739 -0.0078
  489MOL0     C65940   7.520   4.646   4.562  0.4152  0.2613  0.0112
  489MOL0     C65941   7.422   4.639   4.438 -1.0235 -0.4347  0.4807
  489MOL0     C65942   7.468   4.588   4.310  0.3714  0.9373  0.1853
  489MOL0     C65943   7.420   4.444   4.305  0.1656  0.2838  1.6024
  489MOL0     C65944   7.411   4.321   4.292  0.7184  0.0845  0.4844
  489MOL0     C65945   7.838   4.511   4.642 -0.1221 -0.1911 -0.5138
  489MOL0     C65946   7.976   4.476   4.646  1.3148 -1.1889  0.8116
  489MOL0     C65947   8.056   4.527   4.522  0.1508 -0.2260 -0.5068
  489MOL0     H65948   8.436   4.553   4.579  1.1397 -0.3233  0.3821
  489MOL0     H65949   8.666   4.467   4.538  1.7400 -0.9122  1.1287
  489MOL0     H65950   8.717   4.087   4.586 -0.4973 -0.2261  0.8543
  489MOL0     H65951   8.868   4.158   4.524 -0.0775  0.2334  0.6378
  489MOL0     H65952   8.826   4.031   4.785 -0.4658  4.7968  0.0714
  489MOL0     H65953   8.979   4.107   4.744  1.6639 -3.6777  0.8811
  489MOL0     H65954   8.998   3.977   4.521 -2.3307  1.7450 -1.2401
  489MOL0     H65955   8.876   3.867   4.579  0.4669 -1.0919  0.0715
  489MOL0     H65956   9.148   3.948   4.708  0.6725 -0.6940  0.7122
  489MOL0     H65957   9.030   3.900   4.818  1.4033 -0.8918 -0.0229
  489MOL0     H65958   9.004   3.686   4.746 -2.0034 -0.4889 -3.7688
  489MOL0     H65959   9.078   3.694   4.591  0.7524 -0.0772  0.5311
  489MOL0     H65960   9.299   3.756   4.735  0.8313  0.5605  2.3045
  489MOL0     H65961   9.204   3.712   4.867  1.3582  0.8845 -0.2407
  489MOL0     H65962   9.159   3.487   4.693 -0.5092 -0.3917  2.0817
  489MOL0     H65963   9.277   3.495   4.831  2.6736  0.1407  0.3882
  489MOL0     H65964   9.342   3.559   4.535  0.0947  1.0710  0.9578
  489MOL0     H65965   9.451   3.590   4.674  1.4288  0.5811 -1.3152
  489MOL0     H65966   9.590   3.365   4.738 -0.5112  0.8817  0.0912
  489MOL0     H65967   9.707   3.123   4.565  1.6767  1.4778  2.0706
  489MOL0     H65968   9.650   3.075   4.731  0.7340 -2.0601 -1.0734
  489MOL0     H65969   9.493   2.920   4.652  0.0114 -0.3286  0.0915
  489MOL0     H65970   9.510   2.964   4.478  0.0669  3.8467  0.3561
  489MOL0     H65971   9.766   2.908   4.502  0.0408 -0.5713 -2.5602
  489MOL0     H65972   9.638   2.781   4.475 -3.7207  2.0821 -0.1961
  489MOL0     H65973   9.812   2.701   4.645  1.1076  0.9926  1.7545
  489MOL0     H65974   9.644   2.690   4.670  0.2874 -1.7765 -6.3900
  489MOL0     H65975   9.964   2.855   4.611  1.0030 -0.9649 -0.8117
  489MOL0     H65976  10.176   2.957   4.665  0.6579  1.4883  2.6208
  489MOL0     H65977  10.519   3.041   5.038 -0.9991  2.7907  1.4903
  489MOL0     H65978  10.754   3.088   5.041 -0.0118 -2.2295 -0.7313
  489MOL0     H65979  10.936   3.255   4.658 -1.6855  0.0376 -0.3612
  489MOL0     H65980  10.943   3.385   4.778 -2.3233  0.0211 -0.1237
  489MOL0     H65981  11.182   3.330   4.741 -0.3891 -0.5795 -0.8229
  489MOL0     H65982  11.139   3.254   4.893 -2.6445 -2.1620  0.8728
  489MOL0     H65983  11.245   3.089   4.785  1.3164  2.8873 -0.0457
  489MOL0     H65984  11.078   3.046   4.777  0.4748  0.2358  1.4286
  489MOL0     H65985  11.230   3.174   4.548 -2.1688  2.9390  0.8849
  489MOL0     H65986  11.062   3.133   4.539  1.4693  2.6794 -1.9534
  489MOL0     H65987  11.175   2.937   4.442  1.3261  1.6382 -1.0335
  489MOL0     H65988  11.128   2.891   4.605 -0.3622  0.1250 -0.5544
  489MOL0     H65989  11.367   2.913   4.690  1.4559 -0.1825 -0.6442
  489MOL0     H65990  11.339   2.795   4.580  0.5394 -0.4444  2.3864
  489MOL0     H65991  11.549   2.962   4.565  1.4293  2.3899 -0.1468
  489MOL0     H65992  11.445   3.097   4.544 -0.1795 -0.3279 -2.7436
  489MOL0     H65993  11.344   2.997   4.340  0.3456 -1.4864 -0.8795
  489MOL0     H65994  11.506   3.059   4.327  1.8624 -0.9876  1.1828
  489MOL0     H65995  10.724   3.281   4.663 -0.1650 -0.3722 -0.0378
  489MOL0     H65996  10.480   3.206   4.647  1.1915 -0.7133 -0.9705
  489MOL0     H65997  10.032   3.039   5.065 -1.2159  0.3254  0.0503
  489MOL0     H65998   9.814   2.931   5.008 -0.6195  0.7618  0.1849
  489MOL0     H65999   8.576   4.125   4.780  1.4506  0.5726  0.4854
  489MOL0     H66000   8.351   4.190   4.790 -0.1121  3.7128  4.7655
  489MOL0     H66001   7.968   4.342   4.962  1.1847  2.6506  0.5224
  489MOL0     H66002   7.733   4.403   4.954  0.5749 -0.3670 -0.2342
  489MOL0     H66003   7.453   4.457   4.639 -0.7250  0.4620 -1.9126
  489MOL0     H66004   7.603   4.442   4.548 -1.4207  0.9454 -1.6426
  489MOL0     H66005   7.616   4.690   4.532  1.7187 -1.7332  0.9666
  489MOL0     H66006   7.476   4.718   4.631  1.8562  0.9731  0.2202
  489MOL0     H66007   7.389   4.742   4.423 -0.1785  0.0125  1.6220
  489MOL0     H66008   7.332   4.584   4.468 -0.9670 -0.6312  0.2914
  489MOL0     H66009   7.429   4.642   4.224  1.8410  0.2877 -0.9356
  489MOL0     H66010   7.578   4.583   4.314  0.4336 -0.5026 -1.8990
  489MOL0     H66011   7.414   4.214   4.284  1.2497  0.1611 -0.4376
  489MOL0     H66012   7.799   4.559   4.553  0.6787  0.4047 -0.5459
  489MOL0     H66013   8.085   4.437   4.467  1.1041 -1.9598  2.6151
  489MOL0     H66014   8.004   4.582   4.443  1.3981  0.0381 -1.1642
  489MOL0     H66015   8.146   4.584   4.548  0.3334 -0.7549  0.0240
  490MOL0     O66016   6.182   2.023   2.785  0.4854  1.1154  0.7027
  490MOL0     C66017   6.097   1.932   2.791  0.5946 -0.7495  0.4217
  490MOL0     O66018   6.129   1.794   2.807  0.5052  0.0485 -0.4828
  490MOL0     C66019   6.257   1.770   2.844  0.4171  0.4286 -0.7313
  490MOL0     C66020   6.304   1.764   2.982  0.7378  0.2409  0.4843
  490MOL0     C66021   6.436   1.726   3.006 -0.2415  0.6375 -0.1790
  490MOL0     C66022   6.529   1.710   2.895  0.1477 -0.1605 -0.3350
  490MOL0     O66023   6.669   1.704   2.914  0.3809  0.3903  0.0938
  490MOL0     C66024   6.730   1.711   3.050 -0.2859  0.7109  0.1928
  490MOL0     C66025   6.875   1.689   3.027 -0.1977 -0.5278  0.3287
  490MOL0     C66026   6.952   1.715   3.157  0.6655  0.2412 -0.0614
  490MOL0     C66027   7.108   1.712   3.119 -0.2166 -0.5711 -1.5813
  490MOL0     C66028   7.181   1.734   3.252  0.1563 -0.2308  0.7412
  490MOL0     C66029   7.335   1.763   3.237  0.1854  1.0011  0.4289
  490MOL0     C66030   7.422   1.640   3.184 -0.3184 -0.4751  0.8037
  490MOL0     C66031   7.560   1.689   3.145 -0.1303 -0.3410  0.1916
  490MOL0     N66032   7.628   1.798   3.221  0.4001  0.6824  0.4854
  490MOL0     C66033   7.727   1.764   3.297  0.7325 -1.0521  0.3895
  490MOL0     C66034   7.795   1.878   3.318 -0.4784  0.2181  0.8976
  490MOL0     C66035   7.921   1.887   3.402  0.0480 -0.4354  0.0260
  490MOL0     C66036   8.048   1.830   3.334 -0.1833  0.7548  0.4362
  490MOL0     C66037   8.171   1.854   3.429  0.5397 -0.5070 -0.4794
  490MOL0     C66038   8.298   1.767   3.410  0.1867  0.6670 -0.1178
  490MOL0     O66039   8.276   1.678   3.298  0.2321 -0.0371  0.6308
  490MOL0     C66040   8.375   1.590   3.250 -0.0663  0.3449  0.5415
  490MOL0     C66041   8.349   1.504   3.139  0.4689  0.1673 -0.4066
  490MOL0     C66042   8.435   1.412   3.098 -0.6252 -0.3129 -0.9935
  490MOL0     C66043   8.563   1.398   3.162  0.8971 -0.1602  0.6985
  490MOL0     C66044   8.661   1.300   3.103 -0.4614  0.3832 -0.2979
  490MOL0     O66045   8.783   1.303   3.160 -0.0288 -0.4394  0.1861
  490MOL0     C66046   8.883   1.222   3.124 -0.8430 -0.0492 -0.8243
  490MOL0     C66047   8.991   1.219   3.220  0.0004 -0.1177 -1.1496
  490MOL0     C66048   9.108   1.142   3.198  0.1409  0.2517 -0.3225
  490MOL0     C66049   9.124   1.068   3.082 -1.1771 -0.4108 -0.5536
  490MOL0     O66050   9.239   0.999   3.050 -0.4935  0.0473  0.2600
  490MOL0     C66051   9.351   0.985   3.136  0.0540 -0.0743 -0.2636
  490MOL0     C66052   9.467   1.093   3.102  0.6200 -0.1585 -0.2122
  490MOL0     C66053   9.557   1.059   2.982 -0.1514  0.0460  0.4291
  490MOL0     C66054   9.680   0.982   3.022 -0.3918 -0.6041 -0.1251
  490MOL0     C66055   9.767   0.954   2.898  0.7634 -0.0456 -0.2649
  490MOL0     C66056   9.883   0.856   2.933 -0.1275 -0.0909 -1.0039
  490MOL0     C66057   9.971   0.926   3.033  1.1849 -0.1536  0.2398
  490MOL0     C66058  10.106   0.854   3.041 -0.4803  0.5434  0.1182
  490MOL0    Cl66059  10.203   0.874   2.890 -0.3415 -0.0852  0.2199
  490MOL0     C66060   9.020   1.074   2.992 -0.0472  0.2097  0.0611
  490MOL0     C66061   8.905   1.147   3.009 -0.5928  0.5624  0.9554
  490MOL0     O66062   8.628   1.216   3.021 -0.3003 -0.0055 -0.2039
  490MOL0     C66063   8.600   1.492   3.264  0.6222  0.1202  0.2114
  490MOL0     C66064   8.509   1.597   3.296  1.1354 -0.0421  0.4225
  490MOL0     N66065   7.732   1.984   3.257 -0.5184 -0.2235  1.2030
  490MOL0     N66066   7.635   1.930   3.187  0.0823 -0.2582  0.9656
  490MOL0     C66067   6.484   1.713   2.763 -0.9007 -0.0929 -0.3331
  490MOL0     C66068   6.352   1.752   2.740  0.4636 -0.1025 -0.6008
  490MOL0     C66069   5.953   1.968   2.758 -0.0900 -0.7044  0.1181
  490MOL0     C66070   5.854   1.875   2.766  0.7621 -0.3284  0.3213
  490MOL0     C66071   5.721   1.900   2.733  0.5690  0.1754  0.4423
  490MOL0     C66072   5.679   2.031   2.704 -0.9552  0.4596 -0.1919
  490MOL0     O66073   5.551   2.069   2.693 -0.2103  0.5828  0.8212
  490MOL0     C66074   5.449   1.985   2.635 -0.1397 -0.2621 -0.1886
  490MOL0     C66075   5.432   2.007   2.487  0.6656 -0.6478  0.9695
  490MOL0     C66076   5.383   2.153   2.453  0.6481  0.9628  0.1454
  490MOL0     C66077   5.488   2.257   2.441 -0.0268  0.1577  0.2055
  490MOL0     C66078   5.573   2.237   2.321 -0.0308  0.2887  0.2578
  490MOL0     C66079   5.655   2.199   2.239 -0.3560 -0.0751  0.8975
  490MOL0     C66080   5.779   2.126   2.704  0.4211  0.8360 -0.7392
  490MOL0     C66081   5.916   2.102   2.722  0.0895 -0.0999 -0.1379
  490MOL0     C66082   6.004   2.226   2.718  0.5326  0.7657 -0.0698
  490MOL0     H66083   6.239   1.789   3.065  0.4834  1.7960 -0.1599
  490MOL0     H66084   6.467   1.725   3.110 -4.0825  0.9639  1.1188
  490MOL0     H66085   6.702   1.805   3.099 -1.2971 -0.4814  2.0115
  490MOL0     H66086   6.690   1.632   3.114 -3.4957  2.3485  0.4126
  490MOL0     H66087   6.907   1.767   2.957  1.3672 -1.5051 -0.0929
  490MOL0     H66088   6.888   1.593   2.976 -0.8630  1.0863 -3.2643
  490MOL0     H66089   6.939   1.626   3.219  3.5938  0.1053  0.5234
  490MOL0     H66090   6.921   1.802   3.216 -0.1564  0.2286 -0.4717
  490MOL0     H66091   7.142   1.616   3.080  1.7598  0.2371 -1.9734
  490MOL0     H66092   7.140   1.786   3.044 -0.1887  1.3054  0.1976
  490MOL0     H66093   7.135   1.824   3.293 -1.0688  0.3479 -1.6936
  490MOL0     H66094   7.161   1.651   3.320  0.7846 -1.9666 -1.1087
  490MOL0     H66095   7.344   1.855   3.178 -0.8751 -0.5388 -2.3259
  490MOL0     H66096   7.375   1.793   3.335  0.8019  1.4823  0.0317
  490MOL0     H66097   7.375   1.581   3.105 -1.4996  0.2493  0.9501
  490MOL0     H66098   7.439   1.570   3.266  0.4945  0.1626  1.1967
  490MOL0     H66099   7.624   1.601   3.139  1.6263  0.6764  2.6620
  490MOL0     H66100   7.554   1.733   3.045 -1.8915  0.8895  0.7737
  490MOL0     H66101   7.755   1.668   3.340  4.1895  0.3224  1.6103
  490MOL0     H66102   7.929   1.994   3.424 -1.9566 -0.2546  0.1419
  490MOL0     H66103   7.910   1.827   3.493  3.1024  1.0864  1.5423
  490MOL0     H66104   8.022   1.725   3.317  0.4592  0.3697  1.7340
  490MOL0     H66105   8.073   1.881   3.241 -1.2785  3.6128  1.5947
  490MOL0     H66106   8.135   1.831   3.530  0.6254  1.7273  0.1023
  490MOL0     H66107   8.202   1.959   3.430 -1.2926  0.1000  1.8753
  490MOL0     H66108   8.321   1.707   3.498 -0.9350 -0.5012 -0.5785
  490MOL0     H66109   8.391   1.822   3.392  1.7380 -0.8794  2.5879
  490MOL0     H66110   8.246   1.507   3.104  0.0963  0.4083  0.6562
  490MOL0     H66111   8.388   1.357   3.017 -3.0894  0.2099 -0.0052
  490MOL0     H66112   8.983   1.254   3.323  1.2884 -3.8154  0.4089
  490MOL0     H66113   9.183   1.141   3.276 -0.8801 -1.7952  0.7196
  490MOL0     H66114   9.319   0.997   3.240 -1.7430 -2.0703 -0.5171
  490MOL0     H66115   9.396   0.886   3.126  0.7264  0.2528 -0.5786
  490MOL0     H66116   9.424   1.190   3.077 -2.5960 -0.7680  2.3238
  490MOL0     H66117   9.536   1.092   3.187  1.0513 -1.8412 -0.5398
  490MOL0     H66118   9.502   1.004   2.905  1.5453 -2.2110  0.7218
  490MOL0     H66119   9.588   1.152   2.934  4.2132 -1.3417  0.0509
  490MOL0     H66120   9.656   0.883   3.061 -2.0985 -0.6230 -1.1340
  490MOL0     H66121   9.733   1.053   3.086 -0.0336  0.2741 -1.3455
  490MOL0     H66122   9.793   1.046   2.844 -1.6977 -0.4979 -2.3914
  490MOL0     H66123   9.700   0.901   2.829 -0.9352  0.4723  0.9412
  490MOL0     H66124   9.840   0.764   2.975 -1.9681  0.0991 -2.3570
  490MOL0     H66125   9.949   0.830   2.850  0.7580  0.7308 -0.5752
  490MOL0     H66126   9.925   0.919   3.132 -2.7240 -4.1636 -1.4905
  490MOL0     H66127   9.992   1.028   3.000  1.1471 -0.0828  0.4335
  490MOL0     H66128  10.164   0.881   3.130 -2.1463  3.1187  0.5375
  490MOL0     H66129  10.087   0.747   3.053  0.9308  0.1480 -0.8873
  490MOL0     H66130   9.040   1.014   2.904  0.9994  2.4854 -1.3632
  490MOL0     H66131   8.832   1.138   2.929 -0.3355 -0.0563  0.7887
  490MOL0     H66132   8.701   1.483   3.302  0.4735  3.2080  1.6407
  490MOL0     H66133   8.538   1.651   3.385  2.4941 -1.7735  1.0998
  490MOL0     H66134   6.549   1.702   2.677  2.1749  0.1459  1.8230
  490MOL0     H66135   6.316   1.752   2.637 -2.3602 -1.7985  0.2881
  490MOL0     H66136   5.872   1.780   2.815  0.4889 -0.6612 -0.2121
  490MOL0     H66137   5.646   1.823   2.750  1.3983 -0.8421 -0.3873
  490MOL0     H66138   5.358   1.982   2.695  0.2710 -1.7747  0.3953
  490MOL0     H66139   5.486   1.882   2.643  2.9812  0.5953 -1.7962
  490MOL0     H66140   5.361   1.932   2.451  1.7413 -0.9697 -0.5666
  490MOL0     H66141   5.518   1.994   2.421  1.1192  0.2157  1.3645
  490MOL0     H66142   5.319   2.178   2.538 -0.8983 -0.7337 -0.4715
  490MOL0     H66143   5.318   2.156   2.365  2.7587 -1.5933 -1.7013
  490MOL0     H66144   5.452   2.360   2.453 -2.2915 -0.7131  1.4679
  490MOL0     H66145   5.552   2.248   2.529 -1.6942  1.3755  1.6324
  490MOL0     H66146   5.730   2.170   2.167  0.0420 -0.6388  1.5210
  490MOL0     H66147   5.742   2.228   2.694 -1.8321  0.4988  2.5197
  490MOL0     H66148   6.088   2.196   2.654  0.7287 -2.1918  1.3629
  490MOL0     H66149   5.944   2.309   2.679  1.1768  1.3589  0.1811
  490MOL0     H66150   6.038   2.250   2.819  0.6356 -2.1458  0.6933
  491MOL0     O66151   3.232   7.247   5.455  0.7150  0.6101  0.2687
  491MOL0     C66152   3.128   7.259   5.382 -0.3493 -0.0036  0.0536
  491MOL0     O66153   3.117   7.215   5.251 -0.0905  0.0350  0.4012
  491MOL0     C66154   3.235   7.173   5.194 -0.0150  0.2845 -0.6101
  491MOL0     C66155   3.325   7.264   5.136  0.8485 -0.4276 -0.5421
  491MOL0     C66156   3.456   7.220   5.091 -0.2449  0.0245  0.5709
  491MOL0     C66157   3.487   7.088   5.102  0.0010  0.7023  0.5758
  491MOL0     O66158   3.612   7.047   5.056 -0.1645  0.5244 -0.1073
  491MOL0     C66159   3.719   7.122   5.110  0.5172  0.3365 -0.4652
  491MOL0     C66160   3.841   7.045   5.100  0.5308  0.6775 -0.1617
  491MOL0     C66161   3.966   7.109   5.161  0.0520  0.1660 -0.0858
  491MOL0     C66162   4.015   7.237   5.099 -0.4171  0.1008  0.7905
  491MOL0     C66163   4.119   7.309   5.195 -0.8018  0.0208 -0.9479
  491MOL0     C66164   4.259   7.244   5.183  0.9105  0.2052  0.1001
  491MOL0     C66165   4.360   7.348   5.210 -0.2387  0.4181 -0.5043
  491MOL0     C66166   4.498   7.293   5.164  0.1342 -0.0210  0.1373
  491MOL0     N66167   4.625   7.342   5.235 -0.7597  0.0846 -1.0111
  491MOL0     C66168   4.649   7.420   5.343 -0.1662  0.9565  0.6846
  491MOL0     C66169   4.779   7.407   5.380  0.3291  0.4202 -0.0908
  491MOL0     C66170   4.837   7.458   5.504 -0.0784  0.0255 -0.6081
  491MOL0     C66171   4.859   7.609   5.501 -0.0498  0.0439 -0.3202
  491MOL0     C66172   4.889   7.654   5.649 -0.7070 -0.2084 -0.6361
  491MOL0     C66173   5.030   7.619   5.697 -0.1688 -0.5334 -0.3988
  491MOL0     O66174   5.123   7.714   5.640  0.4025  0.0936  0.1106
  491MOL0     C66175   5.251   7.672   5.601  0.0496  0.0058 -0.4050
  491MOL0     C66176   5.360   7.742   5.650  0.8359  0.1062 -0.6244
  491MOL0     C66177   5.484   7.689   5.635 -0.3427  0.6595 -0.7658
  491MOL0     C66178   5.519   7.570   5.574  1.5837  0.4672 -0.2236
  491MOL0     C66179   5.653   7.503   5.567 -0.4175 -0.3511  0.1092
  491MOL0     O66180   5.657   7.367   5.525  0.0814 -0.2528  0.8266
  491MOL0     C66181   5.777   7.309   5.515 -0.6765  0.1233  0.2231
  491MOL0     C66182   5.853   7.290   5.626  0.5682 -0.8119  0.3054
  491MOL0     C66183   5.976   7.234   5.622 -0.3762 -0.0889  0.5621
  491MOL0     C66184   6.031   7.178   5.504  0.2982  0.2650 -0.2406
  491MOL0     O66185   6.154   7.123   5.486  0.2145  0.2817  0.4984
  491MOL0     C66186   6.236   7.120   5.600  0.2347  0.7845 -0.5394
  491MOL0     C66187   6.364   7.060   5.561 -0.8537  0.4991 -0.0912
  491MOL0     C66188   6.465   7.052   5.678 -0.5805  0.1035 -0.3250
  491MOL0     C66189   6.608   7.006   5.651 -0.7104 -0.0505  0.4800
  491MOL0     C66190   6.702   7.048   5.762 -0.0570 -0.7694  0.1808
  491MOL0     C66191   6.847   7.035   5.717 -0.1470 -0.4089 -0.7554
  491MOL0     C66192   6.958   7.061   5.814 -0.3295 -0.2308  0.0594
  491MOL0     C66193   7.097   7.067   5.748 -0.5282  0.9957  0.3275
  491MOL0    Cl66194   7.216   7.058   5.877 -0.1541 -0.2833  0.3938
  491MOL0     C66195   5.949   7.187   5.396  0.3181  0.3208  0.0769
  491MOL0     C66196   5.823   7.246   5.396  0.6877 -1.3444  0.2484
  491MOL0     O66197   5.755   7.570   5.592  0.5997  0.2353  0.0095
  491MOL0     C66198   5.406   7.498   5.526 -0.2127  0.1952  0.3698
  491MOL0     C66199   5.277   7.549   5.537  0.2417 -0.3427  0.8553
  491MOL0     N66200   4.838   7.340   5.281 -0.3570  0.1234  0.0416
  491MOL0     N66201   4.754   7.307   5.192 -0.5204 -0.0865  0.2309
  491MOL0     C66202   3.391   6.997   5.147  0.2231 -0.5392  0.1503
  491MOL0     C66203   3.266   7.043   5.187  0.2146 -0.8495 -0.1435
  491MOL0     C66204   3.004   7.312   5.436  0.2674 -0.8268  0.7778
  491MOL0     C66205   2.884   7.298   5.362  0.2800 -0.2512 -0.8113
  491MOL0     C66206   2.758   7.330   5.419  0.6786  0.3960  0.5243
  491MOL0     C66207   2.750   7.399   5.540 -0.3483 -0.5752 -0.2302
  491MOL0     O66208   2.630   7.422   5.598  0.3438 -1.1799 -0.4944
  491MOL0     C66209   2.626   7.492   5.721  0.0743 -0.3804  0.1345
  491MOL0     C66210   2.497   7.463   5.788  0.6140  0.3646 -0.2596
  491MOL0     C66211   2.372   7.489   5.690  0.9251  0.4961 -0.3362
  491MOL0     C66212   2.240   7.449   5.758 -0.2717  0.1300  0.6053
  491MOL0     C66213   2.125   7.501   5.669 -0.1448  0.5041  0.6314
  491MOL0     C66214   2.043   7.542   5.590 -0.9943 -0.8019 -0.1663
  491MOL0     C66215   2.874   7.430   5.601  0.0208 -0.6007  0.2377
  491MOL0     C66216   3.002   7.386   5.555 -0.6767 -1.1865 -0.1163
  491MOL0     C66217   3.124   7.421   5.646  0.0513 -0.0319 -0.5049
  491MOL0     H66218   3.298   7.368   5.151 -1.7794 -1.2158  0.9283
  491MOL0     H66219   3.519   7.294   5.044  1.0128  0.0349  2.1765
  491MOL0     H66220   3.739   7.219   5.062  2.9456 -0.8628 -2.0796
  491MOL0     H66221   3.694   7.154   5.211  0.9004  3.5199 -1.2519
  491MOL0     H66222   3.857   7.014   4.996 -0.5575  0.5723 -0.3104
  491MOL0     H66223   3.812   6.952   5.150  0.8732  0.6814  0.0444
  491MOL0     H66224   4.047   7.036   5.156 -0.9999 -1.0833  0.2977
  491MOL0     H66225   3.949   7.136   5.265  2.0850 -0.7887  0.5376
  491MOL0     H66226   4.064   7.203   5.007 -1.5073 -0.5123  0.4169
  491MOL0     H66227   3.935   7.307   5.073 -0.1574  0.8189  1.8760
  491MOL0     H66228   4.128   7.417   5.180 -0.9578  0.2432  0.4253
  491MOL0     H66229   4.089   7.304   5.300  2.4141 -1.0253  0.0349
  491MOL0     H66230   4.275   7.163   5.255 -1.0942 -0.2540  0.1128
  491MOL0     H66231   4.272   7.206   5.081  0.4849 -0.0493  0.1382
  491MOL0     H66232   4.363   7.374   5.316  0.9295  0.9180 -0.6450
  491MOL0     H66233   4.349   7.440   5.151  3.2567 -0.2193 -2.4319
  491MOL0     H66234   4.506   7.186   5.187  2.9070 -0.1528 -1.0412
  491MOL0     H66235   4.494   7.301   5.055 -2.5617 -2.4446 -0.0706
  491MOL0     H66236   4.567   7.461   5.403  0.1735  1.2205  0.9756
  491MOL0     H66237   4.762   7.441   5.582  0.8810 -2.6619 -0.1678
  491MOL0     H66238   4.924   7.400   5.534 -0.8447  0.7665  3.6674
  491MOL0     H66239   4.943   7.619   5.432  0.8014  1.5839  0.8689
  491MOL0     H66240   4.767   7.657   5.469 -0.7633 -2.0491 -1.6617
  491MOL0     H66241   4.821   7.606   5.719 -1.1756  2.3821  0.7934
  491MOL0     H66242   4.874   7.763   5.653 -0.5268 -0.2181  0.5613
  491MOL0     H66243   5.050   7.516   5.665  1.7541 -0.7779  1.3898
  491MOL0     H66244   5.029   7.629   5.806 -0.6177 -0.1003 -0.4403
  491MOL0     H66245   5.343   7.824   5.719 -0.5137 -1.3283  0.8480
  491MOL0     H66246   5.568   7.740   5.681 -0.1965  1.7070 -2.1492
  491MOL0     H66247   5.810   7.331   5.716  0.0099  0.4488 -0.5092
  491MOL0     H66248   6.035   7.216   5.711  0.1399 -2.9705 -0.2403
  491MOL0     H66249   6.255   7.225   5.627  2.0636  0.3907 -0.1511
  491MOL0     H66250   6.202   7.052   5.678  0.8627 -2.9426 -3.2150
  491MOL0     H66251   6.346   6.959   5.523 -0.6539  1.1318 -1.9761
  491MOL0     H66252   6.410   7.123   5.484  1.2371 -1.1272 -0.2638
  491MOL0     H66253   6.470   7.156   5.711  2.3283  0.8268 -2.6216
  491MOL0     H66254   6.421   7.000   5.763 -1.4935  0.8124 -0.3362
  491MOL0     H66255   6.638   7.047   5.555 -1.2738  1.2952  0.8563
  491MOL0     H66256   6.601   6.897   5.645  0.9263 -0.3622  2.6900
  491MOL0     H66257   6.704   7.005   5.862  0.0545  0.2674  0.6329
  491MOL0     H66258   6.677   7.153   5.780 -1.2818 -0.3003 -3.3955
  491MOL0     H66259   6.869   6.936   5.678  1.4308 -0.7001  0.7722
  491MOL0     H66260   6.853   7.113   5.639  0.9189  0.0043 -0.2778
  491MOL0     H66261   6.972   6.978   5.884  1.3848  0.1944  0.2504
  491MOL0     H66262   6.940   7.151   5.873 -2.4354 -1.1983  1.0025
  491MOL0     H66263   7.118   6.983   5.682 -1.7713  1.1529 -0.3105
  491MOL0     H66264   7.106   7.158   5.687 -0.0008 -0.2242 -1.4986
  491MOL0     H66265   5.990   7.140   5.307 -1.2770 -1.7848  0.3580
  491MOL0     H66266   5.755   7.248   5.311  0.2735  0.3121  0.5895
  491MOL0     H66267   5.411   7.394   5.494 -3.0679  0.3448 -0.9070
  491MOL0     H66268   5.193   7.487   5.507 -2.4340  3.2969  0.1361
  491MOL0     H66269   3.403   6.890   5.157 -1.0878 -0.6723  0.5489
  491MOL0     H66270   3.200   6.974   5.240 -1.8079  2.6249  2.2877
  491MOL0     H66271   2.878   7.250   5.265 -1.3624 -1.9244  0.0527
  491MOL0     H66272   2.672   7.302   5.359  1.6590 -1.3598 -0.1469
  491MOL0     H66273   2.627   7.600   5.705  0.6388 -0.2395  1.1035
  491MOL0     H66274   2.696   7.464   5.800 -0.8899  2.5254  2.1861
  491MOL0     H66275   2.488   7.515   5.884  0.9525 -0.0537  0.0044
  491MOL0     H66276   2.499   7.356   5.809 -0.9594  0.0382 -1.6019
  491MOL0     H66277   2.380   7.426   5.601  1.8156 -1.2127  0.8928
  491MOL0     H66278   2.371   7.598   5.678  2.4329  0.6130  0.3672
  491MOL0     H66279   2.235   7.340   5.750  1.3905  0.1174 -0.8661
  491MOL0     H66280   2.229   7.485   5.860 -0.7425 -0.3973  0.7482
  491MOL0     H66281   1.984   7.582   5.510 -1.2661 -2.3395 -0.7718
  491MOL0     H66282   2.879   7.488   5.693  4.3238 -0.6148  0.2284
  491MOL0     H66283   3.210   7.455   5.586  0.0461 -1.3998 -1.3379
  491MOL0     H66284   3.111   7.497   5.723  0.8774  1.0760 -1.4128
  491MOL0     H66285   3.165   7.334   5.697 -0.1422  1.8091  3.0924
  492MOL0     O66286   1.572  10.564   1.473 -0.0675  0.7836 -0.5437
  492MOL0     C66287   1.592  10.452   1.523  0.0127  0.4209 -0.0136
  492MOL0     O66288   1.707  10.417   1.583  0.2339  0.5831  0.3096
  492MOL0     C66289   1.814  10.500   1.582 -0.6468 -0.2668 -0.3696
  492MOL0     C66290   1.876  10.547   1.461  0.0754 -0.8857  0.1016
  492MOL0     C66291   1.996  10.621   1.469 -0.6538 -0.5368 -0.2602
  492MOL0     C66292   2.062  10.643   1.591 -0.0499 -0.3197 -0.5127
  492MOL0     O66293   2.171  10.723   1.615  0.0342  0.3141 -0.6277
  492MOL0     C66294   2.239  10.756   1.495  0.2807 -0.8411 -0.4481
  492MOL0     C66295   2.360  10.838   1.530 -0.3923 -0.7171 -0.4994
  492MOL0     C66296   2.333  10.961   1.615 -0.3394  0.4986  0.6596
  492MOL0     C66297   2.453  11.046   1.649 -0.5551  0.1236 -0.6707
  492MOL0     C66298   2.416  11.163   1.739  0.0930  0.6130  0.5703
  492MOL0     C66299   2.545  11.228   1.789  0.1731 -0.3426  0.3915
  492MOL0     C66300   2.630  11.138   1.879  0.1025  0.4606  0.1487
  492MOL0     C66301   2.731  11.221   1.964 -0.0265  0.6086  0.6491
  492MOL0     N66302   2.828  11.303   1.881 -0.3122 -0.2392  1.0974
  492MOL0     C66303   2.929  11.261   1.790  0.5533  0.4989 -0.6252
  492MOL0     C66304   2.970  11.367   1.716  0.0848 -0.2234 -0.4440
  492MOL0     C66305   3.072  11.346   1.609 -0.4236 -0.1343 -0.0928
  492MOL0     C66306   3.091  11.466   1.521  0.8189 -0.6805  0.3530
  492MOL0     C66307   3.205  11.448   1.421 -0.2847 -0.3076 -0.1597
  492MOL0     C66308   3.203  11.556   1.318  0.2230  0.3913  1.0137
  492MOL0     O66309   3.253  11.680   1.374  0.5889 -0.1692 -0.1366
  492MOL0     C66310   3.387  11.696   1.395 -0.5100  0.4817  0.1195
  492MOL0     C66311   3.415  11.810   1.463  0.1239 -0.0711 -0.1361
  492MOL0     C66312   3.545  11.845   1.499  0.6458  0.2275 -0.5202
  492MOL0     C66313   3.650  11.768   1.468  0.3216  0.3799 -0.2732
  492MOL0     C66314   3.793  11.798   1.505 -0.8698 -0.1883 -0.2056
  492MOL0     O66315   3.805  11.919   1.560 -0.2037 -0.3933 -0.2838
  492MOL0     C66316   3.923  11.953   1.616 -0.4922 -0.8332 -0.6385
  492MOL0     C66317   3.924  12.005   1.748  0.3982 -0.7879 -0.1525
  492MOL0     C66318   4.041  12.040   1.815  0.1072 -0.8134  0.3171
  492MOL0     C66319   4.169  12.006   1.759 -0.3415  0.4848 -0.4812
  492MOL0     O66320   4.277  12.017   1.838 -0.5048  0.0385  0.5954
  492MOL0     C66321   4.405  12.008   1.787 -0.8399  1.0545 -0.4331
  492MOL0     C66322   4.499  12.028   1.910  0.0270  0.7834  0.3076
  492MOL0     C66323   4.646  11.984   1.866  0.6328  0.2730  0.2637
  492MOL0     C66324   4.743  12.008   1.983 -0.5198 -0.5496  0.2888
  492MOL0     C66325   4.884  12.010   1.931  1.1372  0.7718 -0.3962
  492MOL0     C66326   4.978  11.988   2.045  0.1738  0.3220 -0.3404
  492MOL0     C66327   5.127  11.986   1.996  0.3241 -0.0595 -0.0793
  492MOL0     C66328   5.216  11.905   2.087 -0.2141  1.2032  1.0128
  492MOL0    Cl66329   5.359  11.860   2.000 -0.0583  0.4866 -0.3811
  492MOL0     C66330   4.176  11.956   1.633 -0.0854 -0.3214  0.7439
  492MOL0     C66331   4.053  11.920   1.564  0.5453 -1.2398  0.2016
  492MOL0     O66332   3.876  11.715   1.480  0.4295 -0.0988  0.6668
  492MOL0     C66333   3.623  11.643   1.409 -0.4458 -0.7659 -1.1479
  492MOL0     C66334   3.493  11.604   1.377  0.2554 -0.1460  0.1822
  492MOL0     N66335   2.893  11.475   1.765  0.1407  0.5785  0.0470
  492MOL0     N66336   2.807  11.435   1.855  0.4447 -0.4583  0.2919
  492MOL0     C66337   1.997  10.583   1.704 -0.5673  0.4834  0.1063
  492MOL0     C66338   1.881  10.512   1.704 -0.5112  0.1948  0.3363
  492MOL0     C66339   1.491  10.339   1.533  0.0054 -0.4948  0.4958
  492MOL0     C66340   1.530  10.217   1.585 -0.0250  0.0991 -0.0440
  492MOL0     C66341   1.438  10.113   1.596 -0.4323 -0.1330  0.7279
  492MOL0     C66342   1.305  10.119   1.554  0.4137 -0.3390  0.3089
  492MOL0     O66343   1.218  10.013   1.566  0.7523 -0.1916  0.1702
  492MOL0     C66344   1.076  10.027   1.540  0.5240  0.4370  0.3287
  492MOL0     C66345   0.985   9.905   1.561  0.0595  0.5935 -0.7957
  492MOL0     C66346   0.846   9.922   1.495 -0.6128  0.4281  0.6155
  492MOL0     C66347   0.753   9.816   1.553 -0.2311  0.1910  0.2844
  492MOL0     C66348   0.619   9.847   1.483  0.3820 -0.3076  0.3333
  492MOL0     C66349   0.502   9.867   1.436 -0.5759  0.4961  0.3016
  492MOL0     C66350   1.264  10.247   1.513 -0.6929  0.2091  0.3177
  492MOL0     C66351   1.357  10.347   1.490  0.3153 -0.0051 -0.1764
  492MOL0     C66352   1.304  10.475   1.421  0.8449  0.3596 -0.5224
  492MOL0     H66353   1.817  10.533   1.371  2.6726 -1.2817 -1.6369
  492MOL0     H66354   2.044  10.653   1.377  1.1658 -0.7120  0.5850
  492MOL0     H66355   2.259  10.674   1.426 -4.5796 -0.3383 -2.8011
  492MOL0     H66356   2.173  10.821   1.437 -0.9062  0.4094  2.1424
  492MOL0     H66357   2.399  10.866   1.432 -1.4847  3.7330  0.1471
  492MOL0     H66358   2.430  10.770   1.580 -0.9068 -0.1566  1.0472
  492MOL0     H66359   2.283  10.923   1.705 -1.9043  0.4925 -0.1752
  492MOL0     H66360   2.259  11.021   1.562 -2.4037 -1.3237  1.3005
  492MOL0     H66361   2.517  10.977   1.704 -2.6953 -0.8932  0.6934
  492MOL0     H66362   2.494  11.079   1.553 -1.4296 -0.2617 -1.1937
  492MOL0     H66363   2.352  11.240   1.694  0.0699  0.1941 -0.1452
  492MOL0     H66364   2.357  11.131   1.825 -1.2964 -1.9460 -1.1878
  492MOL0     H66365   2.612  11.244   1.704 -0.7525 -2.0363 -0.7020
  492MOL0     H66366   2.509  11.311   1.851 -1.0362 -1.0804  0.7042
  492MOL0     H66367   2.695  11.077   1.816 -1.8905 -0.1021 -1.4845
  492MOL0     H66368   2.572  11.067   1.939  0.6667 -0.1325 -0.0006
  492MOL0     H66369   2.676  11.282   2.036 -0.5256  0.1606  0.6548
  492MOL0     H66370   2.797  11.146   2.009  1.5860  1.0076 -0.9291
  492MOL0     H66371   2.964  11.159   1.777  3.2340  1.3365 -0.7287
  492MOL0     H66372   3.167  11.319   1.655  0.8426  4.1663  0.2282
  492MOL0     H66373   3.042  11.264   1.543  2.7693 -0.6997 -0.9824
  492MOL0     H66374   3.002  11.481   1.459  2.3145  2.7890 -1.2434
  492MOL0     H66375   3.095  11.554   1.586  0.1266 -0.4106  0.0398
  492MOL0     H66376   3.187  11.351   1.374 -0.0537 -1.2198  1.5618
  492MOL0     H66377   3.297  11.459   1.479 -1.3443 -0.2127  1.5587
  492MOL0     H66378   3.096  11.562   1.296 -0.1616  2.1814  3.0350
  492MOL0     H66379   3.252  11.539   1.222 -2.1605 -2.8212  0.1871
  492MOL0     H66380   3.333  11.877   1.487  0.5238  0.2610  0.3196
  492MOL0     H66381   3.563  11.939   1.551 -0.8394  0.3686 -0.2160
  492MOL0     H66382   3.832  12.020   1.803  1.8518 -1.1746  2.6140
  492MOL0     H66383   4.034  12.072   1.918  1.5074 -0.5396  0.3415
  492MOL0     H66384   4.422  11.907   1.748  1.0513  1.2926 -0.2958
  492MOL0     H66385   4.431  12.079   1.708 -0.8293 -0.9828 -2.3727
  492MOL0     H66386   4.494  12.136   1.925  3.4381  1.2203 -0.8161
  492MOL0     H66387   4.462  11.966   1.992 -3.0694 -1.2225 -2.3653
  492MOL0     H66388   4.661  11.879   1.839  2.0627  1.0640 -2.2917
  492MOL0     H66389   4.675  12.045   1.780 -1.1114  0.1500 -0.4439
  492MOL0     H66390   4.734  11.938   2.066 -1.6624 -0.1848  0.4963
  492MOL0     H66391   4.720  12.106   2.027  0.2150 -0.5263  0.6286
  492MOL0     H66392   4.900  12.097   1.866 -2.0595  1.2863 -0.6608
  492MOL0     H66393   4.898  11.925   1.864  1.7680  0.6830 -0.1542
  492MOL0     H66394   4.970  12.076   2.111  1.1128  0.2984 -0.1770
  492MOL0     H66395   4.950  11.896   2.097  1.3962  0.4442  0.5684
  492MOL0     H66396   5.148  12.093   2.002 -4.4315  1.0645  1.2795
  492MOL0     H66397   5.137  11.944   1.895  1.8916 -2.2243  0.8886
  492MOL0     H66398   5.239  11.948   2.185  1.1532  0.0286  1.2291
  492MOL0     H66399   5.158  11.814   2.105  0.1649  0.8017  0.2454
  492MOL0     H66400   4.270  11.943   1.580 -0.0356 -1.0948  1.0154
  492MOL0     H66401   4.062  11.869   1.468 -1.7822 -2.6915  0.6882
  492MOL0     H66402   3.708  11.577   1.393  1.3585  1.1813 -0.1157
  492MOL0     H66403   3.475  11.508   1.331  0.4276  0.5810 -1.4775
  492MOL0     H66404   2.057  10.589   1.794  0.7197 -0.5121 -0.6422
  492MOL0     H66405   1.859  10.459   1.796  2.3995  2.0398  2.2718
  492MOL0     H66406   1.633  10.195   1.610  0.0307 -0.1289 -0.4666
  492MOL0     H66407   1.490  10.028   1.639 -1.1125 -0.8760  0.1198
  492MOL0     H66408   1.083  10.048   1.433  0.3140 -0.7352  0.0671
  492MOL0     H66409   1.023  10.104   1.597 -1.8315 -0.3910 -0.5788
  492MOL0     H66410   0.962   9.891   1.667 -1.2366 -1.9021 -1.3331
  492MOL0     H66411   1.039   9.816   1.527 -0.3237 -0.4449  1.1711
  492MOL0     H66412   0.858   9.911   1.387  1.4365 -0.7610  0.9059
  492MOL0     H66413   0.815  10.023   1.523  1.5961  0.4201  3.6236
  492MOL0     H66414   0.779   9.722   1.502 -0.1100  1.8783 -3.0133
  492MOL0     H66415   0.754   9.817   1.662 -0.1150 -1.4647  0.3280
  492MOL0     H66416   0.399   9.883   1.411 -1.2241  0.0337  2.5125
  492MOL0     H66417   1.160  10.272   1.495 -0.6366 -0.9490 -2.0098
  492MOL0     H66418   1.212  10.453   1.367  1.4423  0.5661 -1.6641
  492MOL0     H66419   1.299  10.563   1.486  1.9417  1.0927 -1.3968
  492MOL0     H66420   1.365  10.511   1.338  1.3775  0.2210 -0.1976
  493MOL0     O66421   2.703   8.960   6.383 -0.1521  0.3376  1.4592
  493MOL0     C66422   2.684   9.024   6.277  0.0291 -0.5325 -0.2809
  493MOL0     O66423   2.783   9.057   6.192  0.3567  0.1661  0.4099
  493MOL0     C66424   2.912   9.016   6.206  0.8074 -0.4961  0.0295
  493MOL0     C66425   2.960   8.882   6.204 -0.0585  0.1094  0.3538
  493MOL0     C66426   3.091   8.846   6.234 -0.7681  0.0223 -0.3176
  493MOL0     C66427   3.191   8.956   6.245 -0.1294  0.3965  0.6508
  493MOL0     O66428   3.326   8.926   6.246  0.2473 -0.6623  0.6796
  493MOL0     C66429   3.377   8.835   6.351 -1.0085 -0.6670  0.0939
  493MOL0     C66430   3.533   8.840   6.359 -0.6806  0.2987  0.3260
  493MOL0     C66431   3.580   8.719   6.444 -0.1451  0.9092 -0.0366
  493MOL0     C66432   3.737   8.722   6.459  0.1561  0.0709 -0.1776
  493MOL0     C66433   3.821   8.660   6.345  0.2570  0.1052 -0.0990
  493MOL0     C66434   3.971   8.676   6.381 -0.4987 -0.4950 -0.6450
  493MOL0     C66435   4.048   8.682   6.253 -0.8479  0.2858  0.3006
  493MOL0     C66436   4.073   8.538   6.196  0.1270 -0.1344  1.4148
  493MOL0     N66437   4.200   8.469   6.240 -0.4815 -0.8933 -0.9468
  493MOL0     C66438   4.191   8.380   6.349 -0.1835 -0.1261  0.0011
  493MOL0     C66439   4.313   8.326   6.358 -0.2869 -1.1198 -0.5404
  493MOL0     C66440   4.353   8.228   6.463 -0.8765  0.1358  0.1493
  493MOL0     C66441   4.372   8.294   6.600  0.1092  0.4310 -0.3838
  493MOL0     C66442   4.497   8.385   6.599  0.3236  0.2736 -0.5920
  493MOL0     C66443   4.630   8.304   6.591  0.7006 -0.2851  0.0346
  493MOL0     O66444   4.725   8.353   6.680 -0.0603  0.0931  0.1817
  493MOL0     C66445   4.857   8.335   6.662 -0.5946 -1.0744  0.3937
  493MOL0     C66446   4.916   8.217   6.605  0.7333  0.2244  0.9000
  493MOL0     C66447   5.057   8.200   6.600 -0.6055 -0.4284 -0.1555
  493MOL0     C66448   5.145   8.300   6.646 -0.1732  1.1072  0.9740
  493MOL0     C66449   5.293   8.279   6.640 -1.1825  0.5534 -0.2032
  493MOL0     O66450   5.340   8.159   6.602 -0.4261  0.7215  0.6518
  493MOL0     C66451   5.478   8.134   6.618  1.1820 -0.1802  0.7771
  493MOL0     C66452   5.516   8.022   6.693 -0.4948  0.4564  0.1041
  493MOL0     C66453   5.650   7.998   6.722  0.1726  0.2854  0.3574
  493MOL0     C66454   5.752   8.079   6.662 -0.2454  0.1652  0.3906
  493MOL0     O66455   5.880   8.065   6.703 -0.1000  0.7141  0.6350
  493MOL0     C66456   5.910   7.982   6.817  0.5248  0.2750 -0.1455
  493MOL0     C66457   6.064   7.984   6.838  0.2725 -0.3094 -0.6817
  493MOL0     C66458   6.102   7.947   6.979 -0.0045 -0.0652  0.1211
  493MOL0     C66459   6.251   7.903   6.976  0.4598  0.8138 -0.0144
  493MOL0     C66460   6.297   7.849   7.116 -0.2489  0.6469 -0.5569
  493MOL0     C66461   6.452   7.817   7.114  0.1541 -0.2855  0.4503
  493MOL0     C66462   6.496   7.769   7.248 -0.4120  0.2193 -0.8299
  493MOL0     C66463   6.464   7.624   7.275 -0.1454  0.3557  0.0421
  493MOL0    Cl66464   6.612   7.557   7.351  0.2517 -0.2509  0.2499
  493MOL0     C66465   5.715   8.185   6.582 -0.3701  0.6726 -0.0081
  493MOL0     C66466   5.579   8.213   6.556 -0.0824 -0.4065  0.5824
  493MOL0     O66467   5.361   8.372   6.686 -0.1612  0.4963 -0.0382
  493MOL0     C66468   5.094   8.417   6.695 -1.0513  0.6213  1.0798
  493MOL0     C66469   4.956   8.426   6.711 -0.2923 -0.2937  0.0340
  493MOL0     N66470   4.393   8.383   6.254  0.0855  0.0359  0.0663
  493MOL0     N66471   4.329   8.478   6.189  0.4281 -0.2394  0.1027
  493MOL0     C66472   3.149   9.084   6.221 -0.7228  0.0966  0.0471
  493MOL0     C66473   3.011   9.113   6.216  0.2394 -0.0223  0.0180
  493MOL0     C66474   2.543   9.061   6.255  0.2559  0.4156 -0.3541
  493MOL0     C66475   2.448   9.000   6.347  0.0772  0.0727 -0.2789
  493MOL0     C66476   2.309   9.027   6.329  0.1765  0.4598  0.1250
  493MOL0     C66477   2.267   9.107   6.225  0.0838 -0.4426  0.0116
  493MOL0     O66478   2.146   9.111   6.179  0.3436 -0.0498 -0.3399
  493MOL0     C66479   2.099   9.009   6.094 -0.7799  0.0340 -0.2679
  493MOL0     C66480   2.002   9.056   5.996  0.4978  0.3912  0.3789
  493MOL0     C66481   1.851   9.036   6.045 -0.0274  0.0626 -0.5859
  493MOL0     C66482   1.755   9.073   5.936 -0.7809 -0.3520  0.0053
  493MOL0     C66483   1.612   9.073   5.980 -0.0802  0.1873 -0.1978
  493MOL0     C66484   1.493   9.089   6.003 -0.6212 -0.0142 -0.4405
  493MOL0     C66485   2.360   9.183   6.151  0.9144 -0.8419 -0.8798
  493MOL0     C66486   2.496   9.160   6.164  0.6048 -0.8943  0.5660
  493MOL0     C66487   2.579   9.243   6.077 -0.5544 -1.1972  1.5087
  493MOL0     H66488   2.894   8.798   6.185  1.1989 -1.2575  1.8793
  493MOL0     H66489   3.120   8.742   6.243 -0.1893 -0.0669 -2.5829
  493MOL0     H66490   3.333   8.862   6.448  0.6630  2.0903  0.1909
  493MOL0     H66491   3.346   8.737   6.313 -1.7192 -1.9783  3.6531
  493MOL0     H66492   3.558   8.937   6.403  1.4566 -0.7206  1.4836
  493MOL0     H66493   3.569   8.853   6.256  1.3204  1.8557  1.1447
  493MOL0     H66494   3.551   8.629   6.391  1.6194 -0.8014  1.7352
  493MOL0     H66495   3.532   8.710   6.542  0.7884  1.3043  0.4674
  493MOL0     H66496   3.772   8.825   6.466  0.3636  0.2520 -2.7151
  493MOL0     H66497   3.775   8.671   6.548  2.9838  1.8238 -0.2855
  493MOL0     H66498   3.791   8.555   6.334  0.9662 -0.1606  0.4487
  493MOL0     H66499   3.794   8.713   6.253 -3.1367  0.8657  1.1726
  493MOL0     H66500   3.990   8.769   6.434  2.0724 -1.3674  0.1550
  493MOL0     H66501   4.012   8.599   6.447  1.1388 -1.3327 -2.5130
  493MOL0     H66502   4.148   8.722   6.273 -0.3965 -0.9707  0.6517
  493MOL0     H66503   3.998   8.738   6.174 -1.9678  1.2326  1.6350
  493MOL0     H66504   3.990   8.468   6.208  0.9813 -1.8063 -1.4173
  493MOL0     H66505   4.087   8.549   6.088 -1.9147  0.5013  1.1661
  493MOL0     H66506   4.101   8.356   6.405 -1.0663  0.4950 -1.1040
  493MOL0     H66507   4.295   8.139   6.490  2.4185 -1.1973  3.9448
  493MOL0     H66508   4.448   8.190   6.424 -0.6701 -0.7502  1.4214
  493MOL0     H66509   4.285   8.339   6.649 -0.1484 -2.2798  1.9451
  493MOL0     H66510   4.401   8.209   6.664  3.0079  1.3600 -0.3229
  493MOL0     H66511   4.499   8.439   6.695  1.5378 -1.1313  0.2110
  493MOL0     H66512   4.491   8.450   6.511 -0.6240 -2.1408 -2.4076
  493MOL0     H66513   4.660   8.324   6.488 -1.6578  2.0046 -0.3253
  493MOL0     H66514   4.611   8.196   6.591 -1.2999 -0.2414 -5.2775
  493MOL0     H66515   4.857   8.136   6.564 -0.4305  1.7522 -0.5909
  493MOL0     H66516   5.103   8.112   6.555  0.3921  1.4429 -3.1036
  493MOL0     H66517   5.426   7.978   6.734  0.2073 -0.0755  1.1142
  493MOL0     H66518   5.666   7.911   6.786  2.3987 -2.1759 -3.2001
  493MOL0     H66519   5.862   8.016   6.909 -0.6882 -0.3702 -0.5180
  493MOL0     H66520   5.882   7.879   6.791  2.3035 -0.1594 -0.4993
  493MOL0     H66521   6.112   7.910   6.773  1.8908  1.2205 -1.3112
  493MOL0     H66522   6.098   8.084   6.810 -2.9813  1.3230  0.6427
  493MOL0     H66523   6.102   8.039   7.038 -0.8583  0.1174 -0.1383
  493MOL0     H66524   6.049   7.859   7.014  0.2338 -0.2988 -0.1038
  493MOL0     H66525   6.315   7.986   6.943 -1.3568  1.1039 -3.2624
  493MOL0     H66526   6.262   7.824   6.901 -1.6862 -1.0975  1.5694
  493MOL0     H66527   6.236   7.762   7.141 -1.2352  1.2245 -0.9190
  493MOL0     H66528   6.287   7.914   7.203  3.2595  0.2155  0.3171
  493MOL0     H66529   6.483   7.746   7.035 -0.2445 -0.8334  0.7806
  493MOL0     H66530   6.510   7.908   7.097  0.7326 -0.5907  0.7305
  493MOL0     H66531   6.454   7.833   7.326 -0.4798 -0.4621 -0.2983
  493MOL0     H66532   6.605   7.780   7.248 -0.4716  0.9330 -0.0817
  493MOL0     H66533   6.381   7.615   7.347 -0.3319 -2.2842 -0.3976
  493MOL0     H66534   6.432   7.580   7.180 -0.6099 -1.2367  0.8906
  493MOL0     H66535   5.789   8.258   6.551  0.4284  0.5395  1.4728
  493MOL0     H66536   5.553   8.303   6.502 -0.9817  0.0010  1.6501
  493MOL0     H66537   5.158   8.497   6.730 -3.2659  2.8680  0.2234
  493MOL0     H66538   4.921   8.510   6.770 -0.2152 -2.0400  2.7172
  493MOL0     H66539   3.228   9.155   6.203 -2.0645  1.4662 -0.7253
  493MOL0     H66540   2.972   9.215   6.219 -0.5065 -0.2598 -1.1987
  493MOL0     H66541   2.473   8.936   6.430 -1.2358  0.0121  0.0931
  493MOL0     H66542   2.234   8.982   6.392  0.3987 -0.3929 -0.1993
  493MOL0     H66543   2.056   8.939   6.166 -1.5699 -0.6333 -1.3582
  493MOL0     H66544   2.185   8.961   6.046 -1.2070  0.1218 -1.1296
  493MOL0     H66545   2.015   9.003   5.901  0.3800  4.2271 -1.9522
  493MOL0     H66546   2.029   9.154   5.957  1.2337 -0.6859 -2.0726
  493MOL0     H66547   1.834   9.104   6.130 -0.0025 -0.8156  0.1307
  493MOL0     H66548   1.827   8.936   6.080 -1.5102  1.5588  3.1427
  493MOL0     H66549   1.769   9.175   5.899 -0.8948 -0.6684 -0.9424
  493MOL0     H66550   1.758   9.005   5.850  1.2614  1.9630 -1.9229
  493MOL0     H66551   1.388   9.095   6.026 -0.6512  1.0254 -0.8153
  493MOL0     H66552   2.330   9.251   6.072  2.7483 -0.1673 -1.0558
  493MOL0     H66553   2.531   9.338   6.054  0.6043 -0.4094  2.2075
  493MOL0     H66554   2.679   9.254   6.121  1.1527 -3.3022 -1.4584
  493MOL0     H66555   2.596   9.190   5.983 -2.5620 -0.4314  0.6753
  494MOL0     O66556   1.726   1.929   4.651 -0.5558  0.2475  0.4952
  494MOL0     C66557   1.758   1.814   4.681  0.7465  0.7082  0.2696
  494MOL0     O66558   1.887   1.756   4.661  0.3197 -0.0513 -0.0774
  494MOL0     C66559   1.992   1.823   4.598 -0.4324  0.2641 -0.8048
  494MOL0     C66560   1.980   1.931   4.513 -0.5997  0.0028  0.3983
  494MOL0     C66561   2.092   1.986   4.452  0.5854 -0.2907  0.1034
  494MOL0     C66562   2.222   1.948   4.489  0.1013 -0.0369  0.3491
  494MOL0     O66563   2.325   2.016   4.433  0.1958 -0.0761  0.2595
  494MOL0     C66564   2.437   1.951   4.360 -0.0016  0.2084 -0.3684
  494MOL0     C66565   2.571   1.989   4.426  0.1108  0.5644  0.1541
  494MOL0     C66566   2.682   1.965   4.330  0.4019 -0.5991 -0.3258
  494MOL0     C66567   2.816   2.016   4.381  0.0517 -0.2930 -0.1390
  494MOL0     C66568   2.927   2.000   4.279 -0.3241  1.0203 -0.8220
  494MOL0     C66569   2.975   1.856   4.251  0.2171 -0.4716 -0.3179
  494MOL0     C66570   3.123   1.842   4.243  0.0801  0.0370  0.9106
  494MOL0     C66571   3.189   1.824   4.376  0.1183 -0.6231  0.1840
  494MOL0     N66572   3.331   1.784   4.366  0.1779 -0.6540  0.0450
  494MOL0     C66573   3.436   1.877   4.395  0.0131  0.2232  0.7459
  494MOL0     C66574   3.551   1.798   4.371  0.3920 -1.1916  0.2409
  494MOL0     C66575   3.689   1.843   4.390  0.2093  0.7800 -0.7583
  494MOL0     C66576   3.761   1.771   4.508 -0.4772 -0.0373  0.0731
  494MOL0     C66577   3.912   1.787   4.527 -0.2978 -0.1408  0.0965
  494MOL0     C66578   3.950   1.900   4.612  0.6457 -1.0521 -0.3826
  494MOL0     O66579   4.087   1.914   4.626 -0.5290  0.2413 -0.1698
  494MOL0     C66580   4.129   2.032   4.690 -0.5717 -0.1720  0.0747
  494MOL0     C66581   4.266   2.058   4.691 -0.0784  0.3992 -0.8310
  494MOL0     C66582   4.320   2.156   4.777 -0.2786 -0.4869  0.4859
  494MOL0     C66583   4.234   2.256   4.838  0.8189 -0.0033 -0.3519
  494MOL0     C66584   4.275   2.365   4.921 -0.0975  0.7361  0.1292
  494MOL0     O66585   4.401   2.372   4.953 -0.5579  0.5191 -0.0990
  494MOL0     C66586   4.456   2.476   5.018 -0.7426  0.0165 -1.0901
  494MOL0     C66587   4.462   2.604   4.955 -0.6169 -0.1496 -0.0566
  494MOL0     C66588   4.530   2.713   5.019  0.4781 -0.6259  0.1431
  494MOL0     C66589   4.589   2.698   5.145  0.3773  0.7120  0.6360
  494MOL0     O66590   4.652   2.800   5.205 -0.9268  0.2420 -0.3235
  494MOL0     C66591   4.737   2.897   5.141 -0.2113  0.5526  0.4713
  494MOL0     C66592   4.783   2.985   5.262  0.6172 -0.6567 -0.1050
  494MOL0     C66593   4.870   3.107   5.210  0.5755 -0.5742 -0.3860
  494MOL0     C66594   5.024   3.073   5.209  0.3989  0.2619 -0.2275
  494MOL0     C66595   5.121   3.196   5.243  1.0045  0.0604  0.4159
  494MOL0     C66596   5.116   3.308   5.128  0.9330 -0.2803 -1.0490
  494MOL0     C66597   5.158   3.258   4.999 -0.4509  0.5205  0.2288
  494MOL0     C66598   5.219   3.373   4.917  0.0778  0.3233 -0.1379
  494MOL0    Cl66599   5.273   3.325   4.753  0.0679 -0.1510 -0.6824
  494MOL0     C66600   4.583   2.571   5.205 -0.4783  0.2179  0.6357
  494MOL0     C66601   4.519   2.459   5.144  0.4599 -0.1307  0.3318
  494MOL0     O66602   4.197   2.456   4.954 -0.1481  0.0884 -0.1819
  494MOL0     C66603   4.096   2.238   4.827  0.4398 -0.4377  0.3878
  494MOL0     C66604   4.046   2.133   4.748 -0.3619  0.2410  1.1049
  494MOL0     N66605   3.514   1.671   4.330  0.0374 -0.2705 -0.2383
  494MOL0     N66606   3.384   1.659   4.332  0.6577 -0.1127 -0.3715
  494MOL0     C66607   2.237   1.835   4.568  0.8451 -0.0854 -0.2150
  494MOL0     C66608   2.120   1.774   4.624  0.3882 -0.2017 -1.0514
  494MOL0     C66609   1.656   1.734   4.763  0.0400 -0.3485 -0.4228
  494MOL0     C66610   1.705   1.642   4.855  0.7066 -0.7831  0.3059
  494MOL0     C66611   1.613   1.568   4.935  0.6993  0.0662 -0.5038
  494MOL0     C66612   1.475   1.580   4.915  0.5913 -0.6573  0.3981
  494MOL0     O66613   1.383   1.526   5.001  0.1550 -0.3600  0.2196
  494MOL0     C66614   1.432   1.434   5.105  0.4803  0.1369 -0.1497
  494MOL0     C66615   1.330   1.357   5.189 -0.5819  0.0654  0.1398
  494MOL0     C66616   1.247   1.458   5.279  0.3528  0.8220 -0.6989
  494MOL0     C66617   1.332   1.542   5.374  1.1470 -0.5105 -0.3365
  494MOL0     C66618   1.399   1.453   5.467  1.1072  0.2247  0.4566
  494MOL0     C66619   1.464   1.382   5.538 -0.7337 -0.6516 -0.2022
  494MOL0     C66620   1.427   1.668   4.813 -0.3122 -0.1487 -0.0406
  494MOL0     C66621   1.516   1.745   4.739  0.2135  0.9356 -0.3312
  494MOL0     C66622   1.449   1.836   4.641  0.0628  0.1058  0.6992
  494MOL0     H66623   1.886   1.959   4.468 -0.5832 -3.1713 -1.9557
  494MOL0     H66624   2.085   2.074   4.389  1.3321  0.3303  0.8663
  494MOL0     H66625   2.428   1.842   4.358 -1.3144  0.2982 -2.2984
  494MOL0     H66626   2.438   1.996   4.260 -1.7478  1.5928  0.1848
  494MOL0     H66627   2.584   1.935   4.521  0.6289  1.9080  0.8655
  494MOL0     H66628   2.579   2.095   4.451 -0.6164 -0.1631  4.2036
  494MOL0     H66629   2.670   2.015   4.234 -0.3919 -2.2088 -1.1195
  494MOL0     H66630   2.691   1.858   4.307  0.8485 -0.5628 -0.3346
  494MOL0     H66631   2.798   2.121   4.406 -1.3260 -0.6331  0.3578
  494MOL0     H66632   2.850   1.976   4.477  1.2687 -0.8900 -0.7938
  494MOL0     H66633   2.897   2.052   4.187 -2.5827  0.8615 -0.2191
  494MOL0     H66634   3.016   2.053   4.315  0.0475 -0.8169  1.1482
  494MOL0     H66635   2.939   1.780   4.320 -1.1959  1.1605  0.8532
  494MOL0     H66636   2.927   1.831   4.156  0.7610  0.1002 -0.7571
  494MOL0     H66637   3.166   1.930   4.194  2.7943 -1.7791 -0.2154
  494MOL0     H66638   3.138   1.762   4.170 -0.0353  2.3086 -1.7918
  494MOL0     H66639   3.182   1.922   4.423  1.3101  0.9117 -2.5789
  494MOL0     H66640   3.133   1.752   4.437 -0.8822  1.7801  2.2831
  494MOL0     H66641   3.422   1.981   4.423 -1.9117  0.2915 -0.2770
  494MOL0     H66642   3.741   1.818   4.297  3.0637 -0.4707  1.0386
  494MOL0     H66643   3.684   1.951   4.408  0.2497  0.6360  0.1789
  494MOL0     H66644   3.708   1.795   4.601 -2.8998 -1.4509 -0.8428
  494MOL0     H66645   3.739   1.665   4.495  0.8774 -0.8855  3.5725
  494MOL0     H66646   3.956   1.786   4.427  0.1989 -3.5583  0.2097
  494MOL0     H66647   3.933   1.693   4.580 -0.8624  0.9460  2.3675
  494MOL0     H66648   3.910   1.883   4.713  0.9425 -2.8896 -0.5471
  494MOL0     H66649   3.900   1.992   4.579  0.1497 -1.6992 -1.4655
  494MOL0     H66650   4.339   1.992   4.644  1.7506  0.4774  1.6970
  494MOL0     H66651   4.427   2.175   4.785 -0.4249  0.6453  0.0546
  494MOL0     H66652   4.413   2.620   4.859  1.0658  0.7124 -0.8209
  494MOL0     H66653   4.539   2.806   4.964 -2.6762  0.4255  1.2491
  494MOL0     H66654   4.818   2.840   5.094  0.5651  1.4826  0.6338
  494MOL0     H66655   4.679   2.950   5.064 -0.0294 -0.3065 -0.2692
  494MOL0     H66656   4.697   3.032   5.310  0.3388 -2.9048  1.7571
  494MOL0     H66657   4.838   2.924   5.334  0.3511 -1.9352 -0.9375
  494MOL0     H66658   4.832   3.138   5.113  0.5437 -1.5265 -0.6849
  494MOL0     H66659   4.844   3.181   5.287  2.1838 -2.6377  2.3439
  494MOL0     H66660   5.040   3.031   5.109  0.9602  0.4215 -0.2045
  494MOL0     H66661   5.039   2.991   5.280  2.7387 -0.5560 -1.5653
  494MOL0     H66662   5.226   3.168   5.255  0.9351 -0.9330 -0.9922
  494MOL0     H66663   5.079   3.243   5.332  2.2041 -0.1417  1.1102
  494MOL0     H66664   5.013   3.345   5.121  0.9658  1.2113  3.4993
  494MOL0     H66665   5.167   3.401   5.155 -0.3770  1.1198 -3.0517
  494MOL0     H66666   5.072   3.210   4.951 -0.3337 -0.8047  1.2559
  494MOL0     H66667   5.231   3.178   5.016 -2.1205 -0.9527  0.8368
  494MOL0     H66668   5.143   3.450   4.901 -1.1696 -0.7390  0.4730
  494MOL0     H66669   5.299   3.413   4.981 -0.9826 -0.2849  1.6465
  494MOL0     H66670   4.633   2.569   5.302 -2.0322  1.0891  1.5066
  494MOL0     H66671   4.525   2.359   5.188 -0.6338 -0.6698 -0.6973
  494MOL0     H66672   4.026   2.296   4.886 -0.6139 -0.9602 -0.3240
  494MOL0     H66673   3.940   2.130   4.726  0.1073  0.1929 -1.5254
  494MOL0     H66674   2.336   1.799   4.595  0.5025 -0.5087  0.4899
  494MOL0     H66675   2.134   1.691   4.693 -0.1651 -0.1213 -0.8362
  494MOL0     H66676   1.811   1.619   4.857  0.9783  0.3272  3.0617
  494MOL0     H66677   1.646   1.500   5.013  1.3594  2.2728  1.2414
  494MOL0     H66678   1.505   1.485   5.169 -0.4356  1.7335 -0.3260
  494MOL0     H66679   1.486   1.351   5.060 -1.6163 -1.5572  0.2756
  494MOL0     H66680   1.391   1.296   5.257  1.1446  0.1352 -1.2590
  494MOL0     H66681   1.254   1.299   5.136  0.1390 -1.7229  0.9782
  494MOL0     H66682   1.181   1.394   5.338  1.3340  2.0439  1.8462
  494MOL0     H66683   1.188   1.522   5.214 -0.8689 -1.0248 -1.4846
  494MOL0     H66684   1.404   1.599   5.315  0.5096 -1.7931 -2.4804
  494MOL0     H66685   1.266   1.617   5.418 -0.4031 -0.7610 -2.0967
  494MOL0     H66686   1.527   1.317   5.596 -3.0857 -0.1914  3.1734
  494MOL0     H66687   1.321   1.691   4.802 -0.1713  0.0899 -0.9760
  494MOL0     H66688   1.459   1.800   4.538 -1.9283  0.2413  0.4089
  494MOL0     H66689   1.343   1.859   4.656 -0.0282 -1.0644  2.0723
  494MOL0     H66690   1.488   1.938   4.648 -1.2595  0.5736  1.7729
  495MOL0     O66691  10.227   3.831   1.740 -0.0055  1.4262  0.4108
  495MOL0     C66692  10.162   3.839   1.846 -0.0320  0.0435 -0.7800
  495MOL0     O66693  10.216   3.807   1.970 -0.0116 -0.0457 -0.1177
  495MOL0     C66694  10.352   3.780   1.978 -0.9117  0.0661  0.8296
  495MOL0     C66695  10.415   3.676   1.908 -0.1054 -0.4410 -0.4320
  495MOL0     C66696  10.550   3.657   1.918 -0.3329 -0.6588  0.4294
  495MOL0     C66697  10.631   3.741   2.004 -0.7184  0.7823 -0.2282
  495MOL0     O66698  10.767   3.726   2.019  0.1738 -0.5638 -0.2464
  495MOL0     C66699  10.825   3.596   2.017  0.4224  0.4595 -0.5750
  495MOL0     C66700  10.977   3.601   2.050  0.0712 -0.6847  0.1487
  495MOL0     C66701  11.076   3.688   1.961  0.1270 -0.4658  0.1715
  495MOL0     C66702  11.215   3.697   2.013 -0.1980  0.4972 -0.1546
  495MOL0     C66703  11.235   3.776   2.140 -0.0663  0.7354 -0.6456
  495MOL0     C66704  11.378   3.762   2.194  0.4720 -0.4884 -0.6440
  495MOL0     C66705  11.387   3.833   2.338 -0.3019 -0.3454 -0.1193
  495MOL0     C66706  11.490   3.751   2.425  0.6036 -0.0176  0.5488
  495MOL0     N66707  11.619   3.821   2.421  0.1042 -0.6540  0.1678
  495MOL0     C66708  11.647   3.943   2.476  0.2622  0.5061  0.1030
  495MOL0     C66709  11.769   3.975   2.433  1.1319  0.1563  0.7166
  495MOL0     C66710  11.847   4.084   2.487  0.0977  0.0123 -0.8905
  495MOL0     C66711  11.977   4.026   2.543 -0.4183  0.4039  0.0802
  495MOL0     C66712  12.085   4.134   2.572  0.1336 -0.0413 -0.5055
  495MOL0     C66713  12.202   4.083   2.648  0.5214 -0.2046 -0.3306
  495MOL0     O66714  12.254   3.966   2.587 -0.4068  0.0200 -0.2223
  495MOL0     C66715  12.386   3.935   2.593  0.3929  0.2129  1.2851
  495MOL0     C66716  12.411   3.810   2.538  0.5995  0.2726 -0.2017
  495MOL0     C66717  12.545   3.772   2.533  0.3920  0.3203 -0.1232
  495MOL0     C66718  12.654   3.854   2.568  0.8754  0.1287  0.7316
  495MOL0     C66719  12.791   3.808   2.548 -0.6352 -0.2570  0.2878
  495MOL0     O66720  12.885   3.882   2.605  0.5422  0.3992  0.1362
  495MOL0     C66721  13.013   3.858   2.565  0.1266  0.4655  0.1018
  495MOL0     C66722  13.086   3.970   2.534  0.5150  0.5038 -0.3955
  495MOL0     C66723  13.228   3.953   2.512  1.1469  0.8270  0.1451
  495MOL0     C66724  13.298   3.831   2.519 -0.4395  0.0759  0.1323
  495MOL0     O66725  13.434   3.809   2.496  0.1517 -0.6890  0.0793
  495MOL0     C66726  13.525   3.886   2.574  0.3247  0.6046 -0.1237
  495MOL0     C66727  13.673   3.845   2.545  0.9707 -0.3057  0.3531
  495MOL0     C66728  13.762   3.950   2.612  0.3548 -0.4605  1.3286
  495MOL0     C66729  13.907   3.905   2.619 -0.3771  0.0012  0.3987
  495MOL0     C66730  13.982   4.043   2.636  0.2561  0.5472 -0.7761
  495MOL0     C66731  14.133   4.014   2.673 -0.6354 -0.3668  0.2200
  495MOL0     C66732  14.194   4.150   2.725 -0.1936 -0.4360  0.3983
  495MOL0     C66733  14.334   4.137   2.769  0.4764  0.6297  0.5051
  495MOL0    Cl66734  14.321   4.030   2.915 -0.6336  0.1041 -0.4602
  495MOL0     C66735  13.212   3.717   2.556 -0.0488 -0.9153  0.4590
  495MOL0     C66736  13.077   3.736   2.575 -0.0414 -0.0760  0.7552
  495MOL0     O66737  12.809   3.712   2.473  0.2219 -0.4440 -0.7351
  495MOL0     C66738  12.620   3.972   2.634 -0.3834  1.2944 -0.6061
  495MOL0     C66739  12.491   4.016   2.640 -0.5561  0.4819  0.5946
  495MOL0     N66740  11.808   3.881   2.333 -0.1782 -0.1330 -0.6790
  495MOL0     N66741  11.722   3.791   2.332  0.1064 -0.6060 -0.1258
  495MOL0     C66742  10.573   3.859   2.059 -0.3332 -0.3605  1.1395
  495MOL0     C66743  10.432   3.870   2.051 -1.1757  0.2070  0.3685
  495MOL0     C66744  10.029   3.902   1.828  0.5314 -0.0319  0.2870
  495MOL0     C66745   9.978   3.898   1.695 -0.5892  0.0286  0.6681
  495MOL0     C66746   9.856   3.964   1.663 -0.6125 -0.0503  0.4904
  495MOL0     C66747   9.788   4.037   1.765  0.1912  0.3883  1.1987
  495MOL0     O66748   9.673   4.106   1.740 -0.5110  0.4131 -0.0558
  495MOL0     C66749   9.555   4.071   1.812  0.5859 -0.4212  0.1333
  495MOL0     C66750   9.438   4.148   1.741  0.4741 -0.5978  0.0689
  495MOL0     C66751   9.441   4.303   1.770 -0.3397  0.2311 -0.0843
  495MOL0     C66752   9.320   4.380   1.723  0.4012 -0.2320  0.0390
  495MOL0     C66753   9.327   4.520   1.774 -0.1761  0.2497  0.3349
  495MOL0     C66754   9.320   4.630   1.821  0.1711 -0.9216  0.2158
  495MOL0     C66755   9.842   4.055   1.891 -0.3668 -0.6794 -0.1916
  495MOL0     C66756   9.964   3.989   1.921  0.3188 -0.7590  0.4590
  495MOL0     C66757  10.010   4.008   2.072  0.6651  0.4295  0.0318
  495MOL0     H66758  10.358   3.608   1.845 -5.1997 -1.5191  4.4863
  495MOL0     H66759  10.600   3.573   1.872  1.7663  1.8372 -2.2109
  495MOL0     H66760  10.773   3.522   2.079  1.1650  0.6187  0.2476
  495MOL0     H66761  10.821   3.566   1.912 -0.3217 -0.2144 -0.3604
  495MOL0     H66762  11.023   3.502   2.036  0.5748 -0.7327  1.8546
  495MOL0     H66763  10.980   3.623   2.157  1.8232  1.2015 -0.2266
  495MOL0     H66764  11.024   3.783   1.952 -0.4942 -0.4809  2.9225
  495MOL0     H66765  11.064   3.645   1.861 -3.2190  0.9312 -0.1359
  495MOL0     H66766  11.267   3.602   2.025  2.1160  1.2224 -3.2240
  495MOL0     H66767  11.278   3.750   1.941  3.3677 -0.0310  2.3201
  495MOL0     H66768  11.202   3.878   2.117 -1.4515  0.4321 -0.1003
  495MOL0     H66769  11.164   3.737   2.213  1.4259 -1.8479 -0.4777
  495MOL0     H66770  11.408   3.657   2.199  0.4507 -0.4681  0.0540
  495MOL0     H66771  11.445   3.814   2.125 -0.4564 -1.4254 -2.3155
  495MOL0     H66772  11.288   3.839   2.385 -0.4056  1.3107 -0.4791
  495MOL0     H66773  11.424   3.936   2.336  1.2406 -0.8681  0.1596
  495MOL0     H66774  11.450   3.740   2.527 -2.1655 -1.2473 -0.5656
  495MOL0     H66775  11.506   3.651   2.385  2.6019  1.1184 -1.7280
  495MOL0     H66776  11.583   3.994   2.547  1.0232  0.5837  0.7573
  495MOL0     H66777  11.884   4.145   2.404  3.7044  0.1055  0.5743
  495MOL0     H66778  11.782   4.130   2.562 -1.6709 -3.2358 -0.2300
  495MOL0     H66779  11.953   3.986   2.643 -0.2998 -0.5213 -0.2523
  495MOL0     H66780  12.015   3.950   2.474  2.6073  1.0065  0.9499
  495MOL0     H66781  12.031   4.203   2.637 -0.5901 -0.8080 -0.2813
  495MOL0     H66782  12.119   4.178   2.477 -2.7989  0.1204 -1.5780
  495MOL0     H66783  12.173   4.060   2.751 -1.2045  1.6035 -0.3413
  495MOL0     H66784  12.279   4.160   2.643  1.6139 -1.3495 -2.6868
  495MOL0     H66785  12.334   3.753   2.487  0.2614  0.4370  0.1149
  495MOL0     H66786  12.552   3.683   2.472  1.7310  0.8577 -0.7870
  495MOL0     H66787  13.035   4.065   2.528 -3.2149 -1.3041 -0.6284
  495MOL0     H66788  13.277   4.039   2.469 -2.5688  2.1638 -1.8746
  495MOL0     H66789  13.519   3.990   2.539 -0.0736  0.7455  0.3577
  495MOL0     H66790  13.495   3.878   2.678  1.4892  0.3894  0.2143
  495MOL0     H66791  13.696   3.744   2.582  2.6684  0.2107  0.7976
  495MOL0     H66792  13.682   3.841   2.436 -0.4942 -0.2366  0.2165
  495MOL0     H66793  13.756   4.035   2.543  1.5832 -0.9817  0.5381
  495MOL0     H66794  13.722   3.969   2.712 -0.7855 -1.5049  1.0937
  495MOL0     H66795  13.928   3.849   2.528  1.6336 -1.2129  1.5512
  495MOL0     H66796  13.912   3.839   2.706 -1.1355  0.1235  0.5476
  495MOL0     H66797  13.931   4.116   2.700  2.7039  1.2949  0.4238
  495MOL0     H66798  13.978   4.100   2.543  1.1908  1.9796  0.0274
  495MOL0     H66799  14.128   3.939   2.752  0.0083  0.9767  1.5727
  495MOL0     H66800  14.200   3.988   2.590 -1.1442 -1.7888  0.2262
  495MOL0     H66801  14.138   4.187   2.811 -0.1773  0.6724 -0.0449
  495MOL0     H66802  14.193   4.226   2.646 -1.9559 -1.9238 -1.1418
  495MOL0     H66803  14.399   4.093   2.693 -0.7762  1.0050 -0.8201
  495MOL0     H66804  14.370   4.233   2.809  1.6883 -0.6628  2.7224
  495MOL0     H66805  13.255   3.618   2.564 -0.6162 -1.1289  0.9372
  495MOL0     H66806  13.019   3.645   2.581  2.7161 -2.5088 -3.9236
  495MOL0     H66807  12.697   4.041   2.663  0.7334 -0.1271 -0.0550
  495MOL0     H66808  12.461   4.113   2.678 -1.5792  1.4256 -2.3466
  495MOL0     H66809  10.635   3.932   2.110  1.1882 -0.5576 -0.3339
  495MOL0     H66810  10.384   3.954   2.101 -4.3858 -0.7600 -0.7920
  495MOL0     H66811  10.030   3.836   1.622  0.1609  0.4804  0.8053
  495MOL0     H66812   9.809   3.953   1.566  1.0327 -0.1911 -0.3145
  495MOL0     H66813   9.553   4.098   1.919 -0.9917  0.5283 -0.0953
  495MOL0     H66814   9.534   3.964   1.804  0.3725 -0.3080 -0.8669
  495MOL0     H66815   9.344   4.102   1.773  0.0317  0.8199  0.9071
  495MOL0     H66816   9.449   4.135   1.633  1.3446  2.8612 -0.3736
  495MOL0     H66817   9.525   4.342   1.712 -1.6398  1.9327 -0.8948
  495MOL0     H66818   9.467   4.320   1.875  0.3342 -1.4585  0.0538
  495MOL0     H66819   9.303   4.371   1.615  0.4901 -2.4805  0.1647
  495MOL0     H66820   9.225   4.341   1.759 -2.1989  1.9215 -3.7671
  495MOL0     H66821   9.301   4.728   1.858 -1.1293 -1.0111 -0.1339
  495MOL0     H66822   9.795   4.114   1.969 -1.3040 -2.4653  0.6706
  495MOL0     H66823  10.113   4.046   2.078 -0.0567  2.3527  1.0877
  495MOL0     H66824   9.948   4.088   2.113 -0.5023 -1.1071  1.3733
  495MOL0     H66825   9.990   3.922   2.136 -0.5196  3.0210  3.4670
  496MOL0     O66826   7.041   7.716   8.165 -0.3992 -0.1274  0.0940
  496MOL0     C66827   7.011   7.603   8.135  0.4885  0.8628  0.1444
  496MOL0     O66828   7.103   7.500   8.119 -0.0479 -0.6271  0.6490
  496MOL0     C66829   7.234   7.543   8.106 -0.0385 -0.7151 -0.0360
  496MOL0     C66830   7.309   7.553   8.230 -0.1666 -0.2034  0.7675
  496MOL0     C66831   7.453   7.559   8.224  0.8583 -0.2124  0.0010
  496MOL0     C66832   7.507   7.600   8.103 -0.0290 -0.4225  0.0953
  496MOL0     O66833   7.629   7.652   8.087  0.1480  0.8187 -0.1039
  496MOL0     C66834   7.722   7.673   8.203  0.3160  0.1111 -0.1700
  496MOL0     C66835   7.860   7.694   8.147 -0.2101 -0.0114 -0.0817
  496MOL0     C66836   7.966   7.719   8.261 -0.6338  0.5937  0.8778
  496MOL0     C66837   8.098   7.744   8.191 -0.5965 -0.5316 -0.5197
  496MOL0     C66838   8.207   7.765   8.296  0.1614 -0.1355 -0.1112
  496MOL0     C66839   8.231   7.917   8.321 -0.3299  0.2361  0.4855
  496MOL0     C66840   8.358   7.937   8.405  0.3025 -0.1002  0.4152
  496MOL0     C66841   8.375   7.868   8.543 -0.0888  0.3651 -0.4398
  496MOL0     N66842   8.499   7.913   8.617  0.1004 -0.1885  0.6127
  496MOL0     C66843   8.627   7.901   8.574  0.5499  0.7120 -0.3096
  496MOL0     C66844   8.702   7.918   8.687  0.6766 -0.1311 -0.8215
  496MOL0     C66845   8.851   7.894   8.707 -0.0126 -0.0450  0.6820
  496MOL0     C66846   8.885   7.814   8.837  0.1881  0.5134 -1.0439
  496MOL0     C66847   9.036   7.789   8.856  0.1083  0.1738 -0.4622
  496MOL0     C66848   9.120   7.915   8.874  0.0109 -0.3533 -0.1748
  496MOL0     O66849   9.234   7.886   8.957 -0.3108 -0.2381  0.3137
  496MOL0     C66850   9.324   7.989   8.980  0.7836 -0.7537 -0.0039
  496MOL0     C66851   9.301   8.125   8.962 -0.1662  0.2409  0.2678
  496MOL0     C66852   9.408   8.212   8.979  0.3257  0.3614  0.3544
  496MOL0     C66853   9.531   8.162   9.039 -0.0072 -0.0761 -0.0215
  496MOL0     C66854   9.646   8.251   9.059 -0.0117 -0.4990 -0.1696
  496MOL0     O66855   9.684   8.338   8.958  0.2238 -0.3182  0.0571
  496MOL0     C66856   9.807   8.398   8.958 -0.1020  0.8249 -0.1720
  496MOL0     C66857   9.826   8.532   8.918  0.2188 -0.4012  0.0183
  496MOL0     C66858   9.954   8.591   8.919 -0.7788 -0.2271 -0.1146
  496MOL0     C66859  10.067   8.510   8.949 -0.1019  0.3579  0.0594
  496MOL0     O66860  10.194   8.563   8.954  0.1469  0.3617 -0.6294
  496MOL0     C66861  10.274   8.518   8.847  0.4381 -0.4270  0.8504
  496MOL0     C66862  10.375   8.621   8.795  0.6121 -0.4952 -0.3273
  496MOL0     C66863  10.307   8.751   8.767 -0.1135 -1.0399 -0.5208
  496MOL0     C66864  10.279   8.760   8.614 -0.3843  0.2172  0.5787
  496MOL0     C66865  10.199   8.891   8.592 -0.3791 -0.7221  0.0077
  496MOL0     C66866  10.186   8.940   8.442 -1.1406  0.6354 -0.7808
  496MOL0     C66867  10.104   8.839   8.367  0.0448 -0.0921  0.0125
  496MOL0     C66868  10.091   8.864   8.218  0.6933  0.1253  0.1843
  496MOL0    Cl66869  10.043   8.702   8.154 -0.5207 -0.0906  0.2088
  496MOL0     C66870  10.046   8.372   8.969 -0.2664  0.2055  0.1478
  496MOL0     C66871   9.920   8.313   8.979 -0.5808  0.3716  0.1808
  496MOL0     O66872   9.698   8.251   9.170 -0.4152  0.8456  0.1810
  496MOL0     C66873   9.543   8.025   9.073  0.7729 -0.4102 -0.2255
  496MOL0     C66874   9.441   7.940   9.037  1.2706  0.0827  0.0518
  496MOL0     N66875   8.620   7.954   8.795 -0.0909  0.2049  0.6272
  496MOL0     N66876   8.499   7.953   8.746 -0.6552  0.3989  0.2652
  496MOL0     C66877   7.426   7.606   7.988 -0.4998  0.0340  0.4680
  496MOL0     C66878   7.288   7.585   7.987 -0.1488  0.4825 -0.1293
  496MOL0     C66879   6.865   7.556   8.096  0.0928  0.5269 -0.6318
  496MOL0     C66880   6.851   7.421   8.075  0.2931 -0.5235 -0.1515
  496MOL0     C66881   6.728   7.364   8.053  0.6401 -0.3092  0.3446
  496MOL0     C66882   6.612   7.451   8.051 -0.5957  1.5572  0.0887
  496MOL0     O66883   6.491   7.398   8.025 -0.1959  0.1950 -0.1137
  496MOL0     C66884   6.396   7.384   8.130  0.4932  0.4892 -0.9203
  496MOL0     C66885   6.283   7.484   8.120 -0.5200 -0.6320 -0.2461
  496MOL0     C66886   6.176   7.425   8.034  0.6832 -0.8211 -0.1073
  496MOL0     C66887   6.061   7.527   7.987 -0.3165 -0.1712  0.0737
  496MOL0     C66888   5.972   7.481   7.879  0.2910 -0.6079  0.2486
  496MOL0     C66889   5.912   7.445   7.778  0.6622  0.3845 -0.0423
  496MOL0     C66890   6.629   7.587   8.072 -0.4780 -0.0683  0.5445
  496MOL0     C66891   6.753   7.644   8.096  0.1546  0.2228 -1.2070
  496MOL0     C66892   6.759   7.785   8.149  0.1668 -0.2468  0.2480
  496MOL0     H66893   7.253   7.553   8.323 -0.1121  0.8878  0.8151
  496MOL0     H66894   7.507   7.568   8.317 -1.9252 -2.4128  1.9952
  496MOL0     H66895   7.685   7.754   8.267 -4.3129 -2.1132  0.4142
  496MOL0     H66896   7.739   7.581   8.260  1.7433  0.2155 -0.3977
  496MOL0     H66897   7.862   7.786   8.087  1.1917 -0.2932 -0.5128
  496MOL0     H66898   7.889   7.608   8.086 -0.2721  1.3473 -2.1308
  496MOL0     H66899   7.970   7.628   8.322 -2.1793  1.5139  2.4513
  496MOL0     H66900   7.927   7.794   8.330 -2.6267 -0.9286  1.5313
  496MOL0     H66901   8.118   7.653   8.133 -2.7123 -1.2576 -0.1807
  496MOL0     H66902   8.092   7.831   8.126 -0.0230 -0.4952 -0.5286
  496MOL0     H66903   8.199   7.705   8.387 -2.8565 -0.9926 -0.8345
  496MOL0     H66904   8.298   7.734   8.243 -0.0956 -2.5731  0.7668
  496MOL0     H66905   8.243   7.972   8.228  0.2191  1.4533  1.2501
  496MOL0     H66906   8.146   7.962   8.372  0.0011  0.2857  1.0036
  496MOL0     H66907   8.359   8.042   8.435 -1.7210 -0.6483  2.7565
  496MOL0     H66908   8.432   7.901   8.334  0.5125  0.8538  0.1413
  496MOL0     H66909   8.294   7.894   8.612  2.1555  2.2636  1.6400
  496MOL0     H66910   8.380   7.760   8.525 -0.0909  0.5370 -1.5933
  496MOL0     H66911   8.667   7.851   8.486 -0.2239 -2.4898  0.9879
  496MOL0     H66912   8.874   7.834   8.619 -1.1922 -1.0006  1.0111
  496MOL0     H66913   8.888   7.997   8.713 -5.3692  2.5624 -2.9461
  496MOL0     H66914   8.855   7.877   8.922  0.1774  0.9282 -1.3543
  496MOL0     H66915   8.823   7.724   8.842 -0.3060  0.5666 -4.2121
  496MOL0     H66916   9.078   7.733   8.772  1.8824 -0.4861  0.7850
  496MOL0     H66917   9.049   7.728   8.946  0.8533  0.5269 -0.3196
  496MOL0     H66918   9.064   7.994   8.923 -0.4069 -0.5747 -0.2944
  496MOL0     H66919   9.155   7.954   8.778 -0.7324 -1.2588 -0.8338
  496MOL0     H66920   9.213   8.181   8.933  2.0336  3.0923 -1.4355
  496MOL0     H66921   9.401   8.319   8.960  0.2973  0.0524 -1.5467
  496MOL0     H66922   9.747   8.588   8.870 -1.5724  0.3851  3.5199
  496MOL0     H66923   9.972   8.695   8.892  0.5111 -1.3019 -3.9216
  496MOL0     H66924  10.327   8.424   8.868  0.3585 -1.4393 -2.6780
  496MOL0     H66925  10.212   8.495   8.760 -1.3964 -2.3041  2.5645
  496MOL0     H66926  10.465   8.637   8.855  1.2590 -2.2463 -0.7900
  496MOL0     H66927  10.407   8.573   8.703 -1.5151 -0.2000 -1.2748
  496MOL0     H66928  10.210   8.763   8.816 -0.1010 -1.4854 -0.3810
  496MOL0     H66929  10.377   8.832   8.792  1.2927 -2.7940  1.5954
  496MOL0     H66930  10.215   8.673   8.595  1.0593 -1.7713  3.7767
  496MOL0     H66931  10.371   8.742   8.558 -0.9213  0.0706 -0.2714
  496MOL0     H66932  10.259   8.965   8.646  1.5004 -1.6649 -0.7156
  496MOL0     H66933  10.099   8.886   8.636 -1.1426 -2.8619 -1.7798
  496MOL0     H66934  10.133   9.035   8.433  0.4672  1.8111  1.1341
  496MOL0     H66935  10.284   8.947   8.393 -1.1783  0.6657 -0.8506
  496MOL0     H66936  10.004   8.840   8.409  0.7191  0.9604  1.7075
  496MOL0     H66937  10.155   8.742   8.373 -1.7631 -1.0880 -0.1206
  496MOL0     H66938  10.012   8.933   8.188  0.3932 -0.6778 -0.9459
  496MOL0     H66939  10.186   8.900   8.176 -0.2630  1.0431 -1.2714
  496MOL0     H66940  10.139   8.317   8.986  0.3499  0.7096 -1.3990
  496MOL0     H66941   9.907   8.208   9.000 -0.5347  0.2893 -0.1915
  496MOL0     H66942   9.624   7.999   9.140 -0.6652  1.5727  2.4760
  496MOL0     H66943   9.436   7.833   9.050 -0.0598  0.1869  0.5160
  496MOL0     H66944   7.472   7.632   7.894  3.0982 -0.5199  1.8934
  496MOL0     H66945   7.220   7.590   7.902  0.4755  0.7206 -0.6264
  496MOL0     H66946   6.929   7.346   8.086  0.0119 -0.8766 -0.5201
  496MOL0     H66947   6.720   7.257   8.036  1.9152 -0.4631  0.5916
  496MOL0     H66948   6.449   7.396   8.225  1.0828  2.4941 -1.4359
  496MOL0     H66949   6.348   7.286   8.123  1.5445  0.0225 -1.9098
  496MOL0     H66950   6.318   7.579   8.079  0.8594  0.4367  3.0708
  496MOL0     H66951   6.249   7.504   8.222  1.3119 -0.3214  0.3365
  496MOL0     H66952   6.135   7.353   8.105 -2.0897  2.1084  1.5186
  496MOL0     H66953   6.213   7.380   7.941  0.3390 -0.2980 -0.5061
  496MOL0     H66954   5.990   7.549   8.068 -2.1913 -2.8683 -0.6997
  496MOL0     H66955   6.111   7.618   7.951  1.9432 -1.0913  0.7307
  496MOL0     H66956   5.878   7.402   7.686  3.0589 -3.0263  0.4588
  496MOL0     H66957   6.540   7.649   8.075 -1.8303 -1.8955 -0.3652
  496MOL0     H66958   6.786   7.788   8.255 -0.0592  1.8124  0.2895
  496MOL0     H66959   6.819   7.852   8.085 -1.0169  0.1637 -0.4622
  496MOL0     H66960   6.658   7.824   8.158  0.0491 -0.3826 -0.3790
  497MOL0     O66961   3.532  11.125   1.012  0.4062  0.6090 -0.6489
  497MOL0     C66962   3.459  11.034   1.043 -1.0085 -0.4320  0.0406
  497MOL0     O66963   3.489  10.905   1.032 -0.8249 -0.1893 -0.4810
  497MOL0     C66964   3.620  10.874   1.020 -0.3203 -0.3967 -0.8166
  497MOL0     C66965   3.678  10.869   0.896  0.2384  0.6805  0.7785
  497MOL0     C66966   3.812  10.825   0.879 -0.3019 -0.2929  0.1958
  497MOL0     C66967   3.885  10.784   0.996 -0.4762 -0.2251  0.1538
  497MOL0     O66968   4.011  10.732   0.991  0.8077  0.0807 -0.0511
  497MOL0     C66969   4.104  10.785   0.902  0.0534  0.3261  0.1337
  497MOL0     C66970   4.247  10.787   0.952 -0.4412  0.7158 -0.2493
  497MOL0     C66971   4.348  10.791   0.843  0.6023 -0.0369 -0.6425
  497MOL0     C66972   4.484  10.793   0.916 -0.5476  0.0491 -0.0627
  497MOL0     C66973   4.590  10.775   0.806  0.0299  0.8029 -0.4783
  497MOL0     C66974   4.721  10.829   0.852  0.1810 -0.3360 -0.3136
  497MOL0     C66975   4.843  10.807   0.761  0.2479  0.0900 -0.5472
  497MOL0     C66976   4.966  10.890   0.806  0.2911  0.0966 -0.8644
  497MOL0     N66977   5.090  10.862   0.728 -0.2679 -0.2233 -0.7280
  497MOL0     C66978   5.139  10.734   0.720  0.1795  0.1951 -0.1211
  497MOL0     C66979   5.244  10.747   0.631  0.0814  0.6663  0.0042
  497MOL0     C66980   5.335  10.640   0.568 -0.8219 -0.0776  0.4211
  497MOL0     C66981   5.485  10.676   0.548  0.7788  0.4495  0.4817
  497MOL0     C66982   5.548  10.717   0.674  0.1841 -0.8695  0.4654
  497MOL0     C66983   5.703  10.731   0.655 -0.6942 -0.3530  0.3605
  497MOL0     O66984   5.765  10.724   0.788 -0.1603 -0.2623  0.4016
  497MOL0     C66985   5.894  10.757   0.802 -0.4320  0.4814  0.0004
  497MOL0     C66986   5.976  10.781   0.690  0.3990 -0.2407 -0.5142
  497MOL0     C66987   6.104  10.810   0.714  0.2146  0.3990  0.0651
  497MOL0     C66988   6.155  10.826   0.841  0.1208 -0.8722  0.3040
  497MOL0     C66989   6.299  10.864   0.865 -0.2151 -0.4721 -0.0943
  497MOL0     O66990   6.385  10.883   0.763  0.5068 -0.6473  0.1495
  497MOL0     C66991   6.517  10.910   0.798  0.7708  0.0408  0.6495
  497MOL0     C66992   6.561  11.037   0.831  0.5360  0.4645  0.6943
  497MOL0     C66993   6.695  11.072   0.846 -0.3393  0.1340  0.4705
  497MOL0     C66994   6.794  10.974   0.832  0.1603 -0.1342  0.5027
  497MOL0     O66995   6.922  11.019   0.847 -0.0792 -0.5127  0.0958
  497MOL0     C66996   7.029  10.925   0.819  0.2413 -0.0254  0.2763
  497MOL0     C66997   7.166  10.973   0.864 -0.7391  0.2679 -0.1275
  497MOL0     C66998   7.286  10.877   0.845 -0.4730  0.8087 -0.2319
  497MOL0     C66999   7.416  10.962   0.862 -0.0402 -0.0159  0.3463
  497MOL0     C67000   7.551  10.895   0.897 -0.5874  0.2540 -0.6538
  497MOL0     C67001   7.666  10.996   0.910 -0.0996 -0.0087 -1.1356
  497MOL0     C67002   7.787  10.928   0.969 -0.1606 -0.5156 -0.6688
  497MOL0     C67003   7.906  11.026   0.973  0.0757 -0.2933  0.6074
  497MOL0    Cl67004   8.025  10.950   1.098  0.0298 -0.3376 -0.1240
  497MOL0     C67005   6.755  10.853   0.798 -0.3484  0.5405  0.6333
  497MOL0     C67006   6.621  10.816   0.780 -0.2776  0.5195 -0.3177
  497MOL0     O67007   6.322  10.889   0.988  0.5377  0.6245  0.2508
  497MOL0     C67008   6.074  10.794   0.951  0.0741 -0.2027  0.4404
  497MOL0     C67009   5.940  10.757   0.938  0.3571  0.2940  0.0459
  497MOL0     N67010   5.252  10.883   0.591  0.2723 -0.3178  0.5200
  497MOL0     N67011   5.161  10.952   0.656 -0.1232  0.0421 -0.2986
  497MOL0     C67012   3.840  10.817   1.131  0.1314 -0.1082 -0.0599
  497MOL0     C67013   3.704  10.856   1.138  0.7189 -0.4977 -0.0415
  497MOL0     C67014   3.331  11.072   1.110 -0.1778 -0.2077  0.9272
  497MOL0     C67015   3.273  10.979   1.198 -0.3971 -0.1361 -0.4425
  497MOL0     C67016   3.149  11.004   1.271  0.8421 -0.0997  0.1734
  497MOL0     C67017   3.079  11.125   1.241 -1.3378  0.0915  0.2950
  497MOL0     O67018   2.959  11.144   1.297  0.8623  0.1553  0.2825
  497MOL0     C67019   2.857  11.057   1.241  0.4458  0.7245 -0.4162
  497MOL0     C67020   2.721  11.099   1.313  0.3889  0.0808 -0.5129
  497MOL0     C67021   2.612  10.985   1.289 -1.0507  0.0418 -0.8404
  497MOL0     C67022   2.519  11.012   1.167 -0.3138  0.4049  0.5731
  497MOL0     C67023   2.400  10.936   1.171 -0.2289  0.3468 -0.3796
  497MOL0     C67024   2.291  10.889   1.141  0.3586 -0.6532  0.2803
  497MOL0     C67025   3.129  11.207   1.145 -0.0501 -0.0448  0.2632
  497MOL0     C67026   3.254  11.185   1.081  0.2496  0.1675  0.9969
  497MOL0     C67027   3.298  11.294   0.990  0.1540  0.6318 -0.1917
  497MOL0     H67028   3.609  10.896   0.818  1.0651  1.1665  0.1965
  497MOL0     H67029   3.846  10.791   0.782  1.1156 -1.2897  0.9913
  497MOL0     H67030   4.108  10.729   0.808  3.0228  0.3122  0.1776
  497MOL0     H67031   4.082  10.892   0.892 -1.0772  0.2270  1.3403
  497MOL0     H67032   4.259  10.694   1.009 -1.2577  2.3853  2.8263
  497MOL0     H67033   4.264  10.869   1.022  3.3554 -0.4008  0.3517
  497MOL0     H67034   4.333  10.881   0.782  1.7314 -0.7478 -2.0242
  497MOL0     H67035   4.333  10.706   0.776 -3.7368  1.2826 -1.6611
  497MOL0     H67036   4.487  10.892   0.964 -1.0483 -0.1375  0.3573
  497MOL0     H67037   4.496  10.717   0.994  0.4430  1.0499  0.8093
  497MOL0     H67038   4.593  10.671   0.775  2.3771  0.5573  0.3049
  497MOL0     H67039   4.566  10.832   0.716  0.5418  1.7152 -0.0589
  497MOL0     H67040   4.718  10.935   0.877  0.1016 -0.1009 -1.2590
  497MOL0     H67041   4.750  10.786   0.948  0.0410 -1.9177 -0.9481
  497MOL0     H67042   4.818  10.823   0.656 -0.4322  0.6175 -0.3054
  497MOL0     H67043   4.871  10.702   0.771  2.3669  0.6529 -0.0204
  497MOL0     H67044   4.930  10.992   0.795  2.2692  0.8521 -0.7080
  497MOL0     H67045   4.981  10.884   0.914 -1.4767  0.9013 -0.5370
  497MOL0     H67046   5.100  10.649   0.776  0.6587  0.2962  0.3815
  497MOL0     H67047   5.333  10.552   0.632  0.0130 -1.0660 -0.8712
  497MOL0     H67048   5.294  10.605   0.473 -0.9463 -3.6344  1.6609
  497MOL0     H67049   5.532  10.589   0.501  3.1325  0.4490  2.6592
  497MOL0     H67050   5.498  10.755   0.473 -0.3217  0.1450 -0.0501
  497MOL0     H67051   5.522  10.637   0.745  1.0619 -1.4653  0.1366
  497MOL0     H67052   5.489  10.803   0.705 -3.6341 -3.0023 -0.2522
  497MOL0     H67053   5.718  10.829   0.609  0.1871  0.1124  1.5719
  497MOL0     H67054   5.743  10.654   0.588  1.2274  1.4939 -0.7680
  497MOL0     H67055   5.946  10.780   0.586  0.6750 -0.0749 -0.5974
  497MOL0     H67056   6.165  10.823   0.625  0.3235 -2.7834 -0.4205
  497MOL0     H67057   6.486  11.115   0.838 -0.0134 -0.0998  1.1431
  497MOL0     H67058   6.727  11.176   0.847 -1.1685  0.6248 -3.6141
  497MOL0     H67059   7.019  10.830   0.871 -0.0657 -1.8327 -2.8538
  497MOL0     H67060   7.036  10.914   0.710 -0.3411  1.7694  0.0172
  497MOL0     H67061   7.185  11.068   0.813 -1.5428  0.3313 -0.3209
  497MOL0     H67062   7.157  10.997   0.970 -0.2514 -0.9537  0.2115
  497MOL0     H67063   7.284  10.786   0.905 -2.4875  1.3329  0.5880
  497MOL0     H67064   7.273  10.836   0.745 -4.2022 -1.1320  0.8602
  497MOL0     H67065   7.393  11.045   0.929 -1.3128  1.6006 -1.9142
  497MOL0     H67066   7.426  11.010   0.764  0.5772 -0.7148  0.0529
  497MOL0     H67067   7.573  10.821   0.820  1.4317  0.9205 -0.7502
  497MOL0     H67068   7.535  10.843   0.992  1.4420  1.0637  0.1789
  497MOL0     H67069   7.679  11.041   0.811 -4.8450  2.4741 -0.9579
  497MOL0     H67070   7.631  11.079   0.973 -1.7163  0.1866 -2.2257
  497MOL0     H67071   7.811  10.830   0.928  0.5211 -0.8006  0.3567
  497MOL0     H67072   7.768  10.904   1.074  0.7141  0.4503 -0.2668
  497MOL0     H67073   7.950  11.047   0.875  0.3773  1.1655  1.0267
  497MOL0     H67074   7.868  11.121   1.013 -0.5682 -0.5867  0.6979
  497MOL0     H67075   6.825  10.770   0.787 -1.3712 -0.0697 -2.1939
  497MOL0     H67076   6.607  10.710   0.760  3.8434 -0.0614 -0.9672
  497MOL0     H67077   6.118  10.802   1.050 -0.8290  2.1650  0.7017
  497MOL0     H67078   5.885  10.731   1.027 -2.4212  2.6356 -0.8125
  497MOL0     H67079   3.903  10.802   1.218  1.7091  0.1706 -1.1186
  497MOL0     H67080   3.659  10.877   1.235  0.2024 -3.1157  0.3662
  497MOL0     H67081   3.335  10.894   1.226  1.2965  1.2303  0.0999
  497MOL0     H67082   3.086  10.928   1.315 -0.0773 -1.9029 -3.7675
  497MOL0     H67083   2.867  10.948   1.251  0.8501  0.5719 -2.1667
  497MOL0     H67084   2.855  11.068   1.132  1.3464 -2.1782 -0.8137
  497MOL0     H67085   2.688  11.197   1.278  2.2604  2.3009  3.2943
  497MOL0     H67086   2.743  11.118   1.419  0.2848  1.3691 -0.7117
  497MOL0     H67087   2.547  10.983   1.376  1.2248 -0.8708  0.9289
  497MOL0     H67088   2.655  10.885   1.280 -1.0443 -0.0404  0.0413
  497MOL0     H67089   2.484  11.116   1.168 -2.6917 -0.3341  0.0657
  497MOL0     H67090   2.581  10.987   1.080  0.2007 -0.5931  1.2174
  497MOL0     H67091   2.201  10.847   1.103 -0.9117  0.8547  1.4874
  497MOL0     H67092   3.073  11.295   1.114 -2.5320 -1.7723 -0.4022
  497MOL0     H67093   3.379  11.357   1.027  1.9993 -0.7999 -1.5459
  497MOL0     H67094   3.336  11.251   0.896 -1.4798  1.6887 -1.3826
  497MOL0     H67095   3.220  11.366   0.966  0.6525  1.0072 -0.7077
  498MOL0     O67096   1.227   4.833   6.286  0.1755 -0.1239 -0.2615
  498MOL0     C67097   1.276   4.888   6.383  0.1473  0.1434 -0.5961
  498MOL0     O67098   1.221   4.953   6.484  0.0865  0.1988  0.2145
  498MOL0     C67099   1.096   5.000   6.459  0.2116  0.6941 -0.4484
  498MOL0     C67100   1.083   5.119   6.376  0.9168  0.5548  0.1091
  498MOL0     C67101   0.954   5.166   6.347  0.4538  0.1416 -0.1449
  498MOL0     C67102   0.839   5.104   6.388  0.3254  0.3578  0.5065
  498MOL0     O67103   0.717   5.154   6.350  0.2008 -0.8188  0.3165
  498MOL0     C67104   0.633   5.198   6.460  0.5849  0.3020  0.5817
  498MOL0     C67105   0.491   5.163   6.418  0.4118  0.0923  0.3316
  498MOL0     C67106   0.445   5.239   6.286 -0.1736 -0.9502 -0.1663
  498MOL0     C67107   0.300   5.204   6.259  0.4153 -0.0835  0.7293
  498MOL0     C67108   0.255   5.261   6.116  0.9795  0.3601  0.3755
  498MOL0     C67109   0.169   5.388   6.117 -0.3138  0.1193 -0.2862
  498MOL0     C67110   0.132   5.437   5.981  0.7667 -0.5204  0.0194
  498MOL0     C67111   0.062   5.577   6.001  0.4435 -0.3621  0.3879
  498MOL0     N67112  -0.002   5.629   5.874 -0.9905 -0.3919  1.3024
  498MOL0     C67113   0.069   5.664   5.755 -0.2673  0.0903  0.3842
  498MOL0     C67114  -0.033   5.694   5.661 -0.3778  0.3230 -0.5723
  498MOL0     C67115  -0.015   5.730   5.513  0.4624  0.1234  0.7973
  498MOL0     C67116   0.093   5.834   5.502 -0.6871  0.4062  0.3275
  498MOL0     C67117   0.124   5.850   5.351 -0.3687 -0.0631  0.1755
  498MOL0     C67118   0.219   5.970   5.318  0.7649 -1.0287 -0.7766
  498MOL0     O67119   0.341   5.973   5.396  0.2638  0.0893 -0.0139
  498MOL0     C67120   0.427   5.870   5.387  1.1822  0.6166  0.8158
  498MOL0     C67121   0.516   5.860   5.491 -0.4947  0.2284  0.2039
  498MOL0     C67122   0.616   5.767   5.487 -0.7670  0.5254  0.3930
  498MOL0     C67123   0.622   5.677   5.379  1.0341  0.0309 -0.3883
  498MOL0     C67124   0.724   5.576   5.371 -1.1499  0.6770 -0.1847
  498MOL0     O67125   0.743   5.513   5.248  0.3963  0.2838 -0.4451
  498MOL0     C67126   0.842   5.416   5.244  0.3555 -0.0927  0.0712
  498MOL0     C67127   0.966   5.464   5.186 -0.4183  0.3377  0.0056
  498MOL0     C67128   1.070   5.368   5.158 -0.1334 -0.5955 -0.8131
  498MOL0     C67129   1.067   5.241   5.213  0.6682  0.2183  0.6838
  498MOL0     O67130   1.168   5.154   5.212 -0.0362 -0.7197  0.3399
  498MOL0     C67131   1.305   5.201   5.184 -0.3031  0.9350 -0.3996
  498MOL0     C67132   1.402   5.107   5.259  0.2271  0.8841 -0.9198
  498MOL0     C67133   1.547   5.148   5.236 -0.0367 -0.0598  0.1784
  498MOL0     C67134   1.632   5.083   5.349  0.1877  0.2844  0.0500
  498MOL0     C67135   1.783   5.117   5.336  0.2966 -0.2764  0.0725
  498MOL0     C67136   1.863   5.059   5.452 -0.1502  0.3149  0.3957
  498MOL0     C67137   2.018   5.060   5.424  0.7214 -0.2841 -0.2050
  498MOL0     C67138   2.102   5.051   5.553  0.4000  0.1754 -0.6932
  498MOL0    Cl67139   2.073   4.889   5.634 -0.2458 -0.0305  0.2252
  498MOL0     C67140   0.944   5.197   5.257  0.7697  0.2162 -0.0101
  498MOL0     C67141   0.824   5.277   5.264 -0.2698 -0.3721 -0.3369
  498MOL0     O67142   0.790   5.547   5.475  0.6617  0.2831  0.7756
  498MOL0     C67143   0.522   5.673   5.289 -0.7353 -0.0850  0.1539
  498MOL0     C67144   0.427   5.771   5.281  1.0380 -0.6119  0.5190
  498MOL0     N67145  -0.154   5.694   5.734 -0.0629 -0.3281 -0.2220
  498MOL0     N67146  -0.132   5.656   5.857  0.4916 -0.0672 -0.2646
  498MOL0     C67147   0.852   4.984   6.451 -0.4586  0.2899  0.2141
  498MOL0     C67148   0.977   4.929   6.493  0.1861 -0.1965  0.2436
  498MOL0     C67149   1.417   4.871   6.409 -0.1867  0.1743  0.4385
  498MOL0     C67150   1.461   4.777   6.506 -0.3845  0.0481  0.0832
  498MOL0     C67151   1.601   4.743   6.511  0.5183 -0.4905  0.1307
  498MOL0     C67152   1.690   4.806   6.436 -0.3751  0.1475  0.1841
  498MOL0     O67153   1.816   4.771   6.478  0.2548 -0.3609  0.0209
  498MOL0     C67154   1.934   4.843   6.433  0.1067  0.0727 -0.8148
  498MOL0     C67155   2.055   4.795   6.515 -0.5742 -0.4261 -0.5652
  498MOL0     C67156   2.185   4.873   6.505 -0.3505  0.2395 -0.1304
  498MOL0     C67157   2.254   4.855   6.376  0.0257  0.1844  0.1656
  498MOL0     C67158   2.378   4.930   6.378 -0.9034 -0.1004 -0.6451
  498MOL0     C67159   2.477   5.000   6.382  0.4146  0.0229 -0.0428
  498MOL0     C67160   1.651   4.891   6.334 -0.2910 -0.0701  0.4073
  498MOL0     C67161   1.513   4.934   6.330  0.7697 -0.1529  0.4798
  498MOL0     C67162   1.477   5.039   6.226 -0.6897  0.6565 -0.4845
  498MOL0     H67163   1.170   5.181   6.355  0.0409  1.7673 -0.0513
  498MOL0     H67164   0.938   5.262   6.299  0.7379  0.9331  1.2879
  498MOL0     H67165   0.651   5.148   6.555  0.1586 -1.7416 -0.3451
  498MOL0     H67166   0.637   5.305   6.481 -1.1599  0.5370 -0.0446
  498MOL0     H67167   0.425   5.206   6.494 -3.5480  0.3576 -2.9250
  498MOL0     H67168   0.468   5.057   6.407  0.4636 -0.1711  2.2949
  498MOL0     H67169   0.510   5.214   6.202  0.1606  1.3017 -0.6620
  498MOL0     H67170   0.455   5.348   6.292  1.4559 -1.1631  1.6549
  498MOL0     H67171   0.287   5.096   6.253 -1.7235 -0.0682  3.1903
  498MOL0     H67172   0.231   5.236   6.337 -0.4016  0.6131 -0.2433
  498MOL0     H67173   0.347   5.284   6.062  0.9734  1.6146  0.8473
  498MOL0     H67174   0.198   5.186   6.061  0.3476  3.2686 -3.3504
  498MOL0     H67175   0.080   5.364   6.177 -0.5265 -0.8676 -0.9669
  498MOL0     H67176   0.224   5.468   6.167 -1.7965  0.1016  1.4988
  498MOL0     H67177   0.063   5.366   5.935 -0.0828  1.1456 -1.3687
  498MOL0     H67178   0.216   5.461   5.916 -1.3858  1.5940 -2.1787
  498MOL0     H67179  -0.018   5.572   6.075 -0.1890  0.7098 -0.2073
  498MOL0     H67180   0.138   5.648   6.034 -0.4162  0.0464  1.5472
  498MOL0     H67181   0.177   5.652   5.750 -0.4128 -1.0410 -0.6168
  498MOL0     H67182   0.019   5.645   5.454  4.1200  2.7416 -1.2601
  498MOL0     H67183  -0.105   5.772   5.468  0.0433  1.7703  2.9476
  498MOL0     H67184   0.051   5.928   5.539  1.0599  1.0326  0.8055
  498MOL0     H67185   0.178   5.800   5.563 -0.3907  0.2105 -0.1867
  498MOL0     H67186   0.035   5.869   5.290 -1.3689 -0.3012  1.4900
  498MOL0     H67187   0.173   5.756   5.326  1.8802  1.1361 -0.1309
  498MOL0     H67188   0.162   6.062   5.332  0.3130 -1.7048  2.5954
  498MOL0     H67189   0.238   5.960   5.210 -1.6789 -0.2168 -1.3415
  498MOL0     H67190   0.509   5.927   5.576 -3.6884 -1.1317  1.1464
  498MOL0     H67191   0.678   5.774   5.576 -1.6535  1.1407  0.9843
  498MOL0     H67192   0.980   5.570   5.170 -0.8604  0.7227  1.9200
  498MOL0     H67193   1.156   5.405   5.104  1.4696 -2.1259  0.5422
  498MOL0     H67194   1.324   5.193   5.077  0.7474  2.2636 -0.3317
  498MOL0     H67195   1.326   5.302   5.220  1.6210 -0.3582  2.4533
  498MOL0     H67196   1.381   5.119   5.365 -0.4047  2.0516 -1.1546
  498MOL0     H67197   1.389   5.005   5.221 -0.5168  0.9047 -0.7531
  498MOL0     H67198   1.583   5.132   5.134 -1.9644  0.8515 -0.6852
  498MOL0     H67199   1.546   5.257   5.240 -3.5288  0.0610 -0.8867
  498MOL0     H67200   1.624   4.977   5.324 -2.7171 -0.0003  1.7241
  498MOL0     H67201   1.586   5.109   5.445 -1.9500  3.0388 -1.5677
  498MOL0     H67202   1.792   5.226   5.338  0.4066 -0.2908  0.9052
  498MOL0     H67203   1.821   5.070   5.245  1.6416 -1.2101  1.0616
  498MOL0     H67204   1.841   5.121   5.540 -0.5801  1.1603 -0.2920
  498MOL0     H67205   1.821   4.958   5.459  0.0346  0.1457 -0.8012
  498MOL0     H67206   2.049   5.154   5.377  2.6896 -0.2895  0.9621
  498MOL0     H67207   2.048   4.984   5.352 -1.8336 -2.1034  0.4981
  498MOL0     H67208   2.209   5.058   5.530  0.7953 -2.6085 -0.0495
  498MOL0     H67209   2.070   5.126   5.626 -0.4775 -1.1309  0.3194
  498MOL0     H67210   0.930   5.096   5.294  1.3766 -0.5781 -1.8694
  498MOL0     H67211   0.732   5.224   5.284 -0.2928 -0.7352 -1.3171
  498MOL0     H67212   0.522   5.605   5.205  0.2969 -2.6638  2.0865
  498MOL0     H67213   0.348   5.778   5.207  0.8629  1.6534  0.8595
  498MOL0     H67214   0.763   4.932   6.484 -0.7253 -0.8510 -2.0907
  498MOL0     H67215   0.973   4.827   6.531 -0.8887 -0.2383  0.0310
  498MOL0     H67216   1.388   4.737   6.576 -0.1448  0.0205  0.3190
  498MOL0     H67217   1.636   4.681   6.592  1.8784  1.9065  1.5091
  498MOL0     H67218   1.927   4.951   6.453  0.7595  0.0097 -0.2251
  498MOL0     H67219   1.945   4.823   6.326 -0.6557 -2.1601 -0.5269
  498MOL0     H67220   2.073   4.688   6.502 -0.3191 -0.1533 -2.9322
  498MOL0     H67221   2.021   4.812   6.617 -1.1692  1.3858 -1.0225
  498MOL0     H67222   2.250   4.827   6.579 -0.1613 -0.4160 -0.6982
  498MOL0     H67223   2.172   4.979   6.529  3.7547  0.7062  0.7788
  498MOL0     H67224   2.291   4.754   6.355  1.4183  0.6345  0.3008
  498MOL0     H67225   2.190   4.890   6.294  1.7632  1.5815 -0.6806
  498MOL0     H67226   2.559   5.067   6.395  0.5221 -0.2661  0.8241
  498MOL0     H67227   1.726   4.917   6.260 -2.0902  2.0987 -0.7781
  498MOL0     H67228   1.408   4.997   6.152 -1.5429  0.3892  0.4427
  498MOL0     H67229   1.422   5.126   6.265 -0.4875  0.4837  0.1997
  498MOL0     H67230   1.566   5.075   6.174  1.2672 -2.3243  0.5554
  499MOL0     O67231   7.467   6.919   8.165 -0.4642  0.6612 -0.3767
  499MOL0     C67232   7.410   6.991   8.244  0.0132  0.7132 -0.6263
  499MOL0     O67233   7.464   7.108   8.285  0.3285  0.7059 -0.6215
  499MOL0     C67234   7.592   7.146   8.260 -0.3731 -0.6013  0.1768
  499MOL0     C67235   7.614   7.263   8.180  0.0499  0.0588 -0.0955
  499MOL0     C67236   7.749   7.297   8.139  1.0051 -0.4663 -0.4077
  499MOL0     C67237   7.856   7.221   8.183  0.5004  0.3406 -0.4176
  499MOL0     O67238   7.982   7.258   8.134 -0.3314  0.1310  0.0312
  499MOL0     C67239   8.079   7.155   8.155  0.9687  0.4534  0.0457
  499MOL0     C67240   8.214   7.181   8.092 -0.2948 -0.4435 -0.0342
  499MOL0     C67241   8.281   7.310   8.142 -0.5321 -0.0801 -0.5415
  499MOL0     C67242   8.420   7.337   8.078  0.2101  0.4278  0.9274
  499MOL0     C67243   8.498   7.453   8.136  0.2579 -0.6118  0.0556
  499MOL0     C67244   8.533   7.418   8.280 -0.3974  0.1049 -0.3043
  499MOL0     C67245   8.647   7.510   8.339  0.0717  0.7411  0.4759
  499MOL0     C67246   8.699   7.481   8.481 -0.5221 -0.2326 -0.0812
  499MOL0     N67247   8.847   7.483   8.504 -0.2471 -0.0303  0.3461
  499MOL0     C67248   8.941   7.398   8.455 -0.6591  0.4507  1.0157
  499MOL0     C67249   9.061   7.464   8.482 -0.0336  0.8714  0.3209
  499MOL0     C67250   9.189   7.403   8.438  0.5148  0.1922 -0.4626
  499MOL0     C67251   9.286   7.509   8.374 -0.0293  0.6250  0.0218
  499MOL0     C67252   9.440   7.473   8.385 -0.1290 -0.3714 -0.4198
  499MOL0     C67253   9.531   7.579   8.327 -0.7039 -0.0618  0.2781
  499MOL0     O67254   9.669   7.535   8.293 -0.3649 -0.0562 -0.5241
  499MOL0     C67255   9.772   7.627   8.288 -0.2280 -0.5139  0.1354
  499MOL0     C67256   9.903   7.584   8.269 -0.7529 -0.4084 -0.2818
  499MOL0     C67257  10.003   7.681   8.268 -0.7650 -0.0258  0.6856
  499MOL0     C67258   9.978   7.819   8.252  0.7497 -0.6838  0.0380
  499MOL0     C67259  10.079   7.912   8.216  0.1426 -0.4691  0.2080
  499MOL0     O67260  10.200   7.866   8.176 -1.1026 -0.3388  0.0763
  499MOL0     C67261  10.300   7.957   8.147 -0.8076  0.8700  0.0635
  499MOL0     C67262  10.429   7.944   8.207  0.1634 -0.3179 -1.0234
  499MOL0     C67263  10.533   8.034   8.183  0.0735 -0.4543  0.0885
  499MOL0     C67264  10.515   8.123   8.073 -0.2562  0.2126 -0.6482
  499MOL0     O67265  10.615   8.208   8.017 -0.1159  0.7383 -0.1632
  499MOL0     C67266  10.755   8.186   8.033  0.5678  0.1155 -0.6514
  499MOL0     C67267  10.814   8.256   7.914  0.1488 -0.4062  0.0558
  499MOL0     C67268  10.958   8.217   7.898  0.6120  0.7689  0.0100
  499MOL0     C67269  11.052   8.305   7.973  0.0998 -0.0293  0.5539
  499MOL0     C67270  11.200   8.257   7.952  0.5492  0.2369  0.4944
  499MOL0     C67271  11.294   8.347   8.025  0.1671  0.1380 -0.1673
  499MOL0     C67272  11.428   8.315   7.970  0.7761  0.7434  0.7171
  499MOL0     C67273  11.527   8.423   7.989  0.1663  0.0818  0.4854
  499MOL0    Cl67274  11.519   8.477   8.164 -0.3260 -0.4466 -0.2627
  499MOL0     C67275  10.389   8.129   8.014 -0.5826  0.6097 -0.2000
  499MOL0     C67276  10.279   8.054   8.055  0.1310 -0.8174 -0.8200
  499MOL0     O67277  10.053   8.033   8.227  0.4230  0.5835 -0.0620
  499MOL0     C67278   9.846   7.858   8.248  0.8152 -0.0495  0.2788
  499MOL0     C67279   9.753   7.766   8.263  0.6654  0.1164 -0.9145
  499MOL0     N67280   9.031   7.578   8.549  0.1709  0.4984 -0.1084
  499MOL0     N67281   8.908   7.585   8.568 -0.5758 -0.2573 -0.3097
  499MOL0     C67282   7.831   7.104   8.264  0.5568  0.5922 -0.8682
  499MOL0     C67283   7.703   7.073   8.306 -0.0959 -0.4460  0.4494
  499MOL0     C67284   7.268   6.964   8.268  0.5253 -0.6264 -0.1585
  499MOL0     C67285   7.195   7.069   8.339  0.0689  0.2688  0.0453
  499MOL0     C67286   7.060   7.058   8.368  1.2552  0.7029 -0.1502
  499MOL0     C67287   6.989   6.943   8.321  0.0416 -0.4606  0.1674
  499MOL0     O67288   6.856   6.921   8.340  0.2029 -0.2499 -0.1253
  499MOL0     C67289   6.774   7.031   8.393 -1.0985 -0.7383  0.4415
  499MOL0     C67290   6.628   6.999   8.361  0.5171  1.0142 -0.5471
  499MOL0     C67291   6.526   7.099   8.408  0.1560 -0.8716  0.3797
  499MOL0     C67292   6.392   7.111   8.333 -0.7540 -0.4837  0.2642
  499MOL0     C67293   6.296   7.014   8.382  0.3935  0.0868 -0.2302
  499MOL0     C67294   6.211   6.936   8.429  0.4289 -0.0143  0.2709
  499MOL0     C67295   7.063   6.837   8.261  0.1148  0.5812 -0.1900
  499MOL0     C67296   7.199   6.844   8.237 -0.0803  0.3507  0.2951
  499MOL0     C67297   7.262   6.715   8.183  0.6784  0.4448  0.3380
  499MOL0     H67298   7.526   7.322   8.157  1.7815  3.2934  0.8806
  499MOL0     H67299   7.776   7.380   8.075  3.4139 -2.8989 -2.7807
  499MOL0     H67300   8.091   7.131   8.261 -0.1420 -3.8967 -0.5970
  499MOL0     H67301   8.044   7.059   8.114  0.0312 -1.3454  4.4282
  499MOL0     H67302   8.206   7.183   7.983  0.7845  1.7680 -0.1236
  499MOL0     H67303   8.274   7.093   8.119 -0.2972 -0.3668  0.2296
  499MOL0     H67304   8.289   7.316   8.251 -1.0710  2.8421 -0.5779
  499MOL0     H67305   8.224   7.402   8.127  1.6853  1.3397 -0.8234
  499MOL0     H67306   8.480   7.247   8.095  2.3742  1.7083  0.4104
  499MOL0     H67307   8.408   7.354   7.971  1.5650  1.3766  0.9099
  499MOL0     H67308   8.586   7.476   8.074  2.0375 -2.9078  1.5523
  499MOL0     H67309   8.451   7.551   8.148  0.8926 -0.1293 -1.2450
  499MOL0     H67310   8.445   7.437   8.341  1.0658 -1.0363  2.3199
  499MOL0     H67311   8.544   7.311   8.296 -1.8426  0.0516  0.4685
  499MOL0     H67312   8.608   7.612   8.330 -3.5756 -0.6413 -1.6109
  499MOL0     H67313   8.735   7.483   8.280  0.0481 -2.2651  1.6125
  499MOL0     H67314   8.661   7.563   8.543 -2.2482 -0.4483 -0.8171
  499MOL0     H67315   8.656   7.389   8.520 -2.7650  0.3212 -1.1252
  499MOL0     H67316   8.925   7.303   8.406 -1.6336 -0.6249  3.2777
  499MOL0     H67317   9.241   7.353   8.520 -2.0226 -1.3370  0.3422
  499MOL0     H67318   9.162   7.323   8.367 -0.8887 -0.3812  0.6768
  499MOL0     H67319   9.256   7.508   8.269  0.0241 -1.6186 -0.0282
  499MOL0     H67320   9.262   7.609   8.411 -2.7246  0.5252 -1.2652
  499MOL0     H67321   9.459   7.382   8.327  0.2888 -0.5134 -0.0639
  499MOL0     H67322   9.474   7.459   8.487  3.0223  1.3546 -1.1217
  499MOL0     H67323   9.546   7.646   8.413 -0.9573 -2.7212  2.5458
  499MOL0     H67324   9.484   7.629   8.242  1.9827 -1.2874 -2.1006
  499MOL0     H67325   9.903   7.477   8.253 -1.7396 -0.2276 -1.6851
  499MOL0     H67326  10.099   7.632   8.257 -1.2416 -0.8123 -0.1596
  499MOL0     H67327  10.434   7.865   8.282 -1.7683  0.0040 -0.4902
  499MOL0     H67328  10.628   8.017   8.233 -0.9818  1.7730  3.1481
  499MOL0     H67329  10.804   8.234   8.118  0.8159 -0.1990 -0.6140
  499MOL0     H67330  10.765   8.078   8.045 -2.0893 -0.2924 -1.3370
  499MOL0     H67331  10.752   8.219   7.832  1.4619  0.8634 -1.5530
  499MOL0     H67332  10.817   8.365   7.930 -0.2440 -0.6694  2.3339
  499MOL0     H67333  10.972   8.114   7.933 -3.9683 -0.1433 -0.2236
  499MOL0     H67334  10.979   8.222   7.791 -1.8958  0.7996 -0.5479
  499MOL0     H67335  11.029   8.303   8.080  0.5414  1.4285  0.6901
  499MOL0     H67336  11.038   8.407   7.938 -1.0619 -0.8921 -1.7012
  499MOL0     H67337  11.228   8.255   7.846  3.0122  0.5172  1.0744
  499MOL0     H67338  11.208   8.157   7.993 -2.2061 -0.6850 -0.9882
  499MOL0     H67339  11.276   8.447   7.984 -0.7174  0.6147  1.3090
  499MOL0     H67340  11.277   8.344   8.133  1.3720  1.8033  0.1064
  499MOL0     H67341  11.420   8.293   7.863 -2.1367 -1.0041  1.1682
  499MOL0     H67342  11.472   8.227   8.018 -0.2267 -0.5656 -0.6759
  499MOL0     H67343  11.624   8.377   7.967 -0.4611 -1.2073  0.3465
  499MOL0     H67344  11.503   8.506   7.922 -3.4880 -1.3908 -0.2384
  499MOL0     H67345  10.366   8.198   7.933  0.2519  1.2666  0.1033
  499MOL0     H67346  10.180   8.056   8.009 -0.5177 -0.0962  0.5231
  499MOL0     H67347   9.826   7.964   8.243  1.6027  0.0328 -2.0860
  499MOL0     H67348   9.651   7.801   8.251  0.3654 -0.4321 -0.0453
  499MOL0     H67349   7.911   7.044   8.306 -0.8796 -0.8488 -0.0839
  499MOL0     H67350   7.694   6.990   8.375 -0.3232 -2.2936 -1.6925
  499MOL0     H67351   7.232   7.170   8.355  2.0976 -0.1263 -1.7658
  499MOL0     H67352   7.009   7.133   8.426 -1.6834 -1.6072  0.4933
  499MOL0     H67353   6.801   7.123   8.341  1.1589 -0.8770  1.2844
  499MOL0     H67354   6.785   7.047   8.500  0.2042 -0.4773  0.2860
  499MOL0     H67355   6.607   6.898   8.399  3.3924 -0.9494 -3.5473
  499MOL0     H67356   6.615   6.995   8.252 -0.5773  2.9454 -0.5260
  499MOL0     H67357   6.576   7.196   8.402 -0.2351 -0.3663  3.4578
  499MOL0     H67358   6.506   7.083   8.514 -0.3525 -2.1623  0.1063
  499MOL0     H67359   6.353   7.209   8.358 -0.1878 -0.4968  1.2227
  499MOL0     H67360   6.413   7.096   8.226  1.7099 -0.5182  0.6783
  499MOL0     H67361   6.141   6.864   8.467  0.2096 -0.0365 -0.1699
  499MOL0     H67362   7.003   6.755   8.223 -0.4444  0.8211  0.1506
  499MOL0     H67363   7.186   6.637   8.196  1.2060  0.1233  1.5806
  499MOL0     H67364   7.298   6.725   8.080  0.9684  1.3252  0.5152
  499MOL0     H67365   7.347   6.686   8.245  1.9076  1.1332 -0.9597
  500MOL0     O67366   8.092   4.458   3.149 -0.0820 -1.2176  0.1186
  500MOL0     C67367   8.071   4.340   3.177  0.7480 -0.7091 -0.8450
  500MOL0     O67368   8.155   4.265   3.252 -0.2850 -0.5855  0.2667
  500MOL0     C67369   8.271   4.320   3.302 -0.2660  0.2750 -0.3006
  500MOL0     C67370   8.381   4.245   3.288 -0.5246  0.0364  0.4040
  500MOL0     C67371   8.511   4.290   3.315 -0.1086  0.0158 -0.5585
  500MOL0     C67372   8.532   4.415   3.376 -0.7638  0.7927  0.3251
  500MOL0     O67373   8.656   4.452   3.411 -0.0053  0.0405 -0.4203
  500MOL0     C67374   8.674   4.546   3.513 -0.4830  0.7271  0.1906
  500MOL0     C67375   8.817   4.534   3.559  0.1467  0.0060  0.0295
  500MOL0     C67376   8.852   4.645   3.644  0.4297  0.8874 -0.2347
  500MOL0     C67377   8.997   4.649   3.689  0.8218 -0.5989  0.5983
  500MOL0     C67378   9.034   4.546   3.794 -0.0520  0.2591 -0.3298
  500MOL0     C67379   9.091   4.410   3.736 -0.1963  0.3821  0.2457
  500MOL0     C67380   9.144   4.303   3.832 -0.5297 -0.0708  0.2113
  500MOL0     C67381   9.268   4.352   3.911 -0.0155  0.1973 -0.9570
  500MOL0     N67382   9.337   4.234   3.978 -0.4522  0.4361  0.3367
  500MOL0     C67383   9.368   4.111   3.914 -0.6779 -0.0227 -0.6734
  500MOL0     C67384   9.484   4.064   3.971 -0.8500 -0.7858  0.6664
  500MOL0     C67385   9.537   3.932   3.935 -1.8883  1.5379 -0.1662
  500MOL0     C67386   9.678   3.908   3.987 -0.6849  0.4278 -0.1913
  500MOL0     C67387   9.789   3.972   3.903 -0.2374 -0.8524 -0.4624
  500MOL0     C67388   9.920   3.964   3.977  0.1083 -0.5373  0.4810
  500MOL0     O67389   9.993   3.838   3.945  0.2247 -0.3963 -0.2408
  500MOL0     C67390  10.107   3.833   3.865  0.2007 -0.0197 -0.1322
  500MOL0     C67391  10.153   3.927   3.777  0.7338  0.4742 -0.2243
  500MOL0     C67392  10.275   3.913   3.709  0.7505 -0.7380 -0.3814
  500MOL0     C67393  10.349   3.797   3.718  0.3017 -0.5949  0.5109
  500MOL0     C67394  10.463   3.766   3.631  0.5940 -0.1101 -0.0562
  500MOL0     O67395  10.505   3.630   3.634 -0.0249  0.5003 -0.4292
  500MOL0     C67396  10.632   3.604   3.594  0.2012  0.9088 -0.3356
  500MOL0     C67397  10.671   3.638   3.466 -0.4777  0.1837 -0.4207
  500MOL0     C67398  10.809   3.612   3.435  0.0064 -0.8316  0.0016
  500MOL0     C67399  10.905   3.569   3.528 -0.4845  1.0974  0.1484
  500MOL0     O67400  11.039   3.546   3.497 -0.4526 -0.2681 -0.6378
  500MOL0     C67401  11.119   3.656   3.450 -0.4643 -1.1433  0.4453
  500MOL0     C67402  11.238   3.590   3.370  0.2275  0.4983 -0.5048
  500MOL0     C67403  11.185   3.507   3.248 -0.1536 -0.0483 -0.4284
  500MOL0     C67404  11.137   3.603   3.140 -0.3736 -0.0452 -1.1758
  500MOL0     C67405  11.099   3.540   3.005  0.1373  0.3396  0.2424
  500MOL0     C67406  10.963   3.453   3.002 -0.3081 -0.3830  0.0397
  500MOL0     C67407  10.960   3.366   2.883 -0.2145  0.6477 -0.3888
  500MOL0     C67408  10.835   3.279   2.883 -0.7027 -0.3559  0.6528
  500MOL0    Cl67409  10.684   3.365   2.869 -0.4824  0.4992 -0.2497
  500MOL0     C67410  10.861   3.544   3.654 -0.0910 -0.2988  0.1140
  500MOL0     C67411  10.724   3.563   3.688  0.6109 -0.0631  0.0595
  500MOL0     O67412  10.526   3.858   3.583 -0.9668 -0.2732 -0.2255
  500MOL0     C67413  10.312   3.704   3.816  0.1972 -0.2058 -0.6792
  500MOL0     C67414  10.189   3.725   3.887  0.3325 -0.1572 -0.6832
  500MOL0     N67415   9.529   4.159   4.063 -0.3268 -0.0253 -0.2777
  500MOL0     N67416   9.444   4.257   4.063 -0.6448 -0.6217 -0.0967
  500MOL0     C67417   8.417   4.488   3.394  0.4661  0.0771  0.0649
  500MOL0     C67418   8.288   4.440   3.361  0.5705 -0.1811  0.0091
  500MOL0     C67419   7.942   4.290   3.152  0.2703  0.1317  1.3382
  500MOL0     C67420   7.934   4.154   3.128 -0.4738  0.9883 -0.8453
  500MOL0     C67421   7.813   4.087   3.092  0.7310 -0.0019  0.2998
  500MOL0     C67422   7.696   4.166   3.094 -1.0151  0.1690  0.4256
  500MOL0     O67423   7.574   4.126   3.058 -0.2789 -0.0527  0.2952
  500MOL0     C67424   7.547   3.986   3.045  0.0374  0.3541 -0.0328
  500MOL0     C67425   7.397   3.964   3.066  0.2083  0.2640 -0.3837
  500MOL0     C67426   7.354   4.019   3.205  0.0776  1.1343 -0.5119
  500MOL0     C67427   7.196   4.032   3.201 -0.4177 -0.1183  0.2745
  500MOL0     C67428   7.145   4.077   3.337  0.2828  0.4449  0.0713
  500MOL0     C67429   7.105   4.121   3.442 -0.7798  0.0897 -0.6025
  500MOL0     C67430   7.711   4.301   3.136  0.4776  0.2693  0.5491
  500MOL0     C67431   7.826   4.368   3.174 -0.0927  0.4814 -0.2516
  500MOL0     C67432   7.823   4.507   3.253  0.2456 -0.5715 -0.0691
  500MOL0     H67433   8.373   4.149   3.239 -0.8639  0.2827 -0.0254
  500MOL0     H67434   8.591   4.222   3.292 -1.9287 -1.6069 -2.4997
  500MOL0     H67435   8.664   4.646   3.469  2.2293  0.7813 -0.4792
  500MOL0     H67436   8.614   4.531   3.603 -0.1928  2.8504  0.8015
  500MOL0     H67437   8.890   4.530   3.478 -1.1982  0.0879 -1.2323
  500MOL0     H67438   8.831   4.447   3.624  1.1605  1.3025  1.6466
  500MOL0     H67439   8.785   4.643   3.731 -0.3992 -1.5788 -0.8400
  500MOL0     H67440   8.825   4.731   3.584  0.8512 -0.0627 -1.8495
  500MOL0     H67441   9.067   4.633   3.606  0.8673 -0.3463  0.5893
  500MOL0     H67442   9.020   4.738   3.749 -0.5551 -2.0607  3.5345
  500MOL0     H67443   9.113   4.586   3.858  1.1728  0.5768 -1.9597
  500MOL0     H67444   8.953   4.521   3.863  0.5334 -0.4661  0.1007
  500MOL0     H67445   9.015   4.359   3.676  1.0393 -0.9966 -0.1941
  500MOL0     H67446   9.167   4.436   3.662 -0.8894 -1.4351 -1.1738
  500MOL0     H67447   9.183   4.220   3.773 -0.2110 -0.8682  1.4927
  500MOL0     H67448   9.064   4.268   3.898 -1.9444  2.4601 -0.0578
  500MOL0     H67449   9.337   4.410   3.849 -0.8675  3.6809  1.0771
  500MOL0     H67450   9.240   4.429   3.983 -0.0451 -0.2620 -0.4690
  500MOL0     H67451   9.307   4.066   3.836  0.4633  1.6649 -2.6552
  500MOL0     H67452   9.476   3.849   3.974 -2.5624 -0.1393 -4.3222
  500MOL0     H67453   9.532   3.908   3.829 -0.6240 -1.1333  0.2910
  500MOL0     H67454   9.689   3.953   4.086  1.2072  2.1832 -1.1240
  500MOL0     H67455   9.699   3.800   3.982  0.4387  0.6685 -1.0971
  500MOL0     H67456   9.763   4.078   3.891  1.1180 -0.2822  1.1500
  500MOL0     H67457   9.788   3.922   3.806 -3.0192  0.1455 -1.0480
  500MOL0     H67458   9.901   3.971   4.084  2.8832 -0.1306  1.0174
  500MOL0     H67459   9.979   4.051   3.945  0.8809 -1.0123  0.5787
  500MOL0     H67460  10.098   4.019   3.757 -0.7164 -0.7128 -2.0381
  500MOL0     H67461  10.313   3.992   3.645 -0.5180  0.3453  0.1661
  500MOL0     H67462  10.616   3.696   3.393  1.2126 -2.7900 -4.3964
  500MOL0     H67463  10.854   3.623   3.337  2.5099 -0.4837  1.1002
  500MOL0     H67464  11.062   3.723   3.386 -0.0412  0.5590  1.7904
  500MOL0     H67465  11.150   3.722   3.531 -3.4894  0.4623  0.4393
  500MOL0     H67466  11.304   3.671   3.338  0.5400  0.5681  0.2879
  500MOL0     H67467  11.288   3.524   3.442 -0.1601 -1.1757 -1.7234
  500MOL0     H67468  11.271   3.450   3.212  1.9365  1.9269  1.1934
  500MOL0     H67469  11.108   3.434   3.276  0.3715  0.2692  2.0583
  500MOL0     H67470  11.215   3.677   3.118  0.0351  0.6637  2.1052
  500MOL0     H67471  11.040   3.645   3.169 -0.8031 -0.0933 -2.5051
  500MOL0     H67472  11.177   3.480   2.957 -0.9543  0.0905 -1.3366
  500MOL0     H67473  11.080   3.616   2.928 -2.4760  0.2125  0.6670
  500MOL0     H67474  10.959   3.389   3.091  1.4635  0.1203  0.5350
  500MOL0     H67475  10.874   3.516   3.008 -0.3900 -0.6189  2.1502
  500MOL0     H67476  11.042   3.295   2.889 -0.5803  0.3311  1.6162
  500MOL0     H67477  10.955   3.427   2.792  2.3883 -0.1006 -1.0988
  500MOL0     H67478  10.856   3.207   2.804 -2.5834 -0.0540 -0.1594
  500MOL0     H67479  10.842   3.230   2.981  1.6026 -0.7539  0.3458
  500MOL0     H67480  10.924   3.511   3.736 -2.7020 -0.9041  1.9713
  500MOL0     H67481  10.698   3.561   3.793 -0.2203  2.4181 -0.0479
  500MOL0     H67482  10.366   3.612   3.834 -2.2236 -1.5315  0.4037
  500MOL0     H67483  10.165   3.647   3.959  3.4974  0.0394  0.7778
  500MOL0     H67484   8.435   4.590   3.426 -0.1226 -0.3134  1.7327
  500MOL0     H67485   8.205   4.507   3.380  3.2543  3.1764  0.9783
  500MOL0     H67486   8.027   4.099   3.123 -2.1524 -2.0365 -1.4475
  500MOL0     H67487   7.820   3.982   3.065  3.0140 -0.3849  2.0500
  500MOL0     H67488   7.600   3.926   3.119  0.2428  2.1348  1.3337
  500MOL0     H67489   7.571   3.949   2.945  0.5212  0.0712  0.1826
  500MOL0     H67490   7.362   3.861   3.053  0.1999  0.2153  0.0053
  500MOL0     H67491   7.350   4.017   2.983 -0.5479 -0.7473 -0.6259
  500MOL0     H67492   7.387   4.123   3.218  0.5265  1.3976 -3.1330
  500MOL0     H67493   7.382   3.942   3.276 -2.0796 -0.6286 -1.4547
  500MOL0     H67494   7.161   4.111   3.134  0.2315  2.4645  2.7304
  500MOL0     H67495   7.164   3.937   3.160  4.7760 -1.1546 -2.1780
  500MOL0     H67496   7.078   4.160   3.538  1.0219  0.9790 -0.4269
  500MOL0     H67497   7.614   4.350   3.144 -0.0918 -0.7902  0.3046
  500MOL0     H67498   7.848   4.480   3.356 -0.4297  0.2058  0.3143
  500MOL0     H67499   7.890   4.580   3.207  0.5137 -1.3806 -0.9858
  500MOL0     H67500   7.723   4.552   3.262 -0.4407 -2.2016  0.8518
  501MOL0     O67501   8.039  10.979   9.096  0.3756 -0.1252  0.3276
  501MOL0     C67502   7.977  11.078   9.128 -0.0917  0.1273 -0.8855
  501MOL0     O67503   8.024  11.205   9.113  0.0671  0.1041 -0.5579
  501MOL0     C67504   8.161  11.226   9.081  0.3900  0.5244 -0.0203
  501MOL0     C67505   8.209  11.170   8.960 -0.1505  0.2763 -0.4598
  501MOL0     C67506   8.350  11.148   8.940  0.2888 -0.2067  0.9935
  501MOL0     C67507   8.444  11.193   9.041  0.7036 -0.4777 -0.5537
  501MOL0     O67508   8.582  11.189   9.028 -0.6528 -1.2166 -0.2508
  501MOL0     C67509   8.629  11.204   8.888 -0.4646 -0.3127 -1.0225
  501MOL0     C67510   8.663  11.072   8.814 -0.1254 -0.2352  0.0712
  501MOL0     C67511   8.663  11.080   8.658 -0.0410  0.6084  0.5159
  501MOL0     C67512   8.649  10.943   8.589 -0.0883  0.6460  0.6869
  501MOL0     C67513   8.625  10.964   8.437  0.1036  0.5398 -0.0006
  501MOL0     C67514   8.653  10.835   8.360  0.3330  0.9657 -0.4839
  501MOL0     C67515   8.802  10.816   8.328  0.8397  0.5329  0.2042
  501MOL0     C67516   8.844  10.902   8.213 -0.7569  0.6097  0.5936
  501MOL0     N67517   8.970  10.842   8.166 -0.0680 -0.3677 -0.5223
  501MOL0     C67518   9.088  10.840   8.246  0.6694 -0.5197  0.3765
  501MOL0     C67519   9.172  10.792   8.160 -1.9764 -0.0451 -0.9444
  501MOL0     C67520   9.314  10.779   8.190  0.1670 -0.0010  0.5714
  501MOL0     C67521   9.352  10.633   8.168 -1.1500  0.1637  0.2884
  501MOL0     C67522   9.382  10.585   8.025 -0.0625 -0.0344  0.0240
  501MOL0     C67523   9.523  10.613   7.969 -0.4395  0.7296  0.3438
  501MOL0     O67524   9.611  10.502   7.992  0.7896  0.2695 -0.5539
  501MOL0     C67525   9.727  10.482   7.915  0.1798  0.4567  0.5167
  501MOL0     C67526   9.774  10.355   7.924  0.3934 -0.2322  0.9592
  501MOL0     C67527   9.887  10.318   7.843  0.3439  0.5540  0.3229
  501MOL0     C67528   9.953  10.416   7.768 -0.7549 -0.5067  0.7706
  501MOL0     C67529  10.080  10.389   7.689  0.6173 -1.0254 -0.4268
  501MOL0     O67530  10.126  10.466   7.595 -0.0486 -1.0963  0.2190
  501MOL0     C67531  10.226  10.415   7.515 -0.7281  0.0230  0.0985
  501MOL0     C67532  10.359  10.422   7.545  0.3288 -0.2131  0.0128
  501MOL0     C67533  10.455  10.360   7.467  0.7026  0.5347  0.2233
  501MOL0     C67534  10.417  10.303   7.341 -0.6670  0.2049 -0.4341
  501MOL0     O67535  10.496  10.236   7.250  0.3371 -0.0604 -0.4844
  501MOL0     C67536  10.619  10.189   7.311 -0.1348  0.7474  0.7858
  501MOL0     C67537  10.664  10.060   7.238  0.5093  0.2384 -0.8411
  501MOL0     C67538  10.807  10.019   7.280 -1.1636  0.1474  0.0164
  501MOL0     C67539  10.845   9.883   7.210  0.1334 -0.3627  0.4380
  501MOL0     C67540  10.986   9.824   7.246 -0.3361 -0.6638 -1.3034
  501MOL0     C67541  11.097   9.920   7.212 -0.4494 -0.0250  0.1788
  501MOL0     C67542  11.237   9.861   7.205  0.5036 -0.2665  0.0126
  501MOL0     C67543  11.271   9.755   7.097  0.2825  0.0827  0.4864
  501MOL0    Cl67544  11.436   9.687   7.139  0.4828  0.4935  0.0781
  501MOL0     C67545  10.281  10.303   7.308 -0.2273 -0.0689 -0.9724
  501MOL0     C67546  10.182  10.351   7.400  0.6782 -0.1015  0.2710
  501MOL0     O67547  10.120  10.278   7.720 -0.4619 -0.5443 -1.3251
  501MOL0     C67548   9.897  10.547   7.765  0.3623  0.2998  0.3559
  501MOL0     C67549   9.779  10.581   7.835 -0.4247 -0.3365 -0.2818
  501MOL0     N67550   9.114  10.770   8.037  1.2247  0.0408  0.3802
  501MOL0     N67551   8.997  10.806   8.039 -0.5150 -0.4785  0.6725
  501MOL0     C67552   8.387  11.248   9.158 -0.7816 -0.3256  0.7221
  501MOL0     C67553   8.251  11.278   9.178  0.3566  0.7073  0.1742
  501MOL0     C67554   7.830  11.072   9.164  0.6577  0.4051 -0.3104
  501MOL0     C67555   7.740  11.145   9.083  0.8194  0.6811 -0.1222
  501MOL0     C67556   7.604  11.162   9.129 -1.0011 -0.4183  1.0103
  501MOL0     C67557   7.561  11.110   9.255  0.3956  0.0454 -0.0717
  501MOL0     O67558   7.439  11.129   9.309  0.1388 -0.6902 -0.5382
  501MOL0     C67559   7.336  11.181   9.224 -0.1672  0.2516 -0.1286
  501MOL0     C67560   7.207  11.208   9.307 -0.0239 -0.0163 -0.1191
  501MOL0     C67561   7.089  11.251   9.216 -0.2512  1.0173  0.7899
  501MOL0     C67562   7.056  11.149   9.100 -0.3113  0.1852 -0.7737
  501MOL0     C67563   7.055  11.007   9.138  0.2677  0.5502  0.0273
  501MOL0     C67564   7.044  10.890   9.167 -0.7255 -0.4210 -0.2975
  501MOL0     C67565   7.651  11.027   9.327  0.0234  0.8789 -0.0469
  501MOL0     C67566   7.785  11.008   9.279  0.1148  0.1856  0.5928
  501MOL0     C67567   7.878  10.933   9.372 -0.3521 -0.5565 -0.3950
  501MOL0     H67568   8.139  11.124   8.891 -1.1335 -0.2447  0.8392
  501MOL0     H67569   8.383  11.112   8.844 -2.0938 -1.5543  0.6185
  501MOL0     H67570   8.568  11.271   8.827 -2.9117 -0.0405  1.5404
  501MOL0     H67571   8.727  11.253   8.896 -0.5219 -0.2647 -0.5821
  501MOL0     H67572   8.581  11.002   8.831  0.3126 -1.9129 -3.8590
  501MOL0     H67573   8.749  11.018   8.854 -1.4155 -0.9340  2.0922
  501MOL0     H67574   8.749  11.129   8.612 -0.2824 -0.9155 -1.7149
  501MOL0     H67575   8.578  11.145   8.634 -0.1123 -0.2608 -1.7916
  501MOL0     H67576   8.737  10.884   8.615  1.1554  2.2215  0.2379
  501MOL0     H67577   8.557  10.895   8.624  2.0313 -2.5432  2.2950
  501MOL0     H67578   8.521  10.990   8.418 -0.1860  0.5401  1.5213
  501MOL0     H67579   8.684  11.044   8.390  0.9338 -0.3892 -0.5940
  501MOL0     H67580   8.624  10.747   8.418 -0.1259  0.1469 -1.9256
  501MOL0     H67581   8.601  10.845   8.265 -0.2035 -0.1311 -0.3076
  501MOL0     H67582   8.816  10.710   8.305 -0.3708 -0.0702  2.0593
  501MOL0     H67583   8.873  10.831   8.410  1.0192 -1.5751  0.5122
  501MOL0     H67584   8.772  10.904   8.131 -0.9442 -1.5948  0.6472
  501MOL0     H67585   8.859  11.009   8.229  1.5513  0.2254  1.4447
  501MOL0     H67586   9.103  10.873   8.348 -1.2134 -0.3511  0.6330
  501MOL0     H67587   9.371  10.846   8.125  2.1214 -0.3299  1.8865
  501MOL0     H67588   9.323  10.802   8.296 -0.2817 -0.1232  0.6377
  501MOL0     H67589   9.441  10.619   8.231 -0.2540  1.2756 -0.6891
  501MOL0     H67590   9.267  10.576   8.204  0.9664 -3.2460  0.3056
  501MOL0     H67591   9.306  10.630   7.961 -1.4039  1.6577  2.6213
  501MOL0     H67592   9.362  10.477   8.030  0.6147 -0.3235 -2.4033
  501MOL0     H67593   9.575  10.693   8.023 -1.3184 -0.3100  2.8947
  501MOL0     H67594   9.506  10.624   7.862 -0.8523 -1.5081  0.1414
  501MOL0     H67595   9.717  10.284   7.982  2.0680 -2.6858 -0.2321
  501MOL0     H67596   9.915  10.214   7.854 -0.8452  0.2786  0.8773
  501MOL0     H67597  10.380  10.458   7.645  0.8214 -2.6793  0.8501
  501MOL0     H67598  10.560  10.366   7.496  1.0634  0.2924 -0.9705
  501MOL0     H67599  10.695  10.264   7.289 -0.3893  0.2835 -1.9419
  501MOL0     H67600  10.609  10.155   7.415  2.5689 -3.7684 -0.1728
  501MOL0     H67601  10.588   9.993   7.277  0.9593  0.9297  1.3477
  501MOL0     H67602  10.667  10.064   7.129 -1.2603 -0.9685 -0.9623
  501MOL0     H67603  10.880  10.089   7.239 -1.2430 -0.5992 -1.4718
  501MOL0     H67604  10.840  10.011   7.384 -2.1404 -0.5669  0.2883
  501MOL0     H67605  10.839   9.898   7.102 -2.9650 -0.2572  0.5264
  501MOL0     H67606  10.771   9.807   7.236 -0.0300 -0.5798 -0.6333
  501MOL0     H67607  11.006   9.726   7.201  2.2636  0.0232 -1.8128
  501MOL0     H67608  10.980   9.820   7.355 -0.8984 -1.2646 -1.3523
  501MOL0     H67609  11.067   9.969   7.119 -0.0877  0.1382  0.1466
  501MOL0     H67610  11.103   9.995   7.291  0.0505 -0.4040  0.5031
  501MOL0     H67611  11.271   9.818   7.300  0.4770  0.3857  0.3196
  501MOL0     H67612  11.302   9.948   7.193 -1.4649  1.5388  1.6777
  501MOL0     H67613  11.198   9.674   7.094 -0.0516  0.4116 -1.1946
  501MOL0     H67614  11.258   9.804   7.000 -0.7036 -0.4764  0.3211
  501MOL0     H67615  10.246  10.261   7.215 -1.9687  4.1078 -2.4306
  501MOL0     H67616  10.077  10.334   7.383 -0.0919  2.3491  2.0138
  501MOL0     H67617   9.939  10.617   7.693 -3.0638  3.6758  1.3288
  501MOL0     H67618   9.738  10.681   7.825 -3.9832 -1.5422  0.5606
  501MOL0     H67619   8.458  11.278   9.234  0.6732 -1.5358 -0.1232
  501MOL0     H67620   8.223  11.324   9.272  0.5071  2.0944 -0.4420
  501MOL0     H67621   7.774  11.205   8.999 -0.8041  0.8228 -0.7145
  501MOL0     H67622   7.520  11.204   9.075 -1.5819  0.1231  2.2837
  501MOL0     H67623   7.317  11.109   9.143  1.2187 -2.9346  2.1567
  501MOL0     H67624   7.355  11.279   9.179 -0.9541  0.5665  0.2124
  501MOL0     H67625   7.232  11.281   9.385  1.9675 -1.2495  0.4740
  501MOL0     H67626   7.185  11.113   9.357  0.2702 -0.7715 -1.3883
  501MOL0     H67627   7.121  11.341   9.163  1.1077 -0.8876 -1.8316
  501MOL0     H67628   6.997  11.263   9.274 -0.5218 -1.8136  1.0836
  501MOL0     H67629   6.958  11.176   9.059 -1.1175 -0.0123  0.9423
  501MOL0     H67630   7.134  11.152   9.023  1.1762 -0.9753  0.6200
  501MOL0     H67631   7.044  10.792   9.208 -1.7525  0.3073  1.5786
  501MOL0     H67632   7.616  10.987   9.421 -0.9935  1.7320 -0.0398
  501MOL0     H67633   7.929  10.852   9.320 -0.3771 -0.2861 -0.8437
  501MOL0     H67634   7.954  11.001   9.412 -0.2561 -1.0810  0.3370
  501MOL0     H67635   7.824  10.887   9.456  4.6934 -2.5092  2.1972
  502MOL0     O67636   2.209   4.540   7.413  0.4208  0.0014  0.6679
  502MOL0     C67637   2.227   4.420   7.445 -0.5287 -0.1257 -0.4546
  502MOL0     O67638   2.346   4.355   7.439  0.3971  0.5100  0.1210
  502MOL0     C67639   2.454   4.402   7.378  0.4188  0.5147 -0.0217
  502MOL0     C67640   2.456   4.400   7.235  0.0214  0.6217  0.0503
  502MOL0     C67641   2.561   4.468   7.167  0.0718 -1.3417  0.1768
  502MOL0     C67642   2.670   4.522   7.238  0.4408  1.0172  0.6000
  502MOL0     O67643   2.770   4.590   7.173  0.1376 -0.4390  0.5733
  502MOL0     C67644   2.890   4.623   7.239 -0.3783  0.6871  0.6400
  502MOL0     C67645   2.998   4.631   7.128 -0.6477  0.1961  0.5977
  502MOL0     C67646   3.127   4.677   7.185 -0.4863 -0.3616 -0.1877
  502MOL0     C67647   3.185   4.578   7.286 -0.8842 -0.2559  0.0498
  502MOL0     C67648   3.326   4.630   7.338 -0.1885 -0.3109 -0.3787
  502MOL0     C67649   3.439   4.644   7.238 -0.5258 -0.2445  0.0509
  502MOL0     C67650   3.555   4.720   7.304 -0.6432 -0.9206 -0.2274
  502MOL0     C67651   3.672   4.725   7.204 -0.3283  0.5918 -0.0447
  502MOL0     N67652   3.796   4.782   7.263 -0.2601  0.2360  0.6754
  502MOL0     C67653   3.811   4.912   7.302 -0.2365  0.0274 -0.3431
  502MOL0     C67654   3.928   4.917   7.371  0.0687  0.4230  0.1063
  502MOL0     C67655   3.998   5.042   7.419 -0.6657 -0.2054 -0.1409
  502MOL0     C67656   4.021   5.141   7.305  0.5152  0.4769  0.5155
  502MOL0     C67657   4.139   5.088   7.219 -0.1339 -0.0214  0.0200
  502MOL0     C67658   4.163   5.195   7.115 -0.5446 -0.1516 -0.4710
  502MOL0     O67659   4.239   5.149   7.003  0.0017 -0.4532  0.4238
  502MOL0     C67660   4.379   5.160   6.996  0.8146 -0.0556  0.4063
  502MOL0     C67661   4.452   5.220   7.099  0.4902  0.6649  0.1028
  502MOL0     C67662   4.589   5.225   7.086  0.0140 -0.4030 -0.6478
  502MOL0     C67663   4.659   5.178   6.973 -0.0658 -0.2210 -0.3335
  502MOL0     C67664   4.807   5.195   6.978  0.5701  0.0761 -0.4106
  502MOL0     O67665   4.882   5.120   6.890 -0.0331 -0.1160 -0.1001
  502MOL0     C67666   5.021   5.146   6.881 -0.5027 -0.1982  0.2754
  502MOL0     C67667   5.072   5.277   6.860  0.0758 -0.5753 -0.6317
  502MOL0     C67668   5.210   5.289   6.854 -0.5715  0.5664 -0.3794
  502MOL0     C67669   5.298   5.183   6.853 -0.5552 -0.6152 -0.7337
  502MOL0     O67670   5.428   5.225   6.840  0.3732  0.5001  0.2414
  502MOL0     C67671   5.530   5.119   6.862 -0.7067 -0.3823  0.7023
  502MOL0     C67672   5.663   5.192   6.901 -0.0301  0.0187 -0.7224
  502MOL0     C67673   5.724   5.299   6.812  0.5352  0.4355  0.0791
  502MOL0     C67674   5.801   5.233   6.697  0.3846  0.9878  0.4587
  502MOL0     C67675   5.838   5.341   6.597 -0.3010  0.8498  0.0889
  502MOL0     C67676   5.974   5.413   6.638 -0.2740  0.1221  0.5928
  502MOL0     C67677   6.012   5.497   6.518 -0.0383  0.1318 -0.2622
  502MOL0     C67678   6.151   5.567   6.538  0.4023  0.4640  0.1067
  502MOL0    Cl67679   6.127   5.699   6.650  0.1214  0.0467 -0.1952
  502MOL0     C67680   5.246   5.057   6.855 -0.0281 -0.3817 -0.4031
  502MOL0     C67681   5.109   5.035   6.870 -0.1015  0.2507  0.4388
  502MOL0     O67682   4.852   5.280   7.050  0.2284 -0.9550  0.2506
  502MOL0     C67683   4.587   5.126   6.874 -1.1790 -0.7090 -0.3909
  502MOL0     C67684   4.443   5.117   6.882  0.1922 -0.2075  0.8934
  502MOL0     N67685   3.978   4.790   7.383 -0.5266  0.1205 -0.1631
  502MOL0     N67686   3.895   4.708   7.321  0.6185 -0.5581 -0.5750
  502MOL0     C67687   2.667   4.509   7.380 -0.8688  0.9001 -0.2430
  502MOL0     C67688   2.559   4.439   7.450  0.3644  0.6852 -0.2543
  502MOL0     C67689   2.105   4.344   7.486 -0.4760 -0.6214 -0.1394
  502MOL0     C67690   1.973   4.400   7.445 -0.8483  0.8564 -0.5563
  502MOL0     C67691   1.854   4.339   7.464 -0.3437  0.4106 -0.5531
  502MOL0     C67692   1.853   4.214   7.540  0.9874 -0.8053 -0.1157
  502MOL0     O67693   1.736   4.156   7.579 -0.1984 -0.0297 -0.7861
  502MOL0     C67694   1.725   4.024   7.518 -0.0759 -0.0882 -0.1666
  502MOL0     C67695   1.574   3.981   7.491 -0.8026 -0.2933 -0.1215
  502MOL0     C67696   1.478   4.004   7.612 -0.5462 -0.0631  0.1467
  502MOL0     C67697   1.329   3.987   7.572  0.1023 -0.4571  0.0644
  502MOL0     C67698   1.314   3.842   7.551 -0.3068 -1.2911  0.4017
  502MOL0     C67699   1.303   3.723   7.513 -0.3745  0.5424 -0.6581
  502MOL0     C67700   1.973   4.160   7.582  0.2046 -0.4400 -0.1227
  502MOL0     C67701   2.097   4.219   7.554  0.1986  0.1729 -0.0496
  502MOL0     C67702   2.215   4.166   7.634 -0.4720  0.4924  0.5582
  502MOL0     H67703   2.373   4.355   7.181  0.7588  0.8994 -1.3580
  502MOL0     H67704   2.553   4.479   7.059  2.0747 -3.5064 -0.2837
  502MOL0     H67705   2.892   4.719   7.291  0.2563  0.8433  0.3466
  502MOL0     H67706   2.927   4.546   7.308 -0.7446  1.8194  2.1398
  502MOL0     H67707   2.961   4.701   7.052 -0.7189 -0.5574 -0.0699
  502MOL0     H67708   3.006   4.538   7.071  0.5507  0.5066  0.2477
  502MOL0     H67709   3.124   4.781   7.219  1.5327  0.1948 -1.5591
  502MOL0     H67710   3.185   4.681   7.093  0.1928  3.3407  0.2581
  502MOL0     H67711   3.119   4.563   7.372 -2.3411 -2.4062 -1.3420
  502MOL0     H67712   3.199   4.486   7.228  3.1192  2.0319 -3.0891
  502MOL0     H67713   3.294   4.727   7.378  0.0003 -1.0034  1.5608
  502MOL0     H67714   3.358   4.560   7.415 -1.4927 -1.8561 -1.1829
  502MOL0     H67715   3.480   4.547   7.211  1.5404  0.7894 -0.7968
  502MOL0     H67716   3.403   4.693   7.147 -1.4119 -2.0335 -0.6051
  502MOL0     H67717   3.597   4.675   7.395  2.3068  1.9081  0.0027
  502MOL0     H67718   3.528   4.824   7.326 -0.3289 -0.8105 -0.3633
  502MOL0     H67719   3.694   4.626   7.162 -0.7410  0.2054  0.6321
  502MOL0     H67720   3.647   4.792   7.121 -1.6493  1.3652  0.9333
  502MOL0     H67721   3.749   4.997   7.278 -0.6253  0.0841  0.8005
  502MOL0     H67722   3.933   5.105   7.481 -0.2790  0.9807 -0.8981
  502MOL0     H67723   4.087   5.030   7.481 -0.8181  0.5738  0.2507
  502MOL0     H67724   3.931   5.162   7.246  1.2211 -3.8124 -2.5731
  502MOL0     H67725   4.050   5.239   7.344  0.0951  0.8847 -0.1666
  502MOL0     H67726   4.111   4.998   7.163 -0.4809  0.3722 -0.4490
  502MOL0     H67727   4.231   5.057   7.270  0.4555  0.3899 -0.7631
  502MOL0     H67728   4.194   5.281   7.175 -0.0655 -1.0918  0.6658
  502MOL0     H67729   4.069   5.231   7.073 -0.8433  1.9403  1.7854
  502MOL0     H67730   4.401   5.256   7.188 -0.9594 -2.0517  0.4714
  502MOL0     H67731   4.649   5.268   7.166 -1.9923  0.6180  0.3803
  502MOL0     H67732   5.008   5.365   6.861 -0.2637 -0.7539  2.1519
  502MOL0     H67733   5.258   5.385   6.837  4.0628 -1.6839 -1.6625
  502MOL0     H67734   5.496   5.055   6.944  1.7300 -1.1349  1.1925
  502MOL0     H67735   5.536   5.056   6.773 -1.9627  0.1461  0.2164
  502MOL0     H67736   5.646   5.242   6.997 -0.7029 -1.1008 -0.2303
  502MOL0     H67737   5.730   5.111   6.932 -2.4321 -1.3808  1.1731
  502MOL0     H67738   5.642   5.362   6.777 -0.3976  0.4570  2.1135
  502MOL0     H67739   5.803   5.353   6.867  1.7802 -1.1143 -0.1132
  502MOL0     H67740   5.746   5.161   6.635  0.8989  1.2076 -0.2649
  502MOL0     H67741   5.894   5.183   6.726 -2.2332 -3.6505  1.9896
  502MOL0     H67742   5.761   5.418   6.587 -0.0564  1.0442 -0.3501
  502MOL0     H67743   5.852   5.296   6.498  1.9663 -1.1497  1.2127
  502MOL0     H67744   5.961   5.465   6.733  1.6564 -3.8587  3.2984
  502MOL0     H67745   6.051   5.337   6.655 -3.1727 -3.0105  0.9414
  502MOL0     H67746   5.937   5.573   6.493  0.5320  1.3106  1.4479
  502MOL0     H67747   6.014   5.427   6.434 -1.5203  0.3562 -0.5008
  502MOL0     H67748   6.230   5.498   6.568 -0.1893 -0.1027  0.3871
  502MOL0     H67749   6.178   5.619   6.445 -2.7367 -0.0170 -1.2155
  502MOL0     H67750   5.312   4.975   6.884  0.1380 -0.3785 -0.7755
  502MOL0     H67751   5.077   4.934   6.893  0.9570 -0.2377 -0.1625
  502MOL0     H67752   4.634   5.092   6.783  0.5360  0.1361  0.1271
  502MOL0     H67753   4.382   5.062   6.811  2.0009 -1.0057 -0.0790
  502MOL0     H67754   2.748   4.529   7.448  0.2521 -1.1284 -0.9126
  502MOL0     H67755   2.563   4.437   7.559 -2.4260  4.4135  0.0934
  502MOL0     H67756   1.975   4.493   7.388 -0.2817  1.3626  0.2671
  502MOL0     H67757   1.760   4.378   7.426  0.1525  1.8378 -0.3529
  502MOL0     H67758   1.783   3.946   7.568  0.9730  0.8382  0.1055
  502MOL0     H67759   1.778   4.033   7.423  0.9330 -1.3037  0.2693
  502MOL0     H67760   1.574   3.877   7.457  0.1416 -0.2988 -0.1255
  502MOL0     H67761   1.548   4.047   7.407  0.7044  0.0167 -0.3648
  502MOL0     H67762   1.492   4.107   7.648  0.9072 -0.2066  0.0098
  502MOL0     H67763   1.492   3.939   7.699  1.1638  0.5641  0.3707
  502MOL0     H67764   1.253   4.017   7.645  0.0407 -0.0681 -0.1559
  502MOL0     H67765   1.301   4.035   7.477 -3.3334 -0.6706  0.8292
  502MOL0     H67766   1.294   3.619   7.492  0.2604 -0.0507  1.6871
  502MOL0     H67767   1.974   4.077   7.652  1.2432  2.2905  3.3620
  502MOL0     H67768   2.197   4.069   7.683  0.4891  0.4119  0.7738
  502MOL0     H67769   2.292   4.149   7.558 -3.3581  1.2768 -2.7679
  502MOL0     H67770   2.255   4.236   7.709 -0.4028  1.0156  0.0324
  503MOL0     O67771   6.307   1.501   1.415 -0.6625  0.4399 -0.1068
  503MOL0     C67772   6.240   1.415   1.357  0.1267 -0.0861  0.1006
  503MOL0     O67773   6.272   1.358   1.234 -0.4922  0.0042 -0.4576
  503MOL0     C67774   6.379   1.409   1.160  0.7779  0.4114 -0.0459
  503MOL0     C67775   6.480   1.326   1.114  0.4849  0.0249  0.8477
  503MOL0     C67776   6.601   1.378   1.058  0.4704  0.6278 -0.1835
  503MOL0     C67777   6.610   1.515   1.035  0.4689  0.7251  0.9833
  503MOL0     O67778   6.718   1.579   0.972  0.0255  0.0432  0.1932
  503MOL0     C67779   6.847   1.564   1.040  0.8844 -0.0259  0.2828
  503MOL0     C67780   6.839   1.643   1.170  0.3291  0.6267  0.2514
  503MOL0     C67781   6.976   1.673   1.240 -1.3049 -0.2404  0.5242
  503MOL0     C67782   7.054   1.796   1.183 -0.2017  0.3745  0.2094
  503MOL0     C67783   7.182   1.828   1.257  0.5241  0.6219  0.2294
  503MOL0     C67784   7.282   1.716   1.261 -0.3586 -0.1361 -0.3436
  503MOL0     C67785   7.415   1.755   1.315  0.0403  0.9901 -0.1981
  503MOL0     C67786   7.403   1.773   1.463  0.2764  0.7213 -0.2275
  503MOL0     N67787   7.517   1.833   1.530  0.2680  0.0411  0.5137
  503MOL0     C67788   7.544   1.800   1.658  1.3887  0.1455  0.2127
  503MOL0     C67789   7.676   1.824   1.673 -0.1857 -0.1139 -0.8850
  503MOL0     C67790   7.739   1.841   1.806  0.3673  0.6179 -0.1283
  503MOL0     C67791   7.679   1.966   1.878  0.0385  0.2481  0.9811
  503MOL0     C67792   7.723   1.968   2.025 -0.3422  0.5286  0.1276
  503MOL0     C67793   7.871   1.997   2.031 -0.5822 -0.0121 -0.1838
  503MOL0     O67794   7.899   2.051   2.161 -0.2277  0.2377  0.2941
  503MOL0     C67795   7.977   2.165   2.159  0.6666 -0.1812  0.0142
  503MOL0     C67796   7.921   2.293   2.137  0.6787 -0.0962 -0.0965
  503MOL0     C67797   8.003   2.410   2.145 -0.5574 -0.2341 -0.0110
  503MOL0     C67798   8.135   2.400   2.165 -0.6594  0.0056  0.3344
  503MOL0     C67799   8.216   2.521   2.188 -0.1547 -0.0351 -0.4305
  503MOL0     O67800   8.146   2.635   2.186 -0.7742 -0.1528 -0.5409
  503MOL0     C67801   8.207   2.752   2.171  0.1199  0.4784  0.6892
  503MOL0     C67802   8.154   2.842   2.075  0.2418  0.0274 -1.1964
  503MOL0     C67803   8.219   2.962   2.054  0.4050 -0.1128  0.8341
  503MOL0     C67804   8.326   3.007   2.129 -0.1176 -0.1479  0.0582
  503MOL0     O67805   8.384   3.131   2.100  0.0307 -0.9798  0.0724
  503MOL0     C67806   8.407   3.217   2.213 -0.2462  0.3331 -0.3977
  503MOL0     C67807   8.410   3.350   2.146  0.2089  0.5119 -0.1737
  503MOL0     C67808   8.447   3.450   2.254  0.3791 -0.5833 -0.4458
  503MOL0     C67809   8.592   3.510   2.249  0.4779 -0.2612 -0.0983
  503MOL0     C67810   8.615   3.609   2.360  0.5540 -0.1948 -0.5978
  503MOL0     C67811   8.720   3.703   2.315 -0.8860  0.7720 -0.5962
  503MOL0     C67812   8.762   3.787   2.437 -0.7020  0.5696  0.1048
  503MOL0     C67813   8.896   3.860   2.421 -0.0437 -0.4688 -0.1404
  503MOL0    Cl67814   8.897   3.959   2.267  0.7840 -0.3847 -0.4625
  503MOL0     C67815   8.372   2.925   2.237  0.0335 -0.3300 -0.1674
  503MOL0     C67816   8.318   2.799   2.250 -0.2878  0.5085 -0.0875
  503MOL0     O67817   8.340   2.507   2.198  0.2507  0.3214 -0.2573
  503MOL0     C67818   8.186   2.271   2.203  0.1285  0.4332 -0.2990
  503MOL0     C67819   8.104   2.156   2.202 -0.3971 -0.2128  0.1332
  503MOL0     N67820   7.733   1.861   1.553  0.0876  0.0449 -0.0390
  503MOL0     N67821   7.638   1.859   1.468  0.0369  0.1736 -0.0045
  503MOL0     C67822   6.497   1.594   1.052  0.6636  0.4581 -0.4917
  503MOL0     C67823   6.393   1.546   1.136  0.8152 -0.1785  0.3612
  503MOL0     C67824   6.118   1.366   1.429  0.9765  0.4649 -1.2974
  503MOL0     C67825   6.039   1.463   1.506 -0.1696  0.2221 -0.5123
  503MOL0     C67826   5.937   1.409   1.584  0.4861  0.3728 -0.5301
  503MOL0     C67827   5.908   1.269   1.598 -0.7343 -0.9882  0.3580
  503MOL0     O67828   5.809   1.234   1.689 -0.4932 -0.3576 -0.2878
  503MOL0     C67829   5.741   1.108   1.684  0.5004 -1.3617  0.1036
  503MOL0     C67830   5.594   1.147   1.653  0.6341  0.5472  0.3321
  503MOL0     C67831   5.537   1.228   1.771 -0.4559 -1.5533 -1.6731
  503MOL0     C67832   5.531   1.176   1.920 -1.6474 -0.4755 -0.0201
  503MOL0     C67833   5.457   1.048   1.906 -0.0566 -0.9276  0.0061
  503MOL0     C67834   5.396   0.946   1.904 -0.7186  0.2705 -0.1514
  503MOL0     C67835   5.982   1.183   1.520  0.0891  0.2999 -0.4719
  503MOL0     C67836   6.084   1.228   1.437  0.2132  0.2253 -0.4081
  503MOL0     C67837   6.145   1.126   1.351 -0.8454  0.2281 -0.4531
  503MOL0     H67838   6.459   1.220   1.129 -1.2620  0.2674  0.3465
  503MOL0     H67839   6.680   1.313   1.022  3.1150  2.7317  1.4557
  503MOL0     H67840   6.874   1.460   1.058  0.6936  0.3951  3.9115
  503MOL0     H67841   6.923   1.611   0.978 -1.9128  2.4801 -1.5467
  503MOL0     H67842   6.775   1.590   1.241 -1.1947  0.1494 -1.3846
  503MOL0     H67843   6.789   1.739   1.148  2.5243  1.3192 -2.1699
  503MOL0     H67844   7.037   1.583   1.232  0.9089  1.3041 -5.7716
  503MOL0     H67845   6.938   1.688   1.342 -4.2508  0.4827 -0.5725
  503MOL0     H67846   7.076   1.774   1.079 -0.8136 -3.6122  0.7439
  503MOL0     H67847   7.001   1.891   1.192  0.7466  0.8561  0.9041
  503MOL0     H67848   7.218   1.924   1.219  0.6179  0.6072  0.2832
  503MOL0     H67849   7.145   1.853   1.356  2.0180 -0.0396  0.9846
  503MOL0     H67850   7.248   1.629   1.317  0.8244 -0.5066 -0.1718
  503MOL0     H67851   7.300   1.683   1.159  0.8239  1.4809 -0.7040
  503MOL0     H67852   7.433   1.847   1.259 -1.9017  0.8918 -1.0546
  503MOL0     H67853   7.492   1.684   1.285  0.3749  1.2147  0.1187
  503MOL0     H67854   7.317   1.840   1.477  1.4189  2.0273  0.7819
  503MOL0     H67855   7.390   1.677   1.514  3.5231 -0.2786 -1.0740
  503MOL0     H67856   7.463   1.789   1.730  0.7513  1.2830 -0.3069
  503MOL0     H67857   7.712   1.752   1.865 -2.1735  0.3518 -1.5574
  503MOL0     H67858   7.845   1.856   1.787  0.4541  2.8925  1.7054
  503MOL0     H67859   7.714   2.056   1.827 -0.4082 -0.7601 -1.2565
  503MOL0     H67860   7.571   1.972   1.863  0.4105  0.3842 -2.4655
  503MOL0     H67861   7.704   1.870   2.071  0.0114  0.0681 -0.6842
  503MOL0     H67862   7.659   2.039   2.078  0.0321  2.5661 -2.0050
  503MOL0     H67863   7.910   2.059   1.951  1.6979 -1.4073 -0.2368
  503MOL0     H67864   7.929   1.905   2.016 -3.4310 -2.3886  1.9609
  503MOL0     H67865   7.814   2.302   2.118  0.1139 -0.9322  2.3264
  503MOL0     H67866   7.961   2.509   2.132 -0.1285  0.2084  1.7260
  503MOL0     H67867   8.062   2.821   2.022  0.1079  3.6683 -2.6683
  503MOL0     H67868   8.169   3.026   1.981  0.6293  0.0583  0.8298
  503MOL0     H67869   8.315   3.213   2.273 -1.1769 -0.3213 -1.8356
  503MOL0     H67870   8.493   3.179   2.269 -0.7176 -1.7640 -1.0077
  503MOL0     H67871   8.476   3.334   2.060 -0.8341 -2.6245 -0.5416
  503MOL0     H67872   8.311   3.369   2.104  0.1223  2.9241  0.9973
  503MOL0     H67873   8.369   3.526   2.257  1.3143  0.3613  1.3217
  503MOL0     H67874   8.434   3.400   2.351 -0.1096 -0.1330 -0.2709
  503MOL0     H67875   8.594   3.553   2.149  1.5657 -1.4317 -0.5983
  503MOL0     H67876   8.668   3.432   2.254 -0.1255 -0.8670 -0.2096
  503MOL0     H67877   8.633   3.549   2.451 -1.1175 -3.4355 -2.2122
  503MOL0     H67878   8.527   3.672   2.377  0.2286  0.0719 -2.9442
  503MOL0     H67879   8.803   3.635   2.290 -2.5309 -2.2300  1.5735
  503MOL0     H67880   8.691   3.760   2.226 -1.9590  1.3785  0.1257
  503MOL0     H67881   8.765   3.715   2.518 -1.8241  1.4371  0.9503
  503MOL0     H67882   8.685   3.863   2.454 -1.4426 -0.5128  1.7264
  503MOL0     H67883   8.901   3.932   2.503 -1.2343 -1.8102  1.1717
  503MOL0     H67884   8.980   3.790   2.420 -1.2108 -1.9076 -0.8639
  503MOL0     H67885   8.444   2.959   2.311  2.3559  0.4133 -2.6040
  503MOL0     H67886   8.357   2.738   2.331  0.2391  0.7663 -0.1369
  503MOL0     H67887   8.287   2.268   2.242  0.7742 -2.6565 -1.9017
  503MOL0     H67888   8.134   2.059   2.240 -0.2237 -0.8857 -1.6220
  503MOL0     H67889   6.512   1.692   1.007 -0.9568  1.0735  0.2226
  503MOL0     H67890   6.309   1.607   1.170 -0.8077 -1.4943 -1.1364
  503MOL0     H67891   6.066   1.567   1.495  1.0098 -0.1833 -1.8026
  503MOL0     H67892   5.868   1.468   1.644 -0.8920  0.2286 -1.9112
  503MOL0     H67893   5.749   1.055   1.780  3.0502  0.0900  0.8038
  503MOL0     H67894   5.785   1.036   1.615 -0.2024 -1.8303  0.1384
  503MOL0     H67895   5.535   1.058   1.630 -0.5794  1.3935  0.0726
  503MOL0     H67896   5.592   1.203   1.559  0.0106  0.9579  0.5788
  503MOL0     H67897   5.433   1.254   1.751 -0.4064  0.2144  0.0344
  503MOL0     H67898   5.586   1.326   1.764 -0.8158 -1.3304 -1.1844
  503MOL0     H67899   5.633   1.154   1.954 -1.2168 -0.6579 -1.3597
  503MOL0     H67900   5.482   1.238   1.995 -0.0227  3.3897 -1.9206
  503MOL0     H67901   5.332   0.860   1.908 -0.7191  0.3112  2.3217
  503MOL0     H67902   5.946   1.081   1.515 -3.2090  1.2969  0.1727
  503MOL0     H67903   6.121   1.139   1.245 -2.4460 -4.4999 -0.8889
  503MOL0     H67904   6.251   1.135   1.373 -0.5506  1.0818 -2.0962
  503MOL0     H67905   6.109   1.026   1.378  2.6598 -1.1218 -0.3081
  504MOL0     O67906   5.368   4.541   8.658  1.1811 -0.1884 -0.9305
  504MOL0     C67907   5.298   4.485   8.575  0.1079  0.1981 -0.8925
  504MOL0     O67908   5.343   4.393   8.486 -0.7540  0.4250  1.0278
  504MOL0     C67909   5.475   4.355   8.502  0.5778 -0.0118  0.1118
  504MOL0     C67910   5.506   4.235   8.562 -0.7777  0.4476  0.1514
  504MOL0     C67911   5.635   4.205   8.600 -1.0480  0.4640 -1.1851
  504MOL0     C67912   5.738   4.296   8.565  0.6627 -0.0600 -0.6458
  504MOL0     O67913   5.864   4.242   8.584 -0.8289  0.4442  0.1490
  504MOL0     C67914   5.987   4.323   8.563  0.3520 -0.2356  0.1506
  504MOL0     C67915   6.112   4.235   8.569  0.6267 -0.9018  0.2312
  504MOL0     C67916   6.235   4.319   8.511  0.4950 -0.3168 -1.3686
  504MOL0     C67917   6.370   4.241   8.511  0.0464  0.7796  0.4846
  504MOL0     C67918   6.473   4.330   8.439 -0.4507  0.3902 -0.3887
  504MOL0     C67919   6.610   4.272   8.441 -0.7353  0.2943  0.7145
  504MOL0     C67920   6.713   4.370   8.375  0.4009 -0.5761 -0.2812
  504MOL0     C67921   6.740   4.491   8.470 -0.6723  0.6111  0.3408
  504MOL0     N67922   6.862   4.567   8.426  0.4061  0.3229 -0.2479
  504MOL0     C67923   6.856   4.675   8.339  1.1183 -0.2366 -0.7947
  504MOL0     C67924   6.987   4.695   8.310 -0.0807 -0.1264 -0.1224
  504MOL0     C67925   7.016   4.805   8.226 -0.0427 -0.2677 -0.8241
  504MOL0     C67926   7.161   4.865   8.242  0.7265  0.3662  0.5770
  504MOL0     C67927   7.178   4.994   8.159 -0.0188 -0.1743  0.0117
  504MOL0     C67928   7.318   5.041   8.178  0.3238 -0.2810 -0.3049
  504MOL0     O67929   7.314   5.174   8.133 -0.8055 -0.8283 -0.4530
  504MOL0     C67930   7.431   5.244   8.136 -0.0928 -0.1201  0.1917
  504MOL0     C67931   7.433   5.379   8.108 -0.2033  0.2263 -0.4162
  504MOL0     C67932   7.550   5.460   8.111 -0.6182 -0.8285 -0.0845
  504MOL0     C67933   7.672   5.405   8.153  0.2663  0.1541 -0.0094
  504MOL0     C67934   7.791   5.499   8.166  0.0948  1.1751  0.1063
  504MOL0     O67935   7.783   5.615   8.100 -0.5746 -1.2014 -0.1031
  504MOL0     C67936   7.889   5.711   8.097 -0.4877 -0.2355  0.2346
  504MOL0     C67937   7.882   5.813   7.994  0.5746  0.8032 -0.6186
  504MOL0     C67938   7.972   5.915   7.997  0.7014  0.4265 -0.3855
  504MOL0     C67939   8.068   5.922   8.095 -0.4247 -0.3171  0.7528
  504MOL0     O67940   8.153   6.025   8.102  0.2022 -0.4997  0.2124
  504MOL0     C67941   8.121   6.149   8.036 -0.4421  0.3296  0.2538
  504MOL0     C67942   8.208   6.263   8.083 -0.8666  0.0489  0.3944
  504MOL0     C67943   8.355   6.216   8.084  0.4833 -0.5912 -0.2041
  504MOL0     C67944   8.449   6.336   8.104  0.0276 -0.8467  0.5574
  504MOL0     C67945   8.588   6.282   8.124  0.4177  0.4811 -0.5445
  504MOL0     C67946   8.692   6.387   8.182 -0.5830  0.7279 -0.2575
  504MOL0     C67947   8.839   6.335   8.180  0.3850  0.5115 -0.3489
  504MOL0     C67948   8.934   6.445   8.141 -0.4082  0.6357 -0.0810
  504MOL0    Cl67949   8.911   6.573   8.268  0.3323  0.1064 -0.2162
  504MOL0     C67950   8.078   5.831   8.196 -0.5459 -0.4823  0.8211
  504MOL0     C67951   7.989   5.730   8.199  0.6064  0.5422  0.3293
  504MOL0     O67952   7.885   5.465   8.241 -0.3049 -0.0108  0.3641
  504MOL0     C67953   7.678   5.272   8.179 -0.0433 -0.4040  0.2718
  504MOL0     C67954   7.562   5.190   8.169 -0.2442  0.5260  0.5440
  504MOL0     N67955   7.073   4.623   8.393  0.7949  0.7706  0.5355
  504MOL0     N67956   6.992   4.541   8.452  0.4757  0.3736  1.1234
  504MOL0     C67957   5.705   4.418   8.503  0.0556 -0.4662 -0.8036
  504MOL0     C67958   5.574   4.449   8.476 -0.6846 -0.7093 -0.1309
  504MOL0     C67959   5.147   4.508   8.572 -0.2567 -0.4985 -0.8072
  504MOL0     C67960   5.070   4.404   8.522 -0.5890  0.0281 -1.3912
  504MOL0     C67961   4.926   4.420   8.531  0.6406  0.6004  0.3479
  504MOL0     C67962   4.870   4.543   8.568 -0.2757 -0.7475 -0.0094
  504MOL0     O67963   4.732   4.552   8.581 -0.1557 -0.4904  0.1196
  504MOL0     C67964   4.651   4.671   8.607  0.0164 -0.1423  0.1651
  504MOL0     C67965   4.512   4.625   8.648  0.0291  0.0955 -1.2658
  504MOL0     C67966   4.514   4.554   8.781  0.3997 -0.4014 -0.0917
  504MOL0     C67967   4.372   4.504   8.824 -0.0277 -0.3906  0.1685
  504MOL0     C67968   4.383   4.436   8.953  0.2647 -0.5633 -0.2290
  504MOL0     C67969   4.375   4.395   9.066 -0.1808  0.4531  0.3832
  504MOL0     C67970   4.958   4.655   8.601 -0.5273 -0.3277  0.5442
  504MOL0     C67971   5.095   4.631   8.607 -0.0350 -0.8556 -0.6792
  504MOL0     C67972   5.178   4.751   8.646 -0.1327 -0.0254 -0.5470
  504MOL0     H67973   5.431   4.159   8.580 -2.5360  1.8645 -0.9389
  504MOL0     H67974   5.672   4.113   8.644 -1.5377  0.3330 -1.0504
  504MOL0     H67975   5.985   4.383   8.471  0.8720  2.4558  1.7702
  504MOL0     H67976   5.986   4.402   8.638 -0.6116 -0.8743  0.8283
  504MOL0     H67977   6.097   4.144   8.510  0.2532 -0.6924  0.0014
  504MOL0     H67978   6.127   4.201   8.672 -0.9365 -0.8526  0.5046
  504MOL0     H67979   6.247   4.409   8.571 -1.7026  0.8235 -2.5289
  504MOL0     H67980   6.218   4.340   8.405 -2.5626 -0.1897 -0.9350
  504MOL0     H67981   6.382   4.222   8.618 -2.8590 -0.3046  0.7200
  504MOL0     H67982   6.369   4.147   8.455  0.8685  2.2600 -2.1749
  504MOL0     H67983   6.450   4.347   8.334  1.0022 -1.9303 -1.1458
  504MOL0     H67984   6.485   4.423   8.496 -0.1368  1.5279 -2.2524
  504MOL0     H67985   6.646   4.253   8.543  0.4203  2.3064  0.7402
  504MOL0     H67986   6.609   4.185   8.376  0.9043  1.1217 -0.4960
  504MOL0     H67987   6.681   4.411   8.279 -0.4045  1.7379  0.8962
  504MOL0     H67988   6.805   4.312   8.362  0.5249 -0.9000  1.7181
  504MOL0     H67989   6.661   4.566   8.475 -0.6350  0.6094  1.1040
  504MOL0     H67990   6.766   4.450   8.568 -1.6742  1.2820  0.8983
  504MOL0     H67991   6.771   4.718   8.287  1.3961 -0.6131 -1.5732
  504MOL0     H67992   7.014   4.767   8.123  1.1570 -1.2266 -0.5130
  504MOL0     H67993   6.935   4.877   8.236  0.7447  0.3898  1.3175
  504MOL0     H67994   7.189   4.881   8.346  0.3232  0.2090  0.7103
  504MOL0     H67995   7.224   4.786   8.199 -2.3739 -2.0798  0.1921
  504MOL0     H67996   7.104   5.068   8.190  0.7369  0.1475  1.0677
  504MOL0     H67997   7.164   4.969   8.053  0.2555 -0.2347 -0.0102
  504MOL0     H67998   7.386   4.986   8.113 -0.4750  1.3442 -2.6172
  504MOL0     H67999   7.360   5.026   8.278  2.5724  2.1854 -0.7984
  504MOL0     H68000   7.340   5.431   8.083  0.8096  2.0836 -0.5296
  504MOL0     H68001   7.535   5.564   8.084 -1.9856 -0.7763  0.7649
  504MOL0     H68002   7.807   5.809   7.915  2.1921  2.2928 -2.3395
  504MOL0     H68003   7.967   5.990   7.918 -1.4934  0.1297 -0.5992
  504MOL0     H68004   8.144   6.126   7.931  2.5234 -0.1097  0.9079
  504MOL0     H68005   8.014   6.173   8.037 -0.4398  0.3307  1.2561
  504MOL0     H68006   8.189   6.343   8.012 -2.0265 -1.7448 -1.4177
  504MOL0     H68007   8.185   6.301   8.183  1.0773 -0.5714  1.1215
  504MOL0     H68008   8.364   6.142   8.164  1.3070 -0.2469  0.0334
  504MOL0     H68009   8.370   6.172   7.986  1.2775  0.8784 -0.7710
  504MOL0     H68010   8.419   6.387   8.196 -1.4045 -2.8937  1.3033
  504MOL0     H68011   8.440   6.420   8.034 -3.0567 -1.0539  0.5825
  504MOL0     H68012   8.623   6.234   8.033 -0.7478 -1.2457 -0.1311
  504MOL0     H68013   8.579   6.195   8.190  0.5507 -0.0987 -1.2760
  504MOL0     H68014   8.687   6.483   8.131  1.5388  1.2950  0.5328
  504MOL0     H68015   8.663   6.401   8.286  1.8930  2.1572  0.2925
  504MOL0     H68016   8.851   6.249   8.115  0.1848  0.0099  0.2660
  504MOL0     H68017   8.864   6.303   8.282  0.3487  3.2283  0.6046
  504MOL0     H68018   9.030   6.392   8.144 -0.7816  0.0072  0.9093
  504MOL0     H68019   8.925   6.472   8.035 -0.1077  1.6352  0.1301
  504MOL0     H68020   8.153   5.848   8.273  0.2884 -2.3000  0.4633
  504MOL0     H68021   8.001   5.662   8.283  1.5390  0.2006 -0.0671
  504MOL0     H68022   7.770   5.225   8.214  1.3000  1.1912 -0.9800
  504MOL0     H68023   7.574   5.087   8.200  1.5658 -0.5254 -3.0452
  504MOL0     H68024   5.786   4.488   8.482  1.2492 -1.3396  0.6807
  504MOL0     H68025   5.541   4.542   8.430  1.1285  0.4827  0.8833
  504MOL0     H68026   5.112   4.308   8.494  2.4053  0.3457  1.3861
  504MOL0     H68027   4.871   4.332   8.500  0.0743  1.4525 -1.1314
  504MOL0     H68028   4.661   4.735   8.519 -1.6894 -1.0445 -0.7510
  504MOL0     H68029   4.699   4.718   8.693  0.1486 -0.5642  0.3307
  504MOL0     H68030   4.461   4.565   8.572 -1.6715  2.0074 -1.7136
  504MOL0     H68031   4.457   4.719   8.650 -2.4720 -1.2017 -3.2579
  504MOL0     H68032   4.555   4.620   8.858 -0.7898 -0.7393  0.8467
  504MOL0     H68033   4.584   4.471   8.766  1.6414  0.5073  0.4467
  504MOL0     H68034   4.302   4.587   8.834  1.2176  0.6133  0.8261
  504MOL0     H68035   4.335   4.432   8.750 -0.0338 -0.8350  0.5950
  504MOL0     H68036   4.369   4.350   9.164  0.3192  1.6763  1.0017
  504MOL0     H68037   4.912   4.747   8.635 -0.5079 -0.7415  1.7400
  504MOL0     H68038   5.265   4.751   8.579  0.3822  0.5023  0.1211
  504MOL0     H68039   5.123   4.845   8.644  1.4881  0.9448 -0.7305
  504MOL0     H68040   5.200   4.742   8.752 -0.2653 -0.4581 -0.5508
  505MOL0     O68041   4.526  10.912   1.223 -1.0328  0.4889 -0.2620
  505MOL0     C68042   4.507  11.033   1.245 -0.4335 -0.2727  0.2528
  505MOL0     O68043   4.599  11.138   1.242 -0.5090 -0.3383  0.0524
  505MOL0     C68044   4.732  11.122   1.213  0.0723  0.4165 -0.4955
  505MOL0     C68045   4.801  11.219   1.133  0.4462 -1.0108  0.0435
  505MOL0     C68046   4.933  11.220   1.102 -0.7511 -0.7048 -0.0329
  505MOL0     C68047   5.006  11.108   1.147  0.2822 -0.3187  0.4513
  505MOL0     O68048   5.141  11.094   1.139  0.4251  0.1825  0.2256
  505MOL0     C68049   5.215  11.165   1.033  0.0729 -0.3415  0.1677
  505MOL0     C68050   5.357  11.111   1.015 -0.3805  0.7218  0.0739
  505MOL0     C68051   5.450  11.154   1.128  0.1412 -0.1476  0.6616
  505MOL0     C68052   5.532  11.031   1.172 -0.3408  0.5111 -0.0372
  505MOL0     C68053   5.633  10.983   1.062 -0.3045  0.0496 -0.5070
  505MOL0     C68054   5.751  11.071   1.044  0.1768 -0.3024 -0.2115
  505MOL0     C68055   5.846  11.082   1.168  0.0371  0.4503 -0.7674
  505MOL0     C68056   5.962  11.169   1.125 -0.4656 -0.0284 -0.7894
  505MOL0     N68057   6.067  11.151   1.227 -0.3321 -0.2023  0.4282
  505MOL0     C68058   6.163  11.047   1.223  0.8838  0.5093  0.5697
  505MOL0     C68059   6.199  11.048   1.353 -0.3580 -0.7002  0.5031
  505MOL0     C68060   6.284  10.957   1.434 -0.0934  0.1067  0.5767
  505MOL0     C68061   6.395  11.044   1.504  0.1619 -1.2271  0.1677
  505MOL0     C68062   6.494  11.106   1.404 -0.7035  0.2446  0.2059
  505MOL0     C68063   6.614  11.003   1.377 -0.4485 -0.7457  0.0946
  505MOL0     O68064   6.684  11.045   1.263  0.4172 -0.1223  0.5368
  505MOL0     C68065   6.794  11.122   1.275 -0.9390  0.4408 -0.5018
  505MOL0     C68066   6.870  11.132   1.158 -0.4039 -1.1692 -0.4423
  505MOL0     C68067   6.981  11.212   1.152  0.1089 -0.1779  0.2568
  505MOL0     C68068   7.018  11.296   1.259  0.0355  1.2520  0.2006
  505MOL0     C68069   7.138  11.375   1.248 -0.1967  0.3631 -0.1572
  505MOL0     O68070   7.169  11.429   1.124  0.0020  0.1012 -0.4999
  505MOL0     C68071   7.295  11.459   1.097 -0.0711 -0.3147 -0.4200
  505MOL0     C68072   7.340  11.594   1.083  0.5110  0.4157  0.6297
  505MOL0     C68073   7.462  11.617   1.015  0.4860 -0.0204  0.5175
  505MOL0     C68074   7.541  11.510   0.967 -0.1606 -0.1040 -0.4468
  505MOL0     O68075   7.667  11.532   0.911  0.0361 -0.6312 -0.8412
  505MOL0     C68076   7.775  11.504   0.998 -0.5272 -0.1243 -0.1691
  505MOL0     C68077   7.873  11.430   0.917 -0.7884  0.0068  0.2342
  505MOL0     C68078   7.957  11.525   0.832 -1.0161 -0.1678  0.0677
  505MOL0     C68079   8.051  11.452   0.734  0.8538 -0.4093 -0.3870
  505MOL0     C68080   8.123  11.543   0.637  0.1255 -0.6872  0.5431
  505MOL0     C68081   8.220  11.462   0.551  0.8766  0.1330  0.3725
  505MOL0     C68082   8.290  11.532   0.437  0.4139 -0.3818  0.2486
  505MOL0     C68083   8.428  11.474   0.407  0.0231  0.3852 -0.9193
  505MOL0    Cl68084   8.412  11.304   0.326 -0.1703 -0.3848 -0.0285
  505MOL0     C68085   7.493  11.378   0.999 -0.7985 -0.6870 -0.5625
  505MOL0     C68086   7.379  11.351   1.067 -0.8258  0.1287 -0.2658
  505MOL0     O68087   7.208  11.392   1.345  0.1705 -0.2963 -0.4868
  505MOL0     C68088   6.947  11.289   1.376  0.2814 -0.0983  0.1538
  505MOL0     C68089   6.836  11.201   1.386 -0.0215 -0.4430 -0.8641
  505MOL0     N68090   6.147  11.161   1.414 -0.5161  0.6387 -0.2811
  505MOL0     N68091   6.066  11.225   1.341  1.0285  0.7462  0.0785
  505MOL0     C68092   4.939  11.000   1.207  1.1849  0.6267 -0.2967
  505MOL0     C68093   4.800  11.007   1.238 -0.4984  0.2896 -0.2003
  505MOL0     C68094   4.360  11.068   1.273 -0.3202 -0.5775  0.5282
  505MOL0     C68095   4.277  10.965   1.321 -1.0484  0.0193 -0.5074
  505MOL0     C68096   4.150  10.995   1.357 -0.2877  0.4333 -0.2551
  505MOL0     C68097   4.099  11.126   1.358 -0.1357  0.4197  0.4075
  505MOL0     O68098   3.968  11.169   1.392 -0.3188  0.0317 -0.5051
  505MOL0     C68099   3.883  11.082   1.461  0.6092 -0.3490 -0.4818
  505MOL0     C68100   3.779  11.153   1.545 -0.4055 -0.6873  0.0904
  505MOL0     C68101   3.710  11.265   1.473 -0.0908  0.6190 -0.2927
  505MOL0     C68102   3.616  11.225   1.361 -0.1522 -0.3577 -0.0669
  505MOL0     C68103   3.485  11.191   1.423 -0.0778  0.3987  0.1042
  505MOL0     C68104   3.376  11.160   1.477  0.2103  0.5260  0.8931
  505MOL0     C68105   4.183  11.228   1.315  0.2112  0.1634 -0.0834
  505MOL0     C68106   4.311  11.204   1.266  0.1850 -0.1479  0.0749
  505MOL0     C68107   4.373  11.323   1.196  0.0993 -1.3380  0.2969
  505MOL0     H68108   4.730  11.291   1.093  0.0890  1.0083  3.7859
  505MOL0     H68109   4.966  11.292   1.028  0.0839  0.9679  1.9025
  505MOL0     H68110   5.177  11.161   0.931  1.6836  0.4986 -0.4941
  505MOL0     H68111   5.208  11.271   1.058  0.0176 -0.6774  1.6588
  505MOL0     H68112   5.395  11.163   0.926  0.4192 -0.4553 -0.2840
  505MOL0     H68113   5.351  11.002   1.008 -1.3276  0.8144 -0.7574
  505MOL0     H68114   5.394  11.193   1.214 -0.4597 -1.1579  0.7415
  505MOL0     H68115   5.518  11.234   1.098  2.0346 -1.0897  2.1754
  505MOL0     H68116   5.581  11.038   1.270  2.0747  0.7550 -1.2042
  505MOL0     H68117   5.472  10.946   1.206  1.1068 -1.1596 -1.4893
  505MOL0     H68118   5.679  10.887   1.088 -1.1708  0.3155  2.2635
  505MOL0     H68119   5.589  10.959   0.965  1.7375 -0.4984 -1.3480
  505MOL0     H68120   5.814  11.023   0.968 -1.1184 -1.0845 -0.8364
  505MOL0     H68121   5.723  11.174   1.020 -1.2125 -0.4331  0.7218
  505MOL0     H68122   5.876  10.987   1.212 -0.3093  1.0201  0.7596
  505MOL0     H68123   5.789  11.126   1.250  1.5739 -1.5281  1.5186
  505MOL0     H68124   5.995  11.144   1.023  3.1103  2.0607 -0.3402
  505MOL0     H68125   5.929  11.273   1.129  0.5697  0.2573  2.0144
  505MOL0     H68126   6.183  10.974   1.146 -1.0317  1.0340 -0.4877
  505MOL0     H68127   6.223  10.904   1.508  2.6387 -0.9356  2.2400
  505MOL0     H68128   6.337  10.892   1.363  0.5748  1.8485 -0.5816
  505MOL0     H68129   6.334  11.117   1.557 -0.1269 -2.0855  1.0502
  505MOL0     H68130   6.454  10.984   1.574 -2.5838 -1.2065  2.6867
  505MOL0     H68131   6.531  11.204   1.436 -0.7202  1.1568 -2.2851
  505MOL0     H68132   6.451  11.123   1.304 -1.0365 -2.2063 -0.1319
  505MOL0     H68133   6.573  10.905   1.352 -0.6172 -0.8524  0.7598
  505MOL0     H68134   6.674  10.995   1.468  0.6202  0.8899 -0.4236
  505MOL0     H68135   6.819  11.078   1.079 -1.1632 -0.8054 -0.2137
  505MOL0     H68136   7.034  11.211   1.057 -0.9013  1.8202 -0.3705
  505MOL0     H68137   7.279  11.679   1.111  1.1567  0.8842  0.6572
  505MOL0     H68138   7.499  11.719   1.011  3.0617 -0.9103 -0.3300
  505MOL0     H68139   7.827  11.590   1.041 -0.2390 -1.4980  2.4333
  505MOL0     H68140   7.742  11.442   1.082  0.5519 -2.0498 -1.0940
  505MOL0     H68141   7.941  11.371   0.980  0.1176 -0.2790 -0.9730
  505MOL0     H68142   7.821  11.355   0.856 -0.0199  0.4901 -1.0638
  505MOL0     H68143   7.888  11.596   0.785  1.4884  1.1620 -1.8607
  505MOL0     H68144   8.027  11.577   0.897 -1.5245  0.8601 -0.1843
  505MOL0     H68145   8.009  11.360   0.693 -1.3595 -1.1974  3.1833
  505MOL0     H68146   8.122  11.402   0.800  0.9159  1.9298  1.4453
  505MOL0     H68147   8.172  11.625   0.690 -1.2968  1.6939 -1.5928
  505MOL0     H68148   8.053  11.594   0.570  0.3654 -2.8157 -1.4748
  505MOL0     H68149   8.303  11.432   0.615  1.0039  0.8503  0.5483
  505MOL0     H68150   8.163  11.379   0.508 -0.0707  0.6128  0.6880
  505MOL0     H68151   8.304  11.638   0.458  1.0026 -0.1378 -1.2273
  505MOL0     H68152   8.228  11.529   0.347 -3.0151 -2.6359  2.4540
  505MOL0     H68153   8.468  11.540   0.329 -0.2055  1.5728 -0.0599
  505MOL0     H68154   8.496  11.474   0.492  0.6485  3.3406 -1.3124
  505MOL0     H68155   7.559  11.298   0.968  1.4218 -0.6046  3.4045
  505MOL0     H68156   7.351  11.247   1.079  1.3677 -0.3752  0.9946
  505MOL0     H68157   6.978  11.355   1.456 -1.7096  0.6481  0.3660
  505MOL0     H68158   6.778  11.207   1.478  0.0261  0.4389 -0.8905
  505MOL0     H68159   5.000  10.916   1.238  0.0087  0.4055  1.5389
  505MOL0     H68160   4.758  10.929   1.301  0.6851 -1.3614 -1.3530
  505MOL0     H68161   4.321  10.868   1.341 -0.4159  0.3319 -0.3518
  505MOL0     H68162   4.092  10.917   1.406  1.1790  0.9613  2.5535
  505MOL0     H68163   3.933  11.014   1.531 -0.4970 -0.9903 -0.2947
  505MOL0     H68164   3.831  11.019   1.387  0.0478 -0.4712  0.0102
  505MOL0     H68165   3.819  11.200   1.635 -1.3566 -0.4510  0.3941
  505MOL0     H68166   3.709  11.076   1.579  0.1246  0.1667  3.4058
  505MOL0     H68167   3.785  11.335   1.435 -1.4127  1.9165 -0.6252
  505MOL0     H68168   3.662  11.325   1.552 -0.8280  1.5442 -1.4070
  505MOL0     H68169   3.598  11.312   1.297 -1.6290  0.0340  0.8199
  505MOL0     H68170   3.653  11.147   1.294 -0.1408  0.0315 -0.5260
  505MOL0     H68171   3.276  11.138   1.508  0.6292  0.4830  2.2388
  505MOL0     H68172   4.128  11.321   1.322  1.4203  0.9998 -1.4027
  505MOL0     H68173   4.434  11.293   1.110 -0.8134  0.0368 -0.8735
  505MOL0     H68174   4.299  11.395   1.161 -1.7859 -4.2596 -2.1839
  505MOL0     H68175   4.447  11.368   1.263  0.4927 -2.1877  0.4431
  506MOL0     O68176   4.990   6.559   7.730 -0.3695  0.8151 -0.4975
  506MOL0     C68177   4.929   6.637   7.658  0.3449  0.1200 -0.3105
  506MOL0     O68178   4.968   6.690   7.540 -0.6401  0.5005  0.3077
  506MOL0     C68179   5.097   6.680   7.505 -0.0450  0.0152  1.0461
  506MOL0     C68180   5.206   6.724   7.578 -1.3923  0.3107  0.1645
  506MOL0     C68181   5.331   6.713   7.511 -0.3881 -0.0439 -0.2780
  506MOL0     C68182   5.343   6.668   7.379 -0.1711  0.7946  0.8561
  506MOL0     O68183   5.460   6.667   7.305 -0.1524 -0.6211  0.0900
  506MOL0     C68184   5.574   6.608   7.362  0.2083 -0.0515  0.1423
  506MOL0     C68185   5.577   6.460   7.307 -0.9464  0.1870 -0.1059
  506MOL0     C68186   5.468   6.357   7.338 -0.0515  0.0428 -0.3467
  506MOL0     C68187   5.513   6.217   7.305 -0.3191 -0.2106  0.6679
  506MOL0     C68188   5.430   6.115   7.373 -0.1090  0.7732  0.1311
  506MOL0     C68189   5.482   5.971   7.359 -0.5047  0.3302  0.3770
  506MOL0     C68190   5.633   5.949   7.391 -0.6713  0.2099 -0.4691
  506MOL0     C68191   5.669   5.959   7.543 -0.1863 -0.7111  0.6552
  506MOL0     N68192   5.821   5.946   7.562 -0.1304  0.8474  0.4009
  506MOL0     C68193   5.899   5.833   7.558 -0.0712  0.7096 -0.7326
  506MOL0     C68194   6.028   5.876   7.557 -0.1771 -0.2831 -0.0570
  506MOL0     C68195   6.152   5.794   7.534  0.3314  0.3381 -0.8724
  506MOL0     C68196   6.260   5.841   7.629 -0.1081 -0.2634  0.4804
  506MOL0     C68197   6.361   5.728   7.644  0.1646  1.0967  1.1661
  506MOL0     C68198   6.505   5.785   7.668 -0.5309 -0.8508  0.3888
  506MOL0     O68199   6.579   5.675   7.724 -0.2825  0.0585  0.6538
  506MOL0     C68200   6.701   5.696   7.778 -0.6607  0.0255 -0.0300
  506MOL0     C68201   6.759   5.591   7.847  0.6821 -0.3417 -0.7863
  506MOL0     C68202   6.886   5.589   7.906  0.0937  0.3120  0.2586
  506MOL0     C68203   6.969   5.700   7.880 -0.0399 -0.1246 -0.5449
  506MOL0     C68204   7.108   5.698   7.930 -0.8411 -0.5666  0.3650
  506MOL0     O68205   7.159   5.824   7.949 -0.8025 -0.2329  0.7129
  506MOL0     C68206   7.279   5.845   8.003 -0.5742 -0.5353  0.3034
  506MOL0     C68207   7.324   5.784   8.117 -0.6627 -0.6515  1.0278
  506MOL0     C68208   7.449   5.806   8.173 -1.0195  0.6059 -0.0512
  506MOL0     C68209   7.537   5.900   8.113 -0.1033 -0.6383  0.1613
  506MOL0     O68210   7.653   5.959   8.159  0.0113 -0.2566  0.5754
  506MOL0     C68211   7.677   5.970   8.304  0.0852  0.7264  0.2315
  506MOL0     C68212   7.796   6.064   8.314 -0.0706  0.4959 -0.3588
  506MOL0     C68213   7.855   6.049   8.453 -0.4753 -0.8421 -0.2066
  506MOL0     C68214   7.992   6.125   8.464  0.0894 -0.5126 -0.0657
  506MOL0     C68215   8.052   6.084   8.600 -0.4435  0.0793 -0.6978
  506MOL0     C68216   8.172   6.175   8.638  0.5147 -0.2701  0.2108
  506MOL0     C68217   8.274   6.178   8.523 -0.7938 -0.1813  0.1652
  506MOL0     C68218   8.412   6.204   8.584 -0.1360  1.2362  0.1043
  506MOL0    Cl68219   8.544   6.183   8.469  0.0168 -0.1458  0.0571
  506MOL0     C68220   7.492   5.962   7.995 -0.4746 -0.4250  0.5602
  506MOL0     C68221   7.365   5.934   7.941 -0.2839  0.4449 -0.5381
  506MOL0     O68222   7.169   5.589   7.930  0.3201  0.2157 -0.3596
  506MOL0     C68223   6.902   5.811   7.812  0.1154 -0.3850 -0.0791
  506MOL0     C68224   6.766   5.818   7.767  0.7732  0.2727  0.3858
  506MOL0     N68225   6.027   6.013   7.563  0.8691 -0.2965 -0.1810
  506MOL0     N68226   5.906   6.048   7.558 -0.0445 -0.1044 -0.2870
  506MOL0     C68227   5.227   6.628   7.310 -0.0567 -0.8187  0.4321
  506MOL0     C68228   5.112   6.628   7.375  0.2988  0.4250 -0.4144
  506MOL0     C68229   4.796   6.688   7.721  0.2514 -0.5395  0.2005
  506MOL0     C68230   4.749   6.621   7.842  0.4440 -0.0035  0.1332
  506MOL0     C68231   4.630   6.665   7.906 -0.5334 -0.2034 -0.8290
  506MOL0     C68232   4.555   6.773   7.859 -0.4467 -0.6995  0.7025
  506MOL0     O68233   4.439   6.806   7.926 -0.5404  0.4576 -0.6964
  506MOL0     C68234   4.391   6.718   8.032 -0.8189  1.2026  0.0211
  506MOL0     C68235   4.265   6.772   8.082  0.6103  0.6758 -0.0862
  506MOL0     C68236   4.211   6.679   8.186 -0.4442 -0.5946 -0.5530
  506MOL0     C68237   4.077   6.730   8.248 -0.1439  0.6298  0.1923
  506MOL0     C68238   4.080   6.868   8.300 -0.3885  0.2376 -0.1250
  506MOL0     C68239   4.085   6.977   8.357  0.3912  0.4349 -0.3068
  506MOL0     C68240   4.602   6.841   7.747 -0.8052 -0.8586  0.4045
  506MOL0     C68241   4.718   6.801   7.677  0.2685  0.8434 -0.6549
  506MOL0     C68242   4.747   6.891   7.562 -0.5644  0.4455  0.1066
  506MOL0     H68243   5.210   6.772   7.675  2.6064  0.8868 -0.1044
  506MOL0     H68244   5.423   6.734   7.565 -0.4874  0.6999 -0.3809
  506MOL0     H68245   5.650   6.672   7.315  0.2940 -1.1077 -1.2400
  506MOL0     H68246   5.582   6.610   7.471  2.0348  0.8225  0.0323
  506MOL0     H68247   5.674   6.420   7.340 -0.3474 -1.0179 -2.9890
  506MOL0     H68248   5.577   6.471   7.198  2.8590 -0.2277 -0.2873
  506MOL0     H68249   5.373   6.369   7.285 -0.3011  0.2082  0.1268
  506MOL0     H68250   5.446   6.363   7.445  0.5505  2.4181 -0.2986
  506MOL0     H68251   5.505   6.208   7.197  0.4215  3.0286  0.2387
  506MOL0     H68252   5.618   6.200   7.332 -0.1858 -2.8760 -1.1102
  506MOL0     H68253   5.439   6.143   7.478 -1.6367  0.3583  0.3970
  506MOL0     H68254   5.323   6.113   7.348 -0.3532  0.8517  1.1196
  506MOL0     H68255   5.422   5.911   7.429  0.3009 -0.8464  0.0894
  506MOL0     H68256   5.452   5.940   7.258  0.7192  2.1756 -0.6028
  506MOL0     H68257   5.701   6.012   7.332  1.4998 -0.8037  0.8257
  506MOL0     H68258   5.656   5.845   7.368 -3.0974 -1.1556  2.5549
  506MOL0     H68259   5.641   6.063   7.559  0.9002  0.7585 -4.8378
  506MOL0     H68260   5.609   5.888   7.601 -0.5110 -1.3816 -0.4478
  506MOL0     H68261   5.869   5.728   7.554  0.0288  0.6790 -0.6950
  506MOL0     H68262   6.122   5.694   7.564 -2.4306  1.1903 -0.4984
  506MOL0     H68263   6.180   5.783   7.429 -0.4442  0.8436 -1.1464
  506MOL0     H68264   6.302   5.931   7.583 -2.8676  0.7594 -0.2358
  506MOL0     H68265   6.226   5.868   7.729  1.3786 -2.1642  1.5773
  506MOL0     H68266   6.370   5.674   7.549 -1.2197  2.0023  0.4749
  506MOL0     H68267   6.330   5.668   7.730  0.2164 -0.1680  0.3258
  506MOL0     H68268   6.493   5.874   7.731 -0.0414  0.7513 -1.6377
  506MOL0     H68269   6.547   5.819   7.573 -0.0298  1.0858  1.2510
  506MOL0     H68270   6.695   5.506   7.871 -0.0277  0.7293  1.3955
  506MOL0     H68271   6.922   5.495   7.944 -0.0741  0.2869  0.3593
  506MOL0     H68272   7.261   5.707   8.162 -0.4405  0.1738  2.8669
  506MOL0     H68273   7.479   5.749   8.260 -2.1274  0.9088  0.5541
  506MOL0     H68274   7.593   6.018   8.355 -0.8792  1.0606 -1.5529
  506MOL0     H68275   7.707   5.872   8.341  0.6397  1.8928  3.1247
  506MOL0     H68276   7.866   6.017   8.244 -1.7929 -0.3926 -1.5733
  506MOL0     H68277   7.781   6.167   8.283  1.9221  1.3545  1.3145
  506MOL0     H68278   7.786   6.073   8.534 -0.3099  0.8247 -0.5188
  506MOL0     H68279   7.878   5.943   8.461 -1.2910 -1.1477 -1.5851
  506MOL0     H68280   7.971   6.232   8.455 -1.0311 -0.6486  0.6986
  506MOL0     H68281   8.060   6.100   8.382 -0.0739  2.8409 -1.4190
  506MOL0     H68282   8.080   5.979   8.592 -0.2290  0.0210  0.6253
  506MOL0     H68283   7.984   6.106   8.683 -0.3749  3.0595 -1.3115
  506MOL0     H68284   8.145   6.277   8.664  0.7721  0.4110 -1.9470
  506MOL0     H68285   8.214   6.131   8.729  0.8128  1.9009  1.1761
  506MOL0     H68286   8.248   6.253   8.447 -2.3445  0.5703  1.3798
  506MOL0     H68287   8.274   6.077   8.482  0.5747  0.1690 -0.7466
  506MOL0     H68288   8.413   6.298   8.640 -1.5027 -0.3004  2.8613
  506MOL0     H68289   8.432   6.127   8.658 -0.6245  1.4797  0.4948
  506MOL0     H68290   7.547   6.042   7.948  1.4798 -2.0125  0.0256
  506MOL0     H68291   7.321   5.998   7.864  1.4330  2.6446  0.2000
  506MOL0     H68292   6.963   5.899   7.800 -0.9128  0.1680 -1.5341
  506MOL0     H68293   6.727   5.908   7.719 -3.1811 -0.6599  1.4562
  506MOL0     H68294   5.212   6.598   7.207 -1.5860  0.6452  0.1881
  506MOL0     H68295   5.018   6.605   7.325 -0.2927 -0.8977  1.2274
  506MOL0     H68296   4.808   6.541   7.885  0.8300 -0.4533 -1.1850
  506MOL0     H68297   4.606   6.618   8.000  0.2761 -1.8530 -1.4032
  506MOL0     H68298   4.458   6.712   8.118 -2.7696  2.8226  1.7395
  506MOL0     H68299   4.376   6.613   8.005  3.6832  0.6914 -1.2834
  506MOL0     H68300   4.181   6.790   8.015  1.3568  0.8778 -0.9855
  506MOL0     H68301   4.301   6.867   8.125 -1.6124  1.5932 -0.1356
  506MOL0     H68302   4.282   6.668   8.269 -2.1406 -1.4605  0.8678
  506MOL0     H68303   4.202   6.578   8.147 -1.5677 -0.5508 -0.4508
  506MOL0     H68304   3.995   6.734   8.176 -2.0955  0.1111  2.2712
  506MOL0     H68305   4.039   6.665   8.328 -1.0000  0.8557 -0.0213
  506MOL0     H68306   4.075   7.068   8.412  0.9033  1.1794 -1.4268
  506MOL0     H68307   4.548   6.929   7.716 -0.8737 -1.2664 -0.6700
  506MOL0     H68308   4.849   6.928   7.573  0.0688 -0.3928 -2.3252
  506MOL0     H68309   4.733   6.840   7.466 -0.3342  2.0946 -0.8434
  506MOL0     H68310   4.681   6.977   7.560 -0.1538  0.7873  0.9522
  507MOL0     O68311   4.055   5.740   6.301  0.3624  0.1660 -0.2630
  507MOL0     C68312   3.960   5.823   6.297  0.4822  0.7329  0.9589
  507MOL0     O68313   3.942   5.911   6.195 -0.5239 -0.0164  0.0145
  507MOL0     C68314   4.053   5.918   6.116  0.7410 -0.3409  0.1387
  507MOL0     C68315   4.179   5.965   6.152  0.3696  0.4396 -1.1480
  507MOL0     C68316   4.290   5.978   6.063 -0.9340 -0.6335  0.2209
  507MOL0     C68317   4.281   5.922   5.929 -0.2087 -0.0717 -0.0959
  507MOL0     O68318   4.380   5.921   5.830 -0.2494 -0.2975 -0.3001
  507MOL0     C68319   4.519   5.925   5.877 -0.3194  0.4053 -0.4453
  507MOL0     C68320   4.612   5.910   5.759  0.1738 -0.3746  0.4506
  507MOL0     C68321   4.748   5.928   5.818 -0.1137 -0.1998 -0.0795
  507MOL0     C68322   4.846   5.868   5.722  0.1138  0.1883  0.6839
  507MOL0     C68323   4.995   5.903   5.751 -0.0624  0.7537  0.5446
  507MOL0     C68324   5.066   5.825   5.860 -0.8163 -0.9676  0.1116
  507MOL0     C68325   5.214   5.878   5.868  0.0441  0.0246 -0.3815
  507MOL0     C68326   5.293   5.826   5.984 -0.2699  0.8534  0.0960
  507MOL0     N68327   5.426   5.889   5.971 -0.5194  0.4812  0.0450
  507MOL0     C68328   5.525   5.873   5.876  0.4432 -0.3940  0.1739
  507MOL0     C68329   5.598   5.993   5.886 -0.2143  0.5915  0.6695
  507MOL0     C68330   5.722   6.037   5.795 -0.6557 -0.3467  0.1839
  507MOL0     C68331   5.828   6.083   5.888  0.3753 -0.9857 -0.2598
  507MOL0     C68332   5.897   5.986   5.986  0.1313  0.9978 -0.1463
  507MOL0     C68333   5.893   5.836   5.934 -0.1267  0.4544  0.7437
  507MOL0     O68334   5.975   5.748   6.011 -0.2103 -0.4983 -0.6445
  507MOL0     C68335   6.108   5.721   5.977  0.1154 -0.2904  0.2842
  507MOL0     C68336   6.164   5.599   6.017  0.1752 -0.5649  0.5473
  507MOL0     C68337   6.296   5.577   5.999 -0.6847 -0.4292  0.5547
  507MOL0     C68338   6.382   5.671   5.942  0.2755  0.2449  0.2543
  507MOL0     C68339   6.526   5.648   5.933  0.2001  0.2152  0.5477
  507MOL0     O68340   6.601   5.758   5.908  0.1187 -0.1257  0.9662
  507MOL0     C68341   6.737   5.756   5.906 -0.8546 -0.8182 -0.2458
  507MOL0     C68342   6.798   5.884   5.919 -0.3936  0.6337  0.2530
  507MOL0     C68343   6.934   5.901   5.932  0.4291 -0.0376 -0.5387
  507MOL0     C68344   7.022   5.787   5.930  0.5386  0.7152  0.0826
  507MOL0     O68345   7.158   5.779   5.962 -0.0000  0.8843 -0.2399
  507MOL0     C68346   7.219   5.905   6.003  0.8696 -0.3283  1.5568
  507MOL0     C68347   7.352   5.871   6.063 -0.2752 -0.0116 -0.3051
  507MOL0     C68348   7.447   5.800   5.961 -0.4373 -0.5346  0.3662
  507MOL0     C68349   7.584   5.880   5.960  0.3464  0.1347  0.3720
  507MOL0     C68350   7.681   5.804   5.855  0.2776 -0.1180 -0.2120
  507MOL0     C68351   7.802   5.889   5.830 -0.2802 -0.1793  0.2405
  507MOL0     C68352   7.909   5.826   5.737  0.7813  0.0624  0.7308
  507MOL0     C68353   8.021   5.915   5.694 -0.9883  0.1009  0.2094
  507MOL0    Cl68354   8.160   5.820   5.628 -0.2666 -0.1253 -0.0636
  507MOL0     C68355   6.962   5.661   5.905 -0.5104 -0.7404  0.6931
  507MOL0     C68356   6.819   5.638   5.892 -0.0468 -0.4569  1.0775
  507MOL0     O68357   6.563   5.529   5.956 -0.2753 -0.3317 -0.2919
  507MOL0     C68358   6.323   5.788   5.893 -0.6493 -0.5261 -0.1914
  507MOL0     C68359   6.187   5.815   5.906  0.8070  0.0737 -0.5650
  507MOL0     N68360   5.556   6.062   5.997  0.2809  0.6802  0.2434
  507MOL0     N68361   5.453   5.998   6.049  0.3168  0.6099  0.1530
  507MOL0     C68362   4.158   5.879   5.892  0.3840  0.9598 -0.2335
  507MOL0     C68363   4.046   5.878   5.978 -0.0348  0.2143 -0.3893
  507MOL0     C68364   3.863   5.819   6.407  0.4293  0.5439 -0.0348
  507MOL0     C68365   3.736   5.879   6.381  0.1400  0.5996  0.5816
  507MOL0     C68366   3.640   5.880   6.477 -0.2587 -0.4216  0.0570
  507MOL0     C68367   3.649   5.824   6.602 -1.1283 -0.2818  0.3556
  507MOL0     O68368   3.555   5.828   6.700  0.3634 -0.6762 -0.2078
  507MOL0     C68369   3.420   5.815   6.661 -0.5771 -0.8322 -0.3137
  507MOL0     C68370   3.360   5.719   6.769 -0.6381  0.5703  0.1903
  507MOL0     C68371   3.309   5.793   6.890 -0.5509 -0.4059  0.3066
  507MOL0     C68372   3.284   5.697   6.998 -0.2924 -0.2449 -1.2365
  507MOL0     C68373   3.172   5.610   6.971  0.0305 -1.0051  0.9475
  507MOL0     C68374   3.072   5.534   6.965  0.0055  0.3656  0.3359
  507MOL0     C68375   3.773   5.765   6.632 -0.0748 -0.8829 -0.1517
  507MOL0     C68376   3.876   5.767   6.542  0.0731  0.2522 -0.4998
  507MOL0     C68377   4.009   5.709   6.595  0.3518 -0.5669 -0.8041
  507MOL0     H68378   4.200   6.001   6.252 -1.7485 -1.5287  0.1021
  507MOL0     H68379   4.390   6.009   6.093 -1.4874  0.7468  0.7242
  507MOL0     H68380   4.525   6.026   5.919 -0.1976 -0.0181  0.5731
  507MOL0     H68381   4.547   5.873   5.969  2.0473  3.0560  0.4562
  507MOL0     H68382   4.592   5.991   5.688 -1.2595 -1.0669  0.0316
  507MOL0     H68383   4.605   5.819   5.698  2.2299 -0.7482  0.6706
  507MOL0     H68384   4.765   5.885   5.917  3.7341  1.0605  0.0169
  507MOL0     H68385   4.764   6.036   5.832 -1.2028 -0.1652  1.0052
  507MOL0     H68386   4.839   5.759   5.717  0.4710  0.2096 -2.0449
  507MOL0     H68387   4.813   5.903   5.624 -0.6159  2.6340  1.7372
  507MOL0     H68388   5.051   5.879   5.660  1.8661  1.9248  1.3456
  507MOL0     H68389   5.005   6.011   5.762 -0.6066  0.8283  0.3284
  507MOL0     H68390   5.022   5.846   5.958 -0.4099  1.1293 -0.1072
  507MOL0     H68391   5.064   5.718   5.837  0.8445 -1.5230  2.2524
  507MOL0     H68392   5.213   5.987   5.879  2.9850  0.0997 -0.1345
  507MOL0     H68393   5.262   5.866   5.771 -1.7121 -0.9274 -1.1814
  507MOL0     H68394   5.235   5.856   6.072  0.9862  2.5153  0.4015
  507MOL0     H68395   5.294   5.717   5.984 -1.2712  0.8198  0.9907
  507MOL0     H68396   5.524   5.792   5.804 -1.3074  0.5655 -0.9370
  507MOL0     H68397   5.755   5.961   5.724  0.5146  2.2223 -2.2091
  507MOL0     H68398   5.710   6.122   5.728 -1.0303 -2.2084 -2.2783
  507MOL0     H68399   5.906   6.112   5.818  1.4645 -1.0552  0.8901
  507MOL0     H68400   5.804   6.178   5.938  0.6063  0.8945 -3.4147
  507MOL0     H68401   5.850   5.977   6.084 -2.0438  1.2799 -1.0839
  507MOL0     H68402   5.990   6.039   6.006 -1.8719  3.5387  3.7004
  507MOL0     H68403   5.914   5.820   5.828 -0.7554 -3.7626  1.0876
  507MOL0     H68404   5.793   5.795   5.947  0.0366  0.1500  1.0711
  507MOL0     H68405   6.114   5.529   6.083  2.8008 -0.0361  3.3544
  507MOL0     H68406   6.336   5.487   6.044  0.2176 -0.0110  0.6023
  507MOL0     H68407   6.735   5.972   5.931 -0.2438  0.5951  1.4711
  507MOL0     H68408   6.988   5.995   5.920  0.0955  0.0993 -1.0302
  507MOL0     H68409   7.228   5.981   5.924  0.7253  0.4203  2.2480
  507MOL0     H68410   7.160   5.940   6.088  0.2238 -2.4616  2.0518
  507MOL0     H68411   7.403   5.955   6.111  0.6684 -0.0677 -1.1854
  507MOL0     H68412   7.331   5.796   6.141 -1.4754 -1.5324 -1.9881
  507MOL0     H68413   7.466   5.697   5.992  1.2531  0.1310  1.7821
  507MOL0     H68414   7.407   5.805   5.860  0.3238  0.9221  0.1054
  507MOL0     H68415   7.626   5.890   6.061  0.8522 -3.1502  0.5884
  507MOL0     H68416   7.565   5.985   5.934  2.2651  0.8526  1.6657
  507MOL0     H68417   7.626   5.781   5.763 -1.6540  5.5269 -0.8644
  507MOL0     H68418   7.704   5.712   5.908  0.4712  0.4220  0.6590
  507MOL0     H68419   7.767   5.979   5.779  0.6337 -1.4043 -2.7547
  507MOL0     H68420   7.850   5.931   5.919  0.7003  1.5278 -1.0388
  507MOL0     H68421   7.856   5.783   5.651  2.1507 -0.6416  0.2084
  507MOL0     H68422   7.958   5.749   5.797 -0.7013 -2.2028 -0.8013
  507MOL0     H68423   7.986   5.985   5.617 -1.6143  0.6287  0.9592
  507MOL0     H68424   8.059   5.975   5.777  1.1991 -1.0220  0.1093
  507MOL0     H68425   7.025   5.573   5.911  0.4535 -0.2210 -1.1596
  507MOL0     H68426   6.793   5.534   5.876  2.8641 -1.0950 -0.0273
  507MOL0     H68427   6.382   5.866   5.845 -1.4377  0.5907  0.6064
  507MOL0     H68428   6.145   5.908   5.871 -2.8273 -1.9112 -2.0098
  507MOL0     H68429   4.144   5.837   5.793  1.9780  1.4502 -0.7049
  507MOL0     H68430   3.953   5.842   5.937  0.1165 -1.7257  0.8402
  507MOL0     H68431   3.716   5.928   6.287  2.9438 -0.4516 -0.6600
  507MOL0     H68432   3.546   5.930   6.457  1.3969  2.2302 -1.8801
  507MOL0     H68433   3.413   5.778   6.558  1.9549  0.3322 -0.9840
  507MOL0     H68434   3.375   5.914   6.656  0.6811 -0.1127  1.6533
  507MOL0     H68435   3.445   5.654   6.792 -1.4514  0.3874  3.0688
  507MOL0     H68436   3.281   5.654   6.731 -0.8584  0.8274  0.2021
  507MOL0     H68437   3.223   5.854   6.863  0.6092  1.3482  0.4224
  507MOL0     H68438   3.388   5.863   6.918  0.6829 -0.5695 -2.4872
  507MOL0     H68439   3.367   5.628   7.016  0.1483  0.6039  0.0983
  507MOL0     H68440   3.263   5.746   7.094  0.8411  1.8261 -2.0102
  507MOL0     H68441   2.973   5.493   6.974 -0.9869  2.1994 -1.4974
  507MOL0     H68442   3.790   5.726   6.731  1.8604 -1.4388 -0.6729
  507MOL0     H68443   3.992   5.664   6.693  0.2910  1.5284  0.1866
  507MOL0     H68444   4.036   5.627   6.527  0.1591  0.1170 -1.7216
  507MOL0     H68445   4.091   5.781   6.607  0.4392 -1.0204  2.0349
  508MOL0     O68446   0.032   6.797   5.712  0.0656 -0.3370 -0.0709
  508MOL0     C68447  -0.005   6.713   5.792  0.5385 -0.6843  0.8811
  508MOL0     O68448   0.075   6.629   5.853  0.6479  0.5265 -0.1081
  508MOL0     C68449   0.211   6.623   5.839 -0.4462  0.1598  0.1290
  508MOL0     C68450   0.303   6.677   5.738  1.2622  0.5473  0.1380
  508MOL0     C68451   0.442   6.666   5.744  0.1053 -0.3058 -0.2950
  508MOL0     C68452   0.505   6.588   5.845 -0.6247  0.0882 -0.2798
  508MOL0     O68453   0.641   6.562   5.861 -0.0910  0.5406 -0.1237
  508MOL0     C68454   0.730   6.616   5.763  0.2134 -0.3001 -0.0799
  508MOL0     C68455   0.857   6.597   5.840 -0.4860  0.3121 -0.3894
  508MOL0     C68456   0.982   6.644   5.767 -0.1349 -0.2225  0.5897
  508MOL0     C68457   1.101   6.637   5.859  0.0191  0.3766 -0.4790
  508MOL0     C68458   1.109   6.750   5.957  0.3300 -0.3899  0.4231
  508MOL0     C68459   1.245   6.752   6.035  0.6820  0.2796  0.2134
  508MOL0     C68460   1.227   6.780   6.179 -0.1808 -0.4876 -0.0784
  508MOL0     C68461   1.177   6.918   6.214 -0.1581  0.3700  0.4761
  508MOL0     N68462   1.027   6.918   6.221 -0.2554  0.7523  0.3078
  508MOL0     C68463   0.961   6.865   6.327  0.1648 -0.9546 -0.4228
  508MOL0     C68464   0.828   6.893   6.300  0.5788  0.6531  0.0106
  508MOL0     C68465   0.719   6.859   6.387 -0.1655 -0.4647 -0.2650
  508MOL0     C68466   0.702   6.707   6.413 -0.8616  0.5043  0.3401
  508MOL0     C68467   0.668   6.633   6.265 -0.2607  0.1688 -1.1285
  508MOL0     C68468   0.634   6.481   6.295 -0.8788  0.4140  0.5649
  508MOL0     O68469   0.738   6.427   6.380 -0.1973 -0.6350  0.1498
  508MOL0     C68470   0.871   6.424   6.339  0.5042 -0.4336  0.1452
  508MOL0     C68471   0.921   6.423   6.209  0.3347  0.3775 -0.2020
  508MOL0     C68472   1.058   6.424   6.175  0.1361  0.4209 -0.7073
  508MOL0     C68473   1.150   6.432   6.281 -0.1220 -0.2788  0.6515
  508MOL0     C68474   1.294   6.392   6.258 -0.8074 -0.5023 -0.4184
  508MOL0     O68475   1.332   6.363   6.133 -0.3049 -0.0839  0.5621
  508MOL0     C68476   1.471   6.341   6.108 -0.1007  0.8011  0.1660
  508MOL0     C68477   1.556   6.449   6.079 -0.9656  0.3080 -0.1053
  508MOL0     C68478   1.694   6.419   6.056 -0.5878  0.4357 -0.7755
  508MOL0     C68479   1.740   6.289   6.036 -0.1438  0.1744  0.3434
  508MOL0     O68480   1.875   6.283   6.006  0.7034 -0.2586 -0.3843
  508MOL0     C68481   1.941   6.148   6.015  1.0213 -0.1247  1.0698
  508MOL0     C68482   2.091   6.158   5.981 -1.0703 -0.2534  0.1444
  508MOL0     C68483   2.172   6.029   5.972 -0.6475 -0.5393 -0.1618
  508MOL0     C68484   2.262   6.031   5.845  0.0209 -0.2730  0.4706
  508MOL0     C68485   2.360   5.919   5.835  0.3646 -0.4027 -1.1703
  508MOL0     C68486   2.445   5.914   5.712  0.0494  0.9651  1.0243
  508MOL0     C68487   2.501   5.765   5.687 -0.1128 -0.2435  0.0803
  508MOL0     C68488   2.521   5.718   5.542 -0.9206 -0.0022  0.1310
  508MOL0    Cl68489   2.593   5.845   5.444  0.3908  0.3463 -0.1344
  508MOL0     C68490   1.651   6.183   6.059 -0.7430 -0.1045 -0.1238
  508MOL0     C68491   1.520   6.215   6.095  0.0798 -0.3110  0.3548
  508MOL0     O68492   1.368   6.384   6.357 -0.3564  0.2468  0.0894
  508MOL0     C68493   1.100   6.454   6.407  0.1970 -0.4905 -0.4020
  508MOL0     C68494   0.968   6.444   6.439  0.5255 -0.1801  0.4664
  508MOL0     N68495   0.821   6.949   6.174  0.3199 -0.3168 -0.4936
  508MOL0     N68496   0.941   6.974   6.138 -0.1382  0.0002  0.2938
  508MOL0     C68497   0.421   6.534   5.944  0.0879  0.0485 -0.2219
  508MOL0     C68498   0.285   6.560   5.944 -0.5833 -0.5140  0.9486
  508MOL0     C68499  -0.151   6.712   5.816 -0.1792 -0.0006  0.0831
  508MOL0     C68500  -0.229   6.828   5.775  0.2371 -0.6013 -0.1856
  508MOL0     C68501  -0.364   6.858   5.818  0.5498 -0.2824  0.2166
  508MOL0     C68502  -0.436   6.764   5.894  0.2714  0.0467 -0.6533
  508MOL0     O68503  -0.563   6.778   5.937 -0.1625 -0.1914  0.3519
  508MOL0     C68504  -0.630   6.904   5.904 -0.1674 -0.0845  0.5284
  508MOL0     C68505  -0.778   6.909   5.942 -0.1366  0.2055 -0.1092
  508MOL0     C68506  -0.857   6.799   5.871 -0.7960 -0.5676 -0.5705
  508MOL0     C68507  -1.005   6.826   5.905  0.4937  0.1581  1.0980
  508MOL0     C68508  -1.040   6.789   6.041 -0.4287  0.6226 -1.1385
  508MOL0     C68509  -1.041   6.750   6.159  0.1149  0.1211  0.4818
  508MOL0     C68510  -0.366   6.649   5.924 -0.0139 -0.3290  0.2253
  508MOL0     C68511  -0.230   6.612   5.890 -0.0895  0.0387  0.1797
  508MOL0     C68512  -0.167   6.479   5.933  0.5809  0.0038  0.4018
  508MOL0     H68513   0.267   6.742   5.659  2.3831  1.1621  0.1128
  508MOL0     H68514   0.507   6.719   5.675  2.0295 -3.8433 -1.4568
  508MOL0     H68515   0.728   6.557   5.672 -2.2400 -1.4774  0.6639
  508MOL0     H68516   0.707   6.720   5.740 -1.4902 -1.4528 -4.5360
  508MOL0     H68517   0.866   6.492   5.869 -1.5939  1.1284  3.5066
  508MOL0     H68518   0.859   6.652   5.934  1.9078  0.3383 -0.3760
  508MOL0     H68519   0.970   6.746   5.729 -1.4143 -1.0384 -1.4103
  508MOL0     H68520   1.004   6.595   5.672  0.0223 -0.7340  0.8886
  508MOL0     H68521   1.090   6.541   5.911  0.3144  0.5768 -0.0354
  508MOL0     H68522   1.194   6.633   5.803  0.5442  1.6959  0.2523
  508MOL0     H68523   1.102   6.850   5.913  0.1577  0.4849  2.3330
  508MOL0     H68524   1.028   6.739   6.029 -0.2651 -1.7300 -0.4161
  508MOL0     H68525   1.287   6.651   6.039 -2.4241 -1.0620  1.8402
  508MOL0     H68526   1.315   6.824   5.990  1.4537  2.5081  4.5059
  508MOL0     H68527   1.328   6.792   6.219 -0.5796  0.6527  0.6247
  508MOL0     H68528   1.178   6.697   6.230 -0.7117  0.8147  1.6144
  508MOL0     H68529   1.210   6.944   6.315  0.1301  1.2172  0.1710
  508MOL0     H68530   1.217   6.991   6.143 -1.7588  1.0429  0.2188
  508MOL0     H68531   1.006   6.823   6.417 -0.7591  0.1999  0.6153
  508MOL0     H68532   0.735   6.902   6.486 -2.5826  2.1151 -0.8383
  508MOL0     H68533   0.627   6.904   6.346 -2.1343 -0.0115  4.1067
  508MOL0     H68534   0.793   6.674   6.464 -0.3512  2.6763  0.9774
  508MOL0     H68535   0.626   6.692   6.490 -4.2012 -0.1182 -2.8192
  508MOL0     H68536   0.749   6.643   6.192  1.1001  1.9563  0.5194
  508MOL0     H68537   0.578   6.677   6.222 -0.5696  0.6232 -0.0671
  508MOL0     H68538   0.629   6.430   6.198  2.2145  0.2484  0.4093
  508MOL0     H68539   0.539   6.469   6.350 -1.1663  2.2359  0.5131
  508MOL0     H68540   0.854   6.421   6.124  2.1382  1.9654 -1.7523
  508MOL0     H68541   1.096   6.415   6.073  3.9191 -0.9067  0.6646
  508MOL0     H68542   1.510   6.547   6.077 -3.4339 -0.7571 -3.1269
  508MOL0     H68543   1.768   6.497   6.064 -1.0704  0.7171  1.6317
  508MOL0     H68544   1.936   6.101   6.114 -0.2992  0.1628  1.1503
  508MOL0     H68545   1.890   6.080   5.946  0.1803  3.3478 -2.0026
  508MOL0     H68546   2.109   6.218   5.892  0.9067  2.2869  2.0781
  508MOL0     H68547   2.133   6.226   6.056  0.3088  0.5809 -1.3132
  508MOL0     H68548   2.233   6.010   6.060  0.4276  1.7310 -0.3390
  508MOL0     H68549   2.104   5.944   5.962 -1.9102  0.2364  1.4913
  508MOL0     H68550   2.319   6.124   5.841  0.2378 -0.3529  1.4380
  508MOL0     H68551   2.190   6.038   5.763 -1.2653 -2.8066  1.2770
  508MOL0     H68552   2.296   5.831   5.844  1.0620 -0.7640  1.0810
  508MOL0     H68553   2.432   5.924   5.918  0.7068 -1.8269 -1.3507
  508MOL0     H68554   2.383   5.930   5.623  0.4665 -1.1818  0.2985
  508MOL0     H68555   2.528   5.984   5.704  0.4671  0.9421  4.0398
  508MOL0     H68556   2.448   5.693   5.748  0.3351  0.0364  0.8174
  508MOL0     H68557   2.596   5.769   5.741  1.1575 -0.1809 -2.0327
  508MOL0     H68558   2.589   5.633   5.552 -2.3824 -1.4993 -2.0070
  508MOL0     H68559   2.420   5.696   5.507 -1.0026  1.7594 -0.9008
  508MOL0     H68560   1.679   6.083   6.029 -3.2323 -0.3718 -1.8989
  508MOL0     H68561   1.446   6.137   6.102  1.4934 -1.8034 -0.6030
  508MOL0     H68562   1.159   6.444   6.497 -0.7400 -1.4468  0.1385
  508MOL0     H68563   0.938   6.434   6.543 -0.2611  0.8206  0.3579
  508MOL0     H68564   0.455   6.477   6.030 -0.2900  1.1689  0.7089
  508MOL0     H68565   0.222   6.530   6.027 -0.2395 -1.8034  0.7800
  508MOL0     H68566  -0.181   6.908   5.720  1.2987 -0.4368  0.9411
  508MOL0     H68567  -0.418   6.948   5.789 -0.1438 -0.8355 -0.2444
  508MOL0     H68568  -0.629   6.914   5.795  0.4084 -2.2433  0.2743
  508MOL0     H68569  -0.585   6.990   5.955  0.4004  0.0944 -0.2556
  508MOL0     H68570  -0.822   7.002   5.903 -0.9518  0.6349  1.7019
  508MOL0     H68571  -0.789   6.902   6.051  3.0404 -0.5415  0.2666
  508MOL0     H68572  -0.834   6.697   5.903  2.1454  0.1635 -0.0288
  508MOL0     H68573  -0.846   6.804   5.763 -1.5724 -1.6068 -0.6996
  508MOL0     H68574  -1.040   6.926   5.878 -2.2453 -0.3607  2.3760
  508MOL0     H68575  -1.060   6.758   5.840  0.4368 -0.3735  1.6959
  508MOL0     H68576  -1.047   6.731   6.264 -1.0814  1.5615  0.7068
  508MOL0     H68577  -0.424   6.579   5.984  0.8464 -0.1991  1.2346
  508MOL0     H68578  -0.242   6.412   5.976 -0.1056 -0.0380 -0.8062
  508MOL0     H68579  -0.130   6.431   5.842 -0.5991  1.6665 -1.0239
  508MOL0     H68580  -0.083   6.493   6.001  0.8571  0.6499 -0.0612
  509MOL0     O68581   5.154  10.505   2.931  0.2004  0.7222  0.9603
  509MOL0     C68582   5.037  10.491   2.888 -0.6247 -0.6877  0.2663
  509MOL0     O68583   4.999  10.388   2.810 -0.3513  0.0795  0.6580
  509MOL0     C68584   5.099  10.300   2.779 -0.3320  1.0151  0.1370
  509MOL0     C68585   5.105  10.272   2.641  0.3702  0.6665 -0.4784
  509MOL0     C68586   5.209  10.183   2.600 -0.3824 -0.5434  0.2853
  509MOL0     C68587   5.299  10.118   2.683 -0.2477 -0.1851 -0.0639
  509MOL0     O68588   5.403  10.048   2.627  0.4857  0.1567  0.6898
  509MOL0     C68589   5.463   9.952   2.719 -0.8337  0.1843  0.4876
  509MOL0     C68590   5.550   9.866   2.634 -0.8371 -0.4460 -0.3585
  509MOL0     C68591   5.641   9.780   2.720  0.0561 -0.2056  0.1085
  509MOL0     C68592   5.789   9.787   2.680  0.3028  1.1305  0.4404
  509MOL0     C68593   5.822   9.707   2.553 -0.0599 -0.4365 -0.2192
  509MOL0     C68594   5.971   9.687   2.539 -0.2156  0.6273  0.3791
  509MOL0     C68595   6.012   9.580   2.434  0.2266 -0.9903 -0.7988
  509MOL0     C68596   6.162   9.555   2.424 -0.0164 -0.1559 -1.1356
  509MOL0     N68597   6.241   9.678   2.397 -0.1494  0.3072 -0.0427
  509MOL0     C68598   6.259   9.730   2.269 -0.2537 -0.1439 -0.7641
  509MOL0     C68599   6.293   9.864   2.294 -0.1212  0.6016  1.3706
  509MOL0     C68600   6.313   9.966   2.178  0.6204  0.1676 -0.3913
  509MOL0     C68601   6.457   9.942   2.124 -0.0536 -0.7524 -0.2125
  509MOL0     C68602   6.559   9.987   2.225 -1.2011  0.3309  0.6681
  509MOL0     C68603   6.703   9.976   2.167  0.2095 -1.5285 -0.0298
  509MOL0     O68604   6.730  10.088   2.080 -0.1648  0.3221  0.0275
  509MOL0     C68605   6.863  10.116   2.051  0.0784  0.0007 -0.2439
  509MOL0     C68606   6.981  10.040   2.087  0.4723 -0.2112 -0.1345
  509MOL0     C68607   7.105  10.089   2.066  0.0674 -0.6626 -0.3501
  509MOL0     C68608   7.120  10.213   1.997 -0.7324  0.6295  0.4700
  509MOL0     C68609   7.252  10.254   1.966 -0.0614 -0.8403  0.1237
  509MOL0     O68610   7.340  10.149   1.957 -0.7732  0.1260 -0.6472
  509MOL0     C68611   7.470  10.184   1.928 -0.7607  0.5945  0.6903
  509MOL0     C68612   7.510  10.228   1.797  0.1878  0.5515  0.2211
  509MOL0     C68613   7.647  10.250   1.775  0.0524  0.5465 -0.5693
  509MOL0     C68614   7.747  10.229   1.870 -0.3320 -0.0569  0.2051
  509MOL0     O68615   7.883  10.243   1.861 -0.3206 -0.7456 -0.5830
  509MOL0     C68616   7.933  10.247   1.736  0.0099  1.0686 -1.5774
  509MOL0     C68617   8.085  10.224   1.752  0.9307 -0.3753 -0.5354
  509MOL0     C68618   8.145  10.183   1.621 -0.3923  0.0361 -0.1435
  509MOL0     C68619   8.297  10.198   1.637 -0.0078 -0.1140  0.6230
  509MOL0     C68620   8.371  10.164   1.517 -0.6772 -0.4664  0.5787
  509MOL0     C68621   8.523  10.207   1.524  1.0330  0.1636  1.0925
  509MOL0     C68622   8.598  10.120   1.419  1.3047 -0.7942  0.2857
  509MOL0     C68623   8.746  10.154   1.398 -1.1021  0.6643 -0.0739
  509MOL0    Cl68624   8.769  10.314   1.309 -0.1500  0.2762 -0.6292
  509MOL0     C68625   7.699  10.183   1.993 -0.8179  0.1597  0.5975
  509MOL0     C68626   7.567  10.147   2.026  0.5469 -0.2402 -0.1635
  509MOL0     O68627   7.267  10.365   1.919 -1.0324  0.3438 -0.6248
  509MOL0     C68628   7.007  10.280   1.948 -0.3263 -1.6423  0.3669
  509MOL0     C68629   6.878  10.237   1.980 -0.0830  0.8383 -0.2775
  509MOL0     N68630   6.308   9.884   2.428 -0.7529  0.1577  0.2919
  509MOL0     N68631   6.280   9.767   2.492  0.1108 -0.3388  0.6125
  509MOL0     C68632   5.279  10.144   2.822 -0.4414  0.5149  0.2376
  509MOL0     C68633   5.184  10.230   2.868 -0.3728 -0.6624  0.1181
  509MOL0     C68634   4.939  10.588   2.946  1.0552  0.4481  1.1141
  509MOL0     C68635   4.975  10.714   2.988  0.2027 -0.7439 -0.0440
  509MOL0     C68636   4.884  10.818   3.024 -1.0480 -0.1681  0.3829
  509MOL0     C68637   4.743  10.794   3.026  0.5288 -0.7152 -0.2184
  509MOL0     O68638   4.667  10.896   3.074 -0.3504  0.1838  0.1361
  509MOL0     C68639   4.534  10.870   3.109  0.5339  0.8629  0.8013
  509MOL0     C68640   4.473  10.984   3.183  0.4429 -1.0516 -0.4252
  509MOL0     C68641   4.470  11.106   3.088  0.7945  0.1810  0.1334
  509MOL0     C68642   4.461  11.240   3.168 -0.0858  0.1706  0.1409
  509MOL0     C68643   4.533  11.347   3.101  0.8420 -0.3141  0.8071
  509MOL0     C68644   4.615  11.419   3.051 -0.3107 -0.3866  0.1554
  509MOL0     C68645   4.701  10.668   2.992 -0.5731  0.8953  0.4864
  509MOL0     C68646   4.799  10.567   2.952  0.2746  0.0063  0.4201
  509MOL0     C68647   4.738  10.439   2.913 -0.0021  0.5863 -0.0538
  509MOL0     H68648   5.032  10.321   2.577 -1.5346 -1.6705 -0.2355
  509MOL0     H68649   5.204  10.161   2.494 -3.4319  1.3898 -0.1054
  509MOL0     H68650   5.533  10.010   2.779  0.5461 -0.6090 -0.2930
  509MOL0     H68651   5.397   9.884   2.774  0.2724 -0.1301  1.4742
  509MOL0     H68652   5.608   9.934   2.572  0.1602 -0.8695  0.0834
  509MOL0     H68653   5.479   9.803   2.579 -3.5190  0.7167  1.5378
  509MOL0     H68654   5.613   9.674   2.716  2.6601 -1.0058  1.1486
  509MOL0     H68655   5.640   9.816   2.823 -0.8353 -1.8533  0.7096
  509MOL0     H68656   5.823   9.889   2.661  0.1223  0.9597 -0.9317
  509MOL0     H68657   5.843   9.752   2.768  0.7823  0.8020  0.0150
  509MOL0     H68658   5.773   9.609   2.553  0.0128 -0.4749 -0.6045
  509MOL0     H68659   5.783   9.749   2.460 -0.6063 -4.3476 -1.9834
  509MOL0     H68660   6.021   9.782   2.521  2.8260 -0.8477  0.3630
  509MOL0     H68661   6.017   9.654   2.633  1.0359  2.0718  0.3060
  509MOL0     H68662   5.972   9.617   2.339  0.3669 -1.1921 -0.9375
  509MOL0     H68663   5.958   9.489   2.462 -1.4506  0.3909  0.6757
  509MOL0     H68664   6.188   9.505   2.518 -3.3709 -0.6768 -0.3579
  509MOL0     H68665   6.174   9.485   2.341  1.0070  0.2769 -1.3633
  509MOL0     H68666   6.232   9.678   2.178 -0.3238  0.6903 -1.2322
  509MOL0     H68667   6.238   9.952   2.098 -0.0285 -3.5476  0.6776
  509MOL0     H68668   6.293  10.066   2.218  0.9304  0.1784 -0.2642
  509MOL0     H68669   6.479   9.839   2.094  3.1782 -0.3171  0.3044
  509MOL0     H68670   6.465  10.000   2.031 -1.3489  0.8022  0.6043
  509MOL0     H68671   6.559   9.925   2.315  0.9815 -0.6011  0.0852
  509MOL0     H68672   6.537  10.087   2.263  0.1052  0.1156  2.0562
  509MOL0     H68673   6.719   9.880   2.117  0.3768 -1.1422 -0.7264
  509MOL0     H68674   6.782   9.978   2.242  1.4198  2.0060 -1.1798
  509MOL0     H68675   6.968   9.952   2.150 -1.4515  0.6859  0.8024
  509MOL0     H68676   7.196  10.041   2.101 -0.1303  0.3307  1.6609
  509MOL0     H68677   7.425  10.243   1.732 -2.2871 -2.8013  2.3586
  509MOL0     H68678   7.686  10.287   1.680  1.2405 -1.2559 -0.8332
  509MOL0     H68679   7.896  10.163   1.676  2.8650  1.1934 -3.7602
  509MOL0     H68680   7.924  10.345   1.688  0.2679  0.6453 -2.5161
  509MOL0     H68681   8.118  10.323   1.785  0.7073 -0.5583  0.2603
  509MOL0     H68682   8.102  10.144   1.825  0.8143 -1.3136 -1.5030
  509MOL0     H68683   8.116  10.080   1.597 -2.3538  1.0731 -2.8134
  509MOL0     H68684   8.099  10.243   1.542 -1.6739 -2.1303 -1.1528
  509MOL0     H68685   8.332  10.143   1.725  0.8543  1.1735  1.1100
  509MOL0     H68686   8.321  10.303   1.656  0.0352  0.2437 -1.2291
  509MOL0     H68687   8.318  10.211   1.433  0.2244 -0.1728  0.1674
  509MOL0     H68688   8.363  10.056   1.500  0.9055 -0.6493  0.8639
  509MOL0     H68689   8.527  10.316   1.508 -0.9220  0.0319 -0.7606
  509MOL0     H68690   8.563  10.177   1.621  4.1616 -3.9542 -1.1485
  509MOL0     H68691   8.547  10.135   1.323  0.4266  1.2434  1.0223
  509MOL0     H68692   8.582  10.016   1.449 -0.5085 -0.1469  1.7122
  509MOL0     H68693   8.790  10.155   1.498 -2.2341  1.9404  0.4312
  509MOL0     H68694   8.792  10.079   1.332  0.8253  1.7599 -0.0457
  509MOL0     H68695   7.777  10.169   2.067 -0.9421  0.8443  0.8712
  509MOL0     H68696   7.538  10.114   2.125  1.9598  0.6612  0.5883
  509MOL0     H68697   7.021  10.375   1.897 -1.8941 -0.1582  2.5312
  509MOL0     H68698   6.790  10.289   1.941 -1.3914 -2.2424 -1.7899
  509MOL0     H68699   5.333  10.092   2.899  1.9378  0.9921 -1.0001
  509MOL0     H68700   5.185  10.257   2.973  0.6509 -0.7339  0.1394
  509MOL0     H68701   5.079  10.745   2.985 -0.2580  0.9288  0.3099
  509MOL0     H68702   4.921  10.914   3.060  0.8019 -1.1315  1.1911
  509MOL0     H68703   4.524  10.773   3.160 -0.7838 -2.3393 -4.7894
  509MOL0     H68704   4.473  10.862   3.019  0.5419  0.2109  0.8496
  509MOL0     H68705   4.532  11.020   3.268  0.6811  1.5175 -1.5589
  509MOL0     H68706   4.373  10.958   3.219 -0.4514  1.4349 -0.9196
  509MOL0     H68707   4.377  11.106   3.030  1.0219  1.0935 -0.2610
  509MOL0     H68708   4.545  11.105   3.008 -3.1177 -0.6735 -3.9708
  509MOL0     H68709   4.363  11.265   3.211 -0.0709  0.4274  0.0314
  509MOL0     H68710   4.515  11.230   3.262  0.7482  1.2365 -0.2025
  509MOL0     H68711   4.686  11.482   3.001 -0.9070  1.2181  1.2375
  509MOL0     H68712   4.596  10.641   2.999 -0.7713 -1.2581 -5.2454
  509MOL0     H68713   4.629  10.445   2.915 -0.2027 -1.3343 -1.7877
  509MOL0     H68714   4.769  10.407   2.813 -0.5592 -1.9515  0.5193
  509MOL0     H68715   4.764  10.357   2.981  4.1782  0.6608 -1.2791
  510MOL0     O68716   4.556   9.577   7.458 -0.2123  0.1010  0.4538
  510MOL0     C68717   4.456   9.653   7.450 -0.5291 -0.1296 -0.7754
  510MOL0     O68718   4.455   9.765   7.369  0.0045  0.2365 -0.4726
  510MOL0     C68719   4.567   9.839   7.357  0.0189  0.0876  0.0967
  510MOL0     C68720   4.600   9.884   7.226 -0.4751 -0.7485 -0.3558
  510MOL0     C68721   4.713   9.972   7.211  0.4189 -0.5448  0.5089
  510MOL0     C68722   4.789  10.019   7.325 -0.6889  1.1007  0.4007
  510MOL0     O68723   4.898  10.092   7.318  0.4706  0.6046 -0.5419
  510MOL0     C68724   4.962  10.096   7.182 -0.3427  0.1146  0.4059
  510MOL0     C68725   5.077  10.202   7.180 -0.5422  0.6035  0.2151
  510MOL0     C68726   5.169  10.185   7.303 -0.2506 -0.3500  0.7210
  510MOL0     C68727   5.294  10.277   7.287  0.0136  0.4100 -0.1303
  510MOL0     C68728   5.377  10.269   7.422 -0.4381 -1.0831  0.2089
  510MOL0     C68729   5.452  10.399   7.428 -0.4829  0.1455  0.3803
  510MOL0     C68730   5.549  10.421   7.546  0.8384  0.3150  0.6471
  510MOL0     C68731   5.665  10.333   7.566 -0.4021  0.1670  0.0077
  510MOL0     N68732   5.754  10.315   7.453 -0.4460 -0.0716 -0.1451
  510MOL0     C68733   5.834  10.417   7.400  0.9901 -0.3568 -0.4269
  510MOL0     C68734   5.907  10.355   7.307  0.3737 -0.3826  0.1950
  510MOL0     C68735   5.995  10.429   7.208  0.6374  0.3712 -0.2897
  510MOL0     C68736   6.142  10.389   7.225 -0.2022  0.6009  0.7990
  510MOL0     C68737   6.221  10.495   7.298 -0.3213  0.5335 -0.3622
  510MOL0     C68738   6.326  10.559   7.212 -0.0641  0.5808 -1.1349
  510MOL0     O68739   6.430  10.458   7.179  0.2994 -0.0887  0.0243
  510MOL0     C68740   6.546  10.499   7.118  0.2715 -0.4138  0.2488
  510MOL0     C68741   6.632  10.397   7.076  0.4565  0.5970  0.4171
  510MOL0     C68742   6.757  10.428   7.018  0.4628  0.0655  1.0330
  510MOL0     C68743   6.794  10.565   6.996  0.3260  0.0898  0.9570
  510MOL0     C68744   6.924  10.587   6.938  0.5345  0.0055  0.3753
  510MOL0     O68745   6.975  10.492   6.852  0.3020 -0.5940 -0.6678
  510MOL0     C68746   7.089  10.499   6.778  1.1237 -1.3732 -0.1508
  510MOL0     C68747   7.098  10.436   6.655 -0.3664 -0.0113  0.9218
  510MOL0     C68748   7.216  10.434   6.583 -0.2673 -0.3739  0.2289
  510MOL0     C68749   7.330  10.500   6.637 -0.5449  0.1464 -0.2072
  510MOL0     O68750   7.444  10.500   6.552 -0.1365 -0.3554 -0.3108
  510MOL0     C68751   7.575  10.480   6.606  0.0107  0.3473  0.3602
  510MOL0     C68752   7.585  10.337   6.669 -1.0448 -0.1777 -0.2322
  510MOL0     C68753   7.693  10.316   6.764  0.3812  0.2058 -0.0602
  510MOL0     C68754   7.776  10.200   6.737  0.1314 -0.2864  0.0465
  510MOL0     C68755   7.900  10.200   6.833  0.3694  0.1343  0.0074
  510MOL0     C68756   7.997  10.084   6.800  0.2241  0.3235 -0.2337
  510MOL0     C68757   8.087  10.059   6.920 -0.8464  0.4415  0.2226
  510MOL0     C68758   8.185   9.945   6.881  0.3260 -0.4671 -0.4761
  510MOL0    Cl68759   8.297   9.943   7.015 -0.5743  0.2309  0.4536
  510MOL0     C68760   7.323  10.545   6.769 -0.0808 -0.1908 -0.4197
  510MOL0     C68761   7.202  10.559   6.834 -0.5017  0.3873 -0.3177
  510MOL0     O68762   6.972  10.699   6.944  0.2405 -0.1831  0.5725
  510MOL0     C68763   6.701  10.660   7.027 -0.1477 -0.2875 -0.3320
  510MOL0     C68764   6.572  10.636   7.090 -0.3086  0.0368 -0.3746
  510MOL0     N68765   5.888  10.217   7.316 -0.7586  0.0722  0.3799
  510MOL0     N68766   5.799  10.195   7.404 -0.1683  0.2047 -0.0774
  510MOL0     C68767   4.753   9.968   7.447 -0.1381  0.1725  0.0125
  510MOL0     C68768   4.644   9.885   7.463  0.1361 -0.4710 -0.2587
  510MOL0     C68769   4.329   9.585   7.474 -0.0346  0.2802  0.1168
  510MOL0     C68770   4.214   9.619   7.405 -0.1216 -0.3660  0.2715
  510MOL0     C68771   4.091   9.551   7.423  0.2056 -0.0872  0.9221
  510MOL0     C68772   4.083   9.448   7.519  0.0946 -0.5259 -0.8469
  510MOL0     O68773   3.968   9.391   7.560 -0.0439  0.1514  0.5842
  510MOL0     C68774   3.840   9.429   7.510  0.5158 -0.0164  0.5794
  510MOL0     C68775   3.781   9.355   7.391  0.1269 -0.3681  1.2356
  510MOL0     C68776   3.631   9.382   7.355  0.0189 -0.8756  0.7195
  510MOL0     C68777   3.573   9.325   7.221  0.0363  0.2179 -0.6606
  510MOL0     C68778   3.636   9.393   7.099 -0.4842  0.0058  0.2868
  510MOL0     C68779   3.687   9.449   7.003  0.1248  0.6767 -0.2547
  510MOL0     C68780   4.197   9.418   7.590  0.4920 -0.3852 -0.4996
  510MOL0     C68781   4.316   9.486   7.573 -0.7229 -0.1568 -0.0864
  510MOL0     C68782   4.424   9.455   7.675  0.4472  0.3409  0.9505
  510MOL0     H68783   4.540   9.844   7.145 -2.5179 -0.8366  1.1306
  510MOL0     H68784   4.733   9.999   7.107 -3.7269 -0.7543 -0.5009
  510MOL0     H68785   5.000   9.999   7.150  0.5252  0.6692 -0.3379
  510MOL0     H68786   4.895  10.133   7.105 -1.9587  0.3880  1.8756
  510MOL0     H68787   5.035  10.303   7.183 -1.6548  0.1946 -0.6001
  510MOL0     H68788   5.128  10.185   7.085 -2.0936  2.9573 -1.1497
  510MOL0     H68789   5.197  10.081   7.321 -0.9350 -0.4154  1.4961
  510MOL0     H68790   5.100  10.224   7.379 -0.2222  1.8431 -0.2992
  510MOL0     H68791   5.355  10.245   7.203  1.0816  0.6038  0.5478
  510MOL0     H68792   5.257  10.378   7.265 -1.7496 -0.3550 -0.8785
  510MOL0     H68793   5.308  10.266   7.507 -0.2036  0.7016  0.5020
  510MOL0     H68794   5.443  10.182   7.429  0.7336 -0.2093  0.3026
  510MOL0     H68795   5.520  10.403   7.343  0.5350  2.1562  1.2273
  510MOL0     H68796   5.389  10.489   7.420 -1.6829 -0.7170 -0.2398
  510MOL0     H68797   5.466  10.427   7.617 -2.1119 -1.3142 -2.3883
  510MOL0     H68798   5.585  10.522   7.529  0.4880  0.9522  3.1941
  510MOL0     H68799   5.727  10.380   7.643  0.8330 -3.3479  1.3963
  510MOL0     H68800   5.621  10.237   7.596 -0.1318  0.1558  0.3713
  510MOL0     H68801   5.834  10.525   7.415  1.2381 -0.4955  0.6507
  510MOL0     H68802   5.965  10.403   7.106 -0.6435  6.5077 -1.8813
  510MOL0     H68803   5.984  10.538   7.203 -1.8039  0.3737  2.4618
  510MOL0     H68804   6.144  10.287   7.263  0.7453 -0.6704 -2.3476
  510MOL0     H68805   6.168  10.394   7.119  0.2834 -0.8444  0.8244
  510MOL0     H68806   6.273  10.451   7.384  0.0159 -0.9436 -1.2871
  510MOL0     H68807   6.152  10.569   7.340  0.8841  1.7235 -0.3854
  510MOL0     H68808   6.367  10.642   7.271 -1.8194  0.3412  0.5062
  510MOL0     H68809   6.283  10.592   7.117  1.5123  1.4601 -1.5819
  510MOL0     H68810   6.603  10.294   7.088 -2.2763  1.1364 -0.7231
  510MOL0     H68811   6.823  10.349   6.986  2.9308  2.3017  0.2540
  510MOL0     H68812   7.011  10.386   6.612 -0.1574  2.0487 -2.1978
  510MOL0     H68813   7.228  10.386   6.487  0.3918 -0.0420  0.1331
  510MOL0     H68814   7.647  10.492   6.525  0.5718  0.3178  0.8492
  510MOL0     H68815   7.595  10.553   6.685 -0.4796  0.0881  0.7350
  510MOL0     H68816   7.485  10.306   6.702 -1.0343  1.1003  1.1216
  510MOL0     H68817   7.611  10.278   6.581  1.0878  1.8586 -1.0693
  510MOL0     H68818   7.766  10.394   6.738 -0.8310  1.3118 -0.2510
  510MOL0     H68819   7.666  10.323   6.870  1.2128 -0.8157  0.2410
  510MOL0     H68820   7.810  10.199   6.633 -1.0852  0.2077 -0.3725
  510MOL0     H68821   7.718  10.112   6.767 -0.0679  0.7757  3.1502
  510MOL0     H68822   7.858  10.177   6.931 -1.5368  0.2558 -0.7285
  510MOL0     H68823   7.959  10.292   6.837 -0.0392  0.4241 -0.5089
  510MOL0     H68824   7.940   9.994   6.778  0.7150 -0.6401  2.1676
  510MOL0     H68825   8.054  10.102   6.708 -1.1372  2.7620 -0.6787
  510MOL0     H68826   8.025  10.041   7.008  1.4855  3.5653  2.8103
  510MOL0     H68827   8.151  10.148   6.930  2.4243 -1.5730 -1.0958
  510MOL0     H68828   8.140   9.845   6.874  0.1902 -0.4089 -0.4277
  510MOL0     H68829   8.242   9.979   6.793 -0.1921  2.1422  0.1178
  510MOL0     H68830   7.403  10.611   6.803  1.0103 -0.7922 -1.7075
  510MOL0     H68831   7.205  10.599   6.934  0.6960 -1.7948  0.5797
  510MOL0     H68832   6.719  10.760   6.989  0.5897 -0.6172 -0.8644
  510MOL0     H68833   6.511  10.726   7.092 -1.3926 -0.5880 -2.2961
  510MOL0     H68834   4.815   9.998   7.531 -0.1437 -0.1900  0.1450
  510MOL0     H68835   4.609   9.862   7.563 -1.0606  0.4898 -0.4275
  510MOL0     H68836   4.211   9.705   7.339  0.3766  1.8088  2.8888
  510MOL0     H68837   4.004   9.582   7.367 -0.2467 -0.6796  1.2794
  510MOL0     H68838   3.838   9.536   7.490 -3.2252  0.5993  3.2631
  510MOL0     H68839   3.771   9.405   7.591  2.6006 -2.9130  1.7006
  510MOL0     H68840   3.791   9.248   7.409 -1.2512 -0.9069 -0.8650
  510MOL0     H68841   3.851   9.373   7.309 -1.0995 -0.4606  0.1300
  510MOL0     H68842   3.628   9.491   7.350 -0.7970 -0.8702 -4.5130
  510MOL0     H68843   3.563   9.345   7.433 -3.2740 -1.3677 -2.1056
  510MOL0     H68844   3.592   9.218   7.207 -2.4309 -0.2175 -1.1734
  510MOL0     H68845   3.465   9.341   7.222 -0.1991 -1.2065 -0.5985
  510MOL0     H68846   3.718   9.495   6.911  0.3978  1.8390  0.3905
  510MOL0     H68847   4.183   9.350   7.674 -2.9671 -0.9031 -1.3118
  510MOL0     H68848   4.454   9.549   7.723  0.6319  1.0686 -0.5434
  510MOL0     H68849   4.397   9.388   7.757  1.2931  2.1122  2.8037
  510MOL0     H68850   4.505   9.397   7.630  0.7877  0.8509  0.8855
  511MOL0     O68851   6.590   9.561   8.575  0.7547  0.4084 -0.1522
  511MOL0     C68852   6.553   9.613   8.681  0.0886 -0.3400 -0.5502
  511MOL0     O68853   6.638   9.678   8.775  0.1893 -0.2115  0.1455
  511MOL0     C68854   6.772   9.685   8.759  0.3081 -0.7565 -0.1409
  511MOL0     C68855   6.856   9.603   8.679  0.1526 -0.4305  0.6997
  511MOL0     C68856   6.986   9.642   8.658 -0.0030  0.1802  0.2521
  511MOL0     C68857   7.049   9.747   8.716  0.4560  0.0057 -0.5436
  511MOL0     O68858   7.183   9.756   8.696  0.6164 -0.3424 -0.2023
  511MOL0     C68859   7.241   9.893   8.707 -0.1857  0.0260  0.0152
  511MOL0     C68860   7.385   9.879   8.765  0.9629 -0.7314 -0.5773
  511MOL0     C68861   7.476   9.992   8.714 -0.4080  0.0782  0.4524
  511MOL0     C68862   7.617  10.027   8.769  0.2777 -0.3791 -0.4653
  511MOL0     C68863   7.728   9.942   8.713  0.3950 -0.5851  0.7739
  511MOL0     C68864   7.862   9.983   8.776 -0.4478 -0.1801  0.1506
  511MOL0     C68865   7.988   9.923   8.714  0.3576 -1.1387  1.0087
  511MOL0     C68866   8.015   9.973   8.576  0.5175  0.2440  0.3217
  511MOL0     N68867   8.148   9.946   8.518 -0.7293 -0.4804  0.0868
  511MOL0     C68868   8.256   9.885   8.575 -0.1107  0.4294  0.1192
  511MOL0     C68869   8.342   9.875   8.475 -0.9486  0.5377 -0.3651
  511MOL0     C68870   8.483   9.810   8.492  0.0110  0.2432 -0.4618
  511MOL0     C68871   8.582   9.866   8.392 -0.1598 -0.0013  0.2190
  511MOL0     C68872   8.565   9.797   8.246 -0.7028 -0.4353  0.5713
  511MOL0     C68873   8.634   9.878   8.139  0.3206  0.6371 -0.3606
  511MOL0     O68874   8.776   9.893   8.176 -0.1377  0.5557 -0.0465
  511MOL0     C68875   8.865   9.943   8.087 -0.5260  0.4051  0.9837
  511MOL0     C68876   8.858   9.937   7.949 -0.0378  0.4908  0.4294
  511MOL0     C68877   8.956   9.988   7.865 -0.5702 -0.8617  0.3887
  511MOL0     C68878   9.075  10.049   7.917 -0.8706  0.5688  0.1750
  511MOL0     C68879   9.177  10.094   7.832 -1.1485  0.2120 -0.5858
  511MOL0     O68880   9.296  10.113   7.889  0.6400  0.4797  0.0339
  511MOL0     C68881   9.405  10.136   7.803  0.4799  0.6017  0.4775
  511MOL0     C68882   9.456  10.043   7.704 -0.1306 -0.7250 -0.1710
  511MOL0     C68883   9.552  10.087   7.616 -0.5601  0.4496 -0.0148
  511MOL0     C68884   9.605  10.222   7.623  1.4198 -0.5694 -0.6398
  511MOL0     O68885   9.700  10.280   7.549 -0.0060  0.6909  0.2643
  511MOL0     C68886   9.786  10.200   7.475 -0.6247  0.4756  0.1411
  511MOL0     C68887   9.737  10.177   7.333  0.3529 -0.0922 -0.6098
  511MOL0     C68888   9.853  10.144   7.237 -0.4017 -0.8314  0.3577
  511MOL0     C68889   9.800  10.057   7.121 -0.2990  0.0233  0.7640
  511MOL0     C68890   9.904  10.034   7.023  0.6592  0.3514 -0.5122
  511MOL0     C68891   9.851   9.949   6.910  0.0077  0.3089 -0.4629
  511MOL0     C68892   9.972   9.897   6.827 -0.0062  1.7397  0.4128
  511MOL0     C68893  10.047   9.776   6.896  0.6747 -0.5400  0.3929
  511MOL0    Cl68894   9.927   9.639   6.920  0.3736 -0.0622 -0.3523
  511MOL0     C68895   9.545  10.310   7.711  0.4139  0.7707  0.7110
  511MOL0     C68896   9.448  10.263   7.799 -1.7285 -0.7005  0.2601
  511MOL0     O68897   9.154  10.109   7.710 -0.6670 -0.0373 -0.0627
  511MOL0     C68898   9.086  10.058   8.058  0.1376  0.1573  0.1707
  511MOL0     C68899   8.981  10.005   8.133 -0.4217 -0.0396  0.7582
  511MOL0     N68900   8.280   9.915   8.358  0.2962  0.7395 -0.4399
  511MOL0     N68901   8.162   9.950   8.384  0.0235 -0.5202  0.0244
  511MOL0     C68902   6.968   9.822   8.805  0.0786  0.2803  0.3113
  511MOL0     C68903   6.829   9.797   8.825 -0.6781 -0.0741 -0.9036
  511MOL0     C68904   6.403   9.635   8.687  0.3398 -0.4097 -1.1896
  511MOL0     C68905   6.320   9.594   8.587 -0.7253 -0.3261 -0.9111
  511MOL0     C68906   6.182   9.618   8.588  0.0680 -0.6637 -0.0719
  511MOL0     C68907   6.121   9.680   8.698  0.5356  0.0506  0.0870
  511MOL0     O68908   5.983   9.693   8.709 -0.3728 -0.0824  0.0921
  511MOL0     C68909   5.897   9.695   8.595  0.4139  0.3941  0.4443
  511MOL0     C68910   5.766   9.740   8.652 -0.1960  0.3768 -0.1805
  511MOL0     C68911   5.668   9.757   8.536 -0.2528 -0.2235 -0.4497
  511MOL0     C68912   5.529   9.784   8.570 -0.2141  0.2878 -0.7342
  511MOL0     C68913   5.513   9.919   8.622 -0.3621 -0.2956 -0.3315
  511MOL0     C68914   5.481  10.020   8.680 -0.3905  0.3556 -0.3133
  511MOL0     C68915   6.199   9.719   8.803  0.3243 -0.2466 -0.1653
  511MOL0     C68916   6.340   9.701   8.806 -0.6590 -1.0748 -0.0464
  511MOL0     C68917   6.419   9.772   8.921 -0.1883  1.2040  0.8623
  511MOL0     H68918   6.811   9.514   8.639 -0.2907 -0.7066  1.7853
  511MOL0     H68919   7.049   9.580   8.594 -0.1205 -1.3705  1.5861
  511MOL0     H68920   7.251   9.940   8.609 -2.0787 -2.7080 -1.6005
  511MOL0     H68921   7.179   9.964   8.763  0.0813 -1.0190  1.7163
  511MOL0     H68922   7.436   9.784   8.745  4.0615  0.3888  1.1760
  511MOL0     H68923   7.382   9.882   8.874  1.8916  1.1468 -0.5635
  511MOL0     H68924   7.422  10.087   8.720 -0.2423  0.1491  0.8267
  511MOL0     H68925   7.496   9.976   8.608  0.8447 -0.1488  0.7102
  511MOL0     H68926   7.635  10.133   8.751  0.4101 -0.6451 -2.0259
  511MOL0     H68927   7.619  10.012   8.878 -1.4393  0.4514 -0.2918
  511MOL0     H68928   7.715   9.834   8.726  0.5037 -0.6688  0.2118
  511MOL0     H68929   7.732   9.966   8.606  1.0114 -0.6204  0.7841
  511MOL0     H68930   7.864  10.092   8.766  0.7963 -0.0848  1.0888
  511MOL0     H68931   7.851   9.950   8.880 -2.3106 -1.3885 -0.3871
  511MOL0     H68932   7.972   9.815   8.704 -2.7358 -0.6707 -0.2245
  511MOL0     H68933   8.076   9.941   8.776  1.5183 -3.1541  0.0581
  511MOL0     H68934   7.931   9.948   8.510 -0.1763  1.2655  0.7967
  511MOL0     H68935   8.004  10.082   8.583 -2.7441  0.3176 -2.7696
  511MOL0     H68936   8.279   9.853   8.676 -0.0774 -0.0877 -0.0440
  511MOL0     H68937   8.518   9.840   8.591  1.0704 -2.1480 -0.0297
  511MOL0     H68938   8.476   9.701   8.483  3.0125 -0.0200 -0.7360
  511MOL0     H68939   8.566   9.974   8.386  3.1064  0.5503 -0.8397
  511MOL0     H68940   8.680   9.855   8.440 -1.4027  0.8068  3.1761
  511MOL0     H68941   8.460   9.780   8.220 -0.2387  0.6798 -2.2938
  511MOL0     H68942   8.612   9.698   8.240 -1.1387 -0.6209  0.1294
  511MOL0     H68943   8.587   9.977   8.135  0.2270  0.6747  1.1395
  511MOL0     H68944   8.639   9.832   8.040  2.7260 -1.5913  0.6770
  511MOL0     H68945   8.772   9.899   7.896 -0.4324  1.8302  0.0744
  511MOL0     H68946   8.943   9.992   7.758 -0.8865  0.9297  0.4672
  511MOL0     H68947   9.426   9.939   7.699 -0.8987 -0.4325 -2.8499
  511MOL0     H68948   9.589  10.019   7.539 -2.5333 -1.4121  0.5975
  511MOL0     H68949   9.887  10.240   7.478 -0.9044  1.1718  0.4466
  511MOL0     H68950   9.791  10.100   7.518 -0.4616  1.0113  1.4111
  511MOL0     H68951   9.668  10.092   7.336  0.4682 -0.1882 -0.6724
  511MOL0     H68952   9.684  10.267   7.299 -0.2550 -0.3370 -0.3308
  511MOL0     H68953   9.886  10.235   7.185  2.8827 -2.4329 -0.6438
  511MOL0     H68954   9.938  10.091   7.281 -1.2485 -1.4688  1.2617
  511MOL0     H68955   9.721  10.116   7.073  0.2100 -0.2794 -0.4668
  511MOL0     H68956   9.752   9.961   7.145 -2.1813 -0.1205 -2.9736
  511MOL0     H68957   9.981   9.979   7.077 -0.8528 -0.6667  0.6744
  511MOL0     H68958   9.948  10.127   6.985 -3.2794  2.0551 -1.3160
  511MOL0     H68959   9.793   9.870   6.959  1.2763  0.1236  0.8032
  511MOL0     H68960   9.782  10.011   6.852  0.7221 -0.8381 -2.6819
  511MOL0     H68961  10.031   9.982   6.789  0.5871  0.7608 -0.9424
  511MOL0     H68962   9.928   9.865   6.732  1.1591  0.2843  0.3244
  511MOL0     H68963  10.133   9.741   6.838  1.3556  1.0028  0.4249
  511MOL0     H68964  10.085   9.816   6.991 -0.8421  4.0714 -0.6653
  511MOL0     H68965   9.578  10.413   7.706  1.3103  0.4908  0.6524
  511MOL0     H68966   9.413  10.331   7.876 -0.2124  1.1722 -0.6042
  511MOL0     H68967   9.157  10.126   8.104 -1.2505  1.4112  0.5700
  511MOL0     H68968   8.976  10.013   8.241 -0.4129  1.6849  0.6556
  511MOL0     H68969   7.021   9.894   8.866  1.7318 -0.0214 -0.7038
  511MOL0     H68970   6.772   9.861   8.892  2.0781  1.2176  0.3800
  511MOL0     H68971   6.356   9.542   8.499 -1.5538 -2.4371 -0.0607
  511MOL0     H68972   6.120   9.592   8.503 -1.8645 -2.0142  1.6556
  511MOL0     H68973   5.892   9.594   8.553  2.3408 -0.5081  2.1954
  511MOL0     H68974   5.940   9.755   8.515  2.8054 -2.7248 -0.8164
  511MOL0     H68975   5.768   9.835   8.707  0.1772  0.1378  0.2267
  511MOL0     H68976   5.729   9.673   8.729 -2.9463 -0.6564 -2.2538
  511MOL0     H68977   5.674   9.662   8.481  0.8523  0.3167 -1.2966
  511MOL0     H68978   5.711   9.837   8.475 -1.7727  1.5730  0.7271
  511MOL0     H68979   5.468   9.764   8.482  0.2610 -3.2515 -0.3918
  511MOL0     H68980   5.495   9.714   8.647 -0.3634 -1.3111 -2.1972
  511MOL0     H68981   5.453  10.119   8.709  0.3406  0.5566 -0.2525
  511MOL0     H68982   6.150   9.770   8.885 -1.0092  0.0286 -1.1025
  511MOL0     H68983   6.346   9.809   8.994 -1.0125  3.0716 -0.7873
  511MOL0     H68984   6.486   9.699   8.968 -0.5980  0.0310 -0.3075
  511MOL0     H68985   6.474   9.860   8.885 -0.9805  0.8437 -1.3774
  512MOL0     O68986   9.980   4.167   0.034  0.0571 -0.0496  0.4122
  512MOL0     C68987  10.042   4.267  -0.002  0.4284  0.0174 -0.1267
  512MOL0     O68988  10.169   4.266  -0.048 -0.1823 -0.1436 -0.7100
  512MOL0     C68989  10.255   4.169  -0.010 -0.1537 -0.0134 -0.4750
  512MOL0     C68990  10.347   4.113  -0.099  0.5207 -0.2176  0.7280
  512MOL0     C68991  10.448   4.020  -0.066 -0.4421 -0.0471  0.5103
  512MOL0     C68992  10.460   3.978   0.065  0.1217  0.0600  0.6178
  512MOL0     O68993  10.543   3.883   0.116  0.6462 -0.0870 -0.3919
  512MOL0     C68994  10.631   3.815   0.030  0.6742  0.7426  0.3027
  512MOL0     C68995  10.687   3.691   0.095  0.2635 -0.4715  0.4098
  512MOL0     C68996  10.783   3.723   0.211 -0.8192  0.6298 -0.4714
  512MOL0     C68997  10.930   3.700   0.183 -0.4070  0.2171  0.1164
  512MOL0     C68998  10.985   3.566   0.229  0.5746  0.5265 -0.4983
  512MOL0     C68999  11.131   3.559   0.218  0.5751 -0.1630 -0.4377
  512MOL0     C69000  11.192   3.432   0.265  0.3654  0.1362 -0.5677
  512MOL0     C69001  11.341   3.430   0.239 -0.4592  0.9912  0.5292
  512MOL0     N69002  11.423   3.314   0.288  0.2018 -0.0132  0.0028
  512MOL0     C69003  11.369   3.192   0.323  0.0697 -0.2053  0.7419
  512MOL0     C69004  11.472   3.111   0.303  0.4546  0.0606  0.4741
  512MOL0     C69005  11.452   2.964   0.328  1.0823 -0.3014 -0.2408
  512MOL0     C69006  11.401   2.935   0.473 -0.1708  0.0005  0.5182
  512MOL0     C69007  11.506   2.974   0.574 -0.1819 -0.2475 -0.4215
  512MOL0     C69008  11.479   2.905   0.712 -0.3042 -0.5005 -0.5337
  512MOL0     O69009  11.525   2.771   0.713 -0.5351  0.9634 -0.2514
  512MOL0     C69010  11.605   2.732   0.816 -0.9244  0.2119  0.2505
  512MOL0     C69011  11.619   2.791   0.940  0.1853 -0.0300 -0.5509
  512MOL0     C69012  11.707   2.742   1.042 -0.8467  0.8202  0.1025
  512MOL0     C69013  11.786   2.620   1.014 -0.8471  0.4171  0.6331
  512MOL0     C69014  11.879   2.568   1.123  0.5456 -0.7451 -0.8020
  512MOL0     O69015  11.957   2.462   1.099  0.7805  0.1471 -0.1202
  512MOL0     C69016  12.084   2.441   1.153  0.5674 -0.3639 -0.0156
  512MOL0     C69017  12.159   2.335   1.103  0.0317 -0.4967  0.2342
  512MOL0     C69018  12.299   2.317   1.148  0.2918  0.3344 -0.0042
  512MOL0     C69019  12.355   2.406   1.242  0.3299 -0.7040 -0.0455
  512MOL0     O69020  12.484   2.405   1.297  0.1371  0.0171  0.4255
  512MOL0     C69021  12.589   2.347   1.219  0.0127 -0.4528 -0.1336
  512MOL0     C69022  12.729   2.346   1.294  0.7575  0.2385  0.2030
  512MOL0     C69023  12.774   2.494   1.291 -0.1774 -0.3890  0.3783
  512MOL0     C69024  12.922   2.503   1.325  0.7220 -1.1457  0.5769
  512MOL0     C69025  13.006   2.444   1.211  0.3501  0.5051  0.8044
  512MOL0     C69026  13.152   2.454   1.260 -0.1515 -0.2191  1.6012
  512MOL0     C69027  13.246   2.495   1.144  0.5452  0.7448  0.0259
  512MOL0     C69028  13.396   2.472   1.187  0.0917 -0.1831  0.0086
  512MOL0    Cl69029  13.491   2.544   1.054 -0.2950 -0.0735  0.2029
  512MOL0     C69030  12.267   2.503   1.302  0.3627 -0.4095  0.0981
  512MOL0     C69031  12.138   2.519   1.258  0.1703  0.0040  0.3232
  512MOL0     O69032  11.873   2.635   1.223 -0.3596  0.0123 -0.3347
  512MOL0     C69033  11.782   2.566   0.879  0.6109  0.1432 -0.5633
  512MOL0     C69034  11.694   2.623   0.783 -0.2908  0.1696 -0.3797
  512MOL0     N69035  11.586   3.182   0.273  0.5344 -0.0060 -0.0624
  512MOL0     N69036  11.553   3.306   0.263 -0.1203 -0.3738 -0.0934
  512MOL0     C69037  10.368   4.027   0.166  0.4794 -0.2659 -0.6008
  512MOL0     C69038  10.265   4.116   0.124  0.0124 -0.2194 -0.1036
  512MOL0     C69039   9.951   4.384  -0.004 -0.0455 -0.9503  0.1192
  512MOL0     C69040   9.810   4.367   0.004  0.5413 -0.0131  0.5344
  512MOL0     C69041   9.714   4.467  -0.014 -0.0059  0.0525  0.0600
  512MOL0     C69042   9.763   4.604  -0.025 -0.0514 -0.6363 -0.0000
  512MOL0     O69043   9.659   4.696  -0.021 -0.1762 -0.5500 -0.0924
  512MOL0     C69044   9.691   4.837  -0.024  0.5781 -0.1166  0.6245
  512MOL0     C69045   9.566   4.919  -0.011 -0.1687  0.2000  0.2234
  512MOL0     C69046   9.494   4.921  -0.147  0.0919  0.6141  0.3226
  512MOL0     C69047   9.369   5.007  -0.151  0.2573  0.3648 -0.0951
  512MOL0     C69048   9.277   4.993  -0.042 -0.8279  0.4162  0.7846
  512MOL0     C69049   9.191   4.973   0.039  0.0184 -0.1036  0.1685
  512MOL0     C69050   9.905   4.624  -0.029  0.3385 -0.2976  0.3526
  512MOL0     C69051   9.998   4.521  -0.020  0.0902 -0.1300  0.0982
  512MOL0     C69052  10.141   4.562  -0.019  0.4864 -0.2014 -0.7584
  512MOL0     H69053  10.351   4.152  -0.200 -0.1995  2.5618  1.6860
  512MOL0     H69054  10.529   3.990  -0.131  0.7728  2.0528  0.9437
  512MOL0     H69055  10.584   3.789  -0.066  1.4168  0.1173  0.0947
  512MOL0     H69056  10.716   3.880   0.008  2.4543 -1.2811  0.8641
  512MOL0     H69057  10.746   3.644   0.016 -2.0289 -1.6360 -0.7379
  512MOL0     H69058  10.610   3.620   0.129  1.8908 -1.8503  1.3410
  512MOL0     H69059  10.763   3.663   0.299  1.3464  0.1408 -0.2467
  512MOL0     H69060  10.777   3.831   0.231  0.0663  0.3798  1.2894
  512MOL0     H69061  10.961   3.716   0.079  0.3108 -1.8192 -0.0142
  512MOL0     H69062  10.993   3.770   0.239  3.2608 -1.9489 -1.0085
  512MOL0     H69063  10.958   3.558   0.334  4.2084  0.8727  0.5913
  512MOL0     H69064  10.955   3.481   0.167  3.0664  0.6611 -2.0650
  512MOL0     H69065  11.178   3.575   0.120  3.4646  2.5167  1.1950
  512MOL0     H69066  11.162   3.641   0.283 -1.1746 -1.9148  2.8531
  512MOL0     H69067  11.145   3.352   0.209 -1.3816 -0.7075  1.9276
  512MOL0     H69068  11.180   3.421   0.374 -2.2182  0.0000 -0.8081
  512MOL0     H69069  11.361   3.447   0.132  0.1942  2.7655  0.9053
  512MOL0     H69070  11.393   3.517   0.280 -1.8938  1.3393  1.6859
  512MOL0     H69071  11.268   3.153   0.333 -0.5068  0.8479 -0.6783
  512MOL0     H69072  11.378   2.929   0.256  0.8120  2.9071 -1.6931
  512MOL0     H69073  11.550   2.915   0.336  0.1848 -1.9601  1.3226
  512MOL0     H69074  11.305   2.983   0.491  0.4272  0.5199  2.6423
  512MOL0     H69075  11.378   2.828   0.481 -0.2458  0.0559  1.0721
  512MOL0     H69076  11.499   3.081   0.594 -3.6187 -0.0569 -1.9181
  512MOL0     H69077  11.607   2.950   0.540  0.9009  0.4812  2.0671
  512MOL0     H69078  11.371   2.905   0.735 -0.2265  0.6783 -0.1138
  512MOL0     H69079  11.525   2.958   0.796  0.9181 -0.8644 -0.9572
  512MOL0     H69080  11.555   2.875   0.967  1.0952  0.2812  0.7164
  512MOL0     H69081  11.713   2.798   1.135  0.8304  1.3691 -0.3045
  512MOL0     H69082  12.114   2.281   1.020  1.9247 -1.5223 -0.1911
  512MOL0     H69083  12.347   2.231   1.103 -1.1385  0.9473 -2.9504
  512MOL0     H69084  12.568   2.243   1.192  3.9099 -1.9614  1.7794
  512MOL0     H69085  12.592   2.406   1.127  4.2257  1.3953  0.9316
  512MOL0     H69086  12.719   2.302   1.394  0.2870  0.8401  0.4262
  512MOL0     H69087  12.788   2.273   1.238  1.8092  0.7560  0.5908
  512MOL0     H69088  12.764   2.544   1.195  0.6818  2.6329  1.7441
  512MOL0     H69089  12.717   2.550   1.365 -1.9753  1.0035 -1.9437
  512MOL0     H69090  12.942   2.458   1.423 -1.6292  0.2512  1.7704
  512MOL0     H69091  12.948   2.608   1.336  0.4610 -1.1342  1.1289
  512MOL0     H69092  12.988   2.499   1.118 -0.9576  0.8155  1.2286
  512MOL0     H69093  12.988   2.336   1.201  0.3711  0.3537  2.1617
  512MOL0     H69094  13.161   2.528   1.341  0.7508  1.6701 -0.1407
  512MOL0     H69095  13.191   2.361   1.304  0.7104 -0.3412  0.6401
  512MOL0     H69096  13.244   2.604   1.132  1.0130  0.4684 -3.3389
  512MOL0     H69097  13.218   2.442   1.053 -0.5297  0.4746  0.5018
  512MOL0     H69098  13.419   2.537   1.272 -0.4102  0.1621 -0.1114
  512MOL0     H69099  13.425   2.370   1.210  1.1156  0.7332  3.2422
  512MOL0     H69100  12.303   2.581   1.368  0.9644 -2.5742  2.5148
  512MOL0     H69101  12.069   2.582   1.314 -1.0483 -0.6965 -0.3378
  512MOL0     H69102  11.847   2.480   0.863  1.1579  0.2847  0.7241
  512MOL0     H69103  11.685   2.563   0.693  4.6179 -0.3699 -0.7704
  512MOL0     H69104  10.373   3.985   0.266 -0.4637 -1.7813 -1.1553
  512MOL0     H69105  10.198   4.149   0.203 -1.0438 -0.1638 -0.9914
  512MOL0     H69106   9.764   4.269   0.013  3.2398 -1.5264 -0.8698
  512MOL0     H69107   9.607   4.449  -0.020 -0.3045  0.4558  2.7301
  512MOL0     H69108   9.755   4.869  -0.106 -0.9648  3.0600  0.5047
  512MOL0     H69109   9.741   4.850   0.072  0.3412 -2.2167  1.0748
  512MOL0     H69110   9.590   5.023   0.010 -2.7415  0.6193  1.4636
  512MOL0     H69111   9.503   4.886   0.072 -0.6461 -1.2275 -0.6665
  512MOL0     H69112   9.466   4.819  -0.174 -3.4960  1.5646 -0.0996
  512MOL0     H69113   9.566   4.949  -0.224  0.3420 -4.3404 -1.5604
  512MOL0     H69114   9.404   5.111  -0.150  0.3259  0.3421 -0.0594
  512MOL0     H69115   9.301   4.997  -0.236 -1.6437  0.0989  1.4138
  512MOL0     H69116   9.112   4.970   0.111  1.5841 -1.5550  1.9339
  512MOL0     H69117   9.941   4.724  -0.055  5.6066 -2.3031 -1.4613
  512MOL0     H69118  10.186   4.534   0.077  1.3089 -1.3726 -1.4537
  512MOL0     H69119  10.197   4.513  -0.099  0.7007  0.7333 -1.1981
  512MOL0     H69120  10.146   4.671  -0.024  1.7309 -0.2188 -0.2047
  513MOL0     O69121   8.173   4.658   8.242  0.0198  0.1384  0.5556
  513MOL0     C69122   8.240   4.554   8.230  0.1230 -0.0706 -0.0323
  513MOL0     O69123   8.209   4.445   8.297  0.5583  0.7987  0.1399
  513MOL0     C69124   8.108   4.458   8.395 -0.5641  0.0626 -0.7713
  513MOL0     C69125   7.971   4.475   8.376 -0.3384 -0.2617  0.2961
  513MOL0     C69126   7.880   4.460   8.477  0.1138 -0.2633  0.0880
  513MOL0     C69127   7.915   4.429   8.613 -0.9422 -1.2611 -0.5505
  513MOL0     O69128   7.819   4.392   8.705 -0.3712 -0.9235  0.0564
  513MOL0     C69129   7.839   4.451   8.839  0.6752  0.2717 -0.1481
  513MOL0     C69130   7.757   4.368   8.950  0.3112  0.3317  1.4195
  513MOL0     C69131   7.852   4.338   9.074 -0.2277  0.4643 -0.2379
  513MOL0     C69132   7.909   4.460   9.145 -0.5929 -0.2347 -0.1155
  513MOL0     C69133   7.988   4.415   9.272 -0.2756 -0.2992  0.3667
  513MOL0     C69134   8.078   4.528   9.326  0.5732 -0.3401 -0.3875
  513MOL0     C69135   8.187   4.476   9.429  0.2994  0.0728 -0.0521
  513MOL0     C69136   8.261   4.595   9.481 -0.5856  0.4827 -0.6383
  513MOL0     N69137   8.372   4.642   9.391  0.3856  0.5447 -0.1855
  513MOL0     C69138   8.478   4.707   9.440 -0.1196 -0.2724  0.0617
  513MOL0     C69139   8.560   4.701   9.336  0.3891 -0.3163  0.5374
  513MOL0     C69140   8.698   4.755   9.360  0.5413 -0.6510 -0.2210
  513MOL0     C69141   8.719   4.885   9.281  0.5049 -0.2991 -0.2804
  513MOL0     C69142   8.850   4.953   9.312 -1.0138 -0.7645  0.3798
  513MOL0     C69143   8.864   5.077   9.220 -0.1407 -0.2471 -0.0665
  513MOL0     O69144   8.871   5.210   9.286 -0.0971  0.9851  0.2971
  513MOL0     C69145   8.992   5.256   9.331  0.0012  0.4978  0.1042
  513MOL0     C69146   9.105   5.169   9.341 -0.8293  0.3288  0.2909
  513MOL0     C69147   9.227   5.216   9.394 -0.1784 -1.1179  0.2195
  513MOL0     C69148   9.239   5.359   9.430  0.2878  0.1528 -1.6161
  513MOL0     C69149   9.369   5.407   9.490 -0.3338 -0.0801  1.5219
  513MOL0     O69150   9.461   5.311   9.528  0.2167  0.3872 -0.7662
  513MOL0     C69151   9.572   5.335   9.604 -0.2491 -0.1586  0.7229
  513MOL0     C69152   9.684   5.248   9.574 -0.8301 -0.2807  0.4925
  513MOL0     C69153   9.803   5.262   9.649  0.5663 -0.1642  0.6608
  513MOL0     C69154   9.810   5.351   9.755 -0.5017  0.0127 -0.0486
  513MOL0     O69155   9.930   5.359   9.826  0.0766 -0.3071 -0.1377
  513MOL0     C69156   9.956   5.461   9.922 -0.0973  0.4824  0.3825
  513MOL0     C69157  10.101   5.463   9.953 -0.2452  0.6346  0.2458
  513MOL0     C69158  10.178   5.477   9.820  0.0834 -0.3795 -0.2507
  513MOL0     C69159  10.325   5.520   9.849 -0.1190 -0.3893 -0.0643
  513MOL0     C69160  10.419   5.495   9.727  0.0058  0.0770  0.7972
  513MOL0     C69161  10.381   5.593   9.605 -0.4299 -0.2279  0.3245
  513MOL0     C69162  10.347   5.741   9.635  0.0704 -0.8895  0.0934
  513MOL0     C69163  10.460   5.823   9.679  0.1930 -0.2533 -0.1879
  513MOL0    Cl69164  10.548   5.871   9.534  0.3474 -0.2268  0.2869
  513MOL0     C69165   9.697   5.436   9.780 -0.3158  0.8536  0.2262
  513MOL0     C69166   9.574   5.431   9.704 -0.8289  0.3328 -0.1573
  513MOL0     O69167   9.387   5.528   9.492  0.4442 -0.0110 -0.0722
  513MOL0     C69168   9.124   5.435   9.419  0.1870 -0.4453  1.5026
  513MOL0     C69169   9.006   5.384   9.373 -0.2376 -0.5684 -0.7009
  513MOL0     N69170   8.501   4.642   9.224 -0.2234 -0.3671  0.1858
  513MOL0     N69171   8.390   4.603   9.259 -0.3759  0.4643 -0.3133
  513MOL0     C69172   8.060   4.417   8.634 -0.2172 -0.2962  1.0044
  513MOL0     C69173   8.147   4.425   8.526  0.2244 -0.0895 -0.4542
  513MOL0     C69174   8.360   4.552   8.143 -0.2165 -0.1097 -0.0053
  513MOL0     C69175   8.427   4.431   8.117 -0.1252  0.4040  0.3720
  513MOL0     C69176   8.546   4.427   8.038 -0.3269 -0.3727  0.1823
  513MOL0     C69177   8.593   4.540   7.965  0.9489  0.4482  0.3470
  513MOL0     O69178   8.717   4.546   7.899 -0.1326 -0.1292 -0.0848
  513MOL0     C69179   8.787   4.427   7.871  0.8793  0.1256  0.2155
  513MOL0     C69180   8.911   4.466   7.786 -0.1681 -0.6294 -0.1254
  513MOL0     C69181   9.021   4.362   7.778 -0.0504  0.0263  0.3484
  513MOL0     C69182   9.000   4.251   7.666  0.5344 -0.1081  0.4146
  513MOL0     C69183   8.897   4.157   7.695 -0.3076  0.1527 -0.2429
  513MOL0     C69184   8.827   4.063   7.721  0.3380 -0.4400  1.0287
  513MOL0     C69185   8.524   4.659   7.992  0.5655 -0.6403 -0.1414
  513MOL0     C69186   8.409   4.673   8.075 -0.0953  0.0697 -0.4411
  513MOL0     C69187   8.339   4.809   8.068 -0.1953 -0.4283 -0.2720
  513MOL0     H69188   7.932   4.507   8.280 -1.4112 -1.0734  0.4415
  513MOL0     H69189   7.778   4.467   8.440 -0.9839 -0.2700  2.8629
  513MOL0     H69190   7.943   4.438   8.868  0.2004  2.2791  2.9248
  513MOL0     H69191   7.820   4.559   8.828  3.0435  0.5060 -3.6289
  513MOL0     H69192   7.729   4.271   8.910  1.8882  0.3317  0.1963
  513MOL0     H69193   7.668   4.425   8.977 -1.6565 -0.4286 -2.6540
  513MOL0     H69194   7.936   4.276   9.043  0.8043  2.0510 -0.7230
  513MOL0     H69195   7.798   4.274   9.145  0.9785  1.4502  1.6334
  513MOL0     H69196   7.977   4.503   9.071 -0.6427 -1.4252 -0.8799
  513MOL0     H69197   7.834   4.533   9.176  0.9450  1.7352 -0.8774
  513MOL0     H69198   7.920   4.373   9.346 -1.0315 -1.5694 -0.9750
  513MOL0     H69199   8.051   4.330   9.244 -2.8463 -2.5285  0.9135
  513MOL0     H69200   8.124   4.580   9.242 -0.4902 -0.0488 -0.8084
  513MOL0     H69201   8.023   4.608   9.377 -0.5122 -0.4798 -1.2977
  513MOL0     H69202   8.253   4.394   9.398  1.2182  0.1909  1.4507
  513MOL0     H69203   8.128   4.440   9.514 -0.7963  2.3392  0.2303
  513MOL0     H69204   8.192   4.678   9.497  1.2412  1.9023  0.2716
  513MOL0     H69205   8.288   4.564   9.583 -0.5737 -2.9761 -1.5637
  513MOL0     H69206   8.500   4.741   9.541 -0.6886 -1.1256  0.4880
  513MOL0     H69207   8.720   4.769   9.466 -0.1922 -1.1478  0.0027
  513MOL0     H69208   8.766   4.679   9.321 -0.6196 -3.1928  2.3222
  513MOL0     H69209   8.723   4.855   9.175 -0.9010  1.0382 -0.7380
  513MOL0     H69210   8.636   4.954   9.295  1.0957  0.5185 -0.7579
  513MOL0     H69211   8.932   4.887   9.280 -0.3505  0.5241 -0.7079
  513MOL0     H69212   8.873   4.964   9.418  1.7820  1.7044 -0.3244
  513MOL0     H69213   8.774   5.083   9.158  0.6548 -1.0227 -1.3411
  513MOL0     H69214   8.957   5.061   9.165  0.7980 -1.1077  1.6834
  513MOL0     H69215   9.112   5.069   9.300  0.6825  0.9672 -1.0987
  513MOL0     H69216   9.315   5.154   9.402  1.2537  0.5155 -1.6945
  513MOL0     H69217   9.680   5.180   9.490 -0.4298 -1.5886  1.5042
  513MOL0     H69218   9.896   5.210   9.628  2.3643  2.5030  1.5563
  513MOL0     H69219   9.928   5.559   9.882  0.1412 -0.6824 -3.0253
  513MOL0     H69220   9.907   5.448  10.019  2.0743  1.4052  1.6656
  513MOL0     H69221  10.130   5.535  10.030  1.2688 -1.7606  2.0254
  513MOL0     H69222  10.137   5.373  10.002  0.6590  1.2876  0.8130
  513MOL0     H69223  10.174   5.383   9.763  2.6244 -0.8701  0.2493
  513MOL0     H69224  10.128   5.548   9.754 -0.3436 -2.5064 -2.3876
  513MOL0     H69225  10.363   5.454   9.927 -0.0670 -0.6085 -0.2737
  513MOL0     H69226  10.340   5.620   9.891  0.9704  0.0311 -1.3922
  513MOL0     H69227  10.419   5.391   9.693 -4.0191  0.0573  0.3713
  513MOL0     H69228  10.517   5.518   9.770 -0.2588 -2.7500  3.2305
  513MOL0     H69229  10.464   5.597   9.533 -1.6429  0.5359 -1.0923
  513MOL0     H69230  10.294   5.557   9.550  0.3651 -0.7938 -0.6039
  513MOL0     H69231  10.266   5.738   9.709  0.7012 -0.8820  0.7990
  513MOL0     H69232  10.303   5.784   9.545 -0.0884  1.2266  1.1349
  513MOL0     H69233  10.416   5.911   9.728 -0.0907 -1.4617  1.8516
  513MOL0     H69234  10.514   5.768   9.756  1.5075  0.5969 -0.4685
  513MOL0     H69235   9.719   5.506   9.860  3.3046 -0.0680  0.2186
  513MOL0     H69236   9.493   5.500   9.726  0.2332  1.0099  1.8502
  513MOL0     H69237   9.124   5.537   9.456 -1.3180 -0.4957  1.7180
  513MOL0     H69238   8.917   5.446   9.372  0.4390  0.5374  1.5372
  513MOL0     H69239   8.092   4.382   8.731 -1.5309 -3.0230  0.5674
  513MOL0     H69240   8.251   4.419   8.557  0.5201  1.6914 -0.9901
  513MOL0     H69241   8.397   4.339   8.166  2.3964  1.4577  4.3102
  513MOL0     H69242   8.601   4.334   8.028  0.3549  0.0564 -0.2005
  513MOL0     H69243   8.727   4.352   7.818  3.1251  0.0093 -2.3278
  513MOL0     H69244   8.830   4.388   7.964  2.2916  1.2245  0.0561
  513MOL0     H69245   8.958   4.551   7.835  2.6318 -2.0844 -0.1078
  513MOL0     H69246   8.886   4.497   7.684  2.1845 -0.0780 -0.5869
  513MOL0     H69247   9.035   4.314   7.875 -1.1749  3.1289  2.1983
  513MOL0     H69248   9.113   4.419   7.761 -0.3955  1.0644  1.8013
  513MOL0     H69249   8.975   4.304   7.574  1.2748  1.1078  0.8813
  513MOL0     H69250   9.088   4.187   7.659  0.1640 -0.7072  1.0791
  513MOL0     H69251   8.752   3.987   7.735 -1.0410  0.5666 -0.5689
  513MOL0     H69252   8.557   4.743   7.931 -0.6090 -0.7777 -0.9987
  513MOL0     H69253   8.310   4.842   8.169  2.0962 -0.9289  0.6074
  513MOL0     H69254   8.404   4.884   8.022 -1.1199  0.4102 -0.2602
  513MOL0     H69255   8.243   4.800   8.017 -0.9089  0.6073  0.8368
  514MOL0     O69256   0.038   4.737   1.007 -0.8799  0.4307 -0.4188
  514MOL0     C69257   0.086   4.724   1.117 -1.0573 -0.0699  0.0917
  514MOL0     O69258   0.217   4.719   1.150 -0.5101 -0.6451 -0.3114
  514MOL0     C69259   0.308   4.718   1.048  0.0543 -1.3538  0.6193
  514MOL0     C69260   0.399   4.829   1.035  0.1322 -0.9326  0.0259
  514MOL0     C69261   0.494   4.842   0.927  0.0270  0.1981 -0.6131
  514MOL0     C69262   0.501   4.745   0.833  0.8784  0.4663 -0.3432
  514MOL0     O69263   0.586   4.741   0.716  0.3778  0.5018 -0.4637
  514MOL0     C69264   0.696   4.837   0.724 -0.4057 -1.0074 -0.1995
  514MOL0     C69265   0.791   4.815   0.841 -0.1058  0.7195  0.1420
  514MOL0     C69266   0.925   4.764   0.792 -0.4526 -0.4895  0.9084
  514MOL0     C69267   1.021   4.728   0.902 -0.2646  0.2349 -0.4880
  514MOL0     C69268   1.151   4.678   0.849 -1.0907  0.0629  0.1234
  514MOL0     C69269   1.250   4.634   0.952 -0.1981 -0.1614 -0.3723
  514MOL0     C69270   1.392   4.615   0.906  0.3079 -0.7799 -0.4794
  514MOL0     C69271   1.483   4.599   1.035 -0.2803 -0.5979 -0.3890
  514MOL0     N69272   1.624   4.608   0.989 -0.5806 -0.2210 -1.2362
  514MOL0     C69273   1.693   4.504   0.924 -0.4989 -0.0866  0.2873
  514MOL0     C69274   1.824   4.534   0.945  0.2456  0.5672 -0.5129
  514MOL0     C69275   1.934   4.434   0.913  0.9503  0.3456 -0.2718
  514MOL0     C69276   1.961   4.411   0.767 -0.3136 -0.6113 -0.2839
  514MOL0     C69277   1.969   4.540   0.687  1.1492  0.4693 -0.6639
  514MOL0     C69278   2.083   4.627   0.733 -0.3202  0.4585  0.2199
  514MOL0     O69279   2.212   4.577   0.699 -0.2891 -0.3245 -0.1468
  514MOL0     C69280   2.331   4.643   0.707  0.5094  0.5394  0.3549
  514MOL0     C69281   2.351   4.770   0.758  0.8081  0.5336 -0.1802
  514MOL0     C69282   2.474   4.829   0.757  0.6526 -0.4460  0.3420
  514MOL0     C69283   2.584   4.766   0.700  0.1444 -0.0361  0.3608
  514MOL0     C69284   2.708   4.834   0.705 -0.0954 -0.4627 -0.1931
  514MOL0     O69285   2.809   4.769   0.643  0.2005  0.1333  0.6585
  514MOL0     C69286   2.936   4.833   0.646  0.8333  0.0113 -0.3439
  514MOL0     C69287   2.963   4.953   0.579  0.0836  0.1355  0.1037
  514MOL0     C69288   3.094   5.005   0.580  0.0699 -0.4841  0.0608
  514MOL0     C69289   3.200   4.938   0.632 -0.0041  0.7929  0.4568
  514MOL0     O69290   3.325   4.990   0.653  0.3225 -0.1247  0.2181
  514MOL0     C69291   3.349   5.133   0.636 -0.3551 -0.2380  0.2193
  514MOL0     C69292   3.483   5.165   0.713 -0.7210 -1.0032 -0.4102
  514MOL0     C69293   3.603   5.115   0.635  0.4123 -0.1624  0.3324
  514MOL0     C69294   3.726   5.141   0.718 -0.3205  0.2020  0.4138
  514MOL0     C69295   3.855   5.129   0.639 -0.0813 -0.2468  0.2803
  514MOL0     C69296   3.976   5.188   0.712 -0.1231  0.3990 -0.1709
  514MOL0     C69297   4.101   5.166   0.633  0.3846  0.8802  0.2908
  514MOL0     C69298   4.228   5.199   0.716  0.2132  0.0691 -1.0457
  514MOL0    Cl69299   4.362   5.210   0.603 -0.0970  0.1905 -0.0470
  514MOL0     C69300   3.170   4.806   0.683  0.2058  0.8419  0.8428
  514MOL0     C69301   3.039   4.758   0.697  0.0235 -0.8243 -0.8307
  514MOL0     O69302   2.723   4.936   0.768  1.0133 -0.4503 -0.7849
  514MOL0     C69303   2.565   4.633   0.666  0.2907 -0.3780 -0.6502
  514MOL0     C69304   2.442   4.572   0.653 -0.2785  0.0101  0.1220
  514MOL0     N69305   1.840   4.648   1.021  0.0980  0.1322  0.4793
  514MOL0     N69306   1.724   4.694   1.037  0.1214  1.1760 -0.5832
  514MOL0     C69307   0.404   4.643   0.832  0.1088 -0.1321 -0.9547
  514MOL0     C69308   0.316   4.623   0.939  0.1024 -0.1706 -0.4991
  514MOL0     C69309   0.000   4.719   1.236  0.2339  0.1281 -0.3260
  514MOL0     C69310   0.047   4.773   1.363  0.3884  0.3420 -1.0096
  514MOL0     C69311  -0.040   4.776   1.482  0.4262 -0.2127  0.5841
  514MOL0     C69312  -0.171   4.719   1.478  0.0700  0.4373 -0.0538
  514MOL0     O69313  -0.237   4.712   1.599 -0.2305 -0.4901  0.1909
  514MOL0     C69314  -0.359   4.635   1.616  0.5499 -0.3453 -0.5924
  514MOL0     C69315  -0.338   4.489   1.624 -0.1307 -0.3767  0.3493
  514MOL0     C69316  -0.471   4.418   1.609 -0.7556 -0.3564 -0.2056
  514MOL0     C69317  -0.505   4.374   1.467 -0.0917  1.0710  0.5747
  514MOL0     C69318  -0.636   4.303   1.462 -0.7779  0.2400 -1.1741
  514MOL0     C69319  -0.739   4.240   1.450  0.0223 -0.5872  0.7311
  514MOL0     C69320  -0.212   4.656   1.359 -0.2168 -0.6547  0.2700
  514MOL0     C69321  -0.129   4.660   1.242  0.6348  0.6024  0.2908
  514MOL0     C69322  -0.193   4.597   1.120 -0.3113  0.2699  0.3416
  514MOL0     H69323   0.398   4.903   1.114  1.7454 -2.9172  2.0423
  514MOL0     H69324   0.557   4.929   0.912 -0.1241  0.0444 -2.3447
  514MOL0     H69325   0.758   4.824   0.635 -0.0349 -0.3956 -0.0364
  514MOL0     H69326   0.657   4.939   0.732  0.1608 -0.8390  0.5071
  514MOL0     H69327   0.748   4.744   0.912  1.1137 -1.8774 -1.5472
  514MOL0     H69328   0.795   4.909   0.897  2.6718  0.9287 -0.2572
  514MOL0     H69329   0.969   4.829   0.716  0.4971 -2.9637 -0.7558
  514MOL0     H69330   0.903   4.671   0.739  3.1792  0.1162 -2.1273
  514MOL0     H69331   1.046   4.805   0.976 -1.3365  0.2889 -0.1704
  514MOL0     H69332   0.972   4.651   0.962 -2.7459  2.6239  0.7644
  514MOL0     H69333   1.140   4.590   0.785 -1.2915 -1.0962  1.6880
  514MOL0     H69334   1.186   4.760   0.787  0.2728 -1.0706 -0.6714
  514MOL0     H69335   1.236   4.702   1.036 -1.7098  0.1356 -0.8293
  514MOL0     H69336   1.222   4.538   0.995  0.4821 -0.2466 -0.1103
  514MOL0     H69337   1.419   4.700   0.842 -1.6029 -0.4710 -0.9286
  514MOL0     H69338   1.411   4.530   0.839  0.7242 -0.5283 -0.6877
  514MOL0     H69339   1.464   4.676   1.110 -0.0757 -0.7182 -0.2133
  514MOL0     H69340   1.483   4.499   1.081  1.3474  0.1102  1.2728
  514MOL0     H69341   1.649   4.424   0.865 -1.9177  2.3317 -2.1768
  514MOL0     H69342   2.021   4.471   0.967  0.6416  1.5482 -0.5729
  514MOL0     H69343   1.885   4.342   0.946 -1.0426  1.1371 -0.8345
  514MOL0     H69344   2.057   4.360   0.755  1.0413  0.7580  3.5141
  514MOL0     H69345   1.891   4.335   0.730  1.0396 -2.8779  1.5935
  514MOL0     H69346   1.869   4.584   0.683 -0.2426 -2.2949  0.6932
  514MOL0     H69347   1.979   4.513   0.582  1.4826 -0.0994 -0.4929
  514MOL0     H69348   2.083   4.636   0.842 -1.1236 -1.4638  0.4182
  514MOL0     H69349   2.068   4.727   0.691 -2.0044 -0.7875 -2.3903
  514MOL0     H69350   2.266   4.825   0.796 -0.4741 -0.7712 -1.0533
  514MOL0     H69351   2.477   4.931   0.792  0.1453  0.4394 -1.9997
  514MOL0     H69352   2.874   5.004   0.541  2.0070  4.9284  1.2817
  514MOL0     H69353   3.107   5.107   0.545  0.4356 -0.5861 -0.1008
  514MOL0     H69354   3.361   5.161   0.531 -1.7640  0.6781  0.2829
  514MOL0     H69355   3.273   5.201   0.674  1.6268  2.6211 -0.5634
  514MOL0     H69356   3.493   5.274   0.725  0.4381 -1.3650  2.9400
  514MOL0     H69357   3.480   5.117   0.811 -1.7752 -0.5330 -0.2006
  514MOL0     H69358   3.597   5.010   0.605 -0.7280 -0.0684  0.2044
  514MOL0     H69359   3.605   5.180   0.546 -0.3945  1.3128  1.3434
  514MOL0     H69360   3.722   5.059   0.790  1.8659 -1.6223 -1.3917
  514MOL0     H69361   3.727   5.240   0.766  1.1438 -0.3189  1.5404
  514MOL0     H69362   3.842   5.197   0.555 -0.3519  1.3134  1.5428
  514MOL0     H69363   3.876   5.028   0.602 -2.0171 -1.3997  2.0655
  514MOL0     H69364   3.972   5.296   0.728  0.6436 -0.0036  3.8197
  514MOL0     H69365   3.983   5.151   0.815  1.0909  3.3643  0.9060
  514MOL0     H69366   4.107   5.224   0.540  2.8815 -0.9554 -0.8241
  514MOL0     H69367   4.108   5.064   0.594  3.6171  0.8098  0.8519
  514MOL0     H69368   4.211   5.296   0.763  0.1725 -1.7339  3.1130
  514MOL0     H69369   4.250   5.122   0.791 -1.2299  1.0254  0.4180
  514MOL0     H69370   3.249   4.738   0.711 -1.5253 -2.5983 -1.8199
  514MOL0     H69371   3.016   4.667   0.751  2.0894 -0.6461  0.4892
  514MOL0     H69372   2.649   4.578   0.626  2.1339  2.3769 -0.8243
  514MOL0     H69373   2.422   4.471   0.619 -1.5258  0.7376 -1.4362
  514MOL0     H69374   0.411   4.576   0.747  3.8293 -0.3033 -0.6648
  514MOL0     H69375   0.254   4.535   0.957 -1.7746  1.2534  0.3366
  514MOL0     H69376   0.146   4.817   1.370  0.4322  0.0281  0.6330
  514MOL0     H69377  -0.003   4.821   1.573  0.8345 -1.9763  1.3375
  514MOL0     H69378  -0.438   4.676   1.554  0.3392  0.4406  0.1752
  514MOL0     H69379  -0.396   4.660   1.716  0.9581  0.1476 -0.5608
  514MOL0     H69380  -0.287   4.463   1.717 -1.5075 -2.5268  0.5557
  514MOL0     H69381  -0.266   4.455   1.549  1.8883  0.3382  1.8730
  514MOL0     H69382  -0.554   4.475   1.653  0.4443 -0.9181  3.0471
  514MOL0     H69383  -0.463   4.324   1.665  2.2545 -0.2295 -0.3056
  514MOL0     H69384  -0.521   4.464   1.406 -2.8457  0.9661  1.0303
  514MOL0     H69385  -0.418   4.320   1.428 -0.4271  2.1392 -1.8766
  514MOL0     H69386  -0.833   4.188   1.443 -0.9525  1.3172 -2.2786
  514MOL0     H69387  -0.310   4.610   1.354 -0.5024 -0.1380  0.9693
  514MOL0     H69388  -0.219   4.678   1.051  0.5042 -0.6380 -1.1068
  514MOL0     H69389  -0.133   4.528   1.060  0.0644  2.7195 -2.3301
  514MOL0     H69390  -0.285   4.543   1.145  0.2895 -2.1830 -2.1513
  515MOL0     O69391   7.454  10.821   4.190 -0.3165 -0.6736 -0.2835
  515MOL0     C69392   7.370  10.914   4.181  0.4816  0.1359 -0.2707
  515MOL0     O69393   7.394  11.025   4.105  0.0326 -0.5397  0.2268
  515MOL0     C69394   7.518  11.030   4.049 -0.1745  0.0671 -0.1127
  515MOL0     C69395   7.616  11.107   4.114  0.4210  0.3295 -0.1343
  515MOL0     C69396   7.738  11.126   4.053 -0.0855  0.4404 -0.0159
  515MOL0     C69397   7.767  11.070   3.923 -0.0007 -0.1259  0.7777
  515MOL0     O69398   7.884  11.079   3.849 -0.7630  0.0579 -0.0864
  515MOL0     C69399   7.959  11.194   3.885 -0.0604  0.1089  0.1192
  515MOL0     C69400   8.078  11.192   3.789  0.0719  0.0838 -0.1291
  515MOL0     C69401   8.191  11.087   3.822 -0.2949 -0.4391 -0.6881
  515MOL0     C69402   8.272  11.060   3.690  0.9810 -0.2943  0.7390
  515MOL0     C69403   8.372  10.943   3.707  0.2390 -0.9004 -0.1561
  515MOL0     C69404   8.472  10.964   3.817 -0.3188 -0.0031  0.3579
  515MOL0     C69405   8.552  10.837   3.844 -0.3460 -0.0170  0.4502
  515MOL0     C69406   8.635  10.797   3.718 -1.3635  0.4292  0.6454
  515MOL0     N69407   8.711  10.679   3.772  0.1988  0.0384  0.8361
  515MOL0     C69408   8.656  10.552   3.777  0.3874  0.4167  0.3875
  515MOL0     C69409   8.755  10.471   3.818  0.4378  0.0197 -0.2394
  515MOL0     C69410   8.745  10.315   3.839 -0.5108 -1.1161 -0.3779
  515MOL0     C69411   8.664  10.282   3.956 -0.1588  0.2189  0.0095
  515MOL0     C69412   8.627  10.124   3.974  0.5290 -0.1956  0.5174
  515MOL0     C69413   8.568  10.071   4.103  0.2469 -0.5358  0.2992
  515MOL0     O69414   8.638  10.096   4.219 -0.2774  0.3927 -0.7929
  515MOL0     C69415   8.762  10.029   4.229  0.5668  0.4921 -1.1718
  515MOL0     C69416   8.770   9.891   4.200  0.6421  0.2150  0.5686
  515MOL0     C69417   8.895   9.833   4.188  0.2915  0.3629 -0.2647
  515MOL0     C69418   9.013   9.909   4.218 -0.3261 -0.2267  0.1416
  515MOL0     C69419   9.131   9.829   4.236 -0.1505 -1.0562 -0.1173
  515MOL0     O69420   9.249   9.897   4.220 -0.7975 -0.4196 -0.2084
  515MOL0     C69421   9.372   9.840   4.214 -0.4292  0.0798 -0.0412
  515MOL0     C69422   9.415   9.725   4.280 -1.0013 -0.5042 -0.8900
  515MOL0     C69423   9.551   9.686   4.279 -0.2285  0.3331 -0.9835
  515MOL0     C69424   9.650   9.755   4.217  0.2654 -0.2490  0.9540
  515MOL0     O69425   9.774   9.699   4.226  0.5878 -0.0097  0.4477
  515MOL0     C69426   9.881   9.745   4.142  0.0112  0.4700  0.5678
  515MOL0     C69427  10.011   9.676   4.181  0.2199  0.2159 -0.2802
  515MOL0     C69428  10.132   9.730   4.093 -1.0575  0.1951 -0.1800
  515MOL0     C69429  10.253   9.663   4.165  0.1397  0.3222 -0.1567
  515MOL0     C69430  10.370   9.724   4.101 -0.7193  0.2544  0.2199
  515MOL0     C69431  10.376   9.734   3.946 -0.4304 -0.5684 -0.2639
  515MOL0     C69432  10.530   9.746   3.898  0.0372 -0.6459 -0.5157
  515MOL0     C69433  10.554   9.777   3.753  0.7632  0.3893 -0.1467
  515MOL0    Cl69434  10.530   9.622   3.651  0.1014  0.0127  0.4065
  515MOL0     C69435   9.614   9.871   4.149  0.4074 -0.0269 -0.5040
  515MOL0     C69436   9.480   9.916   4.149  0.0197  0.6768 -0.3275
  515MOL0     O69437   9.123   9.711   4.266 -0.0631 -0.0412  0.1740
  515MOL0     C69438   9.005  10.046   4.249 -0.4037 -0.3393 -0.2368
  515MOL0     C69439   8.876  10.105   4.250  0.1852  0.3402 -0.4722
  515MOL0     N69440   8.870  10.549   3.822  0.1913  0.8224 -0.2439
  515MOL0     N69441   8.844  10.674   3.798  0.3439  0.5207  0.0922
  515MOL0     C69442   7.663  10.986   3.865 -0.3593 -0.1511 -0.5613
  515MOL0     C69443   7.540  10.972   3.923  0.0976  0.1760  0.1053
  515MOL0     C69444   7.233  10.919   4.246 -0.5078  0.8635 -0.9307
  515MOL0     C69445   7.163  11.039   4.246 -0.6295  0.6388  0.2742
  515MOL0     C69446   7.035  11.053   4.293 -0.7770  0.0887 -0.2549
  515MOL0     C69447   6.961  10.951   4.363 -0.2765  0.4081  0.8138
  515MOL0     O69448   6.837  10.950   4.424  0.1030 -0.2824  0.5053
  515MOL0     C69449   6.764  11.079   4.430  0.3212 -0.2310 -0.5347
  515MOL0     C69450   6.635  11.066   4.352 -0.1808  0.2119  0.1722
  515MOL0     C69451   6.658  11.044   4.199 -0.4210 -0.7551  0.8153
  515MOL0     C69452   6.518  11.006   4.130 -0.9785 -0.6022 -0.5412
  515MOL0     C69453   6.501  11.052   3.994 -0.1165 -0.0392  0.3349
  515MOL0     C69454   6.499  11.081   3.873  0.7988 -0.5411 -0.6513
  515MOL0     C69455   7.040  10.833   4.374 -0.2180  0.1343 -0.2343
  515MOL0     C69456   7.163  10.816   4.318 -0.4817  0.2609  0.1308
  515MOL0     C69457   7.231  10.682   4.329  0.8254  0.2464 -0.1780
  515MOL0     H69458   7.589  11.146   4.212  0.9104 -2.7031  1.3105
  515MOL0     H69459   7.811  11.194   4.096  0.1671  1.8040 -2.4402
  515MOL0     H69460   7.902  11.286   3.871  0.8747  0.7626  0.4693
  515MOL0     H69461   7.994  11.183   3.988  0.3666  0.6299  0.0354
  515MOL0     H69462   8.123  11.292   3.790 -0.4476  0.3444 -1.3027
  515MOL0     H69463   8.035  11.180   3.689 -0.8991  1.2571  0.1282
  515MOL0     H69464   8.148  10.995   3.860  0.1560  0.4331  2.1228
  515MOL0     H69465   8.260  11.118   3.901  0.5437 -1.0841 -1.1467
  515MOL0     H69466   8.198  11.022   3.619 -0.4074 -1.9383  2.9035
  515MOL0     H69467   8.315  11.154   3.656 -1.5607  0.9930  0.8757
  515MOL0     H69468   8.319  10.851   3.735  2.4403 -2.6054 -1.2888
  515MOL0     H69469   8.424  10.927   3.612 -2.0621  0.3115 -1.7317
  515MOL0     H69470   8.542  11.040   3.780 -0.7613 -0.5550 -1.6803
  515MOL0     H69471   8.430  11.005   3.909 -5.2511  1.0575 -2.0735
  515MOL0     H69472   8.482  10.762   3.883  1.0715 -1.4972  0.2719
  515MOL0     H69473   8.626  10.855   3.922  1.5060 -1.6322 -0.8329
  515MOL0     H69474   8.565  10.770   3.637 -0.6288  0.2014  0.0793
  515MOL0     H69475   8.700  10.878   3.684 -1.8513  0.6857  0.2940
  515MOL0     H69476   8.552  10.533   3.750  0.9288 -0.5886 -1.1437
  515MOL0     H69477   8.714  10.266   3.747 -0.6130 -2.2182  0.2293
  515MOL0     H69478   8.848  10.283   3.859 -0.5316 -0.5889  0.6553
  515MOL0     H69479   8.711  10.308   4.052  3.2281 -0.5138 -1.3240
  515MOL0     H69480   8.566  10.332   3.960 -2.9024 -4.6004  1.0665
  515MOL0     H69481   8.719  10.067   3.952  2.7089  3.6468 -1.3022
  515MOL0     H69482   8.567  10.086   3.891  0.9984 -1.3085  0.6584
  515MOL0     H69483   8.553   9.963   4.090  1.8397 -0.9771  1.7491
  515MOL0     H69484   8.464  10.101   4.117  0.1671 -0.0464 -1.1104
  515MOL0     H69485   8.694   9.817   4.177 -0.0292  0.7345  1.1025
  515MOL0     H69486   8.896   9.727   4.163 -2.3051  0.7641 -2.6491
  515MOL0     H69487   9.351   9.657   4.335 -1.1879  0.2703 -0.1208
  515MOL0     H69488   9.572   9.591   4.326 -0.8688  1.7353  2.4969
  515MOL0     H69489   9.845   9.716   4.043 -1.7291 -0.6817  1.5000
  515MOL0     H69490   9.888   9.854   4.150  1.9883  0.2588  2.9266
  515MOL0     H69491  10.026   9.687   4.289 -0.7363 -0.1184 -0.1072
  515MOL0     H69492  10.003   9.568   4.167  4.1552 -0.1602 -0.7908
  515MOL0     H69493  10.126   9.693   3.990  1.2501 -2.0738  0.3807
  515MOL0     H69494  10.144   9.838   4.079 -0.9244  0.0114 -1.6470
  515MOL0     H69495  10.240   9.556   4.149 -3.1591  0.7536 -1.1350
  515MOL0     H69496  10.262   9.681   4.273  2.7683 -1.5533  0.0279
  515MOL0     H69497  10.455   9.667   4.139 -1.6996 -1.8040 -0.5230
  515MOL0     H69498  10.355   9.830   4.123 -1.6479  0.5534 -1.5922
  515MOL0     H69499  10.335   9.640   3.909 -2.1772 -0.2810  0.8077
  515MOL0     H69500  10.320   9.820   3.908  1.2154  0.3500 -0.6966
  515MOL0     H69501  10.587   9.659   3.933  0.0659  0.1863  1.6223
  515MOL0     H69502  10.566   9.829   3.958  0.4974 -1.5030  0.4200
  515MOL0     H69503  10.482   9.845   3.707  0.7026  0.2441 -0.2683
  515MOL0     H69504  10.658   9.804   3.729  1.1025 -0.2669  0.5518
  515MOL0     H69505   9.691   9.928   4.097  0.9890  0.3335  0.7278
  515MOL0     H69506   9.473  10.007   4.091  4.2772 -1.0909 -4.3055
  515MOL0     H69507   9.092  10.103   4.280  0.3558 -1.2460 -0.6413
  515MOL0     H69508   8.855  10.210   4.263 -1.6607  0.0180 -0.5764
  515MOL0     H69509   7.691  10.932   3.774  0.6996 -0.6976  0.0704
  515MOL0     H69510   7.460  10.921   3.870 -1.6930  3.8591 -1.0642
  515MOL0     H69511   7.206  11.126   4.196  0.1768  0.4534  0.6215
  515MOL0     H69512   6.995  11.154   4.285 -0.8010  0.1024  0.0212
  515MOL0     H69513   6.818  11.171   4.405 -1.0514  1.2720  1.7207
  515MOL0     H69514   6.744  11.106   4.534 -1.0677  2.0998 -1.3409
  515MOL0     H69515   6.566  11.148   4.376  0.6388  0.5261  1.5072
  515MOL0     H69516   6.577  10.980   4.388  1.1494 -0.8670 -0.1703
  515MOL0     H69517   6.735  10.969   4.176 -0.2709  0.1684 -2.0169
  515MOL0     H69518   6.690  11.138   4.153  0.5920 -1.3972  0.1554
  515MOL0     H69519   6.509  10.897   4.122  0.7619 -0.7015 -1.8094
  515MOL0     H69520   6.442  11.061   4.186  1.5732  1.7638  0.8465
  515MOL0     H69521   6.480  11.115   3.773  0.4912  1.0361 -0.0814
  515MOL0     H69522   7.000  10.744   4.421 -1.1663 -0.2679 -1.7190
  515MOL0     H69523   7.315  10.694   4.398  1.8009  2.2865 -1.5830
  515MOL0     H69524   7.163  10.606   4.368  2.4135 -0.5779  1.0894
  515MOL0     H69525   7.266  10.647   4.231 -1.2500 -0.7150 -0.6260
  516MOL0     O69526  10.179   8.615   2.293 -0.5258 -0.3550  0.9877
  516MOL0     C69527  10.091   8.706   2.302 -0.6740  0.4889 -0.3923
  516MOL0     O69528   9.963   8.689   2.266 -0.1986 -0.4064  0.6103
  516MOL0     C69529   9.912   8.569   2.244  0.7348  0.8040 -1.4926
  516MOL0     C69530   9.919   8.508   2.116 -0.3723 -0.8886 -0.5532
  516MOL0     C69531   9.849   8.384   2.099  0.0347  1.0489  0.2674
  516MOL0     C69532   9.792   8.308   2.208  0.0147  0.3558  0.1442
  516MOL0     O69533   9.761   8.176   2.200 -0.5392 -0.0516 -0.0807
  516MOL0     C69534   9.695   8.125   2.084 -0.6400 -0.1659 -0.2861
  516MOL0     C69535   9.621   8.009   2.145 -0.2513  0.0596 -0.0229
  516MOL0     C69536   9.496   8.062   2.226 -0.1906  0.0557 -0.3677
  516MOL0     C69537   9.519   8.066   2.371  0.8324 -0.2550 -0.5698
  516MOL0     C69538   9.420   8.171   2.444 -0.4887  0.3426 -1.3643
  516MOL0     C69539   9.424   8.154   2.598  0.0272 -0.0560 -0.5574
  516MOL0     C69540   9.565   8.186   2.656  0.6370 -0.3610 -0.3699
  516MOL0     C69541   9.538   8.220   2.808  0.0440  0.0602  0.3189
  516MOL0     N69542   9.668   8.220   2.872  0.0934 -0.2080  0.1178
  516MOL0     C69543   9.756   8.114   2.893  0.6573  0.8324  0.8132
  516MOL0     C69544   9.846   8.158   2.989 -0.3065  0.4765 -0.5580
  516MOL0     C69545   9.955   8.086   3.071 -0.9436  0.2874  0.6794
  516MOL0     C69546  10.061   8.001   3.003  0.0633  0.2130 -0.5097
  516MOL0     C69547  10.167   7.916   3.080  0.2656 -0.5274 -0.8682
  516MOL0     C69548  10.241   8.006   3.174 -0.3692 -0.2236 -0.2155
  516MOL0     O69549  10.336   7.944   3.248 -0.3844 -0.5777 -0.2195
  516MOL0     C69550  10.467   7.952   3.207  0.5619 -0.7608 -0.5861
  516MOL0     C69551  10.548   8.051   3.262 -0.6689  0.4767 -1.1865
  516MOL0     C69552  10.685   8.051   3.218  0.1009  0.5460  0.1837
  516MOL0     C69553  10.729   7.958   3.123  0.6131  0.3827  0.7544
  516MOL0     C69554  10.862   7.978   3.078 -0.2787 -0.3677  0.4220
  516MOL0     O69555  10.950   8.060   3.157  0.6219  0.0457  0.5323
  516MOL0     C69556  11.089   8.080   3.124  0.6682 -0.2483  0.3285
  516MOL0     C69557  11.117   8.113   2.989  0.2858  0.6582 -0.5482
  516MOL0     C69558  11.244   8.141   2.961 -0.2472 -0.6448  1.4469
  516MOL0     C69559  11.348   8.143   3.048 -0.6533  0.1173 -0.5715
  516MOL0     O69560  11.479   8.164   3.014 -0.4271  0.0845 -0.9401
  516MOL0     C69561  11.504   8.289   2.961 -0.8326  0.3359  0.5630
  516MOL0     C69562  11.516   8.405   3.054  0.3317 -0.3738 -0.9794
  516MOL0     C69563  11.629   8.387   3.155  0.3166 -0.4776 -0.4694
  516MOL0     C69564  11.771   8.421   3.102  0.9744 -0.3691 -0.1406
  516MOL0     C69565  11.887   8.399   3.194  0.4009  0.2005 -0.0313
  516MOL0     C69566  12.012   8.488   3.163  0.2615 -0.4952  0.0503
  516MOL0     C69567  12.135   8.452   3.257  0.1194 -0.2767 -0.5014
  516MOL0     C69568  12.181   8.304   3.249 -0.1911 -0.5638 -0.5206
  516MOL0    Cl69569  12.302   8.283   3.367  0.1083 -0.3615 -0.0896
  516MOL0     C69570  11.318   8.097   3.180 -0.2851 -0.1902  0.2948
  516MOL0     C69571  11.188   8.071   3.220 -0.0267 -0.0199 -0.2781
  516MOL0     O69572  10.899   7.910   2.979  0.1492 -1.0485  0.0143
  516MOL0     C69573  10.641   7.857   3.074 -0.6317 -0.2892  0.5139
  516MOL0     C69574  10.512   7.861   3.121  0.2885  0.3316 -0.9309
  516MOL0     N69575   9.810   8.285   3.021  0.0520  0.3549  0.1619
  516MOL0     N69576   9.717   8.326   2.945  0.1213  0.2029 -0.4859
  516MOL0     C69577   9.788   8.374   2.329  0.1849 -0.6598  0.0953
  516MOL0     C69578   9.840   8.504   2.349 -0.2778 -0.0435  0.1082
  516MOL0     C69579  10.144   8.833   2.356  0.0926  0.6450 -0.4418
  516MOL0     C69580  10.240   8.835   2.460  0.4072  0.1518  0.3747
  516MOL0     C69581  10.298   8.955   2.492 -1.9392  0.9235  0.4549
  516MOL0     C69582  10.266   9.072   2.423 -1.0062 -0.1225 -0.2099
  516MOL0     O69583  10.331   9.187   2.426  0.0282 -0.3133 -0.1446
  516MOL0     C69584  10.416   9.222   2.539  0.3878 -0.4384 -0.5004
  516MOL0     C69585  10.474   9.359   2.520 -0.5897  0.6740  0.0312
  516MOL0     C69586  10.568   9.333   2.398  0.2397 -0.4401  0.2628
  516MOL0     C69587  10.636   9.469   2.366 -0.2875  0.2581 -0.0766
  516MOL0     C69588  10.774   9.482   2.425  0.1330  0.5801  0.0394
  516MOL0     C69589  10.882   9.492   2.483 -0.0869 -0.2604 -0.2943
  516MOL0     C69590  10.166   9.069   2.331 -0.3795 -0.1868 -0.1096
  516MOL0     C69591  10.100   8.951   2.288 -1.0647  0.4278  0.1469
  516MOL0     C69592   9.991   8.955   2.183  0.2254 -0.7398  0.3216
  516MOL0     H69593   9.959   8.562   2.031  0.6085 -3.2690 -1.6974
  516MOL0     H69594   9.846   8.349   1.996 -1.3281 -0.2432  0.7188
  516MOL0     H69595   9.625   8.198   2.042 -2.2270 -1.7717 -0.5210
  516MOL0     H69596   9.763   8.103   2.001 -1.1684  0.8301 -1.0167
  516MOL0     H69597   9.695   7.955   2.205 -1.9469  0.3851  2.5446
  516MOL0     H69598   9.581   7.936   2.074 -2.8031 -2.9218  4.0001
  516MOL0     H69599   9.409   7.999   2.203  0.6493 -2.1988  2.1286
  516MOL0     H69600   9.472   8.168   2.209 -3.8158 -0.6115 -0.3012
  516MOL0     H69601   9.503   7.968   2.416  3.7204 -1.1275 -1.1998
  516MOL0     H69602   9.622   8.096   2.396  0.6497 -0.4543  0.4721
  516MOL0     H69603   9.444   8.276   2.423 -2.2479  1.4627  1.5894
  516MOL0     H69604   9.318   8.149   2.410 -0.9000 -1.3430  0.7498
  516MOL0     H69605   9.348   8.215   2.649  0.6430 -0.6403  1.1050
  516MOL0     H69606   9.394   8.051   2.618  0.0455  0.1901  0.7982
  516MOL0     H69607   9.602   8.277   2.608 -2.0358 -0.1204 -2.2063
  516MOL0     H69608   9.633   8.100   2.651 -0.2476 -1.0954 -0.1122
  516MOL0     H69609   9.502   8.321   2.833  1.7918  1.1823 -1.3966
  516MOL0     H69610   9.481   8.150   2.869 -1.5061  0.5412 -0.5139
  516MOL0     H69611   9.749   8.022   2.836  0.0000  0.4336  1.5089
  516MOL0     H69612  10.001   8.176   3.113 -5.8376  3.0398  0.7960
  516MOL0     H69613   9.903   8.022   3.144 -1.3868 -2.6690 -2.0186
  516MOL0     H69614  10.007   7.942   2.929 -1.3394  0.6857  0.1048
  516MOL0     H69615  10.122   8.066   2.939  0.0576  0.9880  0.2442
  516MOL0     H69616  10.226   7.861   3.007 -0.3719 -2.0044 -0.3067
  516MOL0     H69617  10.109   7.849   3.143 -1.1560  1.3855 -0.0392
  516MOL0     H69618  10.164   8.050   3.238 -0.7478  1.0465 -1.4750
  516MOL0     H69619  10.292   8.091   3.126 -0.1465  0.7816  1.7090
  516MOL0     H69620  10.515   8.105   3.350  0.7669  1.3270 -1.1351
  516MOL0     H69621  10.754   8.128   3.251  2.0425  0.0056 -2.2823
  516MOL0     H69622  11.039   8.103   2.915  1.9799 -2.2021 -2.1354
  516MOL0     H69623  11.265   8.158   2.856  0.3728 -3.1957  1.1020
  516MOL0     H69624  11.600   8.270   2.911  0.1721 -3.1350  3.4252
  516MOL0     H69625  11.430   8.306   2.883 -1.3619 -0.6403  0.8402
  516MOL0     H69626  11.531   8.496   2.996  1.2268  1.5744  2.1167
  516MOL0     H69627  11.422   8.420   3.108  0.7072  1.5065 -0.7859
  516MOL0     H69628  11.612   8.458   3.236  1.9413 -0.2197 -0.3236
  516MOL0     H69629  11.632   8.286   3.198  1.6844 -0.6078 -0.8257
  516MOL0     H69630  11.765   8.529   3.083 -0.3623 -0.5269 -0.6871
  516MOL0     H69631  11.777   8.363   3.010  0.2944 -1.4493  0.4730
  516MOL0     H69632  11.915   8.294   3.186  1.2716  0.5471 -2.6090
  516MOL0     H69633  11.849   8.415   3.295 -1.3111  0.5507 -0.7011
  516MOL0     H69634  12.038   8.461   3.061 -0.7655 -2.4303  0.2565
  516MOL0     H69635  11.986   8.594   3.173  0.2666 -0.3547 -1.2701
  516MOL0     H69636  12.116   8.477   3.361  0.7417 -3.8219  0.5977
  516MOL0     H69637  12.218   8.513   3.218 -0.8984 -0.3440 -2.9756
  516MOL0     H69638  12.090   8.247   3.272 -1.9658  2.0472 -0.6994
  516MOL0     H69639  12.225   8.264   3.157  2.1545  0.5279  0.0286
  516MOL0     H69640  11.394   8.085   3.256 -0.3140 -1.2913  0.1770
  516MOL0     H69641  11.169   8.050   3.325  0.2944 -1.7520 -0.5404
  516MOL0     H69642  10.686   7.788   3.004 -0.6499 -0.1169  0.3332
  516MOL0     H69643  10.444   7.788   3.080 -0.9291 -0.6190  2.4888
  516MOL0     H69644   9.744   8.335   2.420 -1.0623  0.7229  0.1167
  516MOL0     H69645   9.849   8.539   2.452 -2.1448 -0.2394  0.3710
  516MOL0     H69646  10.290   8.748   2.502  2.7950 -0.0160 -2.4922
  516MOL0     H69647  10.372   8.955   2.572 -0.9568 -1.1722 -0.3963
  516MOL0     H69648  10.493   9.147   2.555  0.1096 -0.9503 -1.4722
  516MOL0     H69649  10.349   9.225   2.626 -0.4374 -0.5674 -1.1172
  516MOL0     H69650  10.522   9.387   2.615 -3.3380  1.3685  1.3149
  516MOL0     H69651  10.402   9.435   2.489 -1.4177  0.0695  0.4208
  516MOL0     H69652  10.503   9.323   2.311  2.0533  6.5015 -2.5323
  516MOL0     H69653  10.643   9.256   2.422  0.9777 -0.4322 -1.8334
  516MOL0     H69654  10.634   9.486   2.257 -2.6950  0.2762 -0.0833
  516MOL0     H69655  10.572   9.549   2.404  1.3509  0.6353  1.9997
  516MOL0     H69656  10.977   9.486   2.531 -0.0391 -1.3722 -0.5011
  516MOL0     H69657  10.152   9.159   2.272 -2.5398 -0.6653 -0.3929
  516MOL0     H69658  10.018   8.887   2.102 -0.0383  0.0329 -0.4333
  516MOL0     H69659   9.892   8.927   2.223  0.0044 -1.9796 -1.0055
  516MOL0     H69660   9.991   9.055   2.140  2.0619 -0.1495  1.5584
  517MOL0     O69661   1.839   6.379   7.578 -0.2561  0.3702  0.4090
  517MOL0     C69662   1.760   6.352   7.668  0.1884  0.1054 -0.5713
  517MOL0     O69663   1.746   6.229   7.733 -0.0929  0.5040 -0.1219
  517MOL0     C69664   1.859   6.156   7.760 -0.1086 -0.4384 -0.1539
  517MOL0     C69665   1.986   6.211   7.766  0.9331 -0.9729  0.2670
  517MOL0     C69666   2.093   6.134   7.794  0.3107  0.2312  0.8111
  517MOL0     C69667   2.078   5.998   7.841 -0.1843  0.1979 -0.3751
  517MOL0     O69668   2.181   5.917   7.887 -0.3352 -0.0465 -0.3425
  517MOL0     C69669   2.257   5.968   7.986 -0.6946 -0.5706 -1.0306
  517MOL0     C69670   2.376   5.871   8.001  0.5376 -0.3428 -0.1431
  517MOL0     C69671   2.453   5.887   8.140  0.5998  0.4071  0.4733
  517MOL0     C69672   2.555   5.774   8.148  0.8363 -0.2451  0.4362
  517MOL0     C69673   2.629   5.769   8.274  0.2836 -0.3247 -0.6062
  517MOL0     C69674   2.720   5.646   8.284  0.3201  0.2082  0.7273
  517MOL0     C69675   2.764   5.606   8.428  0.5202 -0.4387  0.5291
  517MOL0     C69676   2.853   5.724   8.487 -0.4834  0.3453 -0.2940
  517MOL0     N69677   2.898   5.676   8.621 -1.0142 -0.8192 -0.7880
  517MOL0     C69678   2.829   5.615   8.721  0.2287  0.2069  1.1299
  517MOL0     C69679   2.903   5.636   8.827  0.3704 -0.0820 -0.0619
  517MOL0     C69680   2.873   5.578   8.962  0.2608 -0.1553  0.0173
  517MOL0     C69681   2.915   5.431   8.969  0.0953 -0.2046  0.4237
  517MOL0     C69682   3.065   5.411   8.970  0.4256  1.0205  0.3299
  517MOL0     C69683   3.141   5.477   9.086  0.0057 -0.3325 -0.3998
  517MOL0     O69684   3.075   5.457   9.214 -0.2976  0.1297 -0.0367
  517MOL0     C69685   3.050   5.334   9.266  0.6111 -0.1656  0.3058
  517MOL0     C69686   3.107   5.216   9.216  0.2374 -0.5128 -0.4891
  517MOL0     C69687   3.071   5.104   9.292  0.1886  0.1205  0.2408
  517MOL0     C69688   2.986   5.103   9.409  0.5022 -0.8558  0.1464
  517MOL0     C69689   2.952   4.984   9.482 -0.5303 -0.0174 -0.2475
  517MOL0     O69690   2.864   4.980   9.589  0.1458  0.2702 -0.3270
  517MOL0     C69691   2.841   4.863   9.653  0.3759 -0.5236 -1.0824
  517MOL0     C69692   2.736   4.779   9.623  0.1512 -0.2037  0.7858
  517MOL0     C69693   2.722   4.649   9.674  0.7200 -0.5231  0.2769
  517MOL0     C69694   2.820   4.604   9.768  0.6896  0.6032 -0.0005
  517MOL0     O69695   2.802   4.487   9.834 -0.4492  0.0178 -0.0329
  517MOL0     C69696   2.912   4.401   9.856 -0.6258  0.2061  0.1664
  517MOL0     C69697   2.864   4.258   9.868 -0.1860 -0.7997 -0.5674
  517MOL0     C69698   2.782   4.211   9.747 -0.8208 -0.1464 -0.1117
  517MOL0     C69699   2.758   4.061   9.773 -1.3481 -0.4910  0.8984
  517MOL0     C69700   2.638   4.012   9.680 -0.1615  0.5035  0.3113
  517MOL0     C69701   2.613   3.864   9.678 -0.2484  0.2479 -0.2101
  517MOL0     C69702   2.628   3.801   9.817 -0.1443  0.1270  0.2073
  517MOL0     C69703   2.553   3.670   9.850  0.1321  0.1286  0.1483
  517MOL0    Cl69704   2.638   3.522   9.800 -0.0377 -0.1895  0.0069
  517MOL0     C69705   2.929   4.688   9.799  0.2820  0.3556  0.1206
  517MOL0     C69706   2.940   4.811   9.731 -0.0162  0.3225 -0.3282
  517MOL0     O69707   3.005   4.890   9.434  0.4909 -0.2815  0.5293
  517MOL0     C69708   2.928   5.231   9.444  0.3198  0.2653  0.4376
  517MOL0     C69709   2.955   5.337   9.365  1.2529 -0.2421  0.6601
  517MOL0     N69710   3.020   5.698   8.802 -0.0331  0.2085  0.3487
  517MOL0     N69711   3.013   5.726   8.678 -0.0259 -0.2581  0.8887
  517MOL0     C69712   1.956   5.942   7.851 -0.8597  0.2220  0.4178
  517MOL0     C69713   1.844   6.022   7.810  0.2316  0.2248  0.0023
  517MOL0     C69714   1.654   6.459   7.688 -0.5942  0.1164 -0.3253
  517MOL0     C69715   1.530   6.404   7.728  0.5633  0.0334 -0.9710
  517MOL0     C69716   1.413   6.476   7.724 -0.7127 -0.2125  0.7725
  517MOL0     C69717   1.415   6.608   7.683 -0.2867 -0.6196  0.0994
  517MOL0     O69718   1.307   6.695   7.692 -0.1953 -0.4185 -0.1299
  517MOL0     C69719   1.172   6.647   7.705 -0.8834 -0.8395 -0.7898
  517MOL0     C69720   1.090   6.763   7.688  0.2749  0.5954 -1.1372
  517MOL0     C69721   0.949   6.753   7.746  0.6123 -0.5528 -0.3835
  517MOL0     C69722   0.941   6.743   7.900 -0.7226  0.6561 -0.3560
  517MOL0     C69723   0.806   6.722   7.949  0.4827 -0.7000 -0.2797
  517MOL0     C69724   0.696   6.702   7.989  0.3366  0.3425 -0.2839
  517MOL0     C69725   1.541   6.664   7.646 -0.4882 -0.0456  0.4803
  517MOL0     C69726   1.658   6.591   7.642  0.1062 -0.7816  0.3728
  517MOL0     C69727   1.766   6.659   7.562  0.2188 -0.2304 -0.0243
  517MOL0     H69728   1.996   6.318   7.753 -0.9851 -0.9507 -1.5667
  517MOL0     H69729   2.188   6.185   7.807 -0.2622  0.7952  3.2728
  517MOL0     H69730   2.289   6.072   7.973 -3.1019  0.0371 -2.7212
  517MOL0     H69731   2.189   5.975   8.070  1.3422  0.6862  0.6231
  517MOL0     H69732   2.454   5.897   7.929  3.6053 -0.0711  2.9679
  517MOL0     H69733   2.339   5.769   7.990 -2.1520  0.5390  0.0489
  517MOL0     H69734   2.383   5.870   8.222 -0.2018 -2.1626 -0.6401
  517MOL0     H69735   2.490   5.990   8.140 -2.4983  1.6736 -1.2314
  517MOL0     H69736   2.508   5.676   8.133 -3.5315  0.9420  4.1669
  517MOL0     H69737   2.622   5.790   8.063 -1.5039 -0.9168 -1.7004
  517MOL0     H69738   2.689   5.860   8.283  2.8049 -2.0010  0.9676
  517MOL0     H69739   2.553   5.751   8.350  1.2811  2.7335  1.3406
  517MOL0     H69740   2.662   5.561   8.246 -1.9622 -0.3260  4.8862
  517MOL0     H69741   2.815   5.657   8.232  1.8295 -2.2543  2.7566
  517MOL0     H69742   2.825   5.515   8.422 -1.6098 -1.8660 -0.6265
  517MOL0     H69743   2.678   5.576   8.489  1.2877 -1.6919  1.0384
  517MOL0     H69744   2.936   5.752   8.421  0.6918  0.0561  1.0340
  517MOL0     H69745   2.785   5.807   8.506 -1.7876 -0.8520  0.5146
  517MOL0     H69746   2.742   5.551   8.711  1.2397 -0.9954 -0.4790
  517MOL0     H69747   2.919   5.642   9.038 -2.0147  3.0236 -1.0741
  517MOL0     H69748   2.766   5.568   8.981  0.0823  1.4061 -0.0589
  517MOL0     H69749   2.879   5.378   9.058  3.0806  1.3916  2.8035
  517MOL0     H69750   2.859   5.384   8.888 -0.6192 -1.1380  1.4223
  517MOL0     H69751   3.105   5.444   8.874 -0.1581  1.9081  0.3758
  517MOL0     H69752   3.086   5.304   8.966  1.1369  1.1053  1.2352
  517MOL0     H69753   3.160   5.583   9.069  1.2087 -0.5678 -0.5992
  517MOL0     H69754   3.236   5.425   9.098  0.4831  0.9951  2.1727
  517MOL0     H69755   3.171   5.219   9.128  1.5719  3.4614  0.3707
  517MOL0     H69756   3.114   5.010   9.259  1.0714  1.4958 -3.0267
  517MOL0     H69757   2.674   4.804   9.537  0.9672  0.2967  0.3325
  517MOL0     H69758   2.633   4.597   9.640  0.7315 -0.5100  0.2271
  517MOL0     H69759   2.985   4.409   9.775 -1.2535  2.2235 -0.2509
  517MOL0     H69760   2.962   4.423   9.951 -0.4378 -0.9000  0.3394
  517MOL0     H69761   2.956   4.199   9.866 -0.5382 -1.9410  3.9871
  517MOL0     H69762   2.818   4.239   9.966 -1.1505  2.9629 -0.1472
  517MOL0     H69763   2.691   4.273   9.749  1.1938  3.0615 -0.0979
  517MOL0     H69764   2.840   4.233   9.657  1.9682  0.5127  1.7165
  517MOL0     H69765   2.734   4.048   9.878 -0.5344 -1.1026  1.0200
  517MOL0     H69766   2.854   4.008   9.767  0.8084  2.8912  2.9811
  517MOL0     H69767   2.652   4.048   9.577 -0.6977 -0.8838 -0.2655
  517MOL0     H69768   2.551   4.058   9.728 -1.0550 -1.9779  1.1845
  517MOL0     H69769   2.513   3.849   9.638  0.3628 -0.2188 -1.6246
  517MOL0     H69770   2.696   3.827   9.617  1.9915  3.9876  0.2239
  517MOL0     H69771   2.588   3.869   9.893  0.0734 -0.6911  1.0640
  517MOL0     H69772   2.730   3.787   9.855 -0.9171  0.7471  2.7040
  517MOL0     H69773   2.526   3.668   9.956  0.3096  0.0875  0.1955
  517MOL0     H69774   2.457   3.660   9.800  0.6785 -5.3915 -0.4698
  517MOL0     H69775   2.997   4.645   9.872  0.5007 -0.8484 -0.7616
  517MOL0     H69776   3.033   4.864   9.749 -1.4063  1.9624  2.8096
  517MOL0     H69777   2.852   5.243   9.520  0.9525 -1.6252  1.4469
  517MOL0     H69778   2.904   5.433   9.376  1.5121  0.2259 -1.7487
  517MOL0     H69779   1.934   5.850   7.905  0.1811  0.4741  1.3009
  517MOL0     H69780   1.749   5.973   7.826  0.5981 -0.4670  0.1220
  517MOL0     H69781   1.516   6.303   7.766  1.6747  1.3408  3.5009
  517MOL0     H69782   1.322   6.425   7.753 -1.0079 -2.4752 -3.4545
  517MOL0     H69783   1.159   6.600   7.803  0.3693  0.9458  0.2988
  517MOL0     H69784   1.150   6.575   7.625 -0.3447 -0.6887 -1.0809
  517MOL0     H69785   1.089   6.818   7.593 -1.8916  0.9224 -0.9783
  517MOL0     H69786   1.128   6.837   7.759 -0.5470  0.3003 -0.3619
  517MOL0     H69787   0.902   6.665   7.701  1.0030 -1.2960  0.6204
  517MOL0     H69788   0.888   6.838   7.717 -0.6943 -0.8038  1.4220
  517MOL0     H69789   1.000   6.656   7.929 -2.2934  0.0831  1.3279
  517MOL0     H69790   0.980   6.831   7.952  2.3094 -0.5844 -0.3087
  517MOL0     H69791   0.600   6.666   8.021  1.1597  0.5558  2.7269
  517MOL0     H69792   1.535   6.764   7.604 -1.5259 -0.3429 -0.1198
  517MOL0     H69793   1.828   6.710   7.637  1.6199 -0.2720 -1.1032
  517MOL0     H69794   1.825   6.590   7.500 -1.5076 -1.2529 -0.6008
  517MOL0     H69795   1.723   6.734   7.496 -0.0687 -1.1944 -0.9662
  518MOL0     O69796   5.169   5.332  10.170  0.6376  0.1123 -0.8491
  518MOL0     C69797   5.110   5.436  10.137  0.1277 -0.1486 -0.7219
  518MOL0     O69798   5.154   5.527  10.046  0.2717  0.0512 -0.1381
  518MOL0     C69799   5.291   5.535  10.011 -0.0098  0.1834 -1.0561
  518MOL0     C69800   5.396   5.521  10.109  0.0811 -0.0597  0.1739
  518MOL0     C69801   5.536   5.541  10.071  0.8933  0.5609 -0.7455
  518MOL0     C69802   5.570   5.567   9.935 -0.0590  1.2319 -0.6983
  518MOL0     O69803   5.702   5.577   9.906 -0.2651  0.0769  0.1866
  518MOL0     C69804   5.745   5.697   9.833  0.1525  0.4827 -0.9844
  518MOL0     C69805   5.901   5.691   9.808  0.2979 -0.1867  0.2389
  518MOL0     C69806   5.988   5.674   9.932  0.0530  0.5692  0.0184
  518MOL0     C69807   5.994   5.808  10.017 -0.5864  0.3842 -0.4423
  518MOL0     C69808   6.113   5.815  10.114 -0.2726  0.3995 -0.1336
  518MOL0     C69809   6.104   5.715  10.230 -0.1770 -0.2135 -0.1451
  518MOL0     C69810   6.236   5.711  10.310 -0.4657  0.5366  0.1989
  518MOL0     C69811   6.269   5.592  10.400  0.1803  0.0386  0.2872
  518MOL0     N69812   6.149   5.532  10.465 -0.2357 -0.3236 -0.7334
  518MOL0     C69813   6.062   5.601  10.545  0.3950 -0.2645  0.4825
  518MOL0     C69814   5.978   5.507  10.586 -0.6815  0.1170 -0.4722
  518MOL0     C69815   5.882   5.536  10.707  1.0853 -0.2141  1.0619
  518MOL0     C69816   5.738   5.501  10.666 -1.1493  0.1072 -0.3611
  518MOL0     C69817   5.692   5.600  10.556  0.4204 -0.6847 -0.2129
  518MOL0     C69818   5.545   5.589  10.530  0.5019  0.6419  0.2961
  518MOL0     O69819   5.522   5.450  10.496  0.6018 -0.3709 -0.1725
  518MOL0     C69820   5.399   5.394  10.517 -0.2810  0.7264 -0.1835
  518MOL0     C69821   5.283   5.474  10.519  0.1755  0.6146  1.1077
  518MOL0     C69822   5.161   5.412  10.540  0.1418  0.5786  1.3133
  518MOL0     C69823   5.160   5.278  10.589 -1.4758  0.1275 -0.1496
  518MOL0     C69824   5.034   5.223  10.633  0.9006 -0.7891  0.4412
  518MOL0     O69825   5.040   5.097  10.676 -0.2210 -0.0703 -1.2679
  518MOL0     C69826   4.924   5.031  10.722 -0.1226 -0.5512 -0.2826
  518MOL0     C69827   4.811   5.025  10.646 -0.1709 -0.1037 -0.4053
  518MOL0     C69828   4.694   4.950  10.687 -0.3274 -0.0564  0.4311
  518MOL0     C69829   4.700   4.881  10.805 -0.0220 -0.2256  0.0961
  518MOL0     O69830   4.582   4.828  10.846  0.7963  0.4535  0.5353
  518MOL0     C69831   4.576   4.752  10.966  0.0365  0.3517  1.3765
  518MOL0     C69832   4.439   4.673  10.986  0.2298 -0.6925 -0.4655
  518MOL0     C69833   4.423   4.643  11.136 -0.0578  0.2999  0.0161
  518MOL0     C69834   4.317   4.537  11.159  0.2056  0.0226  0.0869
  518MOL0     C69835   4.308   4.523  11.308  0.0819  0.1954  0.1896
  518MOL0     C69836   4.241   4.393  11.347 -0.5833 -0.3970  0.8448
  518MOL0     C69837   4.202   4.390  11.495  0.5394 -0.5205 -1.2070
  518MOL0     C69838   4.080   4.294  11.529 -0.0734  0.0527 -0.5477
  518MOL0    Cl69839   3.943   4.365  11.442  0.0125  0.3352 -0.0586
  518MOL0     C69840   4.817   4.879  10.876 -0.3697  0.0435 -0.4240
  518MOL0     C69841   4.932   4.959  10.840 -0.7116  0.0409  0.6841
  518MOL0     O69842   4.934   5.301  10.638  0.9149 -0.6728 -0.0049
  518MOL0     C69843   5.282   5.200  10.588 -0.5795 -0.5307 -0.4859
  518MOL0     C69844   5.400   5.259  10.544  0.0724 -0.0818  0.2425
  518MOL0     N69845   6.023   5.388  10.543 -0.4460  1.0568  1.0037
  518MOL0     N69846   6.119   5.403  10.458 -0.0054 -0.7813 -0.6096
  518MOL0     C69847   5.456   5.597   9.843 -0.6038 -0.2787 -0.3874
  518MOL0     C69848   5.323   5.570   9.883  0.9140 -0.5863  0.1121
  518MOL0     C69849   4.967   5.451  10.182  0.8892 -0.3413  0.1827
  518MOL0     C69850   4.897   5.565  10.147  0.5371  0.2258  0.3666
  518MOL0     C69851   4.761   5.595  10.186  0.0518  0.0598  0.7015
  518MOL0     C69852   4.679   5.501  10.254 -0.6269 -0.9575 -0.4931
  518MOL0     O69853   4.553   5.541  10.290  0.3339 -0.2387  0.1031
  518MOL0     C69854   4.457   5.446  10.337 -0.2084  0.3423 -0.3594
  518MOL0     C69855   4.426   5.337  10.231  0.2161  0.4794 -0.5027
  518MOL0     C69856   4.315   5.238  10.276  0.0031  0.3911  0.0248
  518MOL0     C69857   4.180   5.312  10.305 -0.3601 -0.1588 -0.1762
  518MOL0     C69858   4.068   5.226  10.341  0.9903  0.1418  0.0824
  518MOL0     C69859   3.989   5.146  10.388  0.1581  0.0755  0.0375
  518MOL0     C69860   4.749   5.384  10.299 -0.8099  1.2604 -0.5271
  518MOL0     C69861   4.889   5.360  10.261 -0.5236  0.2955  0.4346
  518MOL0     C69862   4.931   5.229  10.319 -0.5142 -0.4193 -0.5994
  518MOL0     H69863   5.363   5.498  10.209 -1.4890  2.4126  0.3244
  518MOL0     H69864   5.609   5.542  10.151  1.2633  3.1022 -1.0451
  518MOL0     H69865   5.689   5.713   9.740 -0.8464 -0.8170 -0.6386
  518MOL0     H69866   5.733   5.778   9.905  5.4777 -0.3695  1.3606
  518MOL0     H69867   5.936   5.783   9.761 -4.7052  0.7453 -2.3713
  518MOL0     H69868   5.917   5.608   9.738  1.6402 -0.5749  0.9695
  518MOL0     H69869   6.089   5.654   9.893  0.9333  2.8321  0.9597
  518MOL0     H69870   5.936   5.593   9.983 -3.9409  3.2268  0.5781
  518MOL0     H69871   6.008   5.886   9.941 -0.7404  0.5124 -0.3417
  518MOL0     H69872   5.899   5.840  10.061 -1.0315  1.3076 -1.9930
  518MOL0     H69873   6.207   5.804  10.059 -0.6277  1.1552 -0.9140
  518MOL0     H69874   6.118   5.915  10.159  3.0151  1.3076 -2.1622
  518MOL0     H69875   6.021   5.745  10.295 -0.4190  2.1466 -1.4110
  518MOL0     H69876   6.081   5.616  10.191 -1.3441 -0.3963  0.9307
  518MOL0     H69877   6.260   5.795  10.376 -0.5543  0.9413 -0.2766
  518MOL0     H69878   6.316   5.717  10.235 -0.8922 -0.5857 -0.3701
  518MOL0     H69879   6.322   5.519  10.338  0.5619  1.5770 -1.2567
  518MOL0     H69880   6.329   5.625  10.485 -0.6599  0.3141  0.7850
  518MOL0     H69881   6.044   5.705  10.570 -2.7895 -0.0521 -2.0830
  518MOL0     H69882   5.913   5.473  10.791  0.3774  0.7231  2.0501
  518MOL0     H69883   5.895   5.640  10.740 -2.2868  0.5401  0.3837
  518MOL0     H69884   5.735   5.395  10.638 -0.5536 -0.5106  1.7164
  518MOL0     H69885   5.673   5.515  10.753 -2.4895 -1.2293 -1.0989
  518MOL0     H69886   5.753   5.581  10.467  1.8171 -0.2930  0.6238
  518MOL0     H69887   5.701   5.700  10.600 -3.4473 -0.4144  0.2890
  518MOL0     H69888   5.530   5.654  10.443  1.8801  0.5686 -0.0227
  518MOL0     H69889   5.488   5.621  10.618 -1.8676 -1.0867 -0.4844
  518MOL0     H69890   5.292   5.579  10.493 -0.0189  0.0895 -1.3859
  518MOL0     H69891   5.074   5.476  10.529  0.5588  1.1923  1.4728
  518MOL0     H69892   4.814   5.081  10.554 -0.9346  0.6406  0.0033
  518MOL0     H69893   4.608   4.943  10.622  0.6273 -0.9941 -0.7597
  518MOL0     H69894   4.660   4.683  10.968 -1.6524 -1.8867  0.2647
  518MOL0     H69895   4.602   4.819  11.049  0.6255  0.5327  1.0535
  518MOL0     H69896   4.369   4.753  10.962 -0.6199 -0.9769  0.9656
  518MOL0     H69897   4.421   4.596  10.909 -0.6795 -0.8302 -0.1260
  518MOL0     H69898   4.516   4.595  11.167 -1.6132 -1.9261  1.5368
  518MOL0     H69899   4.398   4.736  11.188  2.0235 -0.4543  2.5684
  518MOL0     H69900   4.356   4.444  11.115 -1.4551  0.4390 -2.4345
  518MOL0     H69901   4.219   4.557  11.115 -0.2551  0.6365  1.3564
  518MOL0     H69902   4.245   4.606  11.342 -2.8768 -1.4283 -0.8767
  518MOL0     H69903   4.404   4.531  11.358 -1.2141  1.0092  2.7164
  518MOL0     H69904   4.152   4.381  11.283  0.7306 -0.3601 -1.0773
  518MOL0     H69905   4.314   4.315  11.323  1.8504  2.0500 -0.2717
  518MOL0     H69906   4.198   4.494  11.528 -1.3432 -1.2151  1.0464
  518MOL0     H69907   4.288   4.341  11.543  0.3407  1.3021  1.1980
  518MOL0     H69908   4.110   4.196  11.490  2.3872  0.7227 -0.5186
  518MOL0     H69909   4.060   4.289  11.637  1.1226  2.7668 -0.1192
  518MOL0     H69910   4.825   4.826  10.971 -2.1319 -1.5702 -1.1001
  518MOL0     H69911   5.029   4.967  10.888 -0.0278  1.8659 -0.8700
  518MOL0     H69912   5.294   5.098  10.624 -0.3487  0.2429  1.7699
  518MOL0     H69913   5.493   5.203  10.537 -0.6653 -1.5006  1.1962
  518MOL0     H69914   5.464   5.645   9.746  0.6135 -0.3914 -0.3575
  518MOL0     H69915   5.251   5.576   9.803 -0.0546 -2.3107  0.8030
  518MOL0     H69916   4.948   5.639  10.085 -1.0820 -1.7205 -3.6691
  518MOL0     H69917   4.716   5.684  10.143 -0.0599 -1.5536 -2.8316
  518MOL0     H69918   4.368   5.505  10.359  1.5651  3.0157  0.1825
  518MOL0     H69919   4.481   5.396  10.432 -1.9571 -0.0823 -0.1068
  518MOL0     H69920   4.519   5.286  10.204 -0.6475 -2.1023  0.9734
  518MOL0     H69921   4.395   5.383  10.137  0.7123 -2.0523 -2.0153
  518MOL0     H69922   4.357   5.180  10.359  2.8568  0.3325 -1.3480
  518MOL0     H69923   4.308   5.167  10.192  1.6515  0.6880 -0.3927
  518MOL0     H69924   4.189   5.392  10.379 -0.9774 -0.0602 -0.1996
  518MOL0     H69925   4.145   5.355  10.211 -2.2407 -2.4975 -0.6650
  518MOL0     H69926   3.916   5.090  10.443  1.0468 -0.8807  0.2803
  518MOL0     H69927   4.706   5.317  10.372  0.9883 -0.4199 -0.9380
  518MOL0     H69928   5.039   5.212  10.310 -0.7030 -0.8483 -2.3698
  518MOL0     H69929   4.894   5.216  10.421 -1.0593  0.4281 -0.6741
  518MOL0     H69930   4.890   5.152  10.254 -1.2538  0.0189 -0.6622
  519MOL0     O69931   6.196   2.488   6.149 -0.2651  0.0317  0.4337
  519MOL0     C69932   6.113   2.575   6.164  0.5442 -0.2538 -0.1846
  519MOL0     O69933   6.130   2.680   6.254 -0.9119  0.7576  0.2565
  519MOL0     C69934   6.265   2.684   6.304  0.7108  0.3387  0.1134
  519MOL0     C69935   6.273   2.663   6.438  0.3844 -0.2577 -0.5975
  519MOL0     C69936   6.399   2.674   6.501  0.0039  0.2126  0.4724
  519MOL0     C69937   6.515   2.704   6.429 -0.1039 -0.2593  0.2891
  519MOL0     O69938   6.632   2.724   6.500  0.0713  0.3276 -0.1664
  519MOL0     C69939   6.763   2.666   6.461  1.1088  0.1433  0.6191
  519MOL0     C69940   6.872   2.697   6.558  0.2771  0.3972 -0.2202
  519MOL0     C69941   7.003   2.616   6.524  0.6975  0.4224 -0.0438
  519MOL0     C69942   7.131   2.656   6.608 -0.1591 -0.3036 -0.7935
  519MOL0     C69943   7.257   2.568   6.574  0.1807 -0.1303 -0.7583
  519MOL0     C69944   7.336   2.613   6.457  0.0981 -0.6796 -0.0008
  519MOL0     C69945   7.439   2.505   6.419  0.5425  0.4702  0.0628
  519MOL0     C69946   7.521   2.435   6.529 -0.0286 -0.1274 -0.5257
  519MOL0     N69947   7.599   2.541   6.605 -0.2023  0.5419 -0.2818
  519MOL0     C69948   7.703   2.610   6.553 -0.2746 -0.4724 -0.2844
  519MOL0     C69949   7.749   2.693   6.648  0.2934  0.3165  0.8161
  519MOL0     C69950   7.857   2.796   6.659 -0.6383 -0.1643  0.2796
  519MOL0     C69951   7.987   2.751   6.596  0.5210  0.1909  0.1440
  519MOL0     C69952   8.101   2.845   6.642  0.9512  0.8283 -0.4796
  519MOL0     C69953   8.238   2.801   6.601  1.3404  0.0019  0.3575
  519MOL0     O69954   8.325   2.801   6.715  0.0057 -0.2709 -0.9022
  519MOL0     C69955   8.451   2.863   6.698 -0.2201 -0.1643 -0.3008
  519MOL0     C69956   8.538   2.845   6.582 -0.0652  0.2190  0.1948
  519MOL0     C69957   8.664   2.905   6.581  0.9580 -0.2396 -0.3864
  519MOL0     C69958   8.701   2.994   6.684 -0.8617 -0.3709  0.5048
  519MOL0     C69959   8.840   3.050   6.681 -0.9003  0.0850 -0.6612
  519MOL0     O69960   8.930   2.993   6.594 -0.3244 -0.9736 -0.3415
  519MOL0     C69961   9.059   3.014   6.622 -0.2656 -0.3403 -0.1197
  519MOL0     C69962   9.132   2.948   6.719 -0.1702  0.3695 -0.3146
  519MOL0     C69963   9.262   2.980   6.757 -0.8590 -0.0893  0.0958
  519MOL0     C69964   9.335   3.073   6.673 -0.6912 -0.6387  0.2094
  519MOL0     O69965   9.467   3.120   6.688 -0.1115 -0.0980  0.5074
  519MOL0     C69966   9.536   3.090   6.809  0.7520  0.3373 -0.5265
  519MOL0     C69967   9.677   3.113   6.779 -0.6113 -0.4824  0.7411
  519MOL0     C69968   9.720   3.039   6.652 -0.0772 -0.3557  0.1639
  519MOL0     C69969   9.876   3.045   6.632  1.0986  0.0254 -0.4002
  519MOL0     C69970   9.914   2.988   6.495 -0.1131 -0.1433  0.1034
  519MOL0     C69971   9.888   2.839   6.486  0.8662  0.2136  0.6398
  519MOL0     C69972   9.928   2.789   6.350  0.4181 -1.0267  0.0053
  519MOL0     C69973   9.921   2.635   6.354  0.7066  1.0723  0.1559
  519MOL0    Cl69974  10.075   2.585   6.421  0.4216  0.0463  0.3435
  519MOL0     C69975   9.270   3.132   6.570  0.0264  0.6657 -0.0208
  519MOL0     C69976   9.140   3.106   6.544  1.6532  0.4019  0.2864
  519MOL0     O69977   8.874   3.134   6.765 -0.4213 -0.1969  0.1832
  519MOL0     C69978   8.616   3.014   6.795  0.1044 -0.6158  0.5017
  519MOL0     C69979   8.495   2.947   6.791 -0.6030  0.1379 -1.1678
  519MOL0     N69980   7.667   2.665   6.761 -0.5538 -0.8281  0.0632
  519MOL0     N69981   7.581   2.573   6.737  0.2074 -0.1515 -0.3609
  519MOL0     C69982   6.506   2.723   6.292 -0.3419 -0.2753  0.0607
  519MOL0     C69983   6.386   2.714   6.229  0.6275  0.7496  0.2169
  519MOL0     C69984   5.982   2.552   6.097 -1.0690 -0.8845 -0.3183
  519MOL0     C69985   5.869   2.604   6.161 -0.3892 -0.3321 -1.3340
  519MOL0     C69986   5.738   2.590   6.107 -0.7089  0.5232 -0.9025
  519MOL0     C69987   5.721   2.517   5.999 -0.5083 -0.2112  1.1338
  519MOL0     O69988   5.596   2.509   5.946 -0.2751  0.3776  0.1979
  519MOL0     C69989   5.521   2.390   5.992  0.3535  0.7042 -0.6537
  519MOL0     C69990   5.563   2.257   5.930 -0.9814  0.3098 -0.2892
  519MOL0     C69991   5.522   2.244   5.784 -0.1888 -0.0392  0.3120
  519MOL0     C69992   5.574   2.115   5.712  0.5050 -0.0473  0.2957
  519MOL0     C69993   5.721   2.121   5.707 -1.0792 -0.7309  0.2627
  519MOL0     C69994   5.840   2.131   5.685  0.2327  0.2355  0.4780
  519MOL0     C69995   5.831   2.465   5.933 -0.9257  0.4273  0.4858
  519MOL0     C69996   5.965   2.483   5.979  0.2430  0.0343 -0.8830
  519MOL0     C69997   6.073   2.425   5.895  0.2990  0.4659 -0.1558
  519MOL0     H69998   6.183   2.650   6.497  0.4017  2.5450  0.1452
  519MOL0     H69999   6.401   2.664   6.609  2.3446 -1.2890  0.3609
  519MOL0     H70000   6.755   2.559   6.444 -0.3313  0.5598 -1.6559
  519MOL0     H70001   6.794   2.710   6.365  2.3603  0.4227  1.1208
  519MOL0     H70002   6.848   2.667   6.660 -2.3437 -2.1038 -1.4295
  519MOL0     H70003   6.901   2.800   6.538 -2.7216  1.2681 -0.4406
  519MOL0     H70004   7.028   2.633   6.419  1.1972  1.5499  0.2389
  519MOL0     H70005   6.987   2.508   6.533  2.5930  0.0806 -0.2597
  519MOL0     H70006   7.162   2.757   6.579 -0.6697 -0.3386 -1.4602
  519MOL0     H70007   7.105   2.653   6.714 -0.4891  1.2480 -0.8096
  519MOL0     H70008   7.318   2.570   6.665 -0.6703 -0.0021 -0.1813
  519MOL0     H70009   7.225   2.464   6.568 -1.5276  0.3878 -1.1071
  519MOL0     H70010   7.266   2.616   6.372  0.4274  1.2746 -0.2434
  519MOL0     H70011   7.378   2.709   6.487  1.4442 -0.6991 -1.6467
  519MOL0     H70012   7.504   2.549   6.343 -0.7557  2.9919  0.3122
  519MOL0     H70013   7.372   2.430   6.378  0.5224 -0.4479  1.6644
  519MOL0     H70014   7.464   2.373   6.597  1.8666 -0.0673  1.2111
  519MOL0     H70015   7.589   2.359   6.490 -1.0395 -0.5613 -1.4865
  519MOL0     H70016   7.742   2.607   6.452 -0.3821  2.1139 -0.4607
  519MOL0     H70017   7.826   2.896   6.625  1.5235  0.2419 -0.7243
  519MOL0     H70018   7.882   2.808   6.764  0.3935  0.1403  0.0174
  519MOL0     H70019   7.998   2.646   6.624 -2.9900 -0.2005  0.5117
  519MOL0     H70020   7.969   2.738   6.489  2.1102 -1.0139 -0.0129
  519MOL0     H70021   8.083   2.856   6.749 -1.6996 -0.8605 -0.6405
  519MOL0     H70022   8.081   2.944   6.600 -0.2158  0.8651  0.1123
  519MOL0     H70023   8.281   2.871   6.530  0.0321  1.8670  1.3287
  519MOL0     H70024   8.232   2.699   6.561  0.0011 -0.6126  1.9986
  519MOL0     H70025   8.508   2.782   6.500  1.7450 -0.8419  0.2918
  519MOL0     H70026   8.736   2.874   6.506 -0.8677 -0.8818 -1.9355
  519MOL0     H70027   9.083   2.876   6.783  0.4881 -1.6585 -1.9927
  519MOL0     H70028   9.326   2.932   6.830  0.4652  0.8433 -0.3979
  519MOL0     H70029   9.489   3.145   6.892 -1.5258  0.9664 -2.1202
  519MOL0     H70030   9.530   2.987   6.845  0.5804  1.4107  2.8267
  519MOL0     H70031   9.689   3.222   6.772  0.8805 -0.6231  0.8112
  519MOL0     H70032   9.744   3.090   6.862  0.5800 -2.4782 -0.6788
  519MOL0     H70033   9.701   2.934   6.675  0.6338 -0.1749  1.7020
  519MOL0     H70034   9.674   3.066   6.556  0.5584 -0.4129 -0.1669
  519MOL0     H70035   9.932   3.009   6.719 -1.3866  0.4419  1.4698
  519MOL0     H70036   9.910   3.148   6.635  1.3907 -0.1035  1.9925
  519MOL0     H70037  10.019   3.013   6.478  0.0195 -0.5837  0.2802
  519MOL0     H70038   9.858   3.053   6.426  3.4737  2.6600 -0.4477
  519MOL0     H70039   9.930   2.783   6.570  0.3356 -0.0964  0.7028
  519MOL0     H70040   9.782   2.814   6.501  1.4194 -0.3253  5.0561
  519MOL0     H70041  10.028   2.829   6.330 -0.9092  1.7553 -1.5619
  519MOL0     H70042   9.864   2.839   6.278  3.3101  1.0139 -1.3327
  519MOL0     H70043   9.840   2.588   6.410  1.1384  2.6897  2.2947
  519MOL0     H70044   9.921   2.588   6.255 -0.0887 -3.3484  2.0266
  519MOL0     H70045   9.332   3.197   6.510 -0.2395  1.7988  0.8993
  519MOL0     H70046   9.091   3.152   6.459 -0.8186 -2.9806 -0.3426
  519MOL0     H70047   8.642   3.071   6.883 -0.8019 -1.6215  1.4474
  519MOL0     H70048   8.437   2.969   6.880  0.8221 -0.9253  0.0727
  519MOL0     H70049   6.591   2.749   6.230  0.2338 -0.2295  0.8583
  519MOL0     H70050   6.380   2.727   6.121 -2.3318 -4.4050 -0.5621
  519MOL0     H70051   5.885   2.657   6.255 -1.1752 -0.4793 -1.1146
  519MOL0     H70052   5.652   2.644   6.147 -3.7912 -2.0964 -3.4215
  519MOL0     H70053   5.415   2.411   5.979  0.4645  1.8017  0.0841
  519MOL0     H70054   5.527   2.387   6.101 -1.7820  1.8969 -0.4560
  519MOL0     H70055   5.533   2.176   5.997  2.4255  0.4149  1.5828
  519MOL0     H70056   5.671   2.247   5.941 -0.9724  0.6087 -0.0782
  519MOL0     H70057   5.571   2.319   5.721  1.0825 -0.8264  0.3165
  519MOL0     H70058   5.413   2.232   5.785 -0.0296 -1.7204  0.0079
  519MOL0     H70059   5.547   2.026   5.769  0.7105  0.0838  0.6008
  519MOL0     H70060   5.540   2.110   5.608  1.4854  2.1651 -0.1875
  519MOL0     H70061   5.942   2.150   5.658 -0.3746  1.8273 -0.8764
  519MOL0     H70062   5.804   2.424   5.836 -1.4070  0.3777  0.6397
  519MOL0     H70063   6.024   2.377   5.810  1.6352  1.3956 -1.5252
  519MOL0     H70064   6.136   2.508   5.860 -3.0050  2.9230 -0.7927
  519MOL0     H70065   6.135   2.353   5.948 -0.6768 -0.5685 -0.3987
  520MOL0     O70066   5.918   4.488   7.216 -0.6425  0.1748 -0.0264
  520MOL0     C70067   5.911   4.558   7.313 -0.7608 -0.2790 -0.0466
  520MOL0     O70068   6.018   4.620   7.370 -0.1732  0.3009  0.8423
  520MOL0     C70069   6.147   4.576   7.350  0.2958  0.7613 -0.4616
  520MOL0     C70070   6.247   4.677   7.355  0.0101  0.1759  0.4887
  520MOL0     C70071   6.377   4.633   7.358  0.3065 -0.4157  0.5864
  520MOL0     C70072   6.418   4.504   7.323  0.0109  0.5563 -0.0111
  520MOL0     O70073   6.551   4.486   7.315  0.4063 -0.0665 -0.1002
  520MOL0     C70074   6.609   4.365   7.358 -0.1929  0.4701  0.1207
  520MOL0     C70075   6.759   4.377   7.344  0.0715 -0.4523 -0.3037
  520MOL0     C70076   6.801   4.370   7.201 -0.4694 -0.4414 -0.3232
  520MOL0     C70077   6.921   4.447   7.176 -0.9613  0.0960  0.2724
  520MOL0     C70078   6.964   4.433   7.028  0.1795 -1.0713  0.0542
  520MOL0     C70079   7.085   4.519   7.005  0.0954 -0.3700 -0.1446
  520MOL0     C70080   7.101   4.546   6.854 -0.6136  0.3991 -0.5293
  520MOL0     C70081   7.225   4.632   6.828  0.0669 -0.0129  0.6615
  520MOL0     N70082   7.185   4.772   6.820  0.0536 -0.1285 -1.1009
  520MOL0     C70083   7.177   4.837   6.703 -0.2165 -0.6176  0.0894
  520MOL0     C70084   7.188   4.969   6.738  0.7898 -0.1140  0.6162
  520MOL0     C70085   7.199   5.081   6.639  0.4788  1.0657  0.0809
  520MOL0     C70086   7.090   5.181   6.672  0.2902  0.0822 -0.5341
  520MOL0     C70087   6.953   5.117   6.665  0.4254 -0.3528  0.1413
  520MOL0     C70088   6.842   5.226   6.637 -0.4491  0.5824  0.2984
  520MOL0     O70089   6.714   5.165   6.619 -0.0223 -0.6200 -0.0967
  520MOL0     C70090   6.625   5.164   6.713  0.2896  0.3100  0.0485
  520MOL0     C70091   6.656   5.171   6.848 -0.0771 -0.1934 -0.3713
  520MOL0     C70092   6.569   5.164   6.956 -0.6837 -0.1493  0.3905
  520MOL0     C70093   6.435   5.140   6.919  0.0026 -0.5147  0.3052
  520MOL0     C70094   6.338   5.108   7.024 -0.1377 -0.6354  0.0811
  520MOL0     O70095   6.205   5.117   6.994 -0.7744 -0.4866 -0.1735
  520MOL0     C70096   6.107   5.104   7.089  0.7834 -0.3497 -0.0454
  520MOL0     C70097   6.106   4.988   7.175  0.0222 -0.2148 -0.5841
  520MOL0     C70098   5.994   4.968   7.259  0.2512 -0.4570  0.5200
  520MOL0     C70099   5.892   5.061   7.261  0.3554  0.3206 -0.0010
  520MOL0     O70100   5.778   5.039   7.339  0.7887 -0.2152 -0.1823
  520MOL0     C70101   5.666   5.128   7.328 -0.9022  0.2822  0.2738
  520MOL0     C70102   5.541   5.068   7.384  0.0453  0.1803 -0.0232
  520MOL0     C70103   5.426   5.174   7.377  0.5069  0.1942  0.0705
  520MOL0     C70104   5.306   5.094   7.414 -0.6488  0.2698  0.0868
  520MOL0     C70105   5.176   5.173   7.381  0.3328 -1.2656 -0.1462
  520MOL0     C70106   5.049   5.082   7.417 -0.2743  0.2681  0.1735
  520MOL0     C70107   4.912   5.154   7.411  0.0671  0.6937 -1.1235
  520MOL0     C70108   4.784   5.072   7.408 -0.0820  0.2593 -0.0480
  520MOL0    Cl70109   4.802   4.962   7.260 -0.1646 -0.0271  0.2163
  520MOL0     C70110   5.913   5.180   7.185  0.3979 -0.8657  0.3893
  520MOL0     C70111   6.017   5.202   7.098  0.3700  0.1089  0.0629
  520MOL0     O70112   6.380   5.079   7.134  0.3116  0.3158  0.3933
  520MOL0     C70113   6.394   5.132   6.782  0.3213  0.1336 -0.0531
  520MOL0     C70114   6.491   5.140   6.680  0.3935  0.0921  0.4196
  520MOL0     N70115   7.178   4.976   6.873  0.7874  0.2145 -0.5273
  520MOL0     N70116   7.180   4.858   6.920 -0.5656 -0.3010 -0.9566
  520MOL0     C70117   6.318   4.408   7.298 -0.8494  0.1796 -0.0037
  520MOL0     C70118   6.188   4.443   7.323  0.0469 -0.0115  0.1476
  520MOL0     C70119   5.777   4.591   7.353 -0.1649  0.4024 -0.2794
  520MOL0     C70120   5.774   4.696   7.451  1.2279  0.5072  0.4658
  520MOL0     C70121   5.650   4.753   7.491  0.2582 -0.4795  0.2150
  520MOL0     C70122   5.526   4.710   7.444 -0.2612  0.2051 -0.3346
  520MOL0     O70123   5.409   4.764   7.477 -0.0691 -0.1616 -0.0597
  520MOL0     C70124   5.359   4.740   7.611 -0.9344 -0.1833  0.3870
  520MOL0     C70125   5.273   4.609   7.601  0.8709 -0.1720 -0.0709
  520MOL0     C70126   5.147   4.633   7.526 -0.2152  0.5840  0.8169
  520MOL0     C70127   5.028   4.706   7.597 -0.5956  0.1455  0.2221
  520MOL0     C70128   4.952   4.608   7.672  0.3785  0.2463  0.4010
  520MOL0     C70129   4.871   4.539   7.730 -0.7813  0.4140 -0.8012
  520MOL0     C70130   5.534   4.615   7.350 -1.0163 -0.5192 -0.1241
  520MOL0     C70131   5.652   4.546   7.304 -0.3569 -0.6217  0.1170
  520MOL0     C70132   5.641   4.441   7.195 -0.1658  0.7022  0.4333
  520MOL0     H70133   6.219   4.780   7.375  0.8675  0.4472  0.3506
  520MOL0     H70134   6.451   4.709   7.381 -0.0278  0.1081 -0.0235
  520MOL0     H70135   6.582   4.344   7.461 -1.1707  1.4333  0.0826
  520MOL0     H70136   6.583   4.285   7.289 -1.3373 -0.7112  1.8419
  520MOL0     H70137   6.815   4.306   7.406 -0.9104 -0.7707  0.2425
  520MOL0     H70138   6.782   4.474   7.389 -0.8547 -0.4851  0.2497
  520MOL0     H70139   6.730   4.414   7.130  0.2707  1.4299  0.0446
  520MOL0     H70140   6.817   4.268   7.163  1.8290  0.0292 -0.7621
  520MOL0     H70141   6.910   4.552   7.206 -4.1226 -0.4135  1.1909
  520MOL0     H70142   7.002   4.403   7.235  0.8297  2.3368 -0.3579
  520MOL0     H70143   6.987   4.333   6.990 -0.0441 -0.9267 -0.4633
  520MOL0     H70144   6.873   4.466   6.979  0.3489  0.9979  1.0333
  520MOL0     H70145   7.084   4.614   7.058  0.0332 -1.7732  2.5572
  520MOL0     H70146   7.178   4.472   7.039  2.3619  0.8906 -4.0098
  520MOL0     H70147   7.013   4.598   6.815 -0.9155 -0.9264 -1.6961
  520MOL0     H70148   7.113   4.453   6.798 -0.3138  1.2614 -1.9413
  520MOL0     H70149   7.303   4.609   6.901 -0.1897  1.5977  1.4886
  520MOL0     H70150   7.280   4.610   6.735 -1.0158  0.8980 -0.2192
  520MOL0     H70151   7.189   4.800   6.602 -0.8938  0.6865 -0.4894
  520MOL0     H70152   7.290   5.140   6.654  2.4311 -2.0731  1.4938
  520MOL0     H70153   7.193   5.043   6.536  0.4999  0.6223  0.2422
  520MOL0     H70154   7.098   5.225   6.771  3.4893 -0.9512 -0.2052
  520MOL0     H70155   7.096   5.267   6.606  1.2420  0.7023  0.3355
  520MOL0     H70156   6.932   5.067   6.760 -0.2529  1.2358  0.8622
  520MOL0     H70157   6.958   5.043   6.585  1.1848 -0.6056  0.4219
  520MOL0     H70158   6.859   5.279   6.542 -2.3410  1.9449  0.6667
  520MOL0     H70159   6.850   5.303   6.715  2.5750  0.8402 -0.1425
  520MOL0     H70160   6.758   5.189   6.881  0.5223 -1.9365 -1.1142
  520MOL0     H70161   6.585   5.178   7.063 -0.9192  1.1569  0.2705
  520MOL0     H70162   6.187   4.916   7.173 -0.8399 -1.1862 -2.2187
  520MOL0     H70163   5.980   4.884   7.326 -2.9383  0.4759  1.2119
  520MOL0     H70164   5.693   5.215   7.389  1.5799 -0.4029  0.2772
  520MOL0     H70165   5.649   5.157   7.224  0.1550  0.0024  0.0122
  520MOL0     H70166   5.510   4.975   7.335  2.8925 -1.9436  1.8928
  520MOL0     H70167   5.557   5.038   7.488  0.7395  1.0413  0.1300
  520MOL0     H70168   5.448   5.257   7.444  0.4128  2.2108 -2.2644
  520MOL0     H70169   5.421   5.217   7.276 -2.5678  3.3963  1.3974
  520MOL0     H70170   5.301   5.073   7.521  0.5214 -1.9035 -0.2344
  520MOL0     H70171   5.302   4.996   7.365 -2.0920 -0.5030  1.6466
  520MOL0     H70172   5.166   5.197   7.275 -1.6365  1.1765  0.4701
  520MOL0     H70173   5.177   5.266   7.439  1.8927 -1.5751  0.3675
  520MOL0     H70174   5.048   4.993   7.353  1.4230 -0.9086  1.6735
  520MOL0     H70175   5.067   5.035   7.514  0.3995  1.6388  0.7358
  520MOL0     H70176   4.903   5.208   7.316 -0.4410  1.2197 -0.7831
  520MOL0     H70177   4.891   5.224   7.492 -2.0825 -1.6152  0.4576
  520MOL0     H70178   4.772   5.027   7.508 -0.0959  1.2990  0.4296
  520MOL0     H70179   4.694   5.133   7.408  0.5822  1.3407  1.5564
  520MOL0     H70180   5.843   5.260   7.206 -0.6856 -1.7292  0.1891
  520MOL0     H70181   6.020   5.294   7.041  0.4171 -0.2385 -0.5067
  520MOL0     H70182   6.292   5.124   6.747  0.2064 -0.4022  0.3849
  520MOL0     H70183   6.463   5.142   6.576 -0.0778 -0.6413  0.5288
  520MOL0     H70184   6.340   4.304   7.278  0.7194  0.0536  2.0200
  520MOL0     H70185   6.119   4.359   7.315  2.4309 -2.0216 -0.6039
  520MOL0     H70186   5.865   4.730   7.498  2.2263 -0.9830 -0.2930
  520MOL0     H70187   5.651   4.836   7.560  0.2833 -2.1263  2.3142
  520MOL0     H70188   5.297   4.822   7.648 -0.3044 -0.0706  1.2258
  520MOL0     H70189   5.451   4.739   7.671  1.8721  3.0117 -3.3167
  520MOL0     H70190   5.250   4.563   7.698 -2.0013 -0.2979 -0.7039
  520MOL0     H70191   5.333   4.542   7.539  0.8134  0.3323 -0.6916
  520MOL0     H70192   5.116   4.536   7.486 -1.3010  1.6252 -1.0073
  520MOL0     H70193   5.173   4.683   7.432 -0.9137 -1.3607 -0.4679
  520MOL0     H70194   5.068   4.785   7.662  1.3895 -2.8209  2.9434
  520MOL0     H70195   4.957   4.743   7.523 -3.3676 -1.1312  2.0772
  520MOL0     H70196   4.801   4.468   7.771  1.3494 -1.3745 -0.0068
  520MOL0     H70197   5.442   4.581   7.304 -0.3040 -2.0716 -0.4612
  520MOL0     H70198   5.651   4.485   7.095  0.1468  1.9059  0.9818
  520MOL0     H70199   5.703   4.354   7.217  1.2862  1.2335 -1.3478
  520MOL0     H70200   5.534   4.415   7.200 -0.1844  0.2684 -1.3816
  521MOL0     O70201   6.501   9.991   5.794 -0.6970 -0.2034 -0.3886
  521MOL0     C70202   6.430   9.909   5.743 -0.2217 -0.4264  0.7232
  521MOL0     O70203   6.443   9.773   5.744  0.0666  0.2142 -0.1593
  521MOL0     C70204   6.548   9.710   5.810 -0.1870 -0.4339  1.0042
  521MOL0     C70205   6.528   9.576   5.836 -0.1659  0.4296 -0.7551
  521MOL0     C70206   6.633   9.491   5.884  0.0115 -0.1714 -0.0626
  521MOL0     C70207   6.760   9.554   5.919  1.3622  0.8428  0.0482
  521MOL0     O70208   6.852   9.464   5.978 -0.0042  0.5420 -0.1565
  521MOL0     C70209   6.979   9.519   6.016  0.7417 -0.4536 -0.5090
  521MOL0     C70210   7.056   9.399   6.065  0.2671  0.2707 -0.0408
  521MOL0     C70211   7.028   9.350   6.203 -0.4923  0.4027  0.1489
  521MOL0     C70212   7.113   9.220   6.236 -0.1838  0.6646 -0.3456
  521MOL0     C70213   7.042   9.149   6.362 -0.1471  0.2204  0.4255
  521MOL0     C70214   7.138   9.052   6.424 -0.7920  0.6751 -0.3633
  521MOL0     C70215   7.085   9.029   6.572 -0.4135  1.2894 -0.0102
  521MOL0     C70216   6.955   8.957   6.582  0.7637  0.1693 -0.3246
  521MOL0     N70217   6.952   8.815   6.540 -0.1935  0.0057  0.6351
  521MOL0     C70218   6.932   8.769   6.412 -0.1125  0.0020  0.3855
  521MOL0     C70219   6.944   8.636   6.426  0.4599 -0.4186  0.0150
  521MOL0     C70220   6.918   8.542   6.315  1.2157 -0.1631 -0.3131
  521MOL0     C70221   7.029   8.501   6.234 -0.9964  0.2271  0.0924
  521MOL0     C70222   6.998   8.403   6.127 -0.7072 -0.6957 -0.3558
  521MOL0     C70223   6.895   8.440   6.019  0.2620  0.0984 -0.1790
  521MOL0     O70224   6.948   8.472   5.889  0.2449  0.2695 -0.3087
  521MOL0     C70225   6.853   8.488   5.787 -0.9824  0.8852  0.0507
  521MOL0     C70226   6.708   8.488   5.809 -0.1800 -0.6011  0.2271
  521MOL0     C70227   6.613   8.495   5.703 -0.5381  0.0114  0.3403
  521MOL0     C70228   6.662   8.491   5.571 -0.1778  0.3600  0.2322
  521MOL0     C70229   6.561   8.512   5.460 -0.4458  0.3720 -0.7427
  521MOL0     O70230   6.430   8.464   5.469  0.2040  0.6173  0.7607
  521MOL0     C70231   6.349   8.509   5.369  0.3860  0.2543 -0.2038
  521MOL0     C70232   6.319   8.438   5.256 -0.6833  0.0094  0.3745
  521MOL0     C70233   6.222   8.483   5.165  1.3343 -0.4878 -0.3351
  521MOL0     C70234   6.151   8.601   5.186 -0.4022 -0.2403  0.4653
  521MOL0     O70235   6.068   8.664   5.098 -0.3042 -0.1429  0.3430
  521MOL0     C70236   6.034   8.605   4.970 -0.7792  0.3195 -0.3900
  521MOL0     C70237   5.910   8.671   4.915 -0.5560  0.0183  0.2717
  521MOL0     C70238   5.780   8.643   4.991 -0.0458  0.4802 -0.2067
  521MOL0     C70239   5.666   8.693   4.900  0.4796  0.1369 -0.2234
  521MOL0     C70240   5.530   8.673   4.975  0.3136 -0.0756  0.6308
  521MOL0     C70241   5.405   8.665   4.888  0.5715  0.2031  0.2790
  521MOL0     C70242   5.291   8.588   4.955  0.5487  0.5379 -0.2200
  521MOL0     C70243   5.178   8.562   4.848 -0.2334  0.0411 -0.2066
  521MOL0    Cl70244   5.050   8.456   4.912  0.0950  0.1414  0.0011
  521MOL0     C70245   6.178   8.677   5.296 -0.5537 -0.2933 -0.5421
  521MOL0     C70246   6.267   8.623   5.395  0.4195  0.3556 -0.0695
  521MOL0     O70247   6.608   8.577   5.367 -0.1227 -0.4106 -0.2105
  521MOL0     C70248   6.795   8.506   5.546  0.1765 -0.0114 -0.6570
  521MOL0     C70249   6.890   8.507   5.646 -0.6073  0.0564 -0.9712
  521MOL0     N70250   6.944   8.605   6.563  0.0144  0.1232 -0.4556
  521MOL0     N70251   6.949   8.715   6.629 -0.1500  0.0893 -0.2138
  521MOL0     C70252   6.779   9.692   5.885 -0.2483 -0.1575 -0.1590
  521MOL0     C70253   6.677   9.765   5.827  0.1041  0.1181  0.1999
  521MOL0     C70254   6.298   9.957   5.684  0.4517 -0.0378 -0.0066
  521MOL0     C70255   6.222   9.855   5.620 -0.0197 -0.5637 -1.2390
  521MOL0     C70256   6.099   9.877   5.572 -0.2493  0.4338 -0.3561
  521MOL0     C70257   6.035  10.004   5.599  0.3978  0.0376  0.0097
  521MOL0     O70258   5.901  10.033   5.574  0.1074 -1.1647  0.5804
  521MOL0     C70259   5.837   9.975   5.456  0.0296 -0.2720  0.6125
  521MOL0     C70260   5.905  10.004   5.324 -1.0132  0.4920  0.3060
  521MOL0     C70261   5.924  10.152   5.307  0.6229 -0.0092  0.0053
  521MOL0     C70262   5.790  10.236   5.328 -0.4282  0.5692 -0.2119
  521MOL0     C70263   5.811  10.368   5.268  0.4042  0.3668  0.4398
  521MOL0     C70264   5.817  10.483   5.221 -0.0880  0.3798  0.5283
  521MOL0     C70265   6.106  10.104   5.666  0.0602  0.6732  0.1844
  521MOL0     C70266   6.240  10.085   5.704  0.4526 -0.5554 -0.8535
  521MOL0     C70267   6.308  10.202   5.766  0.6296 -1.0427 -0.0025
  521MOL0     H70268   6.431   9.532   5.817 -0.5053  0.4043  0.8330
  521MOL0     H70269   6.614   9.384   5.886  0.8514 -0.3861 -1.6513
  521MOL0     H70270   7.019   9.571   5.928 -0.5944  1.4042 -0.0645
  521MOL0     H70271   6.974   9.597   6.093  0.9819 -0.3153 -0.6332
  521MOL0     H70272   7.162   9.414   6.046  0.9210 -1.3767  1.9202
  521MOL0     H70273   7.035   9.316   5.996 -2.0924  1.7467 -1.2706
  521MOL0     H70274   6.925   9.313   6.198 -0.1795 -0.3421 -3.6611
  521MOL0     H70275   7.044   9.427   6.279  2.9559 -1.6376  1.7324
  521MOL0     H70276   7.108   9.147   6.156 -0.5042 -1.3938  1.4592
  521MOL0     H70277   7.220   9.239   6.248  0.6257 -3.0228 -0.5946
  521MOL0     H70278   7.011   9.222   6.438  1.4244  1.3218  0.0505
  521MOL0     H70279   6.958   9.101   6.311  0.5371  0.4776 -0.9955
  521MOL0     H70280   7.141   8.961   6.363  0.9581  0.6027 -0.2362
  521MOL0     H70281   7.236   9.100   6.422 -0.0491 -0.7123  0.5968
  521MOL0     H70282   7.083   9.122   6.630 -1.4536  0.5463  1.1828
  521MOL0     H70283   7.151   8.968   6.634 -4.1867  0.2598  3.4377
  521MOL0     H70284   6.921   8.958   6.686  0.2809 -1.2479 -0.4592
  521MOL0     H70285   6.876   9.012   6.529 -0.8896  0.5820  2.3217
  521MOL0     H70286   6.911   8.822   6.320  0.2095 -2.1534 -1.0163
  521MOL0     H70287   6.866   8.459   6.363  0.9870 -0.3759 -0.9241
  521MOL0     H70288   6.846   8.593   6.251 -1.1248 -0.5024  1.9012
  521MOL0     H70289   7.093   8.583   6.199  0.7274 -1.6519 -1.3721
  521MOL0     H70290   7.091   8.441   6.301 -0.4268  0.5263 -0.1623
  521MOL0     H70291   6.967   8.308   6.173  1.8267 -0.1272  2.9358
  521MOL0     H70292   7.090   8.394   6.069 -0.8121  1.0427 -0.8539
  521MOL0     H70293   6.842   8.530   6.053  0.9193  0.8362 -1.0621
  521MOL0     H70294   6.834   8.355   5.988 -0.1192  0.8786 -1.6381
  521MOL0     H70295   6.670   8.491   5.911  0.2483  1.3327  0.3695
  521MOL0     H70296   6.507   8.489   5.724 -0.1420 -1.4030  2.2203
  521MOL0     H70297   6.371   8.343   5.244 -0.6542  0.1353 -0.4984
  521MOL0     H70298   6.199   8.414   5.084 -0.1819 -2.8902  1.9547
  521MOL0     H70299   6.117   8.614   4.900 -1.1673  2.1273 -0.6563
  521MOL0     H70300   6.003   8.501   4.988 -3.5086  1.1689  0.1963
  521MOL0     H70301   5.929   8.779   4.910  1.6806 -0.3532 -0.8565
  521MOL0     H70302   5.893   8.623   4.818 -1.1951 -1.0252  0.8842
  521MOL0     H70303   5.756   8.537   5.001  0.3144  0.3120 -1.0207
  521MOL0     H70304   5.785   8.693   5.088  1.2030 -1.2260  0.6554
  521MOL0     H70305   5.668   8.640   4.804  0.3705  2.9152 -1.8606
  521MOL0     H70306   5.669   8.801   4.881 -1.6697  0.4126  0.6649
  521MOL0     H70307   5.520   8.764   5.035 -2.2788  1.0529 -1.3143
  521MOL0     H70308   5.532   8.586   5.041 -0.9871  0.5548  1.5376
  521MOL0     H70309   5.374   8.767   4.864  0.6183  0.2209  0.2959
  521MOL0     H70310   5.437   8.617   4.795  0.7053 -4.3046  2.3900
  521MOL0     H70311   5.245   8.640   5.039  0.7657  0.5406 -0.1017
  521MOL0     H70312   5.331   8.490   4.983 -1.4526 -0.5663 -1.0325
  521MOL0     H70313   5.132   8.658   4.822  1.0187  1.8705  3.5269
  521MOL0     H70314   5.227   8.519   4.760 -1.0776  0.7690 -1.0590
  521MOL0     H70315   6.123   8.768   5.319  3.1884  1.4982  2.3864
  521MOL0     H70316   6.292   8.690   5.477  1.0837 -0.6576  0.5840
  521MOL0     H70317   6.832   8.525   5.445 -2.6259 -1.7961 -2.1362
  521MOL0     H70318   6.994   8.518   5.618 -1.0319  4.0868 -1.4506
  521MOL0     H70319   6.873   9.736   5.916  0.0232 -0.8164 -0.0419
  521MOL0     H70320   6.694   9.871   5.816  0.6063  0.3796  2.8025
  521MOL0     H70321   6.255   9.752   5.609 -1.1320 -1.7033  3.6848
  521MOL0     H70322   6.044   9.799   5.520  2.6649 -1.6534 -0.5815
  521MOL0     H70323   5.732  10.000   5.473  0.2204 -0.2269  1.8551
  521MOL0     H70324   5.835   9.867   5.473  1.6021 -0.3783  0.3040
  521MOL0     H70325   5.857   9.963   5.234  0.5036 -1.5964  0.3758
  521MOL0     H70326   6.004   9.957   5.316 -1.3222 -0.2330  0.6405
  521MOL0     H70327   5.962  10.158   5.205  1.3705  0.7932  0.3132
  521MOL0     H70328   5.996  10.196   5.377  1.9920  0.6899 -1.7622
  521MOL0     H70329   5.708  10.180   5.282 -0.3186  1.4314 -1.5094
  521MOL0     H70330   5.765  10.252   5.433 -0.0535  0.3402 -0.0853
  521MOL0     H70331   5.815  10.586   5.191 -1.5089  0.8091  1.9907
  521MOL0     H70332   6.064  10.203   5.686  0.6219  0.8359  0.5929
  521MOL0     H70333   6.234  10.279   5.785  2.1175  0.7721 -1.2673
  521MOL0     H70334   6.352  10.172   5.862 -1.0565 -0.2532  1.0537
  521MOL0     H70335   6.380  10.254   5.702  1.2448  0.8016  2.0758
  522MOL0     O70336   7.656   2.057   9.571  0.2583 -0.2101 -0.7997
  522MOL0     C70337   7.669   2.146   9.656  0.5379 -0.1290  0.2377
  522MOL0     O70338   7.563   2.215   9.717  0.4558  0.0577  0.0814
  522MOL0     C70339   7.430   2.195   9.691 -0.3286  0.5475 -0.6228
  522MOL0     C70340   7.376   2.125   9.582 -0.1192 -0.3959  0.1818
  522MOL0     C70341   7.233   2.115   9.577 -1.3738  0.5089  0.2334
  522MOL0     C70342   7.146   2.165   9.671  0.9238  0.0092  0.2851
  522MOL0     O70343   7.015   2.150   9.642  0.2860  0.2637 -0.1244
  522MOL0     C70344   6.930   2.261   9.673 -0.7773 -0.7148  0.7865
  522MOL0     C70345   6.789   2.217   9.672  0.2059  0.2117  0.2925
  522MOL0     C70346   6.689   2.328   9.693 -0.4982 -0.1918  0.1234
  522MOL0     C70347   6.555   2.259   9.725 -0.0945 -0.3476  0.6136
  522MOL0     C70348   6.457   2.356   9.791  0.7687  0.5386 -0.1767
  522MOL0     C70349   6.311   2.315   9.799  0.3111 -0.7031 -0.9020
  522MOL0     C70350   6.241   2.268   9.670 -0.4011  0.6451 -0.2141
  522MOL0     C70351   6.093   2.237   9.705 -0.5732  0.7538 -0.6127
  522MOL0     N70352   6.067   2.102   9.750 -0.5182 -0.4483 -0.2010
  522MOL0     C70353   6.057   2.062   9.881 -0.4452  0.0475  0.5686
  522MOL0     C70354   6.033   1.926   9.879 -1.2864 -0.3972 -0.6000
  522MOL0     C70355   6.032   1.850  10.008  0.0896 -0.3899 -0.2660
  522MOL0     C70356   6.162   1.775  10.018 -0.9597  0.1035 -0.2668
  522MOL0     C70357   6.280   1.871  10.035  0.0678  0.3689 -0.7148
  522MOL0     C70358   6.407   1.793  10.059 -0.4731 -0.1546  0.4055
  522MOL0     O70359   6.512   1.883  10.013 -0.4250 -0.0055 -0.2282
  522MOL0     C70360   6.638   1.850  10.055  0.1653 -0.0854 -0.1602
  522MOL0     C70361   6.737   1.922   9.983 -0.3737  0.6232 -0.1852
  522MOL0     C70362   6.875   1.896   9.997  0.2497 -0.7213  0.6120
  522MOL0     C70363   6.924   1.801  10.085  1.1553  0.4314 -0.8326
  522MOL0     C70364   7.066   1.766  10.093  0.0244 -0.2881  0.1344
  522MOL0     O70365   7.137   1.791   9.980 -0.6566 -0.5249  0.1974
  522MOL0     C70366   7.269   1.795   9.971  0.0573  0.7561 -0.3039
  522MOL0     C70367   7.362   1.730  10.054 -0.1446  0.2287 -0.8745
  522MOL0     C70368   7.495   1.741  10.043 -0.6706  0.1924  0.5376
  522MOL0     C70369   7.551   1.816   9.938 -0.6696 -0.2616  0.9638
  522MOL0     O70370   7.689   1.836   9.927 -0.0321 -0.5443  0.0440
  522MOL0     C70371   7.749   1.868  10.043 -0.5690  0.6237  0.4453
  522MOL0     C70372   7.892   1.904  10.015  0.3609 -0.1716 -0.2993
  522MOL0     C70373   7.979   1.786   9.977  0.4097  0.7374  0.2841
  522MOL0     C70374   8.130   1.823   9.972 -0.5605  0.0351 -0.0177
  522MOL0     C70375   8.225   1.703   9.939 -0.4310 -0.2765 -0.4534
  522MOL0     C70376   8.215   1.578  10.031 -0.2062  0.1369  0.1815
  522MOL0     C70377   8.225   1.601  10.179  0.2514  0.0182 -0.3716
  522MOL0     C70378   8.358   1.656  10.230  0.0445  0.1579  0.3048
  522MOL0    Cl70379   8.479   1.525  10.218  0.2655  0.0934  0.3714
  522MOL0     C70380   7.462   1.876   9.850  0.1431 -0.1025  0.1565
  522MOL0     C70381   7.322   1.861   9.862 -0.0306 -0.1767  0.0706
  522MOL0     O70382   7.114   1.735  10.203 -0.0388 -0.1816 -0.2830
  522MOL0     C70383   6.828   1.749  10.171 -0.1300 -0.7957  0.1165
  522MOL0     C70384   6.682   1.775  10.162 -0.8397  0.2669  0.3315
  522MOL0     N70385   6.030   1.886   9.747  0.1940 -0.5363 -0.1875
  522MOL0     N70386   6.051   1.991   9.674  0.2870 -1.0588  0.1015
  522MOL0     C70387   7.205   2.244   9.777  0.1242  0.9927 -1.0172
  522MOL0     C70388   7.346   2.262   9.785 -0.4633 -0.3789  0.4249
  522MOL0     C70389   7.806   2.193   9.692 -0.1038 -0.6142 -0.0517
  522MOL0     C70390   7.821   2.286   9.807  0.0901  0.8423 -0.2447
  522MOL0     C70391   7.941   2.309   9.865 -0.1394 -0.1634 -0.0880
  522MOL0     C70392   8.054   2.243   9.811 -0.2342  0.2446 -1.1012
  522MOL0     O70393   8.176   2.245   9.872 -0.4193 -0.0775  0.4741
  522MOL0     C70394   8.223   2.372   9.925  0.0895  0.3795 -1.2512
  522MOL0     C70395   8.373   2.376   9.886 -0.0127 -0.1437 -0.1020
  522MOL0     C70396   8.400   2.397   9.729 -0.0879 -0.9728 -1.6820
  522MOL0     C70397   8.555   2.390   9.709 -0.3793 -0.2054 -0.2553
  522MOL0     C70398   8.591   2.424   9.571  0.1649  0.1812  0.4359
  522MOL0     C70399   8.630   2.420   9.451 -0.1494 -0.6493  0.0333
  522MOL0     C70400   8.043   2.156   9.705  0.3789  0.6217  0.7878
  522MOL0     C70401   7.918   2.132   9.637 -0.1151 -0.1105 -0.1170
  522MOL0     C70402   7.928   2.053   9.509  0.2780  0.5322 -0.5501
  522MOL0     H70403   7.434   2.072   9.507 -1.1023  0.0251 -0.8955
  522MOL0     H70404   7.203   2.045   9.500 -0.9101  0.6963 -0.1218
  522MOL0     H70405   6.947   2.300   9.773  0.4106 -0.5424  0.5392
  522MOL0     H70406   6.950   2.333   9.593 -0.9308 -3.1656 -1.6230
  522MOL0     H70407   6.773   2.150   9.756 -1.7664 -0.5909 -0.6515
  522MOL0     H70408   6.762   2.160   9.583  1.6737 -1.3621  0.8084
  522MOL0     H70409   6.693   2.398   9.609 -1.3830  0.2723  0.4502
  522MOL0     H70410   6.722   2.394   9.774  1.6004 -0.7793 -0.1914
  522MOL0     H70411   6.507   2.226   9.633 -1.3689 -1.3028  1.5902
  522MOL0     H70412   6.574   2.176   9.793  1.0400  0.0133  0.7575
  522MOL0     H70413   6.491   2.382   9.892 -0.1769  0.9789  0.0389
  522MOL0     H70414   6.462   2.452   9.739 -0.1180  0.9478  0.4725
  522MOL0     H70415   6.292   2.254   9.887 -0.4700  1.0616  0.2053
  522MOL0     H70416   6.257   2.408   9.818 -0.8018 -0.9915 -2.4417
  522MOL0     H70417   6.294   2.180   9.633 -0.1678  0.0636  1.3954
  522MOL0     H70418   6.243   2.342   9.591 -1.2951 -0.7303 -1.5863
  522MOL0     H70419   6.058   2.297   9.789 -0.5207 -3.3321  2.6503
  522MOL0     H70420   6.039   2.269   9.616 -1.9172  1.3034  0.3667
  522MOL0     H70421   6.080   2.135   9.958 -3.0455  2.5663 -0.8410
  522MOL0     H70422   6.012   1.911  10.096 -1.0302 -2.2268  0.8246
  522MOL0     H70423   5.949   1.779  10.007  0.3459 -0.7015 -1.3973
  522MOL0     H70424   6.167   1.720  10.113  0.9170  2.7835  1.3454
  522MOL0     H70425   6.174   1.707   9.934 -2.4690  1.2555 -1.4665
  522MOL0     H70426   6.262   1.932  10.124  0.4077 -1.3065  0.5591
  522MOL0     H70427   6.285   1.922   9.938  0.4614  2.1846  0.2189
  522MOL0     H70428   6.411   1.709   9.988 -2.6663  0.6833 -0.7979
  522MOL0     H70429   6.432   1.760  10.160  0.5135 -0.3756  0.1019
  522MOL0     H70430   6.704   1.986   9.902 -0.5917  1.6591  0.7129
  522MOL0     H70431   6.946   1.943   9.930 -1.8103  0.4159 -0.9141
  522MOL0     H70432   7.331   1.673  10.141 -1.0535 -2.0341 -2.5669
  522MOL0     H70433   7.568   1.701  10.113 -0.3230 -0.3918 -0.1356
  522MOL0     H70434   7.704   1.956  10.089 -1.1132  0.3734  0.3919
  522MOL0     H70435   7.755   1.788  10.118  0.0699  0.4112  0.1771
  522MOL0     H70436   7.892   1.978   9.934  0.9662  0.2411  0.0640
  522MOL0     H70437   7.927   1.949  10.109 -0.4404  0.5930 -0.3501
  522MOL0     H70438   7.968   1.718  10.062  1.5560 -0.3786 -0.4326
  522MOL0     H70439   7.949   1.745   9.880 -3.0364 -0.0271  1.5055
  522MOL0     H70440   8.163   1.870  10.065 -0.2018 -0.6138  0.1854
  522MOL0     H70441   8.141   1.891   9.887  0.5792 -1.3444 -1.0079
  522MOL0     H70442   8.333   1.723   9.937 -0.6359  0.8956 -2.4333
  522MOL0     H70443   8.205   1.674   9.836 -0.9806 -2.3313  0.1864
  522MOL0     H70444   8.113   1.538  10.020 -2.1428  4.6410 -0.2579
  522MOL0     H70445   8.285   1.501   9.995 -1.1431  1.1365 -4.4002
  522MOL0     H70446   8.204   1.508  10.232  2.5130  0.4805  1.4774
  522MOL0     H70447   8.148   1.675  10.201 -2.1037 -1.3848 -3.0912
  522MOL0     H70448   8.395   1.744  10.176 -0.0612  0.5814  0.9095
  522MOL0     H70449   8.346   1.673  10.338 -3.3182 -3.2399  0.6676
  522MOL0     H70450   7.506   1.933   9.769  3.6141  0.6927  2.3620
  522MOL0     H70451   7.247   1.911   9.801 -2.4017  1.5234  3.9636
  522MOL0     H70452   6.870   1.684  10.247 -0.2338 -1.5233 -0.4311
  522MOL0     H70453   6.614   1.744  10.241 -3.2911  1.2609 -1.2301
  522MOL0     H70454   7.142   2.288   9.854 -3.2297 -3.9574 -0.4525
  522MOL0     H70455   7.394   2.308   9.871  0.8984  0.4618 -0.7171
  522MOL0     H70456   7.731   2.335   9.845 -0.4930  2.4877 -3.3741
  522MOL0     H70457   7.946   2.371   9.954 -2.1163  0.0740 -0.1101
  522MOL0     H70458   8.202   2.382  10.032 -0.1252  2.2925 -1.4522
  522MOL0     H70459   8.165   2.442   9.866 -1.6609  0.0540  0.0208
  522MOL0     H70460   8.428   2.290   9.924  2.0943  1.1352 -0.0965
  522MOL0     H70461   8.422   2.465   9.928  1.5928 -1.0572  0.0447
  522MOL0     H70462   8.377   2.501   9.707  0.0210  0.4179  3.4367
  522MOL0     H70463   8.355   2.314   9.674  1.9489 -2.6979 -0.9051
  522MOL0     H70464   8.602   2.466   9.773  0.8115 -0.8770 -0.2987
  522MOL0     H70465   8.597   2.295   9.742  0.2430  0.0088 -0.4031
  522MOL0     H70466   8.652   2.409   9.347  0.9547 -1.5014  0.3357
  522MOL0     H70467   8.123   2.090   9.675 -1.8216 -1.7262 -0.2267
  522MOL0     H70468   7.882   2.104   9.424 -1.3997  0.0240  0.0171
  522MOL0     H70469   8.031   2.034   9.478 -0.2323 -1.0777 -1.3467
  522MOL0     H70470   7.877   1.958   9.526  0.3455  0.8464  1.7890
  523MOL0     O70471   2.639   3.449   2.594 -0.0223  0.3683 -0.9282
  523MOL0     C70472   2.644   3.360   2.513  0.3380  0.5890  0.2220
  523MOL0     O70473   2.536   3.303   2.459  0.2847 -0.0260 -0.3142
  523MOL0     C70474   2.408   3.324   2.510 -0.6134 -0.6634  0.1597
  523MOL0     C70475   2.354   3.250   2.619 -0.8275  0.6836  0.5117
  523MOL0     C70476   2.218   3.261   2.660 -0.6397  0.3661  0.8543
  523MOL0     C70477   2.137   3.356   2.603  0.4348 -0.2600 -0.6292
  523MOL0     O70478   2.001   3.375   2.623 -0.0936  0.2629  0.1194
  523MOL0     C70479   1.951   3.318   2.746  0.2509  0.9490 -0.2574
  523MOL0     C70480   1.811   3.366   2.784  0.4881  0.8229 -0.7278
  523MOL0     C70481   1.702   3.335   2.692 -0.5205  0.1037 -0.6694
  523MOL0     C70482   1.563   3.337   2.765 -1.1090  0.1054  0.3112
  523MOL0     C70483   1.448   3.282   2.686 -0.1950  0.1155  0.4460
  523MOL0     C70484   1.340   3.255   2.785  0.2835 -0.1179  0.6773
  523MOL0     C70485   1.205   3.232   2.723 -0.1293 -0.2562  0.6433
  523MOL0     C70486   1.142   3.357   2.663  0.7692  0.8007  0.0289
  523MOL0     N70487   1.084   3.436   2.767 -0.2186  0.0332  0.1487
  523MOL0     C70488   1.154   3.529   2.832 -0.3384  0.7095  0.1762
  523MOL0     C70489   1.061   3.604   2.896 -0.7384 -1.4145 -1.1075
  523MOL0     C70490   1.090   3.715   2.992  0.5791 -0.2338 -0.3820
  523MOL0     C70491   1.105   3.853   2.925  0.0984  0.1185 -0.2462
  523MOL0     C70492   1.167   3.947   3.034 -0.4029 -0.3553 -0.3918
  523MOL0     C70493   1.312   3.925   3.065  0.1487  0.2330  0.5680
  523MOL0     O70494   1.374   3.927   2.936 -0.3151  0.0069 -0.9396
  523MOL0     C70495   1.509   3.907   2.957  0.0956  0.2190 -0.1385
  523MOL0     C70496   1.595   3.999   3.025 -0.7578  0.6988 -0.1696
  523MOL0     C70497   1.739   3.973   3.031  0.5314  0.5500 -0.5152
  523MOL0     C70498   1.791   3.849   2.987 -0.2478 -0.4213  0.2630
  523MOL0     C70499   1.937   3.821   2.983 -0.3791 -0.6703  0.0302
  523MOL0     O70500   1.976   3.696   2.929  0.2483 -0.2577 -0.5194
  523MOL0     C70501   2.104   3.667   2.951  0.4426  0.7452 -0.1232
  523MOL0     C70502   2.156   3.657   3.085  0.4617 -0.0853  0.6183
  523MOL0     C70503   2.285   3.623   3.117 -0.2878 -0.4570  0.8462
  523MOL0     C70504   2.366   3.591   3.011 -0.1449  0.5806 -0.4470
  523MOL0     O70505   2.486   3.542   3.053 -0.8958 -0.8412  0.2206
  523MOL0     C70506   2.596   3.563   2.963 -0.6176  0.1855  0.6328
  523MOL0     C70507   2.735   3.527   3.017  0.7689 -0.9154 -0.5636
  523MOL0     C70508   2.847   3.577   2.930 -0.1398 -0.2896 -0.7314
  523MOL0     C70509   2.986   3.542   2.983  0.5831  0.4834  0.3339
  523MOL0     C70510   3.093   3.606   2.892  0.4165  0.1294  0.0092
  523MOL0     C70511   3.074   3.627   2.736  0.1318 -0.1792  0.0359
  523MOL0     C70512   3.134   3.762   2.684  0.4526  0.6463  0.0621
  523MOL0     C70513   3.289   3.746   2.653  0.6339 -0.5282  1.1600
  523MOL0    Cl70514   3.371   3.913   2.668  0.2304  0.0710 -0.0999
  523MOL0     C70515   2.321   3.596   2.879 -0.4391  0.3321 -0.1718
  523MOL0     C70516   2.188   3.628   2.848 -0.2387 -0.4744  0.0702
  523MOL0     O70517   2.012   3.903   3.028  0.6117 -0.1936  0.3163
  523MOL0     C70518   1.703   3.753   2.930 -0.1277 -0.2955 -1.4748
  523MOL0     C70519   1.563   3.782   2.918  0.3254 -0.4369  0.2509
  523MOL0     N70520   0.933   3.552   2.870  0.3920 -0.2132  0.0933
  523MOL0     N70521   0.958   3.454   2.790  0.6782  0.1696 -0.4471
  523MOL0     C70522   2.199   3.444   2.520 -0.1568  0.7198  0.4752
  523MOL0     C70523   2.330   3.431   2.470  0.3207  0.8099 -0.1996
  523MOL0     C70524   2.768   3.334   2.434 -0.6495  0.5150 -0.7539
  523MOL0     C70525   2.797   3.194   2.417 -0.0448 -0.4125  0.3154
  523MOL0     C70526   2.920   3.149   2.362 -1.0105 -0.0298  0.9420
  523MOL0     C70527   3.022   3.242   2.347  0.2712 -0.1069  0.2576
  523MOL0     O70528   3.154   3.196   2.321 -0.1988  0.6558  0.8057
  523MOL0     C70529   3.259   3.248   2.398  0.5093 -0.3903  0.0606
  523MOL0     C70530   3.398   3.198   2.362 -0.0178  0.5607  0.1094
  523MOL0     C70531   3.409   3.042   2.357 -0.1971 -0.0971  0.2868
  523MOL0     C70532   3.560   2.992   2.325  0.1467 -0.5307 -0.5311
  523MOL0     C70533   3.560   2.852   2.302  0.1285 -0.4857  0.1685
  523MOL0     C70534   3.549   2.739   2.270 -0.1850  0.1386  0.2874
  523MOL0     C70535   2.998   3.369   2.372  0.4408  0.1985  0.2213
  523MOL0     C70536   2.872   3.422   2.409  0.2390  0.2304  0.0631
  523MOL0     C70537   2.854   3.572   2.429 -0.7360  0.2166  0.2394
  523MOL0     H70538   2.412   3.172   2.668  1.3186  0.8323 -1.5620
  523MOL0     H70539   2.188   3.183   2.730  1.0822  0.3259  1.6105
  523MOL0     H70540   1.937   3.210   2.734 -0.4654  0.6869  2.4406
  523MOL0     H70541   2.018   3.341   2.829  1.1372  1.3733 -1.0646
  523MOL0     H70542   1.815   3.474   2.798  2.1190  0.6254  0.6991
  523MOL0     H70543   1.790   3.318   2.881 -1.5550  0.8037 -1.1474
  523MOL0     H70544   1.716   3.240   2.639 -1.5916 -0.6241  0.3126
  523MOL0     H70545   1.694   3.401   2.605 -0.2921  1.6798  0.4561
  523MOL0     H70546   1.585   3.269   2.848 -0.7235  2.1888  2.0372
  523MOL0     H70547   1.536   3.434   2.809 -1.0099 -0.2585  1.1999
  523MOL0     H70548   1.422   3.352   2.605  0.8008 -1.2423 -1.1103
  523MOL0     H70549   1.474   3.184   2.646  4.3284  0.5405  1.8908
  523MOL0     H70550   1.363   3.163   2.839 -0.5148 -0.4027  0.5523
  523MOL0     H70551   1.321   3.339   2.852  2.4870  0.7960  0.2245
  523MOL0     H70552   1.137   3.180   2.792 -1.2532 -0.4203 -0.5493
  523MOL0     H70553   1.217   3.159   2.643  0.0306  2.4051 -1.9041
  523MOL0     H70554   1.216   3.421   2.613  1.7472  0.5251  1.0910
  523MOL0     H70555   1.069   3.310   2.597  4.0603 -1.4058 -2.3890
  523MOL0     H70556   1.261   3.528   2.852 -0.2566 -2.9883  0.2252
  523MOL0     H70557   1.012   3.715   3.069 -0.7375  0.8956 -1.6507
  523MOL0     H70558   1.182   3.685   3.042  0.1708 -1.6174 -0.4249
  523MOL0     H70559   1.172   3.840   2.839 -2.5659 -1.2682 -2.2792
  523MOL0     H70560   1.006   3.894   2.903 -0.1986  0.8336  2.1154
  523MOL0     H70561   1.108   3.928   3.124  0.2071 -0.6839 -0.0583
  523MOL0     H70562   1.157   4.050   2.998 -1.8346  0.3428  1.7819
  523MOL0     H70563   1.321   3.825   3.108 -1.3971  0.0154  0.4280
  523MOL0     H70564   1.355   3.996   3.136  2.3260 -1.1679  0.7565
  523MOL0     H70565   1.558   4.087   3.077 -1.4323  0.3110  0.0140
  523MOL0     H70566   1.807   4.042   3.078  1.8855  1.9692 -4.1761
  523MOL0     H70567   2.086   3.661   3.167  0.1264  2.2960  0.2779
  523MOL0     H70568   2.322   3.607   3.218  4.7090  0.9237 -0.4914
  523MOL0     H70569   2.578   3.508   2.870  1.2542  0.4810  0.0610
  523MOL0     H70570   2.601   3.666   2.924 -0.1205 -1.1712 -3.3457
  523MOL0     H70571   2.751   3.572   3.116 -2.8891 -3.0357  1.1854
  523MOL0     H70572   2.742   3.418   3.016  0.0331 -0.9618 -0.5642
  523MOL0     H70573   2.827   3.532   2.832 -0.6560  0.4428 -0.9785
  523MOL0     H70574   2.846   3.685   2.910  1.1816 -0.2498 -0.6417
  523MOL0     H70575   3.005   3.435   2.998  1.6402  0.9695  3.2457
  523MOL0     H70576   2.974   3.589   3.081  1.2705 -0.0057  0.6688
  523MOL0     H70577   3.184   3.548   2.911  0.3333  0.2156  0.7063
  523MOL0     H70578   3.113   3.709   2.924  3.3264  0.6734 -3.0168
  523MOL0     H70579   3.134   3.543   2.698  4.6266  0.9462  3.6483
  523MOL0     H70580   2.968   3.638   2.711 -0.4045 -1.9598  1.3153
  523MOL0     H70581   3.106   3.838   2.758 -1.9616 -0.0578 -0.0509
  523MOL0     H70582   3.076   3.782   2.593  0.3460 -2.2732 -0.5910
  523MOL0     H70583   3.328   3.684   2.734 -0.2292 -0.3040  1.7617
  523MOL0     H70584   3.300   3.700   2.554  0.3729 -0.4914  1.1122
  523MOL0     H70585   2.379   3.552   2.799 -2.5152 -1.0531 -1.0145
  523MOL0     H70586   2.160   3.645   2.745  0.9838  0.8859 -0.0701
  523MOL0     H70587   1.733   3.654   2.899 -0.6255 -1.3770  1.2454
  523MOL0     H70588   1.506   3.702   2.872 -0.2006 -1.3052  2.3229
  523MOL0     H70589   2.141   3.529   2.485 -1.9462 -1.2620 -1.7225
  523MOL0     H70590   2.378   3.486   2.390  1.8512 -1.5462 -1.0234
  523MOL0     H70591   2.712   3.128   2.420 -1.5621  1.3174 -1.6459
  523MOL0     H70592   2.935   3.044   2.340  0.9400 -0.4408  3.6997
  523MOL0     H70593   3.227   3.231   2.502 -0.5426 -1.5707 -0.4277
  523MOL0     H70594   3.266   3.357   2.384 -0.8990 -0.4568 -1.5578
  523MOL0     H70595   3.477   3.236   2.428  1.0430  2.2165 -1.9917
  523MOL0     H70596   3.424   3.231   2.261 -2.1540 -0.6687 -0.9042
  523MOL0     H70597   3.347   3.004   2.275  0.9231  0.6760 -0.9510
  523MOL0     H70598   3.380   3.004   2.456  0.1407  0.4577  0.6025
  523MOL0     H70599   3.587   3.044   2.232 -1.2138  1.6894  0.2212
  523MOL0     H70600   3.635   3.029   2.395  0.9257 -0.7136 -1.2445
  523MOL0     H70601   3.561   2.648   2.215  1.1627 -0.3843  1.4028
  523MOL0     H70602   3.080   3.441   2.368  1.2896 -0.8251 -1.9451
  523MOL0     H70603   2.810   3.585   2.528 -4.9796 -0.4106 -1.3698
  523MOL0     H70604   2.944   3.631   2.410 -2.0678  1.3249 -3.5473
  523MOL0     H70605   2.779   3.613   2.361 -2.8700 -1.0151  1.7390
  524MOL0     O70606   8.058   4.054   5.195 -0.1001 -0.1972  0.3558
  524MOL0     C70607   7.994   4.026   5.094 -0.0706 -0.2305 -0.1420
  524MOL0     O70608   8.041   3.968   4.980 -0.0991  0.0947 -0.0137
  524MOL0     C70609   8.165   3.909   5.002 -0.8818  0.1378 -0.2262
  524MOL0     C70610   8.173   3.772   5.029 -0.3703 -0.1266 -0.2229
  524MOL0     C70611   8.292   3.704   5.022 -0.4714  0.0546  0.5091
  524MOL0     C70612   8.410   3.780   5.012  0.0932  0.4811 -0.4474
  524MOL0     O70613   8.527   3.709   5.009 -0.4726 -0.0657  0.2226
  524MOL0     C70614   8.593   3.720   4.878 -0.7454 -0.0192 -1.4070
  524MOL0     C70615   8.738   3.670   4.878  0.3544  0.0042 -0.0345
  524MOL0     C70616   8.744   3.519   4.873  0.0585 -0.0305  0.0571
  524MOL0     C70617   8.887   3.464   4.817 -0.0684 -0.0680 -0.3276
  524MOL0     C70618   8.885   3.311   4.828  0.0903 -0.0656  0.7134
  524MOL0     C70619   9.002   3.245   4.751 -0.0788  0.0176 -1.0653
  524MOL0     C70620   8.988   3.095   4.714  0.2949  0.0651  0.0257
  524MOL0     C70621   9.114   3.035   4.651 -0.3354  0.0719  0.2780
  524MOL0     N70622   9.095   2.898   4.603  0.1306  0.0036 -0.6674
  524MOL0     C70623   9.187   2.826   4.533  1.1303 -0.0945 -0.7713
  524MOL0     C70624   9.135   2.704   4.516  0.0815  0.0945 -0.7211
  524MOL0     C70625   9.192   2.576   4.454 -0.4703 -0.1845 -0.5515
  524MOL0     C70626   9.343   2.566   4.474 -0.0909  0.4351 -0.0126
  524MOL0     C70627   9.396   2.423   4.462  0.6010 -0.0233 -0.1452
  524MOL0     C70628   9.553   2.432   4.482 -0.0570  0.4663 -0.2615
  524MOL0     O70629   9.629   2.515   4.390  0.2788 -0.1881 -0.3102
  524MOL0     C70630   9.766   2.522   4.390  0.2781  0.2946  0.3340
  524MOL0     C70631   9.826   2.619   4.310  0.1279  0.2930  0.3647
  524MOL0     C70632   9.962   2.633   4.310  0.5012 -0.0915 -0.6044
  524MOL0     C70633  10.046   2.559   4.384 -0.6696  0.7117  0.3171
  524MOL0     C70634  10.198   2.585   4.373  0.8758 -0.7720 -0.1736
  524MOL0     O70635  10.274   2.475   4.398 -0.3750 -0.3906  0.0458
  524MOL0     C70636  10.412   2.491   4.405 -0.1898 -0.5029  0.0738
  524MOL0     C70637  10.477   2.448   4.519 -0.0871  0.0442  0.6790
  524MOL0     C70638  10.617   2.463   4.530 -0.6259 -0.4593  0.2061
  524MOL0     C70639  10.696   2.531   4.437  0.2255  0.4761 -0.4871
  524MOL0     O70640  10.831   2.518   4.451  0.2794 -0.1872 -0.0255
  524MOL0     C70641  10.922   2.540   4.341 -0.3794  0.3577 -0.4689
  524MOL0     C70642  11.059   2.498   4.385 -0.1834 -0.5870 -0.1839
  524MOL0     C70643  11.161   2.533   4.276  0.1354 -0.2892 -0.4724
  524MOL0     C70644  11.271   2.431   4.268 -0.3540  0.4679  0.1692
  524MOL0     C70645  11.381   2.477   4.170 -0.1222  0.4626 -0.1918
  524MOL0     C70646  11.499   2.383   4.185 -0.2438 -0.1335  0.7933
  524MOL0     C70647  11.618   2.436   4.101 -0.0334 -0.6143 -0.5291
  524MOL0     C70648  11.746   2.352   4.098 -0.1347 -0.2488 -0.0856
  524MOL0    Cl70649  11.840   2.325   4.259  0.0587  0.0734 -0.3181
  524MOL0     C70650  10.632   2.582   4.321  0.8515 -0.0347  0.3302
  524MOL0     C70651  10.490   2.549   4.305 -0.3004  0.1062 -0.6569
  524MOL0     O70652  10.229   2.699   4.347 -0.6912  0.0726  0.2995
  524MOL0     C70653   9.996   2.461   4.465  0.1767  0.3247  0.5033
  524MOL0     C70654   9.856   2.435   4.461  0.6814  0.0114 -0.4343
  524MOL0     N70655   9.009   2.701   4.581  0.1827  0.6794  0.4036
  524MOL0     N70656   8.991   2.814   4.636  0.1700  0.4712  0.2161
  524MOL0     C70657   8.409   3.917   4.988 -0.7235  0.1242 -0.8369
  524MOL0     C70658   8.282   3.979   4.982 -0.2816 -0.9463  0.3951
  524MOL0     C70659   7.846   4.046   5.110 -0.4523 -0.4276  0.0768
  524MOL0     C70660   7.755   3.957   5.043  0.4106  0.0198 -0.9595
  524MOL0     C70661   7.616   3.980   5.038  0.5158 -0.5318  0.6172
  524MOL0     C70662   7.563   4.086   5.111 -0.8892  0.1896 -0.3826
  524MOL0     O70663   7.423   4.105   5.099  0.0501 -0.4155  0.1823
  524MOL0     C70664   7.360   4.198   5.182 -0.2407 -0.2162  0.4833
  524MOL0     C70665   7.224   4.244   5.117  1.1653  0.5996  0.1259
  524MOL0     C70666   7.126   4.115   5.108 -0.6495 -0.9038  0.9900
  524MOL0     C70667   7.089   4.048   5.239 -0.2044  0.0216  0.1245
  524MOL0     C70668   6.993   3.946   5.218 -0.4130 -0.0411  0.4943
  524MOL0     C70669   6.920   3.868   5.172  0.2692 -0.6064 -0.9076
  524MOL0     C70670   7.653   4.160   5.188 -1.1559 -0.3849 -0.4395
  524MOL0     C70671   7.791   4.147   5.194 -0.8922  0.6802  0.6866
  524MOL0     C70672   7.870   4.248   5.273 -0.2001 -0.0583 -0.0432
  524MOL0     H70673   8.072   3.736   5.046 -0.8403  1.5796  0.8511
  524MOL0     H70674   8.308   3.598   5.035 -0.4024 -0.4997 -2.9762
  524MOL0     H70675   8.545   3.665   4.796 -1.9149 -0.8676 -0.1930
  524MOL0     H70676   8.602   3.826   4.853  1.1341  0.2646  0.2710
  524MOL0     H70677   8.787   3.711   4.967 -0.1878  3.3941 -1.1573
  524MOL0     H70678   8.790   3.707   4.790  1.3862 -0.1830  0.4805
  524MOL0     H70679   8.666   3.480   4.808 -0.9730 -1.8916  2.2816
  524MOL0     H70680   8.719   3.472   4.968  3.0196  1.2286  1.6200
  524MOL0     H70681   8.897   3.483   4.710 -0.6931 -2.1802 -0.8099
  524MOL0     H70682   8.964   3.504   4.882 -1.9732  0.1325  1.9450
  524MOL0     H70683   8.877   3.277   4.932  1.0640 -0.2831  0.7311
  524MOL0     H70684   8.798   3.273   4.774  1.8660 -0.5248 -2.0318
  524MOL0     H70685   9.019   3.295   4.656  1.1577 -0.4312 -1.1064
  524MOL0     H70686   9.099   3.250   4.802 -0.6118 -2.1714  0.3199
  524MOL0     H70687   8.898   3.079   4.654  0.5539 -1.5923  0.0408
  524MOL0     H70688   8.973   3.042   4.808 -1.6929 -0.6244 -0.6310
  524MOL0     H70689   9.137   3.091   4.560 -1.2282  1.2899  0.7752
  524MOL0     H70690   9.198   3.040   4.721 -0.2289  1.7471  0.0710
  524MOL0     H70691   9.283   2.862   4.497  1.9468  0.5773  1.8789
  524MOL0     H70692   9.145   2.491   4.506  0.3843  0.3358  1.1579
  524MOL0     H70693   9.172   2.580   4.347 -1.4233  2.7931 -0.3498
  524MOL0     H70694   9.389   2.618   4.390 -2.4795  0.7518 -1.1904
  524MOL0     H70695   9.382   2.616   4.563 -0.5424 -0.1622  0.5316
  524MOL0     H70696   9.376   2.382   4.362  0.6057 -3.7302  1.2232
  524MOL0     H70697   9.343   2.356   4.530  1.8616 -0.3011  0.5884
  524MOL0     H70698   9.590   2.330   4.468 -0.3695  0.2489  0.4867
  524MOL0     H70699   9.580   2.459   4.584 -0.0257 -0.1412 -0.1030
  524MOL0     H70700   9.768   2.675   4.237  0.7114  1.3092  0.6600
  524MOL0     H70701  10.012   2.704   4.245 -0.5140  1.0181 -0.1953
  524MOL0     H70702  10.421   2.401   4.599  0.4073  0.6769  1.4046
  524MOL0     H70703  10.670   2.438   4.621  1.8507  2.2241 -0.3467
  524MOL0     H70704  10.888   2.483   4.254  0.1246 -0.0254 -0.4193
  524MOL0     H70705  10.916   2.646   4.314 -0.6333  0.0227 -1.7708
  524MOL0     H70706  11.084   2.550   4.478 -1.2264  1.0861 -0.7990
  524MOL0     H70707  11.068   2.392   4.410  0.4851 -0.3134  0.8132
  524MOL0     H70708  11.110   2.531   4.179 -1.8863 -0.0958  0.5387
  524MOL0     H70709  11.196   2.636   4.291 -0.8346 -0.1498  0.9815
  524MOL0     H70710  11.232   2.333   4.237  1.3813  0.5258 -2.4702
  524MOL0     H70711  11.311   2.421   4.370 -1.0644 -2.9494  0.2514
  524MOL0     H70712  11.403   2.579   4.202  1.6101  0.0697 -0.0361
  524MOL0     H70713  11.337   2.486   4.071 -0.3403 -0.7836 -0.2155
  524MOL0     H70714  11.532   2.385   4.290 -0.9302 -1.5527  1.0557
  524MOL0     H70715  11.476   2.278   4.170  2.2023 -0.6534  0.1741
  524MOL0     H70716  11.643   2.540   4.125  1.6754 -0.8708 -1.0334
  524MOL0     H70717  11.582   2.449   3.998  0.7005 -2.0831 -1.0023
  524MOL0     H70718  11.708   2.255   4.065 -2.1535  0.2564  0.6548
  524MOL0     H70719  11.815   2.400   4.028  0.0844 -0.7829 -0.2434
  524MOL0     H70720  10.675   2.639   4.240 -0.4639  1.6411  0.7540
  524MOL0     H70721  10.441   2.579   4.213  0.0841 -0.9478 -1.2192
  524MOL0     H70722  10.061   2.395   4.523 -1.1072 -1.6456 -0.2162
  524MOL0     H70723   9.808   2.356   4.517 -4.8723  1.9924 -1.7402
  524MOL0     H70724   8.502   3.971   4.974  0.2043 -1.0894  0.4583
  524MOL0     H70725   8.272   4.086   4.967  2.8950 -0.5487  0.5044
  524MOL0     H70726   7.794   3.865   5.001  0.5612 -1.5104  2.2056
  524MOL0     H70727   7.547   3.911   4.991 -0.3921  1.0905 -0.5243
  524MOL0     H70728   7.413   4.293   5.194 -0.8103 -0.0917  2.2035
  524MOL0     H70729   7.357   4.167   5.287 -1.2041  1.5070  1.0092
  524MOL0     H70730   7.231   4.300   5.024  0.0662  0.4581 -0.0466
  524MOL0     H70731   7.175   4.311   5.188 -1.2164 -0.8867 -0.0047
  524MOL0     H70732   7.167   4.036   5.045 -0.9293 -1.5399  1.5892
  524MOL0     H70733   7.033   4.153   5.065  0.1438  2.7737  2.1639
  524MOL0     H70734   7.182   4.007   5.281  0.9258  2.1152 -0.2170
  524MOL0     H70735   7.048   4.123   5.308 -0.4007 -0.9449  1.0959
  524MOL0     H70736   6.862   3.787   5.132 -2.0425  1.6839 -2.4857
  524MOL0     H70737   7.613   4.248   5.238 -0.9476 -0.1947 -0.6079
  524MOL0     H70738   7.798   4.317   5.318 -1.8571 -2.2275  0.8036
  524MOL0     H70739   7.917   4.200   5.359 -1.0717  2.4485  1.9399
  524MOL0     H70740   7.939   4.308   5.213 -1.1946 -0.4211 -1.6219
  525MOL0     O70741   3.038   4.885  10.564  0.4641  0.5110 -0.1457
  525MOL0     C70742   3.011   4.783  10.624 -0.8260 -0.7750  1.0173
  525MOL0     O70743   3.099   4.721  10.703  0.4095  0.5061 -0.3556
  525MOL0     C70744   3.232   4.751  10.713 -0.0953  0.2660 -0.5875
  525MOL0     C70745   3.288   4.867  10.781  0.7412  0.6854  0.3790
  525MOL0     C70746   3.423   4.881  10.795 -0.3894  0.2401  0.4538
  525MOL0     C70747   3.505   4.786  10.723  0.7112 -0.4393 -0.1417
  525MOL0     O70748   3.642   4.784  10.732  0.0676  0.7499 -0.1709
  525MOL0     C70749   3.715   4.902  10.754 -0.3886 -0.0152  0.0304
  525MOL0     C70750   3.877   4.876  10.766  0.5066 -0.4021  0.2042
  525MOL0     C70751   3.951   5.014  10.781  0.7536 -0.3478  0.5610
  525MOL0     C70752   4.095   4.997  10.727  0.3612  0.9426  0.1888
  525MOL0     C70753   4.166   5.142  10.717  0.1869  0.4762 -0.6142
  525MOL0     C70754   4.306   5.119  10.656 -0.9171 -0.0646 -0.4935
  525MOL0     C70755   4.387   5.251  10.635 -0.1988 -0.5335 -0.0624
  525MOL0     C70756   4.430   5.306  10.773  0.4283 -0.5398 -1.4530
  525MOL0     N70757   4.488   5.437  10.746 -0.3020  0.4873 -0.8352
  525MOL0     C70758   4.622   5.474  10.738  0.5405  0.2750 -0.8621
  525MOL0     C70759   4.608   5.604  10.701 -0.9254 -0.2921 -0.0625
  525MOL0     C70760   4.718   5.695  10.666  0.5341 -0.1235  0.2350
  525MOL0     C70761   4.799   5.654  10.543  0.3258 -0.1873  0.2543
  525MOL0     C70762   4.913   5.751  10.510  1.0225  0.3131  0.4691
  525MOL0     C70763   4.987   5.775  10.640 -0.0943 -0.2402 -0.1328
  525MOL0     O70764   5.115   5.828  10.600  0.3114  0.2870 -0.0874
  525MOL0     C70765   5.219   5.824  10.685 -0.2697 -0.8471 -0.3458
  525MOL0     C70766   5.339   5.871  10.628  0.2159 -0.1621 -0.3372
  525MOL0     C70767   5.454   5.883  10.693  0.0512 -0.0790 -0.6921
  525MOL0     C70768   5.455   5.856  10.832  0.3868  0.0796 -0.0865
  525MOL0     C70769   5.587   5.857  10.909 -0.0224  0.2463 -1.0096
  525MOL0     O70770   5.695   5.891  10.830  0.7241  0.5019 -1.4420
  525MOL0     C70771   5.814   5.890  10.902 -0.0233  0.4396  0.5920
  525MOL0     C70772   5.895   6.001  10.882 -0.1598  0.0597 -0.4155
  525MOL0     C70773   6.016   6.007  10.936 -0.0834  1.0652  0.0083
  525MOL0     C70774   6.074   5.895  11.007 -0.3942  0.6408 -1.2422
  525MOL0     O70775   6.192   5.889  11.072  0.1673 -0.1651  0.6791
  525MOL0     C70776   6.285   6.001  11.067  0.0039  0.0638  0.1289
  525MOL0     C70777   6.419   5.975  11.134 -0.4635 -0.9731 -0.3993
  525MOL0     C70778   6.510   6.092  11.102  0.1235 -0.3787 -0.6472
  525MOL0     C70779   6.650   6.071  11.151  0.2396 -0.2405 -0.3038
  525MOL0     C70780   6.757   6.167  11.090 -1.3230  0.2440  0.0282
  525MOL0     C70781   6.749   6.318  11.105  0.0854 -0.5635  0.3713
  525MOL0     C70782   6.882   6.387  11.075  0.4521 -0.4332  0.3156
  525MOL0     C70783   6.998   6.363  11.174 -0.5615  0.1136 -0.0369
  525MOL0    Cl70784   6.959   6.307  11.339 -0.3151  0.0077 -0.0118
  525MOL0     C70785   5.992   5.785  11.023 -0.2000 -0.3085  0.3346
  525MOL0     C70786   5.862   5.779  10.968 -0.0825  0.6627  0.4702
  525MOL0     O70787   5.592   5.826  11.027  0.0797  0.5676 -0.7391
  525MOL0     C70788   5.340   5.816  10.902  0.8948 -0.6646  0.1760
  525MOL0     C70789   5.221   5.801  10.822 -0.5621 -0.4649 -0.8308
  525MOL0     N70790   4.478   5.651  10.691  0.0951  0.3028 -0.0805
  525MOL0     N70791   4.411   5.544  10.714  0.0459 -0.1623  0.2161
  525MOL0     C70792   3.452   4.684  10.650  0.3580  0.0278  0.3961
  525MOL0     C70793   3.318   4.659  10.644  0.0044 -0.2372 -0.4168
  525MOL0     C70794   2.877   4.723  10.625  0.5606  0.3467 -0.3779
  525MOL0     C70795   2.862   4.603  10.692  0.3185  0.7192  0.1932
  525MOL0     C70796   2.740   4.544  10.713 -0.0865 -1.3076 -0.4596
  525MOL0     C70797   2.628   4.592  10.664  0.2514 -0.6641  0.5915
  525MOL0     O70798   2.516   4.512  10.667  0.8675  0.1839 -0.5166
  525MOL0     C70799   2.446   4.507  10.790  0.0667 -0.2326 -0.6457
  525MOL0     C70800   2.321   4.418  10.764  0.0477 -0.7941 -0.6231
  525MOL0     C70801   2.211   4.490  10.694  1.5038 -0.7345 -0.0932
  525MOL0     C70802   2.254   4.526  10.547 -0.6210  0.0630  0.1855
  525MOL0     C70803   2.140   4.514  10.448  1.0079 -0.8230 -0.1130
  525MOL0     C70804   2.047   4.484  10.371 -0.0060 -0.5627  0.4981
  525MOL0     C70805   2.636   4.703  10.581 -0.0197  0.4835  0.6610
  525MOL0     C70806   2.761   4.766  10.568  1.1062  0.7253  0.2462
  525MOL0     C70807   2.759   4.896  10.488  1.0851  0.6664 -0.3437
  525MOL0     H70808   3.223   4.943  10.824 -3.2672 -2.8586  1.2284
  525MOL0     H70809   3.467   4.961  10.855  0.8428 -1.3127  1.7168
  525MOL0     H70810   3.694   4.973  10.673 -1.2487  0.9470  1.0597
  525MOL0     H70811   3.684   4.941  10.852 -1.7496 -1.6815  0.3106
  525MOL0     H70812   3.910   4.824  10.676  1.1282  0.7229 -0.2287
  525MOL0     H70813   3.904   4.808  10.847 -0.6020 -2.0755 -0.7609
  525MOL0     H70814   3.946   5.038  10.888  0.5854  0.4356  0.3843
  525MOL0     H70815   3.890   5.090  10.730 -1.0890 -0.0995  2.9650
  525MOL0     H70816   4.148   4.933  10.798 -1.8761 -1.5633 -0.2324
  525MOL0     H70817   4.098   4.952  10.628 -2.1876 -0.1339  0.5285
  525MOL0     H70818   4.104   5.203  10.651 -1.1171 -1.1906 -1.0146
  525MOL0     H70819   4.168   5.177  10.820 -0.9724 -0.3312 -0.2900
  525MOL0     H70820   4.364   5.047  10.714 -2.9484 -0.6489  0.9647
  525MOL0     H70821   4.293   5.077  10.556  0.8319  2.1813 -1.7286
  525MOL0     H70822   4.318   5.324  10.591 -0.9093 -1.1762 -0.0297
  525MOL0     H70823   4.479   5.238  10.577 -0.2456  2.2548 -0.9149
  525MOL0     H70824   4.344   5.295  10.841  1.0537 -1.0439 -0.7189
  525MOL0     H70825   4.504   5.241  10.820 -0.7030 -0.0761  1.1558
  525MOL0     H70826   4.716   5.421  10.756  0.2573 -0.4272 -1.3844
  525MOL0     H70827   4.674   5.795  10.653 -2.8014 -1.5873 -0.8310
  525MOL0     H70828   4.786   5.702  10.751 -1.9104  0.4793  2.2803
  525MOL0     H70829   4.851   5.559  10.559  1.8319  0.0068 -2.7281
  525MOL0     H70830   4.728   5.645  10.460  0.4497  0.0487  0.1215
  525MOL0     H70831   4.875   5.849  10.479  0.7458  0.5436  1.5096
  525MOL0     H70832   4.984   5.724  10.430 -0.0481 -0.0235 -0.3983
  525MOL0     H70833   5.008   5.687  10.701  1.5775 -0.4187 -0.8967
  525MOL0     H70834   4.934   5.849  10.701  0.5298  0.5942 -0.5847
  525MOL0     H70835   5.348   5.893  10.522 -1.4465 -2.0993 -0.9508
  525MOL0     H70836   5.542   5.915  10.638  0.3272  1.7301  0.6960
  525MOL0     H70837   5.857   6.089  10.831 -2.1565  1.4708  3.1590
  525MOL0     H70838   6.066   6.103  10.930  0.3827  0.8954  0.9327
  525MOL0     H70839   6.300   6.033  10.963 -0.9833 -0.7104 -0.2766
  525MOL0     H70840   6.237   6.086  11.117  0.1010 -1.4807  3.0617
  525MOL0     H70841   6.407   5.955  11.241 -0.8181  0.8576 -0.0576
  525MOL0     H70842   6.463   5.887  11.087 -0.4167 -1.0450 -0.2207
  525MOL0     H70843   6.517   6.092  10.993  1.3507 -1.1121 -0.5885
  525MOL0     H70844   6.469   6.188  11.134  5.4129  1.2165  2.7285
  525MOL0     H70845   6.674   5.967  11.131 -0.0958 -0.5308  0.7144
  525MOL0     H70846   6.653   6.088  11.259 -0.7660  1.2177 -0.4805
  525MOL0     H70847   6.762   6.152  10.981  1.5733  2.1098 -0.1954
  525MOL0     H70848   6.852   6.128  11.128 -3.2231 -3.6770  1.3511
  525MOL0     H70849   6.668   6.344  11.036 -0.7752 -3.0818  0.3348
  525MOL0     H70850   6.728   6.357  11.205  0.3618  1.3982 -0.2908
  525MOL0     H70851   6.878   6.496  11.069 -0.7733 -0.4936 -0.2392
  525MOL0     H70852   6.908   6.352  10.975  2.1291  2.0075 -0.1998
  525MOL0     H70853   7.066   6.289  11.131  1.2838  1.4090  0.5359
  525MOL0     H70854   7.056   6.454  11.195 -0.7266  0.1002  0.4918
  525MOL0     H70855   6.023   5.696  11.077 -0.2552  0.1376  1.1178
  525MOL0     H70856   5.812   5.684  10.959  2.7320 -0.8707 -0.2446
  525MOL0     H70857   5.343   5.787  11.006 -0.4807 -1.3506  0.0483
  525MOL0     H70858   5.129   5.761  10.864  0.7901 -2.0058  0.7878
  525MOL0     H70859   3.514   4.612  10.596 -0.1768  0.2313 -0.5177
  525MOL0     H70860   3.281   4.566  10.603  0.2002 -0.7920  0.6252
  525MOL0     H70861   2.937   4.552  10.751 -0.4825 -2.2156 -1.1477
  525MOL0     H70862   2.738   4.453  10.772 -1.1109 -1.2440 -0.3832
  525MOL0     H70863   2.434   4.609  10.827 -0.2541  0.0429 -1.4832
  525MOL0     H70864   2.501   4.440  10.857 -3.0559 -3.5541 -1.0843
  525MOL0     H70865   2.295   4.387  10.866  0.9143 -0.3798 -0.2687
  525MOL0     H70866   2.358   4.324  10.721  1.0310 -1.0060  0.6287
  525MOL0     H70867   2.179   4.580  10.747  0.5632 -1.3507  0.4029
  525MOL0     H70868   2.116   4.437  10.687 -0.4135  2.4447 -0.3788
  525MOL0     H70869   2.293   4.628  10.539 -0.7509  0.2261  1.3548
  525MOL0     H70870   2.343   4.468  10.524  2.1945  3.3803  1.7085
  525MOL0     H70871   1.966   4.471  10.303  0.0126  3.7077 -0.6136
  525MOL0     H70872   2.545   4.733  10.530 -0.4305  0.9911  1.6600
  525MOL0     H70873   2.838   4.882  10.414  2.2040  0.7589  0.7944
  525MOL0     H70874   2.665   4.901  10.434  1.3473 -3.4237 -1.5018
  525MOL0     H70875   2.765   4.986  10.550 -3.3473  0.7630  0.2154
  526MOL0     O70876  10.929   7.964  10.504 -0.4997 -0.6224 -0.0511
  526MOL0     C70877  10.862   7.947  10.603 -0.5373  0.6387 -0.7557
  526MOL0     O70878  10.912   7.917  10.730  0.0887  0.2255 -0.4073
  526MOL0     C70879  11.047   7.890  10.742  0.2460 -0.9762  0.2809
  526MOL0     C70880  11.157   7.972  10.764  0.4553  0.0387 -0.9251
  526MOL0     C70881  11.281   7.921  10.787  0.0323 -0.3329  0.7860
  526MOL0     C70882  11.303   7.783  10.771  0.4855 -1.2007 -0.8026
  526MOL0     O70883  11.432   7.755  10.798  0.1221  0.3299 -0.6606
  526MOL0     C70884  11.483   7.619  10.784  0.2254 -0.7781  0.3214
  526MOL0     C70885  11.632   7.611  10.827 -0.3464 -0.2186  0.6504
  526MOL0     C70886  11.733   7.684  10.734 -0.2400 -0.0563 -0.4381
  526MOL0     C70887  11.865   7.689  10.807 -0.0861 -0.3590 -0.0450
  526MOL0     C70888  11.982   7.745  10.720 -0.0805  0.5412 -0.3179
  526MOL0     C70889  12.100   7.796  10.799 -0.4744 -0.7428 -0.2439
  526MOL0     C70890  12.204   7.865  10.716 -0.7806  0.2962  1.1329
  526MOL0     C70891  12.311   7.933  10.798  0.6544 -0.1802  0.3339
  526MOL0     N70892  12.411   7.839  10.847 -1.1966 -0.5714  0.3702
  526MOL0     C70893  12.496   7.755  10.778  1.3403  0.4508  0.0747
  526MOL0     C70894  12.563   7.693  10.875 -0.0667  0.1868  0.0133
  526MOL0     C70895  12.652   7.571  10.854  0.1941  0.7044  0.3309
  526MOL0     C70896  12.600   7.451  10.932 -0.3242  0.0628 -0.1996
  526MOL0     C70897  12.668   7.317  10.914  0.1464 -0.7798  0.6313
  526MOL0     C70898  12.804   7.305  11.001  0.4648 -0.6799  0.1807
  526MOL0     O70899  12.917   7.391  10.955  0.3572  0.0485  0.0389
  526MOL0     C70900  13.040   7.380  11.020  0.5654  0.3221 -1.8601
  526MOL0     C70901  13.143   7.457  10.971  0.1831  0.6438 -0.6435
  526MOL0     C70902  13.270   7.465  11.022 -0.0949 -0.7202 -0.5808
  526MOL0     C70903  13.302   7.386  11.131  0.4640 -0.2505 -0.5442
  526MOL0     C70904  13.441   7.364  11.164 -0.0119 -0.3927  0.2717
  526MOL0     O70905  13.532   7.429  11.080 -0.0372  0.3364  0.5331
  526MOL0     C70906  13.669   7.417  11.108 -0.5721  0.5107 -0.2932
  526MOL0     C70907  13.744   7.526  11.105 -0.3109  0.3225 -0.2130
  526MOL0     C70908  13.888   7.523  11.123  0.5189 -0.0059  0.4696
  526MOL0     C70909  13.954   7.398  11.138 -0.4777  0.0307 -0.2875
  526MOL0     O70910  14.091   7.388  11.168 -0.1251  1.0340  0.0113
  526MOL0     C70911  14.183   7.467  11.089  0.1262 -0.1655  0.5676
  526MOL0     C70912  14.198   7.413  10.941 -0.6780  0.4803  0.2165
  526MOL0     C70913  14.322   7.473  10.867 -0.5714 -0.0959  0.0378
  526MOL0     C70914  14.378   7.375  10.765 -0.2808 -1.0443  0.1200
  526MOL0     C70915  14.458   7.421  10.646 -0.3472  0.4586 -0.2523
  526MOL0     C70916  14.598   7.475  10.676 -0.1979 -1.0477 -0.3382
  526MOL0     C70917  14.695   7.394  10.761 -0.2778 -0.2416 -0.0461
  526MOL0     C70918  14.840   7.445  10.749 -0.9665  0.5322 -0.2008
  526MOL0    Cl70919  14.900   7.430  10.584 -0.1067 -0.0673 -0.1130
  526MOL0     C70920  13.872   7.291  11.128 -0.0092 -0.0577 -0.4311
  526MOL0     C70921  13.730   7.292  11.114 -0.8893  0.1323  0.1343
  526MOL0     O70922  13.468   7.289  11.255 -0.4189 -0.0504 -0.7194
  526MOL0     C70923  13.198   7.306  11.185 -0.6962 -0.1098 -0.4988
  526MOL0     C70924  13.064   7.298  11.137  0.6831  0.4714  0.0288
  526MOL0     N70925  12.521   7.746  11.001  0.0564 -0.4753 -0.1084
  526MOL0     N70926  12.435   7.833  10.979 -0.3990  0.0782  0.2822
  526MOL0     C70927  11.191   7.699  10.744 -0.9027  0.4416  0.0820
  526MOL0     C70928  11.060   7.757  10.735 -0.1474  0.5948  0.4441
  526MOL0     C70929  10.715   7.952  10.582 -0.1006  0.0573 -0.7502
  526MOL0     C70930  10.641   7.950  10.706  0.1584  0.8476  0.0980
  526MOL0     C70931  10.506   7.938  10.706  0.5763  0.4036  0.6814
  526MOL0     C70932  10.433   7.956  10.591  0.0080  0.2185 -0.6921
  526MOL0     O70933  10.295   7.958  10.587  0.8216  0.4229 -0.0339
  526MOL0     C70934  10.220   7.951  10.712  0.5983 -0.4772  0.6401
  526MOL0     C70935  10.071   7.995  10.716 -0.4623 -0.5552 -0.4149
  526MOL0     C70936   9.984   7.929  10.611  0.0415  0.3986  0.2824
  526MOL0     C70937  10.019   7.961  10.464  0.2213 -0.4365 -0.3503
  526MOL0     C70938  10.050   8.101  10.441  0.5263 -0.1909  0.2163
  526MOL0     C70939  10.049   8.220  10.412  0.6930 -0.0937 -1.1768
  526MOL0     C70940  10.505   7.964  10.464 -0.4817 -0.2898  0.0333
  526MOL0     C70941  10.646   7.963  10.460 -0.1163 -0.6009 -0.4193
  526MOL0     C70942  10.712   7.953  10.329 -0.1744  0.7261 -0.0497
  526MOL0     H70943  11.123   8.074  10.781 -5.3914 -1.4908 -1.0795
  526MOL0     H70944  11.360   7.991  10.810 -1.0849  2.0273 -1.8991
  526MOL0     H70945  11.427   7.545  10.842  2.6348 -1.8634  1.4290
  526MOL0     H70946  11.474   7.584  10.681  0.5919 -0.3235  0.1280
  526MOL0     H70947  11.651   7.504  10.818 -2.6140 -0.5121 -2.7122
  526MOL0     H70948  11.643   7.641  10.931  0.4238 -1.7876  1.0528
  526MOL0     H70949  11.707   7.787  10.708 -2.2281 -0.6325 -0.8643
  526MOL0     H70950  11.756   7.627  10.643 -0.1941  0.9200 -1.0500
  526MOL0     H70951  11.850   7.759  10.890  1.2283  0.0089 -0.0896
  526MOL0     H70952  11.890   7.596  10.860 -0.8132  0.3889  1.6790
  526MOL0     H70953  12.017   7.670  10.649 -2.1923  0.8742 -1.8080
  526MOL0     H70954  11.937   7.820  10.655  1.3712  0.8407 -0.9917
  526MOL0     H70955  12.066   7.871  10.871  1.2018 -0.5949  0.4268
  526MOL0     H70956  12.152   7.714  10.849 -1.1017 -0.7955  0.3274
  526MOL0     H70957  12.158   7.945  10.657 -0.6617  0.8847  1.8180
  526MOL0     H70958  12.240   7.796  10.639 -1.9581  0.2898  0.5593
  526MOL0     H70959  12.360   8.012  10.739 -0.1433 -1.2264 -1.8721
  526MOL0     H70960  12.252   7.982  10.875 -2.6468  2.4057 -3.3931
  526MOL0     H70961  12.497   7.733  10.672  3.2876  0.4523  0.0595
  526MOL0     H70962  12.666   7.542  10.749 -1.7125 -1.4751  0.5785
  526MOL0     H70963  12.752   7.604  10.884  1.2530 -1.3015 -0.7157
  526MOL0     H70964  12.614   7.469  11.039  1.8504  1.5022 -0.6681
  526MOL0     H70965  12.492   7.448  10.915 -0.3628  0.4460 -0.0430
  526MOL0     H70966  12.695   7.309  10.808 -0.2298 -0.3560  0.5026
  526MOL0     H70967  12.602   7.235  10.943 -2.9122  1.1360 -0.4931
  526MOL0     H70968  12.854   7.208  11.006  2.1319  0.1486  0.1524
  526MOL0     H70969  12.776   7.328  11.104 -0.4061  0.8853 -0.3802
  526MOL0     H70970  13.117   7.535  10.899  1.1729  2.0132  0.4275
  526MOL0     H70971  13.342   7.531  10.977 -1.6033  2.3447  1.1741
  526MOL0     H70972  13.704   7.627  11.105  0.7413  0.7931  1.5509
  526MOL0     H70973  13.943   7.615  11.138 -1.3144  1.0866  0.8781
  526MOL0     H70974  14.156   7.573  11.084 -4.5347 -1.1023  1.2146
  526MOL0     H70975  14.275   7.466  11.148 -0.8702  1.1979  2.2429
  526MOL0     H70976  14.212   7.305  10.941 -0.4867  0.4900 -0.7986
  526MOL0     H70977  14.112   7.443  10.881  1.0825  1.4767 -1.9580
  526MOL0     H70978  14.282   7.553  10.804 -0.5307  1.7147  2.1832
  526MOL0     H70979  14.390   7.521  10.937 -1.7115 -2.7108  3.2034
  526MOL0     H70980  14.296   7.322  10.716 -1.6798  0.3739  0.8625
  526MOL0     H70981  14.437   7.303  10.822 -0.0921 -0.2564  0.9477
  526MOL0     H70982  14.394   7.494  10.596 -1.1563 -1.6234 -2.3993
  526MOL0     H70983  14.476   7.338  10.578 -1.4120 -1.9728  2.2699
  526MOL0     H70984  14.645   7.502  10.581 -0.6455  0.0515 -0.2593
  526MOL0     H70985  14.570   7.565  10.732 -0.4168 -0.2870 -1.6414
  526MOL0     H70986  14.683   7.290  10.728 -1.9435  1.1390 -4.4181
  526MOL0     H70987  14.669   7.399  10.867  0.2111  1.3215  0.0227
  526MOL0     H70988  14.837   7.548  10.786 -1.9981  0.5686 -0.3437
  526MOL0     H70989  14.898   7.392  10.825 -0.2142 -0.4744 -1.4334
  526MOL0     H70990  13.930   7.201  11.146  1.2290  1.2317  2.8492
  526MOL0     H70991  13.682   7.195  11.119  2.8859 -1.9357  0.2552
  526MOL0     H70992  13.229   7.250  11.273 -1.1741  2.4746  1.4696
  526MOL0     H70993  12.992   7.226  11.172  1.1622 -1.3736 -2.5074
  526MOL0     H70994  11.204   7.591  10.741  3.2228  0.7402  1.1847
  526MOL0     H70995  10.990   7.677  10.715  1.5750 -0.6752 -0.7600
  526MOL0     H70996  10.688   7.941  10.803  1.8716 -2.8502 -0.8605
  526MOL0     H70997  10.456   7.923  10.801 -2.7063 -0.2060 -0.9578
  526MOL0     H70998  10.267   8.020  10.783 -1.5917  1.5086  0.2808
  526MOL0     H70999  10.233   7.849  10.749  0.9148 -1.6094 -2.3584
  526MOL0     H71000  10.061   8.102  10.696 -1.3617 -0.7620 -1.1385
  526MOL0     H71001  10.042   7.973  10.819  2.6704  1.7726  1.1695
  526MOL0     H71002   9.876   7.940  10.614 -0.4770 -3.2684  0.1727
  526MOL0     H71003  10.003   7.821  10.618  1.4187  0.5837 -0.1547
  526MOL0     H71004  10.113   7.913  10.435 -0.6022 -1.6942 -1.0299
  526MOL0     H71005   9.944   7.933  10.390  0.3676  2.1906 -1.6161
  526MOL0     H71006  10.043   8.326  10.400  0.9250  0.1861  0.8877
  526MOL0     H71007  10.446   7.979  10.375 -0.6213  1.1190  0.3395
  526MOL0     H71008  10.632   7.941  10.255 -0.4903  2.1357  0.0285
  526MOL0     H71009  10.769   8.046  10.321  1.5524 -0.2026  0.9074
  526MOL0     H71010  10.785   7.872  10.324  0.0403  0.9998 -4.4366
  527MOL0     O71011   9.524  10.953   4.980 -0.4894 -0.2758  0.1278
  527MOL0     C71012   9.474  11.067   4.959 -0.6738  0.5057  0.0817
  527MOL0     O71013   9.538  11.173   4.917 -0.5674  0.0651  0.3697
  527MOL0     C71014   9.676  11.186   4.907 -0.5866  0.2780 -0.2950
  527MOL0     C71015   9.717  11.246   4.791 -1.7168 -0.7588  0.2403
  527MOL0     C71016   9.855  11.270   4.768 -0.5256  0.0744  0.0150
  527MOL0     C71017   9.950  11.244   4.871  0.0052  0.5179  0.6529
  527MOL0     O71018  10.081  11.273   4.829  0.3172 -0.4390  0.5245
  527MOL0     C71019  10.186  11.221   4.905 -0.9747  0.3206 -0.4394
  527MOL0     C71020  10.313  11.204   4.816  0.6508  0.0954  0.0369
  527MOL0     C71021  10.441  11.203   4.899 -0.5310 -0.4750  0.5379
  527MOL0     C71022  10.565  11.201   4.813  0.6239 -0.1252 -0.5075
  527MOL0     C71023  10.687  11.181   4.900 -0.5978  0.0170  0.2694
  527MOL0     C71024  10.824  11.158   4.826  0.5566  1.3439  0.9509
  527MOL0     C71025  10.850  11.239   4.707 -0.2403 -0.5752 -0.0136
  527MOL0     C71026  10.826  11.387   4.721 -0.0977 -0.2439 -0.5011
  527MOL0     N71027  10.793  11.450   4.597 -0.0890 -0.4834  0.3596
  527MOL0     C71028  10.884  11.480   4.501 -0.3041  0.1517  0.0551
  527MOL0     C71029  10.815  11.542   4.404  0.3099  0.6126  0.0155
  527MOL0     C71030  10.883  11.595   4.284  0.5224 -0.0148  0.1435
  527MOL0     C71031  10.856  11.740   4.294  0.3986  0.2201  0.0785
  527MOL0     C71032  10.720  11.783   4.255  0.6432 -0.2298  0.4088
  527MOL0     C71033  10.660  11.725   4.128  0.1175 -0.1401  0.1812
  527MOL0     O71034  10.548  11.804   4.094 -0.3687  0.0547 -0.4953
  527MOL0     C71035  10.427  11.781   4.152 -0.1237 -0.1352  0.0748
  527MOL0     C71036  10.331  11.877   4.128  0.4468 -0.0837 -0.4841
  527MOL0     C71037  10.199  11.863   4.176  0.1831  0.0006  0.0879
  527MOL0     C71038  10.169  11.759   4.259 -0.5227 -0.2921  0.2341
  527MOL0     C71039  10.034  11.747   4.316  0.6049  0.0492 -0.8010
  527MOL0     O71040   9.948  11.856   4.307  0.1775 -0.1669  0.4753
  527MOL0     C71041   9.817  11.836   4.343  0.6014  0.3593  0.2887
  527MOL0     C71042   9.725  11.907   4.267 -0.3420 -0.1275 -0.4274
  527MOL0     C71043   9.590  11.907   4.301 -0.5095 -0.2448 -0.0338
  527MOL0     C71044   9.548  11.830   4.413  1.3028  0.1165  0.5828
  527MOL0     O71045   9.411  11.819   4.424  0.4141 -0.3152  0.3694
  527MOL0     C71046   9.366  11.700   4.491 -0.0716 -0.0105 -1.0954
  527MOL0     C71047   9.220  11.678   4.484 -0.0792  0.9367 -0.3640
  527MOL0     C71048   9.176  11.642   4.342 -0.8222  0.1788 -0.7776
  527MOL0     C71049   9.026  11.595   4.321  0.0441  0.8257  0.4812
  527MOL0     C71050   8.917  11.671   4.393  0.5454 -0.1264  0.0330
  527MOL0     C71051   8.774  11.637   4.361  0.3322  0.6363 -1.2896
  527MOL0     C71052   8.682  11.715   4.459 -0.1190  0.5725  0.9024
  527MOL0     C71053   8.530  11.685   4.450  0.2519 -0.7544 -0.2527
  527MOL0    Cl71054   8.503  11.518   4.508  0.1994  0.2397  0.0809
  527MOL0     C71055   9.640  11.763   4.492 -0.1912  0.0316 -0.3671
  527MOL0     C71056   9.775  11.768   4.458  0.6257  0.2474 -0.9461
  527MOL0     O71057  10.000  11.640   4.360 -0.3123  0.1406 -0.2607
  527MOL0     C71058  10.267  11.664   4.292  0.3383 -0.0736  0.5192
  527MOL0     C71059  10.392  11.666   4.228  0.5055  0.4909  0.3688
  527MOL0     N71060  10.677  11.547   4.447  0.2608 -0.3745  0.0188
  527MOL0     N71061  10.669  11.491   4.570  0.2568 -0.3281  0.0537
  527MOL0     C71062   9.904  11.177   4.978 -0.2699  0.1214 -1.0843
  527MOL0     C71063   9.768  11.149   5.001 -0.2901  0.7648  0.9964
  527MOL0     C71064   9.334  11.081   4.985 -0.0680  0.5412 -1.1940
  527MOL0     C71065   9.254  11.154   4.891 -0.0743 -0.2038  0.5949
  527MOL0     C71066   9.116  11.181   4.908 -0.1852  0.6180  0.4292
  527MOL0     C71067   9.052  11.117   5.009 -0.2047 -0.4014 -0.6621
  527MOL0     O71068   8.913  11.129   5.030  0.5708  0.0677  0.8875
  527MOL0     C71069   8.840  11.010   4.993  0.2883 -0.7536  0.6352
  527MOL0     C71070   8.685  11.051   5.011  0.0250 -0.2897  0.0489
  527MOL0     C71071   8.638  11.102   5.152 -0.5673 -0.6151  0.0056
  527MOL0     C71072   8.724  11.051   5.268 -0.2741 -0.3309  0.6871
  527MOL0     C71073   8.717  10.904   5.292  0.1778  0.3557 -0.3064
  527MOL0     C71074   8.708  10.783   5.325 -0.1122 -1.0724 -0.1248
  527MOL0     C71075   9.123  11.042   5.106 -0.7937  0.1063 -0.2026
  527MOL0     C71076   9.264  11.029   5.098 -0.4907 -0.1285 -0.8997
  527MOL0     C71077   9.349  10.959   5.214  0.4820 -0.3000 -0.8349
  527MOL0     H71078   9.646  11.275   4.714 -2.5193 -3.6215 -0.2294
  527MOL0     H71079   9.883  11.302   4.668  0.8359 -2.8904 -0.6485
  527MOL0     H71080  10.211  11.279   4.994  0.0009 -3.8146  2.2312
  527MOL0     H71081  10.170  11.121   4.946 -0.2812  0.0416 -0.8457
  527MOL0     H71082  10.327  11.292   4.752  1.0454 -0.8611 -1.2411
  527MOL0     H71083  10.295  11.116   4.753 -2.9220 -1.4644  2.8471
  527MOL0     H71084  10.448  11.112   4.959 -0.5296 -1.2642 -0.6249
  527MOL0     H71085  10.440  11.296   4.957  1.4756  1.8711 -2.8158
  527MOL0     H71086  10.566  11.124   4.737 -0.1481  1.4378 -2.1765
  527MOL0     H71087  10.573  11.297   4.760 -0.9225 -0.1569 -0.8402
  527MOL0     H71088  10.699  11.273   4.959 -1.3763  0.6015 -0.4598
  527MOL0     H71089  10.660  11.101   4.970  0.6774  0.5776  1.4406
  527MOL0     H71090  10.905  11.176   4.898 -0.6522  2.7775  2.0254
  527MOL0     H71091  10.838  11.058   4.783  1.5673  2.0659 -0.5003
  527MOL0     H71092  10.788  11.188   4.633 -1.6979  1.5555 -0.3232
  527MOL0     H71093  10.953  11.233   4.668 -0.6796 -0.2338 -1.2858
  527MOL0     H71094  10.748  11.421   4.790  2.1294  3.1012  0.6519
  527MOL0     H71095  10.924  11.421   4.756 -0.0723 -2.2249  1.6543
  527MOL0     H71096  10.992  11.468   4.495 -0.2279  0.0741  1.4590
  527MOL0     H71097  10.988  11.564   4.294  0.7133  0.5921  0.0336
  527MOL0     H71098  10.846  11.547   4.193  1.2853 -3.0670  1.3009
  527MOL0     H71099  10.877  11.774   4.396 -0.5412  0.5881  0.1557
  527MOL0     H71100  10.915  11.791   4.217 -2.7004 -0.3685 -2.9390
  527MOL0     H71101  10.719  11.892   4.245  2.6476 -0.1754  0.2852
  527MOL0     H71102  10.651  11.770   4.339 -0.6519 -0.5358 -0.6769
  527MOL0     H71103  10.641  11.618   4.137  1.1879 -0.3881 -0.4075
  527MOL0     H71104  10.731  11.733   4.045  0.8372  1.6015  0.9188
  527MOL0     H71105  10.357  11.973   4.084 -2.6558  0.8332 -0.6095
  527MOL0     H71106  10.137  11.950   4.157  1.2513  0.4745 -1.3479
  527MOL0     H71107   9.778  11.949   4.182  5.4532 -3.5312  0.9073
  527MOL0     H71108   9.527  11.973   4.242  1.7533  0.9786 -1.2109
  527MOL0     H71109   9.409  11.600   4.475  1.9967  0.2965  1.7221
  527MOL0     H71110   9.388  11.714   4.597  1.4612 -0.6595 -1.2897
  527MOL0     H71111   9.201  11.596   4.553  2.8311 -2.2338 -2.9668
  527MOL0     H71112   9.166  11.769   4.512 -1.7000  0.8464 -2.8887
  527MOL0     H71113   9.192  11.727   4.275 -2.3358  0.8864 -0.2798
  527MOL0     H71114   9.246  11.566   4.306  0.6123  0.4036  1.3227
  527MOL0     H71115   9.015  11.491   4.354  0.5986  0.2991 -0.9157
  527MOL0     H71116   8.998  11.598   4.216  0.0733 -1.8817  0.3172
  527MOL0     H71117   8.925  11.779   4.385 -1.4236  0.4885  4.0244
  527MOL0     H71118   8.926  11.653   4.500  1.9837 -2.8022 -0.4395
  527MOL0     H71119   8.741  11.660   4.260 -4.1932 -2.3051 -0.7193
  527MOL0     H71120   8.766  11.528   4.372  1.7219  0.5439 -0.9008
  527MOL0     H71121   8.691  11.820   4.432 -1.6067  0.2288 -1.2029
  527MOL0     H71122   8.720  11.713   4.561 -1.9720  0.2730  1.6297
  527MOL0     H71123   8.472  11.755   4.511  2.0210 -1.2313  2.1373
  527MOL0     H71124   8.488  11.687   4.349 -0.3432 -1.6228 -0.0280
  527MOL0     H71125   9.615  11.709   4.583 -0.2294  0.9997  0.2056
  527MOL0     H71126   9.847  11.721   4.524  0.4173  0.0387 -0.8704
  527MOL0     H71127  10.248  11.579   4.358  0.6749 -1.5248 -1.1761
  527MOL0     H71128  10.458  11.584   4.255  1.7022  1.6768  1.2378
  527MOL0     H71129   9.976  11.149   5.053 -0.0131 -0.4201 -1.5277
  527MOL0     H71130   9.735  11.095   5.090 -0.0341 -1.4290 -0.1820
  527MOL0     H71131   9.299  11.196   4.801 -0.0539 -0.4219  0.5021
  527MOL0     H71132   9.056  11.247   4.847 -0.0067 -1.0616 -1.7280
  527MOL0     H71133   8.857  10.921   5.054 -0.8656 -0.0060  2.1310
  527MOL0     H71134   8.850  10.993   4.886 -2.6906 -0.4262  0.2322
  527MOL0     H71135   8.635  10.959   4.980 -1.1844  0.5776 -0.6461
  527MOL0     H71136   8.656  11.128   4.940  3.3509  1.4172  0.3434
  527MOL0     H71137   8.531  11.084   5.170 -1.0097 -0.9925 -2.5617
  527MOL0     H71138   8.643  11.210   5.163  0.4087 -0.6007 -0.4650
  527MOL0     H71139   8.829  11.075   5.252 -0.6775  0.7378 -0.5324
  527MOL0     H71140   8.691  11.102   5.359 -1.9318  0.7171 -0.4322
  527MOL0     H71141   8.697  10.685   5.369 -1.9111 -0.5386  0.7226
  527MOL0     H71142   9.068  10.995   5.187 -1.1896 -2.1477 -1.6891
  527MOL0     H71143   9.303  10.961   5.314  1.4324 -4.4498 -0.1154
  527MOL0     H71144   9.376  10.855   5.191  4.2191  0.5147 -0.8232
  527MOL0     H71145   9.445  11.010   5.227  1.6709 -2.3964 -0.9065
  528MOL0     O71146   2.597   4.701  11.182 -0.1212 -0.1989  0.3766
  528MOL0     C71147   2.533   4.772  11.107  0.3160 -0.6166  0.2070
  528MOL0     O71148   2.584   4.874  11.039 -0.2953  0.2722 -0.5289
  528MOL0     C71149   2.715   4.904  11.065 -0.2190 -0.3598 -0.0335
  528MOL0     C71150   2.811   4.849  10.976 -0.3413 -0.2553  0.6679
  528MOL0     C71151   2.944   4.885  10.980  0.0351 -0.3296 -0.6293
  528MOL0     C71152   2.989   4.975  11.080 -0.1869  0.0279  0.2274
  528MOL0     O71153   3.124   4.977  11.090  0.4099 -0.4718 -0.5882
  528MOL0     C71154   3.185   5.037  11.201  0.6376  0.2267 -0.9067
  528MOL0     C71155   3.330   5.037  11.172 -0.1896  0.1034 -0.6539
  528MOL0     C71156   3.411   4.932  11.245 -0.4023  0.8938  0.4508
  528MOL0     C71157   3.407   4.799  11.171  1.0798  0.1979  0.2319
  528MOL0     C71158   3.529   4.716  11.217  0.2575 -0.6391  0.4874
  528MOL0     C71159   3.632   4.728  11.110  0.5976 -0.0646  0.2050
  528MOL0     C71160   3.745   4.628  11.128  0.5574  0.0934 -0.2228
  528MOL0     C71161   3.835   4.674  11.246  0.4977 -0.2055 -0.0036
  528MOL0     N71162   3.906   4.793  11.202 -0.4045 -0.0504  0.7204
  528MOL0     C71163   3.895   4.919  11.254  0.3791  0.2893  0.5701
  528MOL0     C71164   4.007   4.979  11.210 -0.8225 -0.7871 -0.7575
  528MOL0     C71165   4.029   5.117  11.237  0.1056  0.4757 -0.5520
  528MOL0     C71166   4.138   5.177  11.150  0.4570  0.9173 -0.1873
  528MOL0     C71167   4.275   5.137  11.196 -0.1028 -0.7248 -0.3562
  528MOL0     C71168   4.389   5.240  11.171 -1.0216 -0.4644 -0.4682
  528MOL0     O71169   4.498   5.196  11.263  0.0654  0.3913 -0.3017
  528MOL0     C71170   4.625   5.221  11.222 -0.0782 -0.4409 -0.2833
  528MOL0     C71171   4.709   5.161  11.312 -0.5328 -0.2233  0.0868
  528MOL0     C71172   4.836   5.162  11.276 -0.0697  0.7061  0.0683
  528MOL0     C71173   4.889   5.228  11.151 -0.1588 -1.0261 -1.4285
  528MOL0     C71174   5.039   5.242  11.124  0.6654  0.9868  0.3654
  528MOL0     O71175   5.077   5.307  11.018 -1.1023  0.3368  0.9088
  528MOL0     C71176   5.212   5.322  11.011  0.7164 -0.0104  0.1080
  528MOL0     C71177   5.294   5.234  10.943  0.4864 -0.7781  0.9946
  528MOL0     C71178   5.428   5.251  10.932  0.1066  0.6179 -0.5602
  528MOL0     C71179   5.491   5.356  10.997 -0.4191  0.2318  0.3261
  528MOL0     O71180   5.630   5.351  10.974  0.5551  0.7997  0.3444
  528MOL0     C71181   5.704   5.453  11.040  0.2278  0.0101 -0.6557
  528MOL0     C71182   5.720   5.435  11.193  0.2239  0.0636  0.4254
  528MOL0     C71183   5.789   5.294  11.225  0.2272 -0.2904 -0.7042
  528MOL0     C71184   5.813   5.281  11.380  0.4016  0.0676 -0.7181
  528MOL0     C71185   5.688   5.285  11.468 -0.4695 -0.0202 -0.4548
  528MOL0     C71186   5.578   5.182  11.437 -0.9339 -0.0020  0.0941
  528MOL0     C71187   5.463   5.200  11.531  0.4123 -0.2888 -0.4174
  528MOL0     C71188   5.337   5.185  11.444 -0.0355  0.1657 -0.5865
  528MOL0    Cl71189   5.199   5.227  11.543 -0.0311  0.0185 -0.2010
  528MOL0     C71190   5.412   5.455  11.063  0.0814 -0.0685 -0.3730
  528MOL0     C71191   5.273   5.439  11.073 -0.5125  0.5717  0.2030
  528MOL0     O71192   5.108   5.178  11.199  0.0602  0.2308 -0.6850
  528MOL0     C71193   4.798   5.290  11.070 -0.4205 -0.6629  0.3728
  528MOL0     C71194   4.666   5.288  11.105  0.0381  0.2750 -0.6476
  528MOL0     N71195   4.094   4.892  11.149  0.5711 -0.0241  0.2431
  528MOL0     N71196   4.033   4.775  11.153  0.3485  0.1249  0.0597
  528MOL0     C71197   2.896   5.017  11.177 -0.2468  0.2802 -0.6899
  528MOL0     C71198   2.762   4.991  11.164  0.2257 -0.4072 -0.3929
  528MOL0     C71199   2.400   4.726  11.059  0.4782 -0.1356  0.0225
  528MOL0     C71200   2.333   4.795  10.957  0.0701  0.6567  0.0407
  528MOL0     C71201   2.201   4.788  10.927  0.6122 -0.4821 -0.3278
  528MOL0     C71202   2.123   4.694  10.985 -0.6312  0.8484 -0.3313
  528MOL0     O71203   1.988   4.693  10.951 -0.3306  0.6714 -0.3456
  528MOL0     C71204   1.901   4.586  11.000  0.1039 -0.2053 -0.1885
  528MOL0     C71205   1.784   4.583  10.901 -0.2150 -0.2049  0.2909
  528MOL0     C71206   1.813   4.502  10.768  0.2095 -0.3902  0.1706
  528MOL0     C71207   1.688   4.448  10.698 -0.4239  0.2276 -0.5539
  528MOL0     C71208   1.663   4.307  10.725  0.3796  0.7861  0.2626
  528MOL0     C71209   1.634   4.194  10.756 -0.0444  0.1852 -0.3852
  528MOL0     C71210   2.188   4.604  11.077  0.0546 -0.9469 -0.3288
  528MOL0     C71211   2.324   4.618  11.109  0.5196  0.4218  0.0482
  528MOL0     C71212   2.370   4.514  11.208  0.2153  0.0893 -0.6164
  528MOL0     H71213   2.785   4.772  10.904 -2.1759  0.9003  0.0321
  528MOL0     H71214   3.013   4.834  10.914  1.4141  0.9269 -0.2263
  528MOL0     H71215   3.155   5.142  11.213 -2.2371 -0.3793 -1.8609
  528MOL0     H71216   3.167   4.981  11.294  1.4722  0.2828 -0.7080
  528MOL0     H71217   3.361   5.135  11.212 -0.6086 -0.1431  0.2962
  528MOL0     H71218   3.354   5.028  11.066  2.3320  1.1723 -0.2722
  528MOL0     H71219   3.369   4.927  11.346 -0.7233  1.0185  0.3267
  528MOL0     H71220   3.515   4.965  11.254 -0.4647  1.2020  0.0624
  528MOL0     H71221   3.320   4.737  11.194  1.1002 -0.3309 -1.0322
  528MOL0     H71222   3.399   4.806  11.062  0.0171 -1.4426  0.1610
  528MOL0     H71223   3.553   4.751  11.318 -0.5092 -0.8984  0.7713
  528MOL0     H71224   3.502   4.611  11.231 -2.4728 -0.0996 -0.1245
  528MOL0     H71225   3.582   4.726  11.013 -2.2714  1.8068  1.4842
  528MOL0     H71226   3.674   4.828  11.111 -2.8087  1.5488 -0.7955
  528MOL0     H71227   3.804   4.611  11.038  0.8265 -3.8497  0.4831
  528MOL0     H71228   3.703   4.530  11.156  0.6975  0.5925  1.9734
  528MOL0     H71229   3.766   4.709  11.324 -3.0407  1.6896 -3.6051
  528MOL0     H71230   3.905   4.597  11.279  0.2389  0.9811  3.9248
  528MOL0     H71231   3.818   4.958  11.320 -1.6771 -0.3666 -1.2898
  528MOL0     H71232   3.939   5.174  11.211 -1.7781 -1.9669  0.0934
  528MOL0     H71233   4.053   5.139  11.341  1.3163 -0.9288 -0.4960
  528MOL0     H71234   4.125   5.152  11.044  2.7258 -2.2514  0.1429
  528MOL0     H71235   4.117   5.284  11.151 -0.0993  0.8862  3.1774
  528MOL0     H71236   4.304   5.043  11.149 -0.4903 -1.8489  1.5124
  528MOL0     H71237   4.260   5.123  11.304 -4.1951  1.5478 -0.4162
  528MOL0     H71238   4.361   5.341  11.201  1.9331  0.4330 -0.3882
  528MOL0     H71239   4.423   5.234  11.067  1.1444  1.1624  0.0706
  528MOL0     H71240   4.684   5.114  11.407  3.5118  2.5039  2.8122
  528MOL0     H71241   4.911   5.135  11.350  0.4886 -0.5622 -0.9222
  528MOL0     H71242   5.250   5.161  10.876  0.4343  0.0653  0.0854
  528MOL0     H71243   5.487   5.174  10.884  0.6231  0.0399  0.9406
  528MOL0     H71244   5.807   5.463  11.002  1.3079  1.1763  2.2664
  528MOL0     H71245   5.651   5.544  11.012 -1.6666 -1.4640 -2.1825
  528MOL0     H71246   5.786   5.513  11.232 -0.1482  0.2279  0.7479
  528MOL0     H71247   5.623   5.449  11.242  0.7026  1.0771  1.1280
  528MOL0     H71248   5.722   5.213  11.196 -0.2005  0.4804 -1.9470
  528MOL0     H71249   5.876   5.283  11.159 -0.2691 -3.7431 -0.9784
  528MOL0     H71250   5.889   5.353  11.411  1.5016 -0.6202 -1.6771
  528MOL0     H71251   5.865   5.184  11.385 -2.8817 -1.9679 -2.5497
  528MOL0     H71252   5.651   5.386  11.449  2.3402  0.9810 -1.1777
  528MOL0     H71253   5.704   5.275  11.576 -1.3485 -0.5368 -0.3693
  528MOL0     H71254   5.555   5.184  11.330 -2.0824 -1.5582  0.2795
  528MOL0     H71255   5.624   5.084  11.451  1.4482  1.0064 -0.1517
  528MOL0     H71256   5.459   5.296  11.583 -1.8278 -1.4976  1.9133
  528MOL0     H71257   5.464   5.119  11.604  3.8750  1.2615  1.4653
  528MOL0     H71258   5.339   5.249  11.355  0.9185 -1.5274 -1.8603
  528MOL0     H71259   5.332   5.080  11.411  1.5534 -0.6797  1.6406
  528MOL0     H71260   5.450   5.544  11.113  0.6540 -0.2858 -0.4127
  528MOL0     H71261   5.202   5.510  11.115 -2.5224 -1.8783  1.2136
  528MOL0     H71262   4.824   5.338  10.976  0.9468 -2.3376 -0.1727
  528MOL0     H71263   4.602   5.346  11.038 -2.2182 -0.3555  0.8296
  528MOL0     H71264   2.926   5.081  11.259  0.3249  1.0477 -1.4764
  528MOL0     H71265   2.699   5.037  11.240  1.8854 -2.9068  2.7410
  528MOL0     H71266   2.373   4.886  10.913 -0.9295  0.7220 -0.7825
  528MOL0     H71267   2.149   4.849  10.855  2.6578  1.9797  0.1638
  528MOL0     H71268   1.869   4.626  11.096  1.4954  0.1095  0.1645
  528MOL0     H71269   1.946   4.486  11.004 -1.2761 -0.9094 -1.4284
  528MOL0     H71270   1.770   4.688  10.878  1.5500  0.6174  2.5704
  528MOL0     H71271   1.694   4.545  10.950 -0.1844 -0.5499  0.0918
  528MOL0     H71272   1.878   4.417  10.790 -1.4547 -1.6257  0.4758
  528MOL0     H71273   1.871   4.568  10.703  0.0652  1.5462  1.9104
  528MOL0     H71274   1.601   4.508  10.727 -0.1451  0.4531 -0.1744
  528MOL0     H71275   1.701   4.459  10.590 -0.1622  0.3499 -0.5120
  528MOL0     H71276   1.602   4.101  10.798 -0.2987  0.5905  0.3276
  528MOL0     H71277   2.129   4.525  11.123 -0.5320 -1.0644 -1.2673
  528MOL0     H71278   2.476   4.494  11.187  0.7403  1.2963  0.6736
  528MOL0     H71279   2.355   4.558  11.307 -1.6754  1.2726 -1.3774
  528MOL0     H71280   2.312   4.421  11.202  2.1611 -1.2056 -0.3433
  529MOL0     O71281   1.278   6.521   5.261 -1.0374 -0.1385 -0.6311
  529MOL0     C71282   1.290   6.592   5.168  0.1187 -1.1103  0.5374
  529MOL0     O71283   1.407   6.656   5.127 -0.1996  0.4941  0.0529
  529MOL0     C71284   1.532   6.635   5.178 -0.0364 -0.3035  0.3519
  529MOL0     C71285   1.568   6.525   5.252 -0.7740 -0.0893 -0.5402
  529MOL0     C71286   1.701   6.522   5.295  0.1249  0.7313  0.5022
  529MOL0     C71287   1.798   6.616   5.259 -0.3182 -0.4322  0.4675
  529MOL0     O71288   1.928   6.618   5.306  0.3434  0.5777 -0.2840
  529MOL0     C71289   1.995   6.513   5.232  0.7033 -0.1369 -0.3005
  529MOL0     C71290   2.146   6.512   5.244 -0.0649 -0.6911  0.2225
  529MOL0     C71291   2.201   6.632   5.177 -1.0389 -1.2299 -0.3137
  529MOL0     C71292   2.354   6.656   5.201  0.5954  0.5172  0.2855
  529MOL0     C71293   2.428   6.748   5.097  0.8601  0.7401 -0.1413
  529MOL0     C71294   2.406   6.897   5.121  0.3411  0.6922  0.7334
  529MOL0     C71295   2.488   6.992   5.042 -0.3625  0.2304  0.1281
  529MOL0     C71296   2.636   6.993   5.075 -0.5939  0.4294  0.1024
  529MOL0     N71297   2.715   7.056   4.965  0.1036  0.0429  0.2330
  529MOL0     C71298   2.768   6.986   4.860  0.0231 -0.2887 -0.2727
  529MOL0     C71299   2.831   7.078   4.788 -0.1598  0.0198 -1.2744
  529MOL0     C71300   2.885   7.051   4.653  0.2798 -0.4131 -0.7492
  529MOL0     C71301   3.038   7.076   4.641 -0.2601 -0.1865 -0.3979
  529MOL0     C71302   3.121   6.992   4.743 -0.5152 -0.2043  0.1559
  529MOL0     C71303   3.270   7.032   4.755 -0.5972 -0.3434  0.3311
  529MOL0     O71304   3.327   6.984   4.630  0.0681 -0.2727 -0.7155
  529MOL0     C71305   3.460   6.964   4.616  0.2591  0.3369 -1.3536
  529MOL0     C71306   3.552   7.001   4.713 -0.2012  0.0848  0.3197
  529MOL0     C71307   3.688   6.976   4.689 -0.0632 -0.1187 -0.6701
  529MOL0     C71308   3.727   6.904   4.572  0.0480  0.0683 -0.6506
  529MOL0     C71309   3.869   6.877   4.542 -0.3889  0.2629  0.5938
  529MOL0     O71310   3.887   6.803   4.427 -0.5060  0.1741  0.1428
  529MOL0     C71311   4.013   6.757   4.400 -0.2842 -0.2250  0.0323
  529MOL0     C71312   4.137   6.824   4.416 -0.7481  0.4203 -0.4344
  529MOL0     C71313   4.256   6.762   4.380  1.0184  0.2060 -0.8773
  529MOL0     C71314   4.254   6.627   4.322 -0.3419 -0.9780 -0.4880
  529MOL0     O71315   4.378   6.561   4.294  0.3691 -0.6330  0.7374
  529MOL0     C71316   4.505   6.614   4.356 -0.1125  0.1420 -0.3192
  529MOL0     C71317   4.611   6.530   4.282  0.5359  0.0334 -1.2370
  529MOL0     C71318   4.748   6.579   4.313  0.3506  0.1462 -0.6716
  529MOL0     C71319   4.844   6.491   4.250  1.0157  0.6571 -0.1277
  529MOL0     C71320   4.986   6.542   4.255 -0.2770  0.5641 -0.1523
  529MOL0     C71321   5.062   6.531   4.387  0.2179 -0.2291  0.4441
  529MOL0     C71322   5.200   6.587   4.397  0.0373  0.2678  0.0307
  529MOL0     C71323   5.280   6.570   4.262 -0.3488  0.1603  1.2971
  529MOL0    Cl71324   5.241   6.703   4.143  0.0151 -0.5759 -0.0934
  529MOL0     C71325   4.129   6.569   4.298 -0.0887  0.4935 -0.4369
  529MOL0     C71326   4.008   6.629   4.341 -0.4427 -0.8947  0.7034
  529MOL0     O71327   3.956   6.901   4.627  0.0858 -0.3440 -0.1253
  529MOL0     C71328   3.633   6.868   4.479  0.3701 -0.2885  0.1209
  529MOL0     C71329   3.503   6.897   4.503  0.0276 -0.1150 -0.7701
  529MOL0     N71330   2.815   7.201   4.852  0.2187 -0.2647  0.0448
  529MOL0     N71331   2.740   7.187   4.956  0.3434  0.2577  0.1484
  529MOL0     C71332   1.754   6.719   5.173  0.3338 -0.6333  0.5359
  529MOL0     C71333   1.620   6.739   5.141  0.0743 -0.0264 -1.0234
  529MOL0     C71334   1.165   6.634   5.100  0.3821  0.7098  0.6875
  529MOL0     C71335   1.174   6.683   4.962  0.2331  0.3043 -1.0432
  529MOL0     C71336   1.062   6.735   4.894 -0.6917  0.4150  1.0163
  529MOL0     C71337   0.937   6.737   4.950  0.6215  0.2814 -0.8594
  529MOL0     O71338   0.816   6.789   4.898  0.2197 -0.7600 -0.1136
  529MOL0     C71339   0.836   6.895   4.794 -0.1480 -0.9974  1.0516
  529MOL0     C71340   0.701   6.963   4.775 -0.4843  0.8057  0.1508
  529MOL0     C71341   0.622   6.897   4.660 -1.2942 -0.2057 -1.0172
  529MOL0     C71342   0.500   6.973   4.622  0.3447 -0.0608 -0.6319
  529MOL0     C71343   0.389   6.985   4.719  0.0394 -0.3481 -0.0345
  529MOL0     C71344   0.309   7.032   4.790 -0.4686 -0.6505 -0.5497
  529MOL0     C71345   0.930   6.688   5.083 -0.5701  0.6912 -0.0593
  529MOL0     C71346   1.038   6.641   5.157 -0.3437 -0.2921 -0.1610
  529MOL0     C71347   1.010   6.621   5.304 -0.6434  0.0431  1.1167
  529MOL0     H71348   1.490   6.456   5.283 -2.4662  1.5788 -0.8800
  529MOL0     H71349   1.734   6.430   5.342 -0.8268  0.3230  0.3980
  529MOL0     H71350   1.965   6.419   5.279  1.7497  0.2932  1.3408
  529MOL0     H71351   1.966   6.514   5.127 -2.5065 -0.9801  0.4682
  529MOL0     H71352   2.190   6.418   5.210 -1.9636 -0.1859 -4.3050
  529MOL0     H71353   2.164   6.526   5.351  0.8440  0.4061 -0.0698
  529MOL0     H71354   2.151   6.726   5.200 -0.6092 -0.9557 -0.4976
  529MOL0     H71355   2.199   6.622   5.068 -0.3219  2.0779 -0.7343
  529MOL0     H71356   2.373   6.683   5.305 -0.1887 -0.9425  0.8363
  529MOL0     H71357   2.408   6.561   5.193 -0.9961 -0.4849  1.1212
  529MOL0     H71358   2.530   6.710   5.101 -0.3298 -2.9825 -1.1099
  529MOL0     H71359   2.395   6.714   4.998 -0.2462 -1.2527  0.8425
  529MOL0     H71360   2.299   6.904   5.101 -0.2844 -3.2047  1.9543
  529MOL0     H71361   2.420   6.931   5.224  0.2965  2.2266  0.2554
  529MOL0     H71362   2.449   7.094   5.046  0.8539  0.8885 -2.2556
  529MOL0     H71363   2.480   6.964   4.937 -0.6725  0.0587  0.2001
  529MOL0     H71364   2.652   7.052   5.166 -1.0061 -1.5229  1.5149
  529MOL0     H71365   2.663   6.888   5.095 -1.4190  0.7896  3.8628
  529MOL0     H71366   2.753   6.880   4.842  1.5508 -0.9562  1.8763
  529MOL0     H71367   2.859   6.948   4.629 -5.3889  0.9607 -1.9648
  529MOL0     H71368   2.830   7.122   4.590 -1.0377 -0.5576  0.2151
  529MOL0     H71369   3.066   7.057   4.537 -2.7928 -0.1218 -1.1531
  529MOL0     H71370   3.060   7.181   4.660 -0.6457 -0.0274 -0.8239
  529MOL0     H71371   3.110   6.892   4.701 -0.4966  1.4754 -4.3846
  529MOL0     H71372   3.070   7.006   4.839 -1.8543 -1.4150 -0.3602
  529MOL0     H71373   3.311   6.970   4.835 -2.4269 -3.6447 -1.0523
  529MOL0     H71374   3.286   7.138   4.776  1.1177 -1.0244  2.9725
  529MOL0     H71375   3.520   7.067   4.793  0.3615  0.5854  0.1406
  529MOL0     H71376   3.761   7.007   4.764 -0.6083  0.4433 -0.3648
  529MOL0     H71377   4.146   6.929   4.443 -0.8331  0.4946 -0.6925
  529MOL0     H71378   4.351   6.813   4.394  0.9275  0.5039 -1.3260
  529MOL0     H71379   4.522   6.719   4.332  0.4107 -0.2129 -1.6078
  529MOL0     H71380   4.515   6.597   4.463 -0.7399 -0.1202 -0.2981
  529MOL0     H71381   4.612   6.423   4.302  2.2342 -0.0321 -1.4897
  529MOL0     H71382   4.584   6.528   4.176 -0.0752  1.0952 -1.1088
  529MOL0     H71383   4.757   6.680   4.272 -1.5908  0.7148  0.2172
  529MOL0     H71384   4.759   6.583   4.422 -2.1188  0.1357 -0.3638
  529MOL0     H71385   4.815   6.469   4.147 -0.4347 -1.1773  0.6284
  529MOL0     H71386   4.836   6.391   4.293  0.2776  0.1179 -1.4504
  529MOL0     H71387   4.987   6.646   4.221 -3.8119  1.2278  1.3262
  529MOL0     H71388   5.038   6.476   4.185 -1.4988 -1.9964  1.2413
  529MOL0     H71389   4.997   6.587   4.456  1.5512  1.1938  0.6040
  529MOL0     H71390   5.065   6.429   4.425 -0.3764 -0.1553  0.7013
  529MOL0     H71391   5.259   6.552   4.482 -0.2346 -2.3255 -0.7755
  529MOL0     H71392   5.194   6.693   4.424 -2.6103  0.5991 -1.4937
  529MOL0     H71393   5.386   6.592   4.278  0.1693  0.7866 -2.1572
  529MOL0     H71394   5.286   6.469   4.220 -0.4910  0.6194  0.1324
  529MOL0     H71395   4.137   6.473   4.248 -1.5417  0.0051  0.2334
  529MOL0     H71396   3.911   6.583   4.329  0.5294 -3.0457  0.6728
  529MOL0     H71397   3.676   6.828   4.388  0.9477  0.6660 -0.0408
  529MOL0     H71398   3.423   6.886   4.431 -3.1074  3.1666  1.8113
  529MOL0     H71399   1.827   6.796   5.151 -0.8108 -0.4119 -3.2369
  529MOL0     H71400   1.609   6.838   5.098 -1.7536  0.1957 -0.1013
  529MOL0     H71401   1.273   6.695   4.919  1.3067  2.4562  1.7322
  529MOL0     H71402   1.086   6.764   4.792  2.1732 -0.4650  1.3517
  529MOL0     H71403   0.875   6.846   4.705  0.6635 -0.0339  0.8613
  529MOL0     H71404   0.908   6.972   4.823  0.9184 -1.2167 -0.8466
  529MOL0     H71405   0.720   7.067   4.746  0.6100  0.8520  0.9636
  529MOL0     H71406   0.642   6.963   4.868 -1.4664 -0.0733 -0.4556
  529MOL0     H71407   0.599   6.792   4.681 -1.8845 -0.0847 -1.0458
  529MOL0     H71408   0.683   6.894   4.569 -1.7337 -0.5530 -1.3068
  529MOL0     H71409   0.522   7.073   4.581 -0.3711  0.1020 -0.6381
  529MOL0     H71410   0.455   6.915   4.540 -0.2549 -1.5801  0.7305
  529MOL0     H71411   0.227   7.057   4.855 -0.1472 -1.6921  0.2954
  529MOL0     H71412   0.829   6.695   5.123 -1.1002  3.1540 -1.6194
  529MOL0     H71413   0.922   6.681   5.330 -2.3435 -1.8786  0.0127
  529MOL0     H71414   0.989   6.516   5.325 -2.3362 -0.4845 -2.5814
  529MOL0     H71415   1.091   6.654   5.371  0.3380  0.4733 -0.2400
  530MOL0     O71416   3.702   5.820   1.893  1.0117 -0.4184  0.2482
  530MOL0     C71417   3.643   5.752   1.976 -0.3525 -0.8617 -0.4018
  530MOL0     O71418   3.592   5.802   2.103 -0.0930  0.2598 -0.3471
  530MOL0     C71419   3.629   5.929   2.130  1.1012 -0.7006  0.2370
  530MOL0     C71420   3.522   6.015   2.166 -0.5035 -0.5481 -0.3333
  530MOL0     C71421   3.543   6.155   2.185  0.4867  0.1371 -1.0696
  530MOL0     C71422   3.681   6.210   2.183  0.8926 -0.1410 -0.3157
  530MOL0     O71423   3.727   6.334   2.213 -0.1718 -0.5185  0.0303
  530MOL0     C71424   3.630   6.443   2.202 -0.2444  0.0990 -0.0318
  530MOL0     C71425   3.697   6.582   2.203  0.0440  0.3223  0.4133
  530MOL0     C71426   3.792   6.594   2.087  0.2945  0.5376  0.1870
  530MOL0     C71427   3.865   6.722   2.086  0.3032 -0.6669 -0.0698
  530MOL0     C71428   3.982   6.724   2.187  0.0169  0.2691  0.1404
  530MOL0     C71429   4.067   6.851   2.185 -0.0706 -0.2854 -1.1518
  530MOL0     C71430   4.162   6.853   2.306 -0.2871  0.0758  0.6666
  530MOL0     C71431   4.242   6.991   2.315  0.1908  0.8404 -0.4043
  530MOL0     N71432   4.332   6.990   2.435  1.1149  0.7721 -0.0623
  530MOL0     C71433   4.469   7.000   2.416 -0.1826 -0.0631 -0.4777
  530MOL0     C71434   4.525   7.006   2.539  0.4487  0.7332  0.2764
  530MOL0     C71435   4.665   7.032   2.580  0.4002  0.4774  0.2740
  530MOL0     C71436   4.764   6.927   2.535 -0.4750  0.3227 -0.7349
  530MOL0     C71437   4.875   6.918   2.620  0.0413 -0.0629  0.3447
  530MOL0     C71438   4.960   7.047   2.622  0.5394 -0.0801  0.5284
  530MOL0     O71439   5.057   7.021   2.719 -0.1408 -0.5075  0.1357
  530MOL0     C71440   5.153   7.117   2.726  0.2508 -0.0150 -0.1144
  530MOL0     C71441   5.263   7.086   2.810  0.8271  0.3539  0.6567
  530MOL0     C71442   5.372   7.171   2.801  0.3621 -0.6004 -0.5559
  530MOL0     C71443   5.373   7.298   2.742 -1.0243  0.5504  0.6025
  530MOL0     C71444   5.483   7.389   2.759 -0.4170 -0.5559  0.2799
  530MOL0     O71445   5.478   7.506   2.695  0.0783  0.5672 -0.6277
  530MOL0     C71446   5.596   7.566   2.651 -0.0557 -0.3759 -0.1877
  530MOL0     C71447   5.598   7.583   2.512  0.0517 -0.6351  0.3821
  530MOL0     C71448   5.701   7.673   2.460  0.0458  0.3962 -0.2793
  530MOL0     C71449   5.798   7.727   2.543  0.5124 -0.5939  0.2384
  530MOL0     O71450   5.883   7.822   2.491 -0.5142  0.3647 -0.1574
  530MOL0     C71451   6.022   7.799   2.535 -0.1362 -0.2464 -0.5353
  530MOL0     C71452   6.119   7.881   2.452  0.1138 -0.2247 -0.4301
  530MOL0     C71453   6.259   7.844   2.497 -0.2653  0.6472  0.1257
  530MOL0     C71454   6.361   7.946   2.437 -0.5929 -0.2287 -0.5861
  530MOL0     C71455   6.499   7.896   2.496 -0.1838  0.6499  0.0803
  530MOL0     C71456   6.608   7.981   2.439  0.7736 -0.1872  0.7223
  530MOL0     C71457   6.731   7.983   2.525 -0.1189  0.2669  0.4137
  530MOL0     C71458   6.850   8.041   2.451 -0.5378 -0.4330 -0.6790
  530MOL0    Cl71459   7.003   8.051   2.556 -0.2854 -0.0302  0.1799
  530MOL0     C71460   5.792   7.707   2.685 -0.3371 -0.4587 -0.0290
  530MOL0     C71461   5.692   7.627   2.739  0.7746  0.3320 -0.2742
  530MOL0     O71462   5.580   7.342   2.819 -0.3957  0.5289  0.1967
  530MOL0     C71463   5.255   7.333   2.678  0.9915  0.2660 -0.2695
  530MOL0     C71464   5.144   7.253   2.670  0.5676  0.2001 -0.4563
  530MOL0     N71465   4.426   6.978   2.631 -0.0681 -0.2608 -0.6307
  530MOL0     N71466   4.315   6.980   2.573  0.3748  0.8894 -0.2035
  530MOL0     C71467   3.783   6.117   2.160 -0.0615  0.0447 -0.2774
  530MOL0     C71468   3.761   5.982   2.121  0.5586  0.0091  0.0074
  530MOL0     C71469   3.616   5.621   1.938 -0.0214  0.2114  0.4649
  530MOL0     C71470   3.492   5.597   1.869 -0.5921 -0.3585 -0.3726
  530MOL0     C71471   3.469   5.469   1.815  0.7307 -0.7791 -0.4382
  530MOL0     C71472   3.559   5.364   1.836  0.3763  0.3201  0.1996
  530MOL0     O71473   3.536   5.243   1.781 -0.0438 -0.1923 -0.3657
  530MOL0     C71474   3.544   5.127   1.873 -0.3957 -0.5506  0.6058
  530MOL0     C71475   3.445   5.138   1.984  0.8339  0.5293 -0.7078
  530MOL0     C71476   3.292   5.125   1.943  0.1346 -1.0017  0.2228
  530MOL0     C71477   3.259   5.007   1.851 -0.0582 -0.3514  0.8148
  530MOL0     C71478   3.288   4.875   1.918  0.2359  0.1439 -0.2660
  530MOL0     C71479   3.298   4.769   1.970 -0.1823  0.3502 -0.3266
  530MOL0     C71480   3.680   5.389   1.903  0.2386  0.6894 -0.0574
  530MOL0     C71481   3.712   5.516   1.955 -0.2555  0.3768 -0.3017
  530MOL0     C71482   3.857   5.536   2.010  0.3338 -0.0881  0.3923
  530MOL0     H71483   3.420   5.986   2.192 -0.4205 -0.2161  0.3875
  530MOL0     H71484   3.460   6.223   2.196 -0.7481 -1.5002  0.2718
  530MOL0     H71485   3.577   6.434   2.107  0.1347  1.8824 -0.4477
  530MOL0     H71486   3.564   6.446   2.289  1.4010  3.1793  1.2769
  530MOL0     H71487   3.745   6.596   2.300  0.7555 -1.8823  0.4326
  530MOL0     H71488   3.619   6.659   2.195  2.5847  3.3837  2.5112
  530MOL0     H71489   3.733   6.591   1.995  0.7949  1.0783 -0.1561
  530MOL0     H71490   3.871   6.518   2.086 -0.6926 -0.5198 -0.2783
  530MOL0     H71491   3.909   6.724   1.986  0.4484 -2.1008 -0.0468
  530MOL0     H71492   3.798   6.807   2.103  3.2853  2.3620 -2.0649
  530MOL0     H71493   3.938   6.717   2.287  2.2420 -1.0461  1.1333
  530MOL0     H71494   4.044   6.634   2.174  0.0253  0.3670 -0.5088
  530MOL0     H71495   4.116   6.880   2.092 -0.7986 -0.3466 -1.5628
  530MOL0     H71496   4.005   6.940   2.201 -0.2269 -0.7925  1.6034
  530MOL0     H71497   4.238   6.773   2.302  2.1324  2.2432 -3.4897
  530MOL0     H71498   4.100   6.839   2.395  0.4127 -2.6965  0.8160
  530MOL0     H71499   4.305   6.985   2.226 -0.0134 -0.6465 -0.4794
  530MOL0     H71500   4.179   7.080   2.320 -0.6058  0.2338  1.3940
  530MOL0     H71501   4.522   7.010   2.323 -0.2333 -4.1265 -1.1392
  530MOL0     H71502   4.683   7.136   2.550 -0.8871  0.6194 -0.0653
  530MOL0     H71503   4.670   7.041   2.689  2.5799 -1.4365  0.3976
  530MOL0     H71504   4.720   6.827   2.538 -0.4236  0.2300 -2.3233
  530MOL0     H71505   4.799   6.950   2.434 -0.8883  1.7414 -0.5691
  530MOL0     H71506   4.948   6.841   2.592 -1.8918 -1.8077 -0.1008
  530MOL0     H71507   4.858   6.893   2.725  0.0022  1.0144  0.6094
  530MOL0     H71508   4.907   7.138   2.651  0.5090  0.9151 -2.3982
  530MOL0     H71509   5.008   7.061   2.525 -0.1281  0.8963  0.3317
  530MOL0     H71510   5.266   6.996   2.871 -1.3913 -0.5384 -0.3907
  530MOL0     H71511   5.465   7.130   2.839  0.4419 -1.0963 -1.2768
  530MOL0     H71512   5.525   7.553   2.437  0.4383 -1.6177  0.3819
  530MOL0     H71513   5.699   7.690   2.353  0.8439  0.7480 -0.2461
  530MOL0     H71514   6.033   7.811   2.643 -1.0113 -1.9025 -0.2293
  530MOL0     H71515   6.038   7.695   2.507  1.1295  0.3001 -1.9720
  530MOL0     H71516   6.109   7.853   2.347 -1.9729 -1.7848  0.1291
  530MOL0     H71517   6.103   7.988   2.469  0.8280  0.1603 -2.0408
  530MOL0     H71518   6.274   7.845   2.606 -1.8575  0.1427  0.3802
  530MOL0     H71519   6.279   7.746   2.454  0.7746  0.8763  0.0582
  530MOL0     H71520   6.340   8.047   2.474  2.3222 -0.4108  2.0182
  530MOL0     H71521   6.362   7.927   2.330 -2.2575 -2.1092 -0.3094
  530MOL0     H71522   6.521   7.793   2.469 -1.9193  0.4340 -0.6264
  530MOL0     H71523   6.501   7.898   2.606  0.0024 -2.0223  0.1921
  530MOL0     H71524   6.638   7.952   2.338 -2.1083  1.0172 -0.5850
  530MOL0     H71525   6.561   8.079   2.423 -0.7034 -0.8703  0.7345
  530MOL0     H71526   6.748   7.877   2.545 -0.2686  0.3086  0.7587
  530MOL0     H71527   6.720   8.034   2.621 -0.5649 -0.3353  0.6881
  530MOL0     H71528   6.869   7.986   2.359 -0.8257 -2.4320  0.3964
  530MOL0     H71529   6.833   8.148   2.435  0.1586 -0.3865 -1.1326
  530MOL0     H71530   5.857   7.753   2.759 -2.1311 -0.7950  1.8235
  530MOL0     H71531   5.673   7.626   2.846 -2.1425  2.5504 -0.6342
  530MOL0     H71532   5.238   7.429   2.631 -3.2287  0.2418  0.7662
  530MOL0     H71533   5.058   7.302   2.626 -0.9821 -2.7688 -1.0040
  530MOL0     H71534   3.884   6.155   2.170  0.8273 -1.4589 -2.6983
  530MOL0     H71535   3.844   5.916   2.096  1.8177 -0.9423  5.4367
  530MOL0     H71536   3.428   5.684   1.856  1.3092  1.2012  0.3085
  530MOL0     H71537   3.381   5.438   1.760  0.1115  0.7776 -0.3963
  530MOL0     H71538   3.645   5.134   1.915 -0.4720  3.9144  0.4308
  530MOL0     H71539   3.533   5.028   1.827  1.6814  0.2840 -1.9360
  530MOL0     H71540   3.462   5.227   2.046  2.3838 -0.3059  0.1367
  530MOL0     H71541   3.468   5.058   2.055  0.1005 -1.9368 -3.0767
  530MOL0     H71542   3.261   5.218   1.896  2.2216 -1.9736 -3.4990
  530MOL0     H71543   3.239   5.107   2.037 -0.3907  0.9131  0.3319
  530MOL0     H71544   3.153   5.011   1.826 -0.1105 -0.9350  0.9337
  530MOL0     H71545   3.313   5.012   1.756 -0.4022  1.5900  0.6821
  530MOL0     H71546   3.297   4.674   2.020 -0.7417  1.0536  1.0301
  530MOL0     H71547   3.756   5.313   1.914 -0.0734  0.3994  0.0836
  530MOL0     H71548   3.881   5.447   2.069  2.4929  0.2470  0.0890
  530MOL0     H71549   3.926   5.541   1.926 -0.5672 -1.0865 -0.4347
  530MOL0     H71550   3.867   5.624   2.075 -2.0435  0.8538 -0.4208
  531MOL0     O71551   1.608   6.964   8.035  0.1397 -0.2078  0.0084
  531MOL0     C71552   1.628   6.849   8.062 -0.0627  0.1722 -0.5608
  531MOL0     O71553   1.751   6.786   8.072 -0.3630  0.8652 -0.7644
  531MOL0     C71554   1.875   6.845   8.091 -0.6445  0.0792 -0.7931
  531MOL0     C71555   1.891   6.980   8.144 -0.2222  0.2993  0.3503
  531MOL0     C71556   2.016   7.030   8.188  0.7316 -1.0269 -0.4586
  531MOL0     C71557   2.131   6.955   8.166  0.2596 -0.0340 -0.1516
  531MOL0     O71558   2.252   7.018   8.198 -0.0518 -0.1556  0.3124
  531MOL0     C71559   2.353   6.999   8.109  0.0956 -0.4403  0.4033
  531MOL0     C71560   2.481   7.084   8.132  0.6146  0.3401  0.2842
  531MOL0     C71561   2.530   7.055   8.277  0.6356 -0.3284 -0.6501
  531MOL0     C71562   2.666   7.106   8.294 -0.3551 -0.0951  0.1052
  531MOL0     C71563   2.730   7.056   8.422  0.5987  0.1969  0.2846
  531MOL0     C71564   2.878   7.087   8.449  0.0306  0.5350  0.2263
  531MOL0     C71565   2.936   7.011   8.570  0.1479  0.4892 -0.2938
  531MOL0     C71566   3.078   7.064   8.607  0.5472 -1.2374 -0.3951
  531MOL0     N71567   3.111   7.038   8.743  0.3870  0.0149  0.7724
  531MOL0     C71568   3.083   7.110   8.855  0.1189  0.4213  0.2234
  531MOL0     C71569   3.144   7.041   8.953 -0.0627 -0.0610  0.2214
  531MOL0     C71570   3.130   7.077   9.098  0.7403 -0.8954 -0.0216
  531MOL0     C71571   3.275   7.078   9.166  0.8102 -0.8189  0.6784
  531MOL0     C71572   3.265   7.108   9.322  0.7000  0.1060  0.2187
  531MOL0     C71573   3.399   7.113   9.380  0.0984  0.4186 -0.1900
  531MOL0     O71574   3.476   7.000   9.349  0.6799  0.0689  0.5481
  531MOL0     C71575   3.609   6.994   9.376 -0.0536  1.1124 -0.2097
  531MOL0     C71576   3.673   7.078   9.471 -0.4727  0.5371 -0.4150
  531MOL0     C71577   3.818   7.065   9.490 -0.3297 -0.3438 -0.1217
  531MOL0     C71578   3.895   6.962   9.432  0.2779  0.7950 -0.1160
  531MOL0     C71579   4.043   6.952   9.445  0.5929  1.5300 -1.0738
  531MOL0     O71580   4.109   7.044   9.522  0.8063  0.2688 -0.2103
  531MOL0     C71581   4.240   7.018   9.549  0.8134  0.0088 -0.1053
  531MOL0     C71582   4.270   7.002   9.683 -0.7488 -0.6163 -0.3691
  531MOL0     C71583   4.387   6.945   9.710  0.0700 -0.5513 -1.2399
  531MOL0     C71584   4.493   6.908   9.618  0.7647 -0.4076 -0.1855
  531MOL0     O71585   4.608   6.856   9.664  0.1884 -0.4939 -0.0749
  531MOL0     C71586   4.730   6.929   9.623 -0.2992 -0.2159  0.2898
  531MOL0     C71587   4.815   6.933   9.752  0.3336 -0.1042  0.2173
  531MOL0     C71588   4.950   7.003   9.741  0.1704 -0.0593 -0.9288
  531MOL0     C71589   5.052   6.907   9.707 -0.3200 -0.6067  0.5098
  531MOL0     C71590   5.196   6.967   9.726  0.2794  0.7180 -0.3017
  531MOL0     C71591   5.233   7.081   9.635 -0.0186 -0.4410  0.0956
  531MOL0     C71592   5.375   7.129   9.673  0.4995  0.2099  0.3072
  531MOL0     C71593   5.438   7.195   9.551  0.2335 -0.5299  0.0473
  531MOL0    Cl71594   5.600   7.269   9.574  0.0509  0.2968  0.0539
  531MOL0     C71595   4.462   6.938   9.487  0.8067  0.4052 -0.5362
  531MOL0     C71596   4.332   6.978   9.452  0.6763 -0.6173 -0.4452
  531MOL0     O71597   4.082   6.844   9.394  0.3541 -0.2043 -0.1284
  531MOL0     C71598   3.822   6.873   9.343  0.2271  1.0893  0.1601
  531MOL0     C71599   3.686   6.890   9.317  0.8165  0.1390 -0.3136
  531MOL0     N71600   3.194   6.920   8.912 -0.1960  0.0290  0.4411
  531MOL0     N71601   3.169   6.921   8.786  0.7483 -0.4643 -0.7802
  531MOL0     C71602   2.119   6.832   8.096  0.2858 -0.2416 -0.3759
  531MOL0     C71603   1.991   6.779   8.061  0.0623  0.6192  0.9092
  531MOL0     C71604   1.509   6.762   8.085 -0.2835  0.2018 -0.3249
  531MOL0     C71605   1.532   6.645   8.163  0.1783 -0.1754 -0.2759
  531MOL0     C71606   1.429   6.565   8.212  0.1949 -0.1109  0.6495
  531MOL0     C71607   1.296   6.599   8.176  0.0617 -0.1672 -0.3100
  531MOL0     O71608   1.198   6.514   8.232  0.9645  0.7237  0.0419
  531MOL0     C71609   1.065   6.512   8.161 -0.0639 -0.0575 -0.5367
  531MOL0     C71610   0.974   6.400   8.218  0.0606 -0.6066 -0.4727
  531MOL0     C71611   0.832   6.410   8.163 -0.2109  0.0350 -0.9996
  531MOL0     C71612   0.734   6.491   8.255 -0.0080 -0.2974  1.1006
  531MOL0     C71613   0.746   6.436   8.389  0.1728 -0.1943 -0.2966
  531MOL0     C71614   0.751   6.408   8.503 -0.3738  0.3967  1.0354
  531MOL0     C71615   1.275   6.716   8.094  0.5007 -1.7174  0.2125
  531MOL0     C71616   1.379   6.799   8.056 -0.5106 -0.2975 -0.6132
  531MOL0     C71617   1.346   6.918   7.967  0.4921  0.7336 -0.7151
  531MOL0     H71618   1.803   7.038   8.169 -1.4093 -0.3497 -2.0723
  531MOL0     H71619   2.026   7.124   8.240  0.0244 -1.1323 -0.1235
  531MOL0     H71620   2.376   6.893   8.122 -1.1852 -0.6313  1.3463
  531MOL0     H71621   2.335   7.032   8.007  3.4740  0.3122 -0.0790
  531MOL0     H71622   2.455   7.189   8.118  0.5928  0.5705  1.8760
  531MOL0     H71623   2.554   7.050   8.058 -1.4783 -0.4336 -1.5338
  531MOL0     H71624   2.519   6.950   8.308 -1.0616  0.2458  0.8868
  531MOL0     H71625   2.471   7.108   8.353 -1.5921 -2.6787 -0.5907
  531MOL0     H71626   2.739   7.085   8.215  1.1742  0.9056  1.1862
  531MOL0     H71627   2.656   7.215   8.296  0.2932 -0.0269 -0.0757
  531MOL0     H71628   2.669   7.091   8.505 -0.9924 -0.2142 -0.6675
  531MOL0     H71629   2.726   6.948   8.410  0.1267  0.2878 -0.4506
  531MOL0     H71630   2.940   7.084   8.358 -0.3415 -0.5832 -0.0028
  531MOL0     H71631   2.885   7.191   8.483  1.0342 -0.3972  3.0878
  531MOL0     H71632   2.937   6.904   8.548  2.2441  0.1345  1.2449
  531MOL0     H71633   2.863   7.029   8.650  0.2942  0.8144 -0.2344
  531MOL0     H71634   3.144   7.021   8.530  1.4438  4.2646 -3.1907
  531MOL0     H71635   3.084   7.171   8.588 -0.1482 -1.4089 -1.6423
  531MOL0     H71636   3.017   7.196   8.857  0.2378  0.8657 -4.2700
  531MOL0     H71637   3.075   7.171   9.108  0.2501 -1.1601 -0.2269
  531MOL0     H71638   3.066   7.000   9.142  1.3389 -1.5557 -0.2957
  531MOL0     H71639   3.324   6.984   9.140 -1.4249 -2.7681  3.0342
  531MOL0     H71640   3.332   7.156   9.114  1.1975 -0.9025  0.9697
  531MOL0     H71641   3.215   7.028   9.377 -0.3143 -2.2483 -3.6971
  531MOL0     H71642   3.218   7.206   9.329 -1.5052 -0.8488 -0.5181
  531MOL0     H71643   3.396   7.117   9.489  0.7357 -1.5561 -0.0591
  531MOL0     H71644   3.446   7.205   9.343 -1.2061  1.1709 -0.0016
  531MOL0     H71645   3.609   7.146   9.526  0.1540  1.2153 -0.4979
  531MOL0     H71646   3.866   7.143   9.548 -1.9579  1.2092 -0.7379
  531MOL0     H71647   4.209   7.027   9.770  0.9116  1.4236  0.2859
  531MOL0     H71648   4.405   6.944   9.817 -2.4720  0.4048 -0.7133
  531MOL0     H71649   4.788   6.887   9.540  2.1650  2.1282  0.7031
  531MOL0     H71650   4.704   7.032   9.596  1.4283  0.1186 -0.2205
  531MOL0     H71651   4.757   6.993   9.823 -1.6710 -1.9888  0.2880
  531MOL0     H71652   4.810   6.831   9.790 -1.5017 -1.7306 -3.8198
  531MOL0     H71653   4.940   7.080   9.665 -0.7703  1.5762  0.7595
  531MOL0     H71654   4.979   7.059   9.831  2.3157 -0.9159 -1.0400
  531MOL0     H71655   5.037   6.869   9.605  0.1606  0.3818  0.0607
  531MOL0     H71656   5.037   6.811   9.757  1.1210 -1.5187 -0.7248
  531MOL0     H71657   5.266   6.889   9.695  0.7121  0.8886  0.2403
  531MOL0     H71658   5.209   6.999   9.829  0.7608  2.5498 -0.8977
  531MOL0     H71659   5.219   7.045   9.533 -0.1665  1.6231 -0.6571
  531MOL0     H71660   5.170   7.170   9.642  0.6446  0.0514 -0.0944
  531MOL0     H71661   5.436   7.045   9.707  0.2382  0.0975  0.4984
  531MOL0     H71662   5.352   7.200   9.753 -1.4882  2.9805 -2.4864
  531MOL0     H71663   5.450   7.130   9.463 -0.4888 -1.1019  0.3607
  531MOL0     H71664   5.370   7.279   9.532  0.2956 -0.7260 -1.1414
  531MOL0     H71665   4.530   6.908   9.408  3.0678 -0.7444  1.6844
  531MOL0     H71666   4.318   6.976   9.344  2.0012 -1.0313 -0.6264
  531MOL0     H71667   3.877   6.797   9.288  2.4037  1.1816  2.0850
  531MOL0     H71668   3.624   6.829   9.253 -4.4590  3.4295  0.9842
  531MOL0     H71669   2.201   6.765   8.076  0.2058  0.1937 -2.4403
  531MOL0     H71670   1.988   6.676   8.026 -1.1988  0.8894  0.1504
  531MOL0     H71671   1.627   6.594   8.170 -0.8206 -1.9567  1.0835
  531MOL0     H71672   1.448   6.477   8.273  0.6509 -0.3687  0.1465
  531MOL0     H71673   1.089   6.487   8.057  1.1355 -2.1186  0.1789
  531MOL0     H71674   1.013   6.607   8.174 -3.3042 -2.0067  2.2902
  531MOL0     H71675   0.988   6.413   8.325  1.1233 -0.7091 -0.5869
  531MOL0     H71676   1.006   6.298   8.197  0.2873 -0.9397  1.3207
  531MOL0     H71677   0.805   6.305   8.155 -0.1423 -0.4374  2.9932
  531MOL0     H71678   0.831   6.458   8.064  2.8172 -0.9191 -1.6062
  531MOL0     H71679   0.772   6.593   8.256 -3.2847  1.0681  0.1807
  531MOL0     H71680   0.631   6.499   8.220 -0.2748  0.6737  2.0524
  531MOL0     H71681   0.752   6.379   8.606 -0.3138  3.5351  2.0204
  531MOL0     H71682   1.175   6.756   8.082  0.3872 -2.3767 -1.1833
  531MOL0     H71683   1.363   7.012   8.021 -2.5592  1.4228 -0.7811
  531MOL0     H71684   1.406   6.908   7.875 -0.2615 -0.2482 -1.1115
  531MOL0     H71685   1.241   6.940   7.948  0.9552  3.7078 -0.3419
  532MOL0     O71686  10.479   7.986   1.180 -0.2816  0.1045 -0.0850
  532MOL0     C71687  10.436   8.003   1.295  0.2133  0.0203  0.4299
  532MOL0     O71688  10.496   8.078   1.390 -0.1458  0.6289 -0.7754
  532MOL0     C71689  10.624   8.120   1.354  0.0353 -0.6053 -0.5456
  532MOL0     C71690  10.646   8.233   1.273  0.6166  0.0023  0.5012
  532MOL0     C71691  10.773   8.283   1.243 -0.1422  0.3060  0.7275
  532MOL0     C71692  10.884   8.207   1.283 -0.0773  0.1982  0.4219
  532MOL0     O71693  11.009   8.252   1.239 -0.1468 -0.4226 -0.5491
  532MOL0     C71694  11.122   8.196   1.309 -0.4236 -0.0600  0.5799
  532MOL0     C71695  11.256   8.270   1.269  0.3475  0.1073 -1.0390
  532MOL0     C71696  11.386   8.200   1.327  0.8212 -0.0393  0.2033
  532MOL0     C71697  11.449   8.291   1.430 -0.3614  0.0564  0.0033
  532MOL0     C71698  11.581   8.221   1.492 -0.2458  0.1363  0.1078
  532MOL0     C71699  11.663   8.305   1.588  0.4657 -0.5349  0.1838
  532MOL0     C71700  11.794   8.236   1.631 -0.0529  0.5216  0.1738
  532MOL0     C71701  11.904   8.270   1.528  0.4037  0.3886  0.4337
  532MOL0     N71702  12.038   8.249   1.590  1.3132  0.2804 -0.0639
  532MOL0     C71703  12.141   8.165   1.541  0.6139  0.0454  0.1762
  532MOL0     C71704  12.250   8.196   1.619  0.6407  0.7884 -0.2036
  532MOL0     C71705  12.384   8.135   1.597  0.0517 -0.1443 -0.2549
  532MOL0     C71706  12.486   8.238   1.552 -0.4912  0.0990 -0.3668
  532MOL0     C71707  12.506   8.356   1.650  0.2963  0.8718  0.4311
  532MOL0     C71708  12.535   8.315   1.794 -0.2051 -0.0934  1.1647
  532MOL0     O71709  12.661   8.242   1.808 -0.2260 -1.0989  0.1697
  532MOL0     C71710  12.774   8.320   1.841  0.3576  0.2753 -0.3073
  532MOL0     C71711  12.895   8.255   1.868 -0.1581 -0.0297 -0.5530
  532MOL0     C71712  13.016   8.325   1.897  0.4030 -0.3482 -0.0981
  532MOL0     C71713  13.008   8.468   1.900  0.4674  0.9401 -0.0351
  532MOL0     C71714  13.131   8.541   1.923  0.0443  0.0486  0.1353
  532MOL0     O71715  13.130   8.667   1.857  0.0307  0.1959 -0.5019
  532MOL0     C71716  13.241   8.752   1.872 -0.5445  0.1613 -0.2292
  532MOL0     C71717  13.345   8.753   1.779  0.2076  0.4643 -0.3017
  532MOL0     C71718  13.449   8.845   1.789  0.6899  0.0072 -0.4753
  532MOL0     C71719  13.453   8.924   1.900 -0.6273 -0.0509  0.2256
  532MOL0     O71720  13.562   9.001   1.910 -0.1988 -0.0875  0.5322
  532MOL0     C71721  13.546   9.132   1.967  0.2414 -0.3213 -0.5955
  532MOL0     C71722  13.641   9.240   1.913  0.9307  0.1706 -0.0027
  532MOL0     C71723  13.781   9.222   1.976  0.1590 -0.7370  0.1045
  532MOL0     C71724  13.891   9.269   1.878  0.7096 -0.0605  0.1258
  532MOL0     C71725  14.028   9.237   1.930  0.1759  0.2237  0.4323
  532MOL0     C71726  14.080   9.347   2.026 -0.0374 -0.4055 -0.0528
  532MOL0     C71727  14.098   9.475   1.937 -0.1311 -0.5662  0.2665
  532MOL0     C71728  14.206   9.567   1.990  0.0213  0.3358 -0.4215
  532MOL0    Cl71729  14.159   9.632   2.142 -0.4429  0.1667 -0.1462
  532MOL0     C71730  13.355   8.920   2.003  0.3385  0.5121  0.0874
  532MOL0     C71731  13.245   8.832   1.981 -0.1659  0.4065 -1.2322
  532MOL0     O71732  13.218   8.501   1.997 -0.2746 -0.2323 -0.2801
  532MOL0     C71733  12.888   8.535   1.873  0.2388 -0.2744 -0.3820
  532MOL0     C71734  12.776   8.463   1.839  0.0360 -0.5188  0.7165
  532MOL0     N71735  12.212   8.293   1.715 -0.5635  0.5069  0.1979
  532MOL0     N71736  12.091   8.324   1.693 -0.2028  0.7946  0.2848
  532MOL0     C71737  10.862   8.096   1.365 -0.3330  0.6794  0.2050
  532MOL0     C71738  10.739   8.049   1.408  0.5921 -0.4920  0.3321
  532MOL0     C71739  10.300   7.946   1.313  0.1733 -0.4090  0.0783
  532MOL0     C71740  10.230   7.903   1.202  1.2354  0.1733 -0.1474
  532MOL0     C71741  10.094   7.857   1.219 -0.4302  0.4326 -0.4816
  532MOL0     C71742  10.029   7.847   1.337  0.0933  0.5330 -0.3471
  532MOL0     O71743   9.905   7.797   1.344  0.6734  0.3485  0.0708
  532MOL0     C71744   9.814   7.837   1.447 -0.3512 -0.7564  0.2353
  532MOL0     C71745   9.778   7.979   1.434  0.5011  0.4696 -0.0814
  532MOL0     C71746   9.649   8.025   1.508  0.3329  0.4608  0.7526
  532MOL0     C71747   9.517   7.973   1.456 -0.4841 -0.3330  0.3355
  532MOL0     C71748   9.406   8.048   1.523  0.0593  0.2380  0.6381
  532MOL0     C71749   9.311   8.101   1.569 -0.0660  0.4364 -0.8888
  532MOL0     C71750  10.101   7.893   1.452  0.6842 -0.3423  0.6086
  532MOL0     C71751  10.231   7.949   1.438 -0.4720  0.6190 -0.3094
  532MOL0     C71752  10.287   8.015   1.563  0.3282  0.1521 -0.1372
  532MOL0     H71753  10.558   8.289   1.245 -0.5913 -1.1987  1.6990
  532MOL0     H71754  10.777   8.365   1.172  1.1294 -2.1165 -2.2504
  532MOL0     H71755  11.103   8.213   1.415 -0.1993  0.6864  0.5025
  532MOL0     H71756  11.136   8.088   1.297  1.0576 -0.2138  3.1803
  532MOL0     H71757  11.249   8.374   1.303 -0.9300  0.3788 -2.0579
  532MOL0     H71758  11.263   8.263   1.160 -2.4237 -3.0165 -1.1855
  532MOL0     H71759  11.450   8.188   1.239  1.6663  1.7414  0.5106
  532MOL0     H71760  11.363   8.103   1.373  2.5096 -0.0313  1.1591
  532MOL0     H71761  11.475   8.390   1.390 -0.7045  1.1811  2.4037
  532MOL0     H71762  11.382   8.316   1.513 -0.8188 -0.1807 -0.2900
  532MOL0     H71763  11.554   8.129   1.544  3.0928 -1.1344 -0.2147
  532MOL0     H71764  11.649   8.206   1.408  2.8047 -1.1728  2.6254
  532MOL0     H71765  11.676   8.404   1.544  1.6738 -0.8069 -0.0907
  532MOL0     H71766  11.612   8.325   1.682  2.1828  2.5375  0.5802
  532MOL0     H71767  11.778   8.128   1.637  0.1155  0.4749 -0.1674
  532MOL0     H71768  11.815   8.272   1.732  0.8520 -0.7159  0.4634
  532MOL0     H71769  11.893   8.202   1.443  1.3334  0.2610  0.4095
  532MOL0     H71770  11.888   8.373   1.493 -0.5899  0.9610  2.3755
  532MOL0     H71771  12.132   8.094   1.460  0.2894 -1.4591  1.4642
  532MOL0     H71772  12.421   8.076   1.682 -1.0070  0.7605  0.8679
  532MOL0     H71773  12.387   8.065   1.513 -3.2699  0.1568 -0.7575
  532MOL0     H71774  12.587   8.198   1.552  1.0621  3.3156  3.5260
  532MOL0     H71775  12.471   8.274   1.450  3.1453  0.2740 -0.9641
  532MOL0     H71776  12.429   8.434   1.648  0.8187  1.3774 -0.2282
  532MOL0     H71777  12.592   8.401   1.601  1.7196 -1.5204  0.5708
  532MOL0     H71778  12.455   8.256   1.838 -2.1226  0.4773 -1.3116
  532MOL0     H71779  12.536   8.411   1.847  0.4727  2.7066 -3.3102
  532MOL0     H71780  12.894   8.148   1.884  3.1281 -0.3157 -1.5441
  532MOL0     H71781  13.106   8.268   1.915  1.9694  1.9015 -0.4233
  532MOL0     H71782  13.344   8.681   1.698  0.3976  0.0506  0.0614
  532MOL0     H71783  13.535   8.845   1.723  0.5204  2.0600 -0.7353
  532MOL0     H71784  13.444   9.168   1.962  0.1209 -0.7210 -1.2099
  532MOL0     H71785  13.566   9.127   2.075  0.0792  3.4746 -0.2883
  532MOL0     H71786  13.636   9.228   1.805 -0.1652 -0.7558  0.1336
  532MOL0     H71787  13.608   9.342   1.937 -3.6647 -0.1288 -3.6034
  532MOL0     H71788  13.795   9.289   2.061  1.0709 -0.2374 -0.4207
  532MOL0     H71789  13.793   9.121   2.016  1.3023  0.3141  2.6483
  532MOL0     H71790  13.884   9.375   1.854 -0.5188 -0.4976 -1.5742
  532MOL0     H71791  13.875   9.236   1.775  2.2518  0.4216 -0.3023
  532MOL0     H71792  14.095   9.220   1.845 -0.3134 -2.1223  0.4519
  532MOL0     H71793  14.038   9.138   1.976  0.9260 -0.1096 -0.4189
  532MOL0     H71794  14.005   9.361   2.105  0.9758 -0.1425  0.8910
  532MOL0     H71795  14.176   9.320   2.070  0.7792 -1.9505 -2.5688
  532MOL0     H71796  14.011   9.540   1.926  0.5181  0.2964  0.0755
  532MOL0     H71797  14.112   9.453   1.831 -3.3147  0.7785 -0.5583
  532MOL0     H71798  14.292   9.504   2.014  0.7193  1.6178  0.6356
  532MOL0     H71799  14.236   9.636   1.911  0.8730 -2.2150 -2.4391
  532MOL0     H71800  13.366   8.974   2.097  1.3531 -1.8918  1.4748
  532MOL0     H71801  13.174   8.827   2.063 -1.6749  0.6421 -2.4745
  532MOL0     H71802  12.874   8.641   1.891 -2.0152 -0.5827  0.0722
  532MOL0     H71803  12.682   8.512   1.815 -0.0417 -0.3654  1.3254
  532MOL0     H71804  10.955   8.043   1.381  0.2565  1.1535 -1.4109
  532MOL0     H71805  10.731   7.960   1.469  1.4070 -1.3666 -0.7829
  532MOL0     H71806  10.270   7.899   1.101  0.9703  0.4464 -0.2624
  532MOL0     H71807  10.034   7.828   1.133 -2.0091 -1.4633  1.1435
  532MOL0     H71808   9.862   7.816   1.543 -0.0793 -0.9178  0.0654
  532MOL0     H71809   9.715   7.790   1.441 -0.4372 -0.7707  1.4984
  532MOL0     H71810   9.774   7.997   1.326 -0.3335 -1.2637 -0.3686
  532MOL0     H71811   9.867   8.030   1.472  1.3550 -1.5544  0.7662
  532MOL0     H71812   9.645   8.134   1.518 -0.3666  0.6953 -1.3827
  532MOL0     H71813   9.645   7.992   1.612  1.1358  0.8213  0.9026
  532MOL0     H71814   9.519   7.994   1.348  0.1988 -0.3243  0.3443
  532MOL0     H71815   9.504   7.865   1.464 -0.1468 -0.7432 -3.1067
  532MOL0     H71816   9.227   8.158   1.604 -0.2363 -0.1613 -0.3152
  532MOL0     H71817  10.054   7.906   1.549 -1.4251  1.3674 -0.5634
  532MOL0     H71818  10.395   8.001   1.572  0.5628  2.1970  0.8922
  532MOL0     H71819  10.266   8.122   1.564  2.2705  0.5744 -0.0225
  532MOL0     H71820  10.247   7.984   1.660 -0.9472 -0.0867 -0.7247
  533MOL0     O71821   6.587  10.510   9.117  0.6365  0.0123  0.2572
  533MOL0     C71822   6.555  10.603   9.195  0.4184 -0.6112 -0.0977
  533MOL0     O71823   6.635  10.665   9.283 -0.2602 -0.2990 -0.4728
  533MOL0     C71824   6.773  10.631   9.309  0.5279 -0.3150 -0.0274
  533MOL0     C71825   6.855  10.555   9.221  1.0295 -0.1782  0.4836
  533MOL0     C71826   6.989  10.520   9.252  0.1793  1.3366 -0.4912
  533MOL0     C71827   7.034  10.562   9.378  0.1154 -0.7588  1.1420
  533MOL0     O71828   7.159  10.534   9.410 -1.1135  0.4927  0.1127
  533MOL0     C71829   7.228  10.643   9.468  0.6589  0.6494  0.1455
  533MOL0     C71830   7.368  10.610   9.454  0.1626  0.2038 -0.7645
  533MOL0     C71831   7.419  10.576   9.305  0.3267  0.4749 -0.3745
  533MOL0     C71832   7.370  10.686   9.210 -0.3973 -0.8396 -0.1735
  533MOL0     C71833   7.472  10.712   9.089 -0.1971 -0.1883  0.0422
  533MOL0     C71834   7.416  10.820   8.995  0.1797 -1.1909  0.7174
  533MOL0     C71835   7.497  10.813   8.861 -1.0025 -0.9957 -0.2365
  533MOL0     C71836   7.432  10.890   8.741  0.1555  0.2040  0.4471
  533MOL0     N71837   7.479  11.030   8.731  0.7534 -0.3727 -0.0775
  533MOL0     C71838   7.593  11.079   8.667  0.2026 -0.3833  0.8642
  533MOL0     C71839   7.585  11.216   8.697  0.2122  0.2644  0.2484
  533MOL0     C71840   7.680  11.314   8.651 -0.1082 -0.3785  0.0063
  533MOL0     C71841   7.753  11.386   8.761 -0.6467 -0.7048 -0.0931
  533MOL0     C71842   7.795  11.535   8.707 -0.2066  1.3876 -0.3067
  533MOL0     C71843   7.879  11.547   8.575 -0.5660  0.2275  0.2106
  533MOL0     O71844   8.028  11.535   8.591 -0.5165 -0.4576  0.2410
  533MOL0     C71845   8.114  11.497   8.488  0.4260 -0.4747  0.3024
  533MOL0     C71846   8.083  11.526   8.352 -0.0216 -0.4702  0.1969
  533MOL0     C71847   8.171  11.494   8.249  0.1096  0.1417  0.2890
  533MOL0     C71848   8.277  11.407   8.286 -0.3759 -0.2021 -0.5604
  533MOL0     C71849   8.340  11.335   8.175 -0.3209  0.4376 -0.0980
  533MOL0     O71850   8.410  11.227   8.211 -0.7372  0.4375  0.2569
  533MOL0     C71851   8.470  11.153   8.118 -0.3836  0.3650  0.1237
  533MOL0     C71852   8.560  11.214   8.042 -0.4513 -0.2382 -0.0108
  533MOL0     C71853   8.622  11.144   7.936  0.2070  0.5333 -0.6682
  533MOL0     C71854   8.597  11.007   7.916 -0.2692 -0.3913  0.7283
  533MOL0     O71855   8.670  10.950   7.814 -0.3205  0.4185 -0.0508
  533MOL0     C71856   8.676  10.806   7.824  0.2485  0.0484 -1.3699
  533MOL0     C71857   8.779  10.763   7.726 -0.8788  0.6147 -0.9643
  533MOL0     C71858   8.754  10.811   7.579  0.6633 -0.1613 -0.0297
  533MOL0     C71859   8.872  10.768   7.489  0.1447  0.5830 -0.8736
  533MOL0     C71860   8.849  10.827   7.345 -0.0094 -0.0934 -0.3678
  533MOL0     C71861   8.982  10.860   7.269  0.1571 -0.0449  0.3267
  533MOL0     C71862   9.052  10.737   7.205  0.3231  0.4322 -0.0749
  533MOL0     C71863   9.178  10.672   7.276  0.5896 -0.5253  0.7414
  533MOL0    Cl71864   9.323  10.789   7.300 -0.1138 -0.1573 -0.2888
  533MOL0     C71865   8.503  10.946   8.003 -0.0678  0.2926  0.4743
  533MOL0     C71866   8.430  11.016   8.103 -0.4900 -0.5543  0.3692
  533MOL0     O71867   8.316  11.368   8.055 -0.2735 -0.7325 -0.1824
  533MOL0     C71868   8.314  11.380   8.417 -0.4317 -0.2751  0.1584
  533MOL0     C71869   8.231  11.435   8.523 -0.1362 -0.1714 -0.6067
  533MOL0     N71870   7.479  11.247   8.780  0.3406  0.2245  0.1243
  533MOL0     N71871   7.421  11.126   8.803 -0.8344 -0.5551  0.4835
  533MOL0     C71872   6.951  10.636   9.471 -0.7810 -0.1011  0.9826
  533MOL0     C71873   6.820  10.663   9.432  0.1274 -0.9896 -0.1336
  533MOL0     C71874   6.410  10.652   9.187 -0.1015 -0.2793  0.2494
  533MOL0     C71875   6.379  10.786   9.227 -0.0941  1.1743  0.0875
  533MOL0     C71876   6.251  10.826   9.241 -1.0501  0.7013  0.3764
  533MOL0     C71877   6.138  10.746   9.193  0.3061 -0.0295 -0.8143
  533MOL0     O71878   6.009  10.793   9.192 -0.3501  0.5835  0.2781
  533MOL0     C71879   5.970  10.898   9.281  0.7880  0.2371  0.1652
  533MOL0     C71880   5.815  10.887   9.304  0.3773  0.2838  1.3274
  533MOL0     C71881   5.750  10.931   9.172 -0.4978  0.3419  0.2064
  533MOL0     C71882   5.601  10.890   9.151 -1.1703  0.0366  0.6460
  533MOL0     C71883   5.521  10.969   9.242  0.0017 -0.2636 -0.4226
  533MOL0     C71884   5.456  11.036   9.320  0.0922 -0.3939  0.0889
  533MOL0     C71885   6.170  10.621   9.145 -0.9828 -0.2188  0.8561
  533MOL0     C71886   6.303  10.575   9.143 -0.1706  0.0951 -1.3815
  533MOL0     C71887   6.300  10.431   9.115  0.2782 -0.1137 -0.6585
  533MOL0     H71888   6.823  10.539   9.118  2.5977 -1.7156  0.1769
  533MOL0     H71889   7.052  10.471   9.180 -0.6890 -0.3358 -0.1637
  533MOL0     H71890   7.196  10.734   9.417 -2.2172  0.0498  0.7149
  533MOL0     H71891   7.213  10.659   9.575  1.9394 -0.0140  0.4379
  533MOL0     H71892   7.388  10.526   9.522  1.9618 -0.4449 -2.0207
  533MOL0     H71893   7.425  10.697   9.489  1.1107  0.7512 -3.4872
  533MOL0     H71894   7.380  10.480   9.271  0.3998  0.8940 -1.7067
  533MOL0     H71895   7.528  10.567   9.307  0.2664 -0.2426  0.2675
  533MOL0     H71896   7.269  10.664   9.172 -0.9508  1.1772  0.0153
  533MOL0     H71897   7.376  10.780   9.266  0.8586 -0.1366 -1.4251
  533MOL0     H71898   7.565  10.755   9.127  0.7287 -1.1890 -1.0322
  533MOL0     H71899   7.490  10.624   9.027  0.2890  0.6552 -1.0303
  533MOL0     H71900   7.308  10.810   8.979  0.2725  1.8766 -3.9139
  533MOL0     H71901   7.429  10.921   9.033 -1.0292 -0.2793 -1.0902
  533MOL0     H71902   7.500  10.708   8.830  3.1806 -0.2773 -3.1062
  533MOL0     H71903   7.598  10.847   8.883 -1.5887 -0.0571  1.1418
  533MOL0     H71904   7.446  10.843   8.643 -1.0649  3.5099 -1.4481
  533MOL0     H71905   7.324  10.886   8.757  0.1421  0.9004  0.5575
  533MOL0     H71906   7.670  11.024   8.614  0.2113  0.4861 -0.0575
  533MOL0     H71907   7.759  11.280   8.584  0.0578  0.4895 -0.2536
  533MOL0     H71908   7.620  11.381   8.589  0.3324  0.3156  0.3169
  533MOL0     H71909   7.689  11.388   8.850 -1.5117 -2.0182 -0.6574
  533MOL0     H71910   7.842  11.339   8.801 -0.3010 -0.1619 -0.2108
  533MOL0     H71911   7.846  11.593   8.785  1.5658  2.7342 -2.3231
  533MOL0     H71912   7.701  11.587   8.685 -0.3865  1.3510  0.3667
  533MOL0     H71913   7.866  11.642   8.521  1.5433 -0.2178 -1.2095
  533MOL0     H71914   7.823  11.479   8.510 -2.8753  0.5143  1.8025
  533MOL0     H71915   8.007  11.600   8.332  3.2287  2.8376 -1.0942
  533MOL0     H71916   8.144  11.524   8.148  0.1372  1.4433  0.6468
  533MOL0     H71917   8.585  11.319   8.053  4.4712 -1.0664 -0.7145
  533MOL0     H71918   8.685  11.208   7.874 -1.6110  2.6508 -0.4694
  533MOL0     H71919   8.706  10.770   7.923  0.4126  1.1323 -1.0183
  533MOL0     H71920   8.576  10.774   7.794 -2.4240  2.8416  3.3921
  533MOL0     H71921   8.877  10.799   7.758 -1.2852  0.8884  0.0030
  533MOL0     H71922   8.785  10.654   7.735  1.4090  0.7418 -0.2299
  533MOL0     H71923   8.664  10.771   7.532  0.9553 -0.4081 -0.3937
  533MOL0     H71924   8.755  10.920   7.571 -0.6706 -0.2144 -1.6464
  533MOL0     H71925   8.882  10.659   7.499  4.3521  0.9118  0.3573
  533MOL0     H71926   8.966  10.797   7.537  0.3838 -2.8848  1.1312
  533MOL0     H71927   8.787  10.917   7.355  0.0263  0.0356 -1.2377
  533MOL0     H71928   8.791  10.761   7.281  0.9991 -0.9391 -0.4347
  533MOL0     H71929   8.959  10.931   7.189  0.2668 -2.1780 -1.7144
  533MOL0     H71930   9.047  10.912   7.340 -0.4365  0.0597  0.7957
  533MOL0     H71931   9.092  10.760   7.106  3.2097 -1.8845  0.4018
  533MOL0     H71932   8.973  10.666   7.182 -1.3951  2.1971  0.1070
  533MOL0     H71933   9.147  10.633   7.374 -0.7554  0.8691  0.9216
  533MOL0     H71934   9.213  10.590   7.213  4.6057  2.8937 -1.9931
  533MOL0     H71935   8.465  10.844   8.000  0.0651  0.1512  2.4846
  533MOL0     H71936   8.360  10.968   8.171 -1.7283  0.2898 -0.2852
  533MOL0     H71937   8.396  11.313   8.442 -0.0744 -0.5202 -1.5653
  533MOL0     H71938   8.236  11.434   8.631  0.8536  1.8267 -0.5836
  533MOL0     H71939   7.000  10.672   9.561 -1.2604 -0.2773  1.3208
  533MOL0     H71940   6.747  10.713   9.495 -1.9566  0.0946 -3.1645
  533MOL0     H71941   6.454  10.859   9.258 -1.1557  1.3579  2.4816
  533MOL0     H71942   6.229  10.924   9.282  0.3908  0.8949  0.7297
  533MOL0     H71943   5.989  10.993   9.229  1.9666 -0.0023  0.1479
  533MOL0     H71944   6.023  10.898   9.376  0.3069  0.3635  0.4381
  533MOL0     H71945   5.779  10.954   9.383 -2.1776  4.6555 -2.9513
  533MOL0     H71946   5.784  10.783   9.319 -0.7168  0.8886  3.8842
  533MOL0     H71947   5.814  10.897   9.090 -1.3214  0.9388 -0.6988
  533MOL0     H71948   5.763  11.039   9.167  1.7929  0.0603 -1.5629
  533MOL0     H71949   5.566  10.903   9.048  0.5773 -0.3700 -0.0388
  533MOL0     H71950   5.589  10.782   9.162  0.3855 -0.1100  1.0972
  533MOL0     H71951   5.425  11.113   9.387  0.4780 -0.3616  0.2330
  533MOL0     H71952   6.082  10.566   9.114 -2.3049  0.6389  2.8668
  533MOL0     H71953   6.372  10.414   9.034  0.7859 -1.2023  0.0102
  533MOL0     H71954   6.328  10.382   9.208  1.5258 -0.1463 -1.0350
  533MOL0     H71955   6.206  10.386   9.081 -0.8630 -0.2714  2.4023
  534MOL0     O71956   0.692   4.412   2.404  0.7921 -0.2731  0.6304
  534MOL0     C71957   0.713   4.518   2.466  0.3358  0.7500 -0.7234
  534MOL0     O71958   0.831   4.562   2.506 -0.5536  0.7830 -0.1939
  534MOL0     C71959   0.938   4.479   2.511 -0.4051 -0.0455 -1.0860
  534MOL0     C71960   0.984   4.386   2.411 -0.4905 -0.0122 -0.3602
  534MOL0     C71961   1.108   4.329   2.425 -0.2442 -0.0164  1.0696
  534MOL0     C71962   1.198   4.350   2.522 -0.5468  0.0582  0.2310
  534MOL0     O71963   1.321   4.286   2.522 -0.2371  0.4840 -0.9359
  534MOL0     C71964   1.407   4.342   2.624  0.3957 -0.3689  0.0613
  534MOL0     C71965   1.549   4.286   2.620  0.4888 -0.4446 -0.5270
  534MOL0     C71966   1.610   4.280   2.755  0.5893  1.0096 -0.1286
  534MOL0     C71967   1.758   4.267   2.744 -0.6246  0.6467  0.3080
  534MOL0     C71968   1.824   4.279   2.888 -0.7505 -0.5480 -0.0535
  534MOL0     C71969   1.963   4.201   2.909 -0.4982 -0.5879 -0.4782
  534MOL0     C71970   2.072   4.264   2.816  0.3274  0.3847 -0.3028
  534MOL0     C71971   2.194   4.168   2.812 -0.9074  0.6033 -0.1781
  534MOL0     N71972   2.285   4.168   2.933 -0.0220 -0.3830  0.2487
  534MOL0     C71973   2.283   4.093   3.051  0.2347 -0.0251  0.5706
  534MOL0     C71974   2.378   4.141   3.127 -0.4568  0.7796  0.6138
  534MOL0     C71975   2.423   4.092   3.261  0.3235 -0.1920  0.2598
  534MOL0     C71976   2.459   3.942   3.278  0.4565 -0.1103  0.4394
  534MOL0     C71977   2.544   3.894   3.169  0.0814  0.4590  0.1733
  534MOL0     C71978   2.700   3.906   3.197  0.4310 -0.2696 -0.2606
  534MOL0     O71979   2.726   3.831   3.311 -0.4654 -0.0545  0.4081
  534MOL0     C71980   2.852   3.778   3.310 -0.2177 -0.2484 -0.6017
  534MOL0     C71981   2.966   3.839   3.251 -0.4847  0.4581 -0.0655
  534MOL0     C71982   3.091   3.773   3.265  0.4107 -1.0184  0.5787
  534MOL0     C71983   3.101   3.654   3.336 -0.9238  0.5054 -0.3673
  534MOL0     C71984   3.229   3.581   3.370  0.7687  0.2786  0.4632
  534MOL0     O71985   3.212   3.453   3.417 -0.0555 -0.0412  0.2694
  534MOL0     C71986   3.304   3.374   3.472  0.0192  1.1316  1.3514
  534MOL0     C71987   3.246   3.249   3.527 -0.0874 -0.0297 -0.9785
  534MOL0     C71988   3.328   3.176   3.618 -0.2735  1.2132 -0.3569
  534MOL0     C71989   3.459   3.203   3.650  0.1870 -0.1002 -0.5581
  534MOL0     O71990   3.522   3.117   3.729  0.0619  0.0714  0.2325
  534MOL0     C71991   3.668   3.139   3.749  0.1012 -0.0924  0.1847
  534MOL0     C71992   3.725   3.019   3.817  0.0707  0.2228 -0.3334
  534MOL0     C71993   3.738   3.034   3.969  0.5289  0.8161  0.4066
  534MOL0     C71994   3.855   3.126   4.002 -0.3594 -0.4823  0.0305
  534MOL0     C71995   3.898   3.120   4.145  0.1561  0.2255 -0.6954
  534MOL0     C71996   3.998   3.227   4.171  0.1315 -0.3890  0.5042
  534MOL0     C71997   4.055   3.236   4.312 -0.1164 -0.2531 -0.3660
  534MOL0     C71998   4.177   3.332   4.325 -0.0411  0.1694 -0.8668
  534MOL0    Cl71999   4.230   3.359   4.493 -0.1660 -0.3958 -0.5400
  534MOL0     C72000   3.517   3.311   3.586  0.3484  0.4014  0.0787
  534MOL0     C72001   3.445   3.390   3.498 -0.1758  0.2174  0.5226
  534MOL0     O72002   3.339   3.629   3.351 -0.3190  0.3188  0.0385
  534MOL0     C72003   2.988   3.611   3.405  0.2796  0.2582  0.4481
  534MOL0     C72004   2.871   3.675   3.389  0.1811 -0.4529 -0.1470
  534MOL0     N72005   2.442   4.245   3.056 -0.4562 -0.9133 -0.5360
  534MOL0     N72006   2.380   4.262   2.946 -0.1976  1.0390 -0.0687
  534MOL0     C72007   1.151   4.451   2.619  0.0339  0.9115  0.4846
  534MOL0     C72008   1.025   4.507   2.615  0.9096 -0.3802 -0.1305
  534MOL0     C72009   0.604   4.619   2.479  0.5187 -0.4541 -0.2726
  534MOL0     C72010   0.649   4.753   2.506  0.4447 -0.1269 -0.3062
  534MOL0     C72011   0.555   4.851   2.524 -0.1408 -0.3998  0.1870
  534MOL0     C72012   0.419   4.821   2.512 -0.1861 -0.1146  0.4219
  534MOL0     O72013   0.329   4.920   2.546  0.1201 -1.1719  0.1949
  534MOL0     C72014   0.212   4.896   2.617  0.4865  0.2313  0.5727
  534MOL0     C72015   0.170   5.007   2.714  0.5821 -0.1033  0.0496
  534MOL0     C72016   0.010   5.003   2.730  0.0943 -0.0341 -0.6588
  534MOL0     C72017  -0.044   5.107   2.825 -0.2556 -0.0039  0.0456
  534MOL0     C72018  -0.013   5.052   2.963 -0.1176 -0.1445  0.1488
  534MOL0     C72019   0.014   5.008   3.069 -0.0355  0.1433  0.6154
  534MOL0     C72020   0.376   4.696   2.480  1.1081  0.5875 -0.2994
  534MOL0     C72021   0.466   4.591   2.451 -0.2259  0.4363 -0.3135
  534MOL0     C72022   0.415   4.465   2.389  0.3739 -0.3278 -0.2031
  534MOL0     H72023   0.912   4.365   2.332 -3.0090  3.2270  0.8167
  534MOL0     H72024   1.118   4.248   2.353  0.7533 -0.2961  1.5027
  534MOL0     H72025   1.400   4.451   2.618 -0.6793 -0.2679  2.2990
  534MOL0     H72026   1.368   4.315   2.722  1.7491  0.9277  1.0041
  534MOL0     H72027   1.607   4.356   2.558 -1.3837  2.9597  1.2637
  534MOL0     H72028   1.555   4.185   2.581 -0.5151 -0.5369 -0.4601
  534MOL0     H72029   1.561   4.202   2.813  0.2818  0.8951 -0.5440
  534MOL0     H72030   1.589   4.372   2.811 -0.1335 -0.3092  1.8835
  534MOL0     H72031   1.800   4.187   2.682  2.2189  1.2172  1.3453
  534MOL0     H72032   1.809   4.350   2.695  1.2769  0.2618  1.5223
  534MOL0     H72033   1.832   4.384   2.914  0.3389 -0.6466  0.0253
  534MOL0     H72034   1.753   4.240   2.962 -2.5826  1.7481 -0.5066
  534MOL0     H72035   1.993   4.203   3.015  3.5133  3.1338 -1.3907
  534MOL0     H72036   1.942   4.096   2.885 -4.1894 -0.1254  0.2230
  534MOL0     H72037   2.080   4.364   2.859  0.5467 -0.9489  3.0964
  534MOL0     H72038   2.031   4.256   2.715 -0.8550  0.4423  0.1587
  534MOL0     H72039   2.162   4.064   2.804 -0.1919  0.4583 -1.2835
  534MOL0     H72040   2.257   4.191   2.726  1.1931  2.6501  1.7233
  534MOL0     H72041   2.222   4.008   3.082 -0.6250  0.8035  1.2135
  534MOL0     H72042   2.508   4.148   3.301  1.1505 -1.2644  0.0535
  534MOL0     H72043   2.338   4.109   3.328 -2.1608 -0.9176 -2.4801
  534MOL0     H72044   2.497   3.914   3.376  0.3103  1.2952  0.9109
  534MOL0     H72045   2.371   3.876   3.274  0.4207 -0.0097 -1.0123
  534MOL0     H72046   2.509   3.930   3.071  0.0617  0.2939  0.1186
  534MOL0     H72047   2.533   3.785   3.165 -1.1581  0.5920 -1.8516
  534MOL0     H72048   2.715   4.014   3.206 -1.3611 -0.0835  1.1924
  534MOL0     H72049   2.752   3.867   3.109  0.9772 -2.3080  0.8958
  534MOL0     H72050   2.956   3.929   3.192  0.4328  0.2854 -0.4897
  534MOL0     H72051   3.182   3.804   3.215  0.9689 -3.1399  0.1713
  534MOL0     H72052   3.143   3.229   3.499  0.0828 -2.9694  0.1613
  534MOL0     H72053   3.282   3.095   3.674  2.1550  0.4968  0.7383
  534MOL0     H72054   3.717   3.157   3.653 -3.0036 -0.5104 -1.6027
  534MOL0     H72055   3.682   3.231   3.808 -2.0923  3.1793 -3.8797
  534MOL0     H72056   3.680   2.922   3.795 -0.3858  0.8583 -2.4102
  534MOL0     H72057   3.822   2.994   3.773  0.3009  0.1623  0.2036
  534MOL0     H72058   3.650   3.087   4.007  0.9824  1.6487  0.3279
  534MOL0     H72059   3.735   2.933   4.010  0.8665  0.7452  0.2610
  534MOL0     H72060   3.823   3.225   3.969  1.2233 -0.5775 -1.9730
  534MOL0     H72061   3.942   3.101   3.941  0.5002  2.6003 -0.2007
  534MOL0     H72062   3.942   3.026   4.181  0.8503  1.3206  1.4978
  534MOL0     H72063   3.811   3.137   4.209 -0.0517  0.6962 -1.0930
  534MOL0     H72064   4.077   3.225   4.096  1.4640  0.8235  1.7956
  534MOL0     H72065   3.946   3.322   4.157  1.3666  0.1260 -0.9545
  534MOL0     H72066   4.088   3.136   4.343  0.2771  0.3981  1.4621
  534MOL0     H72067   3.978   3.273   4.380  0.3434  2.5007 -1.2136
  534MOL0     H72068   4.251   3.276   4.268  0.0222 -0.5431 -0.0947
  534MOL0     H72069   4.153   3.425   4.272  2.7527  0.5026 -1.6790
  534MOL0     H72070   3.618   3.350   3.588 -0.0036  1.5435 -2.0691
  534MOL0     H72071   3.486   3.486   3.472  1.8286 -0.4671  0.9484
  534MOL0     H72072   2.993   3.526   3.473 -0.1734 -0.0735  0.0720
  534MOL0     H72073   2.785   3.642   3.447 -0.6387 -0.0455 -1.0900
  534MOL0     H72074   1.218   4.494   2.693  0.5419  3.2928 -1.2399
  534MOL0     H72075   1.019   4.586   2.689  3.4996  2.8998 -3.0653
  534MOL0     H72076   0.754   4.778   2.512  0.2777  0.3176  1.0698
  534MOL0     H72077   0.591   4.951   2.547 -1.6506 -0.1229  1.4871
  534MOL0     H72078   0.214   4.803   2.676 -1.0196 -0.1632  0.0388
  534MOL0     H72079   0.131   4.882   2.545  1.1372  0.5004 -0.2232
  534MOL0     H72080   0.200   5.108   2.686 -2.3262  1.0717  0.8681
  534MOL0     H72081   0.222   5.000   2.810  3.4252  1.1361 -1.2973
  534MOL0     H72082  -0.027   4.902   2.754 -2.7212  0.8827 -0.7945
  534MOL0     H72083  -0.030   5.025   2.630  1.8805  1.0610 -1.1821
  534MOL0     H72084   0.006   5.203   2.814  1.1347 -0.8215 -1.0342
  534MOL0     H72085  -0.152   5.123   2.827 -0.1533  0.6244  0.6705
  534MOL0     H72086   0.036   4.984   3.172  0.2860  0.2625  0.5748
  534MOL0     H72087   0.269   4.683   2.475  1.2303 -0.6004 -0.1260
  534MOL0     H72088   0.313   4.483   2.355 -0.4304  0.5213  2.3573
  534MOL0     H72089   0.476   4.426   2.308 -0.7992 -3.4665  0.2873
  534MOL0     H72090   0.412   4.387   2.466 -2.6817  0.8423  1.0291
  535MOL0     O72091   9.270   8.173   0.318 -0.1117 -0.8933 -0.5102
  535MOL0     C72092   9.251   8.056   0.331 -0.4368  0.2782 -0.9132
  535MOL0     O72093   9.349   7.966   0.315  0.3571  0.6492  0.3841
  535MOL0     C72094   9.478   8.016   0.322  0.3689  0.2142 -0.0313
  535MOL0     C72095   9.543   8.036   0.198  0.1232  0.4902  0.1682
  535MOL0     C72096   9.674   8.072   0.201  0.3591 -0.2311 -0.1174
  535MOL0     C72097   9.734   8.111   0.322 -0.4896 -0.2530  0.2163
  535MOL0     O72098   9.852   8.178   0.338 -0.1103  0.8962  0.1524
  535MOL0     C72099   9.937   8.191   0.227 -0.3204  0.3263  0.1300
  535MOL0     C72100  10.066   8.267   0.264 -0.3662  0.1849 -0.1540
  535MOL0     C72101  10.153   8.313   0.141 -0.1875  0.3833 -0.9541
  535MOL0     C72102  10.267   8.420   0.167  0.1398  0.1511 -0.0477
  535MOL0     C72103  10.387   8.424   0.066 -0.3838 -1.3469 -0.2918
  535MOL0     C72104  10.453   8.289   0.038  0.8077  1.0211  0.1247
  535MOL0     C72105  10.515   8.209   0.156 -0.6247 -0.0811  0.5762
  535MOL0     C72106  10.631   8.131   0.099  0.5446 -0.5237  0.3958
  535MOL0     N72107  10.604   8.055  -0.023  0.3312  0.1571 -0.0685
  535MOL0     C72108  10.500   7.957  -0.027 -0.7735 -1.2655 -1.2497
  535MOL0     C72109  10.463   7.942  -0.157 -0.0229  0.1402 -1.3071
  535MOL0     C72110  10.356   7.860  -0.208  0.0096 -0.8878 -0.5441
  535MOL0     C72111  10.250   7.811  -0.111 -0.4337 -1.1577  0.0744
  535MOL0     C72112  10.146   7.926  -0.065  0.4606 -0.2349  0.1473
  535MOL0     C72113  10.029   7.863   0.002 -0.3514 -0.5109 -0.6498
  535MOL0     O72114  10.058   7.830   0.139 -0.2629 -0.0780 -0.0956
  535MOL0     C72115   9.951   7.787   0.215 -0.3160  0.6797 -0.6462
  535MOL0     C72116   9.852   7.700   0.159  0.0593  1.1097  0.4016
  535MOL0     C72117   9.741   7.669   0.243 -0.0614 -0.1718  0.3808
  535MOL0     C72118   9.732   7.722   0.376  0.6016  0.0296 -0.2963
  535MOL0     C72119   9.619   7.692   0.467 -0.1063  0.5086 -0.0883
  535MOL0     O72120   9.523   7.611   0.397 -0.1387  0.1316  0.2305
  535MOL0     C72121   9.401   7.592   0.452  0.6479 -0.2579 -0.4885
  535MOL0     C72122   9.347   7.460   0.430  0.5089 -0.8140 -0.3268
  535MOL0     C72123   9.223   7.427   0.477 -0.2976 -0.1443 -0.4939
  535MOL0     C72124   9.141   7.519   0.545 -0.3311  0.2734  0.4928
  535MOL0     O72125   9.015   7.473   0.570  0.3278 -0.8215 -0.7017
  535MOL0     C72126   8.917   7.579   0.603  0.2169  0.1504  0.3962
  535MOL0     C72127   8.772   7.557   0.567 -0.6890  1.2857  0.0202
  535MOL0     C72128   8.698   7.487   0.683 -0.6883 -0.1602  0.6382
  535MOL0     C72129   8.548   7.485   0.666  0.5927 -0.3756  0.6139
  535MOL0     C72130   8.483   7.420   0.785  0.2553 -0.5523  0.0585
  535MOL0     C72131   8.523   7.277   0.806 -0.3176 -0.0203 -0.4299
  535MOL0     C72132   8.424   7.205   0.905  0.2842 -0.6114  0.1657
  535MOL0     C72133   8.457   7.063   0.938  0.0544 -0.2767 -0.2025
  535MOL0    Cl72134   8.316   6.989   1.016  0.2988  0.4704  0.1927
  535MOL0     C72135   9.189   7.648   0.563  0.0189 -0.4611  0.2118
  535MOL0     C72136   9.320   7.680   0.525  0.1605  0.2847 -0.1938
  535MOL0     O72137   9.599   7.751   0.575  0.4054 -0.3308  0.5061
  535MOL0     C72138   9.839   7.799   0.424  1.3048  0.2925 -0.1167
  535MOL0     C72139   9.944   7.832   0.346  0.2717 -0.1776 -0.5215
  535MOL0     N72140  10.535   8.030  -0.236  0.6626  0.0421  0.1127
  535MOL0     N72141  10.619   8.093  -0.156 -0.0084  0.0916 -0.3138
  535MOL0     C72142   9.673   8.098   0.446 -0.0744 -0.0528  0.2160
  535MOL0     C72143   9.542   8.037   0.443  0.7612 -0.8927  0.8619
  535MOL0     C72144   9.111   8.005   0.348 -0.2965  0.0085  0.9545
  535MOL0     C72145   9.083   7.864   0.324 -0.8345 -0.0049  0.8672
  535MOL0     C72146   8.953   7.815   0.335  0.0655  0.5342  0.2101
  535MOL0     C72147   8.845   7.900   0.377  0.5747 -0.7456 -0.0281
  535MOL0     O72148   8.722   7.857   0.399 -0.1277 -0.1416 -0.1626
  535MOL0     C72149   8.619   7.937   0.334 -0.7688 -0.0363  0.1867
  535MOL0     C72150   8.496   7.848   0.292 -0.0335  0.8336 -0.1163
  535MOL0     C72151   8.442   7.751   0.401 -0.4087  0.9994  0.2338
  535MOL0     C72152   8.292   7.730   0.383 -0.5985 -0.2940  0.0560
  535MOL0     C72153   8.232   7.624   0.466  1.0723  0.3287 -0.5616
  535MOL0     C72154   8.180   7.542   0.541  0.4080 -0.6655 -0.9786
  535MOL0     C72155   8.873   8.035   0.408  0.8302  0.1312  0.7897
  535MOL0     C72156   9.004   8.093   0.383  0.6508  0.2471 -0.2541
  535MOL0     C72157   9.007   8.244   0.376 -0.5258  0.2019 -0.3372
  535MOL0     H72158   9.484   8.029   0.107  1.1371  0.4024 -0.4977
  535MOL0     H72159   9.717   8.114   0.111  2.0985  1.9063  1.5751
  535MOL0     H72160   9.961   8.091   0.191 -2.8042  0.3189 -1.7812
  535MOL0     H72161   9.878   8.245   0.152 -1.1135 -0.7952 -0.0739
  535MOL0     H72162  10.120   8.197   0.328  0.7615 -0.4953 -1.7794
  535MOL0     H72163  10.042   8.361   0.314  0.5922  1.6668 -2.2999
  535MOL0     H72164  10.078   8.360   0.077 -2.6074  0.5876  1.7779
  535MOL0     H72165  10.187   8.221   0.092 -1.5924  0.6028 -2.4376
  535MOL0     H72166  10.221   8.519   0.175  0.8572  0.4617  0.2987
  535MOL0     H72167  10.299   8.390   0.267 -0.3885 -0.2208  0.0141
  535MOL0     H72168  10.356   8.472  -0.028  1.7039  0.8388  0.0524
  535MOL0     H72169  10.464   8.493   0.100 -2.3805  0.0729  1.6469
  535MOL0     H72170  10.390   8.228  -0.027 -0.5562  0.9187  1.4720
  535MOL0     H72171  10.538   8.314  -0.026 -1.9200  2.5317 -3.2193
  535MOL0     H72172  10.442   8.135   0.188 -0.0920 -0.7659  0.2553
  535MOL0     H72173  10.545   8.277   0.237 -0.6390  2.4781 -1.4242
  535MOL0     H72174  10.724   8.189   0.094  0.1639  0.1314  0.7666
  535MOL0     H72175  10.661   8.050   0.165  0.2076  1.3432  3.0015
  535MOL0     H72176  10.463   7.913   0.065 -3.1001 -0.9665 -1.9904
  535MOL0     H72177  10.297   7.924  -0.274 -1.0982  1.3260  2.3679
  535MOL0     H72178  10.403   7.778  -0.263  0.6927 -1.0663  0.2807
  535MOL0     H72179  10.184   7.730  -0.144 -0.7021 -0.6919 -0.5575
  535MOL0     H72180  10.293   7.769  -0.020  1.7692 -2.3178 -1.4036
  535MOL0     H72181  10.103   7.978  -0.150 -2.1560 -3.2615 -0.5768
  535MOL0     H72182  10.193   8.006  -0.007  2.2759 -0.7331 -0.5604
  535MOL0     H72183   9.998   7.771  -0.048  0.7706 -0.4908 -1.4003
  535MOL0     H72184   9.944   7.932  -0.010  2.5299  2.9998 -2.8449
  535MOL0     H72185   9.864   7.654   0.061 -2.8570  0.6647  0.1603
  535MOL0     H72186   9.666   7.599   0.207 -0.9659  0.5821  0.7564
  535MOL0     H72187   9.399   7.385   0.373 -1.9511 -2.8549 -0.0620
  535MOL0     H72188   9.181   7.329   0.456 -2.3372  0.0885  1.9490
  535MOL0     H72189   8.924   7.615   0.706 -0.2743 -2.5168  1.4211
  535MOL0     H72190   8.944   7.663   0.539  0.8139  0.5169  1.1173
  535MOL0     H72191   8.731   7.654   0.538 -0.6669  1.1690 -0.4221
  535MOL0     H72192   8.772   7.493   0.478  1.3286 -1.0839  1.5802
  535MOL0     H72193   8.736   7.384   0.676 -0.5130 -0.0735  0.2769
  535MOL0     H72194   8.716   7.528   0.783 -1.3878 -2.7067  1.9128
  535MOL0     H72195   8.525   7.427   0.577 -1.6159 -1.5650  1.8834
  535MOL0     H72196   8.520   7.588   0.645  5.7616  0.8670 -1.9500
  535MOL0     H72197   8.374   7.425   0.776  0.4096 -0.1933 -2.6225
  535MOL0     H72198   8.507   7.468   0.880  2.0662  1.0985 -1.1393
  535MOL0     H72199   8.524   7.221   0.712 -0.4560 -3.0238  1.2082
  535MOL0     H72200   8.625   7.264   0.843 -0.3623 -1.7732 -0.8083
  535MOL0     H72201   8.320   7.203   0.870  0.8691  0.4798 -1.7263
  535MOL0     H72202   8.437   7.254   1.003  3.3674 -1.1926  0.1245
  535MOL0     H72203   8.459   7.012   0.841 -2.2506  0.3830 -0.6358
  535MOL0     H72204   8.553   7.048   0.989  1.4848  3.9951 -1.2280
  535MOL0     H72205   9.129   7.731   0.600  0.4237  0.4024 -0.9892
  535MOL0     H72206   9.363   7.779   0.538  1.1703 -0.2358  0.5764
  535MOL0     H72207   9.838   7.851   0.519 -3.2089  1.1336 -0.3631
  535MOL0     H72208  10.023   7.891   0.391 -1.1887  1.2676  0.3066
  535MOL0     H72209   9.728   8.130   0.534  3.4087 -0.6382 -1.5629
  535MOL0     H72210   9.470   8.020   0.523 -1.3586  3.3599  0.1946
  535MOL0     H72211   9.167   7.795   0.316 -2.0001 -1.5058  0.9812
  535MOL0     H72212   8.934   7.711   0.311 -1.4020  0.8089  0.0747
  535MOL0     H72213   8.656   7.989   0.245 -2.1591  2.2115  0.8451
  535MOL0     H72214   8.590   8.009   0.412  0.4667  1.1081 -0.3760
  535MOL0     H72215   8.519   7.788   0.204 -0.3311  0.8145 -0.1834
  535MOL0     H72216   8.414   7.913   0.259 -0.0784  0.1961 -1.3057
  535MOL0     H72217   8.437   7.795   0.501 -1.9547  1.8042 -0.1686
  535MOL0     H72218   8.500   7.658   0.395  0.8745  1.8576 -2.5291
  535MOL0     H72219   8.238   7.822   0.410 -0.5580  0.8035 -3.1439
  535MOL0     H72220   8.273   7.719   0.276  1.5760  0.8465 -0.4954
  535MOL0     H72221   8.135   7.467   0.602  0.7520 -0.6272 -0.6757
  535MOL0     H72222   8.788   8.088   0.451 -1.9401 -3.1589 -0.1860
  535MOL0     H72223   9.041   8.276   0.277  3.4265 -1.8945  0.1287
  535MOL0     H72224   8.912   8.290   0.405 -1.4453 -1.8743  0.1564
  535MOL0     H72225   9.070   8.289   0.453 -2.9016  2.0475  0.6579
  536MOL0     O72226   3.708   8.610   4.251  0.0454  0.3971  0.5651
  536MOL0     C72227   3.599   8.654   4.286  1.5670  0.8559 -0.2990
  536MOL0     O72228   3.577   8.773   4.346 -0.1079  0.0494  0.5793
  536MOL0     C72229   3.685   8.846   4.384  0.4516 -0.5545  0.1677
  536MOL0     C72230   3.724   8.956   4.316  0.1028  0.6109  0.4262
  536MOL0     C72231   3.821   9.043   4.369  0.5866  0.9641 -0.2227
  536MOL0     C72232   3.895   9.012   4.482 -0.6199  0.5565  0.8251
  536MOL0     O72233   3.990   9.097   4.519  0.3279 -0.1754 -0.6637
  536MOL0     C72234   4.079   9.061   4.630  0.7680 -0.3243  0.3815
  536MOL0     C72235   4.171   8.953   4.572  0.2651 -0.3984  0.8197
  536MOL0     C72236   4.310   8.951   4.636 -0.3521  0.5212  0.5572
  536MOL0     C72237   4.406   8.857   4.554  0.7672  0.4554 -0.2493
  536MOL0     C72238   4.545   8.873   4.622  0.6972 -0.0966 -0.2180
  536MOL0     C72239   4.650   8.777   4.549 -0.1226 -0.2001 -0.1526
  536MOL0     C72240   4.797   8.811   4.546 -0.1722  0.5110 -0.6527
  536MOL0     C72241   4.856   8.833   4.695 -0.1628 -0.4147 -0.2709
  536MOL0     N72242   4.994   8.884   4.680 -0.1389 -0.2704  0.8854
  536MOL0     C72243   5.082   8.869   4.570 -0.1905 -0.2769  0.4565
  536MOL0     C72244   5.203   8.897   4.615  0.1317 -0.3569  0.2863
  536MOL0     C72245   5.335   8.904   4.548  0.1432  0.1779  0.6143
  536MOL0     C72246   5.456   8.954   4.625 -0.3125 -0.2913  0.1556
  536MOL0     C72247   5.571   8.939   4.528 -0.1888  0.6224  0.0911
  536MOL0     C72248   5.702   8.989   4.600  0.1727  0.5535  0.2854
  536MOL0     O72249   5.811   8.989   4.515  0.0764 -0.0323  0.0528
  536MOL0     C72250   5.936   8.993   4.560  0.0898 -0.9178 -0.0069
  536MOL0     C72251   5.972   8.975   4.693  0.2535 -1.0054 -0.6554
  536MOL0     C72252   6.109   8.979   4.730  0.1146 -0.6042  0.1214
  536MOL0     C72253   6.218   8.985   4.635 -0.2688  0.2573 -0.1442
  536MOL0     C72254   6.358   8.972   4.685  0.9665 -0.8899  0.1732
  536MOL0     O72255   6.457   9.015   4.608 -0.1440  0.4264  0.5345
  536MOL0     C72256   6.598   8.993   4.631  0.6754 -0.1341 -0.0037
  536MOL0     C72257   6.681   9.059   4.548 -0.2848 -0.4645  0.2219
  536MOL0     C72258   6.822   9.058   4.565  0.2779  0.6171  0.2964
  536MOL0     C72259   6.874   8.969   4.664 -0.7511  0.5982  0.5091
  536MOL0     O72260   7.010   8.946   4.684  0.4904 -0.2295  0.3252
  536MOL0     C72261   7.113   9.051   4.670 -0.1137  0.2990 -0.7057
  536MOL0     C72262   7.219   9.023   4.778  0.0496 -0.2163  0.8282
  536MOL0     C72263   7.316   9.128   4.766 -0.9842 -0.3503  0.0621
  536MOL0     C72264   7.452   9.090   4.829  0.3478  0.1429  0.2617
  536MOL0     C72265   7.562   9.200   4.828  1.4028  0.1469  0.4228
  536MOL0     C72266   7.520   9.326   4.911  0.2157 -0.1311 -0.8744
  536MOL0     C72267   7.625   9.442   4.897  0.4003 -0.2564  0.3492
  536MOL0     C72268   7.573   9.588   4.928 -0.4383 -0.6224  0.2648
  536MOL0    Cl72269   7.440   9.634   4.817 -0.2868 -0.2649  0.1784
  536MOL0     C72270   6.790   8.890   4.733  0.2327  0.1177 -0.8358
  536MOL0     C72271   6.654   8.907   4.725 -0.0452  0.1777  0.0997
  536MOL0     O72272   6.370   8.931   4.802  0.2107 -0.0269 -0.1540
  536MOL0     C72273   6.180   8.991   4.502 -0.1386  0.1931  0.7902
  536MOL0     C72274   6.044   9.001   4.468  0.9414  0.6160  0.1219
  536MOL0     N72275   5.192   8.948   4.748 -0.3195 -0.3426 -0.1098
  536MOL0     N72276   5.064   8.940   4.776 -0.1896 -0.4767  1.2813
  536MOL0     C72277   3.840   8.899   4.555  0.9761  0.5086 -0.3004
  536MOL0     C72278   3.742   8.817   4.503 -0.1879 -0.3592  0.0783
  536MOL0     C72279   3.478   8.577   4.241  0.3976 -0.0613  0.2692
  536MOL0     C72280   3.354   8.643   4.227 -0.5594 -0.2752  0.2323
  536MOL0     C72281   3.234   8.577   4.189 -1.1025 -1.0609 -0.6122
  536MOL0     C72282   3.235   8.440   4.165 -0.3243  0.1738  0.6557
  536MOL0     O72283   3.124   8.368   4.128 -0.2776  0.0060  0.2060
  536MOL0     C72284   2.993   8.395   4.192 -0.3846  0.5573  0.3154
  536MOL0     C72285   2.896   8.280   4.175  0.2433 -0.0396 -0.3638
  536MOL0     C72286   2.848   8.253   4.028  0.0121 -0.2138 -0.5962
  536MOL0     C72287   2.774   8.117   4.012  0.2695  0.0193 -0.2511
  536MOL0     C72288   2.767   8.080   3.871  0.0283  0.3015  1.1785
  536MOL0     C72289   2.756   8.050   3.755 -0.3636 -0.0658  1.1562
  536MOL0     C72290   3.360   8.372   4.168  0.1491  1.0690 -0.0647
  536MOL0     C72291   3.480   8.435   4.212  0.7658 -0.6982  0.0148
  536MOL0     C72292   3.590   8.340   4.234  0.3140  0.1664 -0.5982
  536MOL0     H72293   3.664   8.989   4.232 -2.9109 -0.3950  2.0051
  536MOL0     H72294   3.838   9.122   4.297 -0.8801 -1.3866 -3.3782
  536MOL0     H72295   4.133   9.154   4.651  0.1965  0.2629 -0.6892
  536MOL0     H72296   4.033   9.023   4.722  1.6208  1.3725  1.5752
  536MOL0     H72297   4.185   8.989   4.469  4.7585  0.7942  1.6551
  536MOL0     H72298   4.123   8.855   4.583 -1.9196  0.3494 -1.1491
  536MOL0     H72299   4.297   8.899   4.731  0.1431 -0.2441  0.2174
  536MOL0     H72300   4.350   9.052   4.648  2.4531 -0.6086  1.4608
  536MOL0     H72301   4.377   8.752   4.561  4.4139 -0.9515 -2.9028
  536MOL0     H72302   4.403   8.884   4.448 -2.0418  0.0436 -0.3433
  536MOL0     H72303   4.577   8.977   4.609 -0.3437  0.4726  1.4436
  536MOL0     H72304   4.535   8.849   4.728  1.1879  2.1087  0.3794
  536MOL0     H72305   4.637   8.679   4.596 -0.3732 -1.0068 -1.8269
  536MOL0     H72306   4.629   8.769   4.442 -2.5068 -4.7477  0.4019
  536MOL0     H72307   4.816   8.906   4.496  2.5394  1.1641  1.3908
  536MOL0     H72308   4.846   8.730   4.491  0.0902 -1.0342  1.6893
  536MOL0     H72309   4.797   8.918   4.732  1.4447  0.4216  0.4902
  536MOL0     H72310   4.854   8.748   4.763 -0.7661 -0.0776  0.1455
  536MOL0     H72311   5.065   8.831   4.469  0.2772  0.5930  0.0370
  536MOL0     H72312   5.369   8.807   4.511  2.3449 -0.0247  2.8758
  536MOL0     H72313   5.323   8.962   4.457  1.0649  1.1214  1.0751
  536MOL0     H72314   5.444   9.059   4.654 -0.8837  0.4855 -2.5724
  536MOL0     H72315   5.475   8.894   4.714  0.6368  0.5515  0.5529
  536MOL0     H72316   5.556   8.998   4.437  0.3703  0.2551 -0.2437
  536MOL0     H72317   5.597   8.836   4.502  2.6505  1.2122  0.2781
  536MOL0     H72318   5.712   8.930   4.692 -2.7460  2.8019  2.2570
  536MOL0     H72319   5.685   9.094   4.624 -1.8642  0.6720 -1.3737
  536MOL0     H72320   5.900   8.953   4.771  2.4488  0.0903  1.8405
  536MOL0     H72321   6.114   8.973   4.838  1.6128  1.0868  0.2062
  536MOL0     H72322   6.637   9.125   4.474  0.9549 -0.5782 -0.6537
  536MOL0     H72323   6.890   9.121   4.509  2.1793 -1.7636 -0.2736
  536MOL0     H72324   7.154   9.068   4.570  2.6356  1.0723  0.4858
  536MOL0     H72325   7.057   9.142   4.691 -1.2685 -0.0396 -2.0777
  536MOL0     H72326   7.178   9.027   4.880 -1.2166  0.1687  0.3237
  536MOL0     H72327   7.254   8.921   4.761 -0.0935 -0.3313  1.1995
  536MOL0     H72328   7.324   9.159   4.662 -3.9806 -0.0162 -0.1484
  536MOL0     H72329   7.284   9.218   4.820  1.0611 -0.2712  1.2887
  536MOL0     H72330   7.484   9.001   4.773 -3.3131 -0.6740 -0.8104
  536MOL0     H72331   7.432   9.066   4.934  0.6776  0.3473  0.3710
  536MOL0     H72332   7.574   9.234   4.725  1.1263 -1.3602 -0.1272
  536MOL0     H72333   7.656   9.164   4.870  1.3831 -0.1268  0.2293
  536MOL0     H72334   7.423   9.363   4.877 -0.8709 -1.8007  0.2569
  536MOL0     H72335   7.500   9.297   5.014 -1.0051 -1.8761 -1.5449
  536MOL0     H72336   7.668   9.449   4.796 -0.0688 -0.2276  0.1490
  536MOL0     H72337   7.707   9.412   4.963  1.0734  0.8466  0.0625
  536MOL0     H72338   7.540   9.593   5.032 -2.2316 -1.9754 -0.1814
  536MOL0     H72339   7.656   9.659   4.922  0.0324 -1.1190  0.7605
  536MOL0     H72340   6.835   8.826   4.809 -0.7990  0.3833  0.0234
  536MOL0     H72341   6.592   8.854   4.797  0.6604 -3.7605 -1.9102
  536MOL0     H72342   6.256   8.988   4.424 -0.8978  0.9808 -0.0005
  536MOL0     H72343   6.026   9.006   4.361 -2.4856  0.3981  0.5991
  536MOL0     H72344   3.870   8.865   4.654  0.1700 -1.3353 -0.6379
  536MOL0     H72345   3.702   8.738   4.566 -1.4388  1.6239  1.9593
  536MOL0     H72346   3.350   8.750   4.247 -0.1204  0.8290 -4.3928
  536MOL0     H72347   3.145   8.638   4.173 -0.1026 -0.0489 -2.7127
  536MOL0     H72348   2.939   8.487   4.167 -1.2652  0.1031  0.4988
  536MOL0     H72349   3.018   8.412   4.298  4.0574 -1.1345 -0.2833
  536MOL0     H72350   2.808   8.294   4.239  1.7191  2.7399  1.2913
  536MOL0     H72351   2.947   8.189   4.207 -2.1512 -0.7504  1.7648
  536MOL0     H72352   2.931   8.264   3.956  0.4062 -0.0381 -0.1203
  536MOL0     H72353   2.780   8.332   3.994  0.0860  0.9639  1.7652
  536MOL0     H72354   2.828   8.040   4.068  2.8445  2.8439  1.4237
  536MOL0     H72355   2.670   8.120   4.048  0.4365 -0.2706  0.2699
  536MOL0     H72356   2.747   8.010   3.656  2.0682 -2.2366  1.6959
  536MOL0     H72357   3.362   8.266   4.144  3.7715  0.5676  1.7460
  536MOL0     H72358   3.690   8.381   4.245  1.4319 -2.3992 -0.4059
  536MOL0     H72359   3.577   8.270   4.318  1.6432  0.3244 -0.2366
  536MOL0     H72360   3.586   8.279   4.143 -2.3063 -0.3620 -0.2109
  537MOL0     O72361   4.705   6.771   5.710  0.2347  0.1886  0.2092
  537MOL0     C72362   4.623   6.804   5.800 -0.2324 -0.6393  0.6292
  537MOL0     O72363   4.660   6.857   5.924  0.5088 -0.4748 -0.8707
  537MOL0     C72364   4.794   6.837   5.956 -0.7526 -0.7840 -1.0276
  537MOL0     C72365   4.879   6.950   5.981  1.5086 -0.0983 -0.0759
  537MOL0     C72366   5.017   6.937   6.001  0.7535  0.4214 -0.2061
  537MOL0     C72367   5.070   6.812   6.020  0.0187  0.0209  0.3835
  537MOL0     O72368   5.203   6.824   6.052 -0.1292 -0.0632  0.2511
  537MOL0     C72369   5.289   6.715   6.013  0.6020 -1.5409 -0.3717
  537MOL0     C72370   5.427   6.734   6.083 -0.8028  0.1046  0.4647
  537MOL0     C72371   5.509   6.601   6.080 -0.2476  0.1133 -0.3453
  537MOL0     C72372   5.657   6.635   6.125 -0.3753 -0.1301 -0.3102
  537MOL0     C72373   5.751   6.517   6.091 -0.9562  0.9165  0.7674
  537MOL0     C72374   5.892   6.528   6.153  0.2566 -0.5071  0.3123
  537MOL0     C72375   5.982   6.405   6.123 -0.0894 -0.4046  0.3588
  537MOL0     C72376   6.095   6.454   6.026 -0.4816 -0.3655 -0.7331
  537MOL0     N72377   6.193   6.345   5.992 -0.1481  0.0368 -0.1030
  537MOL0     C72378   6.288   6.294   6.072 -1.2644 -0.7832 -0.3838
  537MOL0     C72379   6.351   6.197   5.997  0.5726 -0.5416 -0.8480
  537MOL0     C72380   6.467   6.103   6.020 -0.1352 -1.1834  0.2348
  537MOL0     C72381   6.574   6.168   6.118 -0.0484  0.0587 -0.4432
  537MOL0     C72382   6.637   6.290   6.051  0.5784 -0.0590 -0.7668
  537MOL0     C72383   6.759   6.340   6.128 -0.5937  0.3216  0.6284
  537MOL0     O72384   6.851   6.230   6.142 -0.1364 -0.3442 -0.6205
  537MOL0     C72385   6.979   6.254   6.107  0.1200 -0.0880  0.0426
  537MOL0     C72386   7.015   6.258   5.968  0.4087 -0.7022  0.6221
  537MOL0     C72387   7.147   6.277   5.939 -1.0542 -0.6410 -0.1382
  537MOL0     C72388   7.249   6.290   6.037 -0.4867 -0.8601 -0.4144
  537MOL0     C72389   7.395   6.297   6.001  0.0458 -0.9815 -0.2249
  537MOL0     O72390   7.480   6.313   6.101  0.0719 -0.1748  0.2496
  537MOL0     C72391   7.613   6.319   6.070  0.0312 -0.7778 -0.0904
  537MOL0     C72392   7.692   6.212   6.092  0.0201 -0.3216  0.3967
  537MOL0     C72393   7.829   6.210   6.070  0.5929 -0.1234 -0.1734
  537MOL0     C72394   7.897   6.323   6.023  0.6224 -0.2972 -0.1368
  537MOL0     O72395   8.032   6.336   6.005 -0.4426  0.1744 -0.8888
  537MOL0     C72396   8.131   6.236   6.048 -0.2700  0.0620 -0.1848
  537MOL0     C72397   8.274   6.286   6.025 -0.0363 -0.4181  0.2297
  537MOL0     C72398   8.315   6.296   5.876 -0.6241  0.2198 -0.6311
  537MOL0     C72399   8.331   6.163   5.802 -0.3486 -0.2863 -0.4975
  537MOL0     C72400   8.477   6.114   5.813  0.9631  0.0225 -0.3434
  537MOL0     C72401   8.508   5.992   5.729 -0.0953 -0.5247  0.2379
  537MOL0     C72402   8.482   6.025   5.574  0.0100 -0.0308  1.0367
  537MOL0     C72403   8.534   5.905   5.498  0.9080 -0.1591 -0.2897
  537MOL0    Cl72404   8.708   5.922   5.477 -0.0197  0.1829  0.0878
  537MOL0     C72405   7.813   6.433   5.990  0.3562  0.4494  0.5332
  537MOL0     C72406   7.670   6.431   6.020 -0.5956 -0.0937 -0.5670
  537MOL0     O72407   7.429   6.304   5.883  0.4350  0.3405  0.0060
  537MOL0     C72408   7.205   6.294   6.171 -0.0637 -0.3906 -0.2309
  537MOL0     C72409   7.073   6.274   6.211 -0.2668 -0.0284  0.1307
  537MOL0     N72410   6.281   6.183   5.879 -0.7567 -0.1313 -0.6098
  537MOL0     N72411   6.183   6.265   5.879  0.1453 -0.3529 -0.1383
  537MOL0     C72412   4.993   6.694   6.000 -0.1333 -0.4147 -0.5058
  537MOL0     C72413   4.855   6.713   5.972  0.2586  0.0687  0.3444
  537MOL0     C72414   4.474   6.800   5.781 -0.4739 -0.7297 -0.5819
  537MOL0     C72415   4.390   6.833   5.893  0.2393  0.2272 -0.7373
  537MOL0     C72416   4.253   6.835   5.886  0.4269 -0.3849  0.5485
  537MOL0     C72417   4.189   6.806   5.765  0.4140  0.1466  0.3777
  537MOL0     O72418   4.052   6.799   5.764  0.0489  0.0448  0.1406
  537MOL0     C72419   4.002   6.711   5.872  0.6459  0.4626 -0.4384
  537MOL0     C72420   3.856   6.658   5.835 -0.9672  0.5514  0.8961
  537MOL0     C72421   3.755   6.760   5.874 -0.3992 -0.7499 -0.7452
  537MOL0     C72422   3.614   6.712   5.843 -1.4253 -0.2036 -0.1384
  537MOL0     C72423   3.553   6.626   5.937 -0.5664  0.0565 -0.1091
  537MOL0     C72424   3.516   6.553   6.023  0.0552 -0.1295  0.0644
  537MOL0     C72425   4.268   6.771   5.653  0.1151  0.0192  0.1424
  537MOL0     C72426   4.408   6.780   5.653 -0.3284 -0.4675 -0.1682
  537MOL0     C72427   4.475   6.751   5.516 -0.4932  1.0184 -0.0045
  537MOL0     H72428   4.830   7.045   5.956  0.1191 -0.4548  1.1498
  537MOL0     H72429   5.086   7.021   5.995 -1.2308  2.1158 -0.8373
  537MOL0     H72430   5.242   6.624   6.053 -0.3193 -0.8586  0.1170
  537MOL0     H72431   5.304   6.719   5.905  1.7233  2.2045 -0.2001
  537MOL0     H72432   5.421   6.772   6.185  2.4505  2.2662 -0.0097
  537MOL0     H72433   5.485   6.803   6.020  0.9026  0.2313  2.1073
  537MOL0     H72434   5.512   6.554   5.981  1.9452 -4.1817  1.4727
  537MOL0     H72435   5.469   6.523   6.146 -5.2353 -0.3099 -3.3801
  537MOL0     H72436   5.700   6.728   6.085 -0.4313 -0.3064 -0.7863
  537MOL0     H72437   5.657   6.629   6.234  0.3466 -0.9230 -0.3453
  537MOL0     H72438   5.708   6.421   6.121 -1.7923  1.0068 -0.1113
  537MOL0     H72439   5.758   6.503   5.983 -0.9316  0.5345  0.8197
  537MOL0     H72440   5.935   6.628   6.136 -3.9993  1.2826 -1.3286
  537MOL0     H72441   5.873   6.521   6.260  1.0852 -0.5753  0.4604
  537MOL0     H72442   5.928   6.317   6.087  0.3061  0.0346 -1.4276
  537MOL0     H72443   6.027   6.385   6.221  0.3189 -0.3337  0.1890
  537MOL0     H72444   6.046   6.499   5.939 -0.2365 -0.6367 -1.0168
  537MOL0     H72445   6.157   6.539   6.058  1.6149 -2.0669 -0.0102
  537MOL0     H72446   6.317   6.324   6.172 -1.1676 -0.1744 -0.5874
  537MOL0     H72447   6.433   6.012   6.070  1.7566 -2.1496 -0.1111
  537MOL0     H72448   6.512   6.075   5.925  1.5588  1.3854  0.1761
  537MOL0     H72449   6.535   6.192   6.217  1.2044 -1.2864  0.4342
  537MOL0     H72450   6.648   6.088   6.128  0.1292  0.1188 -1.2125
  537MOL0     H72451   6.561   6.369   6.052 -0.3711 -0.9164 -1.9542
  537MOL0     H72452   6.668   6.270   5.948  0.2251  0.0672 -0.9005
  537MOL0     H72453   6.724   6.364   6.228  0.0871 -1.5738  1.3668
  537MOL0     H72454   6.810   6.431   6.094  1.7762 -0.8463  0.8694
  537MOL0     H72455   6.948   6.260   5.883  0.2867  2.2616  0.6835
  537MOL0     H72456   7.174   6.287   5.835  0.4452  1.3688  0.3797
  537MOL0     H72457   7.661   6.123   6.145  0.0189 -0.8746 -0.5054
  537MOL0     H72458   7.884   6.119   6.089  0.4974 -0.3558 -0.9483
  537MOL0     H72459   8.106   6.205   6.150 -0.8066 -2.3264 -0.9839
  537MOL0     H72460   8.109   6.148   5.987 -0.3339 -1.0074  1.3075
  537MOL0     H72461   8.289   6.382   6.075 -0.5989  1.0983 -2.3020
  537MOL0     H72462   8.339   6.209   6.069  1.9590  1.7222  1.2312
  537MOL0     H72463   8.239   6.347   5.816 -1.7357 -0.6360 -0.0044
  537MOL0     H72464   8.409   6.352   5.873 -0.4356 -0.0012  0.7375
  537MOL0     H72465   8.293   6.181   5.701 -0.2009 -0.1939 -0.5369
  537MOL0     H72466   8.261   6.089   5.841 -2.0253  1.9140  0.9266
  537MOL0     H72467   8.507   6.090   5.915 -2.5331 -3.8192 -0.0025
  537MOL0     H72468   8.546   6.192   5.778  1.8431 -0.3567  0.4943
  537MOL0     H72469   8.611   5.964   5.749  0.1534  0.2611  0.1096
  537MOL0     H72470   8.445   5.909   5.762 -0.8688 -0.6295 -1.3716
  537MOL0     H72471   8.547   6.107   5.545  0.1931 -1.2902 -2.6310
  537MOL0     H72472   8.379   6.037   5.541  0.5712 -2.8344 -2.3543
  537MOL0     H72473   8.526   5.818   5.563 -1.2606  1.0999  1.2670
  537MOL0     H72474   8.483   5.898   5.401 -1.0083  2.4731  0.4153
  537MOL0     H72475   7.850   6.526   5.950  0.4912 -0.5462 -1.7808
  537MOL0     H72476   7.612   6.521   6.000 -0.7973 -0.0484  0.2030
  537MOL0     H72477   7.280   6.309   6.248  0.2884  0.1038 -0.6656
  537MOL0     H72478   7.053   6.289   6.316  1.7011  0.0406  0.5319
  537MOL0     H72479   5.030   6.592   5.990  2.5900  0.5785 -1.3382
  537MOL0     H72480   4.784   6.631   5.965 -3.0118  2.5114  2.0688
  537MOL0     H72481   4.420   6.870   5.990 -3.2544  1.7367 -0.0709
  537MOL0     H72482   4.195   6.831   5.978  0.7685  0.0024  0.7826
  537MOL0     H72483   4.000   6.767   5.966 -2.6632  1.0087 -0.7447
  537MOL0     H72484   4.069   6.624   5.868  0.3180  0.1962 -0.0840
  537MOL0     H72485   3.838   6.565   5.890  0.4130 -0.7569 -0.7329
  537MOL0     H72486   3.856   6.637   5.727 -2.0282 -1.3963  1.2300
  537MOL0     H72487   3.773   6.846   5.809  1.4153  0.5529  1.3313
  537MOL0     H72488   3.763   6.793   5.978 -1.5483  1.0185 -1.1784
  537MOL0     H72489   3.541   6.791   5.826 -0.5142  0.9693  1.2045
  537MOL0     H72490   3.624   6.663   5.745  1.6390  1.1564 -0.6204
  537MOL0     H72491   3.484   6.498   6.109  1.5613  0.5559  1.1006
  537MOL0     H72492   4.220   6.746   5.559  1.1244  1.6688 -0.8414
  537MOL0     H72493   4.392   6.771   5.448 -0.9611 -1.3025 -0.1894
  537MOL0     H72494   4.562   6.814   5.493  0.3488 -0.5992 -1.5316
  537MOL0     H72495   4.494   6.643   5.508 -3.4295  0.4462 -0.3700
  538MOL0     O72496   9.812   2.860   8.425  0.2541 -0.2047 -0.5923
  538MOL0     C72497   9.740   2.879   8.524 -0.3334 -0.3429  0.6605
  538MOL0     O72498   9.778   2.949   8.638 -0.0443  1.2637  0.4814
  538MOL0     C72499   9.913   2.966   8.663 -0.0583  0.1827 -0.0783
  538MOL0     C72500  10.015   2.875   8.640 -0.0808 -1.0168  0.7858
  538MOL0     C72501  10.154   2.908   8.659 -0.0317  0.3087  0.2193
  538MOL0     C72502  10.182   3.034   8.716 -0.4316  0.5982 -0.0666
  538MOL0     O72503  10.312   3.070   8.748  0.5516  0.0376  0.2972
  538MOL0     C72504  10.423   2.981   8.731  0.5218 -0.2365 -0.2033
  538MOL0     C72505  10.534   3.082   8.709 -0.3594 -0.6057  0.3753
  538MOL0     C72506  10.665   3.014   8.677 -0.5868 -0.5349  0.1875
  538MOL0     C72507  10.704   2.901   8.787  0.4659 -0.5998 -0.0168
  538MOL0     C72508  10.850   2.868   8.780  0.2382  0.4447 -0.4251
  538MOL0     C72509  10.897   2.762   8.867  0.1126 -0.2742  1.0332
  538MOL0     C72510  11.039   2.719   8.839 -0.1213  0.0763  0.0999
  538MOL0     C72511  11.063   2.588   8.912  0.3693  0.7401  0.0004
  538MOL0     N72512  11.199   2.537   8.889  0.0793  0.2622 -0.2538
  538MOL0     C72513  11.308   2.610   8.913 -0.6082 -0.5521  0.5809
  538MOL0     C72514  11.414   2.539   8.862  0.2626  1.1043 -0.2939
  538MOL0     C72515  11.557   2.576   8.842 -0.0393  1.0138  0.6161
  538MOL0     C72516  11.655   2.453   8.846  0.4927  1.1400 -0.1804
  538MOL0     C72517  11.804   2.478   8.872 -0.5860  0.0256  0.3993
  538MOL0     C72518  11.872   2.553   8.758 -0.7368  0.0719 -0.1440
  538MOL0     O72519  12.013   2.562   8.777 -0.5188  0.2748  0.2847
  538MOL0     C72520  12.091   2.615   8.677 -0.8090  0.5169 -0.5279
  538MOL0     C72521  12.054   2.653   8.549  0.3029 -0.3810 -0.2826
  538MOL0     C72522  12.141   2.696   8.452  0.5712 -0.4462 -0.1119
  538MOL0     C72523  12.272   2.717   8.493 -0.9581  0.5038  0.8840
  538MOL0     C72524  12.375   2.765   8.401 -0.3318 -0.6726 -0.9637
  538MOL0     O72525  12.494   2.816   8.451  0.2561 -0.2603 -0.1467
  538MOL0     C72526  12.588   2.860   8.365  0.1685  0.3590 -0.3205
  538MOL0     C72527  12.616   2.798   8.237 -0.3113  0.0024 -0.6614
  538MOL0     C72528  12.735   2.837   8.176 -0.1813 -0.4260  0.6995
  538MOL0     C72529  12.813   2.949   8.220 -0.2188  0.0646 -0.0511
  538MOL0     O72530  12.918   2.992   8.140 -0.5989  0.2650 -1.0287
  538MOL0     C72531  12.908   2.992   8.002  0.3329 -0.7771  0.2331
  538MOL0     C72532  12.989   3.121   7.953  0.4693 -0.3581 -0.1186
  538MOL0     C72533  13.125   3.130   8.020 -0.1122  0.2635 -0.2051
  538MOL0     C72534  13.222   3.244   7.969  0.8207 -0.0747 -0.1895
  538MOL0     C72535  13.368   3.221   7.995 -0.1212  0.0185 -0.0621
  538MOL0     C72536  13.443   3.288   7.886  0.4287  0.3941  0.3056
  538MOL0     C72537  13.419   3.439   7.880 -0.4418 -0.6255  0.2364
  538MOL0     C72538  13.483   3.512   8.000 -0.3993  0.5501 -1.0267
  538MOL0    Cl72539  13.504   3.685   7.967  0.6431  0.0787  0.2276
  538MOL0     C72540  12.783   2.997   8.350  0.5092 -0.2724  0.4627
  538MOL0     C72541  12.673   2.948   8.425 -0.0692 -1.1841 -0.1411
  538MOL0     O72542  12.342   2.759   8.280 -1.2315 -0.0211  0.0591
  538MOL0     C72543  12.316   2.684   8.627 -0.1046 -0.8621  0.8444
  538MOL0     C72544  12.224   2.634   8.722  0.0892 -0.7282  0.2279
  538MOL0     N72545  11.359   2.418   8.816 -1.7599  0.4970  0.1854
  538MOL0     N72546  11.239   2.419   8.843 -0.0183 -0.1239 -0.6483
  538MOL0     C72547  10.081   3.113   8.756 -0.4601 -0.0814 -0.3639
  538MOL0     C72548   9.946   3.075   8.735 -0.0332  0.7716 -0.2943
  538MOL0     C72549   9.600   2.831   8.523  0.1736 -0.0738 -0.4047
  538MOL0     C72550   9.505   2.867   8.626 -0.2211  0.4932  0.3569
  538MOL0     C72551   9.376   2.814   8.640 -0.4591 -0.0013 -0.2234
  538MOL0     C72552   9.326   2.733   8.535  0.1279 -0.0489 -0.5635
  538MOL0     O72553   9.196   2.688   8.521 -0.1813 -0.2058 -0.3240
  538MOL0     C72554   9.099   2.743   8.614  0.7053 -0.4074 -0.5830
  538MOL0     C72555   8.952   2.716   8.563  0.6508 -0.1428  0.3981
  538MOL0     C72556   8.878   2.847   8.537 -0.4354  0.2514 -0.3644
  538MOL0     C72557   8.742   2.828   8.481 -0.5745 -0.5474 -0.0942
  538MOL0     C72558   8.660   2.747   8.572 -0.9820 -0.6404 -0.4339
  538MOL0     C72559   8.571   2.670   8.612  0.0269  0.3500  0.4278
  538MOL0     C72560   9.414   2.685   8.441  0.1465 -0.6037 -0.4299
  538MOL0     C72561   9.543   2.730   8.433 -0.1386 -0.5811 -0.4438
  538MOL0     C72562   9.614   2.647   8.324 -0.3216 -0.6609 -0.0551
  538MOL0     H72563  10.004   2.778   8.593  2.0530 -0.5259 -0.8691
  538MOL0     H72564  10.223   2.827   8.638 -2.8435 -2.0158 -0.6224
  538MOL0     H72565  10.441   2.921   8.821 -0.0112  1.3050  0.9780
  538MOL0     H72566  10.403   2.919   8.643 -1.0000 -1.1861  0.7683
  538MOL0     H72567  10.560   3.149   8.792  2.4976 -1.9121  0.6678
  538MOL0     H72568  10.490   3.146   8.632 -1.0200  0.9658  1.9794
  538MOL0     H72569  10.741   3.093   8.678 -1.3117  0.1766  0.1468
  538MOL0     H72570  10.671   2.974   8.576  2.4102  2.7565 -1.1321
  538MOL0     H72571  10.696   2.935   8.890  1.1061 -2.5683  0.7331
  538MOL0     H72572  10.635   2.817   8.771 -2.1855  1.3691  0.4643
  538MOL0     H72573  10.873   2.845   8.675 -2.5261  1.5421 -1.3537
  538MOL0     H72574  10.902   2.963   8.793  0.4806  0.5944 -2.1597
  538MOL0     H72575  10.871   2.786   8.971 -3.0676  2.8721 -0.2950
  538MOL0     H72576  10.829   2.680   8.839 -1.0611  1.0146 -0.0688
  538MOL0     H72577  11.107   2.800   8.868  1.3459 -1.3113  0.6526
  538MOL0     H72578  11.044   2.691   8.733 -1.2623  0.7470 -0.1485
  538MOL0     H72579  11.055   2.614   9.018 -1.5201 -1.1516  0.3960
  538MOL0     H72580  10.989   2.510   8.889  3.7030 -3.5440  2.3074
  538MOL0     H72581  11.336   2.702   8.962  1.0427 -1.2651  1.0512
  538MOL0     H72582  11.558   2.624   8.744 -0.2556 -0.7702 -0.2970
  538MOL0     H72583  11.586   2.641   8.926  1.5356 -0.9568  1.6882
  538MOL0     H72584  11.621   2.377   8.917  2.1321  1.5344  1.0903
  538MOL0     H72585  11.650   2.403   8.749  0.8082  1.1303 -0.1908
  538MOL0     H72586  11.857   2.385   8.895  0.5119 -0.4512 -3.3139
  538MOL0     H72587  11.823   2.538   8.961  2.9075  2.2505 -1.5951
  538MOL0     H72588  11.830   2.653   8.752 -0.7807  0.0916  0.4314
  538MOL0     H72589  11.866   2.503   8.661  1.6656  0.0141 -0.3360
  538MOL0     H72590  11.951   2.635   8.521 -0.3266  1.9748  0.3129
  538MOL0     H72591  12.115   2.720   8.350  1.3515 -1.6259 -0.6112
  538MOL0     H72592  12.557   2.716   8.198  0.5447  0.3255 -2.7913
  538MOL0     H72593  12.763   2.797   8.079 -0.5000  0.6896  0.1371
  538MOL0     H72594  12.945   2.893   7.974  1.4590 -0.5006  0.6522
  538MOL0     H72595  12.805   3.017   7.979  0.4779  0.5246  0.8710
  538MOL0     H72596  13.006   3.122   7.845  0.6625  1.6348 -0.1132
  538MOL0     H72597  12.932   3.211   7.981  0.7581 -0.3681  0.5356
  538MOL0     H72598  13.103   3.139   8.126 -1.4809 -2.7527 -0.1215
  538MOL0     H72599  13.171   3.032   8.004  1.0595  0.2379  2.7478
  538MOL0     H72600  13.182   3.336   8.012 -2.0485 -0.6865 -1.3387
  538MOL0     H72601  13.205   3.249   7.861 -0.3300  1.4088  0.0300
  538MOL0     H72602  13.380   3.112   8.000 -2.1216 -0.1994  1.1878
  538MOL0     H72603  13.399   3.264   8.091  0.0336  0.6194 -0.3841
  538MOL0     H72604  13.549   3.260   7.889  0.4948  0.6615  0.5298
  538MOL0     H72605  13.411   3.260   7.785  1.2695  1.0031 -0.1475
  538MOL0     H72606  13.312   3.459   7.893 -0.8694 -0.2670 -3.1009
  538MOL0     H72607  13.439   3.485   7.783 -1.8572 -1.9294 -0.7149
  538MOL0     H72608  13.427   3.484   8.090  0.6393  1.6673 -0.0053
  538MOL0     H72609  13.579   3.470   8.029 -1.5197 -1.4051  0.0811
  538MOL0     H72610  12.846   3.066   8.404 -0.5950 -0.0758  1.5495
  538MOL0     H72611  12.642   2.978   8.525 -0.9953  1.9806 -1.2712
  538MOL0     H72612  12.422   2.689   8.648  0.4561 -0.7112 -1.7351
  538MOL0     H72613  12.250   2.600   8.822 -0.8330  0.4202  0.8898
  538MOL0     H72614  10.111   3.212   8.789  0.0177  0.0589 -1.1733
  538MOL0     H72615   9.866   3.141   8.767 -0.7361 -0.2131  0.0665
  538MOL0     H72616   9.545   2.932   8.704  3.4702 -2.1349  0.9299
  538MOL0     H72617   9.323   2.851   8.727  2.6478  0.5232  1.5946
  538MOL0     H72618   9.114   2.851   8.609 -0.4575 -0.2531 -1.2363
  538MOL0     H72619   9.109   2.708   8.717 -2.0277  2.7407  0.9511
  538MOL0     H72620   8.897   2.651   8.631  1.5035  0.0911  1.3505
  538MOL0     H72621   8.963   2.669   8.466  0.4897 -1.2817  0.9199
  538MOL0     H72622   8.933   2.911   8.469  1.2532 -2.9241 -2.2226
  538MOL0     H72623   8.869   2.894   8.635  1.1919 -0.2400  0.0506
  538MOL0     H72624   8.714   2.932   8.460  0.7648 -0.4908 -1.9324
  538MOL0     H72625   8.748   2.778   8.384 -0.2124 -1.9087  0.6098
  538MOL0     H72626   8.494   2.598   8.631  2.1157 -2.1207  0.1557
  538MOL0     H72627   9.374   2.614   8.370  1.8992  0.8512 -3.0324
  538MOL0     H72628   9.537   2.611   8.256 -0.5853  0.5747 -0.4477
  538MOL0     H72629   9.683   2.714   8.271  0.1718 -1.1978 -0.0976
  538MOL0     H72630   9.672   2.561   8.358  2.5028  0.4388 -1.7227
  539MOL0     O72631   1.210   1.784   2.589  0.0814 -0.0920 -0.0574
  539MOL0     C72632   1.153   1.696   2.655  0.2645 -0.2749 -0.2485
  539MOL0     O72633   1.213   1.622   2.742  0.0859 -0.6309 -0.2130
  539MOL0     C72634   1.346   1.638   2.764  0.9852  0.5116  0.2033
  539MOL0     C72635   1.401   1.726   2.859  0.3791 -0.8896 -0.2398
  539MOL0     C72636   1.541   1.736   2.859 -0.9338 -0.1031  0.1893
  539MOL0     C72637   1.623   1.655   2.781  0.1024  0.0883 -0.8692
  539MOL0     O72638   1.756   1.666   2.807  0.1034 -0.5181 -0.1768
  539MOL0     C72639   1.846   1.627   2.703 -0.1826 -0.3113  0.9150
  539MOL0     C72640   1.996   1.665   2.719 -0.5495 -0.2363  0.3951
  539MOL0     C72641   2.012   1.807   2.747  0.0089  0.5305  0.2952
  539MOL0     C72642   2.153   1.846   2.766 -1.1179 -0.2895  0.5998
  539MOL0     C72643   2.181   1.994   2.770  0.0401 -1.3586 -0.9095
  539MOL0     C72644   2.292   2.024   2.877 -0.3203 -0.0818 -0.4318
  539MOL0     C72645   2.430   1.970   2.851  0.2044 -0.4071  0.3135
  539MOL0     C72646   2.498   2.037   2.728 -0.2591 -0.1394 -0.3208
  539MOL0     N72647   2.541   2.172   2.763 -0.1015 -0.7522 -0.3865
  539MOL0     C72648   2.673   2.190   2.754 -0.0298 -0.0056 -0.5775
  539MOL0     C72649   2.691   2.325   2.737  0.1719  0.6464  0.5621
  539MOL0     C72650   2.818   2.401   2.704  0.9556 -0.4166 -0.1569
  539MOL0     C72651   2.917   2.416   2.821  0.6453 -0.1539  0.4871
  539MOL0     C72652   2.991   2.292   2.855 -1.1971  0.2158  0.7313
  539MOL0     C72653   3.072   2.302   2.982 -1.4053 -0.5547 -0.1549
  539MOL0     O72654   3.135   2.172   2.996  0.3793  0.1434  0.3513
  539MOL0     C72655   3.270   2.160   2.979 -0.9299 -0.1088 -0.0253
  539MOL0     C72656   3.335   2.213   2.871  0.8397 -0.5456 -0.4758
  539MOL0     C72657   3.475   2.213   2.860  0.4564 -0.4204 -0.3208
  539MOL0     C72658   3.553   2.142   2.952 -0.3849 -0.2667  0.1680
  539MOL0     C72659   3.704   2.142   2.942 -0.7246  0.4225  0.1570
  539MOL0     O72660   3.760   2.260   2.892 -0.3298 -0.2024 -0.0235
  539MOL0     C72661   3.876   2.246   2.829 -0.4170 -0.4965  0.8876
  539MOL0     C72662   3.985   2.323   2.854  0.4278  0.7460 -0.6293
  539MOL0     C72663   4.101   2.315   2.778  0.0289 -0.5603 -0.1039
  539MOL0     C72664   4.102   2.226   2.671 -0.4464  0.3766 -0.1957
  539MOL0     O72665   4.217   2.200   2.611 -0.6433 -0.3282  0.5046
  539MOL0     C72666   4.237   2.103   2.502  0.4606  0.1485 -0.0136
  539MOL0     C72667   4.338   2.163   2.399 -0.6599  1.0435  0.3526
  539MOL0     C72668   4.477   2.156   2.466  0.4294  0.0886  0.0952
  539MOL0     C72669   4.593   2.204   2.378 -1.0159 -0.3446  0.1055
  539MOL0     C72670   4.614   2.354   2.371 -0.4379 -0.6996  0.4879
  539MOL0     C72671   4.697   2.411   2.490  0.1214 -0.1108  0.3798
  539MOL0     C72672   4.669   2.553   2.519 -0.1124 -0.9470 -0.0951
  539MOL0     C72673   4.749   2.602   2.641  0.0981 -0.1348 -0.1371
  539MOL0    Cl72674   4.929   2.639   2.608  0.2027  0.4282 -0.3819
  539MOL0     C72675   3.989   2.156   2.622  0.3544 -0.7403 -0.3279
  539MOL0     C72676   3.882   2.165   2.713  0.7532 -0.0522 -0.5777
  539MOL0     O72677   3.770   2.046   2.981 -0.4254 -0.0033 -0.3542
  539MOL0     C72678   3.485   2.076   3.061  0.5367 -0.3563  0.4524
  539MOL0     C72679   3.347   2.088   3.073 -0.6350  0.0812 -1.1616
  539MOL0     N72680   2.564   2.378   2.726  0.2675 -0.0675  0.9910
  539MOL0     N72681   2.477   2.289   2.742  0.5415  1.0725 -0.2873
  539MOL0     C72682   1.564   1.571   2.685  0.6762 -0.3370 -0.9281
  539MOL0     C72683   1.429   1.567   2.678 -0.2959  0.3113  0.2867
  539MOL0     C72684   1.010   1.657   2.628 -0.4584 -0.3496  0.6544
  539MOL0     C72685   0.967   1.530   2.673  0.4617  0.4196  0.0572
  539MOL0     C72686   0.831   1.504   2.680  0.7610 -0.2641  0.3485
  539MOL0     C72687   0.735   1.589   2.630  0.2953  0.0331 -0.6085
  539MOL0     O72688   0.606   1.534   2.645  0.6437 -0.3776  0.1099
  539MOL0     C72689   0.494   1.611   2.600  0.5301 -0.1829 -0.5520
  539MOL0     C72690   0.469   1.590   2.446  0.6578  0.2683  0.3507
  539MOL0     C72691   0.314   1.615   2.410 -0.3866 -0.1980 -0.0149
  539MOL0     C72692   0.287   1.590   2.254 -0.5989  0.2023 -0.5048
  539MOL0     C72693   0.152   1.618   2.211  0.5095 -0.4735 -0.2739
  539MOL0     C72694   0.039   1.644   2.172  0.1918 -0.0645 -0.0531
  539MOL0     C72695   0.776   1.710   2.576 -0.3973 -0.3072  1.0729
  539MOL0     C72696   0.911   1.754   2.578  0.7990  0.9312  0.2675
  539MOL0     C72697   0.944   1.890   2.525 -0.7699 -0.2579 -0.4240
  539MOL0     H72698   1.338   1.789   2.921 -0.1899  1.3057 -2.8530
  539MOL0     H72699   1.593   1.805   2.925  0.6661 -1.0930  0.0184
  539MOL0     H72700   1.847   1.519   2.685  3.1207 -0.3941  1.0637
  539MOL0     H72701   1.814   1.678   2.611  0.5009  0.4232  1.0785
  539MOL0     H72702   2.058   1.645   2.632  1.2123  4.4609  0.2677
  539MOL0     H72703   2.043   1.614   2.803  0.2739  0.9249  0.6712
  539MOL0     H72704   1.963   1.824   2.844 -1.2517 -1.7462  0.1424
  539MOL0     H72705   1.965   1.861   2.665  1.1382  0.9745 -0.0676
  539MOL0     H72706   2.182   1.814   2.866 -0.8946 -1.5558  0.1399
  539MOL0     H72707   2.219   1.786   2.703 -0.4962  0.8308  0.1421
  539MOL0     H72708   2.204   2.028   2.669  0.7318 -1.5950 -0.8337
  539MOL0     H72709   2.091   2.048   2.799 -0.2750 -2.1751 -0.3148
  539MOL0     H72710   2.303   2.132   2.870  0.3107 -0.2362 -2.4211
  539MOL0     H72711   2.256   1.979   2.970 -0.4471 -1.8550 -1.2783
  539MOL0     H72712   2.432   1.863   2.827  1.0383  0.1311 -2.3268
  539MOL0     H72713   2.498   1.979   2.937  0.6945  2.4196 -0.2557
  539MOL0     H72714   2.585   1.978   2.696 -1.2387 -1.0588 -1.3986
  539MOL0     H72715   2.446   2.035   2.632 -0.0845 -4.2905 -0.5029
  539MOL0     H72716   2.751   2.115   2.752 -1.4980 -1.8294  2.3612
  539MOL0     H72717   2.871   2.364   2.615  1.6097  0.7873 -0.2915
  539MOL0     H72718   2.789   2.505   2.685  0.6772 -0.4536  0.0759
  539MOL0     H72719   2.980   2.503   2.800 -3.0346  2.9638  1.1847
  539MOL0     H72720   2.849   2.437   2.903 -1.6440 -1.8954 -0.8532
  539MOL0     H72721   3.062   2.259   2.780  0.5493 -0.7315  2.7135
  539MOL0     H72722   2.923   2.207   2.869 -0.4916 -0.6140 -0.6860
  539MOL0     H72723   3.010   2.332   3.067  0.4081  1.7298  0.4481
  539MOL0     H72724   3.147   2.381   2.971  1.4317 -2.8893  1.2026
  539MOL0     H72725   3.276   2.271   2.801 -2.0537 -3.2278 -0.4676
  539MOL0     H72726   3.526   2.282   2.793 -3.6929  4.2688  0.7627
  539MOL0     H72727   3.971   2.405   2.923 -1.0260 -0.9602  1.2045
  539MOL0     H72728   4.182   2.381   2.808  0.8683 -1.9791  0.8625
  539MOL0     H72729   4.265   2.008   2.546 -1.6263 -0.4853  0.0777
  539MOL0     H72730   4.145   2.088   2.444  0.7334  0.6461 -0.5896
  539MOL0     H72731   4.354   2.105   2.307  3.3110  1.0601  0.8280
  539MOL0     H72732   4.314   2.264   2.365 -1.7409 -0.2136 -3.0445
  539MOL0     H72733   4.464   2.210   2.560 -2.7594  1.2117 -0.8616
  539MOL0     H72734   4.494   2.049   2.484 -1.7127 -0.4291 -0.6142
  539MOL0     H72735   4.581   2.164   2.277 -0.2416 -1.7238  0.5290
  539MOL0     H72736   4.686   2.168   2.423 -0.0256  3.0409  1.0285
  539MOL0     H72737   4.511   2.391   2.370  0.8638  3.4341 -0.5053
  539MOL0     H72738   4.670   2.378   2.280 -0.0449 -1.0707  0.6283
  539MOL0     H72739   4.676   2.351   2.580 -3.4798 -0.8055 -0.7743
  539MOL0     H72740   4.804   2.411   2.466  0.0850  0.6437  0.2086
  539MOL0     H72741   4.563   2.554   2.546  0.6363  0.8600  3.4042
  539MOL0     H72742   4.689   2.621   2.436  2.1887  0.3604  1.4057
  539MOL0     H72743   4.704   2.698   2.666  0.1917  0.1889 -1.1706
  539MOL0     H72744   4.733   2.525   2.718 -0.3086 -0.4700 -0.5571
  539MOL0     H72745   3.980   2.100   2.530  0.2756  0.4698 -1.0677
  539MOL0     H72746   3.788   2.115   2.695  0.8921 -1.0303  1.2162
  539MOL0     H72747   3.524   2.007   3.135 -1.6701 -2.1277  0.0593
  539MOL0     H72748   3.288   2.044   3.153 -0.6983  0.5011 -0.9751
  539MOL0     H72749   1.620   1.510   2.614 -2.8746 -3.4118 -1.3771
  539MOL0     H72750   1.384   1.502   2.605 -0.2886  1.7702 -1.0614
  539MOL0     H72751   1.029   1.451   2.715 -0.9018 -0.9844 -0.4438
  539MOL0     H72752   0.797   1.415   2.732 -2.3084  0.9606  0.6501
  539MOL0     H72753   0.503   1.719   2.619  1.1332 -0.0230 -1.6623
  539MOL0     H72754   0.413   1.564   2.656 -0.3147  1.1894 -0.5859
  539MOL0     H72755   0.494   1.491   2.408  1.3002 -0.6614  2.9780
  539MOL0     H72756   0.532   1.668   2.401  1.3208 -0.1321  0.5713
  539MOL0     H72757   0.288   1.716   2.444 -0.6157 -0.5337  0.8259
  539MOL0     H72758   0.256   1.548   2.475  1.4251 -1.5417  0.3081
  539MOL0     H72759   0.356   1.659   2.204  0.0036  1.3071  1.7625
  539MOL0     H72760   0.300   1.485   2.224  2.3708  0.5172 -0.6471
  539MOL0     H72761  -0.048   1.684   2.124 -0.1199  0.5477  0.9824
  539MOL0     H72762   0.700   1.776   2.534 -0.8920 -1.9639 -0.8196
  539MOL0     H72763   0.961   1.889   2.417 -0.8832  1.5720 -0.4829
  539MOL0     H72764   0.856   1.953   2.541 -1.0739  0.4274 -4.0681
  539MOL0     H72765   1.034   1.935   2.568 -0.4067 -1.3610  0.0161
  540MOL0     O72766   4.817   2.873  10.619 -0.0263  0.5091 -0.3503
  540MOL0     C72767   4.795   2.755  10.602  0.6592  0.1882  0.3167
  540MOL0     O72768   4.694   2.707  10.536  0.0908 -0.2451  0.1330
  540MOL0     C72769   4.625   2.784  10.444  0.0731 -0.8124 -0.2913
  540MOL0     C72770   4.642   2.763  10.309  0.9054 -0.2708 -0.6244
  540MOL0     C72771   4.557   2.841  10.222  0.0108 -0.3568  1.0172
  540MOL0     C72772   4.461   2.926  10.270 -0.4865  0.4320  0.0762
  540MOL0     O72773   4.376   3.007  10.206  0.2271  0.0891 -0.4674
  540MOL0     C72774   4.424   3.102  10.109 -0.1579 -0.9869 -0.5713
  540MOL0     C72775   4.505   3.218  10.166  0.5293  0.6073 -0.1595
  540MOL0     C72776   4.567   3.308  10.055 -0.5390 -0.9725  0.1020
  540MOL0     C72777   4.610   3.442  10.115 -0.6226 -0.6132 -1.1216
  540MOL0     C72778   4.626   3.543   9.998  0.0964 -0.2167 -0.4119
  540MOL0     C72779   4.715   3.501   9.886 -0.2246  0.1166 -0.3385
  540MOL0     C72780   4.786   3.618   9.813 -1.0505  0.3921 -0.0879
  540MOL0     C72781   4.688   3.705   9.732 -0.2944  0.1330  0.0705
  540MOL0     N72782   4.750   3.829   9.676  0.4214  0.2172 -0.0693
  540MOL0     C72783   4.808   3.847   9.555 -0.0507 -0.1250 -0.2302
  540MOL0     C72784   4.813   3.976   9.533 -0.8013  0.0733 -0.0155
  540MOL0     C72785   4.879   4.040   9.411  1.2878 -0.5433 -0.1279
  540MOL0     C72786   5.033   4.052   9.439 -0.0062 -0.4471  0.2498
  540MOL0     C72787   5.119   4.096   9.324 -1.3067 -0.0999  0.3591
  540MOL0     C72788   5.263   4.092   9.366  0.0100  0.0132  0.0180
  540MOL0     O72789   5.311   3.958   9.390 -0.5008 -0.4287 -0.0015
  540MOL0     C72790   5.447   3.936   9.363  0.2548  0.5178  0.6104
  540MOL0     C72791   5.543   4.031   9.331  0.2306 -0.3098  0.5458
  540MOL0     C72792   5.676   3.996   9.303  0.3644  0.2750 -0.3584
  540MOL0     C72793   5.719   3.867   9.312  0.5292  0.4720  0.2588
  540MOL0     C72794   5.868   3.841   9.292  0.2510 -0.0829  0.0455
  540MOL0     O72795   5.950   3.946   9.304  0.4218  0.3159  0.4958
  540MOL0     C72796   6.087   3.927   9.291 -0.9097 -0.1955  0.6623
  540MOL0     C72797   6.157   3.876   9.178  0.5171 -1.6778  0.2071
  540MOL0     C72798   6.296   3.885   9.158  1.3284 -0.0953 -0.0720
  540MOL0     C72799   6.371   3.929   9.264 -0.4064 -0.2720  0.1455
  540MOL0     O72800   6.498   3.939   9.235 -0.2017 -0.1099  0.9550
  540MOL0     C72801   6.593   4.003   9.315 -0.7798  0.0101 -0.3078
  540MOL0     C72802   6.713   4.044   9.226 -0.0322  0.2784  0.1073
  540MOL0     C72803   6.817   4.130   9.305 -0.2177 -0.1669  0.2787
  540MOL0     C72804   6.931   4.164   9.212 -0.1113  0.4068  0.3201
  540MOL0     C72805   7.045   4.224   9.290  0.4951 -0.3404 -0.2054
  540MOL0     C72806   7.162   4.250   9.194 -0.2035 -0.6227  0.6695
  540MOL0     C72807   7.299   4.301   9.260 -0.2340 -0.0135 -0.6503
  540MOL0     C72808   7.410   4.296   9.166  0.3989  0.2538  0.9591
  540MOL0    Cl72809   7.541   4.392   9.243 -0.1635  0.4819 -0.4213
  540MOL0     C72810   6.309   3.963   9.382 -0.0687 -1.0318 -0.6331
  540MOL0     C72811   6.171   3.974   9.393  0.4696  0.3185  0.2112
  540MOL0     O72812   5.908   3.725   9.263  1.1501 -0.9199  0.3431
  540MOL0     C72813   5.626   3.770   9.342 -0.2301  0.0458  0.0758
  540MOL0     C72814   5.487   3.799   9.354 -0.4675  0.5573 -0.1687
  540MOL0     N72815   4.789   4.042   9.655 -0.2484  0.3517  0.2557
  540MOL0     N72816   4.745   3.949   9.738 -0.5327 -1.1266  0.3555
  540MOL0     C72817   4.447   2.939  10.408  0.2410  0.1865 -0.0322
  540MOL0     C72818   4.532   2.870  10.492  0.3821 -0.1622  0.3640
  540MOL0     C72819   4.893   2.652  10.648  0.1171 -0.4773 -0.9598
  540MOL0     C72820   4.922   2.538  10.571 -0.4299 -0.3744  0.5233
  540MOL0     C72821   5.023   2.447  10.610 -0.0023  0.1573 -0.1699
  540MOL0     C72822   5.070   2.451  10.748  0.1575 -0.3107  0.1046
  540MOL0     O72823   5.144   2.349  10.799 -0.2038  0.5497  0.1613
  540MOL0     C72824   5.206   2.244  10.723 -1.0095 -0.0292 -0.0461
  540MOL0     C72825   5.325   2.302  10.630 -0.5681  0.7631 -0.4840
  540MOL0     C72826   5.445   2.335  10.716 -0.4765  0.0204 -0.6006
  540MOL0     C72827   5.567   2.394  10.633 -0.0739  0.2729  0.1445
  540MOL0     C72828   5.685   2.309  10.636 -0.2352  0.2974 -0.2307
  540MOL0     C72829   5.790   2.248  10.633  0.3590 -0.0819  0.2680
  540MOL0     C72830   5.027   2.554  10.831 -0.6761 -0.9316 -0.0163
  540MOL0     C72831   4.948   2.660  10.782 -0.3971 -0.3607  0.2019
  540MOL0     C72832   4.893   2.755  10.881  0.2065 -0.1782 -0.0905
  540MOL0     H72833   4.733   2.709  10.285 -0.0981 -2.1096 -0.4906
  540MOL0     H72834   4.560   2.836  10.114 -2.5604  0.0585  0.8866
  540MOL0     H72835   4.485   3.037  10.045  0.4083 -0.4107 -0.6287
  540MOL0     H72836   4.343   3.133  10.041 -0.5090  0.4284  0.4569
  540MOL0     H72837   4.585   3.168  10.222  0.6878  0.4288 -0.5424
  540MOL0     H72838   4.443   3.269  10.240 -1.8002 -1.4393 -0.5835
  540MOL0     H72839   4.482   3.318   9.986 -0.8329  2.0230  0.7928
  540MOL0     H72840   4.653   3.263  10.004  0.7313  0.2114  1.1321
  540MOL0     H72841   4.533   3.482  10.181  2.3273 -2.4291  4.0551
  540MOL0     H72842   4.694   3.428  10.184 -1.4835 -0.3860 -0.0190
  540MOL0     H72843   4.529   3.568   9.953  0.9149  1.6213 -1.2599
  540MOL0     H72844   4.666   3.639  10.033 -0.6425  0.2221 -0.7366
  540MOL0     H72845   4.799   3.447   9.929  0.2793  0.2055 -1.1912
  540MOL0     H72846   4.664   3.434   9.816  0.1244  0.2210 -0.6905
  540MOL0     H72847   4.863   3.579   9.745  0.4659  0.0555  1.7281
  540MOL0     H72848   4.838   3.684   9.882 -2.1999 -1.0471  2.2760
  540MOL0     H72849   4.645   3.641   9.655  0.9734 -0.4408 -0.1918
  540MOL0     H72850   4.606   3.741   9.794  1.2618  2.1062  1.1202
  540MOL0     H72851   4.842   3.776   9.481  3.6553 -1.3136  2.3645
  540MOL0     H72852   4.862   3.983   9.320 -1.9425  0.1545 -0.0709
  540MOL0     H72853   4.828   4.134   9.394  0.2651 -1.1012 -0.2163
  540MOL0     H72854   5.048   4.123   9.521  1.5837  0.1574 -0.5170
  540MOL0     H72855   5.060   3.952   9.475  1.1141 -1.7487 -3.6967
  540MOL0     H72856   5.096   4.200   9.301 -0.1700 -0.0341 -0.5624
  540MOL0     H72857   5.116   4.033   9.234  1.3468 -1.0820  0.8642
  540MOL0     H72858   5.275   4.148   9.459  0.7668  0.4951 -0.3603
  540MOL0     H72859   5.317   4.147   9.288  0.5385 -0.1000  0.2987
  540MOL0     H72860   5.509   4.133   9.315 -0.7190 -0.9269 -1.8078
  540MOL0     H72861   5.747   4.070   9.268  3.3110 -1.9604  0.4963
  540MOL0     H72862   6.091   3.864   9.093 -0.7192 -0.8679  1.0277
  540MOL0     H72863   6.344   3.854   9.066 -1.2653 -0.5236 -1.3832
  540MOL0     H72864   6.551   4.094   9.360 -2.1818 -0.4152 -0.6994
  540MOL0     H72865   6.629   3.928   9.386  1.1458  0.2810 -0.9292
  540MOL0     H72866   6.765   3.964   9.173 -0.5935 -0.0817  0.0964
  540MOL0     H72867   6.667   4.100   9.144 -0.0632  0.5303  0.2918
  540MOL0     H72868   6.785   4.227   9.346 -3.2655  0.0706 -2.2961
  540MOL0     H72869   6.866   4.075   9.386 -2.1515 -2.1697  0.1647
  540MOL0     H72870   6.885   4.228   9.136 -1.0162 -2.0557 -1.3510
  540MOL0     H72871   6.965   4.073   9.161 -0.0330  0.4980  0.2091
  540MOL0     H72872   7.080   4.163   9.374  0.4050 -0.7466 -0.4567
  540MOL0     H72873   7.014   4.321   9.328 -1.9060 -1.9239  2.2234
  540MOL0     H72874   7.187   4.166   9.129 -0.3719 -1.4241  1.6114
  540MOL0     H72875   7.135   4.333   9.128 -1.4866 -0.8458  0.8944
  540MOL0     H72876   7.327   4.231   9.339 -0.5299  0.0406 -0.4961
  540MOL0     H72877   7.279   4.396   9.311 -1.2828 -1.2556  1.3899
  540MOL0     H72878   7.435   4.194   9.137  1.4918  0.0753  2.3958
  540MOL0     H72879   7.390   4.357   9.077  2.4030  2.4166  1.8606
  540MOL0     H72880   6.368   3.999   9.465 -0.7548 -0.4021 -0.4074
  540MOL0     H72881   6.131   4.010   9.487  0.9761 -0.9800  0.9347
  540MOL0     H72882   5.667   3.669   9.344  1.3153  0.6582  0.4674
  540MOL0     H72883   5.416   3.719   9.374  1.1134 -0.6923  0.6461
  540MOL0     H72884   4.371   3.000  10.457 -2.3854 -2.6967 -0.2041
  540MOL0     H72885   4.528   2.867  10.601 -0.3594 -2.0584  0.3349
  540MOL0     H72886   4.885   2.535  10.469  1.6152  2.4312 -0.4263
  540MOL0     H72887   5.066   2.384  10.533  0.6631  0.5467 -0.1279
  540MOL0     H72888   5.134   2.195  10.657  0.2926 -2.1713 -0.0078
  540MOL0     H72889   5.242   2.165  10.790  0.2665  0.4262 -0.1562
  540MOL0     H72890   5.290   2.389  10.572 -1.1633 -1.1604 -3.1746
  540MOL0     H72891   5.357   2.238  10.548  0.6585 -0.2154  0.7211
  540MOL0     H72892   5.480   2.238  10.753 -0.1625  0.9621  1.7052
  540MOL0     H72893   5.423   2.399  10.801  0.4461  0.5082 -0.7120
  540MOL0     H72894   5.538   2.408  10.529 -0.2268  0.0898  0.1624
  540MOL0     H72895   5.588   2.492  10.678  0.2744 -0.1593  0.9475
  540MOL0     H72896   5.889   2.207  10.619  0.0424 -1.2534  1.2895
  540MOL0     H72897   5.058   2.551  10.935 -1.3766 -1.1360  0.1924
  540MOL0     H72898   4.791   2.733  10.915 -0.3791  0.7187 -1.2224
  540MOL0     H72899   4.960   2.757  10.968  2.4386 -0.5339 -1.7194
  540MOL0     H72900   4.897   2.857  10.844  0.7356 -0.0594  0.2806
  541MOL0     O72901   0.761  10.780  10.880  0.0634  0.1938  0.0124
  541MOL0     C72902   0.697  10.883  10.881 -0.1727 -1.2739  0.2393
  541MOL0     O72903   0.744  11.008  10.914  0.7151  0.2600  0.3428
  541MOL0     C72904   0.871  11.047  10.940 -0.9233 -0.0098  0.8617
  541MOL0     C72905   0.990  10.984  10.890  0.7289 -0.8430  0.3160
  541MOL0     C72906   1.115  11.028  10.925 -0.3812 -0.6609  1.2167
  541MOL0     C72907   1.132  11.121  11.022  0.1719  0.1394 -0.3138
  541MOL0     O72908   1.263  11.145  11.067 -0.2313  0.4824 -0.3841
  541MOL0     C72909   1.304  11.281  11.077 -0.8173  0.1442  0.0896
  541MOL0     C72910   1.418  11.294  10.971 -0.2557 -0.8963 -0.0416
  541MOL0     C72911   1.552  11.277  11.030 -0.6873 -0.8287  0.0392
  541MOL0     C72912   1.580  11.155  11.119  0.4593 -1.0734  0.4744
  541MOL0     C72913   1.729  11.121  11.157  0.5246 -0.7398 -0.1264
  541MOL0     C72914   1.755  11.042  11.281  0.5023 -0.0536 -0.2969
  541MOL0     C72915   1.890  11.040  11.327 -1.1931  0.1119  0.0102
  541MOL0     C72916   1.992  10.983  11.235 -1.0534  0.6448  0.0695
  541MOL0     N72917   2.129  10.978  11.287  0.6216 -0.1011  0.1272
  541MOL0     C72918   2.172  10.945  11.410  0.7901  0.5122 -0.2610
  541MOL0     C72919   2.294  10.999  11.416 -0.0268 -0.2814 -0.1126
  541MOL0     C72920   2.381  11.007  11.533 -0.3115 -0.3043 -0.3274
  541MOL0     C72921   2.334  11.130  11.612 -0.7674 -0.5778 -0.3250
  541MOL0     C72922   2.424  11.146  11.734 -0.3244 -0.0334  0.4504
  541MOL0     C72923   2.572  11.146  11.702  0.6062  0.1956 -0.3647
  541MOL0     O72924   2.640  11.169  11.827  0.6047  0.1846 -0.6625
  541MOL0     C72925   2.773  11.145  11.832  0.1912 -0.0005 -0.6671
  541MOL0     C72926   2.856  11.147  11.715  0.2013  0.4807  0.3826
  541MOL0     C72927   2.989  11.109  11.723  0.0869  1.1453  0.2314
  541MOL0     C72928   3.047  11.084  11.847  0.9640  0.7704 -0.4391
  541MOL0     C72929   3.183  11.041  11.855 -0.3672 -0.3236 -0.4310
  541MOL0     O72930   3.275  11.090  11.768 -0.7380  0.5123  0.0732
  541MOL0     C72931   3.412  11.082  11.794 -0.6920 -0.3200  0.3166
  541MOL0     C72932   3.449  11.144  11.917 -0.4539  0.0236 -0.0855
  541MOL0     C72933   3.584  11.155  11.955 -0.1393  1.2662 -0.9183
  541MOL0     C72934   3.680  11.134  11.859  1.6850 -0.1054  0.1353
  541MOL0     O72935   3.806  11.152  11.902  0.0496 -0.1179 -0.6710
  541MOL0     C72936   3.898  11.053  11.851  0.7643 -0.2925 -0.2233
  541MOL0     C72937   4.012  11.053  11.943 -0.4078 -0.3137  0.0939
  541MOL0     C72938   4.095  11.184  11.941 -0.0591  0.7394 -0.1158
  541MOL0     C72939   4.236  11.154  11.997 -0.1361 -0.2831  0.2495
  541MOL0     C72940   4.327  11.277  12.032 -0.1922 -0.4949  0.0754
  541MOL0     C72941   4.397  11.324  11.902  0.0966 -0.5387  0.3481
  541MOL0     C72942   4.471  11.459  11.903 -0.0733 -0.6529  0.2807
  541MOL0     C72943   4.497  11.525  11.770  0.6638  0.0587  0.0591
  541MOL0    Cl72944   4.540  11.689  11.814  0.2839 -0.2248  0.3657
  541MOL0     C72945   3.640  11.094  11.733 -0.2800  0.1488 -0.6824
  541MOL0     C72946   3.508  11.073  11.695 -0.1268 -0.2312  0.3834
  541MOL0     O72947   3.206  10.965  11.942 -0.2274  0.2708 -0.3172
  541MOL0     C72948   2.962  11.087  11.965 -0.1660  0.0887  0.0750
  541MOL0     C72949   2.829  11.121  11.952  0.5351 -0.1517 -0.6124
  541MOL0     N72950   2.328  11.060  11.294 -0.3236 -0.2888 -0.2920
  541MOL0     N72951   2.222  11.053  11.218 -0.2138 -0.6993 -0.0885
  541MOL0     C72952   1.013  11.187  11.077 -1.0048  0.9707  0.0749
  541MOL0     C72953   0.882  11.138  11.038 -0.1329 -0.2175  0.2883
  541MOL0     C72954   0.550  10.870  10.850 -1.2393 -0.0396 -0.3917
  541MOL0     C72955   0.490  10.741  10.863  0.1778 -1.5382 -0.9865
  541MOL0     C72956   0.354  10.726  10.838  0.0807 -0.5722 -0.4122
  541MOL0     C72957   0.273  10.834  10.809  1.2003  0.9060 -0.0081
  541MOL0     O72958   0.137  10.849  10.782 -0.1563 -0.5700 -0.6013
  541MOL0     C72959   0.052  10.745  10.827  0.3519  0.0223  0.1044
  541MOL0     C72960  -0.095  10.798  10.829 -0.2058 -0.1260  0.5221
  541MOL0     C72961  -0.147  10.844  10.690  0.5917 -0.3641 -0.6430
  541MOL0     C72962  -0.301  10.845  10.692  0.0204  0.2533 -0.2121
  541MOL0     C72963  -0.348  10.894  10.561 -0.4347  0.3888 -0.3015
  541MOL0     C72964  -0.384  10.934  10.452  1.5831 -0.2051 -0.0101
  541MOL0     C72965   0.336  10.958  10.791  1.3181 -0.5450  0.2315
  541MOL0     C72966   0.478  10.985  10.809 -0.1219 -0.2955  0.5471
  541MOL0     C72967   0.536  11.120  10.786  0.8401  0.5904 -0.6961
  541MOL0     H72968   0.984  10.888  10.840  0.2308 -0.6173 -0.0607
  541MOL0     H72969   1.201  10.976  10.884 -0.5896  0.4340 -0.6905
  541MOL0     H72970   1.230  11.361  11.073 -0.5951  0.3976  0.8325
  541MOL0     H72971   1.353  11.304  11.172 -2.2226  2.5737  0.3131
  541MOL0     H72972   1.418  11.396  10.931 -0.3508  0.7188  3.6142
  541MOL0     H72973   1.402  11.222  10.890  0.9397 -0.6321 -0.5428
  541MOL0     H72974   1.587  11.374  11.066 -0.5060 -0.9048  0.0725
  541MOL0     H72975   1.621  11.259  10.947  0.3146  1.2388  0.3733
  541MOL0     H72976   1.517  11.173  11.206  1.6818 -2.1234  1.6159
  541MOL0     H72977   1.541  11.065  11.070 -1.9815 -0.3922  1.0441
  541MOL0     H72978   1.766  11.070  11.068 -1.9316  0.6818 -2.0808
  541MOL0     H72979   1.775  11.219  11.175  1.4906 -0.8686 -1.7223
  541MOL0     H72980   1.690  11.085  11.358 -0.1216 -0.4787 -0.5812
  541MOL0     H72981   1.721  10.940  11.260  1.3690 -0.5907  0.8062
  541MOL0     H72982   1.878  10.960  11.401 -6.3215 -0.9140 -1.5256
  541MOL0     H72983   1.927  11.135  11.367  1.7439 -1.2117  0.7488
  541MOL0     H72984   1.970  10.878  11.214  1.1138 -0.3153  2.0844
  541MOL0     H72985   1.995  11.028  11.135  3.5233 -1.4891 -1.0454
  541MOL0     H72986   2.124  10.898  11.495  1.3585  0.1856 -0.1127
  541MOL0     H72987   2.391  10.914  11.591 -0.0241 -0.3658 -0.4698
  541MOL0     H72988   2.477  11.025  11.483  0.2499 -1.3651  0.3333
  541MOL0     H72989   2.351  11.217  11.549  1.3920  0.1373  1.1321
  541MOL0     H72990   2.230  11.128  11.648 -1.2024 -0.5787 -1.5300
  541MOL0     H72991   2.403  11.062  11.800  1.6147 -1.9095 -1.1646
  541MOL0     H72992   2.404  11.244  11.778 -0.3366 -1.4801  3.9505
  541MOL0     H72993   2.598  11.234  11.642 -0.0621  1.8427  1.6335
  541MOL0     H72994   2.607  11.051  11.661 -0.2878  0.0584 -0.8493
  541MOL0     H72995   2.830  11.181  11.616 -0.2577  0.8951  0.6393
  541MOL0     H72996   3.047  11.107  11.631 -0.4789  2.5951 -0.1768
  541MOL0     H72997   3.365  11.166  11.983  0.1703 -3.7244  2.3060
  541MOL0     H72998   3.615  11.179  12.056  1.2569 -1.1298 -0.7105
  541MOL0     H72999   3.863  10.950  11.860 -2.0877  0.7634  3.5073
  541MOL0     H73000   3.923  11.089  11.751 -0.8516  0.9245 -0.2395
  541MOL0     H73001   3.979  11.034  12.046  1.7746  0.5406  1.0193
  541MOL0     H73002   4.083  10.970  11.931 -0.8852 -0.3740 -3.2864
  541MOL0     H73003   4.111  11.233  11.844  1.1386  0.3978 -0.1085
  541MOL0     H73004   4.038  11.264  11.989  0.8721  2.3290 -1.5329
  541MOL0     H73005   4.287  11.089  11.926  1.7176  2.9245 -1.5699
  541MOL0     H73006   4.234  11.110  12.097  0.8396 -1.8473 -0.3888
  541MOL0     H73007   4.401  11.252  12.109  2.1703  2.5160 -1.0147
  541MOL0     H73008   4.272  11.362  12.074  2.2745  0.2755  2.0029
  541MOL0     H73009   4.462  11.247  11.859  1.4788  0.9417 -0.3202
  541MOL0     H73010   4.313  11.336  11.833 -1.3810 -4.1764  1.3179
  541MOL0     H73011   4.571  11.430  11.936  0.0710 -1.4875 -0.8190
  541MOL0     H73012   4.431  11.530  11.976 -0.2944 -1.7359  1.2468
  541MOL0     H73013   4.590  11.483  11.730  1.7125  2.9703 -0.8527
  541MOL0     H73014   4.414  11.525  11.699 -1.0380  0.4975  1.9542
  541MOL0     H73015   3.711  11.076  11.653  1.9995 -0.5856  1.3968
  541MOL0     H73016   3.467  11.055  11.596 -3.0758  0.8009  1.2845
  541MOL0     H73017   3.001  11.057  12.062 -2.3779 -3.7602 -0.0123
  541MOL0     H73018   2.769  11.117  12.043 -0.2819 -0.0446 -1.1303
  541MOL0     H73019   1.027  11.265  11.151  0.2309  0.9471 -0.1217
  541MOL0     H73020   0.791  11.174  11.084 -1.3343 -1.8017 -0.7547
  541MOL0     H73021   0.557  10.655  10.871  0.4845 -1.2545 -0.3907
  541MOL0     H73022   0.312  10.626  10.841  0.4222 -0.7160  2.9264
  541MOL0     H73023   0.081  10.728  10.931 -1.1897  0.3675  0.6228
  541MOL0     H73024   0.071  10.652  10.773  1.0288 -0.0440  0.4469
  541MOL0     H73025  -0.110  10.893  10.881 -4.1881  1.4581 -2.8762
  541MOL0     H73026  -0.153  10.724  10.885 -2.0147  1.0321  0.2612
  541MOL0     H73027  -0.118  10.780  10.607 -2.9045  0.8296 -3.0180
  541MOL0     H73028  -0.105  10.945  10.681  3.2650 -1.2294  0.9200
  541MOL0     H73029  -0.352  10.748  10.699  1.1794 -0.6043 -2.4557
  541MOL0     H73030  -0.331  10.908  10.776  0.1667 -0.4577  0.3803
  541MOL0     H73031  -0.430  10.984  10.369  0.5884  1.5034  1.4940
  541MOL0     H73032   0.266  11.033  10.755  0.2505 -2.3552 -1.7062
  541MOL0     H73033   0.625  11.118  10.722  0.1318  0.2786 -1.7074
  541MOL0     H73034   0.468  11.175  10.720  0.4494  1.0826  0.1163
  541MOL0     H73035   0.543  11.185  10.873  0.1812  3.4869 -2.6506
  542MOL0     O73036   6.145  11.198  10.821 -0.2989 -0.3221 -0.1651
  542MOL0     C73037   6.235  11.250  10.749  0.9539  0.0510  0.0864
  542MOL0     O73038   6.210  11.329  10.638 -0.4293  0.3076 -0.3949
  542MOL0     C73039   6.085  11.371  10.599  0.0110  0.2511  0.1626
  542MOL0     C73040   6.054  11.369  10.465  0.0816 -0.3608 -0.9388
  542MOL0     C73041   5.924  11.388  10.413  0.3204 -0.0814 -0.4210
  542MOL0     C73042   5.816  11.419  10.503  0.0967  0.6201  0.8254
  542MOL0     O73043   5.696  11.447  10.445  0.4653 -0.5790 -0.0392
  542MOL0     C73044   5.584  11.446  10.532  0.1932 -0.2541 -0.4984
  542MOL0     C73045   5.463  11.504  10.456  0.0299 -0.3001 -0.6772
  542MOL0     C73046   5.327  11.454  10.499 -0.4556 -0.6202  0.2169
  542MOL0     C73047   5.213  11.524  10.422  0.0481  0.0881 -0.4002
  542MOL0     C73048   5.209  11.681  10.431 -0.6489  1.0646  0.1272
  542MOL0     C73049   5.084  11.728  10.362  1.0790 -0.0425  0.6840
  542MOL0     C73050   5.083  11.706  10.204  0.7509  0.6612  0.6879
  542MOL0     C73051   5.182  11.792  10.124 -0.3454 -0.3524 -0.8268
  542MOL0     N73052   5.323  11.780  10.156 -0.1936  0.3810  0.0014
  542MOL0     C73053   5.399  11.673  10.119 -0.6651  0.0969 -0.1278
  542MOL0     C73054   5.527  11.713  10.127  0.2501  0.1602  0.1634
  542MOL0     C73055   5.642  11.615  10.107  0.1542 -0.0551 -0.2124
  542MOL0     C73056   5.755  11.679  10.023 -0.1982  0.5679 -0.4100
  542MOL0     C73057   5.860  11.578   9.987  0.8534  0.2888  0.3114
  542MOL0     C73058   5.961  11.655   9.906  0.1783 -0.5601 -0.2817
  542MOL0     O73059   6.059  11.571   9.849  0.8034  0.0292  0.0970
  542MOL0     C73060   6.158  11.502   9.921  0.6842  0.0123  0.1354
  542MOL0     C73061   6.188  11.540  10.053 -0.2024  0.4598  0.9891
  542MOL0     C73062   6.309  11.488  10.110  0.9806 -0.4753  0.5226
  542MOL0     C73063   6.390  11.398  10.043  0.3814 -0.0865  0.7920
  542MOL0     C73064   6.512  11.342  10.111  0.4633 -0.8546  0.4185
  542MOL0     O73065   6.565  11.414  10.219 -0.2644 -0.5583  0.6671
  542MOL0     C73066   6.681  11.389  10.299  0.4139 -0.7924 -0.3634
  542MOL0     C73067   6.772  11.286  10.276 -0.3264  1.0243  0.4151
  542MOL0     C73068   6.874  11.260  10.365 -0.6715  0.0789 -0.4680
  542MOL0     C73069   6.891  11.336  10.481  0.4104  0.1196 -0.0849
  542MOL0     O73070   6.991  11.302  10.576 -0.7105 -0.0269  0.6787
  542MOL0     C73071   7.020  11.396  10.675 -0.3830  0.2397 -0.0910
  542MOL0     C73072   7.125  11.345  10.760  0.5886  0.6655  0.7664
  542MOL0     C73073   7.133  11.432  10.879  0.4097  0.4182 -0.0618
  542MOL0     C73074   7.222  11.376  10.991 -0.5394  0.5959  0.0995
  542MOL0     C73075   7.372  11.387  10.969  0.9041  1.3899  0.5100
  542MOL0     C73076   7.431  11.343  11.100 -0.0612  0.2927 -0.3889
  542MOL0     C73077   7.580  11.366  11.107 -0.1880  0.3952 -0.3453
  542MOL0     C73078   7.632  11.246  11.028 -0.1210 -0.2657  0.4103
  542MOL0    Cl73079   7.818  11.251  11.018  0.5314 -0.0148  0.3583
  542MOL0     C73080   6.800  11.446  10.499 -0.4495 -0.0347  0.0613
  542MOL0     C73081   6.695  11.475  10.411 -0.0373  1.4726 -0.3288
  542MOL0     O73082   6.561  11.242  10.064 -0.6210  0.2725  0.4338
  542MOL0     C73083   6.364  11.370   9.915 -0.4937  0.3957 -0.1356
  542MOL0     C73084   6.245  11.415   9.848 -0.1934 -0.0784 -0.3163
  542MOL0     N73085   5.532  11.846  10.167  0.3299  0.7927 -0.0671
  542MOL0     N73086   5.412  11.882  10.174  0.2919 -0.0941 -0.3487
  542MOL0     C73087   5.845  11.420  10.636  0.8238 -0.3177 -0.2710
  542MOL0     C73088   5.980  11.396  10.683  1.0573  0.8752 -0.3497
  542MOL0     C73089   6.370  11.214  10.776  0.1619  0.3840 -0.4419
  542MOL0     C73090   6.397  11.080  10.821 -0.4224  0.4107  0.4048
  542MOL0     C73091   6.530  11.037  10.860 -0.3247 -0.3880  0.0650
  542MOL0     C73092   6.647  11.116  10.830  0.3783 -0.0730 -0.3950
  542MOL0     O73093   6.779  11.085  10.841  0.2235 -0.3971 -0.0448
  542MOL0     C73094   6.807  11.006  10.949  0.3050 -0.9763  0.2244
  542MOL0     C73095   6.962  10.975  10.956 -0.2742  0.1890 -0.1015
  542MOL0     C73096   7.015  10.926  11.095 -0.0809  1.1628 -0.8478
  542MOL0     C73097   6.964  10.999  11.215  0.0258  0.7413  0.8326
  542MOL0     C73098   6.972  11.143  11.205 -0.4517  0.3087  0.0002
  542MOL0     C73099   6.987  11.263  11.196 -0.4688  0.0363 -0.7922
  542MOL0     C73100   6.618  11.243  10.782 -0.0693  1.2136  0.3774
  542MOL0     C73101   6.487  11.290  10.752  0.6231 -0.6337 -0.6217
  542MOL0     C73102   6.479  11.432  10.697  0.1823  0.4692 -0.1729
  542MOL0     H73103   6.134  11.339  10.399  0.6719 -0.7165 -0.0802
  542MOL0     H73104   5.904  11.370  10.308 -0.3076  1.5585 -0.6238
  542MOL0     H73105   5.561  11.345  10.566  1.1710 -0.8962 -1.6763
  542MOL0     H73106   5.606  11.506  10.621  1.3510 -1.2708 -0.0779
  542MOL0     H73107   5.458  11.466  10.354 -2.1852 -1.3603 -0.2369
  542MOL0     H73108   5.471  11.612  10.468 -0.9807 -0.3673  0.9249
  542MOL0     H73109   5.309  11.466  10.606 -0.4019 -0.3138  0.1918
  542MOL0     H73110   5.323  11.348  10.471 -1.1753 -0.5900  0.2048
  542MOL0     H73111   5.239  11.488  10.322  0.7164  1.9598 -0.9510
  542MOL0     H73112   5.116  11.488  10.459  0.7716  1.1567  2.8753
  542MOL0     H73113   5.197  11.714  10.535 -0.3964  0.8258  0.2350
  542MOL0     H73114   5.304  11.731  10.408 -1.0494  1.2057 -1.2924
  542MOL0     H73115   4.994  11.677  10.397  0.6778 -0.6833 -1.1812
  542MOL0     H73116   5.077  11.836  10.380  2.0052  0.2029 -0.2708
  542MOL0     H73117   4.983  11.736  10.170  1.1447 -0.3047 -1.5021
  542MOL0     H73118   5.109  11.603  10.178  0.5208  1.0697 -1.3375
  542MOL0     H73119   5.168  11.779  10.016 -0.2107  1.4253 -1.0806
  542MOL0     H73120   5.151  11.895  10.144 -0.0013 -0.8718  3.1731
  542MOL0     H73121   5.369  11.590  10.055  1.1979  1.0528 -2.4021
  542MOL0     H73122   5.684  11.590  10.205 -2.3100  0.3669  1.0382
  542MOL0     H73123   5.604  11.525  10.059 -1.9559  0.4873  0.3566
  542MOL0     H73124   5.707  11.718   9.933 -0.0342 -0.7298 -1.0775
  542MOL0     H73125   5.787  11.765  10.082 -1.2643  0.6275  0.0932
  542MOL0     H73126   5.812  11.495   9.935 -0.5707 -0.9866  3.3814
  542MOL0     H73127   5.905  11.537  10.078  1.0054  2.2547  1.1855
  542MOL0     H73128   6.003  11.731   9.972  1.9509 -4.0444  2.9823
  542MOL0     H73129   5.917  11.702   9.817  0.2505 -1.0993 -0.6093
  542MOL0     H73130   6.134  11.609  10.117  1.8942  1.1934  2.0794
  542MOL0     H73131   6.341  11.524  10.207 -0.7579  1.2038  0.5467
  542MOL0     H73132   6.772  11.230  10.183 -2.0218  2.2197 -0.3523
  542MOL0     H73133   6.946  11.184  10.337 -2.5176 -1.2537 -1.9183
  542MOL0     H73134   7.036  11.495  10.633 -0.5784  0.7214  0.9312
  542MOL0     H73135   6.927  11.401  10.732 -1.4121 -0.2249 -1.6563
  542MOL0     H73136   7.098  11.240  10.777  1.1567  0.8147  2.8152
  542MOL0     H73137   7.217  11.336  10.701 -0.8869  0.0135 -1.5717
  542MOL0     H73138   7.164  11.532  10.847 -2.8320  0.6498 -3.0830
  542MOL0     H73139   7.035  11.433  10.928  0.4894  1.2047  0.0923
  542MOL0     H73140   7.180  11.275  10.996 -1.8269  1.0049 -1.5354
  542MOL0     H73141   7.201  11.432  11.082 -1.8685 -1.5117  1.1669
  542MOL0     H73142   7.394  11.493  10.949  1.9783  1.1088  0.1505
  542MOL0     H73143   7.409  11.328  10.886  0.6840  1.5324  0.3085
  542MOL0     H73144   7.387  11.398  11.183 -2.9557 -1.0573 -0.8946
  542MOL0     H73145   7.407  11.241  11.131  2.8756 -0.1908  0.6069
  542MOL0     H73146   7.626  11.358  11.206  3.7722  1.3157 -1.8902
  542MOL0     H73147   7.604  11.459  11.053  1.0214 -0.6267 -1.6440
  542MOL0     H73148   7.609  11.148  11.072 -0.4827  0.9174  3.0993
  542MOL0     H73149   7.601  11.261  10.924  1.1987  0.2798  0.0736
  542MOL0     H73150   6.805  11.507  10.589 -1.5691  0.2687 -0.0713
  542MOL0     H73151   6.623  11.555  10.423 -1.0220  0.5240  0.2407
  542MOL0     H73152   6.445  11.314   9.870  0.2973  2.1271 -0.9626
  542MOL0     H73153   6.238  11.411   9.740 -1.0436 -0.4213 -0.2542
  542MOL0     H73154   5.773  11.440  10.715 -0.9585  1.6866 -2.2486
  542MOL0     H73155   5.996  11.401  10.790 -0.3088  0.5443 -0.1108
  542MOL0     H73156   6.323  11.008  10.854  1.3211 -1.7039 -0.0324
  542MOL0     H73157   6.539  10.940  10.907 -0.2132  0.9088  2.9065
  542MOL0     H73158   6.755  10.910  10.951  0.6922 -1.2166  2.9782
  542MOL0     H73159   6.773  11.058  11.039 -2.6596  0.4929 -1.5993
  542MOL0     H73160   7.018  11.066  10.932 -0.9903  1.2183  1.8952
  542MOL0     H73161   6.982  10.898  10.881 -1.7991 -0.9302  0.5752
  542MOL0     H73162   7.124  10.929  11.104  0.1123 -3.7844  2.5538
  542MOL0     H73163   6.982  10.822  11.108 -0.5631  1.6367  2.7836
  542MOL0     H73164   6.861  10.969  11.238 -0.4245 -0.4737 -2.3474
  542MOL0     H73165   7.022  10.965  11.302 -1.4821  0.4309  1.7640
  542MOL0     H73166   7.026  11.361  11.179  0.0489 -0.4074 -2.3558
  542MOL0     H73167   6.707  11.303  10.765  2.3692 -2.3026 -0.4444
  542MOL0     H73168   6.386  11.487  10.716  1.4536  4.0031 -3.0636
  542MOL0     H73169   6.564  11.494  10.724  0.0832  0.8652 -0.7511
  542MOL0     H73170   6.482  11.426  10.587  3.3831  1.7042 -0.2573
  543MOL0     O73171   4.154   3.943   8.715  1.2844  0.2912  0.3491
  543MOL0     C73172   4.133   4.058   8.734  0.1252 -0.9250  0.0985
  543MOL0     O73173   4.233   4.143   8.766 -0.6574 -0.3454  0.5237
  543MOL0     C73174   4.367   4.114   8.780  0.7123  0.6493 -0.0747
  543MOL0     C73175   4.424   4.009   8.858  0.1414 -0.1114 -0.1974
  543MOL0     C73176   4.564   3.980   8.862 -0.0704 -0.1945  0.3456
  543MOL0     C73177   4.649   4.067   8.785  0.2923 -0.3418 -0.1002
  543MOL0     O73178   4.790   4.061   8.796 -0.2061  1.0167 -0.3348
  543MOL0     C73179   4.842   3.944   8.863  0.5732  0.4559 -0.3628
  543MOL0     C73180   4.987   3.934   8.834  0.3168 -0.0473  0.0360
  543MOL0     C73181   5.014   3.916   8.689  1.3240 -0.4367  0.2422
  543MOL0     C73182   5.158   3.876   8.659  0.0292 -0.3831  0.2985
  543MOL0     C73183   5.195   3.863   8.512 -0.3979 -0.2906  0.9173
  543MOL0     C73184   5.351   3.858   8.492 -0.2110  0.5900  0.2809
  543MOL0     C73185   5.388   3.864   8.344  0.1724 -0.6602 -0.3629
  543MOL0     C73186   5.338   3.752   8.259 -0.2674  0.6268 -0.8621
  543MOL0     N73187   5.402   3.764   8.127 -0.6645  0.4877 -0.2925
  543MOL0     C73188   5.502   3.689   8.076 -0.0612  1.0268 -0.6701
  543MOL0     C73189   5.521   3.728   7.951  0.7372  0.4151  0.8328
  543MOL0     C73190   5.620   3.651   7.854 -0.2732  0.9627  0.4252
  543MOL0     C73191   5.761   3.719   7.849  0.1126 -0.1078 -1.0427
  543MOL0     C73192   5.815   3.792   7.978  0.3127 -0.2897  0.8438
  543MOL0     C73193   5.960   3.840   7.957 -0.2489  0.6610  0.0085
  543MOL0     O73194   6.004   3.938   8.051  0.0099  1.0365  0.1556
  543MOL0     C73195   6.142   3.963   8.057 -0.7201  0.9381  0.1331
  543MOL0     C73196   6.240   3.918   7.961  0.3252 -0.5316 -0.7146
  543MOL0     C73197   6.371   3.970   7.962 -0.1654 -0.2269 -0.2405
  543MOL0     C73198   6.408   4.066   8.056  0.3152 -0.1408  0.5904
  543MOL0     C73199   6.525   4.152   8.039  0.3059  0.0854  0.1441
  543MOL0     O73200   6.628   4.080   7.983  0.3121 -0.2689 -0.8299
  543MOL0     C73201   6.749   4.148   7.969 -0.0727  0.1854  0.5382
  543MOL0     C73202   6.780   4.204   7.849 -0.7276 -0.2698  0.2887
  543MOL0     C73203   6.896   4.277   7.835 -0.0615 -0.2292 -0.5616
  543MOL0     C73204   7.000   4.276   7.932  0.6740  0.0728  0.5195
  543MOL0     O73205   7.121   4.328   7.897 -0.3405  0.4587  0.1943
  543MOL0     C73206   7.132   4.472   7.908  0.4689  0.8874  0.1780
  543MOL0     C73207   7.259   4.528   7.855  0.0564 -0.4721 -0.3806
  543MOL0     C73208   7.286   4.688   7.883  0.1803 -0.4204  0.3409
  543MOL0     C73209   7.413   4.725   7.817 -0.1139  0.1030  0.1620
  543MOL0     C73210   7.469   4.859   7.884 -0.1018  0.2576 -0.4708
  543MOL0     C73211   7.584   4.905   7.791 -1.0650 -1.4622 -0.3141
  543MOL0     C73212   7.658   5.013   7.870 -1.1168 -0.5161 -0.0812
  543MOL0     C73213   7.799   5.031   7.815  0.3791  0.4737  0.3125
  543MOL0    Cl73214   7.901   4.894   7.845  0.0049  0.0565  0.3699
  543MOL0     C73215   6.973   4.215   8.056  0.4223 -0.1812 -0.1539
  543MOL0     C73216   6.840   4.158   8.075  0.1452 -0.1150 -0.5549
  543MOL0     O73217   6.525   4.271   8.077 -0.3232  0.6313  0.6035
  543MOL0     C73218   6.320   4.102   8.152  0.6072 -0.3551 -0.1774
  543MOL0     C73219   6.185   4.046   8.153 -0.3616  0.2580 -0.4190
  543MOL0     N73220   5.441   3.832   7.930  0.0366 -0.3471 -0.6321
  543MOL0     N73221   5.381   3.861   8.040 -0.6506 -0.3423 -0.3532
  543MOL0     C73222   4.593   4.175   8.704  0.3441 -0.2379  0.3141
  543MOL0     C73223   4.456   4.191   8.699  0.0446  0.0918 -0.1171
  543MOL0     C73224   3.992   4.110   8.750  0.0879 -0.5176 -0.3158
  543MOL0     C73225   3.965   4.221   8.838  0.1929 -0.7671 -0.1149
  543MOL0     C73226   3.831   4.258   8.865 -0.0864 -0.7422  1.0877
  543MOL0     C73227   3.727   4.215   8.793  0.0827 -0.5908 -0.5510
  543MOL0     O73228   3.596   4.255   8.797 -0.6686  0.2358  0.4237
  543MOL0     C73229   3.560   4.343   8.901  0.6823 -0.1101  0.8956
  543MOL0     C73230   3.409   4.341   8.902  0.1658 -0.3132  0.2269
  543MOL0     C73231   3.362   4.464   8.980  0.2401  0.1841  0.5124
  543MOL0     C73232   3.208   4.475   8.989  0.3434 -0.5533  0.8691
  543MOL0     C73233   3.142   4.345   9.025 -1.0753  0.1908 -0.5645
  543MOL0     C73234   3.070   4.256   9.060 -0.3012 -0.2177  1.1007
  543MOL0     C73235   3.748   4.111   8.704 -0.2836 -0.0261  0.3603
  543MOL0     C73236   3.875   4.053   8.685 -0.0538  0.5734  0.0270
  543MOL0     C73237   3.884   3.939   8.592 -0.2151 -0.1553 -0.2146
  543MOL0     H73238   4.364   3.942   8.919 -0.5446  1.0459  0.4492
  543MOL0     H73239   4.613   3.906   8.924 -0.3585 -0.9734 -0.3302
  543MOL0     H73240   4.832   3.961   8.971 -0.1116 -0.1725 -0.3243
  543MOL0     H73241   4.792   3.852   8.831 -1.6999  0.4905  2.6760
  543MOL0     H73242   5.020   3.851   8.897 -1.0978 -1.1479 -0.6032
  543MOL0     H73243   5.037   4.026   8.865  3.2080 -1.4645 -0.0520
  543MOL0     H73244   4.986   4.003   8.628  1.2398 -1.5237 -1.3252
  543MOL0     H73245   4.947   3.835   8.658 -2.8683  3.0569 -0.8449
  543MOL0     H73246   5.218   3.955   8.704 -0.4189  1.2956 -1.8724
  543MOL0     H73247   5.177   3.780   8.708  2.9195 -0.2665 -0.4166
  543MOL0     H73248   5.149   3.777   8.462  1.3080 -2.4471  2.7860
  543MOL0     H73249   5.173   3.957   8.461  0.1846 -0.6185  0.0501
  543MOL0     H73250   5.389   3.948   8.541  2.3951  0.1269 -0.7185
  543MOL0     H73251   5.392   3.766   8.535 -3.5155 -0.6233  1.0923
  543MOL0     H73252   5.494   3.887   8.339  0.3525 -0.8622  1.5459
  543MOL0     H73253   5.347   3.959   8.307  1.4893 -0.7843 -2.2722
  543MOL0     H73254   5.370   3.661   8.311  1.8889  0.2219 -2.7271
  543MOL0     H73255   5.229   3.752   8.253 -0.1992  2.1565 -3.0143
  543MOL0     H73256   5.553   3.609   8.128  0.9803  1.1691 -1.4494
  543MOL0     H73257   5.634   3.549   7.891 -2.2678  0.2666 -0.5787
  543MOL0     H73258   5.579   3.631   7.755  1.3436 -0.0781 -0.0704
  543MOL0     H73259   5.837   3.646   7.821  3.3963  1.3106  3.0528
  543MOL0     H73260   5.734   3.795   7.775  1.2416 -1.6828 -3.1447
  543MOL0     H73261   5.810   3.729   8.067 -0.9245  2.3552  2.7681
  543MOL0     H73262   5.748   3.871   8.013 -0.9136 -1.3079  0.8955
  543MOL0     H73263   5.971   3.874   7.854 -1.0280  1.0655  0.0493
  543MOL0     H73264   6.023   3.752   7.975 -1.1996 -0.0610 -0.1264
  543MOL0     H73265   6.206   3.856   7.879 -1.1102 -0.5932 -0.1081
  543MOL0     H73266   6.433   3.932   7.882 -1.4202 -0.2859 -1.2233
  543MOL0     H73267   6.708   4.207   7.768  0.2321 -0.8677 -0.6229
  543MOL0     H73268   6.916   4.332   7.744 -2.9508  1.5549 -0.2618
  543MOL0     H73269   7.049   4.517   7.852  0.2784  0.7902  0.3777
  543MOL0     H73270   7.121   4.507   8.011  1.9377  1.6800  0.0944
  543MOL0     H73271   7.343   4.482   7.908 -1.2438 -0.9953  1.3127
  543MOL0     H73272   7.254   4.502   7.749 -4.9540 -0.7071 -0.3092
  543MOL0     H73273   7.198   4.735   7.839  1.2001 -1.0574 -2.6308
  543MOL0     H73274   7.290   4.705   7.991 -0.0810 -0.9588  0.4399
  543MOL0     H73275   7.391   4.731   7.710 -0.8697  1.4875  0.3696
  543MOL0     H73276   7.489   4.646   7.822  0.1468  0.3818  0.6029
  543MOL0     H73277   7.494   4.835   7.988  1.3124  0.6429 -0.7149
  543MOL0     H73278   7.396   4.940   7.888  1.6630  1.8838  0.1778
  543MOL0     H73279   7.646   4.815   7.783 -0.6458 -1.1513 -0.6186
  543MOL0     H73280   7.544   4.947   7.698  0.0897  1.7781  0.5209
  543MOL0     H73281   7.653   4.994   7.978  2.4850  1.4335  0.5828
  543MOL0     H73282   7.612   5.111   7.855  2.1576  0.9770 -1.2955
  543MOL0     H73283   7.807   5.044   7.706 -1.2556 -0.5806  0.0336
  543MOL0     H73284   7.838   5.118   7.868  0.8901  0.0930  0.5692
  543MOL0     H73285   7.051   4.217   8.130 -0.7018 -0.7413  1.0941
  543MOL0     H73286   6.815   4.093   8.159  0.6746 -3.6823 -2.9414
  543MOL0     H73287   6.344   4.173   8.231  0.0453  0.3254 -0.6104
  543MOL0     H73288   6.112   4.096   8.216  0.8218  0.6988  0.6447
  543MOL0     H73289   4.659   4.239   8.647  2.7213 -3.3390 -0.7399
  543MOL0     H73290   4.410   4.275   8.648 -0.1687  0.7873  1.1807
  543MOL0     H73291   4.044   4.246   8.908  1.4663 -2.4029 -0.9134
  543MOL0     H73292   3.807   4.328   8.944  0.8824  0.4674  0.3470
  543MOL0     H73293   3.595   4.443   8.877 -0.2297 -0.1998 -0.9763
  543MOL0     H73294   3.594   4.307   8.999  1.4393 -0.8802  0.3676
  543MOL0     H73295   3.375   4.249   8.950 -2.6721  0.4760 -0.0339
  543MOL0     H73296   3.375   4.348   8.798  2.4254 -0.5095 -0.5619
  543MOL0     H73297   3.401   4.555   8.932  2.1117 -1.5186 -1.4388
  543MOL0     H73298   3.401   4.461   9.082 -1.1305 -1.8696  1.0169
  543MOL0     H73299   3.183   4.551   9.063  0.0551  1.7563 -1.4610
  543MOL0     H73300   3.162   4.501   8.893 -3.7898 -1.4174  2.4444
  543MOL0     H73301   3.004   4.174   9.081 -1.4611  0.0544 -1.1226
  543MOL0     H73302   3.666   4.079   8.642 -1.6592 -0.0341  2.1124
  543MOL0     H73303   3.785   3.903   8.564 -0.8884 -0.8130  2.6543
  543MOL0     H73304   3.936   3.964   8.499 -2.4711 -2.2403 -2.1635
  543MOL0     H73305   3.918   3.851   8.648 -3.7710 -0.8886  1.0790
  544MOL0     O73306   7.935   7.494   3.846  0.3473  0.3178 -0.1297
  544MOL0     C73307   7.908   7.611   3.868  0.1393 -0.5602  0.1364
  544MOL0     O73308   8.002   7.715   3.886  0.3150 -0.8148 -0.6673
  544MOL0     C73309   8.134   7.684   3.866  0.3333  0.2095  0.4189
  544MOL0     C73310   8.211   7.596   3.951  0.4312  0.2965  0.4431
  544MOL0     C73311   8.342   7.572   3.931 -0.5790  0.2375 -0.0862
  544MOL0     C73312   8.411   7.637   3.828  0.0537 -0.6319 -0.1299
  544MOL0     O73313   8.542   7.620   3.793  0.1920 -0.9279 -0.0872
  544MOL0     C73314   8.607   7.497   3.835 -0.6382  0.0193  0.5717
  544MOL0     C73315   8.749   7.512   3.783 -0.0635 -0.9302  0.4013
  544MOL0     C73316   8.834   7.382   3.788 -0.2873  0.4441 -0.2919
  544MOL0     C73317   8.968   7.387   3.713  0.4379  0.4749  0.7976
  544MOL0     C73318   9.081   7.308   3.775 -0.5893 -0.0652 -1.2147
  544MOL0     C73319   9.050   7.149   3.786  0.2136  0.4798  0.4141
  544MOL0     C73320   9.174   7.076   3.782 -0.5378  0.6491 -0.5058
  544MOL0     C73321   9.149   6.925   3.813 -0.1542 -0.3435 -0.4149
  544MOL0     N73322   9.274   6.859   3.863 -0.0191 -0.3747 -0.1293
  544MOL0     C73323   9.365   6.801   3.782 -0.2311 -0.9475 -0.2806
  544MOL0     C73324   9.462   6.753   3.865 -0.2605  0.8339  0.7685
  544MOL0     C73325   9.586   6.684   3.805  1.1662  0.6006 -0.0270
  544MOL0     C73326   9.616   6.549   3.884  0.2435  0.3225 -0.1353
  544MOL0     C73327   9.755   6.501   3.862  0.0329  0.5830 -0.6095
  544MOL0     C73328   9.798   6.377   3.934 -0.5510  0.3851 -0.0887
  544MOL0     O73329   9.736   6.272   3.865 -0.5480 -0.0154 -0.5056
  544MOL0     C73330   9.679   6.180   3.946  0.4995  0.4383 -0.6594
  544MOL0     C73331   9.755   6.084   4.009  0.2102 -0.2365 -0.5553
  544MOL0     C73332   9.691   5.988   4.081  0.7638  0.5110  0.2119
  544MOL0     C73333   9.555   5.971   4.085 -0.2151  0.3401 -1.1108
  544MOL0     C73334   9.499   5.859   4.181 -0.2556  0.5321  0.3874
  544MOL0     O73335   9.588   5.778   4.244  0.0929  0.7277 -0.0158
  544MOL0     C73336   9.527   5.725   4.356  0.1552  0.0878  0.0413
  544MOL0     C73337   9.536   5.808   4.476  0.2294 -0.5972  0.1540
  544MOL0     C73338   9.479   5.755   4.594 -0.1557 -0.5801  0.1254
  544MOL0     C73339   9.413   5.633   4.603  0.5573  0.1555 -0.1154
  544MOL0     O73340   9.364   5.571   4.717 -0.2433  0.6477  0.2616
  544MOL0     C73341   9.362   5.648   4.835 -0.4043  0.0248  0.0194
  544MOL0     C73342   9.238   5.745   4.828 -0.4445 -0.2179 -0.6065
  544MOL0     C73343   9.238   5.843   4.939 -0.7321 -0.5232  0.1461
  544MOL0     C73344   9.158   5.801   5.062 -0.5512  0.4869 -0.8084
  544MOL0     C73345   9.149   5.909   5.169 -0.3984 -0.3425  0.3665
  544MOL0     C73346   9.045   6.026   5.133 -0.3777  0.0731 -0.2776
  544MOL0     C73347   9.039   6.120   5.261 -0.2442 -0.0513  0.7520
  544MOL0     C73348   8.909   6.202   5.264  0.0363 -0.8647  0.3645
  544MOL0    Cl73349   8.754   6.113   5.224  0.2296 -0.4671  0.4194
  544MOL0     C73350   9.402   5.560   4.478  0.6924  0.3489 -0.8884
  544MOL0     C73351   9.466   5.601   4.365  0.2329 -0.3393 -0.3645
  544MOL0     O73352   9.380   5.864   4.192  0.0336 -0.0398 -0.7616
  544MOL0     C73353   9.472   6.061   4.025  0.1259 -0.2321 -0.6648
  544MOL0     C73354   9.537   6.168   3.956 -0.9667  0.0751  0.3656
  544MOL0     N73355   9.432   6.780   3.991 -0.3533 -0.4122  0.3424
  544MOL0     N73356   9.315   6.834   3.991 -0.2537 -0.5551 -0.1101
  544MOL0     C73357   8.342   7.730   3.750  0.2400  1.0296 -0.0703
  544MOL0     C73358   8.204   7.754   3.771 -0.2650 -0.9045  0.5881
  544MOL0     C73359   7.770   7.652   3.836 -0.5811 -0.0975 -0.9896
  544MOL0     C73360   7.748   7.791   3.799  0.0153  0.4479 -0.1152
  544MOL0     C73361   7.616   7.839   3.757  0.8718 -0.3040 -0.4408
  544MOL0     C73362   7.508   7.753   3.759  0.0154  0.0035  1.1276
  544MOL0     O73363   7.385   7.770   3.706 -0.6957  0.3160  0.3208
  544MOL0     C73364   7.350   7.891   3.638  1.2898 -0.2432  0.1742
  544MOL0     C73365   7.197   7.913   3.626 -0.3337  0.2567  0.3583
  544MOL0     C73366   7.175   8.046   3.558  0.0350  0.3587 -0.9572
  544MOL0     C73367   7.035   8.102   3.581  0.2346  0.0721 -0.1712
  544MOL0     C73368   7.019   8.242   3.538 -0.1444 -0.6711 -0.5407
  544MOL0     C73369   7.008   8.358   3.504 -0.1256 -0.1654  0.1978
  544MOL0     C73370   7.531   7.622   3.794 -0.2199  0.0925  0.6584
  544MOL0     C73371   7.651   7.567   3.834 -0.0316  0.0858  0.2327
  544MOL0     C73372   7.661   7.415   3.856 -0.6151  0.9629  0.3252
  544MOL0     H73373   8.158   7.547   4.032  0.3386 -2.8049 -1.3257
  544MOL0     H73374   8.401   7.506   3.994 -1.1058 -0.7383 -0.5921
  544MOL0     H73375   8.611   7.487   3.944 -0.3289 -3.3173  0.3702
  544MOL0     H73376   8.562   7.414   3.780  0.3641 -1.6197  2.0958
  544MOL0     H73377   8.797   7.595   3.835 -1.5994  1.8116 -2.2258
  544MOL0     H73378   8.734   7.536   3.677  0.2827 -0.5959  0.4273
  544MOL0     H73379   8.779   7.296   3.749  0.7533 -1.1663  1.5873
  544MOL0     H73380   8.856   7.359   3.893 -2.2435  1.3541  0.3663
  544MOL0     H73381   8.942   7.360   3.610 -0.4201 -0.3197  1.2088
  544MOL0     H73382   9.008   7.489   3.717 -2.7186  1.9086 -0.5336
  544MOL0     H73383   9.174   7.340   3.728 -0.9305  2.5515 -0.2634
  544MOL0     H73384   9.101   7.325   3.881  1.6746 -2.8482 -1.0888
  544MOL0     H73385   8.983   7.120   3.868  0.8934  0.1440  0.8682
  544MOL0     H73386   8.993   7.120   3.698 -1.6077  2.1476  0.9713
  544MOL0     H73387   9.236   7.114   3.864  2.3714 -1.5871 -1.4666
  544MOL0     H73388   9.223   7.097   3.687  0.4927 -1.4230 -0.4970
  544MOL0     H73389   9.066   6.909   3.882  0.3347 -1.8492 -0.1513
  544MOL0     H73390   9.115   6.869   3.725 -1.0587 -0.4139 -0.0376
  544MOL0     H73391   9.353   6.792   3.675 -1.8213  1.6513 -0.4103
  544MOL0     H73392   9.575   6.658   3.699  0.5461 -4.8791  1.0429
  544MOL0     H73393   9.667   6.756   3.822 -0.3011  2.1148  0.7868
  544MOL0     H73394   9.609   6.581   3.988  0.4050  0.5239 -0.1859
  544MOL0     H73395   9.548   6.470   3.850 -0.7253  1.7490 -1.6955
  544MOL0     H73396   9.828   6.580   3.883  0.8728 -0.3094 -0.0647
  544MOL0     H73397   9.772   6.487   3.755 -1.7391  1.1558 -1.0056
  544MOL0     H73398   9.784   6.378   4.042  3.7820 -1.7685  0.7047
  544MOL0     H73399   9.906   6.367   3.919 -0.8944 -2.2266 -1.3517
  544MOL0     H73400   9.863   6.096   4.007  0.2796 -0.8611 -2.7213
  544MOL0     H73401   9.751   5.925   4.146 -1.8197  0.2184  2.4908
  544MOL0     H73402   9.588   5.903   4.470  2.3275 -1.4564  2.7470
  544MOL0     H73403   9.493   5.824   4.677 -1.2557 -0.3279  0.1134
  544MOL0     H73404   9.361   5.577   4.918  1.9978  0.2966  0.3610
  544MOL0     H73405   9.457   5.698   4.857 -0.6336  0.0914  0.8679
  544MOL0     H73406   9.242   5.791   4.729 -0.7254 -1.3684 -1.1706
  544MOL0     H73407   9.151   5.679   4.827 -0.7705  0.2022 -1.7113
  544MOL0     H73408   9.339   5.866   4.975 -0.0084 -1.2310 -1.3645
  544MOL0     H73409   9.194   5.938   4.910 -0.2110 -1.2205 -3.2860
  544MOL0     H73410   9.209   5.708   5.089 -2.0140 -0.0743  0.1216
  544MOL0     H73411   9.054   5.777   5.038  0.0429 -0.5775 -2.4735
  544MOL0     H73412   9.246   5.954   5.189 -1.0587  0.4697  1.8404
  544MOL0     H73413   9.114   5.862   5.261  0.8250 -0.7638  0.6350
  544MOL0     H73414   9.080   6.083   5.046 -0.1904  2.9145  1.5650
  544MOL0     H73415   8.949   5.975   5.118 -0.2099 -1.0186  1.9094
  544MOL0     H73416   9.118   6.194   5.268  0.2752 -0.6650  1.5462
  544MOL0     H73417   9.040   6.054   5.348 -0.3174 -1.5532 -0.3384
  544MOL0     H73418   8.899   6.245   5.364 -1.3293  0.0503 -0.1378
  544MOL0     H73419   8.925   6.282   5.191  0.6225  0.9186  2.3604
  544MOL0     H73420   9.368   5.457   4.489  2.9237 -0.1584  3.8339
  544MOL0     H73421   9.460   5.531   4.282 -3.1551 -0.2334 -0.3642
  544MOL0     H73422   9.366   6.039   4.019  0.2904 -0.7581 -2.1969
  544MOL0     H73423   9.475   6.237   3.900 -1.5364 -0.2284  0.6131
  544MOL0     H73424   8.412   7.772   3.678 -0.0810  1.2266 -0.2710
  544MOL0     H73425   8.147   7.834   3.725 -1.1558 -2.1074 -0.4903
  544MOL0     H73426   7.826   7.867   3.793  0.0579  0.4281  0.1673
  544MOL0     H73427   7.610   7.935   3.706  1.4980 -0.9434 -1.7781
  544MOL0     H73428   7.396   7.884   3.539  1.2351 -1.7517  0.2397
  544MOL0     H73429   7.388   7.978   3.691  0.1499  1.0479 -1.0170
  544MOL0     H73430   7.146   7.904   3.722 -0.7282 -0.9986  0.0421
  544MOL0     H73431   7.156   7.842   3.554 -1.5173  1.3003 -0.0322
  544MOL0     H73432   7.197   8.047   3.451  3.7481 -0.6323 -0.3570
  544MOL0     H73433   7.238   8.126   3.600 -3.2235  1.6835  1.8929
  544MOL0     H73434   6.958   8.038   3.536  1.3511  1.3007 -4.2421
  544MOL0     H73435   7.022   8.115   3.689 -1.1665  3.3877 -0.6193
  544MOL0     H73436   7.016   8.464   3.491  2.1708 -0.3057  0.0299
  544MOL0     H73437   7.452   7.548   3.786  0.1783 -0.6517  2.9380
  544MOL0     H73438   7.691   7.364   3.763 -1.0583  1.5668 -0.1562
  544MOL0     H73439   7.720   7.386   3.944 -0.6137  0.1044  0.0512
  544MOL0     H73440   7.561   7.376   3.876 -0.5285 -0.0731 -1.0660
  545MOL0     O73441   4.823   3.214   0.262 -0.5625  0.6340  0.2238
  545MOL0     C73442   4.887   3.136   0.340 -0.4069  0.2799  0.1084
  545MOL0     O73443   5.017   3.139   0.379  0.6170 -0.3257  0.1300
  545MOL0     C73444   5.069   3.264   0.367  0.8312 -0.4792  0.2871
  545MOL0     C73445   5.208   3.274   0.335  0.2979 -0.2566 -0.4842
  545MOL0     C73446   5.269   3.399   0.335 -0.3397  0.0889  0.0010
  545MOL0     C73447   5.198   3.512   0.355 -0.7519  0.9947 -0.8728
  545MOL0     O73448   5.278   3.620   0.350  0.0461 -0.0829 -0.3849
  545MOL0     C73449   5.224   3.741   0.298  0.7883 -0.0171  0.5289
  545MOL0     C73450   5.319   3.857   0.300 -0.5513  1.2101 -0.6462
  545MOL0     C73451   5.438   3.840   0.204  0.6116  0.2514 -0.3994
  545MOL0     C73452   5.534   3.960   0.214 -0.1656  0.5405  0.8669
  545MOL0     C73453   5.652   3.960   0.111 -0.3417  0.7246  0.0164
  545MOL0     C73454   5.744   3.836   0.132 -0.2289 -0.7482  1.0930
  545MOL0     C73455   5.814   3.802   0.263  0.0846 -0.1862 -0.0356
  545MOL0     C73456   5.918   3.908   0.281 -0.6974 -0.2029 -0.0525
  545MOL0     N73457   5.991   3.887   0.405 -0.0308 -0.2401  0.7279
  545MOL0     C73458   6.085   3.796   0.433  0.2832 -0.1838  0.5088
  545MOL0     C73459   6.117   3.831   0.558 -0.0754  1.1401 -0.1684
  545MOL0     C73460   6.222   3.761   0.650  0.1418 -0.1281 -0.6805
  545MOL0     C73461   6.354   3.829   0.650  0.5655 -0.0458 -0.1453
  545MOL0     C73462   6.435   3.802   0.525  0.5381  0.4038  0.0341
  545MOL0     C73463   6.526   3.670   0.517  0.2883 -0.9967  0.0794
  545MOL0     O73464   6.590   3.646   0.650 -0.4450 -0.0890 -0.3386
  545MOL0     C73465   6.724   3.668   0.649 -0.2264 -0.2621  0.7710
  545MOL0     C73466   6.805   3.598   0.560  0.3794 -0.4188  0.3148
  545MOL0     C73467   6.945   3.600   0.570  0.3880  0.2982 -0.2958
  545MOL0     C73468   7.006   3.678   0.670 -0.2722  0.2660 -0.1683
  545MOL0     C73469   7.152   3.675   0.697 -0.1381  0.0681 -0.8476
  545MOL0     O73470   7.221   3.568   0.633  0.3994  0.0749  0.0509
  545MOL0     C73471   7.355   3.556   0.643  0.3267 -0.0403  0.0744
  545MOL0     C73472   7.443   3.663   0.680 -0.2622  0.2122  0.5435
  545MOL0     C73473   7.583   3.639   0.670 -0.6074 -0.2080 -0.7211
  545MOL0     C73474   7.637   3.515   0.624  1.0584  0.4130  0.1165
  545MOL0     O73475   7.770   3.511   0.637 -0.3807  0.3247 -0.0872
  545MOL0     C73476   7.819   3.384   0.653  0.4319 -0.5130 -0.7775
  545MOL0     C73477   7.961   3.408   0.702  0.4836  0.6725 -0.4227
  545MOL0     C73478   8.036   3.273   0.693 -0.3601 -0.5595  0.1334
  545MOL0     C73479   8.188   3.296   0.753  0.2143 -0.0272  0.8266
  545MOL0     C73480   8.293   3.300   0.634 -1.1057  0.4910  0.1129
  545MOL0     C73481   8.315   3.155   0.583  0.2059  0.0070  0.3396
  545MOL0     C73482   8.411   3.166   0.473 -0.5834  0.4280 -0.4436
  545MOL0     C73483   8.549   3.143   0.531 -0.1501 -0.7003 -0.3716
  545MOL0    Cl73484   8.657   3.114   0.402 -0.6410 -0.0074  0.4679
  545MOL0     C73485   7.550   3.414   0.582 -0.4884 -0.0642 -0.0245
  545MOL0     C73486   7.415   3.435   0.588  0.3458  0.0013  1.0681
  545MOL0     O73487   7.203   3.747   0.782  0.8341  0.0871  0.2379
  545MOL0     C73488   6.920   3.760   0.756 -0.3197 -0.2673  0.8967
  545MOL0     C73489   6.783   3.753   0.737 -0.3701  0.0245 -0.2846
  545MOL0     N73490   6.034   3.936   0.608  0.4739  0.9127 -0.0362
  545MOL0     N73491   5.958   3.960   0.510  0.7304 -1.5109  0.0453
  545MOL0     C73492   5.059   3.505   0.390 -0.0489  0.2909 -0.8340
  545MOL0     C73493   5.000   3.383   0.401  0.5046 -0.2187  0.1812
  545MOL0     C73494   4.809   3.014   0.369  0.1822  0.4336 -0.8638
  545MOL0     C73495   4.873   2.887   0.376 -0.5968 -0.2802  0.0689
  545MOL0     C73496   4.806   2.771   0.410 -0.1188  0.1215  0.5205
  545MOL0     C73497   4.659   2.781   0.414 -0.9903  0.4848 -0.2090
  545MOL0     O73498   4.564   2.682   0.433  0.0025 -0.5845 -0.2955
  545MOL0     C73499   4.609   2.546   0.441  0.2269  0.1233  0.1727
  545MOL0     C73500   4.639   2.505   0.298 -0.7045 -0.6917  0.6455
  545MOL0     C73501   4.526   2.548   0.200  0.1275  0.1437 -0.0640
  545MOL0     C73502   4.555   2.496   0.071  0.6155 -0.9263 -0.5642
  545MOL0     C73503   4.452   2.549  -0.026 -0.5723  0.3861  0.0709
  545MOL0     C73504   4.384   2.589  -0.113 -0.1688 -0.0306  0.5200
  545MOL0     C73505   4.599   2.900   0.409 -0.4693  0.4637 -0.0592
  545MOL0     C73506   4.669   3.017   0.389  0.7080  0.1210 -0.1843
  545MOL0     C73507   4.590   3.141   0.403 -0.2393 -0.4513  0.4346
  545MOL0     H73508   5.265   3.186   0.305  1.0536  0.4076 -1.0793
  545MOL0     H73509   5.374   3.408   0.309 -0.1747 -0.7654  0.3272
  545MOL0     H73510   5.188   3.725   0.197 -2.9751 -0.4823  1.7954
  545MOL0     H73511   5.134   3.766   0.356 -0.0814  0.7227 -1.0846
  545MOL0     H73512   5.353   3.887   0.399  1.7189  3.3391 -1.9704
  545MOL0     H73513   5.253   3.939   0.270 -0.7060  2.0343  1.6951
  545MOL0     H73514   5.405   3.829   0.100 -1.9180  1.8164  0.1546
  545MOL0     H73515   5.484   3.748   0.242 -1.4959  0.5181  3.2394
  545MOL0     H73516   5.475   4.048   0.186 -1.7931 -1.2301 -1.7922
  545MOL0     H73517   5.577   3.978   0.313  0.0864  3.3064  0.3539
  545MOL0     H73518   5.604   3.963   0.013 -1.7121 -0.9917  0.5841
  545MOL0     H73519   5.705   4.055   0.117  3.7590 -1.4067  1.8934
  545MOL0     H73520   5.702   3.739   0.102  3.7102 -2.4741  0.5931
  545MOL0     H73521   5.826   3.842   0.060 -0.9946 -0.6824  0.2115
  545MOL0     H73522   5.866   3.707   0.248  0.7435  0.3833 -1.5290
  545MOL0     H73523   5.749   3.798   0.351  0.2401 -1.1364  0.0484
  545MOL0     H73524   5.983   3.917   0.193  0.0338  2.5845  0.6815
  545MOL0     H73525   5.863   4.001   0.295  0.5021  0.4459  0.5058
  545MOL0     H73526   6.131   3.712   0.383 -0.2822 -0.5506  0.5950
  545MOL0     H73527   6.185   3.756   0.753  1.4082 -0.2960 -0.2112
  545MOL0     H73528   6.231   3.661   0.607  0.9594 -1.5005  2.3953
  545MOL0     H73529   6.337   3.934   0.677 -0.7377 -0.2830 -0.0045
  545MOL0     H73530   6.405   3.794   0.740 -1.8818 -1.2034  0.8804
  545MOL0     H73531   6.497   3.889   0.500 -1.0811  1.1765 -1.5784
  545MOL0     H73532   6.369   3.812   0.438 -0.1192  2.0613  0.6864
  545MOL0     H73533   6.588   3.680   0.427 -0.3721 -0.0918 -0.2875
  545MOL0     H73534   6.463   3.585   0.487  1.1906 -1.2079 -1.3551
  545MOL0     H73535   6.763   3.536   0.481 -0.4456 -2.2199  2.0718
  545MOL0     H73536   7.008   3.542   0.503  1.1530  0.8572 -0.0866
  545MOL0     H73537   7.420   3.763   0.714 -0.1673  0.1825  0.6930
  545MOL0     H73538   7.656   3.715   0.697  0.8181 -1.1722 -1.7137
  545MOL0     H73539   7.753   3.331   0.722  0.4382  0.8855  0.3544
  545MOL0     H73540   7.832   3.337   0.555  2.8815  1.6095 -1.6015
  545MOL0     H73541   8.010   3.480   0.637 -0.1908  1.2220 -0.3382
  545MOL0     H73542   7.966   3.443   0.806  0.7726  1.1396 -0.5918
  545MOL0     H73543   7.984   3.194   0.748 -1.9062 -1.1684 -2.0483
  545MOL0     H73544   8.033   3.234   0.591  1.4926  1.4810 -0.7852
  545MOL0     H73545   8.206   3.210   0.818 -1.8917 -1.2867 -0.1537
  545MOL0     H73546   8.203   3.388   0.810 -0.9829  0.6181  0.1359
  545MOL0     H73547   8.384   3.345   0.675 -1.9000  1.8625  0.4222
  545MOL0     H73548   8.259   3.370   0.557 -0.6648 -1.9456 -2.4543
  545MOL0     H73549   8.333   3.078   0.659  0.4758 -0.5678 -0.2849
  545MOL0     H73550   8.222   3.122   0.536  0.6583 -0.5097 -0.2195
  545MOL0     H73551   8.406   3.263   0.424  1.3827  0.6781 -0.2532
  545MOL0     H73552   8.406   3.089   0.396  2.4328  2.0359 -2.4642
  545MOL0     H73553   8.574   3.230   0.594  0.0665  0.0166 -1.4286
  545MOL0     H73554   8.543   3.065   0.608 -1.8572  1.3082  1.7033
  545MOL0     H73555   7.571   3.311   0.554 -0.3767 -0.0047 -0.1596
  545MOL0     H73556   7.353   3.353   0.554  2.5374 -1.8708  1.3261
  545MOL0     H73557   6.967   3.812   0.839  1.8807 -5.1756  3.1746
  545MOL0     H73558   6.723   3.817   0.800  1.6490  3.4617 -1.5698
  545MOL0     H73559   4.996   3.591   0.412  2.0324  1.8099 -0.4990
  545MOL0     H73560   4.901   3.380   0.446  1.3822 -1.2452  2.1540
  545MOL0     H73561   4.977   2.864   0.358 -0.9316 -3.1234  1.2683
  545MOL0     H73562   4.859   2.677   0.422  0.8026  0.3637 -1.3083
  545MOL0     H73563   4.533   2.480   0.483  1.5911 -2.0845 -0.6635
  545MOL0     H73564   4.701   2.536   0.499  1.9251  1.8033 -2.0423
  545MOL0     H73565   4.646   2.396   0.299 -0.1482 -0.6708  0.0156
  545MOL0     H73566   4.737   2.539   0.262 -1.7829  0.9164 -0.9254
  545MOL0     H73567   4.520   2.657   0.195  3.2929  0.4715  1.0382
  545MOL0     H73568   4.431   2.506   0.234  0.5999 -2.1366 -1.3076
  545MOL0     H73569   4.656   2.525   0.043  1.4582 -1.6993  1.4866
  545MOL0     H73570   4.552   2.386   0.074  3.1107 -1.0255  1.1108
  545MOL0     H73571   4.323   2.630  -0.191 -1.2437  1.1058  1.9134
  545MOL0     H73572   4.493   2.903   0.430 -1.0148  0.0900 -2.4208
  545MOL0     H73573   4.640   3.229   0.444 -2.9190  1.4265 -0.0370
  545MOL0     H73574   4.535   3.169   0.312 -1.5255 -0.7132  1.1016
  545MOL0     H73575   4.510   3.123   0.476 -0.6073 -3.3306 -0.5551
  546MOL0     O73576   8.944   6.620   1.584 -0.0298 -0.0138 -0.5511
  546MOL0     C73577   9.004   6.533   1.648  0.5856  0.6359 -0.1151
  546MOL0     O73578   8.948   6.406   1.671  0.3109 -0.1499 -0.1954
  546MOL0     C73579   8.822   6.370   1.620 -1.4696 -0.4252 -0.7748
  546MOL0     C73580   8.815   6.256   1.545  0.3725  0.0412 -0.0887
  546MOL0     C73581   8.691   6.225   1.494 -1.3880 -0.3517 -0.2273
  546MOL0     C73582   8.572   6.302   1.507 -0.2443  0.5299 -0.4870
  546MOL0     O73583   8.448   6.263   1.463 -0.0359 -0.4597 -0.0784
  546MOL0     C73584   8.438   6.155   1.375 -0.1592 -0.2125  1.1553
  546MOL0     C73585   8.283   6.124   1.343 -0.1854 -0.7243  0.6686
  546MOL0     C73586   8.225   6.053   1.465  0.3095  0.1662  0.2724
  546MOL0     C73587   8.091   5.977   1.439 -0.1164 -0.3515 -0.4381
  546MOL0     C73588   8.022   5.941   1.575  0.8537 -0.3260  0.5305
  546MOL0     C73589   7.873   5.893   1.569 -0.6405  0.6246  0.1688
  546MOL0     C73590   7.879   5.757   1.497  0.4775  0.5971 -0.8450
  546MOL0     C73591   7.748   5.684   1.522 -0.6885 -0.0039 -0.0450
  546MOL0     N73592   7.648   5.726   1.423  0.0629 -0.0563 -0.1373
  546MOL0     C73593   7.600   5.859   1.418 -0.3861  0.5526 -0.8750
  546MOL0     C73594   7.533   5.871   1.299  0.1972 -0.3781  0.0044
  546MOL0     C73595   7.457   5.999   1.268  0.0365  0.4703  0.4709
  546MOL0     C73596   7.471   6.030   1.118  0.5039 -0.3316  0.0183
  546MOL0     C73597   7.616   6.052   1.050  0.4991 -0.9230 -1.3676
  546MOL0     C73598   7.702   5.943   0.994  0.6596  0.1092 -0.3047
  546MOL0     O73599   7.807   6.002   0.916 -0.3950  0.6620  0.0842
  546MOL0     C73600   7.942   5.976   0.940 -0.6838 -1.1770 -0.9111
  546MOL0     C73601   8.039   6.018   0.850 -0.3846  0.8673 -0.4908
  546MOL0     C73602   8.175   6.003   0.873 -0.7212  0.2834 -0.3140
  546MOL0     C73603   8.222   5.932   0.987  0.2148 -0.0582  0.2092
  546MOL0     C73604   8.370   5.912   0.999  0.4710 -0.2584 -0.0025
  546MOL0     O73605   8.445   6.001   0.925  0.4024  0.3035 -0.1200
  546MOL0     C73606   8.581   5.991   0.927 -0.1405 -0.3142  0.3324
  546MOL0     C73607   8.660   6.111   0.929 -0.7800  0.2992  0.1832
  546MOL0     C73608   8.800   6.101   0.933  0.4152  0.6245  0.4405
  546MOL0     C73609   8.868   5.980   0.919 -1.0408 -0.1697  0.9370
  546MOL0     O73610   9.005   5.983   0.923 -0.1264 -0.1872 -0.1758
  546MOL0     C73611   9.067   5.936   1.040 -0.3041  0.0124  0.3772
  546MOL0     C73612   9.191   5.859   1.002 -0.4777  0.5947  0.8599
  546MOL0     C73613   9.311   5.957   0.992  0.2036 -0.1684  0.2449
  546MOL0     C73614   9.312   6.035   0.870 -0.2373  0.0704 -0.1741
  546MOL0     C73615   9.427   6.139   0.870  0.5346  0.4563 -0.7102
  546MOL0     C73616   9.564   6.069   0.891 -0.1515 -0.3318  0.1396
  546MOL0     C73617   9.616   5.970   0.781  0.1446 -0.3126  0.7729
  546MOL0     C73618   9.765   5.929   0.793  0.0044 -0.1920  0.0987
  546MOL0    Cl73619   9.811   5.887   0.957 -0.0346 -0.4682 -0.0236
  546MOL0     C73620   8.785   5.869   0.905 -0.5862 -0.2233 -0.6932
  546MOL0     C73621   8.650   5.871   0.914 -0.2827 -0.1486  0.3516
  546MOL0     O73622   8.415   5.828   1.072  0.3086  0.4381 -0.1893
  546MOL0     C73623   8.126   5.869   1.075 -0.2124 -1.2353  0.5938
  546MOL0     C73624   7.989   5.894   1.049  0.3531 -0.4148 -0.5590
  546MOL0     N73625   7.547   5.750   1.230 -0.2483  0.6883 -1.3565
  546MOL0     N73626   7.623   5.667   1.304  1.4563 -0.5363 -0.3343
  546MOL0     C73627   8.589   6.422   1.572 -0.4756 -0.3314  0.2725
  546MOL0     C73628   8.710   6.459   1.634 -0.3014 -0.6245 -0.0537
  546MOL0     C73629   9.137   6.569   1.698 -0.2054 -0.6436  0.3438
  546MOL0     C73630   9.196   6.480   1.790 -0.6957  0.1928 -0.2622
  546MOL0     C73631   9.327   6.502   1.839  0.0397 -0.2057  0.1229
  546MOL0     C73632   9.402   6.610   1.797  0.3429 -0.0616  0.0230
  546MOL0     O73633   9.519   6.630   1.859  0.5487  0.3334 -0.2952
  546MOL0     C73634   9.599   6.756   1.832  0.2187  0.4315  0.8853
  546MOL0     C73635   9.743   6.725   1.890 -0.2533 -0.7412 -0.3151
  546MOL0     C73636   9.814   6.600   1.840 -0.3599 -0.4302  0.0116
  546MOL0     C73637   9.957   6.602   1.881  0.1981  0.6740 -0.7894
  546MOL0     C73638  10.028   6.705   1.806 -0.8580  0.3801 -0.7414
  546MOL0     C73639  10.101   6.777   1.748 -0.4190 -0.4942  0.5083
  546MOL0     C73640   9.346   6.706   1.705  0.2677  0.4290  0.0025
  546MOL0     C73641   9.219   6.681   1.642  0.7119  0.5215 -0.8746
  546MOL0     C73642   9.200   6.744   1.509  0.4428 -0.4268  1.2847
  546MOL0     H73643   8.905   6.196   1.537  1.3252  1.6103 -2.0740
  546MOL0     H73644   8.675   6.126   1.452 -0.5292 -0.7012  0.2347
  546MOL0     H73645   8.488   6.169   1.279  2.8748  0.4458  2.7291
  546MOL0     H73646   8.483   6.069   1.425 -0.1871 -0.5045  0.6858
  546MOL0     H73647   8.265   6.075   1.247  0.2786  0.4918 -0.0631
  546MOL0     H73648   8.231   6.221   1.336  0.2012 -0.4988  0.8893
  546MOL0     H73649   8.223   6.130   1.542 -0.9400  2.0120 -1.5045
  546MOL0     H73650   8.296   5.978   1.501 -1.1785 -0.3129  2.3879
  546MOL0     H73651   8.022   6.044   1.388 -2.0561 -0.0504  2.3757
  546MOL0     H73652   8.108   5.884   1.384  1.2088  0.0906 -0.8129
  546MOL0     H73653   8.090   5.866   1.616  0.6517 -0.5365  0.4825
  546MOL0     H73654   8.017   6.030   1.638 -1.5399  1.0884 -1.4261
  546MOL0     H73655   7.829   5.893   1.669  0.6450  4.2172  0.8925
  546MOL0     H73656   7.817   5.970   1.516 -0.8719  0.6044  0.3857
  546MOL0     H73657   7.955   5.693   1.543  0.7988  2.5191  1.5656
  546MOL0     H73658   7.893   5.778   1.391 -4.5897 -1.9406 -2.3078
  546MOL0     H73659   7.761   5.578   1.499 -1.6685 -0.6577  2.1926
  546MOL0     H73660   7.709   5.699   1.623 -1.7827 -1.7593 -0.1729
  546MOL0     H73661   7.618   5.935   1.493  0.3685 -0.8018  0.3787
  546MOL0     H73662   7.350   5.980   1.285 -0.3183  2.7873  1.1573
  546MOL0     H73663   7.495   6.077   1.335  1.2649 -1.1923  1.8083
  546MOL0     H73664   7.422   5.954   1.057  0.1561  0.2440 -0.4360
  546MOL0     H73665   7.417   6.123   1.097  4.3178  1.7834 -1.4578
  546MOL0     H73666   7.674   6.119   1.114 -3.3539 -0.0666  1.5948
  546MOL0     H73667   7.591   6.107   0.959 -0.7204 -0.6432 -0.8790
  546MOL0     H73668   7.635   5.886   0.929  1.3579  1.0714 -1.9245
  546MOL0     H73669   7.729   5.874   1.074  1.3348 -0.1428 -0.7343
  546MOL0     H73670   8.004   6.067   0.760 -1.6680  0.3331 -0.3078
  546MOL0     H73671   8.243   6.041   0.797  1.5438 -0.0929  1.4389
  546MOL0     H73672   8.598   6.201   0.933 -1.8105 -0.3718 -0.1805
  546MOL0     H73673   8.868   6.185   0.943  0.7004  0.2295  2.0985
  546MOL0     H73674   9.090   6.016   1.111  0.5245  0.2328 -0.1241
  546MOL0     H73675   8.999   5.864   1.086 -1.8877  0.3564 -1.2933
  546MOL0     H73676   9.211   5.794   1.087  0.6059  3.2207  2.7356
  546MOL0     H73677   9.178   5.794   0.915 -0.7734  1.7129  0.0458
  546MOL0     H73678   9.299   6.018   1.083 -3.1466 -2.3705  1.4582
  546MOL0     H73679   9.398   5.893   1.008  0.3477  0.3837  1.9138
  546MOL0     H73680   9.222   6.096   0.853  0.3490  1.5770  1.7664
  546MOL0     H73681   9.315   5.963   0.787 -2.4592  0.1510 -0.3956
  546MOL0     H73682   9.408   6.210   0.951  2.2431  1.0084 -0.7594
  546MOL0     H73683   9.436   6.195   0.777  1.2560 -0.5201 -1.2548
  546MOL0     H73684   9.633   6.154   0.896 -2.1306  1.3091  1.4546
  546MOL0     H73685   9.567   6.022   0.990  1.2221 -0.7289 -0.0774
  546MOL0     H73686   9.609   6.016   0.682 -0.3616 -0.1238  0.8912
  546MOL0     H73687   9.553   5.881   0.787 -0.4947  0.2069  2.3020
  546MOL0     H73688   9.795   5.847   0.728  3.2151  0.1563  0.9725
  546MOL0     H73689   9.832   6.010   0.763  1.1778 -0.7421  1.1571
  546MOL0     H73690   8.830   5.772   0.889 -1.2530 -0.3439 -1.9778
  546MOL0     H73691   8.602   5.773   0.922  1.7617 -1.6785 -3.4881
  546MOL0     H73692   8.152   5.806   1.159  1.8826  0.6688  1.4693
  546MOL0     H73693   7.924   5.840   1.116 -0.1841 -0.3385 -1.0051
  546MOL0     H73694   8.506   6.492   1.580  0.7542  1.1350  0.9099
  546MOL0     H73695   8.712   6.548   1.697  0.2212 -2.3945  2.5659
  546MOL0     H73696   9.134   6.402   1.832  0.4982 -0.2872  0.6617
  546MOL0     H73697   9.364   6.432   1.913 -0.5763  0.3179  0.9383
  546MOL0     H73698   9.548   6.839   1.881 -2.6244 -2.0549  2.5295
  546MOL0     H73699   9.600   6.767   1.723  2.9398 -0.2672  0.7612
  546MOL0     H73700   9.740   6.733   1.999 -0.8102  2.5375 -0.4509
  546MOL0     H73701   9.805   6.815   1.881  2.0805 -2.3060 -0.8255
  546MOL0     H73702   9.809   6.581   1.732  2.4517  0.2433 -0.3368
  546MOL0     H73703   9.767   6.515   1.890  0.9599  1.0390  4.2253
  546MOL0     H73704   9.962   6.633   1.985 -0.4394  1.7181 -1.0538
  546MOL0     H73705  10.018   6.513   1.863  1.8787  1.9724 -1.8375
  546MOL0     H73706  10.163   6.850   1.699  0.4678 -2.3119 -1.2136
  546MOL0     H73707   9.406   6.789   1.671  0.8883 -0.1583 -0.3559
  546MOL0     H73708   9.294   6.773   1.461 -0.9493  0.3372 -1.1570
  546MOL0     H73709   9.156   6.668   1.444 -1.9975  1.2827  0.7684
  546MOL0     H73710   9.127   6.826   1.513 -1.6033 -1.9948 -0.7357
  547MOL0     O73711   7.600   0.412   4.374 -0.1854 -0.3293 -0.6643
  547MOL0     C73712   7.583   0.512   4.305  0.9851  0.1127 -0.0078
  547MOL0     O73713   7.674   0.603   4.283 -0.8566  0.0131 -0.5406
  547MOL0     C73714   7.787   0.595   4.358 -0.1556 -0.0831 -0.3684
  547MOL0     C73715   7.894   0.514   4.308  0.2576 -0.5496  1.4146
  547MOL0     C73716   8.020   0.524   4.363  0.2982 -0.5710 -0.0232
  547MOL0     C73717   8.045   0.591   4.482 -0.4163  0.0644 -0.1629
  547MOL0     O73718   8.174   0.599   4.523 -0.3875 -0.3370 -0.2243
  547MOL0     C73719   8.192   0.676   4.649  0.4304 -0.0984  0.2144
  547MOL0     C73720   8.345   0.676   4.681 -0.0110  0.0800  0.1674
  547MOL0     C73721   8.369   0.728   4.826  0.0499  0.5158  0.2683
  547MOL0     C73722   8.520   0.720   4.871 -0.3420  0.7342  0.1063
  547MOL0     C73723   8.629   0.789   4.786  0.1410 -0.0190 -0.2165
  547MOL0     C73724   8.588   0.940   4.772  0.7708  0.5809  0.1846
  547MOL0     C73725   8.656   1.021   4.666  0.1615  0.9406  0.2454
  547MOL0     C73726   8.588   1.155   4.646 -0.0478 -0.1371  0.2979
  547MOL0     N73727   8.668   1.224   4.538  0.2506 -0.4837 -0.9248
  547MOL0     C73728   8.632   1.214   4.412  0.1954 -0.5070  0.4597
  547MOL0     C73729   8.727   1.296   4.357 -0.2251 -0.2231 -0.3989
  547MOL0     C73730   8.744   1.350   4.215 -0.3680  0.1347 -0.0755
  547MOL0     C73731   8.866   1.306   4.128 -0.0580 -0.9109 -0.0062
  547MOL0     C73732   8.900   1.156   4.130  0.3541  0.3426 -0.7162
  547MOL0     C73733   9.024   1.128   4.062 -0.0293 -0.9861  0.1947
  547MOL0     O73734   9.040   0.997   4.033  0.4883 -0.1622 -0.5855
  547MOL0     C73735   9.171   0.949   4.019 -0.4357 -0.1274 -0.0811
  547MOL0     C73736   9.192   0.812   4.019 -0.2995  0.0765  0.5651
  547MOL0     C73737   9.314   0.759   3.981 -1.2743 -0.1430 -0.1276
  547MOL0     C73738   9.428   0.843   3.948  0.2174  0.2618  1.0440
  547MOL0     C73739   9.559   0.785   3.911  0.0303 -0.0892 -0.5294
  547MOL0     O73740   9.643   0.882   3.865 -0.2956 -0.1661  0.4723
  547MOL0     C73741   9.778   0.843   3.870 -0.2921 -0.2587  0.6824
  547MOL0     C73742   9.842   0.813   3.751  0.3151  0.4600 -0.7640
  547MOL0     C73743   9.982   0.783   3.753  0.1007  0.2459 -0.9664
  547MOL0     C73744  10.056   0.790   3.873 -0.1902  0.9496 -0.6246
  547MOL0     O73745  10.196   0.774   3.884 -0.5119  0.5010 -0.0294
  547MOL0     C73746  10.286   0.848   3.799  0.2076  0.6805  0.4842
  547MOL0     C73747  10.418   0.851   3.864 -0.1111 -0.8875 -0.1173
  547MOL0     C73748  10.499   0.723   3.830 -1.0378  0.0619  0.0103
  547MOL0     C73749  10.632   0.727   3.904 -0.0200 -0.4011 -0.1478
  547MOL0     C73750  10.735   0.828   3.844 -0.6031 -0.3109 -0.1553
  547MOL0     C73751  10.882   0.801   3.888  0.4272  0.6081  0.0090
  547MOL0     C73752  10.963   0.774   3.766  0.5599 -0.2284 -0.0363
  547MOL0     C73753  11.105   0.750   3.821 -0.1308 -0.4109  0.5153
  547MOL0    Cl73754  11.210   0.753   3.675 -0.0007 -0.0456  0.3407
  547MOL0     C73755   9.992   0.819   3.989 -0.0420  0.5204  0.3683
  547MOL0     C73756   9.849   0.844   3.989  0.6295  0.0416  0.2530
  547MOL0     O73757   9.591   0.672   3.952 -0.0402  0.1401 -0.1965
  547MOL0     C73758   9.407   0.983   3.945 -0.1862  0.3698  0.3181
  547MOL0     C73759   9.283   1.033   3.978 -0.4304  0.7668  0.1905
  547MOL0     N73760   8.818   1.341   4.451  0.1629  0.0695  0.8842
  547MOL0     N73761   8.775   1.298   4.568  0.0613  0.1377 -0.0100
  547MOL0     C73762   7.935   0.658   4.545 -0.0832  0.6549 -0.2493
  547MOL0     C73763   7.812   0.660   4.476  0.4786 -0.8998 -0.9075
  547MOL0     C73764   7.442   0.539   4.249 -0.3378 -0.6111 -0.7079
  547MOL0     C73765   7.367   0.429   4.197 -1.1654 -0.1682  0.4838
  547MOL0     C73766   7.235   0.452   4.141 -0.1070  0.0661 -0.2947
  547MOL0     C73767   7.179   0.578   4.130  0.2953 -1.2796  0.8632
  547MOL0     O73768   7.061   0.604   4.066  0.6285  0.8615  0.4538
  547MOL0     C73769   6.943   0.533   4.108  0.1713  0.3515  0.0392
  547MOL0     C73770   6.824   0.587   4.029  0.1503 -0.6881  0.4966
  547MOL0     C73771   6.719   0.483   4.023 -0.0429  0.1224 -0.2009
  547MOL0     C73772   6.593   0.544   3.956  0.0367  0.2971  0.0017
  547MOL0     C73773   6.615   0.579   3.816 -0.8827 -0.3514  0.5210
  547MOL0     C73774   6.640   0.604   3.702 -0.3547 -1.3189  0.0623
  547MOL0     C73775   7.253   0.682   4.177 -0.2244  0.7883  0.8713
  547MOL0     C73776   7.382   0.668   4.237  0.1033 -0.1133  1.0041
  547MOL0     C73777   7.456   0.787   4.290  0.4987 -0.6076 -0.0476
  547MOL0     H73778   7.881   0.460   4.214  5.1040  1.3941 -0.7542
  547MOL0     H73779   8.113   0.492   4.318  2.6137  3.0249  1.7355
  547MOL0     H73780   8.155   0.778   4.651 -0.1162 -0.2978  0.4396
  547MOL0     H73781   8.146   0.621   4.732  1.4157 -1.8574 -0.3460
  547MOL0     H73782   8.397   0.745   4.614  0.4970  0.3263  0.8049
  547MOL0     H73783   8.385   0.575   4.691 -0.3390  0.1918  6.1977
  547MOL0     H73784   8.324   0.657   4.896  1.5229 -1.1572 -0.4045
  547MOL0     H73785   8.323   0.826   4.838 -2.0466 -0.2581 -0.8249
  547MOL0     H73786   8.527   0.758   4.974  2.4877  1.9173 -0.4449
  547MOL0     H73787   8.542   0.614   4.890 -3.8483 -0.1846 -0.2473
  547MOL0     H73788   8.721   0.782   4.844 -1.6367  0.6529  2.9609
  547MOL0     H73789   8.642   0.739   4.690  3.8823 -0.5118  0.3982
  547MOL0     H73790   8.482   0.934   4.749  0.2100  1.3183  2.3031
  547MOL0     H73791   8.604   0.978   4.874 -0.4596 -1.1477  1.0709
  547MOL0     H73792   8.657   0.963   4.573 -2.6632  1.4633 -0.1924
  547MOL0     H73793   8.761   1.034   4.697  0.4345 -2.2873  0.9869
  547MOL0     H73794   8.481   1.152   4.626  0.1188  0.0425 -0.6809
  547MOL0     H73795   8.597   1.211   4.740  0.4889  0.8035 -0.2931
  547MOL0     H73796   8.550   1.161   4.366  0.1420 -0.0548  0.0217
  547MOL0     H73797   8.654   1.327   4.158 -2.7291  0.4907  3.2188
  547MOL0     H73798   8.742   1.459   4.221 -0.7564  0.1756 -0.8337
  547MOL0     H73799   8.849   1.338   4.025 -0.1833  0.6830  0.4850
  547MOL0     H73800   8.960   1.353   4.159  0.2689 -1.6391  0.1370
  547MOL0     H73801   8.818   1.101   4.084  0.5230  0.0588 -0.6831
  547MOL0     H73802   8.917   1.127   4.234 -0.9644  0.8800 -0.3390
  547MOL0     H73803   9.108   1.174   4.115 -1.5416 -0.9910  2.7963
  547MOL0     H73804   9.019   1.179   3.965 -3.2975  1.4729  1.4698
  547MOL0     H73805   9.116   0.736   4.030  1.7064 -1.8453  2.0234
  547MOL0     H73806   9.312   0.650   3.981 -1.2753 -0.1448  0.5888
  547MOL0     H73807   9.794   0.825   3.655  0.4385  0.0940 -0.8719
  547MOL0     H73808  10.039   0.759   3.664  1.6884  1.3312 -0.3052
  547MOL0     H73809  10.292   0.800   3.701 -1.3245  2.1580 -0.3959
  547MOL0     H73810  10.251   0.951   3.790 -1.1802  0.0554 -2.3868
  547MOL0     H73811  10.468   0.941   3.825  0.5465 -0.0850  2.3794
  547MOL0     H73812  10.413   0.862   3.973  0.4625  0.9417 -0.2281
  547MOL0     H73813  10.439   0.633   3.845  1.0805 -1.1940  1.5022
  547MOL0     H73814  10.527   0.719   3.725  1.8945 -1.4960  0.7293
  547MOL0     H73815  10.676   0.627   3.892 -2.8412 -1.8207  0.4965
  547MOL0     H73816  10.613   0.749   4.009 -3.2220 -2.7810 -0.0698
  547MOL0     H73817  10.716   0.932   3.875 -0.4226  0.6885 -3.0385
  547MOL0     H73818  10.726   0.829   3.735  1.4356 -1.2030 -0.3749
  547MOL0     H73819  10.920   0.880   3.953 -0.7614 -1.0148  2.9161
  547MOL0     H73820  10.888   0.710   3.949  1.0982  1.6826  1.6265
  547MOL0     H73821  10.956   0.853   3.691 -1.7285  0.7242  1.0858
  547MOL0     H73822  10.928   0.680   3.722  4.1794 -2.1644  0.7991
  547MOL0     H73823  11.149   0.823   3.890  2.3630 -2.0081  0.7549
  547MOL0     H73824  11.101   0.651   3.869  1.2426 -1.1976 -0.9045
  547MOL0     H73825  10.044   0.833   4.083  1.0213  1.5156 -0.3282
  547MOL0     H73826   9.792   0.864   4.079 -1.2365  1.6665 -1.1674
  547MOL0     H73827   9.481   1.054   3.910 -0.2705  0.5590  0.5237
  547MOL0     H73828   9.272   1.141   3.977  0.7065  0.8939 -1.2199
  547MOL0     H73829   7.944   0.716   4.637 -1.8732  1.1227 -0.3234
  547MOL0     H73830   7.746   0.732   4.523  1.2294 -1.1538  0.5985
  547MOL0     H73831   7.398   0.326   4.212  0.0585  0.0950 -0.1122
  547MOL0     H73832   7.170   0.367   4.123  0.2094  0.0948 -1.6456
  547MOL0     H73833   6.933   0.516   4.216  1.0095  1.1555  0.2547
  547MOL0     H73834   6.960   0.436   4.061 -0.4528  0.2328  0.0465
  547MOL0     H73835   6.863   0.604   3.929 -1.7984  0.9464 -0.0420
  547MOL0     H73836   6.784   0.675   4.080 -0.3362 -0.4876 -0.2224
  547MOL0     H73837   6.695   0.436   4.118 -1.5399 -0.7586 -0.9910
  547MOL0     H73838   6.749   0.397   3.962 -0.1158  0.3336 -0.5395
  547MOL0     H73839   6.513   0.471   3.972 -0.0257  0.6405  1.3524
  547MOL0     H73840   6.567   0.633   4.013  0.4309  0.3041  0.1786
  547MOL0     H73841   6.652   0.623   3.598  1.0594  0.7214  0.5538
  547MOL0     H73842   7.219   0.782   4.153  0.7304  1.0441  0.5492
  547MOL0     H73843   7.492   0.766   4.391  0.1973  0.3006  0.2610
  547MOL0     H73844   7.540   0.820   4.228 -0.0758 -1.7110 -1.4917
  547MOL0     H73845   7.391   0.874   4.306 -0.1047 -0.3730 -3.1242
  548MOL0     O73846   0.116  11.161   4.437  0.5041 -0.3394  0.1910
  548MOL0     C73847   0.202  11.077   4.428 -0.5830  0.1662 -0.1428
  548MOL0     O73848   0.184  10.949   4.375  0.2780  0.1681  0.2381
  548MOL0     C73849   0.060  10.911   4.339  1.2084  0.3097  0.1207
  548MOL0     C73850  -0.054  10.935   4.408  0.0062  0.4045 -0.9980
  548MOL0     C73851  -0.186  10.921   4.353  0.7903  0.0614  0.2366
  548MOL0     C73852  -0.191  10.862   4.221  0.5115 -0.4410 -0.4841
  548MOL0     O73853  -0.308  10.829   4.154  0.7263 -0.5160 -0.3446
  548MOL0     C73854  -0.424  10.906   4.169  0.1428 -0.3984  0.4669
  548MOL0     C73855  -0.541  10.821   4.150  1.4827  0.2275  0.5228
  548MOL0     C73856  -0.681  10.885   4.153 -0.4118 -0.6956 -0.3583
  548MOL0     C73857  -0.797  10.801   4.095  0.1682  0.1061 -0.1411
  548MOL0     C73858  -0.929  10.881   4.093 -0.0622  0.2759 -0.5046
  548MOL0     C73859  -1.047  10.784   4.114 -0.3280  0.0959 -0.0963
  548MOL0     C73860  -1.185  10.853   4.113 -0.1249  0.1381 -0.3067
  548MOL0     C73861  -1.250  10.849   3.976  0.1435 -0.7198  0.9123
  548MOL0     N73862  -1.187  10.947   3.887 -0.2674  0.1802  0.2993
  548MOL0     C73863  -1.116  10.906   3.778 -0.4780 -0.1727  0.0058
  548MOL0     C73864  -1.068  11.018   3.725 -0.2421  0.2980  1.3708
  548MOL0     C73865  -0.964  11.018   3.621 -0.4511  0.1551 -0.2840
  548MOL0     C73866  -0.823  10.975   3.668  0.9807  0.8113  0.1388
  548MOL0     C73867  -0.769  11.071   3.769 -1.0002 -0.2410 -1.0551
  548MOL0     C73868  -0.613  11.089   3.776  0.0789 -0.1827  0.6236
  548MOL0     O73869  -0.547  10.958   3.765  0.4171  0.1696 -0.0722
  548MOL0     C73870  -0.413  10.954   3.748  0.0453 -0.4815 -0.2832
  548MOL0     C73871  -0.355  10.839   3.792 -0.5235 -0.5618 -0.5982
  548MOL0     C73872  -0.215  10.817   3.786  0.2836  0.2385  0.4783
  548MOL0     C73873  -0.121  10.916   3.737  0.2852 -0.0369 -0.1175
  548MOL0     C73874   0.023  10.899   3.735 -0.3306  0.5492 -0.1714
  548MOL0     O73875   0.075  10.789   3.803  0.4119 -1.0039  0.2663
  548MOL0     C73876   0.215  10.782   3.797  0.1334 -0.1888 -0.1301
  548MOL0     C73877   0.285  10.756   3.669  0.9749 -0.2500 -0.1211
  548MOL0     C73878   0.422  10.726   3.665  0.2528 -0.5375 -0.6419
  548MOL0     C73879   0.495  10.722   3.783  0.1111 -0.2406 -0.5679
  548MOL0     O73880   0.631  10.695   3.788  0.7658  0.5098 -0.5315
  548MOL0     C73881   0.701  10.620   3.692 -0.6294  0.5322  0.9465
  548MOL0     C73882   0.845  10.599   3.729 -0.6236  1.3748  0.2311
  548MOL0     C73883   0.946  10.690   3.661 -0.2088 -0.2464  0.7047
  548MOL0     C73884   0.944  10.834   3.700  0.1649  0.6315 -0.8961
  548MOL0     C73885   1.044  10.922   3.620  0.3143 -0.3045  0.7285
  548MOL0     C73886   1.189  10.879   3.625 -0.2811  0.5388  0.6424
  548MOL0     C73887   1.252  10.880   3.764 -0.0941 -1.3485 -0.0880
  548MOL0     C73888   1.302  11.019   3.817 -0.3523  0.0509 -1.1939
  548MOL0    Cl73889   1.434  10.988   3.933  0.0339 -0.1413 -0.1714
  548MOL0     C73890   0.433  10.754   3.905  0.5066 -0.6549  0.2105
  548MOL0     C73891   0.290  10.762   3.912 -0.4001  0.3863 -0.9347
  548MOL0     O73892   0.087  10.980   3.670 -0.1711  0.6256  0.2104
  548MOL0     C73893  -0.184  11.037   3.687 -0.2526  1.2097 -0.4106
  548MOL0     C73894  -0.332  11.060   3.700 -0.0754 -0.7875  0.0013
  548MOL0     N73895  -1.113  11.131   3.785 -0.4102 -0.3183 -0.4079
  548MOL0     N73896  -1.179  11.089   3.898  0.0703 -0.5689  0.5246
  548MOL0     C73897  -0.073  10.805   4.169  1.0459 -0.0975  0.8672
  548MOL0     C73898   0.046  10.837   4.230 -0.4942 -0.1702 -0.1496
  548MOL0     C73899   0.351  11.118   4.448  0.2422  0.1508  0.7555
  548MOL0     C73900   0.450  11.017   4.439  0.1742  0.3510  0.4738
  548MOL0     C73901   0.587  11.043   4.442 -0.2293  0.2176 -0.0208
  548MOL0     C73902   0.624  11.176   4.461  0.4187 -1.4103 -0.4195
  548MOL0     O73903   0.759  11.224   4.461  0.1288 -0.5514 -0.2234
  548MOL0     C73904   0.861  11.139   4.419 -0.0556  0.1281 -0.7315
  548MOL0     C73905   0.991  11.215   4.399 -0.9584 -0.1979 -0.1514
  548MOL0     C73906   1.116  11.130   4.372 -0.1440 -0.5301 -0.1370
  548MOL0     C73907   1.252  11.208   4.353 -0.3873 -0.2817 -0.5513
  548MOL0     C73908   1.239  11.306   4.245  0.6514 -0.9583 -0.0913
  548MOL0     C73909   1.217  11.377   4.148 -0.8059 -1.0838  0.1394
  548MOL0     C73910   0.529  11.271   4.486 -0.5611  0.1680  0.0958
  548MOL0     C73911   0.392  11.247   4.477  0.2031 -0.1239  0.2018
  548MOL0     C73912   0.296  11.365   4.484  1.1468  0.2175 -0.8355
  548MOL0     H73913  -0.055  10.978   4.507 -1.7644 -0.8890 -0.4133
  548MOL0     H73914  -0.274  10.955   4.406  1.3181  0.1943  1.0434
  548MOL0     H73915  -0.430  10.968   4.259  0.1299  1.3329 -0.6686
  548MOL0     H73916  -0.428  10.985   4.093  1.2184  1.0793  1.8675
  548MOL0     H73917  -0.556  10.743   4.226 -0.9615  0.2529  0.1410
  548MOL0     H73918  -0.545  10.767   4.055 -1.2272 -0.4834  0.9404
  548MOL0     H73919  -0.676  10.977   4.094 -0.4307  0.5038  1.4056
  548MOL0     H73920  -0.704  10.914   4.256 -0.5698  0.1097 -0.6110
  548MOL0     H73921  -0.770  10.785   3.990  2.0760  0.8968  0.1956
  548MOL0     H73922  -0.809  10.709   4.153  1.7931 -0.2437 -0.3095
  548MOL0     H73923  -0.938  10.951   4.176  1.5662  2.0356 -1.7518
  548MOL0     H73924  -0.947  10.936   4.000  2.0812 -2.0166 -2.4170
  548MOL0     H73925  -1.039  10.719   4.026  0.7812  3.9437 -3.1361
  548MOL0     H73926  -1.026  10.721   4.201  2.1518 -1.7182 -1.8662
  548MOL0     H73927  -1.173  10.952   4.157 -0.8094  1.1090 -2.2382
  548MOL0     H73928  -1.251  10.799   4.182 -1.4374  0.4915 -1.2606
  548MOL0     H73929  -1.250  10.747   3.936 -1.8176 -0.4962  0.2706
  548MOL0     H73930  -1.354  10.876   3.991 -0.4064 -1.6309 -0.9165
  548MOL0     H73931  -1.105  10.804   3.745 -2.8491 -1.4475  2.7632
  548MOL0     H73932  -1.005  10.948   3.548 -1.5790 -1.0356  1.4203
  548MOL0     H73933  -0.954  11.112   3.567  0.2240  0.2596  0.0051
  548MOL0     H73934  -0.813  10.870   3.695 -2.0859  0.8294  1.8004
  548MOL0     H73935  -0.748  10.972   3.588 -0.9599  2.1313 -1.8369
  548MOL0     H73936  -0.810  11.045   3.867 -1.2674 -0.6490 -1.2767
  548MOL0     H73937  -0.807  11.170   3.741 -1.6835 -0.6342 -1.5232
  548MOL0     H73938  -0.580  11.149   3.862  0.6161  2.4566 -1.2967
  548MOL0     H73939  -0.582  11.151   3.692 -1.8647 -0.3397 -0.2564
  548MOL0     H73940  -0.419  10.760   3.829  0.0871 -0.7957 -0.0320
  548MOL0     H73941  -0.176  10.719   3.812  1.6887  0.5669 -0.2963
  548MOL0     H73942   0.231  10.775   3.577 -1.3026 -1.9951  0.7669
  548MOL0     H73943   0.462  10.717   3.564 -0.0825  0.2994 -0.8587
  548MOL0     H73944   0.659  10.519   3.692 -1.0778  0.7107  1.8303
  548MOL0     H73945   0.689  10.660   3.590 -0.4315  0.5360  0.9256
  548MOL0     H73946   0.853  10.617   3.836 -3.6705 -1.4114  1.0917
  548MOL0     H73947   0.866  10.495   3.701  2.0032  2.3844 -2.0116
  548MOL0     H73948   1.048  10.654   3.674  0.1916  0.0666 -1.3499
  548MOL0     H73949   0.920  10.680   3.556 -2.8790  0.9415  1.1598
  548MOL0     H73950   0.967  10.829   3.806 -2.2155 -4.9194 -0.2599
  548MOL0     H73951   0.839  10.861   3.687 -1.7481 -4.3858  1.4612
  548MOL0     H73952   1.037  11.025   3.657 -1.6559  0.0177 -0.4459
  548MOL0     H73953   1.009  10.910   3.518 -0.7574 -2.7987  1.3345
  548MOL0     H73954   1.195  10.784   3.572 -1.4697  0.8375 -0.0405
  548MOL0     H73955   1.238  10.959   3.568 -1.3967  2.9950  2.8824
  548MOL0     H73956   1.328  10.803   3.780  0.4223 -0.3954  2.4473
  548MOL0     H73957   1.178  10.834   3.831 -0.5272  0.9052  1.0671
  548MOL0     H73958   1.344  11.073   3.732  1.9273 -1.5461 -1.1697
  548MOL0     H73959   1.215  11.068   3.863  0.9791  2.5466 -1.2097
  548MOL0     H73960   0.485  10.774   3.998  1.4865 -0.1657 -0.4302
  548MOL0     H73961   0.238  10.754   4.007  2.6503 -2.7901  0.7050
  548MOL0     H73962  -0.121  11.114   3.645  3.6293 -1.8389 -0.8149
  548MOL0     H73963  -0.382  11.152   3.669 -0.0316 -1.2461 -1.5189
  548MOL0     H73964  -0.065  10.739   4.084 -3.4488  1.3025 -0.9305
  548MOL0     H73965   0.139  10.803   4.186 -0.5333 -0.1683 -0.2339
  548MOL0     H73966   0.426  10.913   4.420  1.3458 -0.2152  1.8680
  548MOL0     H73967   0.668  10.970   4.440 -0.8565 -0.4763 -1.1721
  548MOL0     H73968   0.848  11.094   4.320 -2.1692 -0.3817 -0.2633
  548MOL0     H73969   0.880  11.061   4.494 -1.2516 -0.1719 -0.7305
  548MOL0     H73970   1.003  11.269   4.494 -2.1648  0.4212 -0.3344
  548MOL0     H73971   0.979  11.287   4.318 -0.9610  0.4315  0.3967
  548MOL0     H73972   1.103  11.069   4.282  0.7275 -1.4833  0.3638
  548MOL0     H73973   1.131  11.056   4.451  1.0638 -0.7156 -0.5256
  548MOL0     H73974   1.269  11.271   4.441 -1.5679 -0.0444 -0.4672
  548MOL0     H73975   1.330  11.134   4.337 -0.5057 -0.4963 -0.1525
  548MOL0     H73976   1.183  11.432   4.063 -1.5242  0.8268  1.6123
  548MOL0     H73977   0.566  11.372   4.503 -1.5022  0.7305 -1.0656
  548MOL0     H73978   0.249  11.379   4.386 -0.9995 -3.2436 -0.4920
  548MOL0     H73979   0.217  11.350   4.559  2.2947 -0.3361  0.2971
  548MOL0     H73980   0.359  11.450   4.509 -0.1493  0.9114  0.2106
  549MOL0     O73981   9.857   0.608   8.710 -0.3996  0.2742 -0.1045
  549MOL0     C73982   9.783   0.661   8.792  0.1869  0.5856  0.3243
  549MOL0     O73983   9.718   0.780   8.766 -0.2843 -0.6048  0.3053
  549MOL0     C73984   9.762   0.849   8.661 -0.4246 -0.2515 -0.2405
  549MOL0     C73985   9.840   0.963   8.675  0.7119 -0.3095 -0.3093
  549MOL0     C73986   9.880   1.038   8.569 -0.2801  0.0610  0.2139
  549MOL0     C73987   9.837   1.010   8.438  0.0930 -0.5072  0.3117
  549MOL0     O73988   9.858   1.084   8.324 -0.5554  0.1576  0.4795
  549MOL0     C73989  10.000   1.116   8.290 -0.2287  0.4058 -0.7823
  549MOL0     C73990  10.004   1.263   8.238  0.1323  1.2916 -0.0458
  549MOL0     C73991  10.133   1.293   8.165  0.3844  0.5872  0.2519
  549MOL0     C73992  10.141   1.439   8.134  0.0027  0.2657 -0.6274
  549MOL0     C73993  10.283   1.488   8.117  0.2486  0.3850 -0.4344
  549MOL0     C73994  10.364   1.431   8.003 -0.4825  0.4269 -0.0374
  549MOL0     C73995  10.509   1.444   8.013  0.4758  0.2181 -0.5290
  549MOL0     C73996  10.561   1.584   8.035  0.0217 -0.8137  0.3295
  549MOL0     N73997  10.713   1.598   8.033  0.6066 -0.0214 -0.5318
  549MOL0     C73998  10.797   1.587   7.922  0.3852  0.0719  0.0696
  549MOL0     C73999  10.916   1.579   7.969 -1.4606 -0.0095  0.7201
  549MOL0     C74000  11.043   1.587   7.879  0.1739 -0.0529 -0.4916
  549MOL0     C74001  11.167   1.671   7.926 -0.4158 -0.8234 -0.7102
  549MOL0     C74002  11.135   1.816   7.945  0.3884  0.7710 -0.2456
  549MOL0     C74003  11.251   1.913   7.978 -0.1533  0.3681 -0.0932
  549MOL0     O74004  11.289   1.882   8.116 -0.1246  0.2513  0.2707
  549MOL0     C74005  11.423   1.896   8.149 -0.4075 -0.3019  0.6771
  549MOL0     C74006  11.517   1.984   8.081 -0.2912 -0.3639 -0.6264
  549MOL0     C74007  11.651   1.987   8.127 -0.7240 -0.2259 -0.4186
  549MOL0     C74008  11.692   1.916   8.244 -0.1955 -0.2063  0.3075
  549MOL0     C74009  11.828   1.919   8.289 -0.7248  0.2252 -0.0258
  549MOL0     O74010  11.855   1.863   8.417  0.1207  0.4681  0.0880
  549MOL0     C74011  11.989   1.838   8.443 -0.2252  1.4804  0.4560
  549MOL0     C74012  12.021   1.850   8.573  0.4372  0.4137 -0.8074
  549MOL0     C74013  12.148   1.832   8.623 -0.0096  0.3014 -0.1901
  549MOL0     C74014  12.238   1.772   8.537 -0.1041  0.3702  0.7217
  549MOL0     O74015  12.364   1.750   8.579  0.2552 -0.2184  0.3278
  549MOL0     C74016  12.385   1.664   8.689  0.4554 -0.1903 -0.7961
  549MOL0     C74017  12.527   1.623   8.687 -0.7162  0.4410 -1.0112
  549MOL0     C74018  12.629   1.727   8.725 -0.0731 -0.2205  0.2808
  549MOL0     C74019  12.759   1.644   8.716 -0.1964  0.2738 -0.2008
  549MOL0     C74020  12.889   1.720   8.736  0.2410 -0.0280 -0.0509
  549MOL0     C74021  13.017   1.638   8.712  0.8388 -0.2296 -0.0437
  549MOL0     C74022  13.129   1.708   8.769  0.0434 -0.1746  0.0455
  549MOL0     C74023  13.183   1.822   8.680  0.7082  0.3269 -0.3471
  549MOL0    Cl74024  13.342   1.902   8.720 -0.4310  0.2699 -0.5492
  549MOL0     C74025  12.203   1.737   8.403  0.0599  0.0394  0.7067
  549MOL0     C74026  12.077   1.769   8.354 -0.0840 -0.1804  0.4218
  549MOL0     O74027  11.908   1.961   8.215 -1.0955 -0.3939  0.0181
  549MOL0     C74028  11.602   1.825   8.300  0.5313 -0.3589  0.0462
  549MOL0     C74029  11.471   1.811   8.250 -0.3603  0.0138  0.1724
  549MOL0     N74030  10.911   1.568   8.111  0.5039 -0.4570  0.8857
  549MOL0     N74031  10.785   1.581   8.140 -0.4732  0.1467 -0.5099
  549MOL0     C74032   9.756   0.894   8.427  0.5814 -0.4325  0.2621
  549MOL0     C74033   9.717   0.814   8.536 -0.0438  0.5623  0.5300
  549MOL0     C74034   9.727   0.578   8.898  0.7466 -1.1444  0.9998
  549MOL0     C74035   9.601   0.624   8.948 -0.3854 -0.8921  0.5181
  549MOL0     C74036   9.524   0.543   9.031  0.5935  0.7668 -0.3430
  549MOL0     C74037   9.566   0.416   9.058  0.4995 -0.1057 -0.0391
  549MOL0     O74038   9.489   0.346   9.144 -0.0152 -0.0260 -0.1754
  549MOL0     C74039   9.498   0.204   9.154  0.4570 -0.2835  0.0215
  549MOL0     C74040   9.361   0.146   9.174  0.6811 -0.0839  0.3457
  549MOL0     C74041   9.278   0.206   9.289  0.0729 -0.6030  0.4822
  549MOL0     C74042   9.128   0.185   9.279  1.3925 -0.1555 -0.1018
  549MOL0     C74043   9.058   0.194   9.405 -0.0962  0.0221 -0.9390
  549MOL0     C74044   8.986   0.204   9.502  0.1586 -0.0464 -0.3169
  549MOL0     C74045   9.698   0.376   9.028  0.7454 -0.3151 -0.0745
  549MOL0     C74046   9.774   0.454   8.938 -0.7632  0.1167 -0.2254
  549MOL0     C74047   9.910   0.398   8.923  0.9730  0.6807  0.2092
  549MOL0     H74048   9.876   0.981   8.776 -4.0129  2.8256  1.1362
  549MOL0     H74049   9.929   1.135   8.579 -2.3779  1.1996  0.1674
  549MOL0     H74050  10.061   1.093   8.379 -1.0269 -0.9672 -0.5495
  549MOL0     H74051  10.038   1.049   8.212  1.8003  0.1650  0.3257
  549MOL0     H74052   9.998   1.330   8.324 -1.5550 -1.2674  1.9929
  549MOL0     H74053   9.924   1.270   8.164 -0.1917  0.6926  0.2389
  549MOL0     H74054  10.138   1.232   8.075  1.1183  0.7608  0.1693
  549MOL0     H74055  10.207   1.267   8.242 -0.0303 -0.1118  0.4194
  549MOL0     H74056  10.086   1.453   8.041  0.0813 -1.3723 -0.9548
  549MOL0     H74057  10.094   1.502   8.209  2.3493  2.3614 -0.8157
  549MOL0     H74058  10.283   1.595   8.136 -2.0838  0.0693  1.9420
  549MOL0     H74059  10.325   1.443   8.208 -0.4283  0.8983  0.1443
  549MOL0     H74060  10.345   1.325   7.982 -0.6460  0.2193  1.1231
  549MOL0     H74061  10.321   1.483   7.916 -1.9484 -1.3287 -0.4387
  549MOL0     H74062  10.552   1.404   7.921 -1.2558  0.5031 -1.4928
  549MOL0     H74063  10.548   1.390   8.100  2.3509  2.6186  0.2407
  549MOL0     H74064  10.526   1.654   7.958  3.2787  0.0620 -0.5197
  549MOL0     H74065  10.526   1.620   8.132 -2.3005 -1.0704 -0.3484
  549MOL0     H74066  10.773   1.598   7.817  1.2236 -1.4803 -0.3171
  549MOL0     H74067  11.083   1.485   7.873 -1.2018 -0.6671  0.3813
  549MOL0     H74068  11.008   1.615   7.779 -0.0706 -0.3160 -0.4810
  549MOL0     H74069  11.216   1.641   8.019  0.3197  0.9939 -0.4716
  549MOL0     H74070  11.238   1.659   7.844  0.7917 -1.9743  0.4664
  549MOL0     H74071  11.068   1.828   8.031  3.6056 -1.9207  2.9962
  549MOL0     H74072  11.089   1.850   7.852 -0.5648  2.4178  0.7786
  549MOL0     H74073  11.217   2.016   7.961 -1.8114  0.0735  1.1191
  549MOL0     H74074  11.333   1.902   7.907  0.4954 -3.4503  1.0196
  549MOL0     H74075  11.490   2.059   8.007 -0.9927  1.0134  0.9571
  549MOL0     H74076  11.714   2.061   8.079 -1.3608 -0.7660 -2.1474
  549MOL0     H74077  11.943   1.874   8.645  1.0523  0.4702 -0.1421
  549MOL0     H74078  12.176   1.841   8.727  0.6021 -2.5749 -0.0193
  549MOL0     H74079  12.352   1.717   8.779 -3.0542 -1.6365 -1.0957
  549MOL0     H74080  12.326   1.573   8.690  2.4333 -1.5474  0.7404
  549MOL0     H74081  12.532   1.547   8.765 -0.7044  1.2420 -0.2253
  549MOL0     H74082  12.553   1.579   8.590  1.6288 -0.8062  0.0834
  549MOL0     H74083  12.633   1.812   8.657 -3.7794  1.3126  1.7403
  549MOL0     H74084  12.609   1.755   8.829  0.9993 -0.0589  0.4601
  549MOL0     H74085  12.763   1.582   8.626 -0.8790 -2.4651  1.5560
  549MOL0     H74086  12.761   1.565   8.791 -0.2581  0.7889  0.3544
  549MOL0     H74087  12.891   1.769   8.834 -1.8479 -0.0023  0.0175
  549MOL0     H74088  12.891   1.805   8.667 -2.4761  2.0538  2.1868
  549MOL0     H74089  12.997   1.543   8.761  1.2312  0.1424  0.8489
  549MOL0     H74090  13.024   1.603   8.608  0.4194 -1.4674  0.3247
  549MOL0     H74091  13.205   1.632   8.790  1.9696  2.0077  1.5381
  549MOL0     H74092  13.104   1.753   8.866  0.6713  0.4721 -0.0847
  549MOL0     H74093  13.196   1.785   8.579 -1.1889 -0.4018 -0.3444
  549MOL0     H74094  13.099   1.892   8.671 -1.6915 -2.4135 -0.6091
  549MOL0     H74095  12.280   1.676   8.357 -0.7029 -0.9051  0.6532
  549MOL0     H74096  12.056   1.756   8.249 -1.5335  2.0258  0.3675
  549MOL0     H74097  11.632   1.755   8.377  2.5738  3.0837  2.7255
  549MOL0     H74098  11.402   1.738   8.292  1.2149 -2.2020 -0.8994
  549MOL0     H74099   9.734   0.866   8.325  0.2710  2.1880 -0.4379
  549MOL0     H74100   9.671   0.718   8.515  1.1435  0.0019  0.4152
  549MOL0     H74101   9.550   0.714   8.918 -0.5163 -0.6811  1.3473
  549MOL0     H74102   9.426   0.579   9.058 -0.1969 -1.9003  0.5631
  549MOL0     H74103   9.574   0.155   9.215 -1.5208 -3.6308  0.0687
  549MOL0     H74104   9.530   0.172   9.054  1.7526 -1.7900  0.8758
  549MOL0     H74105   9.372   0.038   9.189 -0.4165 -1.1361 -4.6193
  549MOL0     H74106   9.312   0.153   9.076  2.7031 -0.4467 -0.7487
  549MOL0     H74107   9.288   0.315   9.295 -0.9084 -0.4565 -0.3626
  549MOL0     H74108   9.303   0.160   9.386  2.4780 -1.3120 -0.3961
  549MOL0     H74109   9.084   0.259   9.212  0.5798 -0.1406  0.4363
  549MOL0     H74110   9.120   0.084   9.236  0.5062  0.7701 -2.2177
  549MOL0     H74111   8.920   0.199   9.586  0.1029  1.4788 -0.2320
  549MOL0     H74112   9.727   0.280   9.067  2.0272 -0.2842 -0.8832
  549MOL0     H74113   9.915   0.312   8.856  0.3557  2.1319 -1.7699
  549MOL0     H74114   9.966   0.479   8.875 -1.1371  1.7014 -0.6553
  549MOL0     H74115   9.951   0.378   9.023 -1.1730 -0.1208  1.0032
  550MOL0     O74116   2.658   3.556   1.073 -0.2154  0.4850  0.6735
  550MOL0     C74117   2.569   3.482   1.120 -0.9831 -0.9203  0.9542
  550MOL0     O74118   2.583   3.400   1.222 -0.4666 -0.5073  0.3070
  550MOL0     C74119   2.708   3.399   1.272  0.2647  1.1948  0.6032
  550MOL0     C74120   2.750   3.477   1.379 -0.1263 -0.6925 -0.6616
  550MOL0     C74121   2.884   3.470   1.422  0.0315  0.1206 -0.1022
  550MOL0     C74122   2.980   3.392   1.358  0.1999 -0.8809  0.0697
  550MOL0     O74123   3.106   3.384   1.411 -0.0317  0.3428  0.8378
  550MOL0     C74124   3.199   3.279   1.383  0.2218  0.7637 -0.1919
  550MOL0     C74125   3.177   3.153   1.467  0.0852  0.2357  0.2005
  550MOL0     C74126   3.272   3.029   1.429  0.1177 -1.1117  0.0197
  550MOL0     C74127   3.226   2.898   1.488  0.0871 -0.2340 -0.0798
  550MOL0     C74128   3.347   2.800   1.473  0.0357  0.6924 -0.1024
  550MOL0     C74129   3.304   2.661   1.524 -0.4427  0.2280 -1.2563
  550MOL0     C74130   3.379   2.538   1.461 -0.2263 -0.3778 -0.7779
  550MOL0     C74131   3.321   2.506   1.325 -0.8697 -0.2792  0.0518
  550MOL0     N74132   3.178   2.472   1.324  0.0642 -1.0938  0.6251
  550MOL0     C74133   3.085   2.532   1.238 -0.8643 -0.5202 -0.4992
  550MOL0     C74134   2.970   2.469   1.279  1.0969 -1.2733  0.2131
  550MOL0     C74135   2.832   2.484   1.219  1.2560  0.3370 -0.6964
  550MOL0     C74136   2.741   2.591   1.270  0.7248  0.0753 -0.2876
  550MOL0     C74137   2.719   2.584   1.426  0.1245 -0.0782 -0.3860
  550MOL0     C74138   2.587   2.650   1.469  0.5446 -0.2445  0.0862
  550MOL0     O74139   2.470   2.571   1.438 -0.4208 -0.2374  0.2496
  550MOL0     C74140   2.351   2.606   1.495  0.0552 -1.0964  0.5811
  550MOL0     C74141   2.247   2.515   1.491  0.0764 -0.4046  0.3411
  550MOL0     C74142   2.121   2.540   1.558 -0.0903 -0.3177  0.2091
  550MOL0     C74143   2.097   2.668   1.610 -0.7503 -0.5140 -0.2361
  550MOL0     C74144   1.966   2.697   1.660 -0.2792  0.4546  0.1860
  550MOL0     O74145   1.880   2.598   1.656  0.7792  0.8783  0.5824
  550MOL0     C74146   1.739   2.612   1.665  0.3948  0.8410  0.0419
  550MOL0     C74147   1.676   2.490   1.680 -0.1993  0.7059  0.2996
  550MOL0     C74148   1.540   2.478   1.706 -0.4886 -0.6072 -0.6962
  550MOL0     C74149   1.470   2.597   1.703  0.6205  0.5740 -0.1938
  550MOL0     O74150   1.330   2.599   1.707 -0.0096  0.2159 -0.4633
  550MOL0     C74151   1.265   2.503   1.629  0.0675  0.4772  0.9336
  550MOL0     C74152   1.187   2.413   1.727 -0.9698  0.5405  0.2520
  550MOL0     C74153   1.075   2.327   1.655 -0.6689 -0.4780 -0.7736
  550MOL0     C74154   0.944   2.398   1.628  0.4154  0.3624 -0.1781
  550MOL0     C74155   0.868   2.392   1.762 -0.7359  0.1254  0.3302
  550MOL0     C74156   0.725   2.463   1.765  0.1066 -1.0355 -0.0983
  550MOL0     C74157   0.739   2.610   1.736 -0.3989 -0.2053  0.5444
  550MOL0     C74158   0.625   2.682   1.794  0.6888  0.1099 -0.2733
  550MOL0    Cl74159   0.461   2.629   1.737 -0.1928  0.2567  0.1523
  550MOL0     C74160   1.522   2.718   1.682 -0.4025  0.1463 -0.0622
  550MOL0     C74161   1.655   2.726   1.663  0.5015  0.2403 -0.0065
  550MOL0     O74162   1.944   2.812   1.691  0.0725 -0.5644  0.5550
  550MOL0     C74163   2.202   2.763   1.605 -0.3963  0.3854 -0.0590
  550MOL0     C74164   2.325   2.732   1.561  0.6964  0.3452  0.1170
  550MOL0     N74165   3.003   2.391   1.389  0.9239 -0.4028 -0.7149
  550MOL0     N74166   3.126   2.387   1.412  0.2579  1.0751 -0.4768
  550MOL0     C74167   2.933   3.310   1.257  0.0345  0.7467  0.4097
  550MOL0     C74168   2.802   3.313   1.207  0.7074 -0.2466  0.1707
  550MOL0     C74169   2.434   3.484   1.062  0.2985 -0.5842 -0.3173
  550MOL0     C74170   2.325   3.437   1.140 -0.5478  0.6424 -0.1902
  550MOL0     C74171   2.188   3.440   1.091 -0.0331  0.1493 -0.6665
  550MOL0     C74172   2.161   3.490   0.961 -0.1868  0.2297  0.3932
  550MOL0     O74173   2.042   3.490   0.893 -0.0099  0.8451 -0.0607
  550MOL0     C74174   1.918   3.480   0.966  0.9041 -0.3462  0.3278
  550MOL0     C74175   1.852   3.350   0.914 -0.0739 -0.6540 -0.0310
  550MOL0     C74176   1.698   3.349   0.940 -0.3458  0.2020  0.2590
  550MOL0     C74177   1.640   3.252   0.835  0.6744 -0.5292 -0.3148
  550MOL0     C74178   1.683   3.115   0.842 -0.2088 -0.1860  0.0882
  550MOL0     C74179   1.708   3.001   0.827  0.3306  0.8927 -0.1557
  550MOL0     C74180   2.275   3.537   0.886  0.1388 -0.0083 -0.4739
  550MOL0     C74181   2.405   3.533   0.935 -0.5723  0.4262  0.0369
  550MOL0     C74182   2.510   3.579   0.838  0.5519  0.9623  0.0693
  550MOL0     H74183   2.674   3.546   1.417  0.1974 -0.9217  0.4282
  550MOL0     H74184   2.934   3.523   1.502  0.7611 -1.3512  0.4564
  550MOL0     H74185   3.203   3.253   1.277  0.5593  2.1134 -0.5331
  550MOL0     H74186   3.301   3.310   1.407  0.8878 -0.5217 -1.1967
  550MOL0     H74187   3.076   3.114   1.451  0.4387 -2.0952  2.7923
  550MOL0     H74188   3.190   3.177   1.573 -0.6927 -2.2447  0.9431
  550MOL0     H74189   3.368   3.062   1.470  0.3026  0.5854 -1.6495
  550MOL0     H74190   3.282   3.018   1.321  0.7804 -4.5883  0.3130
  550MOL0     H74191   3.199   2.904   1.594  2.0363 -2.0060  0.5864
  550MOL0     H74192   3.138   2.873   1.428  0.7619  1.0776 -1.7176
  550MOL0     H74193   3.381   2.804   1.369  0.8601  2.6346  0.1903
  550MOL0     H74194   3.426   2.836   1.539 -1.0162 -0.8687  2.1358
  550MOL0     H74195   3.334   2.648   1.628  1.9870  2.9069 -1.5149
  550MOL0     H74196   3.196   2.644   1.521 -0.5563  0.2878  1.0803
  550MOL0     H74197   3.369   2.452   1.528  0.8057  2.2366  3.0446
  550MOL0     H74198   3.487   2.557   1.468 -0.8358  3.5602 -0.0391
  550MOL0     H74199   3.335   2.597   1.266 -2.8362  1.3107  1.8681
  550MOL0     H74200   3.381   2.426   1.280 -0.6603  1.2259 -2.5535
  550MOL0     H74201   3.092   2.606   1.160 -0.4522  0.7561  0.7082
  550MOL0     H74202   2.843   2.499   1.111 -2.0524  0.3419 -1.1414
  550MOL0     H74203   2.781   2.388   1.238  2.0935 -0.1935 -1.0705
  550MOL0     H74204   2.791   2.688   1.257  1.7461 -0.6512 -2.2998
  550MOL0     H74205   2.647   2.588   1.215 -1.2315 -2.9074  2.8555
  550MOL0     H74206   2.801   2.638   1.475 -1.7050  0.8122  1.8712
  550MOL0     H74207   2.720   2.483   1.468  1.1423  0.7515  1.7234
  550MOL0     H74208   2.588   2.746   1.416 -2.5113  1.4951  2.8147
  550MOL0     H74209   2.583   2.667   1.577 -1.3354 -1.2322  0.2136
  550MOL0     H74210   2.266   2.435   1.421 -0.6139 -0.3338  0.0610
  550MOL0     H74211   2.047   2.461   1.550 -1.6922  0.9987  1.3253
  550MOL0     H74212   1.738   2.402   1.668  0.3919  1.0531  0.7704
  550MOL0     H74213   1.495   2.379   1.712  1.2091 -1.3891 -0.3288
  550MOL0     H74214   1.199   2.554   1.557  0.0687  1.5919  1.6929
  550MOL0     H74215   1.322   2.438   1.562 -0.8187  2.7700 -2.3134
  550MOL0     H74216   1.257   2.340   1.769 -0.7758  0.2665 -0.5398
  550MOL0     H74217   1.146   2.480   1.803  1.7863  4.4419 -1.3805
  550MOL0     H74218   1.106   2.279   1.561 -2.3064  0.7428 -1.9923
  550MOL0     H74219   1.067   2.240   1.722  2.0364  1.3345  2.1740
  550MOL0     H74220   0.897   2.341   1.548 -1.4216  0.8384  0.5060
  550MOL0     H74221   0.949   2.501   1.592 -3.1704  0.0019 -2.1131
  550MOL0     H74222   0.928   2.423   1.847 -2.4457 -0.6471  1.8972
  550MOL0     H74223   0.865   2.284   1.779  2.8027 -0.2146 -0.5158
  550MOL0     H74224   0.652   2.432   1.689 -2.3405  3.5520  0.0194
  550MOL0     H74225   0.680   2.441   1.862 -0.8913  2.4400  0.3656
  550MOL0     H74226   0.746   2.628   1.628  0.1450  1.5483  0.8296
  550MOL0     H74227   0.831   2.643   1.785  2.3330 -1.2073 -3.3343
  550MOL0     H74228   0.632   2.671   1.903  0.2339 -0.2511 -0.2735
  550MOL0     H74229   0.632   2.787   1.764 -0.2243  0.0278 -0.8021
  550MOL0     H74230   1.457   2.805   1.677  0.0163  0.4279 -0.8697
  550MOL0     H74231   1.690   2.828   1.652 -0.3506  0.6691  1.0097
  550MOL0     H74232   2.181   2.864   1.637 -2.6257  0.0213 -0.1639
  550MOL0     H74233   2.394   2.815   1.570  2.0663 -0.5197 -1.7950
  550MOL0     H74234   2.992   3.233   1.208  0.5102  0.4627  1.3969
  550MOL0     H74235   2.778   3.260   1.115 -1.0017  1.5811 -0.5140
  550MOL0     H74236   2.341   3.402   1.241  2.5505  1.3323 -0.3336
  550MOL0     H74237   2.104   3.406   1.151 -0.5552  2.3079 -0.0652
  550MOL0     H74238   1.848   3.560   0.942  1.1222 -0.2072  0.1531
  550MOL0     H74239   1.914   3.474   1.075 -0.7962 -3.2435  0.2088
  550MOL0     H74240   1.892   3.254   0.949  0.5552 -1.1734 -2.0783
  550MOL0     H74241   1.877   3.341   0.808 -0.2247  1.8320 -0.3283
  550MOL0     H74242   1.656   3.448   0.919 -0.7513 -0.3630 -1.8813
  550MOL0     H74243   1.679   3.311   1.041  1.5440 -0.1275  0.5438
  550MOL0     H74244   1.531   3.254   0.846  0.4519 -1.2114 -2.1246
  550MOL0     H74245   1.658   3.284   0.732 -2.7866 -1.4423 -1.3235
  550MOL0     H74246   1.725   2.901   0.791 -1.6440  0.0678  1.0287
  550MOL0     H74247   2.239   3.567   0.788  0.1090  1.2432 -0.0900
  550MOL0     H74248   2.556   3.676   0.859  0.9184  1.3084 -2.0595
  550MOL0     H74249   2.584   3.502   0.812 -0.9924 -0.1428 -1.2533
  550MOL0     H74250   2.466   3.607   0.742 -0.9241 -0.6447  0.2290
  551MOL0     O74251  11.059   3.099   7.228  0.2918 -0.1754 -0.0272
  551MOL0     C74252  10.987   3.185   7.169 -0.8698  0.7873 -0.1162
  551MOL0     O74253  11.005   3.318   7.186 -0.2348 -0.2633 -0.5228
  551MOL0     C74254  11.126   3.356   7.241 -0.4762 -0.6219 -0.4066
  551MOL0     C74255  11.155   3.380   7.376  0.3039 -0.1504 -0.3449
  551MOL0     C74256  11.278   3.419   7.416  0.2744  0.4308 -0.1796
  551MOL0     C74257  11.392   3.425   7.329  0.7825  0.2775  1.4118
  551MOL0     O74258  11.513   3.458   7.372 -0.3920 -0.8013 -0.2896
  551MOL0     C74259  11.528   3.557   7.474  0.0214  0.0425  0.4319
  551MOL0     C74260  11.640   3.646   7.435 -0.2734  0.0383  0.0350
  551MOL0     C74261  11.769   3.564   7.391  0.2413  0.9106 -0.3088
  551MOL0     C74262  11.867   3.660   7.324  0.0282 -0.5474  1.2653
  551MOL0     C74263  11.999   3.590   7.286  0.8811 -0.5356 -0.3687
  551MOL0     C74264  12.104   3.677   7.216  0.5041 -0.2732 -0.6667
  551MOL0     C74265  12.239   3.608   7.186 -0.2230  0.1370  0.3029
  551MOL0     C74266  12.348   3.710   7.155 -1.4868  0.0441  1.2103
  551MOL0     N74267  12.475   3.650   7.085  0.4754 -0.8589 -0.7878
  551MOL0     C74268  12.582   3.599   7.156  1.2641  1.0188 -0.3197
  551MOL0     C74269  12.679   3.597   7.063 -0.6860 -0.1354  0.1209
  551MOL0     C74270  12.820   3.560   7.080  0.1010  0.0104  0.6637
  551MOL0     C74271  12.914   3.668   7.136 -0.5497  0.8967 -0.0431
  551MOL0     C74272  12.927   3.796   7.063  0.0199 -0.0511  0.0404
  551MOL0     C74273  13.000   3.800   6.920  0.1450  0.3075  0.0614
  551MOL0     O74274  13.139   3.787   6.943 -0.5116 -0.7120 -0.3212
  551MOL0     C74275  13.215   3.735   6.840  0.3789 -0.1896 -0.1699
  551MOL0     C74276  13.180   3.744   6.700 -0.3365 -0.4378  0.1184
  551MOL0     C74277  13.276   3.691   6.608  0.2985  0.2682  0.1522
  551MOL0     C74278  13.394   3.628   6.645  0.8545 -0.5637 -0.1925
  551MOL0     C74279  13.469   3.567   6.539  0.5647 -0.0410 -0.5446
  551MOL0     O74280  13.543   3.453   6.574  0.0841  0.8410 -1.2960
  551MOL0     C74281  13.617   3.402   6.471  0.2536 -0.2338  0.6506
  551MOL0     C74282  13.735   3.473   6.430 -0.1471  0.1864  0.4416
  551MOL0     C74283  13.820   3.421   6.337 -0.6417 -0.4463 -0.2369
  551MOL0     C74284  13.792   3.291   6.272 -0.0046 -0.2397 -0.1784
  551MOL0     O74285  13.871   3.230   6.178  0.2732  0.2901  0.1753
  551MOL0     C74286  14.006   3.274   6.156 -0.2620  0.5294 -0.0902
  551MOL0     C74287  14.106   3.159   6.119 -1.2688  0.0674  0.1289
  551MOL0     C74288  14.258   3.210   6.124  0.0576  0.1466 -0.0249
  551MOL0     C74289  14.366   3.113   6.089  0.1730 -0.5803 -0.7008
  551MOL0     C74290  14.491   3.198   6.069 -0.0881 -0.0191  0.5490
  551MOL0     C74291  14.603   3.097   6.054  0.1004 -0.8359 -0.0913
  551MOL0     C74292  14.729   3.188   6.031  0.0697 -0.4226  0.0026
  551MOL0     C74293  14.860   3.108   6.022 -0.1353  0.0304 -0.0065
  551MOL0    Cl74294  14.888   3.034   6.181  0.1533  0.3134  0.4307
  551MOL0     C74295  13.681   3.224   6.321  0.6178  0.1889  1.0108
  551MOL0     C74296  13.594   3.272   6.417  0.1676  0.2929  1.0561
  551MOL0     O74297  13.459   3.611   6.429 -0.0874  0.0375  0.5523
  551MOL0     C74298  13.425   3.627   6.780  0.2159  0.0884 -0.2798
  551MOL0     C74299  13.341   3.679   6.876  0.1058 -0.3619  0.2917
  551MOL0     N74300  12.630   3.653   6.944 -0.8276  0.2697  0.3856
  551MOL0     N74301  12.516   3.688   6.963 -0.0248 -0.1909 -0.0896
  551MOL0     C74302  11.358   3.406   7.190 -0.5406 -0.2023 -0.6537
  551MOL0     C74303  11.226   3.370   7.149 -0.2498 -0.2785  0.2816
  551MOL0     C74304  10.866   3.137   7.090  0.2048 -0.2132 -0.2432
  551MOL0     C74305  10.755   3.226   7.090 -0.1046  0.3254  0.1178
  551MOL0     C74306  10.644   3.189   7.019 -0.5672  1.2558 -0.2097
  551MOL0     C74307  10.627   3.061   6.964  0.4256 -0.0980 -0.5560
  551MOL0     O74308  10.509   3.003   6.921 -0.7045  0.4307  0.2055
  551MOL0     C74309  10.389   3.074   6.933 -0.0951 -0.2990 -0.2558
  551MOL0     C74310  10.263   3.013   6.870  0.7516  1.2560 -0.1153
  551MOL0     C74311  10.281   2.978   6.717 -0.9210 -0.8196  0.3309
  551MOL0     C74312  10.279   3.107   6.646  0.1642  0.0684  0.4440
  551MOL0     C74313  10.412   3.154   6.606 -0.2288 -0.3137  1.1510
  551MOL0     C74314  10.514   3.211   6.568 -0.2253  0.3501  0.0390
  551MOL0     C74315  10.737   2.969   6.966  0.4980 -0.2406  0.3429
  551MOL0     C74316  10.854   3.011   7.028 -0.0313  0.5539  0.0184
  551MOL0     C74317  10.977   2.925   7.026 -0.3957  0.6550 -0.0120
  551MOL0     H74318  11.082   3.389   7.456  0.3361  3.5597 -0.5553
  551MOL0     H74319  11.290   3.450   7.519 -1.4223  1.0899 -0.1440
  551MOL0     H74320  11.435   3.611   7.496  1.0800  1.6599  1.1095
  551MOL0     H74321  11.547   3.507   7.570  1.3536  1.4031  0.9071
  551MOL0     H74322  11.663   3.716   7.516  2.0591  0.3613 -0.8185
  551MOL0     H74323  11.604   3.698   7.346  2.2993  1.7008 -0.1610
  551MOL0     H74324  11.749   3.479   7.326  0.5144  0.9757 -0.4813
  551MOL0     H74325  11.803   3.523   7.486 -1.9570  1.3143  0.6964
  551MOL0     H74326  11.818   3.704   7.236 -0.6320  0.4019  2.0845
  551MOL0     H74327  11.882   3.752   7.381 -0.4309  0.1403  0.3023
  551MOL0     H74328  12.044   3.537   7.370  2.3840 -1.2330 -1.5543
  551MOL0     H74329  11.968   3.508   7.221  0.5701  0.3754 -1.4212
  551MOL0     H74330  12.056   3.721   7.128 -1.4578 -1.1344 -0.0920
  551MOL0     H74331  12.116   3.756   7.290 -5.5680  0.6504 -0.1671
  551MOL0     H74332  12.239   3.544   7.097  0.0850 -1.5431  1.4570
  551MOL0     H74333  12.284   3.550   7.267  1.4989  2.1764  0.9138
  551MOL0     H74334  12.320   3.787   7.082  1.8415 -0.6917 -1.0735
  551MOL0     H74335  12.375   3.761   7.248  0.0608  0.4450  0.5824
  551MOL0     H74336  12.579   3.552   7.253 -0.3347 -1.9204 -1.6708
  551MOL0     H74337  12.820   3.485   7.160 -0.1753  0.6887  1.2992
  551MOL0     H74338  12.864   3.514   6.990 -0.7478 -0.6500  0.5735
  551MOL0     H74339  12.889   3.692   7.240  2.7845  3.5808  0.2850
  551MOL0     H74340  13.013   3.623   7.140  0.9352  3.9882  1.3486
  551MOL0     H74341  12.980   3.866   7.129 -0.3518 -0.0940  0.3864
  551MOL0     H74342  12.827   3.838   7.056 -0.6320 -1.4671  0.5359
  551MOL0     H74343  12.965   3.895   6.877  0.5387  0.1289 -0.6546
  551MOL0     H74344  12.957   3.713   6.870 -0.4980  0.5930  0.1078
  551MOL0     H74345  13.088   3.795   6.672 -0.3911  1.0664  2.7407
  551MOL0     H74346  13.233   3.697   6.508 -1.2240 -0.4417  0.7380
  551MOL0     H74347  13.747   3.574   6.465  0.0813  0.9584 -1.7200
  551MOL0     H74348  13.905   3.484   6.315 -1.1388  0.1291 -0.5282
  551MOL0     H74349  14.003   3.351   6.079 -1.3046  1.7652  1.1314
  551MOL0     H74350  14.039   3.315   6.252 -0.3297  0.5699 -0.0838
  551MOL0     H74351  14.095   3.072   6.184  2.1701 -0.8312 -0.2656
  551MOL0     H74352  14.085   3.114   6.022  0.9857  0.6861 -0.7273
  551MOL0     H74353  14.255   3.294   6.054  0.5468 -0.3208 -0.6308
  551MOL0     H74354  14.276   3.262   6.218 -0.5786 -1.4551  1.0178
  551MOL0     H74355  14.339   3.072   5.991 -3.7901  5.1604 -2.5574
  551MOL0     H74356  14.380   3.038   6.166 -0.2925  0.0304 -0.0077
  551MOL0     H74357  14.515   3.235   6.169 -1.9460 -1.5794  1.6366
  551MOL0     H74358  14.473   3.280   6.000 -0.5971 -1.4613 -1.1012
  551MOL0     H74359  14.616   3.031   6.140 -1.2824 -1.6379 -0.4662
  551MOL0     H74360  14.594   3.031   5.967  0.1347 -0.8017 -0.1209
  551MOL0     H74361  14.738   3.255   6.117 -1.5203  0.8004 -0.7453
  551MOL0     H74362  14.710   3.243   5.939 -1.1693 -0.0352  0.4769
  551MOL0     H74363  14.842   3.022   5.958 -0.0091  1.4346 -2.0372
  551MOL0     H74364  14.948   3.159   5.981  0.9610 -2.4719 -0.9335
  551MOL0     H74365  13.653   3.132   6.271 -0.4300  1.2343 -0.3998
  551MOL0     H74366  13.513   3.203   6.435  0.2310 -0.3195 -0.7821
  551MOL0     H74367  13.522   3.587   6.808  1.1263  0.7942 -2.2432
  551MOL0     H74368  13.370   3.706   6.977  0.1739  2.5421 -0.4151
  551MOL0     H74369  11.440   3.397   7.120  1.0078 -2.7258  1.2755
  551MOL0     H74370  11.208   3.343   7.045 -0.8484  3.1608 -0.6503
  551MOL0     H74371  10.765   3.327   7.128  0.9661  0.1374  0.3731
  551MOL0     H74372  10.554   3.250   7.027 -3.6995 -2.9685  0.6587
  551MOL0     H74373  10.399   3.168   6.878  0.4388  0.1296  0.5526
  551MOL0     H74374  10.376   3.108   7.037 -3.7868  2.1868 -1.3078
  551MOL0     H74375  10.173   3.071   6.892  1.3151  1.4919  1.6800
  551MOL0     H74376  10.244   2.922   6.928  1.5289  0.8959 -0.4103
  551MOL0     H74377  10.200   2.914   6.681 -1.1684  0.7033 -2.0492
  551MOL0     H74378  10.376   2.925   6.703 -0.2921  0.2736  0.2984
  551MOL0     H74379  10.228   3.083   6.553  0.7830 -0.0356  0.1247
  551MOL0     H74380  10.225   3.188   6.696 -1.1268 -0.0945 -0.6532
  551MOL0     H74381  10.611   3.246   6.540  1.2657 -3.0440  0.4940
  551MOL0     H74382  10.717   2.867   6.935 -0.3027  0.2269 -0.6972
  551MOL0     H74383  10.961   2.835   6.967 -1.4343 -0.1515  1.4405
  551MOL0     H74384  11.065   2.972   6.981  0.0586 -0.6497 -0.5311
  551MOL0     H74385  11.006   2.896   7.128 -1.4396  1.1272  0.4345
  552MOL0     O74386   5.034   4.618   4.610 -0.2510 -0.1274  0.2179
  552MOL0     C74387   5.026   4.612   4.734 -0.0678 -0.8674  0.3263
  552MOL0     O74388   5.126   4.590   4.818 -0.4613 -0.0842  0.8527
  552MOL0     C74389   5.248   4.593   4.765  0.8329  0.2097  0.3027
  552MOL0     C74390   5.328   4.479   4.758  0.3605  0.3063  0.4688
  552MOL0     C74391   5.457   4.489   4.706 -0.2197 -0.6864 -0.2222
  552MOL0     C74392   5.515   4.612   4.658 -0.4012 -0.2505 -0.0699
  552MOL0     O74393   5.647   4.608   4.616  0.3819  0.3484 -0.6817
  552MOL0     C74394   5.686   4.694   4.505 -0.5188 -0.1462 -0.6319
  552MOL0     C74395   5.820   4.636   4.448  0.0465  0.4202  0.6894
  552MOL0     C74396   5.936   4.691   4.521  0.2455  0.2349  0.3465
  552MOL0     C74397   6.069   4.647   4.462  0.6458  0.3594 -0.4544
  552MOL0     C74398   6.182   4.745   4.503  0.7010  0.0709 -0.6998
  552MOL0     C74399   6.304   4.692   4.444  0.3105 -0.0091  0.3375
  552MOL0     C74400   6.426   4.765   4.507  0.0050 -0.2107 -0.0148
  552MOL0     C74401   6.538   4.762   4.408 -0.4983  0.4920  0.6024
  552MOL0     N74402   6.634   4.868   4.441 -0.2058  0.1081  0.3960
  552MOL0     C74403   6.705   4.899   4.558 -0.3177 -0.4971 -0.2693
  552MOL0     C74404   6.788   5.001   4.531 -0.2915  0.0021 -0.0310
  552MOL0     C74405   6.901   5.059   4.610 -0.2902  0.0813  0.1719
  552MOL0     C74406   6.943   5.207   4.587  0.4656  0.3834 -0.2050
  552MOL0     C74407   7.020   5.266   4.707  0.9683  0.3347 -0.2586
  552MOL0     C74408   7.172   5.245   4.711 -0.2695  0.5738  0.0531
  552MOL0     O74409   7.198   5.115   4.771  0.6632  0.4364 -0.7450
  552MOL0     C74410   7.328   5.073   4.780 -0.3401  0.2187 -0.8964
  552MOL0     C74411   7.339   4.952   4.841 -0.8693 -0.2232  0.2118
  552MOL0     C74412   7.468   4.902   4.876  0.2190 -1.0882 -0.0063
  552MOL0     C74413   7.579   4.985   4.850  0.3006  0.1770 -0.1918
  552MOL0     C74414   7.708   4.933   4.892 -0.5241  0.9109 -0.4727
  552MOL0     O74415   7.818   4.987   4.827  0.5796 -0.4038  0.6728
  552MOL0     C74416   7.945   4.940   4.862 -0.1756  0.4174  0.1577
  552MOL0     C74417   8.045   5.036   4.856  0.2762 -0.0013  0.9307
  552MOL0     C74418   8.178   5.000   4.874  0.3762 -0.4294 -0.2938
  552MOL0     C74419   8.229   4.868   4.891 -0.1426  0.0336  0.5661
  552MOL0     O74420   8.366   4.843   4.897  0.3748  0.5709 -0.6518
  552MOL0     C74421   8.408   4.704   4.915  0.2307 -0.0981  1.1437
  552MOL0     C74422   8.559   4.708   4.953  0.2636  0.8193  0.5023
  552MOL0     C74423   8.581   4.719   5.104 -0.0974  0.4168 -0.2811
  552MOL0     C74424   8.727   4.742   5.148 -0.1444  0.1449 -0.3316
  552MOL0     C74425   8.726   4.761   5.303 -0.0033 -0.8662  0.1773
  552MOL0     C74426   8.853   4.832   5.353  0.0606  0.4451 -0.4907
  552MOL0     C74427   8.979   4.766   5.306  0.3362  0.2907 -1.0519
  552MOL0     C74428   9.099   4.811   5.394  0.7146  0.0432  0.5969
  552MOL0    Cl74429   9.096   4.985   5.434  0.0732 -0.1958 -0.0266
  552MOL0     C74430   8.132   4.768   4.869  0.5016  0.0125 -0.3769
  552MOL0     C74431   7.994   4.805   4.857 -0.2333 -0.1301 -0.2522
  552MOL0     O74432   7.712   4.843   4.979  0.6405 -0.1369  0.2728
  552MOL0     C74433   7.564   5.117   4.799 -0.7595  0.4510  0.4816
  552MOL0     C74434   7.440   5.158   4.759  0.6269 -0.1481  0.6445
  552MOL0     N74435   6.766   5.035   4.400 -0.2101 -0.1439 -0.9891
  552MOL0     N74436   6.673   4.964   4.352  0.4490  0.0117  0.7248
  552MOL0     C74437   5.430   4.723   4.668  0.4006 -0.1920 -0.1162
  552MOL0     C74438   5.291   4.715   4.722 -0.4721 -0.5157  0.2622
  552MOL0     C74439   4.900   4.664   4.789  0.6559  0.2553  0.2518
  552MOL0     C74440   4.894   4.739   4.908  0.0656 -0.2352 -0.0167
  552MOL0     C74441   4.770   4.796   4.957 -0.3754  0.7140  0.6884
  552MOL0     C74442   4.657   4.787   4.871  0.1084 -0.1306 -0.1597
  552MOL0     O74443   4.532   4.831   4.908  0.1105  0.2879 -0.3298
  552MOL0     C74444   4.516   4.911   5.027  0.4643 -0.2835  0.2885
  552MOL0     C74445   4.366   4.947   5.053 -0.3970  0.5526 -0.2246
  552MOL0     C74446   4.330   5.070   4.970 -0.1543 -0.5606  0.0136
  552MOL0     C74447   4.184   5.122   4.996 -0.0555  0.0084  0.6036
  552MOL0     C74448   4.155   5.176   5.130  0.0044 -1.0197  0.5756
  552MOL0     C74449   4.132   5.241   5.228  0.2214  0.2653 -0.0986
  552MOL0     C74450   4.660   4.712   4.755  0.5044 -0.5506  0.6771
  552MOL0     C74451   4.780   4.653   4.716 -0.1171  0.0713  0.3034
  552MOL0     C74452   4.766   4.572   4.586  0.2300  0.4823  0.2367
  552MOL0     H74453   5.276   4.387   4.777 -2.1327  0.8786 -2.8038
  552MOL0     H74454   5.509   4.394   4.712 -1.2927 -1.2242  1.4860
  552MOL0     H74455   5.613   4.682   4.425 -1.2053 -3.9946  0.3991
  552MOL0     H74456   5.700   4.796   4.544  1.0932 -0.4266 -0.4017
  552MOL0     H74457   5.828   4.660   4.342 -2.1037 -3.1372 -0.4496
  552MOL0     H74458   5.816   4.527   4.451 -0.6920  0.4088 -0.4229
  552MOL0     H74459   5.937   4.658   4.625 -2.6892  0.3093  0.4845
  552MOL0     H74460   5.932   4.798   4.499  1.2847 -0.0180 -1.2883
  552MOL0     H74461   6.085   4.550   4.509 -1.9617  1.0106  2.0162
  552MOL0     H74462   6.057   4.642   4.353  0.0838 -0.2060 -0.3691
  552MOL0     H74463   6.171   4.848   4.470 -0.5920  0.6990  1.5405
  552MOL0     H74464   6.192   4.747   4.612 -1.3072 -2.2512 -0.3806
  552MOL0     H74465   6.308   4.591   4.487  1.0039  0.9627  2.7187
  552MOL0     H74466   6.290   4.699   4.336  0.0963 -0.9660  0.2938
  552MOL0     H74467   6.455   4.712   4.599  2.4648 -0.4290 -0.8275
  552MOL0     H74468   6.409   4.871   4.529 -0.3810 -0.5441  1.3945
  552MOL0     H74469   6.583   4.663   4.414 -0.2445  0.5742  0.0954
  552MOL0     H74470   6.496   4.769   4.307 -2.1221 -1.4760  1.0696
  552MOL0     H74471   6.692   4.841   4.649  1.6760  0.1449  0.4730
  552MOL0     H74472   6.876   5.047   4.715 -2.5488  1.0072 -0.2080
  552MOL0     H74473   6.984   4.989   4.594 -2.1384 -2.4798  1.2688
  552MOL0     H74474   6.993   5.215   4.490  0.4833 -0.9511 -0.3203
  552MOL0     H74475   6.853   5.267   4.573 -0.9415 -2.1498 -3.1353
  552MOL0     H74476   6.973   5.216   4.792  3.5614 -0.6975  0.6739
  552MOL0     H74477   6.990   5.371   4.709  0.4062  0.1875 -0.7963
  552MOL0     H74478   7.214   5.321   4.778 -1.2902  3.4582 -2.3691
  552MOL0     H74479   7.214   5.250   4.610 -1.5191  2.7645 -0.4223
  552MOL0     H74480   7.242   4.904   4.855 -0.7996 -0.6493 -0.6776
  552MOL0     H74481   7.468   4.803   4.920 -3.0815 -0.5869  1.4622
  552MOL0     H74482   8.010   5.138   4.842  0.8739  0.3800  2.1140
  552MOL0     H74483   8.237   5.090   4.893  2.2478 -1.8142  0.8508
  552MOL0     H74484   8.345   4.649   4.984 -2.2191 -0.1801 -1.0107
  552MOL0     H74485   8.396   4.652   4.819  1.6726  0.3484  0.6929
  552MOL0     H74486   8.609   4.614   4.928  0.2335  0.6163  1.1692
  552MOL0     H74487   8.593   4.799   4.903 -0.2735  1.5670  1.4631
  552MOL0     H74488   8.523   4.807   5.131 -1.8706 -0.6998 -0.2626
  552MOL0     H74489   8.535   4.633   5.154  0.2145 -0.0962 -0.8640
  552MOL0     H74490   8.747   4.843   5.113  2.0445  1.2080  3.4418
  552MOL0     H74491   8.792   4.669   5.098 -1.6681 -0.1872 -1.9228
  552MOL0     H74492   8.697   4.671   5.358  1.2244 -1.5497 -0.2550
  552MOL0     H74493   8.643   4.831   5.317 -2.3773 -3.2850 -0.9210
  552MOL0     H74494   8.867   4.930   5.307 -0.1948  1.8471  2.2111
  552MOL0     H74495   8.864   4.842   5.462  1.1622  3.8192 -0.8027
  552MOL0     H74496   8.993   4.782   5.199 -1.0676  1.0148 -1.1388
  552MOL0     H74497   8.968   4.657   5.311 -1.6774  0.4762 -0.8734
  552MOL0     H74498   9.101   4.746   5.482 -0.9949  0.4189  0.9504
  552MOL0     H74499   9.191   4.778   5.346 -1.3630 -1.9922 -2.2655
  552MOL0     H74500   8.159   4.663   4.862 -1.0571 -0.7205  2.7293
  552MOL0     H74501   7.921   4.725   4.846 -0.2114  0.0050 -1.5770
  552MOL0     H74502   7.655   5.175   4.786  1.0462 -2.7928 -3.4045
  552MOL0     H74503   7.419   5.249   4.703 -0.0335 -1.2968 -1.0491
  552MOL0     H74504   5.464   4.818   4.626  2.3015 -0.5025  0.6059
  552MOL0     H74505   5.234   4.807   4.730 -1.0732 -0.8283 -0.3535
  552MOL0     H74506   4.983   4.769   4.961 -0.4711  1.9542 -0.2480
  552MOL0     H74507   4.759   4.853   5.049 -2.7756  2.2776 -0.4757
  552MOL0     H74508   4.573   5.004   5.021  0.1607 -0.1689 -1.1814
  552MOL0     H74509   4.549   4.857   5.116  1.7465  1.9776  1.2677
  552MOL0     H74510   4.357   4.968   5.160 -2.4820 -2.1163  0.2217
  552MOL0     H74511   4.298   4.869   5.018 -1.4316  1.6595 -0.7758
  552MOL0     H74512   4.324   5.042   4.865 -1.3345  0.5560 -0.2349
  552MOL0     H74513   4.406   5.146   4.988 -1.9786  1.3304  0.1654
  552MOL0     H74514   4.174   5.212   4.934 -0.1059 -1.2899 -1.3892
  552MOL0     H74515   4.114   5.050   4.953 -2.5119  1.7744  1.4202
  552MOL0     H74516   4.111   5.287   5.322  0.0333 -0.2512  0.1197
  552MOL0     H74517   4.574   4.712   4.689 -0.8781 -0.3830  2.4018
  552MOL0     H74518   4.772   4.641   4.501  0.1880 -0.6632 -0.7181
  552MOL0     H74519   4.826   4.482   4.574 -1.2061 -0.2554 -2.3187
  552MOL0     H74520   4.667   4.534   4.558  1.2674  0.2175 -3.7452
  553MOL0     O74521   0.156   9.307   1.850 -0.5423  0.5683  0.2124
  553MOL0     C74522   0.208   9.252   1.752  0.4342  0.5904  0.8992
  553MOL0     O74523   0.142   9.206   1.643 -0.4333  0.3889 -0.2650
  553MOL0     C74524   0.016   9.165   1.668  0.5610 -0.0313  0.3963
  553MOL0     C74525  -0.087   9.233   1.735  0.7887 -0.8384  0.0793
  553MOL0     C74526  -0.215   9.180   1.746  0.6264  1.0711  1.0333
  553MOL0     C74527  -0.252   9.053   1.690 -0.0512  0.5588  0.0607
  553MOL0     O74528  -0.368   8.986   1.685  0.0336  0.0887 -0.0759
  553MOL0     C74529  -0.492   9.059   1.726  0.1868  0.4126 -1.1178
  553MOL0     C74530  -0.527   9.172   1.629  0.0777 -0.3254 -0.2067
  553MOL0     C74531  -0.527   9.133   1.480 -0.2185  0.5764  0.5459
  553MOL0     C74532  -0.582   9.249   1.398  0.0167 -0.0541 -1.1112
  553MOL0     C74533  -0.493   9.378   1.402  0.3248 -0.7697  1.3917
  553MOL0     C74534  -0.339   9.359   1.381 -0.3817 -0.8307  0.3886
  553MOL0     C74535  -0.255   9.484   1.368 -0.3485 -0.4518  0.1647
  553MOL0     C74536  -0.108   9.463   1.316  0.1179 -0.1520 -0.4725
  553MOL0     N74537  -0.017   9.565   1.366 -0.1465  0.1134 -0.4029
  553MOL0     C74538   0.046   9.571   1.488  0.2974  0.5243  0.5367
  553MOL0     C74539   0.137   9.668   1.490  0.3820 -0.2750  0.2772
  553MOL0     C74540   0.253   9.689   1.582  0.1551  0.1398 -0.7261
  553MOL0     C74541   0.225   9.673   1.732 -0.1685 -0.4724 -0.3283
  553MOL0     C74542   0.357   9.670   1.807  0.1400 -0.0931  0.9007
  553MOL0     C74543   0.439   9.804   1.810  0.1691  0.3670  0.5874
  553MOL0     O74544   0.557   9.780   1.881 -0.0736  0.4301 -0.3219
  553MOL0     C74545   0.652   9.871   1.885  0.3443  0.5856 -0.1860
  553MOL0     C74546   0.646   9.991   1.823 -0.1288 -0.6046  0.0513
  553MOL0     C74547   0.756  10.086   1.826  0.0769  0.2192 -0.1478
  553MOL0     C74548   0.871  10.047   1.899  0.1473  0.4583  0.3797
  553MOL0     C74549   0.979  10.143   1.915  0.0458  0.5177  0.5121
  553MOL0     O74550   0.969  10.256   1.841 -0.0822  0.2568  0.1932
  553MOL0     C74551   1.066  10.352   1.865 -0.1458  0.1737  0.8906
  553MOL0     C74552   1.023  10.475   1.916  0.9754 -0.2579  0.0640
  553MOL0     C74553   1.108  10.582   1.940 -0.0331  0.0899 -0.2397
  553MOL0     C74554   1.247  10.562   1.915  0.7668  0.0204 -0.0037
  553MOL0     O74555   1.332  10.662   1.945  0.0565  0.3734  1.8950
  553MOL0     C74556   1.471  10.674   1.925 -0.6199 -0.3019 -0.0942
  553MOL0     C74557   1.532  10.620   2.055 -0.9886 -0.3325  0.8144
  553MOL0     C74558   1.682  10.595   2.037  0.0888 -0.6784  0.8671
  553MOL0     C74559   1.765  10.717   2.082 -0.3672  0.1564  0.0027
  553MOL0     C74560   1.915  10.686   2.100  1.0215  0.2629  0.0524
  553MOL0     C74561   1.995  10.824   2.086 -0.0602  0.1740  0.1078
  553MOL0     C74562   2.143  10.803   2.107  1.0097 -0.1630 -0.4562
  553MOL0     C74563   2.206  10.943   2.105 -0.7997 -0.4446  0.4753
  553MOL0    Cl74564   2.388  10.918   2.106 -0.4364  0.3712  0.1190
  553MOL0     C74565   1.285  10.436   1.875  0.1783 -0.8550 -0.5959
  553MOL0     C74566   1.203  10.334   1.843  0.2093 -0.7029 -0.2340
  553MOL0     O74567   1.083  10.104   1.974  0.1556  0.4344  0.2863
  553MOL0     C74568   0.871   9.922   1.965  0.7319  0.6979 -0.2910
  553MOL0     C74569   0.761   9.842   1.968  0.4609 -0.3321  0.2672
  553MOL0     N74570   0.123   9.729   1.365  0.1426  0.4879  0.5606
  553MOL0     N74571   0.035   9.667   1.294  1.1941  0.1488  0.6559
  553MOL0     C74572  -0.150   8.990   1.613 -0.4747  0.0779 -0.4913
  553MOL0     C74573  -0.020   9.049   1.607 -0.8135 -0.0908 -0.6638
  553MOL0     C74574   0.358   9.268   1.735  0.0898 -0.0516  0.2191
  553MOL0     C74575   0.409   9.207   1.619  0.9281 -0.0357  0.9925
  553MOL0     C74576   0.541   9.206   1.594 -0.5087 -0.4143  0.3550
  553MOL0     C74577   0.635   9.257   1.689 -0.4810  0.1972  0.7143
  553MOL0     O74578   0.770   9.257   1.662  0.3755 -0.1239 -0.1291
  553MOL0     C74579   0.864   9.323   1.754  0.0348 -0.0885  0.0930
  553MOL0     C74580   0.999   9.308   1.694  0.0870  0.1319  1.1485
  553MOL0     C74581   1.041   9.168   1.733 -0.6648  0.3326  1.1091
  553MOL0     C74582   1.165   9.126   1.657  0.1505 -0.2416  0.4819
  553MOL0     C74583   1.279   9.219   1.677  0.0537  0.2762  0.2745
  553MOL0     C74584   1.375   9.291   1.678  0.3164 -0.1452  0.3010
  553MOL0     C74585   0.584   9.317   1.804 -0.2861 -0.3076  0.0421
  553MOL0     C74586   0.446   9.324   1.830  1.4029 -0.2728 -0.1049
  553MOL0     C74587   0.408   9.381   1.969 -0.4975 -0.3239  0.4660
  553MOL0     H74588  -0.070   9.333   1.774  1.0395  0.4016 -2.8815
  553MOL0     H74589  -0.290   9.239   1.799 -0.8559  1.2199 -1.0786
  553MOL0     H74590  -0.570   8.981   1.729  2.4585 -1.9913  0.2306
  553MOL0     H74591  -0.483   9.095   1.829 -1.4507 -0.0455 -0.7911
  553MOL0     H74592  -0.458   9.255   1.643 -1.3020  1.0013 -0.8914
  553MOL0     H74593  -0.628   9.205   1.656  0.3961  0.1899  0.3468
  553MOL0     H74594  -0.601   9.056   1.456 -2.1305  2.1870  1.0390
  553MOL0     H74595  -0.433   9.097   1.438 -1.1828 -1.8649  0.2983
  553MOL0     H74596  -0.593   9.218   1.294 -2.0463 -1.2565 -0.5880
  553MOL0     H74597  -0.688   9.266   1.419 -0.3382 -0.4606 -2.4811
  553MOL0     H74598  -0.530   9.444   1.323  0.0212 -0.3142  1.9076
  553MOL0     H74599  -0.508   9.426   1.499  0.8965  2.0594  0.1770
  553MOL0     H74600  -0.296   9.299   1.461  0.2991 -0.6755  0.1393
  553MOL0     H74601  -0.329   9.304   1.288 -0.1278 -1.4032  0.7506
  553MOL0     H74602  -0.256   9.536   1.464 -0.6653  0.0355 -0.0990
  553MOL0     H74603  -0.296   9.549   1.290  1.2072 -0.1508 -0.4358
  553MOL0     H74604  -0.063   9.373   1.360  1.7905  0.5303 -0.7275
  553MOL0     H74605  -0.107   9.458   1.206  0.9325 -1.3273 -0.4364
  553MOL0     H74606   0.028   9.487   1.554  2.6734 -3.3512 -3.1748
  553MOL0     H74607   0.334   9.616   1.566 -0.6628 -0.8515 -0.4652
  553MOL0     H74608   0.296   9.788   1.567  3.3000 -1.4306 -3.7068
  553MOL0     H74609   0.160   9.749   1.776 -1.0082 -1.7868  0.7575
  553MOL0     H74610   0.180   9.574   1.744 -1.3768  0.2908  2.0066
  553MOL0     H74611   0.422   9.596   1.759  0.3766  1.7492 -1.8596
  553MOL0     H74612   0.342   9.644   1.912 -0.3670 -1.5108  0.4947
  553MOL0     H74613   0.376   9.881   1.855 -2.0591 -0.7497 -0.4609
  553MOL0     H74614   0.452   9.830   1.704  0.2263 -1.5521  0.0781
  553MOL0     H74615   0.555  10.029   1.776 -0.1040  1.6439  1.6940
  553MOL0     H74616   0.732  10.181   1.778 -0.2093 -1.5592 -3.8357
  553MOL0     H74617   0.915  10.488   1.925  0.8406  0.8653 -2.5055
  553MOL0     H74618   1.078  10.678   1.978 -1.5227 -0.6565  0.5724
  553MOL0     H74619   1.512  10.628   1.835  1.6882 -3.0114  2.1028
  553MOL0     H74620   1.506  10.777   1.917 -0.4495 -0.4277 -0.9892
  553MOL0     H74621   1.518  10.695   2.133 -1.7240  1.2598 -0.7765
  553MOL0     H74622   1.478  10.528   2.082 -1.6323 -0.6728 -1.4206
  553MOL0     H74623   1.720  10.517   2.104  3.0830  0.6337  0.8273
  553MOL0     H74624   1.702  10.566   1.934 -1.9748  1.7452 -0.3221
  553MOL0     H74625   1.746  10.755   2.182  5.6530  0.7208  1.3292
  553MOL0     H74626   1.743  10.804   2.019  3.4278  1.0254 -0.4245
  553MOL0     H74627   1.943  10.616   2.020  0.5871  0.2170 -0.0654
  553MOL0     H74628   1.931  10.631   2.193 -0.9689 -3.9663 -1.8027
  553MOL0     H74629   1.973  10.875   1.992 -0.0384 -0.4626 -0.2495
  553MOL0     H74630   1.955  10.897   2.157 -0.8991  1.9332 -2.0608
  553MOL0     H74631   2.187  10.740   2.030 -0.5129  2.4219 -3.6693
  553MOL0     H74632   2.151  10.756   2.206 -0.5089 -0.9963 -0.7034
  553MOL0     H74633   2.180  10.991   2.010  0.8472 -2.6211 -1.1730
  553MOL0     H74634   2.177  10.997   2.196  0.3239 -0.4814  0.8717
  553MOL0     H74635   1.390  10.414   1.886  0.8598  2.8233  2.3828
  553MOL0     H74636   1.244  10.240   1.809 -2.1159 -1.7014 -0.3978
  553MOL0     H74637   0.958   9.894   2.024  2.6790 -1.0766 -3.7015
  553MOL0     H74638   0.762   9.751   2.028  0.2270  0.3084  1.2605
  553MOL0     H74639  -0.161   8.895   1.561 -0.5430 -1.8401  2.7561
  553MOL0     H74640   0.061   9.010   1.547 -0.1606  3.0729 -2.0507
  553MOL0     H74641   0.353   9.153   1.543  1.2119  0.8969  0.1053
  553MOL0     H74642   0.584   9.174   1.499  0.2135  0.1586  0.4827
  553MOL0     H74643   0.863   9.279   1.854  1.0520  1.5090  0.8328
  553MOL0     H74644   0.848   9.430   1.769 -1.2451 -0.0748 -1.1756
  553MOL0     H74645   1.064   9.384   1.737  1.6542 -0.2185 -0.4664
  553MOL0     H74646   0.993   9.318   1.585 -2.6657 -1.5272  1.0535
  553MOL0     H74647   0.965   9.090   1.720 -1.0756  1.2527 -3.6832
  553MOL0     H74648   1.072   9.166   1.838  1.7357 -3.1857  0.5396
  553MOL0     H74649   1.188   9.029   1.701 -1.4387  0.0356  2.0612
  553MOL0     H74650   1.154   9.113   1.549  0.4483  0.4020  0.3682
  553MOL0     H74651   1.460   9.357   1.675 -1.1060  2.0554  3.3250
  553MOL0     H74652   0.645   9.345   1.889 -1.4673  1.9696  0.2231
  553MOL0     H74653   0.386   9.294   2.031 -0.1630  0.0024  1.0534
  553MOL0     H74654   0.492   9.430   2.019  0.7059 -2.0042  0.2040
  553MOL0     H74655   0.324   9.451   1.971 -0.9299 -0.8139 -0.0648
  554MOL0     O74656   3.412   1.199  10.256  0.5563  0.6248 -0.4411
  554MOL0     C74657   3.364   1.225  10.364 -0.9264  0.5633 -0.2091
  554MOL0     O74658   3.403   1.166  10.483  0.2033 -0.6483 -0.6152
  554MOL0     C74659   3.524   1.102  10.474  0.1400 -0.2179  0.1020
  554MOL0     C74660   3.649   1.163  10.496 -0.0924 -1.2710  0.5099
  554MOL0     C74661   3.759   1.090  10.496 -0.6086  0.0979  0.9220
  554MOL0     C74662   3.754   0.947  10.468 -0.1180  0.0221 -0.3377
  554MOL0     O74663   3.860   0.861  10.492 -0.0547  0.7011 -0.3824
  554MOL0     C74664   3.980   0.915  10.544  0.7417  0.1720 -0.6663
  554MOL0     C74665   4.049   0.786  10.570  0.7035  0.3813  0.7406
  554MOL0     C74666   4.197   0.803  10.608  0.5352  0.5122 -0.3222
  554MOL0     C74667   4.226   0.687  10.702 -1.1030 -0.3191 -0.3800
  554MOL0     C74668   4.370   0.693  10.750  0.4033 -0.0168 -0.3905
  554MOL0     C74669   4.411   0.559  10.805  0.0425  0.0976  0.0505
  554MOL0     C74670   4.566   0.544  10.835 -0.7830 -0.4926  0.0030
  554MOL0     C74671   4.611   0.629  10.956 -0.6378  0.0362  0.9440
  554MOL0     N74672   4.761   0.616  10.969 -0.6174 -0.3932  0.4641
  554MOL0     C74673   4.844   0.730  10.976 -0.2187 -0.1297  0.3226
  554MOL0     C74674   4.969   0.674  10.997 -0.3002  1.1116  0.0480
  554MOL0     C74675   5.099   0.751  11.004 -0.3708 -0.3213 -0.4909
  554MOL0     C74676   5.191   0.699  11.119  1.0590 -0.0909  0.0684
  554MOL0     C74677   5.111   0.705  11.253 -0.5871 -0.3230 -0.3273
  554MOL0     C74678   5.132   0.833  11.339  0.3112 -0.3615  0.1795
  554MOL0     O74679   5.125   0.947  11.257  0.5151 -0.4756  0.1782
  554MOL0     C74680   5.004   1.000  11.225  1.2431  0.4030  0.8679
  554MOL0     C74681   5.010   1.134  11.174 -0.5179 -0.8233  0.5664
  554MOL0     C74682   4.890   1.209  11.163 -0.6912 -0.1032  0.5884
  554MOL0     C74683   4.771   1.156  11.178  0.6316  0.3145 -0.6748
  554MOL0     C74684   4.656   1.241  11.157  0.7997 -0.1500 -0.2808
  554MOL0     O74685   4.542   1.229  11.242 -0.3248  0.3818 -0.1375
  554MOL0     C74686   4.427   1.290  11.201  0.0235  0.6295 -0.3211
  554MOL0     C74687   4.306   1.214  11.217 -0.0798  0.1295  0.3737
  554MOL0     C74688   4.179   1.269  11.190 -0.4560  0.3171  0.0525
  554MOL0     C74689   4.170   1.402  11.150 -0.3747 -0.3461  0.6558
  554MOL0     O74690   4.049   1.465  11.115 -0.2964  0.1016 -0.5755
  554MOL0     C74691   3.942   1.377  11.075  0.1078  0.0566 -0.4187
  554MOL0     C74692   3.827   1.457  11.017  1.3906 -0.2467 -0.3205
  554MOL0     C74693   3.764   1.550  11.130 -0.2620  0.2516  0.0114
  554MOL0     C74694   3.691   1.671  11.069 -0.4145  0.3714  0.8921
  554MOL0     C74695   3.651   1.766  11.184 -0.1693 -0.4671 -0.3351
  554MOL0     C74696   3.571   1.880  11.117  0.4902 -0.6015  0.6439
  554MOL0     C74697   3.669   1.972  11.041  0.4122 -0.1493  0.1105
  554MOL0     C74698   3.606   2.100  10.989 -0.0683 -0.4319 -0.3350
  554MOL0    Cl74699   3.530   2.067  10.831  0.2275  0.0443 -0.1093
  554MOL0     C74700   4.291   1.476  11.131  0.1589 -0.7691  0.4945
  554MOL0     C74701   4.417   1.428  11.159 -1.1957 -0.0175 -0.6636
  554MOL0     O74702   4.668   1.322  11.064  0.5178  0.1139  0.4478
  554MOL0     C74703   4.754   1.028  11.229 -0.6112 -0.3586  0.2394
  554MOL0     C74704   4.873   0.950  11.259 -0.0108 -0.0373  0.3385
  554MOL0     N74705   4.956   0.536  11.019 -0.1573 -0.0414  0.0187
  554MOL0     N74706   4.835   0.501  11.001 -0.3824  0.2786  0.5693
  554MOL0     C74707   3.630   0.889  10.439  0.4295  0.0790 -0.2954
  554MOL0     C74708   3.512   0.962  10.443  0.3313  0.2928  0.3572
  554MOL0     C74709   3.264   1.311  10.370 -0.2671 -0.8522  0.3414
  554MOL0     C74710   3.154   1.279  10.454  0.5092  0.7005  0.2820
  554MOL0     C74711   3.047   1.372  10.471  0.3465 -0.8869  0.4868
  554MOL0     C74712   3.058   1.507  10.410 -0.2875  0.2943 -0.6071
  554MOL0     O74713   2.951   1.591  10.431 -0.1812  0.2583  0.6847
  554MOL0     C74714   2.926   1.706  10.342 -0.4313  0.1728 -0.3925
  554MOL0     C74715   2.878   1.666  10.198  0.8739  0.4893 -0.9690
  554MOL0     C74716   2.733   1.606  10.196  0.5132 -0.1833  0.3521
  554MOL0     C74717   2.674   1.527  10.069 -0.4276  0.2214  0.0984
  554MOL0     C74718   2.718   1.391  10.059  0.8850  0.7522  0.1350
  554MOL0     C74719   2.761   1.282  10.052  0.1897 -0.8214 -0.4845
  554MOL0     C74720   3.164   1.528  10.325  0.2746  0.1734 -0.0154
  554MOL0     C74721   3.266   1.433  10.307 -0.3854  0.2807 -0.4524
  554MOL0     C74722   3.387   1.473  10.223  0.1316  0.0291 -0.9018
  554MOL0     H74723   3.634   1.269  10.517 -2.5455 -0.7644 -2.9655
  554MOL0     H74724   3.856   1.125  10.529  0.1607 -1.8456  0.8604
  554MOL0     H74725   4.034   0.982  10.478 -0.7257 -1.7684 -4.1331
  554MOL0     H74726   3.959   0.964  10.640  2.3381  0.9246 -0.6667
  554MOL0     H74727   4.054   0.724  10.481 -2.3795  0.6113  0.3166
  554MOL0     H74728   3.997   0.726  10.645 -1.3162  1.8637  0.6100
  554MOL0     H74729   4.206   0.901  10.656 -0.6299  0.1339  0.7403
  554MOL0     H74730   4.266   0.781  10.526  2.0626 -2.3631  1.5471
  554MOL0     H74731   4.161   0.684  10.790  2.7266 -3.0182  2.7291
  554MOL0     H74732   4.220   0.596  10.642  1.8298 -0.5897 -0.4268
  554MOL0     H74733   4.439   0.727  10.672 -1.7984  2.4236 -1.4047
  554MOL0     H74734   4.380   0.761  10.835  0.3349 -0.1442 -0.2788
  554MOL0     H74735   4.359   0.546  10.900  0.4715 -0.5097  0.2119
  554MOL0     H74736   4.388   0.481  10.731 -0.9329  0.6586 -0.2592
  554MOL0     H74737   4.622   0.573  10.745  1.4467  1.6585  1.9582
  554MOL0     H74738   4.592   0.447  10.877 -0.9016  0.6735  2.9815
  554MOL0     H74739   4.574   0.730  10.939 -0.1294  0.1998  0.7995
  554MOL0     H74740   4.570   0.592  11.051  0.8166 -2.4228  0.6988
  554MOL0     H74741   4.808   0.828  10.947  1.3901  0.2574 -0.4458
  554MOL0     H74742   5.155   0.741  10.910 -0.4163  2.0714 -0.8357
  554MOL0     H74743   5.075   0.857  11.012  0.1977 -0.2467  0.4265
  554MOL0     H74744   5.224   0.595  11.111  3.1158  0.3249  2.0993
  554MOL0     H74745   5.277   0.766  11.120 -0.8278  2.4916 -0.4070
  554MOL0     H74746   5.154   0.623  11.312  3.1447  0.3577 -1.8429
  554MOL0     H74747   5.004   0.682  11.244 -0.9894  1.8921 -2.3867
  554MOL0     H74748   5.232   0.835  11.383  0.0196 -2.9495  1.1140
  554MOL0     H74749   5.053   0.839  11.414  1.1497  2.4551  0.9493
  554MOL0     H74750   5.104   1.187  11.160 -0.1029 -1.3403  1.3162
  554MOL0     H74751   4.897   1.307  11.117 -1.0474 -1.0876 -1.6946
  554MOL0     H74752   4.306   1.114  11.256 -1.2448 -0.4820 -1.0693
  554MOL0     H74753   4.091   1.207  11.201 -0.2822 -0.2047 -1.3233
  554MOL0     H74754   3.970   1.292  11.013 -2.6351 -2.7267  1.8480
  554MOL0     H74755   3.909   1.324  11.165  1.0717 -1.4388 -0.9129
  554MOL0     H74756   3.858   1.516  10.930  3.1503  1.0564  1.1216
  554MOL0     H74757   3.756   1.380  10.986  0.0024  1.0444 -0.4602
  554MOL0     H74758   3.694   1.496  11.195 -2.2678 -1.0690 -3.0276
  554MOL0     H74759   3.841   1.585  11.198 -0.1837 -0.9016  0.5510
  554MOL0     H74760   3.608   1.619  11.021  1.7279 -2.4786 -0.0139
  554MOL0     H74761   3.749   1.727  10.995 -1.2984  0.9317  0.6142
  554MOL0     H74762   3.740   1.812  11.227  1.1528 -1.4214 -1.9541
  554MOL0     H74763   3.587   1.725  11.263 -0.5331  0.9056  0.1019
  554MOL0     H74764   3.486   1.852  11.054  0.4502  1.1382 -0.1572
  554MOL0     H74765   3.524   1.941  11.194 -0.3366  2.3488 -1.9683
  554MOL0     H74766   3.720   1.933  10.952  0.3698 -0.3137  0.1585
  554MOL0     H74767   3.749   1.994  11.111 -2.0256  2.6321  2.2977
  554MOL0     H74768   3.528   2.149  11.049 -0.0670  0.8027 -1.2969
  554MOL0     H74769   3.691   2.164  10.964  0.2202 -1.0901 -1.0579
  554MOL0     H74770   4.287   1.576  11.090 -0.1838 -0.9856 -0.0098
  554MOL0     H74771   4.505   1.492  11.158 -0.7732 -0.3748  2.5155
  554MOL0     H74772   4.655   0.984  11.236 -1.0298  0.8305  3.5236
  554MOL0     H74773   4.865   0.849  11.298 -2.2452  0.2243  0.7255
  554MOL0     H74774   3.624   0.784  10.410  3.2697 -1.0662  2.6817
  554MOL0     H74775   3.418   0.909  10.436  0.0397  1.0284 -2.9163
  554MOL0     H74776   3.157   1.176  10.488  0.7682  0.9888  1.1449
  554MOL0     H74777   2.965   1.346  10.537 -1.9346  1.3271 -1.2869
  554MOL0     H74778   3.017   1.763  10.323  1.6886 -2.4829  1.0691
  554MOL0     H74779   2.868   1.788  10.384  0.1209 -0.7643  2.3945
  554MOL0     H74780   2.953   1.595  10.160  1.3207  1.1653 -1.3814
  554MOL0     H74781   2.892   1.752  10.133 -0.9033  0.6331 -1.2091
  554MOL0     H74782   2.670   1.693  10.216  0.0453  0.1991 -2.4053
  554MOL0     H74783   2.727   1.543  10.285 -0.1092 -0.6274  0.0009
  554MOL0     H74784   2.566   1.530  10.082 -0.4852 -3.8131  1.7756
  554MOL0     H74785   2.695   1.569   9.970 -3.2138 -1.5463 -1.3689
  554MOL0     H74786   2.793   1.180  10.044 -0.3550 -1.3653  2.7756
  554MOL0     H74787   3.170   1.623  10.271 -0.4234 -0.5629 -1.4614
  554MOL0     H74788   3.384   1.581  10.209 -1.0679  0.4216  1.8892
  554MOL0     H74789   3.485   1.445  10.261 -0.2473  1.5616  1.4027
  554MOL0     H74790   3.375   1.423  10.126 -1.8919  1.7847 -1.6340
  555MOL0     O74791   5.922  10.137   3.573 -0.5924 -0.0458  0.1331
  555MOL0     C74792   5.892  10.246   3.533 -1.1873 -0.1593 -0.1144
  555MOL0     O74793   5.954  10.312   3.429 -0.0242  0.0789  0.2683
  555MOL0     C74794   6.076  10.264   3.389  0.2441 -0.1415 -0.8833
  555MOL0     C74795   6.184  10.267   3.475  0.1895  0.4015 -0.1718
  555MOL0     C74796   6.310  10.235   3.427  0.0660 -0.0320  0.0483
  555MOL0     C74797   6.324  10.186   3.295 -0.2894  0.4892  0.3397
  555MOL0     O74798   6.454  10.158   3.252  0.0778  0.2540 -0.0066
  555MOL0     C74799   6.466  10.105   3.119  0.2820 -0.2898  0.2349
  555MOL0     C74800   6.608  10.069   3.089 -0.3890  0.8807  0.8046
  555MOL0     C74801   6.693  10.189   3.092 -0.4394 -0.5669  1.2695
  555MOL0     C74802   6.836  10.156   3.117 -0.7231 -0.3923  0.1431
  555MOL0     C74803   6.935  10.277   3.106  0.0601  0.1996  0.3496
  555MOL0     C74804   7.091  10.235   3.088  0.4140 -0.6567  0.2021
  555MOL0     C74805   7.189  10.364   3.089  0.6543  0.7170 -0.6071
  555MOL0     C74806   7.341  10.324   3.093  0.1684 -0.7510 -0.3224
  555MOL0     N74807   7.382  10.251   2.974  0.2859 -0.0589  0.7363
  555MOL0     C74808   7.413  10.309   2.851  0.3862 -0.2391  0.8194
  555MOL0     C74809   7.428  10.204   2.762  0.8426  0.3556 -0.2734
  555MOL0     C74810   7.454  10.216   2.617 -0.5967 -0.0051  0.0306
  555MOL0     C74811   7.593  10.291   2.588 -0.1811  0.7725 -0.1079
  555MOL0     C74812   7.604  10.338   2.439  0.1269  0.4108 -0.2491
  555MOL0     C74813   7.736  10.402   2.398 -0.2414 -0.6286 -1.2272
  555MOL0     O74814   7.841  10.316   2.450  0.3450  0.2613 -0.0639
  555MOL0     C74815   7.970  10.343   2.424  0.0504 -0.0017  1.3355
  555MOL0     C74816   8.019  10.460   2.351 -0.5547  0.6090 -0.4277
  555MOL0     C74817   8.150  10.474   2.329 -1.3104 -0.6348 -0.7114
  555MOL0     C74818   8.244  10.378   2.365  0.8266  0.6419 -0.5617
  555MOL0     C74819   8.387  10.392   2.339  0.0594  0.3975 -0.3818
  555MOL0     O74820   8.468  10.287   2.385 -0.3184 -0.1836  0.9977
  555MOL0     C74821   8.602  10.291   2.351  0.7365  0.1830  0.6594
  555MOL0     C74822   8.673  10.405   2.381  0.6416  0.5379 -0.7887
  555MOL0     C74823   8.811  10.410   2.361 -0.0900 -0.1090 -0.0259
  555MOL0     C74824   8.881  10.303   2.307 -0.3574  0.0456 -0.4696
  555MOL0     O74825   9.016  10.296   2.285 -0.8508 -0.1199  0.1298
  555MOL0     C74826   9.080  10.399   2.207 -0.4551  0.2549  0.0922
  555MOL0     C74827   9.227  10.358   2.191  0.0720 -0.2129 -0.5106
  555MOL0     C74828   9.309  10.458   2.109 -0.0441  0.2845  0.2284
  555MOL0     C74829   9.461  10.422   2.115  0.3156  0.1500  0.1127
  555MOL0     C74830   9.525  10.506   2.006 -0.4574 -0.0205 -0.2357
  555MOL0     C74831   9.672  10.512   2.024 -0.7987 -0.3438 -0.2256
  555MOL0     C74832   9.738  10.603   1.926 -0.2457  0.2119  0.0360
  555MOL0     C74833   9.890  10.570   1.918  1.6251  0.0092 -0.4930
  555MOL0    Cl74834   9.913  10.431   1.820  0.3271 -0.1011  0.3255
  555MOL0     C74835   8.808  10.195   2.259  0.0990  0.7042 -1.0403
  555MOL0     C74836   8.670  10.190   2.284  0.3093  0.7758  0.8448
  555MOL0     O74837   8.425  10.501   2.302 -0.4699  0.0255 -0.4690
  555MOL0     C74838   8.199  10.262   2.432 -0.6499  0.1232 -0.1089
  555MOL0     C74839   8.063  10.248   2.462  0.2119 -0.1689 -0.1155
  555MOL0     N74840   7.388  10.085   2.836 -0.0225  0.6506  0.4264
  555MOL0     N74841   7.372  10.111   2.959 -0.1633  0.0113 -0.1039
  555MOL0     C74842   6.217  10.176   3.213  0.8456  0.3591  0.6379
  555MOL0     C74843   6.092  10.210   3.259 -0.0869  0.1254 -0.8937
  555MOL0     C74844   5.765  10.309   3.584  0.2075  0.0592  0.3736
  555MOL0     C74845   5.731  10.438   3.526  0.4442  0.0595 -0.5851
  555MOL0     C74846   5.603  10.498   3.550  0.8007 -0.1513 -0.3075
  555MOL0     C74847   5.501  10.422   3.612  0.0642  0.1080 -0.5359
  555MOL0     O74848   5.372  10.472   3.639 -0.5862 -0.5650  0.2174
  555MOL0     C74849   5.342  10.613   3.612 -0.0759 -0.0143 -0.4175
  555MOL0     C74850   5.377  10.706   3.724  0.5291  0.6171  0.1561
  555MOL0     C74851   5.375  10.850   3.681  0.2865 -0.1922  0.7498
  555MOL0     C74852   5.430  10.956   3.780  0.1155 -0.3444  0.4605
  555MOL0     C74853   5.398  11.090   3.725  1.4370 -0.1427 -0.5590
  555MOL0     C74854   5.364  11.204   3.703 -0.3247 -0.3447  0.1640
  555MOL0     C74855   5.534  10.296   3.660  0.2600 -0.6543  0.1334
  555MOL0     C74856   5.662  10.234   3.646 -0.3009 -0.1669 -0.7420
  555MOL0     C74857   5.667  10.080   3.680  0.2069 -0.2935 -1.2321
  555MOL0     H74858   6.171  10.295   3.580  0.3077 -1.0306  0.2431
  555MOL0     H74859   6.390  10.251   3.498 -0.7768  2.5604  0.5178
  555MOL0     H74860   6.402  10.017   3.110 -0.0121 -0.4734  3.1231
  555MOL0     H74861   6.440  10.176   3.040  1.9329 -0.9393 -0.9624
  555MOL0     H74862   6.611  10.018   2.992 -0.3666  0.1696  1.1703
  555MOL0     H74863   6.633   9.996   3.166  1.7351 -1.2741 -1.7071
  555MOL0     H74864   6.666  10.262   3.169  1.1431  0.2509  1.0931
  555MOL0     H74865   6.693  10.232   2.992  0.5769 -1.3476  0.9197
  555MOL0     H74866   6.856  10.121   3.219  0.7846 -0.9191 -0.3070
  555MOL0     H74867   6.872  10.078   3.050  3.2541  0.3377  1.1454
  555MOL0     H74868   6.906  10.338   3.020 -0.0792 -0.2379  0.0825
  555MOL0     H74869   6.924  10.337   3.197 -0.4495  0.1924  0.2938
  555MOL0     H74870   7.119  10.164   3.165 -0.5157  1.5103  2.6748
  555MOL0     H74871   7.100  10.190   2.988  3.2160 -3.4881  1.5800
  555MOL0     H74872   7.158  10.429   3.172 -1.0432  1.4110 -1.7353
  555MOL0     H74873   7.166  10.428   3.004  0.9288 -0.0120 -1.2367
  555MOL0     H74874   7.392  10.420   3.100  1.1233 -1.3478  1.8157
  555MOL0     H74875   7.369  10.277   3.188 -0.7105  1.8989  1.3530
  555MOL0     H74876   7.411  10.416   2.831 -1.4734 -0.2109  0.9777
  555MOL0     H74877   7.465  10.120   2.566  2.1130 -0.3412  1.0661
  555MOL0     H74878   7.373  10.278   2.577  1.5579  2.2199 -1.1451
  555MOL0     H74879   7.593  10.383   2.646  1.6379 -0.4615  1.9845
  555MOL0     H74880   7.666  10.214   2.613 -1.9454 -0.9573 -0.0915
  555MOL0     H74881   7.525  10.411   2.418  1.4338  1.3399 -2.1933
  555MOL0     H74882   7.578  10.258   2.369  1.7206 -0.9270  0.6224
  555MOL0     H74883   7.737  10.504   2.439  0.0832 -1.1224  0.0135
  555MOL0     H74884   7.739  10.390   2.289  1.9391  2.4641 -1.6348
  555MOL0     H74885   7.951  10.535   2.312 -0.1981  0.2220 -1.8363
  555MOL0     H74886   8.190  10.562   2.278 -0.1860  0.7884  2.3880
  555MOL0     H74887   8.626  10.491   2.428 -0.8925 -0.4519 -0.4462
  555MOL0     H74888   8.876  10.491   2.392  1.4577 -1.5255  0.6004
  555MOL0     H74889   9.026  10.392   2.112 -0.7671 -0.0370  0.2867
  555MOL0     H74890   9.073  10.491   2.266 -1.8047 -0.5257  1.2199
  555MOL0     H74891   9.269  10.346   2.291 -0.0682  1.7967 -0.1721
  555MOL0     H74892   9.231  10.257   2.150  3.2044  0.0112 -0.9993
  555MOL0     H74893   9.282  10.447   2.003 -1.1580 -4.5575  0.7958
  555MOL0     H74894   9.305  10.559   2.152 -2.2343  0.6208 -0.5793
  555MOL0     H74895   9.472  10.314   2.099  1.1417  0.1870  0.3785
  555MOL0     H74896   9.510  10.432   2.212  2.4657 -1.4425 -0.7115
  555MOL0     H74897   9.494  10.611   2.013  0.2086  0.2960 -1.6457
  555MOL0     H74898   9.500  10.464   1.908 -1.0861  1.2758 -0.6444
  555MOL0     H74899   9.692  10.547   2.126 -1.6802  1.3966 -0.6158
  555MOL0     H74900   9.711  10.411   2.009 -1.5133 -0.4845 -1.2102
  555MOL0     H74901   9.722  10.706   1.958 -1.2365  0.8520 -2.3169
  555MOL0     H74902   9.686  10.592   1.831 -0.1132 -4.3091  0.2544
  555MOL0     H74903   9.949  10.650   1.871  2.2650  1.0035  1.8341
  555MOL0     H74904   9.933  10.546   2.016 -0.2328  0.0561  0.3874
  555MOL0     H74905   8.847  10.111   2.203 -2.1512 -0.6847 -0.6797
  555MOL0     H74906   8.622  10.099   2.249  0.3938  1.0610 -0.0353
  555MOL0     H74907   8.269  10.181   2.450  0.6021 -0.1003 -4.7891
  555MOL0     H74908   8.034  10.157   2.514  1.4946 -1.1672 -1.0878
  555MOL0     H74909   6.233  10.145   3.110  3.5838  0.7415  0.8694
  555MOL0     H74910   6.005  10.197   3.196 -0.0507 -0.2301 -0.8722
  555MOL0     H74911   5.799  10.489   3.459  0.7596 -1.1945 -1.2284
  555MOL0     H74912   5.572  10.589   3.499  0.9026  0.6622  1.0414
  555MOL0     H74913   5.235  10.630   3.594  0.4152  0.9657 -2.8888
  555MOL0     H74914   5.392  10.650   3.522 -1.0403  0.1584 -0.8979
  555MOL0     H74915   5.475  10.681   3.764  0.9537  1.3554 -0.3962
  555MOL0     H74916   5.305  10.691   3.805 -1.5595  1.9746 -1.3343
  555MOL0     H74917   5.270  10.870   3.659  0.2058 -1.3905 -0.0044
  555MOL0     H74918   5.430  10.861   3.587  1.4930  1.8312  1.6237
  555MOL0     H74919   5.379  10.945   3.876 -0.0287  1.3343  0.6132
  555MOL0     H74920   5.539  10.951   3.783  0.5953  3.5779 -2.2208
  555MOL0     H74921   5.354  11.310   3.696 -0.9152 -0.4515 -0.9276
  555MOL0     H74922   5.456  10.231   3.699 -0.3093 -2.2045 -3.2059
  555MOL0     H74923   5.586  10.055   3.749  0.2693 -1.5914 -1.6098
  555MOL0     H74924   5.650  10.022   3.589  1.8005  0.0658 -1.7937
  555MOL0     H74925   5.757  10.049   3.734 -0.1238  0.9863  0.1363
  556MOL0     O74926   6.433   1.434  11.215  0.8969 -0.5764 -0.5263
  556MOL0     C74927   6.421   1.538  11.282 -0.2810  0.7745  0.3149
  556MOL0     O74928   6.310   1.573  11.343 -0.4286  0.6495  0.4656
  556MOL0     C74929   6.218   1.480  11.380  0.3994  0.0474  0.6268
  556MOL0     C74930   6.088   1.524  11.396  0.9193  0.8003 -0.6281
  556MOL0     C74931   5.991   1.444  11.466 -0.0515 -0.1180  0.2502
  556MOL0     C74932   6.022   1.319  11.513 -0.6316  0.1530  0.7800
  556MOL0     O74933   5.918   1.261  11.572 -0.3072 -0.0447 -0.3045
  556MOL0     C74934   5.940   1.209  11.705 -0.5638  0.0253 -0.3861
  556MOL0     C74935   5.810   1.143  11.760  0.4107 -0.2755  0.5955
  556MOL0     C74936   5.823   1.067  11.887 -0.0838  0.2155 -0.5537
  556MOL0     C74937   5.840   1.154  12.010  0.3106 -0.5027 -0.0882
  556MOL0     C74938   5.859   1.071  12.142 -0.0893 -0.3758 -0.3406
  556MOL0     C74939   5.964   0.969  12.128  0.4784 -0.0011 -0.5615
  556MOL0     C74940   5.985   0.894  12.257 -0.0910 -0.1135 -0.3110
  556MOL0     C74941   6.071   0.972  12.359  0.2129  0.0927 -0.2055
  556MOL0     N74942   6.206   0.910  12.383 -0.1339 -0.1182 -0.6823
  556MOL0     C74943   6.234   0.782  12.426 -0.0244 -0.2399  0.2465
  556MOL0     C74944   6.367   0.763  12.410  0.3080 -0.3808 -0.6466
  556MOL0     C74945   6.432   0.623  12.409 -0.1608 -0.5163 -0.2891
  556MOL0     C74946   6.492   0.604  12.544 -0.6941  0.0440 -0.9309
  556MOL0     C74947   6.622   0.694  12.564  0.8855 -0.1635  0.0564
  556MOL0     C74948   6.739   0.662  12.469 -0.3088 -0.1992 -0.5920
  556MOL0     O74949   6.857   0.732  12.516  0.5284  0.2101 -0.0431
  556MOL0     C74950   6.979   0.716  12.445 -0.5168  0.5030 -0.7087
  556MOL0     C74951   6.994   0.647  12.324 -1.2301  0.2454  0.2855
  556MOL0     C74952   7.122   0.627  12.264 -0.7793 -0.4854  0.8323
  556MOL0     C74953   7.237   0.673  12.328 -0.2575  0.3564 -0.3738
  556MOL0     C74954   7.369   0.648  12.265 -0.5594 -0.1197 -0.4397
  556MOL0     O74955   7.379   0.568  12.164  0.2527  0.2840 -0.2623
  556MOL0     C74956   7.486   0.577  12.077  0.5733 -0.8077  0.1828
  556MOL0     C74957   7.446   0.608  11.949 -1.2508  0.4602  0.2320
  556MOL0     C74958   7.545   0.628  11.842 -0.8014  0.1022  0.7743
  556MOL0     C74959   7.677   0.635  11.873 -0.1598  0.6204 -0.3051
  556MOL0     O74960   7.767   0.664  11.777 -0.1482  0.5134 -0.2951
  556MOL0     C74961   7.901   0.606  11.784  0.2177 -0.5498  0.1192
  556MOL0     C74962   7.973   0.653  11.649 -0.6040  0.2168 -0.4970
  556MOL0     C74963   8.116   0.595  11.637 -0.1135 -0.4515 -0.1232
  556MOL0     C74964   8.159   0.585  11.491  0.3059  0.2972  0.7903
  556MOL0     C74965   8.318   0.564  11.481  0.0031 -0.3057  0.2921
  556MOL0     C74966   8.370   0.553  11.341  0.0348  0.6562  0.4038
  556MOL0     C74967   8.521   0.522  11.356  0.1054 -0.6605 -0.8955
  556MOL0     C74968   8.586   0.502  11.218  0.0080  0.0919 -0.5395
  556MOL0    Cl74969   8.769   0.531  11.233 -0.3365  0.0682  0.5779
  556MOL0     C74970   7.710   0.611  12.010  0.1516 -0.7168 -0.4125
  556MOL0     C74971   7.621   0.573  12.115 -0.2333 -0.9439  0.2899
  556MOL0     O74972   7.461   0.715  12.312 -0.7637  0.3971 -0.1489
  556MOL0     C74973   7.219   0.758  12.442 -0.6424  0.3031 -0.4756
  556MOL0     C74974   7.092   0.775  12.502 -0.6807  0.4023  0.0212
  556MOL0     N74975   6.425   0.880  12.359  0.0989 -0.6887  0.1151
  556MOL0     N74976   6.326   0.974  12.352  0.3269  0.1869 -0.2520
  556MOL0     C74977   6.152   1.263  11.480 -0.2129  0.0862 -0.3226
  556MOL0     C74978   6.252   1.343  11.420 -0.0604 -0.8283 -0.2735
  556MOL0     C74979   6.541   1.616  11.314 -0.5019 -1.4602 -0.5361
  556MOL0     C74980   6.523   1.747  11.356  0.0692  0.1058  0.4091
  556MOL0     C74981   6.623   1.833  11.399 -0.0336  0.6615 -0.1339
  556MOL0     C74982   6.753   1.787  11.410 -0.1629 -0.2411 -0.2976
  556MOL0     O74983   6.855   1.861  11.457 -0.5570 -0.2120  0.4856
  556MOL0     C74984   6.836   1.962  11.558  0.5213 -0.1918  0.9905
  556MOL0     C74985   6.964   2.038  11.580 -0.3079  0.0801 -0.7763
  556MOL0     C74986   7.077   1.955  11.641  0.7888  0.3650  1.5226
  556MOL0     C74987   7.189   2.053  11.673  0.4289 -0.6717  0.6359
  556MOL0     C74988   7.293   1.980  11.743 -0.2324 -0.5786 -0.2336
  556MOL0     C74989   7.391   1.926  11.797  0.1473  0.4126  0.2670
  556MOL0     C74990   6.784   1.668  11.345  0.5741  0.0978  0.3060
  556MOL0     C74991   6.682   1.578  11.300  0.2185 -0.3145 -0.6341
  556MOL0     C74992   6.728   1.460  11.222 -1.1733  0.5748 -1.1340
  556MOL0     H74993   6.064   1.626  11.369 -1.2183  0.3308 -0.7035
  556MOL0     H74994   5.894   1.486  11.487  0.7902  3.6483 -2.3231
  556MOL0     H74995   6.022   1.137  11.708 -2.0209 -2.0155 -3.6791
  556MOL0     H74996   5.962   1.291  11.775 -1.6239  1.4104 -1.6024
  556MOL0     H74997   5.768   1.075  11.685  0.9546 -1.6214  1.4755
  556MOL0     H74998   5.727   1.214  11.767 -0.4325 -1.1200 -0.4035
  556MOL0     H74999   5.910   1.001  11.881  0.0527  0.1830  1.1469
  556MOL0     H75000   5.738   1.005  11.914  0.1476 -0.0208 -0.3541
  556MOL0     H75001   5.933   1.212  12.003 -0.2442  0.4606  0.3526
  556MOL0     H75002   5.757   1.224  12.022  0.9992  0.0588  1.7574
  556MOL0     H75003   5.871   1.143  12.222  0.1106 -0.3551 -0.3902
  556MOL0     H75004   5.760   1.026  12.159 -0.4851  0.0606 -1.3736
  556MOL0     H75005   5.939   0.899  12.047  0.2907  1.6508 -1.9813
  556MOL0     H75006   6.055   1.023  12.099 -1.2108  2.3491 -1.7668
  556MOL0     H75007   6.034   0.799  12.232 -0.0439 -0.3900  0.7835
  556MOL0     H75008   5.886   0.874  12.299 -1.4470 -0.2119 -3.2307
  556MOL0     H75009   6.079   1.075  12.326  1.1648  0.9794  2.5181
  556MOL0     H75010   6.018   0.963  12.454  2.4273 -0.0724  1.0746
  556MOL0     H75011   6.168   0.697  12.434 -0.0613 -0.3904 -1.3116
  556MOL0     H75012   6.352   0.550  12.398 -1.7145  1.4304 -2.9963
  556MOL0     H75013   6.502   0.614  12.326 -1.2193 -0.4489 -1.2066
  556MOL0     H75014   6.422   0.628  12.624  1.7050  1.8872  0.7612
  556MOL0     H75015   6.520   0.498  12.550  0.7136  0.2801 -2.5572
  556MOL0     H75016   6.660   0.674  12.665  1.9295  0.5288 -0.1857
  556MOL0     H75017   6.585   0.797  12.565  1.4136  0.0378 -0.5976
  556MOL0     H75018   6.707   0.683  12.367  1.4007 -0.1100 -1.1331
  556MOL0     H75019   6.747   0.554  12.485 -0.5560  0.0507  1.6749
  556MOL0     H75020   6.906   0.601  12.278 -0.2649 -1.7369  0.3160
  556MOL0     H75021   7.119   0.572  12.171 -0.0481 -1.2499  1.2522
  556MOL0     H75022   7.339   0.608  11.934 -0.9928 -1.7399 -2.4933
  556MOL0     H75023   7.518   0.658  11.741 -2.8334 -0.6766  1.0368
  556MOL0     H75024   7.956   0.660  11.862  1.2238  3.9960 -3.2883
  556MOL0     H75025   7.899   0.497  11.792 -0.6989 -0.5121  0.5256
  556MOL0     H75026   7.912   0.626  11.563 -0.7755 -0.5910 -0.1302
  556MOL0     H75027   7.985   0.760  11.669  0.9368 -0.2751  1.6752
  556MOL0     H75028   8.182   0.672  11.678 -0.3196  0.3773 -1.2997
  556MOL0     H75029   8.126   0.500  11.691 -1.1706  0.3547  1.6029
  556MOL0     H75030   8.123   0.668  11.429 -1.5497  0.2662  1.7382
  556MOL0     H75031   8.106   0.505  11.438  1.5616  0.0059 -0.0649
  556MOL0     H75032   8.346   0.470  11.529 -0.1918  0.1594  1.3347
  556MOL0     H75033   8.364   0.647  11.534  1.7309 -0.1300 -1.3631
  556MOL0     H75034   8.310   0.478  11.287  0.2966  2.3422 -2.3963
  556MOL0     H75035   8.360   0.650  11.292 -4.3377 -0.7881 -2.2266
  556MOL0     H75036   8.536   0.428  11.408  0.6690 -0.1262 -0.0749
  556MOL0     H75037   8.565   0.609  11.405 -0.9655  0.2288 -1.4482
  556MOL0     H75038   8.562   0.400  11.185 -1.0626  0.1091  0.1093
  556MOL0     H75039   8.538   0.567  11.144 -1.9199 -0.6440 -0.0237
  556MOL0     H75040   7.815   0.617  12.038 -0.4884 -0.1349  2.0723
  556MOL0     H75041   7.655   0.559  12.217 -0.3281  1.1425  0.6626
  556MOL0     H75042   7.303   0.802  12.494 -1.1585 -1.0908  1.6410
  556MOL0     H75043   7.069   0.823  12.597  0.2473 -1.2795  1.1496
  556MOL0     H75044   6.171   1.157  11.496  0.5959  0.0526 -1.3930
  556MOL0     H75045   6.355   1.310  11.422  0.2084 -0.0313 -0.7476
  556MOL0     H75046   6.420   1.780  11.356 -0.6934 -2.0507 -0.4430
  556MOL0     H75047   6.600   1.934  11.429 -1.3558  0.7091 -1.2246
  556MOL0     H75048   6.796   1.916  11.649  0.6441  1.3887  1.8746
  556MOL0     H75049   6.761   2.036  11.529  1.5036  0.0872 -1.0469
  556MOL0     H75050   6.934   2.118  11.648  1.9843  1.7147 -1.5752
  556MOL0     H75051   6.997   2.092  11.490 -2.6414  1.5351 -0.8305
  556MOL0     H75052   7.106   1.871  11.578 -1.8153 -0.0141  0.6805
  556MOL0     H75053   7.029   1.914  11.730 -0.0233  0.7097  1.2595
  556MOL0     H75054   7.226   2.094  11.579  0.1141  0.1656  0.8752
  556MOL0     H75055   7.165   2.134  11.742  0.9359 -0.0574  0.0931
  556MOL0     H75056   7.454   1.863  11.857  0.5687  0.7576  0.1916
  556MOL0     H75057   6.888   1.637  11.342  0.5050 -0.4520  2.3795
  556MOL0     H75058   6.677   1.441  11.127 -2.4607 -2.8960  0.0877
  556MOL0     H75059   6.835   1.453  11.201 -0.6505 -2.9071  1.7519
  556MOL0     H75060   6.707   1.376  11.289 -1.1717  0.5833 -1.1229
  557MOL0     O75061   5.681   9.693   1.347  0.2412 -0.4521  0.1935
  557MOL0     C75062   5.611   9.764   1.414 -0.0261  1.1052 -0.3724
  557MOL0     O75063   5.660   9.846   1.510 -0.0151 -0.1493  0.4298
  557MOL0     C75064   5.796   9.857   1.520 -0.2286 -0.6504 -0.6811
  557MOL0     C75065   5.854   9.975   1.461  0.6332 -0.3715 -0.5098
  557MOL0     C75066   6.000   9.982   1.477  0.3192  0.5779  0.4900
  557MOL0     C75067   6.075   9.884   1.544  0.2878 -0.0350  0.4473
  557MOL0     O75068   6.208   9.897   1.524  0.5203  0.2143 -0.5614
  557MOL0     C75069   6.295   9.822   1.604 -0.0328  0.4417 -0.1460
  557MOL0     C75070   6.442   9.880   1.589  1.7575  0.0568  0.1226
  557MOL0     C75071   6.548   9.806   1.675  0.4688  0.1470  0.3027
  557MOL0     C75072   6.686   9.869   1.648 -0.1774 -0.3814  0.4182
  557MOL0     C75073   6.792   9.816   1.734  0.3505 -0.2940  0.3203
  557MOL0     C75074   6.912   9.899   1.708 -0.4455  0.3285  0.2519
  557MOL0     C75075   7.036   9.809   1.753  0.0715 -0.1166 -0.7933
  557MOL0     C75076   7.164   9.896   1.719 -0.4207 -0.9217  0.2009
  557MOL0     N75077   7.286   9.808   1.720 -0.0967 -0.0753  0.0377
  557MOL0     C75078   7.410   9.829   1.780  0.0652  0.4892  0.5876
  557MOL0     C75079   7.489   9.738   1.726 -0.9088  0.1938  0.2249
  557MOL0     C75080   7.629   9.725   1.786  0.3145 -0.5730  0.7598
  557MOL0     C75081   7.680   9.848   1.871  0.1555  0.3110 -0.0551
  557MOL0     C75082   7.821   9.837   1.926 -0.4182  1.1049 -0.2877
  557MOL0     C75083   7.916   9.808   1.808  0.6085  0.3432  0.9150
  557MOL0     O75084   8.045   9.812   1.866 -0.4839 -0.9119 -0.4486
  557MOL0     C75085   8.154   9.811   1.785 -0.9327  0.6019 -0.9664
  557MOL0     C75086   8.264   9.892   1.816 -0.1440  0.9277  0.4792
  557MOL0     C75087   8.388   9.878   1.747  0.2160  0.2912 -0.6541
  557MOL0     C75088   8.392   9.795   1.638 -0.3665 -0.6007 -0.2170
  557MOL0     C75089   8.524   9.779   1.578 -0.3543  0.3676  0.0759
  557MOL0     O75090   8.633   9.834   1.639 -0.2354 -0.5252 -0.3297
  557MOL0     C75091   8.764   9.834   1.594  0.0731  0.2897  0.1765
  557MOL0     C75092   8.814   9.803   1.465  0.1503  0.4969 -0.2581
  557MOL0     C75093   8.953   9.803   1.443 -0.1851 -1.2703 -0.2532
  557MOL0     C75094   9.047   9.820   1.546 -0.1363  0.4115  0.2365
  557MOL0     O75095   9.176   9.787   1.518 -0.4849  0.1078 -0.7919
  557MOL0     C75096   9.282   9.820   1.610  0.2711 -0.1838 -0.0651
  557MOL0     C75097   9.430   9.816   1.555 -0.6084 -0.9259 -0.3279
  557MOL0     C75098   9.452   9.913   1.437  1.1092 -0.2454  0.2095
  557MOL0     C75099   9.413   9.846   1.301 -0.4921 -1.1094  0.0459
  557MOL0     C75100   9.428   9.945   1.182  0.1900 -0.3728 -0.2317
  557MOL0     C75101   9.308  10.022   1.134  0.0318  0.4947 -0.2910
  557MOL0     C75102   9.343  10.149   1.061  0.6058 -0.1844  0.2529
  557MOL0     C75103   9.230  10.240   1.017 -0.0426  0.4297 -0.5698
  557MOL0    Cl75104   9.132  10.279   1.160 -0.1644  0.0545  0.3549
  557MOL0     C75105   8.992   9.846   1.675 -0.4902 -0.0667  0.2145
  557MOL0     C75106   8.854   9.854   1.690 -0.9565  0.2142  0.0262
  557MOL0     O75107   8.533   9.720   1.468  0.1183  0.4248  0.1256
  557MOL0     C75108   8.277   9.716   1.595  0.6331  0.4868 -1.3341
  557MOL0     C75109   8.159   9.728   1.668  0.7363 -0.0915 -0.3692
  557MOL0     N75110   7.421   9.659   1.636 -0.0011  0.1572 -0.4027
  557MOL0     N75111   7.299   9.703   1.632  1.1659 -0.2294 -0.3652
  557MOL0     C75112   6.011   9.773   1.595 -0.5424  0.6847 -0.3921
  557MOL0     C75113   5.875   9.762   1.592 -0.0148  0.4897 -0.0682
  557MOL0     C75114   5.459   9.737   1.408 -0.2508 -0.0881 -0.5308
  557MOL0     C75115   5.409   9.638   1.325  0.1920 -0.1996 -0.3405
  557MOL0     C75116   5.272   9.614   1.314  0.2963 -0.0447  1.0227
  557MOL0     C75117   5.180   9.680   1.390 -0.0086 -0.3359  0.7928
  557MOL0     O75118   5.043   9.670   1.383 -1.0354 -0.2144 -0.0372
  557MOL0     C75119   4.998   9.589   1.280  0.4477 -0.6381  0.7675
  557MOL0     C75120   4.849   9.633   1.247 -0.2158 -0.0143  0.6990
  557MOL0     C75121   4.775   9.615   1.374  0.6243  1.0959  0.0823
  557MOL0     C75122   4.618   9.632   1.352 -0.5413 -0.2365  0.8266
  557MOL0     C75123   4.538   9.654   1.471 -1.3574 -0.8578  0.6932
  557MOL0     C75124   4.460   9.668   1.562 -0.5526  1.1711  0.6619
  557MOL0     C75125   5.231   9.785   1.467  0.2187 -0.0230  0.6548
  557MOL0     C75126   5.364   9.811   1.485 -0.4434 -0.1305 -0.3428
  557MOL0     C75127   5.394   9.924   1.587  0.3352  0.0701  0.5136
  557MOL0     H75128   5.812  10.054   1.401  0.2582  1.9022  2.5329
  557MOL0     H75129   6.055  10.060   1.425  0.8404 -0.8879 -1.2697
  557MOL0     H75130   6.275   9.839   1.711  1.4189 -0.9177  0.3788
  557MOL0     H75131   6.279   9.717   1.577 -2.8805  0.3376  1.4653
  557MOL0     H75132   6.458   9.985   1.619  6.1322 -0.4935  0.3713
  557MOL0     H75133   6.471   9.870   1.484 -1.2572  2.3365 -1.0665
  557MOL0     H75134   6.553   9.700   1.650  3.4260  0.2308  0.2352
  557MOL0     H75135   6.529   9.820   1.782 -0.9453  1.9305 -0.1322
  557MOL0     H75136   6.711   9.853   1.543  0.9046 -2.3457  0.9263
  557MOL0     H75137   6.677   9.976   1.667  0.2081 -0.0889 -0.9157
  557MOL0     H75138   6.773   9.824   1.841  1.5629 -2.7387  0.7807
  557MOL0     H75139   6.798   9.710   1.708 -1.7630 -0.5907  0.8497
  557MOL0     H75140   6.924   9.932   1.604  0.2319  2.1162  0.8562
  557MOL0     H75141   6.921   9.993   1.763  4.3142  1.7489 -2.3006
  557MOL0     H75142   7.034   9.707   1.715 -0.7752 -0.8846  1.1717
  557MOL0     H75143   7.023   9.802   1.861  0.7317 -0.3622 -0.7282
  557MOL0     H75144   7.159   9.951   1.624 -1.5799 -2.2110 -0.5160
  557MOL0     H75145   7.167   9.977   1.792 -2.3913  0.3283 -1.0367
  557MOL0     H75146   7.427   9.890   1.869  1.5511  0.0775  0.6101
  557MOL0     H75147   7.630   9.631   1.842  1.8687 -2.8571 -2.7577
  557MOL0     H75148   7.696   9.708   1.701 -1.0870 -1.4645 -0.2336
  557MOL0     H75149   7.696   9.933   1.803  2.3114 -1.0452 -1.3852
  557MOL0     H75150   7.607   9.863   1.951 -0.1815  0.3563 -0.3693
  557MOL0     H75151   7.821   9.754   1.996  0.5486 -0.0753 -1.6292
  557MOL0     H75152   7.840   9.933   1.976  0.0730  1.8711 -1.8684
  557MOL0     H75153   7.911   9.881   1.726 -1.5957  1.4111  1.9132
  557MOL0     H75154   7.899   9.704   1.778  0.1714 -0.2036  2.9364
  557MOL0     H75155   8.256   9.959   1.901  1.8384  0.7794  0.8172
  557MOL0     H75156   8.475   9.934   1.781  0.0957  1.6554 -2.4285
  557MOL0     H75157   8.752   9.771   1.383  0.0342  1.2300 -0.4666
  557MOL0     H75158   8.988   9.784   1.342  0.6553  0.1694 -0.2582
  557MOL0     H75159   9.280   9.922   1.647  2.3164 -0.5609  1.2669
  557MOL0     H75160   9.276   9.755   1.698 -1.7150 -0.8183 -0.6170
  557MOL0     H75161   9.505   9.840   1.630  1.6240 -1.1118 -2.4060
  557MOL0     H75162   9.447   9.714   1.518 -1.9985 -2.9093  3.8339
  557MOL0     H75163   9.399  10.005   1.464  0.1100 -1.2291  1.7264
  557MOL0     H75164   9.560   9.931   1.442  1.0504  0.4834 -0.7635
  557MOL0     H75165   9.308   9.818   1.313 -1.1529  2.1173  4.1470
  557MOL0     H75166   9.485   9.765   1.287  2.9629  1.5354  1.1341
  557MOL0     H75167   9.452   9.886   1.093 -0.0823  0.5356 -0.9337
  557MOL0     H75168   9.509  10.017   1.197 -0.6480  1.0791 -2.1811
  557MOL0     H75169   9.243   9.968   1.065  1.4661 -0.0075 -1.3154
  557MOL0     H75170   9.249  10.042   1.224 -0.3542 -1.3706 -0.1014
  557MOL0     H75171   9.407  10.122   0.977  0.3257  1.7366 -0.6227
  557MOL0     H75172   9.387  10.212   1.140  1.6030  1.2626 -1.3869
  557MOL0     H75173   9.280  10.321   0.964 -0.5222  0.7798 -0.4999
  557MOL0     H75174   9.163  10.197   0.942 -0.2350  2.2805 -1.4902
  557MOL0     H75175   9.070   9.857   1.750  0.3022 -0.2516 -0.5676
  557MOL0     H75176   8.808   9.888   1.783 -4.1708  2.3827 -2.1630
  557MOL0     H75177   8.269   9.638   1.520 -3.9948  0.3053 -0.9390
  557MOL0     H75178   8.074   9.670   1.633  0.2106  1.3523 -1.5577
  557MOL0     H75179   6.068   9.699   1.650 -2.3091  0.4031  1.1747
  557MOL0     H75180   5.829   9.670   1.626  0.5874  0.5261  0.8757
  557MOL0     H75181   5.475   9.574   1.267  2.7075 -1.7750  3.8029
  557MOL0     H75182   5.235   9.532   1.253  0.8902 -0.3600  1.0757
  557MOL0     H75183   5.000   9.484   1.309 -0.0367 -0.8487  0.0717
  557MOL0     H75184   5.051   9.608   1.186  1.1024 -3.2102  0.5584
  557MOL0     H75185   4.812   9.565   1.169 -1.0392  0.7807  0.3839
  557MOL0     H75186   4.846   9.732   1.201  1.9061  0.0017  0.4699
  557MOL0     H75187   4.808   9.694   1.442  3.3773  0.8787 -0.8728
  557MOL0     H75188   4.798   9.518   1.419 -1.3337  0.4548 -0.2016
  557MOL0     H75189   4.591   9.712   1.282 -2.9047  0.0449  1.9857
  557MOL0     H75190   4.584   9.539   1.306 -2.5404  1.5417 -1.5786
  557MOL0     H75191   4.385   9.675   1.637 -1.1509  1.4135  0.0507
  557MOL0     H75192   5.154   9.840   1.521 -0.2929 -2.5924  2.7306
  557MOL0     H75193   5.463   9.885   1.661  1.1667  0.0430 -0.2576
  557MOL0     H75194   5.446  10.007   1.539  2.3734  0.0455  2.5238
  557MOL0     H75195   5.306   9.949   1.647 -0.2445  0.0288 -0.2985
  558MOL0     O75196   6.410   6.561   6.308 -0.1083 -0.3897 -0.2493
  558MOL0     C75197   6.350   6.653   6.256 -0.8813  0.1314  0.1596
  558MOL0     O75198   6.393   6.723   6.141  0.3380 -0.2312 -0.0924
  558MOL0     C75199   6.526   6.735   6.104 -0.3456 -0.4136 -0.8062
  558MOL0     C75200   6.626   6.722   6.203  0.0425  0.5594  0.4654
  558MOL0     C75201   6.761   6.724   6.161  0.0918  0.7947  0.0373
  558MOL0     C75202   6.795   6.742   6.021 -0.2002 -0.0067  0.4998
  558MOL0     O75203   6.930   6.751   5.982 -0.1094  1.1949 -0.2160
  558MOL0     C75204   7.024   6.754   6.083 -0.5029  0.1565  0.4963
  558MOL0     C75205   7.159   6.749   6.016 -0.1370 -0.4311  0.4942
  558MOL0     C75206   7.270   6.773   6.116 -0.1592 -0.0317 -0.5629
  558MOL0     C75207   7.403   6.766   6.053 -0.2784 -0.5012 -0.8955
  558MOL0     C75208   7.509   6.729   6.163  0.2271 -0.7274 -0.0300
  558MOL0     C75209   7.654   6.768   6.126  0.8231 -0.5525  0.8004
  558MOL0     C75210   7.767   6.707   6.210  0.7467 -0.2765  0.2229
  558MOL0     C75211   7.786   6.777   6.344  0.4694 -0.7270 -0.5740
  558MOL0     N75212   7.917   6.773   6.409 -0.5425 -0.0514 -0.3944
  558MOL0     C75213   8.043   6.795   6.361 -0.9788  0.0198 -0.4021
  558MOL0     C75214   8.123   6.758   6.468  0.4459 -0.1076  0.5092
  558MOL0     C75215   8.260   6.800   6.465 -0.3029  0.2452  0.2355
  558MOL0     C75216   8.332   6.807   6.604  0.3876  0.2142  0.0771
  558MOL0     C75217   8.459   6.887   6.612 -0.1230 -0.2738 -0.1896
  558MOL0     C75218   8.563   6.842   6.509  0.1602 -0.3133 -0.3587
  558MOL0     O75219   8.658   6.948   6.498  0.0153  0.4246  0.4574
  558MOL0     C75220   8.774   6.921   6.423  0.7796  0.0369 -0.5930
  558MOL0     C75221   8.879   7.014   6.425  0.0254  0.1867  0.9660
  558MOL0     C75222   8.987   7.005   6.346 -0.8385 -0.8132 -0.0363
  558MOL0     C75223   9.008   6.898   6.266 -0.3036 -0.5272 -0.4759
  558MOL0     C75224   9.139   6.893   6.199  0.8088  0.6061  0.4648
  558MOL0     O75225   9.141   6.820   6.085  0.9710 -0.2893  0.9997
  558MOL0     C75226   9.244   6.846   6.007 -0.4479 -0.0378 -0.0930
  558MOL0     C75227   9.338   6.753   5.964  0.2505  0.2410  0.3975
  558MOL0     C75228   9.458   6.789   5.901 -0.4911 -0.7238 -0.0878
  558MOL0     C75229   9.476   6.917   5.847 -0.4493  0.4500 -0.8811
  558MOL0     O75230   9.589   6.959   5.782  0.4170  0.3146 -0.7654
  558MOL0     C75231   9.689   6.870   5.722 -0.1878 -0.4505 -0.5909
  558MOL0     C75232   9.806   6.971   5.691  0.1560 -0.6822 -0.9543
  558MOL0     C75233   9.930   6.891   5.648 -0.9259 -0.2791 -0.1164
  558MOL0     C75234   9.895   6.832   5.514 -0.6925 -0.0669 -0.5647
  558MOL0     C75235   9.988   6.733   5.457  0.7228 -0.9506  0.3451
  558MOL0     C75236   9.950   6.681   5.317  0.3557  0.4311 -0.7419
  558MOL0     C75237  10.068   6.608   5.256  0.4789 -0.0317  0.1314
  558MOL0     C75238  10.044   6.586   5.105  0.4493  0.4379 -0.4791
  558MOL0    Cl75239  10.164   6.465   5.038 -0.0534 -0.3574  0.1390
  558MOL0     C75240   9.371   7.006   5.871  1.0461  0.4783 -0.1371
  558MOL0     C75241   9.261   6.977   5.955  0.9115 -0.2639  0.3072
  558MOL0     O75242   9.233   6.952   6.246 -0.0099  0.1384  0.1780
  558MOL0     C75243   8.896   6.810   6.250 -0.1448  0.5222  0.2973
  558MOL0     C75244   8.788   6.816   6.327  0.6771 -0.1596 -0.2602
  558MOL0     N75245   8.042   6.723   6.570 -0.1002  0.2461 -0.1611
  558MOL0     N75246   7.921   6.735   6.538 -0.2590 -0.1154 -0.2937
  558MOL0     C75247   6.691   6.743   5.933 -0.2463  0.8700  0.0561
  558MOL0     C75248   6.559   6.744   5.971  0.1586 -0.4040 -0.5334
  558MOL0     C75249   6.223   6.705   6.305  0.5115 -0.4329  0.2505
  558MOL0     C75250   6.169   6.827   6.250 -0.5450  1.0649 -0.5388
  558MOL0     C75251   6.052   6.882   6.281 -0.7316 -0.2207 -0.7990
  558MOL0     C75252   5.982   6.827   6.387 -0.9918  0.7858  0.0199
  558MOL0     O75253   5.878   6.877   6.444  1.0014 -0.2438  0.5312
  558MOL0     C75254   5.803   6.989   6.374  0.0947  0.7461 -0.2242
  558MOL0     C75255   5.675   7.029   6.439  0.2137 -0.2540  0.1248
  558MOL0     C75256   5.564   6.929   6.391 -0.0249  0.4674 -0.7396
  558MOL0     C75257   5.412   6.977   6.407 -0.6775 -0.4252  0.3505
  558MOL0     C75258   5.379   7.092   6.324  0.0773 -0.2172  0.3187
  558MOL0     C75259   5.372   7.191   6.261 -0.1377 -0.3032  0.1842
  558MOL0     C75260   6.030   6.712   6.448  0.6444  0.5773 -0.1556
  558MOL0     C75261   6.143   6.641   6.401  0.0527 -0.1264  0.8478
  558MOL0     C75262   6.167   6.505   6.461  0.2885 -0.3876 -0.3859
  558MOL0     H75263   6.603   6.703   6.307 -0.9137  1.3081  0.4044
  558MOL0     H75264   6.828   6.698   6.242 -0.5352  0.0795  0.3436
  558MOL0     H75265   7.011   6.847   6.141 -3.0874  0.7694 -0.9347
  558MOL0     H75266   7.020   6.667   6.148  1.8161 -0.4878 -0.1160
  558MOL0     H75267   7.180   6.813   5.930  0.4332 -0.9731  0.2164
  558MOL0     H75268   7.176   6.644   5.990  1.2383  0.0399 -0.6294
  558MOL0     H75269   7.258   6.693   6.189 -1.2107 -0.8418 -1.5906
  558MOL0     H75270   7.251   6.864   6.173 -0.0367 -0.4007  0.0684
  558MOL0     H75271   7.392   6.681   5.985 -7.4477 -0.4578 -0.5024
  558MOL0     H75272   7.427   6.862   6.006  0.0861 -0.6793 -1.0816
  558MOL0     H75273   7.465   6.776   6.251 -1.8787 -1.9556 -0.3537
  558MOL0     H75274   7.525   6.622   6.183  0.3438 -0.6159  0.4698
  558MOL0     H75275   7.664   6.717   6.030  0.6597 -0.6492  0.8338
  558MOL0     H75276   7.665   6.875   6.108 -2.7476 -0.3264 -0.6828
  558MOL0     H75277   7.860   6.718   6.153  0.2809  0.5761 -0.3966
  558MOL0     H75278   7.749   6.602   6.236  2.5230 -0.8833 -0.8121
  558MOL0     H75279   7.752   6.879   6.323 -0.9221 -1.2323 -0.8776
  558MOL0     H75280   7.709   6.732   6.407  1.3343 -0.2142  0.8936
  558MOL0     H75281   8.076   6.835   6.265 -1.5498  1.1456 -0.1459
  558MOL0     H75282   8.315   6.731   6.400  0.2892 -1.1200  2.1027
  558MOL0     H75283   8.272   6.903   6.430 -1.2320  0.3250  0.1269
  558MOL0     H75284   8.261   6.871   6.657  0.2013  1.2106 -1.3195
  558MOL0     H75285   8.354   6.709   6.647 -0.5588 -0.1502 -0.2374
  558MOL0     H75286   8.504   6.876   6.711 -0.8718 -0.9216  0.0936
  558MOL0     H75287   8.432   6.993   6.615 -1.9673 -0.7273  0.6352
  558MOL0     H75288   8.516   6.821   6.413  0.6251  0.2276 -0.7134
  558MOL0     H75289   8.606   6.748   6.543 -3.3820 -1.3024  1.8541
  558MOL0     H75290   8.885   7.097   6.496 -1.7238  0.5735  0.7136
  558MOL0     H75291   9.068   7.071   6.373 -2.2700  0.8014  0.5220
  558MOL0     H75292   9.317   6.649   5.988  0.1270  0.6032  1.9679
  558MOL0     H75293   9.528   6.710   5.875  0.5781  0.5285 -1.1023
  558MOL0     H75294   9.720   6.792   5.791 -1.5279 -0.5878 -0.1151
  558MOL0     H75295   9.655   6.828   5.627  2.2032 -0.6603 -1.4186
  558MOL0     H75296   9.764   7.044   5.621 -0.7099  3.5233  3.3747
  558MOL0     H75297   9.828   7.022   5.785 -3.6930  0.8630 -0.7119
  558MOL0     H75298  10.026   6.944   5.647 -1.1149  0.1903  2.0159
  558MOL0     H75299   9.938   6.819   5.730 -1.3700  2.6902  2.7665
  558MOL0     H75300   9.863   6.916   5.451  0.1405  0.1716 -0.6733
  558MOL0     H75301   9.817   6.757   5.534  0.1261 -0.4258  1.5616
  558MOL0     H75302  10.019   6.655   5.527  1.3882  0.0921  1.2537
  558MOL0     H75303  10.085   6.785   5.455  0.3995  0.0841  3.7940
  558MOL0     H75304   9.860   6.618   5.322  0.0068  1.0244  1.9536
  558MOL0     H75305   9.927   6.769   5.256 -0.0958  0.8361 -0.0041
  558MOL0     H75306  10.083   6.513   5.308 -1.6172  0.3255  1.4833
  558MOL0     H75307  10.161   6.666   5.256  1.0768 -0.9768  1.0192
  558MOL0     H75308   9.939   6.559   5.095  0.4644 -0.1392  0.7622
  558MOL0     H75309  10.054   6.677   5.045  0.7227 -1.0367 -2.7889
  558MOL0     H75310   9.382   7.103   5.825 -0.1228  1.7051  2.0149
  558MOL0     H75311   9.183   7.050   5.973 -1.0191 -2.2589  0.5109
  558MOL0     H75312   8.907   6.728   6.178 -0.3623  1.0369 -0.3316
  558MOL0     H75313   8.720   6.732   6.314  1.5717 -0.6067 -2.5083
  558MOL0     H75314   6.720   6.758   5.829 -2.2275 -1.8709 -1.0043
  558MOL0     H75315   6.470   6.752   5.909 -0.0064  0.1533 -0.2280
  558MOL0     H75316   6.215   6.876   6.164 -0.6068  1.6552 -0.2410
  558MOL0     H75317   6.012   6.954   6.210 -2.0740 -1.1393 -1.0060
  558MOL0     H75318   5.778   6.952   6.274 -3.8284 -0.1026  0.9159
  558MOL0     H75319   5.865   7.079   6.374 -2.2263  2.4093  0.1862
  558MOL0     H75320   5.647   7.128   6.401 -1.0050 -0.3115  0.8125
  558MOL0     H75321   5.683   7.034   6.548 -2.7971 -1.6836  0.5132
  558MOL0     H75322   5.575   6.836   6.447 -1.9320  2.5431  3.5106
  558MOL0     H75323   5.575   6.904   6.285 -0.8337 -2.4852 -0.2078
  558MOL0     H75324   5.340   6.899   6.380 -0.9739 -0.6198  1.6187
  558MOL0     H75325   5.396   7.015   6.508 -1.8929  1.0065 -0.3398
  558MOL0     H75326   5.368   7.283   6.206  1.0247 -2.3899 -3.7219
  558MOL0     H75327   5.968   6.666   6.524 -0.0021  1.4587 -0.1421
  558MOL0     H75328   6.268   6.505   6.502  0.0441  0.2631  0.2395
  558MOL0     H75329   6.100   6.489   6.546  0.7624 -2.2348 -0.3336
  558MOL0     H75330   6.145   6.424   6.392  2.4058  1.5842 -3.6499
  559MOL0     O75331   7.877   0.294   3.818 -0.0265  1.3595 -0.2976
  559MOL0     C75332   7.835   0.248   3.922 -0.4346  0.5372 -0.4346
  559MOL0     O75333   7.909   0.245   4.036  0.2912 -0.0136  0.0838
  559MOL0     C75334   8.023   0.319   4.043 -0.6010  0.1914  0.0591
  559MOL0     C75335   8.133   0.259   4.098 -0.7445 -0.1783 -0.6126
  559MOL0     C75336   8.256   0.324   4.124  0.4447 -0.6169 -0.1476
  559MOL0     C75337   8.276   0.451   4.072 -0.5842 -0.0092 -0.6062
  559MOL0     O75338   8.399   0.508   4.078  0.1705 -0.6012  0.2500
  559MOL0     C75339   8.491   0.440   3.998  0.0198  0.2859  1.0834
  559MOL0     C75340   8.624   0.497   4.028  0.3700 -0.1790  0.7790
  559MOL0     C75341   8.731   0.392   3.984  0.7640 -0.3609  0.2133
  559MOL0     C75342   8.873   0.441   3.996  0.4246  0.0059 -0.7259
  559MOL0     C75343   8.968   0.331   3.938 -0.1702  0.9614 -0.8869
  559MOL0     C75344   9.111   0.382   3.953  0.6235 -0.6363 -0.0655
  559MOL0     C75345   9.213   0.272   3.963  0.0558 -0.3621 -0.3057
  559MOL0     C75346   9.357   0.303   3.990 -0.0372  0.4207  0.0676
  559MOL0     N75347   9.433   0.201   4.054  0.0241  0.6102 -0.4164
  559MOL0     C75348   9.553   0.215   4.123 -0.3824  0.0630  0.4898
  559MOL0     C75349   9.584   0.096   4.187  0.4673 -0.0715  0.1369
  559MOL0     C75350   9.692   0.071   4.284 -0.2558 -0.2470  0.0472
  559MOL0     C75351   9.835   0.079   4.225  0.2859  0.4238 -0.3430
  559MOL0     C75352   9.923   0.001   4.331 -0.3239 -0.1504 -1.0125
  559MOL0     C75353  10.064   0.012   4.286 -0.0164  0.2937 -0.6861
  559MOL0     O75354  10.153  -0.062   4.371  0.3581  0.7910  0.4986
  559MOL0     C75355  10.287  -0.068   4.342  0.4888  0.8723  0.1581
  559MOL0     C75356  10.349  -0.017   4.223 -0.1726  0.0504  0.1949
  559MOL0     C75357  10.486  -0.020   4.214 -0.7262 -0.1941  1.5494
  559MOL0     C75358  10.566  -0.086   4.308  0.1548 -0.1672  0.1417
  559MOL0     C75359  10.706  -0.083   4.299  0.2618  0.4694 -0.2033
  559MOL0     O75360  10.771  -0.007   4.206  0.5335  0.5912 -0.0060
  559MOL0     C75361  10.906  -0.021   4.174  0.5808  0.6717  0.3690
  559MOL0     C75362  10.944  -0.019   4.036 -0.5494  0.0919 -0.3402
  559MOL0     C75363  11.072  -0.042   4.000  0.8112 -0.1393  0.5877
  559MOL0     C75364  11.169  -0.085   4.091  0.5955 -0.6339 -0.6913
  559MOL0     O75365  11.292  -0.140   4.053 -0.1293 -0.2277  0.4473
  559MOL0     C75366  11.359  -0.070   3.942  0.6075  0.6949 -0.5525
  559MOL0     C75367  11.500  -0.105   3.951  0.0048  0.6211 -0.2435
  559MOL0     C75368  11.584  -0.027   4.043 -0.1750  0.1366 -0.1726
  559MOL0     C75369  11.738  -0.057   4.029  0.4025  0.1429 -0.0743
  559MOL0     C75370  11.788  -0.205   4.057 -0.5345 -0.0709  0.4621
  559MOL0     C75371  11.941  -0.205   4.058  0.5607 -0.6559 -0.9386
  559MOL0     C75372  12.002  -0.231   3.929  0.0835  1.1992 -0.1651
  559MOL0     C75373  12.153  -0.230   3.945 -0.1643  0.5284 -0.6595
  559MOL0    Cl75374  12.227  -0.072   3.936  0.5753  0.6256  0.1246
  559MOL0     C75375  11.143  -0.085   4.229  0.9033 -0.3178  0.4749
  559MOL0     C75376  11.010  -0.054   4.262  0.4042 -0.3260 -0.2896
  559MOL0     O75377  10.765  -0.149   4.387  0.3836 -0.1382 -0.5195
  559MOL0     C75378  10.501  -0.145   4.418  0.1252 -0.1996 -0.1390
  559MOL0     C75379  10.360  -0.132   4.441  0.5702  0.3866  0.6238
  559MOL0     N75380   9.488   0.012   4.146  0.8045 -0.9433  0.0344
  559MOL0     N75381   9.389   0.073   4.079 -0.3930 -0.4956  0.8019
  559MOL0     C75382   8.170   0.519   4.023  0.1972  0.2804  1.4160
  559MOL0     C75383   8.044   0.450   4.005  0.1991  0.1391 -0.4082
  559MOL0     C75384   7.701   0.191   3.918  0.5571  0.4941 -0.1489
  559MOL0     C75385   7.615   0.192   4.040 -0.7872 -0.7159 -0.7257
  559MOL0     C75386   7.490   0.136   4.050 -0.8525  0.1230  0.4447
  559MOL0     C75387   7.442   0.082   3.927  0.1854 -0.4445 -0.1493
  559MOL0     O75388   7.308   0.051   3.928 -0.0566  0.0082  0.2238
  559MOL0     C75389   7.261  -0.072   3.867 -0.7908  0.3354  0.3039
  559MOL0     C75390   7.118  -0.081   3.907  0.0417  0.8161  0.2776
  559MOL0     C75391   7.044  -0.206   3.852  0.1065 -0.6347 -0.1442
  559MOL0     C75392   6.901  -0.207   3.891  0.3185 -0.1985  0.4464
  559MOL0     C75393   6.838  -0.336   3.852  0.7960  0.1824  0.1838
  559MOL0     C75394   6.778  -0.437   3.824 -0.3400  1.2061 -0.7268
  559MOL0     C75395   7.510   0.083   3.804  0.4224 -0.5021 -0.0241
  559MOL0     C75396   7.639   0.142   3.800  0.3779 -0.8744  0.3160
  559MOL0     C75397   7.700   0.143   3.660  0.3588 -0.3760  0.4338
  559MOL0     H75398   8.124   0.155   4.129  0.8429 -0.2823 -0.3804
  559MOL0     H75399   8.340   0.273   4.170  1.3527  2.4266  1.9017
  559MOL0     H75400   8.490   0.331   4.009 -0.7607 -0.0367 -1.6520
  559MOL0     H75401   8.474   0.458   3.892  4.3095 -2.0706 -0.2461
  559MOL0     H75402   8.630   0.517   4.135  0.2494  1.3950  0.5089
  559MOL0     H75403   8.648   0.581   3.962  2.3681 -2.4420 -1.6243
  559MOL0     H75404   8.701   0.365   3.882 -2.5050  0.1928  0.9202
  559MOL0     H75405   8.714   0.298   4.037  2.8597 -1.0106 -0.1527
  559MOL0     H75406   8.887   0.534   3.940 -3.5011  1.1953 -0.0074
  559MOL0     H75407   8.898   0.451   4.102  0.7144 -2.0277 -0.5565
  559MOL0     H75408   8.965   0.231   3.982  1.0857  1.2294 -0.1389
  559MOL0     H75409   8.943   0.317   3.832  2.1800  4.1405 -2.0412
  559MOL0     H75410   9.131   0.448   3.868 -0.0452 -1.5150 -0.9358
  559MOL0     H75411   9.110   0.446   4.041  1.7189  1.2134 -1.3185
  559MOL0     H75412   9.209   0.219   3.867  1.4605  1.0569 -1.1986
  559MOL0     H75413   9.186   0.200   4.041  0.9395 -1.8127 -1.2780
  559MOL0     H75414   9.408   0.337   3.899  4.1671 -1.5857  1.4390
  559MOL0     H75415   9.364   0.393   4.052  3.2554  1.2558 -1.3342
  559MOL0     H75416   9.613   0.304   4.139  1.1056 -1.3583  3.8214
  559MOL0     H75417   9.682   0.147   4.362 -1.1847 -2.7434  2.5814
  559MOL0     H75418   9.677  -0.029   4.328 -0.1227  0.5527  2.0079
  559MOL0     H75419   9.830   0.023   4.131  0.5905  1.2987 -0.8833
  559MOL0     H75420   9.862   0.183   4.206 -0.2588  0.0098 -4.1796
  559MOL0     H75421   9.891  -0.103   4.338  0.4533 -0.3373  0.0454
  559MOL0     H75422   9.916   0.056   4.425 -1.7761 -0.8703 -0.6786
  559MOL0     H75423  10.103   0.114   4.277  3.2646 -0.7180  0.4899
  559MOL0     H75424  10.070  -0.025   4.183 -2.2730  2.6299 -1.7578
  559MOL0     H75425  10.290   0.020   4.140 -1.4224  0.0458  1.0614
  559MOL0     H75426  10.532   0.029   4.129  0.3997 -0.5491  1.9367
  559MOL0     H75427  10.873  -0.003   3.955 -0.7615 -0.2566 -0.2280
  559MOL0     H75428  11.095  -0.042   3.894 -2.7166 -0.1177 -0.3001
  559MOL0     H75429  11.319  -0.108   3.848 -0.7369  1.0735 -0.1588
  559MOL0     H75430  11.341   0.037   3.955 -0.4241  0.4929 -0.2377
  559MOL0     H75431  11.505  -0.212   3.972 -0.3209  0.8025  0.8223
  559MOL0     H75432  11.551  -0.093   3.855 -1.2216  0.0149 -0.9961
  559MOL0     H75433  11.571   0.080   4.025  0.2865  0.1194 -0.6217
  559MOL0     H75434  11.552  -0.044   4.146 -0.0241 -3.5977 -0.6063
  559MOL0     H75435  11.787   0.015   4.096 -0.3041 -0.1127  0.7382
  559MOL0     H75436  11.765  -0.029   3.927  0.5784 -0.0552 -0.0821
  559MOL0     H75437  11.749  -0.269   3.978 -1.5854 -0.1396  1.0153
  559MOL0     H75438  11.747  -0.236   4.154  1.5074 -2.6829  0.5927
  559MOL0     H75439  11.980  -0.109   4.093  1.5169 -1.8928  1.6430
  559MOL0     H75440  11.956  -0.287   4.128 -1.5253  0.0319  0.4319
  559MOL0     H75441  11.969  -0.157   3.855  1.0606  0.4751 -1.3888
  559MOL0     H75442  11.979  -0.332   3.893 -1.4022  1.0235  1.2037
  559MOL0     H75443  12.186  -0.284   4.035 -1.3198 -1.8119 -1.5444
  559MOL0     H75444  12.198  -0.281   3.859 -0.4322 -1.3137  0.2451
  559MOL0     H75445  11.213  -0.097   4.311 -2.1691  1.6057  3.6132
  559MOL0     H75446  10.988  -0.062   4.368 -1.7733 -2.2467 -0.8046
  559MOL0     H75447  10.557  -0.194   4.498  1.0807  0.5218 -0.3521
  559MOL0     H75448  10.308  -0.175   4.525 -0.8685 -0.7616 -0.8129
  559MOL0     H75449   8.173   0.621   3.987 -2.6526 -0.8740 -2.9683
  559MOL0     H75450   7.964   0.514   3.971  0.3668  1.8050  2.1037
  559MOL0     H75451   7.651   0.233   4.134  1.1207 -2.3599 -0.6619
  559MOL0     H75452   7.427   0.135   4.139  0.1764  1.3337  1.2264
  559MOL0     H75453   7.317  -0.161   3.898  0.0250  0.1853 -1.5111
  559MOL0     H75454   7.259  -0.061   3.759 -0.2285 -0.1028  0.2423
  559MOL0     H75455   7.061   0.004   3.867 -2.2104  0.7629  2.9994
  559MOL0     H75456   7.109  -0.084   4.016 -0.5930 -0.9429  0.2074
  559MOL0     H75457   7.089  -0.300   3.888 -1.5998 -1.9942 -1.4123
  559MOL0     H75458   7.057  -0.198   3.744 -0.6752 -1.1728 -0.2883
  559MOL0     H75459   6.881  -0.205   3.998 -2.1049  0.1583  0.0504
  559MOL0     H75460   6.850  -0.122   3.846  1.1415  0.4738  0.7556
  559MOL0     H75461   6.726  -0.525   3.792  2.3340 -1.0662  0.6928
  559MOL0     H75462   7.459   0.039   3.719 -2.6690  0.5655  1.1296
  559MOL0     H75463   7.656   0.066   3.596  0.5297  0.6763 -0.9920
  559MOL0     H75464   7.679   0.243   3.622  0.5303 -1.1103 -1.6900
  559MOL0     H75465   7.807   0.119   3.657  0.6279  0.8305  0.0701
  560MOL0     O75466   3.677   5.027   7.617 -0.1598 -0.1172 -0.2151
  560MOL0     C75467   3.664   4.930   7.693  0.2907 -0.3706 -0.3703
  560MOL0     O75468   3.764   4.879   7.772 -0.3094  0.2426  0.4141
  560MOL0     C75469   3.858   4.971   7.818  0.6124  0.5596 -0.9152
  560MOL0     C75470   3.991   4.947   7.788  0.4100  0.2329  0.1357
  560MOL0     C75471   4.094   5.019   7.852  0.4714 -0.1785  0.1205
  560MOL0     C75472   4.067   5.132   7.938  0.9317  0.1474  0.4586
  560MOL0     O75473   4.165   5.210   7.991  0.3339 -0.7116 -0.6188
  560MOL0     C75474   4.256   5.151   8.082 -0.0002  0.2333 -0.2982
  560MOL0     C75475   4.313   5.255   8.194  0.8134  0.8142 -0.8719
  560MOL0     C75476   4.202   5.290   8.292 -0.2650  0.3980 -0.4018
  560MOL0     C75477   4.264   5.346   8.423  0.3279  0.0298 -0.6172
  560MOL0     C75478   4.164   5.374   8.535  1.3187  0.1094 -0.6124
  560MOL0     C75479   4.044   5.462   8.490  0.0016  0.5388  0.3316
  560MOL0     C75480   3.935   5.465   8.601 -0.3602  0.6313  0.5575
  560MOL0     C75481   3.823   5.561   8.573  0.7633  0.5722 -0.3482
  560MOL0     N75482   3.863   5.695   8.528  0.4037  0.4191 -1.2186
  560MOL0     C75483   3.947   5.782   8.601 -0.2066 -0.3873 -0.0036
  560MOL0     C75484   3.984   5.882   8.519  0.3415 -0.1122  0.0065
  560MOL0     C75485   4.072   5.998   8.552 -0.0264 -0.0111  0.7643
  560MOL0     C75486   4.215   5.944   8.576  0.0225 -0.2999 -0.0054
  560MOL0     C75487   4.307   6.065   8.549 -0.2660  0.7289 -0.6149
  560MOL0     C75488   4.311   6.172   8.652 -0.2798 -0.3769  0.1025
  560MOL0     O75489   4.417   6.267   8.635  0.1380  0.2544  0.5831
  560MOL0     C75490   4.546   6.218   8.653  0.2399  0.1456  0.2349
  560MOL0     C75491   4.582   6.100   8.724  0.0853  0.5870  0.3423
  560MOL0     C75492   4.715   6.071   8.724 -0.5416  0.0914 -0.4417
  560MOL0     C75493   4.812   6.150   8.665  0.0800 -0.5532 -1.4970
  560MOL0     C75494   4.961   6.125   8.672 -0.2935 -0.2986  0.0471
  560MOL0     O75495   5.044   6.226   8.630  0.1742  0.2914 -0.2275
  560MOL0     C75496   5.177   6.209   8.640  0.2350  0.4257 -0.0817
  560MOL0     C75497   5.244   6.108   8.567 -0.1406  0.9413 -0.3849
  560MOL0     C75498   5.388   6.097   8.573 -0.1919 -0.4498  0.3506
  560MOL0     C75499   5.454   6.187   8.656  0.1966  0.1403  0.5431
  560MOL0     O75500   5.590   6.184   8.672  1.4383 -0.6830 -0.7834
  560MOL0     C75501   5.657   6.055   8.687 -0.3538 -0.0974 -0.2771
  560MOL0     C75502   5.800   6.073   8.737  0.1222 -0.7155 -0.3326
  560MOL0     C75503   5.895   6.147   8.641  1.4165  0.1634  0.6699
  560MOL0     C75504   6.037   6.167   8.699  0.6436 -0.6846 -0.3464
  560MOL0     C75505   6.143   6.216   8.601 -0.0117 -0.9142 -1.2321
  560MOL0     C75506   6.283   6.159   8.632  0.1739 -0.4550 -0.5993
  560MOL0     C75507   6.390   6.237   8.553  0.3389 -0.4062  0.9383
  560MOL0     C75508   6.524   6.161   8.555  0.2332 -0.2008 -0.6200
  560MOL0    Cl75509   6.542   6.062   8.401 -0.1821 -0.2078 -0.5339
  560MOL0     C75510   5.387   6.291   8.720 -0.2140 -0.6340 -0.7204
  560MOL0     C75511   5.252   6.302   8.703  0.8690  0.0271 -0.0430
  560MOL0     O75512   5.005   6.014   8.701  0.2854 -0.4524 -0.5112
  560MOL0     C75513   4.776   6.270   8.602  0.3352  0.1504 -0.7173
  560MOL0     C75514   4.640   6.306   8.601 -0.4638  0.4981 -0.1522
  560MOL0     N75515   3.903   5.862   8.403  0.1289  0.2337 -0.4612
  560MOL0     N75516   3.842   5.749   8.410  0.5709  0.0123  0.6328
  560MOL0     C75517   3.929   5.164   7.948 -0.8142 -0.1170 -0.8778
  560MOL0     C75518   3.826   5.083   7.886  0.6513 -0.6908  0.0790
  560MOL0     C75519   3.535   4.854   7.687 -0.0228 -0.6704  0.4198
  560MOL0     C75520   3.409   4.916   7.672 -0.2807 -0.1047  0.5375
  560MOL0     C75521   3.286   4.841   7.682  0.2554  0.3468  0.3712
  560MOL0     C75522   3.292   4.700   7.693  1.0207 -0.0329  0.2500
  560MOL0     O75523   3.178   4.618   7.695  0.1109  0.3422  0.0371
  560MOL0     C75524   3.046   4.666   7.732 -0.5169 -0.3608 -0.1653
  560MOL0     C75525   2.964   4.733   7.631 -0.4815 -0.0495 -0.0779
  560MOL0     C75526   2.818   4.724   7.673 -0.2027 -0.1587  0.5699
  560MOL0     C75527   2.725   4.807   7.585 -0.1489 -0.0649  0.6950
  560MOL0     C75528   2.587   4.805   7.627  0.2804 -0.3604  1.3072
  560MOL0     C75529   2.475   4.801   7.659  0.1565 -0.5347  0.3926
  560MOL0     C75530   3.418   4.639   7.692 -0.4868 -0.5127  0.0592
  560MOL0     C75531   3.536   4.715   7.694 -0.0810  0.0418  0.0650
  560MOL0     C75532   3.668   4.633   7.680 -0.5553  0.3055 -0.1517
  560MOL0     H75533   4.019   4.870   7.717 -0.8561  2.0423 -2.5452
  560MOL0     H75534   4.199   4.994   7.837  0.1351 -0.7332 -1.4389
  560MOL0     H75535   4.206   5.068   8.132  2.1331 -2.7973 -2.8280
  560MOL0     H75536   4.344   5.115   8.029  1.2236  1.4376  0.8318
  560MOL0     H75537   4.344   5.348   8.144  1.6844  1.2552  0.4557
  560MOL0     H75538   4.391   5.212   8.257 -2.0052  0.9200  3.0221
  560MOL0     H75539   4.150   5.197   8.319  1.5900 -0.3565  0.7631
  560MOL0     H75540   4.134   5.367   8.254 -2.2049  0.1535  2.2534
  560MOL0     H75541   4.348   5.286   8.458  0.0184 -0.1475 -0.1826
  560MOL0     H75542   4.303   5.448   8.412  2.1738 -0.7106 -1.1726
  560MOL0     H75543   4.124   5.279   8.572  0.9370  0.1189 -0.9989
  560MOL0     H75544   4.218   5.422   8.617  1.3335  1.2642 -1.2836
  560MOL0     H75545   4.071   5.561   8.453 -0.4930  1.0522  1.3239
  560MOL0     H75546   3.988   5.412   8.410 -0.7520  1.2146  0.4212
  560MOL0     H75547   3.977   5.498   8.697  2.9615 -0.3031 -0.4572
  560MOL0     H75548   3.893   5.364   8.604 -1.7265  1.1927  1.0701
  560MOL0     H75549   3.745   5.522   8.507  0.7938  2.7954 -1.8275
  560MOL0     H75550   3.775   5.568   8.671 -1.6143 -1.0857 -1.2913
  560MOL0     H75551   3.981   5.766   8.703  1.4377  1.8725 -0.1159
  560MOL0     H75552   4.056   6.079   8.480  0.4506  0.0147  0.6809
  560MOL0     H75553   4.048   6.049   8.646 -0.1786 -0.2625  0.8612
  560MOL0     H75554   4.210   5.904   8.677 -3.8770 -1.1479 -0.3640
  560MOL0     H75555   4.235   5.858   8.512  2.0962  1.1009 -1.3703
  560MOL0     H75556   4.281   6.110   8.453 -0.2034  0.4493 -0.7652
  560MOL0     H75557   4.406   6.021   8.535  0.0121  1.7738 -2.1858
  560MOL0     H75558   4.315   6.130   8.753 -1.0238 -0.3422  0.1541
  560MOL0     H75559   4.216   6.223   8.634  0.4069  0.6679 -0.6599
  560MOL0     H75560   4.519   6.014   8.748  0.4259  0.1980 -0.1468
  560MOL0     H75561   4.740   5.983   8.782  1.9387  0.3493 -0.9899
  560MOL0     H75562   5.188   6.041   8.502 -0.9830  0.7606  0.5148
  560MOL0     H75563   5.453   6.014   8.548  1.1009  0.1152  1.7268
  560MOL0     H75564   5.601   5.997   8.760 -0.3915 -2.6587 -2.1957
  560MOL0     H75565   5.668   5.992   8.598  3.9782 -2.5704  1.6892
  560MOL0     H75566   5.798   6.136   8.827  1.1121  0.4821 -1.1078
  560MOL0     H75567   5.849   5.979   8.768  4.8680  2.0454  1.7295
  560MOL0     H75568   5.898   6.108   8.539  0.5491  1.1999  0.2332
  560MOL0     H75569   5.851   6.247   8.635 -0.6625 -0.7965 -2.7721
  560MOL0     H75570   6.079   6.076   8.742  2.4211  0.3737  0.2461
  560MOL0     H75571   6.034   6.248   8.772  0.8030 -1.4392  0.5162
  560MOL0     H75572   6.149   6.325   8.594 -1.7192 -0.7869 -1.0957
  560MOL0     H75573   6.112   6.180   8.502  1.5175  0.7755 -2.3887
  560MOL0     H75574   6.294   6.185   8.738 -4.2396  3.4095 -0.7384
  560MOL0     H75575   6.284   6.051   8.615  1.4178 -0.4311 -0.7553
  560MOL0     H75576   6.397   6.345   8.573  0.8403 -0.6315  2.0234
  560MOL0     H75577   6.362   6.225   8.448  0.6279  2.3199  0.4646
  560MOL0     H75578   6.602   6.237   8.554 -2.3870  2.6946  0.7840
  560MOL0     H75579   6.538   6.105   8.648  1.2711 -1.1095 -1.2926
  560MOL0     H75580   5.437   6.370   8.775 -3.1351  1.6489 -1.1141
  560MOL0     H75581   5.199   6.380   8.756  0.9280  0.1478 -0.1620
  560MOL0     H75582   4.850   6.330   8.551  0.9442  0.0824  0.0616
  560MOL0     H75583   4.602   6.398   8.557 -2.9110  0.6520  2.0112
  560MOL0     H75584   3.895   5.249   8.006  1.9768  0.4894  0.0116
  560MOL0     H75585   3.719   5.086   7.903  0.4131  1.1477 -1.4432
  560MOL0     H75586   3.406   5.024   7.662  1.6272  0.0765  1.5411
  560MOL0     H75587   3.187   4.885   7.674 -0.4949 -1.5419 -1.8966
  560MOL0     H75588   3.057   4.735   7.816  2.4711 -1.5309  0.5246
  560MOL0     H75589   3.006   4.573   7.772  1.3544 -2.1915 -2.2832
  560MOL0     H75590   2.982   4.678   7.538 -0.5799  1.0614 -0.7698
  560MOL0     H75591   2.995   4.837   7.619 -0.4539  0.0474  0.7753
  560MOL0     H75592   2.806   4.755   7.777  0.3002  0.8807  0.3379
  560MOL0     H75593   2.791   4.619   7.660 -1.3629  0.2770 -0.8539
  560MOL0     H75594   2.772   4.906   7.591  0.6403 -0.5159  2.3260
  560MOL0     H75595   2.721   4.768   7.483 -1.2313  0.5707  0.4702
  560MOL0     H75596   2.370   4.785   7.671 -0.3334  1.5482 -0.6582
  560MOL0     H75597   3.417   4.530   7.698  1.4316 -0.5891 -0.2810
  560MOL0     H75598   3.742   4.666   7.607  2.2885 -2.2926  1.3454
  560MOL0     H75599   3.720   4.624   7.776 -1.5053 -0.6747  0.2897
  560MOL0     H75600   3.649   4.532   7.643  0.9635  0.3428 -1.1025
  561MOL0     O75601   8.581   1.170   6.848 -0.1318 -0.8871 -0.0188
  561MOL0     C75602   8.559   1.245   6.941  0.4009 -0.0542  0.3048
  561MOL0     O75603   8.636   1.351   6.984 -0.8670  0.2278  0.0201
  561MOL0     C75604   8.743   1.385   6.906 -0.1203  0.2420 -0.5007
  561MOL0     C75605   8.733   1.489   6.815 -0.0661 -0.0191 -0.0459
  561MOL0     C75606   8.844   1.514   6.731  0.6644  0.3844  0.4112
  561MOL0     C75607   8.967   1.452   6.748 -0.8139  0.2523 -0.5354
  561MOL0     O75608   9.074   1.506   6.677  0.2253 -0.2699 -0.6853
  561MOL0     C75609   9.201   1.440   6.665  0.0842  1.0064  0.1567
  561MOL0     C75610   9.302   1.545   6.618  0.2351 -0.8427  0.5444
  561MOL0     C75611   9.434   1.481   6.596 -0.1868  0.1814 -0.0575
  561MOL0     C75612   9.515   1.564   6.495 -0.1541 -0.4157 -1.0704
  561MOL0     C75613   9.663   1.508   6.475  0.6014 -0.0966 -0.2328
  561MOL0     C75614   9.725   1.572   6.347  0.7471  0.7960  0.1616
  561MOL0     C75615   9.876   1.538   6.321 -0.5966 -0.3895  0.0713
  561MOL0     C75616   9.947   1.609   6.202 -0.3823 -1.2013  0.0516
  561MOL0     N75617  10.084   1.568   6.199 -0.2030 -0.6502 -0.0116
  561MOL0     C75618  10.171   1.570   6.300 -0.5916  0.1450 -0.0092
  561MOL0     C75619  10.281   1.509   6.251  0.6680 -0.7082  0.1266
  561MOL0     C75620  10.407   1.497   6.334 -0.1836 -0.5599 -1.1814
  561MOL0     C75621  10.386   1.528   6.484  0.3934 -0.6853  0.4518
  561MOL0     C75622  10.505   1.486   6.574  0.0457  0.6781  0.0096
  561MOL0     C75623  10.637   1.549   6.534  0.1000 -0.4223  0.2081
  561MOL0     O75624  10.626   1.685   6.578  1.1269 -0.4023  0.2690
  561MOL0     C75625  10.736   1.765   6.579 -0.0022  0.5614 -0.6789
  561MOL0     C75626  10.866   1.719   6.575 -0.4773  0.4435 -0.0049
  561MOL0     C75627  10.974   1.816   6.588  0.0548 -0.9753 -0.2364
  561MOL0     C75628  10.946   1.953   6.620  0.3381  0.6520  0.2779
  561MOL0     C75629  11.063   2.041   6.637  0.7186 -0.0753 -0.7404
  561MOL0     O75630  11.192   1.990   6.642  0.2162 -0.6483  0.7122
  561MOL0     C75631  11.297   2.080   6.659 -0.0445  0.1308 -0.0850
  561MOL0     C75632  11.314   2.190   6.566 -0.2325 -0.4388  0.3068
  561MOL0     C75633  11.424   2.269   6.583  0.5436  0.7243  0.1227
  561MOL0     C75634  11.503   2.252   6.690  0.6953  0.3723 -0.2902
  561MOL0     O75635  11.598   2.346   6.721 -0.3164 -0.3305  0.8537
  561MOL0     C75636  11.696   2.370   6.623  1.0268  0.0011  0.6721
  561MOL0     C75637  11.825   2.424   6.689 -1.3700  0.4007  0.3413
  561MOL0     C75638  11.904   2.306   6.752 -0.1418  0.6521 -0.1044
  561MOL0     C75639  12.015   2.370   6.822 -0.2115 -0.4441 -0.3539
  561MOL0     C75640  12.092   2.266   6.900 -0.4358 -0.0729 -0.2650
  561MOL0     C75641  12.205   2.340   6.971 -0.0675 -0.0015  0.7561
  561MOL0     C75642  12.292   2.229   7.038 -0.1089 -0.1965  1.3276
  561MOL0     C75643  12.407   2.290   7.116 -0.2895 -0.2740  0.3888
  561MOL0    Cl75644  12.525   2.162   7.169  0.2713  0.1326  0.0100
  561MOL0     C75645  11.499   2.145   6.774  0.2384  0.1100 -0.3554
  561MOL0     C75646  11.393   2.060   6.757 -0.1031  0.6509  0.0973
  561MOL0     O75647  11.038   2.160   6.643  0.1581 -1.0288 -0.3292
  561MOL0     C75648  10.808   1.995   6.623  0.0507 -0.6797  0.2506
  561MOL0     C75649  10.711   1.896   6.608 -0.0537 -0.0684  0.5686
  561MOL0     N75650  10.261   1.481   6.117 -0.3662  0.1842  0.0511
  561MOL0     N75651  10.138   1.502   6.089  0.8676 -0.6155 -0.0631
  561MOL0     C75652   8.975   1.345   6.831  0.6018 -0.3785 -0.4287
  561MOL0     C75653   8.862   1.316   6.912 -0.1920  0.4474  0.1437
  561MOL0     C75654   8.425   1.232   6.998  0.0846 -0.5319 -0.0476
  561MOL0     C75655   8.381   1.323   7.098 -0.0878 -0.5525 -0.0479
  561MOL0     C75656   8.266   1.302   7.177  0.5967 -0.5847  0.4798
  561MOL0     C75657   8.170   1.205   7.144 -0.7153 -0.8145  0.6183
  561MOL0     O75658   8.049   1.179   7.209 -0.7702  0.1544  0.7418
  561MOL0     C75659   7.998   1.276   7.302  0.2518 -0.9396  0.0880
  561MOL0     C75660   7.845   1.273   7.317 -0.4573 -0.3223  0.4072
  561MOL0     C75661   7.786   1.137   7.288  0.2361 -0.0004 -1.0544
  561MOL0     C75662   7.638   1.109   7.331  0.4228  0.0289  0.4117
  561MOL0     C75663   7.550   1.200   7.256  0.4788  0.3144  0.4453
  561MOL0     C75664   7.478   1.268   7.185 -0.8571 -0.2534 -0.3021
  561MOL0     C75665   8.208   1.120   7.040 -0.4290  0.4530 -0.4767
  561MOL0     C75666   8.327   1.129   6.966 -0.8656  0.7025  0.1934
  561MOL0     C75667   8.353   1.031   6.856  0.2021  0.5489 -0.9147
  561MOL0     H75668   8.640   1.545   6.806  0.1862  0.5174  0.6409
  561MOL0     H75669   8.848   1.595   6.658  1.5808 -0.3771 -0.4095
  561MOL0     H75670   9.228   1.409   6.767 -0.9753  0.8721  0.4102
  561MOL0     H75671   9.182   1.364   6.589  1.3147  0.9390 -0.1079
  561MOL0     H75672   9.310   1.628   6.689  1.9533 -0.8082  0.3540
  561MOL0     H75673   9.272   1.571   6.517  1.7787  2.1475  0.7531
  561MOL0     H75674   9.434   1.380   6.555 -2.1929 -0.7636  1.9780
  561MOL0     H75675   9.487   1.483   6.692 -0.8769  1.5628  0.3209
  561MOL0     H75676   9.456   1.566   6.404 -1.7316 -2.2919 -0.1615
  561MOL0     H75677   9.517   1.668   6.529 -1.4261 -0.9537  0.7976
  561MOL0     H75678   9.721   1.528   6.566 -0.2719 -2.9790  1.0980
  561MOL0     H75679   9.658   1.399   6.465  0.8077 -0.5309  3.0841
  561MOL0     H75680   9.672   1.538   6.257  1.6627 -1.9409  0.5793
  561MOL0     H75681   9.726   1.681   6.356  2.3288  0.8929 -0.7579
  561MOL0     H75682   9.905   1.432   6.318  3.3194  0.5307  0.6562
  561MOL0     H75683   9.932   1.568   6.410  1.3036 -3.2612 -0.0074
  561MOL0     H75684   9.896   1.587   6.108 -0.7612  2.1770 -0.6685
  561MOL0     H75685   9.941   1.718   6.212  0.4643 -1.0329 -1.1142
  561MOL0     H75686  10.148   1.606   6.400 -0.9974  1.1330 -0.4415
  561MOL0     H75687  10.434   1.392   6.318 -2.1535 -0.9843 -2.0318
  561MOL0     H75688  10.489   1.557   6.295  1.0007 -0.0854  1.7969
  561MOL0     H75689  10.363   1.632   6.506 -1.1401 -1.1510  1.1889
  561MOL0     H75690  10.303   1.468   6.522 -0.2563  0.2420  0.5302
  561MOL0     H75691  10.504   1.377   6.583  2.2846  0.4768 -1.4047
  561MOL0     H75692  10.485   1.512   6.679 -0.1455 -0.5709  0.3072
  561MOL0     H75693  10.657   1.537   6.427  1.3099 -0.3832  0.4114
  561MOL0     H75694  10.719   1.503   6.591  2.7730  1.4191 -1.9030
  561MOL0     H75695  10.899   1.619   6.548 -2.4122 -0.2187 -0.0307
  561MOL0     H75696  11.079   1.787   6.580  0.9729  1.9568  0.0663
  561MOL0     H75697  11.244   2.197   6.484  2.1574 -2.9692 -2.1713
  561MOL0     H75698  11.440   2.357   6.521  3.1701  1.3690  1.5763
  561MOL0     H75699  11.718   2.274   6.574 -1.4975  0.3504 -1.3528
  561MOL0     H75700  11.653   2.431   6.543 -1.5445 -1.6155  0.6903
  561MOL0     H75701  11.873   2.472   6.604 -0.3223  0.4714  0.9599
  561MOL0     H75702  11.814   2.489   6.777  0.6638  2.6697 -0.9461
  561MOL0     H75703  11.839   2.252   6.822 -1.7413  1.4108 -0.9543
  561MOL0     H75704  11.931   2.233   6.675 -1.6469  1.6583 -1.6493
  561MOL0     H75705  11.979   2.448   6.889  1.5425  0.1167 -0.0233
  561MOL0     H75706  12.076   2.423   6.749 -2.2151  1.4156 -0.7923
  561MOL0     H75707  12.125   2.187   6.832  1.9344  0.8332 -0.2491
  561MOL0     H75708  12.036   2.237   6.990  0.8495  3.4313  1.8482
  561MOL0     H75709  12.259   2.406   6.902  4.1582 -2.8043  0.9680
  561MOL0     H75710  12.159   2.401   7.049 -2.1083 -0.6938  0.1380
  561MOL0     H75711  12.335   2.165   6.960 -1.2810  0.4206  0.1410
  561MOL0     H75712  12.234   2.161   7.100 -2.1853 -0.4311 -0.7273
  561MOL0     H75713  12.465   2.359   7.053 -1.8279  0.2857 -0.4793
  561MOL0     H75714  12.368   2.350   7.199  0.8383  0.8486  0.1506
  561MOL0     H75715  11.558   2.131   6.865  1.0899 -2.0476 -1.1796
  561MOL0     H75716  11.381   1.966   6.811 -1.1785 -0.0823 -1.3366
  561MOL0     H75717  10.782   2.099   6.637  2.9884  0.3198 -1.0917
  561MOL0     H75718  10.604   1.910   6.618 -0.1768  0.0978 -0.6891
  561MOL0     H75719   9.061   1.280   6.844  2.1426  1.4601 -0.8392
  561MOL0     H75720   8.862   1.229   6.977 -0.2345  0.6926  0.4780
  561MOL0     H75721   8.445   1.402   7.136  0.7544 -1.2879  0.0970
  561MOL0     H75722   8.249   1.366   7.264 -0.3454  1.6772 -1.2826
  561MOL0     H75723   8.026   1.377   7.271 -3.4008  0.7035  1.5483
  561MOL0     H75724   8.044   1.253   7.398  0.2760 -1.8630 -0.1318
  561MOL0     H75725   7.803   1.341   7.243  0.2332 -1.9413 -1.5763
  561MOL0     H75726   7.813   1.308   7.416 -1.7391 -0.6384  0.1208
  561MOL0     H75727   7.847   1.061   7.337  0.7796 -1.2320 -3.4630
  561MOL0     H75728   7.783   1.113   7.181 -4.1365 -0.7358 -0.9465
  561MOL0     H75729   7.612   1.006   7.304 -1.7829  0.8016 -0.6419
  561MOL0     H75730   7.614   1.129   7.436 -0.6491  0.7412  0.0516
  561MOL0     H75731   7.418   1.325   7.117  0.0392  1.0799  0.0021
  561MOL0     H75732   8.139   1.044   7.007 -1.8287  2.3087 -2.0794
  561MOL0     H75733   8.373   1.080   6.760 -2.4390  1.7611 -0.9599
  561MOL0     H75734   8.436   0.967   6.886 -1.9146 -0.7563  2.9291
  561MOL0     H75735   8.269   0.962   6.845  0.6851  0.1278 -2.1040
  562MOL0     O75736   4.475   0.189   8.027 -0.5442  0.1561  0.4822
  562MOL0     C75737   4.435   0.119   7.929  0.4343 -0.2848 -0.4693
  562MOL0     O75738   4.508   0.043   7.848 -0.4370 -0.0024  0.1771
  562MOL0     C75739   4.637   0.083   7.830  0.2383  0.8294  0.3222
  562MOL0     C75740   4.666   0.201   7.757  0.3365 -0.0168  0.2182
  562MOL0     C75741   4.799   0.244   7.736  0.3572 -0.1741  0.3005
  562MOL0     C75742   4.906   0.163   7.772 -0.7048  0.1594  0.0623
  562MOL0     O75743   5.025   0.213   7.734  0.7859  0.1455  0.5439
  562MOL0     C75744   5.137   0.167   7.808 -0.0024  0.4846  0.3869
  562MOL0     C75745   5.229   0.289   7.810 -0.1394  0.4947  0.7403
  562MOL0     C75746   5.372   0.247   7.859 -0.0068  0.5511 -0.3783
  562MOL0     C75747   5.469   0.367   7.870  0.1529  0.0295 -0.2816
  562MOL0     C75748   5.617   0.334   7.883 -0.5936 -0.2005  0.3112
  562MOL0     C75749   5.679   0.280   7.751  0.2268 -0.5168 -1.1294
  562MOL0     C75750   5.820   0.229   7.783 -0.4856  0.3587 -0.1731
  562MOL0     C75751   5.929   0.327   7.833 -0.0869 -0.0479 -0.3840
  562MOL0     N75752   6.041   0.242   7.883  0.1706  0.2530  1.2174
  562MOL0     C75753   6.124   0.166   7.809 -0.8518 -0.6853 -0.0440
  562MOL0     C75754   6.210   0.111   7.901 -0.2644 -0.7932 -0.0258
  562MOL0     C75755   6.328   0.020   7.875  0.2391  0.6287 -0.4820
  562MOL0     C75756   6.442   0.109   7.829 -0.1476 -0.3222  0.5285
  562MOL0     C75757   6.554   0.016   7.790  0.6011 -0.3657 -0.1432
  562MOL0     C75758   6.675   0.098   7.750  0.6683  0.0392 -0.7287
  562MOL0     O75759   6.759   0.014   7.675 -0.0689  0.3188  0.3018
  562MOL0     C75760   6.892   0.050   7.673 -0.3070  0.6438 -0.0324
  562MOL0     C75761   6.989  -0.044   7.627  0.2594 -0.2306 -0.5188
  562MOL0     C75762   7.125  -0.009   7.615  0.9840  0.5435  0.1316
  562MOL0     C75763   7.167   0.118   7.644  0.1259 -0.0229 -0.6776
  562MOL0     C75764   7.309   0.135   7.644  0.0908  0.3900 -0.3088
  562MOL0     O75765   7.352   0.250   7.685 -0.3062 -0.2977 -0.1853
  562MOL0     C75766   7.483   0.266   7.715 -0.2057  0.0324  0.3348
  562MOL0     C75767   7.527   0.396   7.693 -0.4528  0.2510  0.0053
  562MOL0     C75768   7.661   0.426   7.719 -0.5959  0.2953 -0.6920
  562MOL0     C75769   7.751   0.337   7.761  0.1139 -0.6130 -1.0055
  562MOL0     O75770   7.880   0.358   7.771  0.0017 -0.4667  0.0878
  562MOL0     C75771   7.945   0.436   7.668 -0.9646 -0.1099 -0.1822
  562MOL0     C75772   8.003   0.330   7.584  0.2563  0.0760 -0.5000
  562MOL0     C75773   8.104   0.371   7.468 -0.3163 -0.1691  0.0358
  562MOL0     C75774   8.239   0.428   7.528 -0.0127 -0.1877 -0.3562
  562MOL0     C75775   8.344   0.454   7.419  0.4704  0.2124  0.4028
  562MOL0     C75776   8.474   0.502   7.457  0.6811 -0.0127  0.8359
  562MOL0     C75777   8.474   0.627   7.558 -0.1925  0.3535  0.0381
  562MOL0     C75778   8.590   0.724   7.561 -0.3688 -0.1777 -0.6643
  562MOL0    Cl75779   8.740   0.636   7.612  0.1603  0.0105  0.0377
  562MOL0     C75780   7.703   0.208   7.794 -0.8361 -0.4176 -0.3064
  562MOL0     C75781   7.571   0.172   7.771 -0.0788  0.1058  0.5381
  562MOL0     O75782   7.379   0.042   7.602  0.4015  0.4122  0.3585
  562MOL0     C75783   7.070   0.213   7.692 -0.4248 -0.3710  0.3097
  562MOL0     C75784   6.939   0.177   7.699 -0.3346 -0.6966 -0.4404
  562MOL0     N75785   6.189   0.173   8.026  0.8486  0.2771  0.3857
  562MOL0     N75786   6.086   0.244   8.010 -0.3246 -0.1921 -0.1218
  562MOL0     C75787   4.882   0.034   7.827  0.3726  0.5212 -0.8144
  562MOL0     C75788   4.745   0.003   7.863  0.3340  0.6099  0.7021
  562MOL0     C75789   4.287   0.091   7.936 -0.3055 -0.1522  0.6518
  562MOL0     C75790   4.229  -0.016   7.858 -0.4721 -0.3824 -0.5733
  562MOL0     C75791   4.100  -0.046   7.868  0.4624 -0.8981 -0.5081
  562MOL0     C75792   4.008   0.029   7.935  0.2256 -0.1406 -0.0085
  562MOL0     O75793   3.877  -0.008   7.924 -0.8606  0.0124 -0.9337
  562MOL0     C75794   3.783   0.025   8.031 -0.9879  0.0257 -0.6578
  562MOL0     C75795   3.694   0.151   7.988  0.2561 -0.2995  0.4993
  562MOL0     C75796   3.595   0.212   8.095  0.5916  0.4839  0.1973
  562MOL0     C75797   3.656   0.254   8.225 -0.2562  0.3548 -0.3904
  562MOL0     C75798   3.742   0.365   8.221 -0.1467  0.0495  0.3516
  562MOL0     C75799   3.831   0.449   8.207  0.5491  0.3619 -0.2848
  562MOL0     C75800   4.053   0.143   7.998  0.2790  0.1262 -0.5928
  562MOL0     C75801   4.189   0.176   8.001  0.2215 -0.8554  0.2811
  562MOL0     C75802   4.223   0.309   8.060 -0.5808  0.1974 -0.2811
  562MOL0     H75803   4.586   0.264   7.719  0.6165  0.2912  0.1401
  562MOL0     H75804   4.811   0.338   7.684 -2.1283  0.3941  0.6316
  562MOL0     H75805   5.121   0.142   7.914 -3.5703  0.8333  0.0583
  562MOL0     H75806   5.175   0.080   7.752 -0.4204  0.0791  0.7206
  562MOL0     H75807   5.187   0.366   7.875 -2.4011 -0.9889  1.1225
  562MOL0     H75808   5.231   0.327   7.707 -0.7516 -0.5445  0.3371
  562MOL0     H75809   5.401   0.174   7.783 -1.4759 -1.6835  1.1114
  562MOL0     H75810   5.363   0.189   7.951 -2.0138  0.7245 -0.4389
  562MOL0     H75811   5.459   0.428   7.780 -1.4933  1.1324  0.6090
  562MOL0     H75812   5.440   0.433   7.953  0.1049  0.9527 -1.0186
  562MOL0     H75813   5.668   0.429   7.900  0.6683 -1.0787  1.5377
  562MOL0     H75814   5.637   0.266   7.966 -0.8640 -1.2329 -0.4440
  562MOL0     H75815   5.616   0.200   7.709  2.9838 -2.1072 -2.5131
  562MOL0     H75816   5.689   0.371   7.692 -2.6039  0.8653  0.3074
  562MOL0     H75817   5.854   0.178   7.692 -0.8981  0.5247 -0.4205
  562MOL0     H75818   5.809   0.155   7.863  2.3611  0.6717  0.6218
  562MOL0     H75819   5.963   0.390   7.751  1.5533  0.6255  0.7675
  562MOL0     H75820   5.894   0.394   7.912 -0.3557 -1.8070  1.0684
  562MOL0     H75821   6.133   0.133   7.706  0.5460  0.5072 -0.3349
  562MOL0     H75822   6.341  -0.046   7.961 -3.5362 -1.5005 -1.3199
  562MOL0     H75823   6.303  -0.051   7.795  1.2500  1.8996 -1.9704
  562MOL0     H75824   6.408   0.152   7.735 -1.4837 -1.0926  0.6372
  562MOL0     H75825   6.472   0.187   7.901  2.6265  0.4029 -1.2639
  562MOL0     H75826   6.541  -0.047   7.702 -0.6805 -2.9944  1.7989
  562MOL0     H75827   6.586  -0.052   7.869 -0.1519 -0.3065  0.2261
  562MOL0     H75828   6.719   0.137   7.843 -1.7665 -1.1586  1.0481
  562MOL0     H75829   6.651   0.180   7.683  0.0319 -0.6182 -1.3153
  562MOL0     H75830   6.949  -0.143   7.608 -0.8268 -0.3121  1.8094
  562MOL0     H75831   7.184  -0.095   7.585  1.1564  0.6621  0.1291
  562MOL0     H75832   7.457   0.472   7.657 -2.0028 -1.5814 -1.0459
  562MOL0     H75833   7.696   0.529   7.714  0.9121  0.0846  2.8330
  562MOL0     H75834   7.886   0.502   7.604  0.2858 -1.3591 -2.8193
  562MOL0     H75835   8.019   0.499   7.718 -1.8417 -1.1294  2.6183
  562MOL0     H75836   8.048   0.260   7.654 -3.0273 -2.0471 -0.2924
  562MOL0     H75837   7.926   0.266   7.539  0.0196 -0.1548  0.2133
  562MOL0     H75838   8.130   0.277   7.418  0.2858 -1.2422  2.2167
  562MOL0     H75839   8.056   0.439   7.397 -1.2319 -2.9777 -2.2233
  562MOL0     H75840   8.277   0.358   7.603 -1.5822  0.0141  0.6856
  562MOL0     H75841   8.219   0.525   7.575  1.1230 -0.2353  0.2568
  562MOL0     H75842   8.294   0.527   7.354 -0.4865  0.0907  0.9851
  562MOL0     H75843   8.355   0.361   7.363  1.7285  1.3814 -1.3956
  562MOL0     H75844   8.538   0.426   7.503  0.9128  0.1935  0.8600
  562MOL0     H75845   8.541   0.531   7.376  0.9875  2.1384  1.7770
  562MOL0     H75846   8.444   0.597   7.659 -1.5185 -1.1875 -0.7882
  562MOL0     H75847   8.387   0.687   7.530 -1.1679 -1.1339 -0.1946
  562MOL0     H75848   8.600   0.769   7.462  1.5847  3.3775  0.9567
  562MOL0     H75849   8.567   0.805   7.631  2.7843 -1.1598  1.7328
  562MOL0     H75850   7.779   0.149   7.843  0.7047  1.9464  0.3635
  562MOL0     H75851   7.548   0.068   7.793 -1.8166  0.6185  1.3183
  562MOL0     H75852   7.086   0.316   7.722 -2.9872  0.7567 -1.7726
  562MOL0     H75853   6.870   0.249   7.743  1.0748  0.6487 -0.3288
  562MOL0     H75854   4.961  -0.034   7.857  2.8959  3.2139 -0.9218
  562MOL0     H75855   4.726  -0.091   7.914  0.9057 -0.6305 -1.2446
  562MOL0     H75856   4.300  -0.080   7.808  0.5399  0.1280  0.1695
  562MOL0     H75857   4.045  -0.129   7.826 -1.0302  0.0752 -0.5637
  562MOL0     H75858   3.835   0.049   8.125 -0.0091 -1.0042 -0.9187
  562MOL0     H75859   3.738  -0.069   8.062  1.1361 -0.3530  1.6580
  562MOL0     H75860   3.637   0.115   7.902 -1.5771  2.0142  0.6366
  562MOL0     H75861   3.759   0.234   7.958 -2.1135  0.8773 -1.7767
  562MOL0     H75862   3.533   0.129   8.131  1.3765  0.3456  1.3041
  562MOL0     H75863   3.524   0.281   8.049  0.7666 -0.6019 -1.8084
  562MOL0     H75864   3.574   0.293   8.286 -2.2058  0.7084 -3.0666
  562MOL0     H75865   3.687   0.168   8.284 -0.8993 -0.1304 -0.7505
  562MOL0     H75866   3.896   0.534   8.207  0.6817  0.3396  2.1936
  562MOL0     H75867   3.983   0.214   8.040 -0.3861  0.6649 -2.5163
  562MOL0     H75868   4.142   0.380   8.042 -1.2482  0.2840  2.6107
  562MOL0     H75869   4.234   0.309   8.169 -1.5145  1.1241 -0.1700
  562MOL0     H75870   4.316   0.347   8.018 -0.7103  1.4269  0.4778
  563MOL0     O75871   5.508   8.857   2.282 -0.1340  0.4893  0.2141
  563MOL0     C75872   5.565   8.807   2.183  0.2369  0.5403 -0.3918
  563MOL0     O75873   5.520   8.813   2.055  0.2501  0.3462  0.4067
  563MOL0     C75874   5.395   8.853   2.012  0.3486 -0.2314  0.1315
  563MOL0     C75875   5.295   8.922   2.085  0.1758  0.6613 -0.2005
  563MOL0     C75876   5.168   8.950   2.021 -0.3903  0.5206  1.2649
  563MOL0     C75877   5.138   8.907   1.891  0.2727 -0.5727  0.3829
  563MOL0     O75878   5.013   8.912   1.832 -0.1030 -0.2156  0.0244
  563MOL0     C75879   4.926   9.014   1.879  0.4396 -0.4875  0.0649
  563MOL0     C75880   4.796   9.025   1.786 -0.2623  0.3760  0.2674
  563MOL0     C75881   4.728   9.160   1.798  0.0281  0.5662 -0.2969
  563MOL0     C75882   4.601   9.169   1.708  0.6520 -0.2593 -0.2241
  563MOL0     C75883   4.538   9.309   1.701  0.2515  0.5271 -0.3077
  563MOL0     C75884   4.451   9.328   1.823 -0.4656 -0.0381 -0.5619
  563MOL0     C75885   4.404   9.476   1.841 -1.4088  0.6742  0.2907
  563MOL0     C75886   4.328   9.502   1.967  0.2003 -0.2679 -0.1409
  563MOL0     N75887   4.432   9.528   2.071  0.0799  0.2232 -0.0495
  563MOL0     C75888   4.494   9.426   2.140 -0.3918 -0.4455  0.4435
  563MOL0     C75889   4.579   9.503   2.212 -0.6174  1.1401  0.1060
  563MOL0     C75890   4.690   9.446   2.297 -1.0609  0.2754 -0.0746
  563MOL0     C75891   4.828   9.460   2.231  0.4699  1.0826 -0.3471
  563MOL0     C75892   4.842   9.360   2.108 -0.0213 -0.9010 -0.7559
  563MOL0     C75893   4.986   9.374   2.049  0.7873  0.0024  0.5777
  563MOL0     O75894   5.086   9.335   2.142 -0.3160 -0.2620  0.3065
  563MOL0     C75895   5.210   9.312   2.098  0.2816 -0.2272  0.1626
  563MOL0     C75896   5.260   9.298   1.971  1.0848 -0.2784 -0.1356
  563MOL0     C75897   5.387   9.252   1.941  0.2044  0.0588 -0.2622
  563MOL0     C75898   5.476   9.248   2.040  0.0367  0.2411  0.4745
  563MOL0     C75899   5.612   9.191   2.008 -0.0380  0.3399  0.2731
  563MOL0     O75900   5.639   9.138   1.883 -0.1829 -0.1014 -0.5773
  563MOL0     C75901   5.766   9.096   1.865  0.1816  0.0451 -0.8674
  563MOL0     C75902   5.884   9.175   1.859 -0.3332 -0.5636  0.5997
  563MOL0     C75903   6.004   9.125   1.816 -0.0532 -0.3297  0.1473
  563MOL0     C75904   6.020   8.986   1.792  0.4478  0.2809  0.2662
  563MOL0     O75905   6.134   8.929   1.754 -0.4134 -0.2138  0.0631
  563MOL0     C75906   6.233   8.996   1.674 -0.1339 -0.0003 -0.5158
  563MOL0     C75907   6.346   8.895   1.666 -0.0925 -0.5319 -0.3698
  563MOL0     C75908   6.442   8.925   1.554 -0.6619  0.4766  0.5656
  563MOL0     C75909   6.569   8.822   1.542  0.3582  0.0748 -0.3689
  563MOL0     C75910   6.681   8.863   1.444 -0.4507 -0.2493  0.7449
  563MOL0     C75911   6.809   8.777   1.437  0.5910  0.4485  0.1030
  563MOL0     C75912   6.910   8.806   1.561 -0.1681  0.4608  0.3968
  563MOL0     C75913   7.024   8.708   1.566 -0.2039 -0.5735 -0.7842
  563MOL0    Cl75914   7.142   8.741   1.433  0.5806  0.1665 -0.3456
  563MOL0     C75915   5.907   8.905   1.808 -0.0833 -0.3417 -0.2272
  563MOL0     C75916   5.779   8.953   1.841  0.0351  0.2435  1.2140
  563MOL0     O75917   5.689   9.202   2.098 -0.3708  0.1782  0.6376
  563MOL0     C75918   5.438   9.281   2.171 -0.5620 -0.1656  0.8743
  563MOL0     C75919   5.306   9.315   2.204 -0.6372  0.5986 -0.6162
  563MOL0     N75920   4.564   9.642   2.192 -0.8389  0.5187 -0.0060
  563MOL0     N75921   4.471   9.651   2.111  0.1429  0.1203 -0.0975
  563MOL0     C75922   5.245   8.844   1.822  0.6351  1.0742 -0.0520
  563MOL0     C75923   5.372   8.816   1.877  0.5136 -0.0737  0.1467
  563MOL0     C75924   5.706   8.761   2.211  0.5829  0.0579 -0.1970
  563MOL0     C75925   5.777   8.741   2.096 -0.0134 -0.4156 -0.0740
  563MOL0     C75926   5.915   8.709   2.096 -0.5622  0.0531  0.5829
  563MOL0     C75927   5.989   8.699   2.212  0.8821 -0.0995  0.6207
  563MOL0     O75928   6.117   8.659   2.214 -0.0980 -0.5680  0.2184
  563MOL0     C75929   6.195   8.652   2.086 -0.2470  0.8963 -0.0178
  563MOL0     C75930   6.345   8.664   2.123 -0.1140  0.1252  0.1267
  563MOL0     C75931   6.414   8.540   2.188  0.6353 -0.0265 -0.7178
  563MOL0     C75932   6.542   8.580   2.261  0.0102  0.0888  0.3532
  563MOL0     C75933   6.526   8.693   2.359  0.5003 -0.2022  0.6611
  563MOL0     C75934   6.511   8.782   2.443 -0.1807  0.6447  0.0828
  563MOL0     C75935   5.922   8.732   2.330 -0.5450  0.1467 -0.0378
  563MOL0     C75936   5.784   8.768   2.332  0.8135 -0.1157 -0.2398
  563MOL0     C75937   5.728   8.807   2.471 -0.6718 -0.2034 -0.2649
  563MOL0     H75938   5.320   8.955   2.185  0.2591  0.9386 -0.3130
  563MOL0     H75939   5.085   8.993   2.077 -1.0751  1.2580 -0.2759
  563MOL0     H75940   4.890   8.997   1.980 -1.4454  1.4943 -0.2080
  563MOL0     H75941   4.982   9.108   1.878  0.5165 -0.4724  2.3008
  563MOL0     H75942   4.727   8.945   1.815  1.4004 -2.5164 -2.9751
  563MOL0     H75943   4.819   9.019   1.679  0.5641  0.2103  0.4450
  563MOL0     H75944   4.800   9.238   1.772 -1.2152  1.6691 -0.5169
  563MOL0     H75945   4.707   9.173   1.904 -0.2322 -1.2329 -0.0963
  563MOL0     H75946   4.625   9.150   1.603 -2.0809 -0.8694 -0.8318
  563MOL0     H75947   4.524   9.095   1.734 -1.6464  1.1804 -2.4511
  563MOL0     H75948   4.608   9.391   1.687 -1.5547  1.9255 -1.5821
  563MOL0     H75949   4.471   9.315   1.615 -0.1391  1.2502  0.0332
  563MOL0     H75950   4.370   9.254   1.819  0.5329 -1.1951  0.2488
  563MOL0     H75951   4.519   9.310   1.906 -1.1964 -0.5389 -0.0584
  563MOL0     H75952   4.339   9.508   1.758 -0.1023 -1.0430 -1.4797
  563MOL0     H75953   4.488   9.545   1.834 -2.0293  1.2739 -2.7911
  563MOL0     H75954   4.261   9.588   1.972 -0.4813 -0.8375  0.7793
  563MOL0     H75955   4.261   9.417   1.978  0.1491 -0.6350 -2.6079
  563MOL0     H75956   4.483   9.318   2.140 -3.2658 -0.2404  1.9909
  563MOL0     H75957   4.675   9.496   2.393 -1.8707 -0.6286  0.2789
  563MOL0     H75958   4.672   9.340   2.310 -1.1187  0.1854 -0.8345
  563MOL0     H75959   4.834   9.567   2.212 -1.2198  1.5233  1.3932
  563MOL0     H75960   4.904   9.426   2.303 -0.0794 -1.1473 -0.7352
  563MOL0     H75961   4.777   9.391   2.025  1.7998  0.7528 -1.6470
  563MOL0     H75962   4.824   9.256   2.137  0.8620 -0.7879  0.2321
  563MOL0     H75963   5.001   9.478   2.018  0.1034 -0.2083 -0.4931
  563MOL0     H75964   4.986   9.304   1.965  0.2143 -0.2921  0.8169
  563MOL0     H75965   5.185   9.315   1.894 -0.7757 -0.3879  1.5772
  563MOL0     H75966   5.425   9.217   1.846  1.3523 -1.5145  0.7118
  563MOL0     H75967   5.869   9.283   1.867 -0.4210 -0.2621 -2.4988
  563MOL0     H75968   6.085   9.197   1.813 -0.1470 -0.2174  0.2878
  563MOL0     H75969   6.186   9.021   1.579  0.2501  1.3094 -0.3767
  563MOL0     H75970   6.267   9.090   1.718 -0.7442  1.5845 -3.2240
  563MOL0     H75971   6.398   8.886   1.762 -4.6592  0.2103  2.4387
  563MOL0     H75972   6.296   8.799   1.647 -2.1328  0.0664  1.6083
  563MOL0     H75973   6.395   8.937   1.457  3.2477 -0.4425 -1.6786
  563MOL0     H75974   6.481   9.025   1.577 -0.5505  0.2818  1.2753
  563MOL0     H75975   6.533   8.730   1.496  3.4694 -1.5397  0.2025
  563MOL0     H75976   6.619   8.800   1.637  1.4384 -0.8958 -1.1331
  563MOL0     H75977   6.705   8.969   1.450  5.1410 -1.0580 -1.4985
  563MOL0     H75978   6.635   8.856   1.345 -0.1913 -1.3098  0.6877
  563MOL0     H75979   6.786   8.670   1.435  1.2258  0.3221 -0.8964
  563MOL0     H75980   6.854   8.818   1.346  0.5827  1.2246  0.4392
  563MOL0     H75981   6.854   8.798   1.655 -1.1165  0.4539 -0.1579
  563MOL0     H75982   6.961   8.902   1.553  0.0747  0.2875 -0.1738
  563MOL0     H75983   7.095   8.724   1.648  1.6078  1.0713 -2.5564
  563MOL0     H75984   6.990   8.605   1.555  1.3835 -1.1959 -0.0961
  563MOL0     H75985   5.923   8.799   1.793 -1.1414 -0.7612  1.3119
  563MOL0     H75986   5.697   8.882   1.838 -1.1638  1.5488 -2.6250
  563MOL0     H75987   5.511   9.268   2.250  0.1207 -2.4441 -0.0630
  563MOL0     H75988   5.281   9.333   2.308  1.4428 -1.2241  0.2571
  563MOL0     H75989   5.227   8.816   1.719 -1.0361  1.3308  0.1420
  563MOL0     H75990   5.444   8.757   1.822 -0.6632  0.1777 -1.7540
  563MOL0     H75991   5.741   8.745   1.994  0.2419 -0.4720 -0.1688
  563MOL0     H75992   5.964   8.685   2.003  3.9593 -1.5653  3.0513
  563MOL0     H75993   6.183   8.740   2.022  1.2179 -0.8548 -2.9254
  563MOL0     H75994   6.186   8.567   2.017  2.3155  0.1186  0.5210
  563MOL0     H75995   6.332   8.751   2.188  1.2252  0.7947 -0.4741
  563MOL0     H75996   6.397   8.707   2.038  1.6907  0.2824  1.2633
  563MOL0     H75997   6.435   8.473   2.104  0.6178 -0.9067 -0.0363
  563MOL0     H75998   6.347   8.500   2.264  1.4561 -2.3100 -1.1261
  563MOL0     H75999   6.573   8.490   2.315  0.6512 -2.1410 -3.4178
  563MOL0     H76000   6.615   8.603   2.183 -0.7537 -0.6874 -0.6023
  563MOL0     H76001   6.489   8.872   2.496  2.0339  1.4935 -0.3682
  563MOL0     H76002   5.983   8.725   2.420 -0.6822  1.6619  0.1989
  563MOL0     H76003   5.674   8.719   2.508  0.7960 -1.2436 -0.4917
  563MOL0     H76004   5.799   8.830   2.551 -0.3460  0.6340 -0.7751
  563MOL0     H76005   5.671   8.900   2.462 -0.4724 -0.0942 -0.4169
  564MOL0     O76006   3.284   7.766   3.581  0.0498 -0.2621  0.9077
  564MOL0     C76007   3.290   7.656   3.634 -0.0703 -0.5691  0.0883
  564MOL0     O76008   3.388   7.620   3.720 -0.2788 -0.0638 -0.2165
  564MOL0     C76009   3.496   7.702   3.742  0.4981  0.1495 -0.1374
  564MOL0     C76010   3.496   7.773   3.864 -0.6186  0.1968 -0.1967
  564MOL0     C76011   3.601   7.870   3.879 -0.8814  0.1880 -0.4968
  564MOL0     C76012   3.699   7.892   3.782  0.0213  1.5231  0.2609
  564MOL0     O76013   3.777   7.999   3.804  0.3582  0.4628  0.0882
  564MOL0     C76014   3.916   7.991   3.768  1.1417  0.3998 -0.0217
  564MOL0     C76015   3.983   8.074   3.875 -0.2686  0.0187  0.1696
  564MOL0     C76016   4.143   8.054   3.897  0.6940 -0.0522 -0.5460
  564MOL0     C76017   4.194   8.142   4.008  0.6631 -0.1287  0.1805
  564MOL0     C76018   4.339   8.104   4.046 -0.2837 -0.1338 -0.5349
  564MOL0     C76019   4.406   8.223   4.120 -0.1447  0.1173  0.3690
  564MOL0     C76020   4.541   8.183   4.193 -0.1794 -0.8188  0.1709
  564MOL0     C76021   4.642   8.116   4.101  0.3533 -0.3647 -0.6588
  564MOL0     N76022   4.775   8.081   4.156  0.4505  0.3862  0.4343
  564MOL0     C76023   4.860   8.148   4.233 -0.2293 -0.0762 -1.0458
  564MOL0     C76024   4.977   8.077   4.255  0.1958 -0.2268  0.0277
  564MOL0     C76025   5.100   8.141   4.318  0.5417 -0.3765  0.1185
  564MOL0     C76026   5.218   8.044   4.333  0.3417  0.2417  0.4818
  564MOL0     C76027   5.339   8.114   4.400 -0.1867 -0.1406  0.7366
  564MOL0     C76028   5.478   8.058   4.392  0.9116  0.6775  0.0625
  564MOL0     O76029   5.581   8.138   4.459  0.0175 -0.2856 -0.2086
  564MOL0     C76030   5.713   8.103   4.429 -0.5504 -0.2732  0.4849
  564MOL0     C76031   5.799   8.189   4.497 -0.5915  0.0785  0.5539
  564MOL0     C76032   5.941   8.168   4.484  0.8117 -0.3393 -0.2370
  564MOL0     C76033   5.991   8.058   4.412 -1.0682  0.0585  0.2273
  564MOL0     C76034   6.139   8.027   4.417  0.5722 -0.9222 -0.2098
  564MOL0     O76035   6.187   7.922   4.338 -0.2296  0.5267 -0.3223
  564MOL0     C76036   6.329   7.909   4.340  0.0381  0.6125 -0.7491
  564MOL0     C76037   6.397   7.882   4.461  0.2938  0.2696  0.2149
  564MOL0     C76038   6.535   7.847   4.462  0.4913 -0.1727 -1.3517
  564MOL0     C76039   6.613   7.845   4.340 -0.4368 -0.3422 -0.4348
  564MOL0     O76040   6.745   7.824   4.326  0.1065 -0.1795  0.4092
  564MOL0     C76041   6.826   7.850   4.446 -0.2018 -0.0407 -0.2919
  564MOL0     C76042   6.974   7.841   4.411  0.6559  0.2738  0.1484
  564MOL0     C76043   7.075   7.858   4.525 -0.3524 -0.7577  0.7547
  564MOL0     C76044   7.216   7.838   4.466 -0.1240  0.1293  0.3135
  564MOL0     C76045   7.310   7.841   4.583  0.1715  0.5768  0.3887
  564MOL0     C76046   7.460   7.833   4.551  0.0936  0.6146  0.0855
  564MOL0     C76047   7.560   7.802   4.665  0.4847 -0.6703 -0.0459
  564MOL0     C76048   7.526   7.895   4.791 -0.8114 -0.0493  0.0356
  564MOL0    Cl76049   7.649   7.846   4.908  0.0021 -0.1369 -0.3353
  564MOL0     C76050   6.533   7.873   4.225 -0.5704 -0.3281  0.6568
  564MOL0     C76051   6.396   7.895   4.226  0.6296  0.4964  0.3363
  564MOL0     O76052   6.209   8.092   4.496  0.0187 -0.5401  0.2324
  564MOL0     C76053   5.904   7.968   4.356 -0.2360  0.2536 -0.2612
  564MOL0     C76054   5.769   7.990   4.361  0.5540 -1.0429 -0.7895
  564MOL0     N76055   4.962   7.961   4.181  0.1291 -0.6361  1.1403
  564MOL0     N76056   4.838   7.966   4.122 -1.0459  0.0688 -0.3666
  564MOL0     C76057   3.697   7.811   3.666  0.4179  0.3359 -0.3418
  564MOL0     C76058   3.595   7.716   3.648  0.2621  0.3575  0.5100
  564MOL0     C76059   3.193   7.559   3.581  0.0556  0.4549  0.2364
  564MOL0     C76060   3.124   7.597   3.461 -0.7793 -0.4180 -0.1731
  564MOL0     C76061   3.017   7.522   3.416  0.5357 -0.3434 -0.3487
  564MOL0     C76062   2.975   7.400   3.476 -0.7384 -0.8292  0.1725
  564MOL0     O76063   2.875   7.318   3.433 -0.0329 -0.1141  0.0976
  564MOL0     C76064   2.805   7.359   3.310  0.3711  0.0917  0.6858
  564MOL0     C76065   2.696   7.470   3.345  0.1184  0.8171  0.0681
  564MOL0     C76066   2.569   7.404   3.397 -0.0875 -0.4883  0.7631
  564MOL0     C76067   2.460   7.503   3.424  1.4386  0.0403  0.1062
  564MOL0     C76068   2.394   7.573   3.307 -0.6394 -0.4164  0.4040
  564MOL0     C76069   2.334   7.620   3.211 -0.2748 -0.3665 -0.3093
  564MOL0     C76070   3.045   7.366   3.594  0.6154 -0.8239  0.1172
  564MOL0     C76071   3.149   7.447   3.648  0.2185  0.4283 -0.2747
  564MOL0     C76072   3.199   7.410   3.790  0.4550  1.2786  0.4205
  564MOL0     H76073   3.412   7.766   3.933 -0.3928 -1.8540 -0.0771
  564MOL0     H76074   3.611   7.947   3.954  2.0008 -0.1832 -0.4054
  564MOL0     H76075   3.953   7.889   3.757 -1.1292 -0.2924 -1.8606
  564MOL0     H76076   3.922   8.033   3.668  0.9320  2.1672  0.6728
  564MOL0     H76077   3.928   8.044   3.965 -0.5345  1.2562  0.4477
  564MOL0     H76078   3.952   8.178   3.864 -0.4276 -0.0467  0.0037
  564MOL0     H76079   4.190   8.063   3.799 -0.3379 -2.2723 -1.3017
  564MOL0     H76080   4.148   7.949   3.926 -1.7707  0.0838  0.6641
  564MOL0     H76081   4.190   8.249   3.988  0.1129  0.4797  3.0581
  564MOL0     H76082   4.125   8.133   4.093 -0.4475  2.2929 -0.3926
  564MOL0     H76083   4.335   8.005   4.093 -1.2029  0.8360  1.5641
  564MOL0     H76084   4.388   8.077   3.952  0.5583 -3.7668  0.7810
  564MOL0     H76085   4.415   8.308   4.052 -0.0262 -0.2968 -0.1344
  564MOL0     H76086   4.339   8.264   4.197  0.7466 -0.0830  1.2663
  564MOL0     H76087   4.511   8.113   4.271 -0.1629 -3.1229 -1.7781
  564MOL0     H76088   4.598   8.270   4.227  0.0092 -0.0638 -1.9313
  564MOL0     H76089   4.614   8.021   4.054  3.0368 -0.4041 -2.4293
  564MOL0     H76090   4.649   8.180   4.012 -2.1341 -0.7023 -1.1520
  564MOL0     H76091   4.842   8.251   4.263  0.6128  0.2696 -1.7137
  564MOL0     H76092   5.137   8.219   4.251 -0.5657  0.9663  1.0216
  564MOL0     H76093   5.082   8.190   4.414  1.2065  3.3949 -1.5159
  564MOL0     H76094   5.190   7.958   4.393  2.2604 -1.1334 -0.4664
  564MOL0     H76095   5.242   8.015   4.230 -2.6005 -1.9996  0.3202
  564MOL0     H76096   5.313   8.131   4.505 -0.5646 -1.8413  0.9518
  564MOL0     H76097   5.355   8.211   4.353  2.3346 -1.1529 -0.7035
  564MOL0     H76098   5.490   8.051   4.284 -2.1997 -1.2130 -0.2756
  564MOL0     H76099   5.481   7.952   4.422  0.1341  0.7489  0.3923
  564MOL0     H76100   5.762   8.277   4.549 -0.5656  0.5675 -0.2323
  564MOL0     H76101   6.009   8.238   4.532  1.8570 -0.9416 -0.8177
  564MOL0     H76102   6.359   7.897   4.562  2.1989 -0.8327  1.1467
  564MOL0     H76103   6.579   7.813   4.555 -2.5231  1.1368  0.7092
  564MOL0     H76104   6.810   7.954   4.476  0.3517 -0.2635  0.8370
  564MOL0     H76105   6.806   7.790   4.535 -2.3571  2.4055  1.0058
  564MOL0     H76106   6.997   7.744   4.367  1.3068  1.5127 -2.4084
  564MOL0     H76107   6.989   7.916   4.333  0.2120  1.1357  0.8669
  564MOL0     H76108   7.079   7.959   4.568  1.2903 -1.1010  1.5037
  564MOL0     H76109   7.046   7.794   4.609 -2.2680  0.5168  1.1228
  564MOL0     H76110   7.259   7.916   4.402  3.6133  0.4509  2.9243
  564MOL0     H76111   7.212   7.743   4.410  1.8690  1.0159 -1.4805
  564MOL0     H76112   7.296   7.753   4.647 -2.3242  1.0956  0.6690
  564MOL0     H76113   7.294   7.928   4.646  0.0269  1.2922 -0.6178
  564MOL0     H76114   7.467   7.751   4.479 -3.1427  1.8624 -1.8484
  564MOL0     H76115   7.478   7.933   4.511 -1.6653  0.2848 -1.6935
  564MOL0     H76116   7.658   7.814   4.617 -0.1804  0.4919 -1.1742
  564MOL0     H76117   7.549   7.699   4.699 -3.8808 -0.4282 -0.2507
  564MOL0     H76118   7.528   8.003   4.773 -0.4666  0.3884  2.4668
  564MOL0     H76119   7.425   7.876   4.829 -0.4627  0.9595  1.5685
  564MOL0     H76120   6.591   7.874   4.133  1.0837 -1.5517  1.6320
  564MOL0     H76121   6.348   7.924   4.134  0.9283  2.4129  0.7263
  564MOL0     H76122   5.948   7.878   4.314  0.7745  0.8217 -0.4720
  564MOL0     H76123   5.712   7.905   4.326  2.5100 -2.7847  0.0310
  564MOL0     H76124   3.771   7.831   3.589  1.5749 -1.2499  0.2957
  564MOL0     H76125   3.572   7.660   3.559  0.7086 -0.3049  0.8041
  564MOL0     H76126   3.154   7.685   3.406  0.7598 -0.6029  0.3014
  564MOL0     H76127   2.971   7.567   3.328  0.2437  0.7459  0.3354
  564MOL0     H76128   2.781   7.269   3.253  3.6185 -0.1977 -0.4219
  564MOL0     H76129   2.875   7.406   3.240  1.1090  1.5773  2.3513
  564MOL0     H76130   2.677   7.535   3.259  2.1433  0.5166 -0.6521
  564MOL0     H76131   2.729   7.536   3.425  1.9091  1.5185 -1.1932
  564MOL0     H76132   2.585   7.344   3.486  0.2893  0.9864  1.7324
  564MOL0     H76133   2.548   7.332   3.317  2.5140  1.4152 -1.8981
  564MOL0     H76134   2.371   7.467   3.476  0.8784  2.3698  0.8874
  564MOL0     H76135   2.497   7.577   3.496  3.1160 -0.8453  0.1894
  564MOL0     H76136   2.280   7.661   3.128  0.4068  0.3876 -0.3867
  564MOL0     H76137   3.015   7.270   3.633 -2.4332 -1.3281 -3.0146
  564MOL0     H76138   3.131   7.341   3.840  2.5455  0.2118  1.9647
  564MOL0     H76139   3.298   7.364   3.775 -0.4562 -0.8190  0.5298
  564MOL0     H76140   3.203   7.497   3.856  0.7969  0.4745  1.4847
  565MOL0     O76141   5.805   7.483  10.747 -0.0509 -0.2278  0.4759
  565MOL0     C76142   5.897   7.476  10.663  0.1942  0.0513  0.2139
  565MOL0     O76143   6.035   7.501  10.680  0.2800  0.2293 -0.2469
  565MOL0     C76144   6.088   7.559  10.795  0.3975  0.1033  0.6933
  565MOL0     C76145   6.059   7.693  10.817  0.1106  0.8761  0.4978
  565MOL0     C76146   6.132   7.759  10.923 -0.1135  0.2207 -0.7525
  565MOL0     C76147   6.207   7.673  11.012  0.6050 -0.5171  0.4141
  565MOL0     O76148   6.266   7.722  11.124  0.1508  0.0683 -0.4909
  565MOL0     C76149   6.267   7.856  11.165  0.0028 -0.3112 -0.1983
  565MOL0     C76150   6.335   7.876  11.304  0.3123 -0.3394 -0.3175
  565MOL0     C76151   6.331   8.018  11.366 -0.4382 -0.3716 -0.0566
  565MOL0     C76152   6.453   8.110  11.326  0.0442 -0.8948  0.1480
  565MOL0     C76153   6.471   8.235  11.413 -0.2568 -0.0416  0.7295
  565MOL0     C76154   6.358   8.340  11.370  0.4855 -0.1136 -0.3354
  565MOL0     C76155   6.374   8.483  11.430 -0.3221  0.5748  0.1683
  565MOL0     C76156   6.304   8.577  11.338 -0.3726 -0.3277  0.4175
  565MOL0     N76157   6.308   8.712  11.398  0.2931 -0.0836 -0.6373
  565MOL0     C76158   6.417   8.794  11.406  0.1676 -0.5525 -0.1562
  565MOL0     C76159   6.357   8.902  11.463  0.5651 -0.3691 -0.5141
  565MOL0     C76160   6.431   9.031  11.462  0.6305  1.5553 -0.5748
  565MOL0     C76161   6.461   9.074  11.607 -1.1455  0.3395  0.0345
  565MOL0     C76162   6.585   9.157  11.622 -0.0485 -0.3221 -0.6117
  565MOL0     C76163   6.719   9.077  11.624  0.4141 -0.5132 -0.0068
  565MOL0     O76164   6.818   9.172  11.603 -0.4672 -0.7654 -0.2506
  565MOL0     C76165   6.947   9.124  11.601  0.3679  0.0006  0.6451
  565MOL0     C76166   7.038   9.224  11.604 -0.4211  0.3860 -0.7217
  565MOL0     C76167   7.174   9.190  11.609  0.0159 -0.1176  0.1110
  565MOL0     C76168   7.222   9.062  11.633  0.5168  0.4571  0.3310
  565MOL0     C76169   7.370   9.040  11.656  0.0599  0.2900  0.7131
  565MOL0     O76170   7.446   9.151  11.673  0.4388 -0.2704 -0.0021
  565MOL0     C76171   7.579   9.154  11.709 -0.3983 -0.7111  0.8831
  565MOL0     C76172   7.678   9.095  11.631  0.9249  1.4087  0.2981
  565MOL0     C76173   7.811   9.100  11.662 -0.4368 -0.2672  0.7358
  565MOL0     C76174   7.856   9.187  11.759  0.4572  0.1584  0.4732
  565MOL0     O76175   7.993   9.198  11.789  0.3698  0.2159  0.5368
  565MOL0     C76176   8.084   9.209  11.671  0.1269 -0.2754 -1.0307
  565MOL0     C76177   8.077   9.337  11.594 -0.0145 -0.5340 -0.2567
  565MOL0     C76178   8.107   9.450  11.696  0.8802 -0.5002  0.4501
  565MOL0     C76179   8.114   9.588  11.618  0.0833  0.1537  0.1475
  565MOL0     C76180   7.977   9.630  11.554  0.3036 -0.1386 -0.4847
  565MOL0     C76181   7.859   9.640  11.653 -0.0961 -0.4373 -0.2745
  565MOL0     C76182   7.875   9.752  11.753  0.1165  0.7494  0.1964
  565MOL0     C76183   7.742   9.786  11.826  0.2985  1.3445 -0.7253
  565MOL0    Cl76184   7.689   9.632  11.906 -0.2552 -0.2618  0.0281
  565MOL0     C76185   7.759   9.255  11.837 -0.5887  0.1886 -0.3836
  565MOL0     C76186   7.622   9.231  11.810  0.8709  0.2204 -0.5267
  565MOL0     O76187   7.404   8.927  11.680 -0.3555  0.2028 -0.6887
  565MOL0     C76188   7.124   8.961  11.648 -0.0018  0.1892 -0.1153
  565MOL0     C76189   6.989   8.991  11.639 -0.0623 -0.4237 -0.2979
  565MOL0     N76190   6.230   8.890  11.507  0.1311  0.4714  0.2599
  565MOL0     N76191   6.203   8.767  11.458 -0.1405 -0.3357 -0.4132
  565MOL0     C76192   6.220   7.535  10.996  0.0173 -0.0736 -0.1424
  565MOL0     C76193   6.158   7.478  10.887 -0.2486  0.2067 -0.3742
  565MOL0     C76194   5.849   7.476  10.521  0.0478  0.4740 -0.1897
  565MOL0     C76195   5.916   7.390  10.439  0.1377  0.4383 -0.4881
  565MOL0     C76196   5.871   7.360  10.313  0.4122 -0.1479 -0.7519
  565MOL0     C76197   5.753   7.414  10.265  0.1625  0.3767 -0.6918
  565MOL0     O76198   5.682   7.383  10.149 -0.2680  0.0536  0.3202
  565MOL0     C76199   5.765   7.341  10.035  0.3033 -0.1844 -0.5692
  565MOL0     C76200   5.763   7.190  10.021  0.4327  0.0753  0.1664
  565MOL0     C76201   5.624   7.146   9.972 -0.1903 -0.2888  0.0189
  565MOL0     C76202   5.627   6.993   9.939  0.3955  0.3106 -1.1960
  565MOL0     C76203   5.495   6.924   9.984 -0.4747 -0.0594  0.0771
  565MOL0     C76204   5.386   6.871   9.984 -0.7353  0.4189  0.8915
  565MOL0     C76205   5.683   7.503  10.351  1.0911 -0.0666 -0.8861
  565MOL0     C76206   5.729   7.536  10.479 -0.5752  0.4457  0.2904
  565MOL0     C76207   5.660   7.645  10.570  0.0806  0.2650 -0.3130
  565MOL0     H76208   5.991   7.744  10.750 -1.1979  1.3160  2.1243
  565MOL0     H76209   6.127   7.866  10.939  2.7533  0.6291 -2.0944
  565MOL0     H76210   6.305   7.919  11.084 -2.9194 -1.9903 -3.1531
  565MOL0     H76211   6.160   7.875  11.178 -0.3214 -0.1975 -2.4984
  565MOL0     H76212   6.438   7.841  11.297  0.6854  0.2840  1.5174
  565MOL0     H76213   6.288   7.808  11.376 -0.3168 -1.6015 -1.8660
  565MOL0     H76214   6.325   8.007  11.475 -0.3808 -0.1174 -0.0283
  565MOL0     H76215   6.237   8.060  11.329 -0.3301 -0.1926 -0.1284
  565MOL0     H76216   6.547   8.054  11.332 -1.1349 -2.8463  1.4679
  565MOL0     H76217   6.436   8.140  11.222 -1.1753  1.0108  0.8561
  565MOL0     H76218   6.466   8.217  11.520 -0.7581  0.5105  0.8051
  565MOL0     H76219   6.568   8.272  11.377 -0.4020  0.4769  0.8594
  565MOL0     H76220   6.375   8.355  11.263 -0.8400 -1.5663 -0.7879
  565MOL0     H76221   6.261   8.297  11.397  1.0784 -1.1140  0.2651
  565MOL0     H76222   6.480   8.507  11.442 -1.1671  3.7111  2.8325
  565MOL0     H76223   6.330   8.481  11.530  0.4644 -4.0002  0.6396
  565MOL0     H76224   6.345   8.583  11.237  0.0866  0.1254  0.6294
  565MOL0     H76225   6.198   8.550  11.324 -0.9969  2.3453 -0.6005
  565MOL0     H76226   6.522   8.786  11.377  0.5271  0.5364  0.7394
  565MOL0     H76227   6.525   9.021  11.406  2.3117  0.3313  2.2583
  565MOL0     H76228   6.362   9.101  11.415 -0.0832  0.5566 -1.0541
  565MOL0     H76229   6.371   9.128  11.636 -0.9266 -0.3016  2.0582
  565MOL0     H76230   6.477   8.987  11.671  2.9731 -0.8631 -2.2462
  565MOL0     H76231   6.576   9.204  11.720 -0.1027 -1.6616  0.0423
  565MOL0     H76232   6.578   9.230  11.541 -0.5715  0.8706  0.4665
  565MOL0     H76233   6.725   8.996  11.551 -0.0954 -1.5718  1.0834
  565MOL0     H76234   6.737   9.037  11.725 -0.3725 -2.4934 -0.5950
  565MOL0     H76235   7.014   9.328  11.584  2.5769  1.2178 -0.5938
  565MOL0     H76236   7.233   9.281  11.599 -0.7422  0.1018 -3.4979
  565MOL0     H76237   7.644   9.035  11.548 -0.5679 -0.8087  2.3751
  565MOL0     H76238   7.880   9.045  11.597 -1.7705 -0.3062 -0.7057
  565MOL0     H76239   8.181   9.198  11.720 -0.5985 -2.4989  0.0129
  565MOL0     H76240   8.079   9.135  11.591 -0.3385  0.2276 -1.4790
  565MOL0     H76241   8.165   9.340  11.529  1.6233 -0.2130  1.8425
  565MOL0     H76242   7.987   9.353  11.534 -0.5118  2.7588  1.1293
  565MOL0     H76243   8.032   9.452  11.776 -0.4579 -2.6303 -0.6704
  565MOL0     H76244   8.203   9.428  11.745 -0.5790 -2.3142  2.6823
  565MOL0     H76245   8.198   9.587  11.549  1.3524  0.3586  1.6394
  565MOL0     H76246   8.126   9.665  11.695  1.4967  1.8849 -1.7425
  565MOL0     H76247   7.947   9.562  11.475 -0.9677 -0.3856  0.1766
  565MOL0     H76248   7.989   9.732  11.516  0.4795 -0.3708 -1.0543
  565MOL0     H76249   7.773   9.667  11.591 -0.8359  1.7835  1.5688
  565MOL0     H76250   7.841   9.542  11.697  2.6461  0.1234  2.4510
  565MOL0     H76251   7.923   9.839  11.707 -1.2934  1.8671  0.7612
  565MOL0     H76252   7.927   9.719  11.844 -0.1296  0.7007  0.3209
  565MOL0     H76253   7.758   9.871  11.892  0.8639  2.8721 -2.7245
  565MOL0     H76254   7.662   9.817  11.758 -2.8273  0.5023  2.2969
  565MOL0     H76255   7.801   9.313  11.919 -2.8002  0.4023  0.6785
  565MOL0     H76256   7.549   9.281  11.873  2.0765 -0.7344  1.7436
  565MOL0     H76257   7.169   8.870  11.688  0.7403  0.1783 -0.9319
  565MOL0     H76258   6.915   8.912  11.649 -2.6641  1.9436  0.9395
  565MOL0     H76259   6.266   7.478  11.076  1.7020  0.3617 -0.7497
  565MOL0     H76260   6.150   7.370  10.881 -1.9609 -0.0507  3.6219
  565MOL0     H76261   6.010   7.336  10.446  0.2114  0.2702 -2.2618
  565MOL0     H76262   5.919   7.290  10.246 -0.8753  1.0574 -3.0883
  565MOL0     H76263   5.871   7.367  10.046  0.2119 -0.8759  4.4506
  565MOL0     H76264   5.723   7.386   9.945  0.3095  0.8942 -0.0599
  565MOL0     H76265   5.775   7.140  10.117 -3.1653 -0.1181  0.6331
  565MOL0     H76266   5.844   7.148   9.960  0.4389  0.6098 -0.2019
  565MOL0     H76267   5.594   7.205   9.885 -2.1002 -0.3577  0.5731
  565MOL0     H76268   5.548   7.175  10.045 -0.5594  1.6896 -1.0707
  565MOL0     H76269   5.655   6.975   9.835 -0.3722  1.9937 -1.7248
  565MOL0     H76270   5.712   6.953   9.995 -0.6793 -2.5238 -1.4279
  565MOL0     H76271   5.290   6.824   9.991 -1.2972  1.4234  0.1868
  565MOL0     H76272   5.583   7.532  10.320  1.4280  1.4766 -0.6023
  565MOL0     H76273   5.721   7.728  10.605 -0.5802  1.4140 -1.7694
  565MOL0     H76274   5.581   7.688  10.507 -0.9237 -1.1671 -0.0807
  565MOL0     H76275   5.615   7.593  10.655  4.5872  0.0263  2.2236
  566MOL0     O76276   1.463   9.699   7.030  0.0041 -0.3402 -0.4514
  566MOL0     C76277   1.500   9.672   6.914  0.5271  0.3525  0.3602
  566MOL0     O76278   1.630   9.669   6.866 -0.0197  0.1140 -0.3280
  566MOL0     C76279   1.745   9.673   6.944  0.4254  0.0818 -1.1112
  566MOL0     C76280   1.745   9.615   7.068 -0.4913  0.5395  0.4341
  566MOL0     C76281   1.860   9.626   7.144  0.4389 -0.5895  0.1874
  566MOL0     C76282   1.975   9.696   7.102 -0.3751 -0.0899  0.7995
  566MOL0     O76283   2.080   9.706   7.192  0.4197 -0.4160 -0.1126
  566MOL0     C76284   2.202   9.754   7.131  0.2062  0.3661 -0.3996
  566MOL0     C76285   2.307   9.723   7.233 -0.7550  0.8007 -0.3115
  566MOL0     C76286   2.457   9.744   7.187  0.2046 -0.0151  0.1279
  566MOL0     C76287   2.556   9.728   7.303  0.3393 -0.2829 -0.0230
  566MOL0     C76288   2.699   9.755   7.260  0.1485 -0.3354  0.6002
  566MOL0     C76289   2.773   9.764   7.396  0.2951  0.1258 -0.4928
  566MOL0     C76290   2.916   9.799   7.395  0.0874 -0.1849 -0.7338
  566MOL0     C76291   2.965   9.823   7.539 -0.2636  0.1163  0.8454
  566MOL0     N76292   3.115   9.816   7.559 -0.0926 -1.0498  0.9563
  566MOL0     C76293   3.211   9.913   7.533 -0.7175 -0.0435 -0.1843
  566MOL0     C76294   3.331   9.853   7.550  0.4164  0.3473 -0.9493
  566MOL0     C76295   3.471   9.902   7.514 -0.2662  0.3196 -0.4252
  566MOL0     C76296   3.583   9.817   7.576 -0.0073 -0.1160 -0.1409
  566MOL0     C76297   3.718   9.877   7.561  1.5340  0.4444  0.6089
  566MOL0     C76298   3.812   9.815   7.660 -0.3068 -0.2511  0.4535
  566MOL0     O76299   3.948   9.864   7.660  1.0320  0.0217  0.1946
  566MOL0     C76300   4.045   9.802   7.725 -0.8635  0.0724  0.3128
  566MOL0     C76301   4.028   9.716   7.842 -0.7143 -0.4136 -0.6385
  566MOL0     C76302   4.146   9.683   7.914 -1.0736  0.4711  0.3505
  566MOL0     C76303   4.275   9.723   7.877 -0.1418 -0.6710 -0.9611
  566MOL0     C76304   4.394   9.682   7.952  0.3152  0.2517  0.6299
  566MOL0     O76305   4.512   9.719   7.901 -0.1067 -0.4339  0.0656
  566MOL0     C76306   4.621   9.686   7.977 -1.1539 -0.1514  0.0004
  566MOL0     C76307   4.724   9.615   7.915  0.1492 -0.0122 -0.5242
  566MOL0     C76308   4.842   9.577   7.978 -0.0678 -0.7935 -0.5007
  566MOL0     C76309   4.857   9.613   8.115 -0.8073  0.2210 -0.3116
  566MOL0     O76310   4.965   9.561   8.175  0.1256  0.0378  0.4445
  566MOL0     C76311   5.029   9.650   8.267 -0.4245 -0.7325 -0.4910
  566MOL0     C76312   5.130   9.576   8.346 -0.6447  0.0109  0.7304
  566MOL0     C76313   5.212   9.482   8.263 -0.3994 -0.6669  0.7068
  566MOL0     C76314   5.328   9.431   8.347 -0.6729 -0.0630 -0.0794
  566MOL0     C76315   5.449   9.393   8.264 -0.1703  0.6936  0.3022
  566MOL0     C76316   5.553   9.509   8.255  0.1488  0.5445  0.1233
  566MOL0     C76317   5.636   9.511   8.118 -0.0814 -0.5882  0.0393
  566MOL0     C76318   5.681   9.655   8.092  0.4050 -0.7884  0.5075
  566MOL0    Cl76319   5.765   9.732   8.230  0.1524 -0.2269  0.0339
  566MOL0     C76320   4.756   9.678   8.177 -0.9699 -0.8411 -0.8392
  566MOL0     C76321   4.636   9.717   8.114  0.9124  0.3456 -0.3822
  566MOL0     O76322   4.374   9.626   8.061  0.4089 -0.2538 -0.3919
  566MOL0     C76323   4.282   9.810   7.771  0.3882 -0.3088 -0.4359
  566MOL0     C76324   4.173   9.844   7.694 -0.4164  0.2147 -0.2006
  566MOL0     N76325   3.306   9.728   7.603 -0.4923 -0.4238  0.6699
  566MOL0     N76326   3.177   9.708   7.606 -0.2588  0.3621 -0.7972
  566MOL0     C76327   1.970   9.761   6.974 -0.4000  0.2090 -0.7607
  566MOL0     C76328   1.849   9.752   6.902 -0.5200  0.1394 -0.5255
  566MOL0     C76329   1.394   9.625   6.822  1.2659  0.1928  0.5170
  566MOL0     C76330   1.259   9.656   6.862 -0.3702  0.2041 -0.0652
  566MOL0     C76331   1.152   9.622   6.775  0.1285 -0.5836 -0.2222
  566MOL0     C76332   1.185   9.538   6.653 -0.3022 -0.1448 -0.0131
  566MOL0     O76333   1.113   9.488   6.552  0.7453 -0.7025  0.4225
  566MOL0     C76334   0.971   9.509   6.540 -0.0541  0.1321  0.0139
  566MOL0     C76335   0.893   9.390   6.600 -0.4181  0.1429 -0.4129
  566MOL0     C76336   0.745   9.407   6.573 -0.0602  0.4499 -0.0279
  566MOL0     C76337   0.668   9.279   6.593 -0.3740 -0.2583 -0.0628
  566MOL0     C76338   0.699   9.181   6.493  0.7046  0.6729 -0.3317
  566MOL0     C76339   0.728   9.104   6.404  0.1250  0.3642 -0.4611
  566MOL0     C76340   1.318   9.505   6.630  0.2895 -0.5030  1.4387
  566MOL0     C76341   1.421   9.565   6.703 -0.0830 -0.3643 -0.0581
  566MOL0     C76342   1.563   9.534   6.648  0.2064  0.0255  0.0477
  566MOL0     H76343   1.669   9.542   7.093 -0.6331 -0.1559 -1.8697
  566MOL0     H76344   1.864   9.579   7.242  2.2418  0.1506  0.5015
  566MOL0     H76345   2.222   9.713   7.032 -0.8220 -1.5934  0.1318
  566MOL0     H76346   2.199   9.863   7.126 -4.4194  0.4791 -0.1146
  566MOL0     H76347   2.311   9.622   7.274 -0.5872  0.4834 -1.0999
  566MOL0     H76348   2.275   9.783   7.319  1.2409  1.1604  0.2458
  566MOL0     H76349   2.473   9.845   7.147 -0.1819 -0.2903 -0.7303
  566MOL0     H76350   2.474   9.671   7.108  0.2859  0.9476 -0.7749
  566MOL0     H76351   2.528   9.791   7.388 -0.1753 -0.2163 -0.2353
  566MOL0     H76352   2.549   9.626   7.339 -2.1626  0.1152  0.8075
  566MOL0     H76353   2.735   9.674   7.196  0.9349  0.9729 -0.6792
  566MOL0     H76354   2.696   9.845   7.198 -3.1422 -0.7970 -0.0911
  566MOL0     H76355   2.725   9.833   7.466  2.4588  0.2998  0.9100
  566MOL0     H76356   2.766   9.670   7.452  3.6910  0.4046  0.6507
  566MOL0     H76357   2.932   9.890   7.337  1.6816 -0.0772 -0.1690
  566MOL0     H76358   2.970   9.720   7.344  0.3587  0.1497 -0.9708
  566MOL0     H76359   2.931   9.920   7.578  2.5279  1.7555 -0.4930
  566MOL0     H76360   2.919   9.743   7.597 -0.5275 -0.0458  0.4222
  566MOL0     H76361   3.190  10.016   7.505  1.4117  0.3786 -0.3396
  566MOL0     H76362   3.479   9.894   7.406  1.8920  2.3309 -0.4922
  566MOL0     H76363   3.478  10.009   7.536 -0.7165  0.3128 -0.2345
  566MOL0     H76364   3.569   9.805   7.684  1.1635  0.8787  0.1404
  566MOL0     H76365   3.582   9.716   7.536 -0.0740  0.7182 -2.4083
  566MOL0     H76366   3.715   9.985   7.580  1.5169  0.4259  0.7143
  566MOL0     H76367   3.761   9.867   7.461 -0.8096  0.4418 -0.4688
  566MOL0     H76368   3.823   9.707   7.641  1.2741  0.1489 -1.1499
  566MOL0     H76369   3.772   9.837   7.760 -2.3123  2.5885 -0.8485
  566MOL0     H76370   3.929   9.689   7.878 -1.9685  0.6876 -3.0785
  566MOL0     H76371   4.124   9.619   7.999  1.9397 -1.4645 -0.1611
  566MOL0     H76372   4.707   9.582   7.813 -0.0150 -0.6186 -0.3058
  566MOL0     H76373   4.905   9.500   7.936 -0.0260 -1.5093  0.8148
  566MOL0     H76374   5.089   9.729   8.222  2.5932 -2.3464  0.4062
  566MOL0     H76375   4.954   9.686   8.338 -0.8492 -4.2733  1.0934
  566MOL0     H76376   5.189   9.653   8.397 -0.6977  0.5851 -0.0609
  566MOL0     H76377   5.089   9.517   8.429  0.4837 -1.6889  0.1221
  566MOL0     H76378   5.161   9.394   8.223 -1.6960  1.2973 -2.3216
  566MOL0     H76379   5.253   9.545   8.184  1.1482 -2.5182 -0.0301
  566MOL0     H76380   5.296   9.342   8.401 -1.0620 -0.1194 -0.4022
  566MOL0     H76381   5.351   9.503   8.426  0.2603 -1.8042  1.3214
  566MOL0     H76382   5.409   9.367   8.166  0.1438 -3.7154  1.0994
  566MOL0     H76383   5.502   9.306   8.307 -2.1602 -0.7676 -0.0603
  566MOL0     H76384   5.493   9.600   8.265 -0.2218  0.4368 -1.0229
  566MOL0     H76385   5.611   9.510   8.348  0.7776  1.4932 -0.2621
  566MOL0     H76386   5.577   9.476   8.033  0.4352  0.5133 -0.7952
  566MOL0     H76387   5.718   9.439   8.122 -0.9006 -1.8105 -2.8432
  566MOL0     H76388   5.735   9.657   7.997  0.1592  1.9848  0.3507
  566MOL0     H76389   5.587   9.709   8.080  1.0604  0.4087  0.5672
  566MOL0     H76390   4.760   9.693   8.285 -3.5556  0.9094 -0.8903
  566MOL0     H76391   4.552   9.767   8.162  2.3140  3.1408 -0.6526
  566MOL0     H76392   4.381   9.851   7.752  0.2100  1.1433  1.4902
  566MOL0     H76393   4.192   9.906   7.607 -0.2937 -2.6886 -2.3825
  566MOL0     H76394   2.056   9.816   6.937 -1.2321  2.2485  0.1966
  566MOL0     H76395   1.828   9.807   6.811 -1.1577 -2.7917 -2.2826
  566MOL0     H76396   1.246   9.704   6.959 -1.1696 -1.7466  0.8573
  566MOL0     H76397   1.049   9.651   6.792  0.3643  0.4431 -0.5080
  566MOL0     H76398   0.946   9.512   6.433 -0.1622  0.9850  0.0568
  566MOL0     H76399   0.938   9.603   6.585  1.6510 -0.0405  1.7501
  566MOL0     H76400   0.915   9.369   6.705  0.6564 -0.5261 -0.7527
  566MOL0     H76401   0.932   9.302   6.547 -0.2169  0.4954 -0.8595
  566MOL0     H76402   0.744   9.432   6.466  1.0368 -1.0963 -0.4381
  566MOL0     H76403   0.703   9.483   6.639 -0.1159 -0.4253  0.9601
  566MOL0     H76404   0.697   9.238   6.690 -0.4119 -1.1632 -0.4256
  566MOL0     H76405   0.562   9.307   6.598 -0.3498 -0.1479 -0.1807
  566MOL0     H76406   0.748   9.030   6.330 -1.3483 -0.0321 -0.4899
  566MOL0     H76407   1.343   9.451   6.539  2.3747  2.4462  0.0777
  566MOL0     H76408   1.639   9.612   6.651  0.7367 -0.5113  1.5782
  566MOL0     H76409   1.615   9.459   6.709 -1.6948 -0.9732  0.4943
  566MOL0     H76410   1.564   9.490   6.548  1.5346 -0.1218  0.1049
  567MOL0     O76411   8.615   1.586   5.012 -0.2761 -0.6922 -0.8879
  567MOL0     C76412   8.564   1.695   4.991  0.4085 -0.2890 -0.5456
  567MOL0     O76413   8.606   1.776   4.893  0.3353  0.0058 -0.6870
  567MOL0     C76414   8.707   1.751   4.807  0.3744 -0.9677  0.0893
  567MOL0     C76415   8.732   1.861   4.725  0.8406  0.5894 -1.0305
  567MOL0     C76416   8.828   1.858   4.633  0.0090 -0.2900  0.3970
  567MOL0     C76417   8.918   1.750   4.628  0.2570  0.4268  0.0343
  567MOL0     O76418   9.016   1.759   4.533 -0.0383  0.0550 -0.0642
  567MOL0     C76419   9.138   1.697   4.565  0.5914 -0.8788 -0.9722
  567MOL0     C76420   9.216   1.699   4.440  0.3647  0.2217  1.2876
  567MOL0     C76421   9.357   1.634   4.448  0.3923  0.0969 -0.3654
  567MOL0     C76422   9.452   1.686   4.336  0.6151 -0.5213 -0.6992
  567MOL0     C76423   9.584   1.608   4.328 -0.3015 -0.1153 -0.3786
  567MOL0     C76424   9.666   1.625   4.457  1.1616  0.0356  0.5206
  567MOL0     C76425   9.810   1.569   4.457  0.3646  0.3779  0.2420
  567MOL0     C76426   9.898   1.660   4.368 -0.0667 -0.5114  1.0469
  567MOL0     N76427  10.041   1.621   4.334  0.2379  0.2289  0.1163
  567MOL0     C76428  10.113   1.516   4.379 -0.6285  0.9058  0.2144
  567MOL0     C76429  10.240   1.533   4.323  0.2678  0.0703 -0.5743
  567MOL0     C76430  10.365   1.461   4.361 -0.1818  0.5547 -1.0402
  567MOL0     C76431  10.450   1.539   4.459  0.5392 -0.7576 -1.0072
  567MOL0     C76432  10.536   1.456   4.556 -0.1039  0.0251  0.1256
  567MOL0     C76433  10.629   1.522   4.650  0.6574 -0.3229 -0.1656
  567MOL0     O76434  10.735   1.578   4.572  0.5595 -0.4746 -0.2456
  567MOL0     C76435  10.859   1.515   4.575 -0.4272  0.6761 -0.1246
  567MOL0     C76436  10.968   1.599   4.573  0.4018  0.0550 -0.2800
  567MOL0     C76437  11.097   1.559   4.576 -0.4657  0.3807  0.1371
  567MOL0     C76438  11.133   1.421   4.580 -0.3013  0.6482 -0.1145
  567MOL0     C76439  11.275   1.366   4.577  0.6217  0.1527  0.3997
  567MOL0     O76440  11.297   1.229   4.561 -0.6355 -0.2681  0.4441
  567MOL0     C76441  11.434   1.195   4.580  0.3205  0.5254 -0.5560
  567MOL0     C76442  11.516   1.146   4.476  0.0095 -0.0274  0.0801
  567MOL0     C76443  11.656   1.113   4.504 -0.8627  0.0698 -0.3160
  567MOL0     C76444  11.717   1.134   4.632  1.2458  0.3165 -1.0082
  567MOL0     O76445  11.842   1.105   4.677  0.3365 -0.1243 -0.4122
  567MOL0     C76446  11.949   1.092   4.587  0.0861 -0.4881  1.0079
  567MOL0     C76447  12.012   1.222   4.581 -0.3045 -0.1828 -0.3542
  567MOL0     C76448  12.069   1.241   4.729  0.2068 -0.7088  0.5313
  567MOL0     C76449  12.210   1.308   4.730  1.3139 -0.3984 -0.1075
  567MOL0     C76450  12.314   1.212   4.686 -0.3700 -0.8864  0.1253
  567MOL0     C76451  12.448   1.272   4.722  0.0605 -0.5119 -0.3536
  567MOL0     C76452  12.570   1.189   4.681  0.1453 -0.0761  0.4179
  567MOL0     C76453  12.684   1.227   4.767 -0.5178  0.2557 -1.0254
  567MOL0    Cl76454  12.827   1.134   4.720 -0.0736 -0.1436 -0.3583
  567MOL0     C76455  11.630   1.185   4.725 -0.6700  0.7064 -0.4483
  567MOL0     C76456  11.493   1.210   4.708  0.2698  0.1543  0.5713
  567MOL0     O76457  11.362   1.449   4.605 -0.2046 -0.3668  0.7144
  567MOL0     C76458  11.017   1.333   4.572  0.2833  0.3953 -0.5376
  567MOL0     C76459  10.876   1.374   4.573 -0.4997 -0.6092  1.1692
  567MOL0     N76460  10.236   1.639   4.240  0.1260 -0.0541 -0.4141
  567MOL0     N76461  10.117   1.679   4.237 -0.8144  0.0437  0.8308
  567MOL0     C76462   8.885   1.635   4.704 -0.0804  0.1727  1.5333
  567MOL0     C76463   8.784   1.636   4.792  0.7181  0.4574  0.7437
  567MOL0     C76464   8.453   1.743   5.075 -0.2970 -0.0139 -0.0804
  567MOL0     C76465   8.428   1.667   5.192 -0.3398 -0.8128 -0.0927
  567MOL0     C76466   8.319   1.700   5.271  0.3387  0.5212  0.1144
  567MOL0     C76467   8.243   1.823   5.253 -0.7460 -0.4978 -0.3834
  567MOL0     O76468   8.143   1.873   5.332 -1.0360  0.0633  0.2337
  567MOL0     C76469   8.061   1.779   5.400 -0.4415  1.1158  0.2043
  567MOL0     C76470   7.936   1.844   5.432 -0.7272  0.1671 -0.0399
  567MOL0     C76471   7.866   1.763   5.543  0.3505 -0.1484 -0.5455
  567MOL0     C76472   7.734   1.843   5.578  0.2022  0.6711 -0.5213
  567MOL0     C76473   7.681   1.822   5.717  0.8919  0.5985 -0.4682
  567MOL0     C76474   7.637   1.815   5.832 -0.2564  0.2011  0.6061
  567MOL0     C76475   8.275   1.901   5.145 -0.5448  0.7739  0.5876
  567MOL0     C76476   8.374   1.867   5.050  0.1818  0.0395 -0.1138
  567MOL0     C76477   8.389   1.956   4.926 -0.0255 -0.3124  0.1182
  567MOL0     H76478   8.665   1.946   4.735  0.6190  0.3276 -0.1325
  567MOL0     H76479   8.831   1.939   4.560  0.4314 -3.6091 -3.6347
  567MOL0     H76480   9.187   1.762   4.638 -0.0648 -2.4107  0.9329
  567MOL0     H76481   9.117   1.595   4.600 -0.8657 -0.0250  0.8095
  567MOL0     H76482   9.229   1.801   4.403 -2.4993  0.9114  1.9919
  567MOL0     H76483   9.157   1.640   4.369  3.2786 -1.3037 -0.0804
  567MOL0     H76484   9.362   1.525   4.437  0.2902 -0.2416  2.3193
  567MOL0     H76485   9.395   1.668   4.545 -1.3322  1.2135 -0.0510
  567MOL0     H76486   9.394   1.686   4.244 -1.4549  0.4221  0.5310
  567MOL0     H76487   9.476   1.790   4.360 -0.6910 -0.2934 -0.3170
  567MOL0     H76488   9.564   1.501   4.324 -1.0939 -0.1031  2.1054
  567MOL0     H76489   9.631   1.647   4.236  2.9206 -3.3088 -0.3286
  567MOL0     H76490   9.676   1.729   4.486  2.9212 -0.3017  1.2434
  567MOL0     H76491   9.610   1.575   4.536  0.6112 -0.3413 -0.0938
  567MOL0     H76492   9.810   1.469   4.413 -0.3701 -0.0456  1.1565
  567MOL0     H76493   9.850   1.574   4.559 -0.0377 -0.4743  0.4499
  567MOL0     H76494   9.847   1.660   4.272 -0.7272 -3.2898  1.3093
  567MOL0     H76495   9.891   1.766   4.396  1.6609 -0.3244  0.8794
  567MOL0     H76496  10.093   1.452   4.464  1.2791  0.4490  0.3736
  567MOL0     H76497  10.335   1.379   4.427 -0.2444 -0.5081 -2.3519
  567MOL0     H76498  10.416   1.414   4.276 -2.9103 -0.5530 -2.1615
  567MOL0     H76499  10.509   1.611   4.402  2.4014  0.3095  1.9746
  567MOL0     H76500  10.388   1.606   4.520 -0.7103 -0.0122 -2.9934
  567MOL0     H76501  10.595   1.385   4.498 -2.0696  0.1406 -2.1728
  567MOL0     H76502  10.468   1.398   4.620 -2.2509  2.5219  0.2778
  567MOL0     H76503  10.668   1.450   4.722  1.4441 -1.4429 -1.6628
  567MOL0     H76504  10.580   1.606   4.701 -0.2469 -1.4494  0.8727
  567MOL0     H76505  10.956   1.707   4.580 -2.3221 -0.1137 -1.2278
  567MOL0     H76506  11.174   1.634   4.585 -0.3322  0.6474 -2.3469
  567MOL0     H76507  11.481   1.122   4.376 -0.6629 -3.1545  0.9517
  567MOL0     H76508  11.717   1.083   4.419 -3.6019  3.1454 -3.7616
  567MOL0     H76509  12.020   1.020   4.628 -0.1555 -1.2874  0.0820
  567MOL0     H76510  11.924   1.063   4.484  0.1017 -1.4847  1.2752
  567MOL0     H76511  12.088   1.214   4.502  0.2144 -1.1283  0.2241
  567MOL0     H76512  11.945   1.297   4.537 -0.2583  0.0205 -0.0792
  567MOL0     H76513  12.001   1.307   4.785  1.5728  1.0529  0.2173
  567MOL0     H76514  12.079   1.150   4.789  0.5075 -0.0328  1.5310
  567MOL0     H76515  12.226   1.349   4.830  0.7742  0.2453 -0.2855
  567MOL0     H76516  12.214   1.392   4.661 -0.5409 -0.5499 -0.4601
  567MOL0     H76517  12.313   1.192   4.579 -0.8049  1.5420 -0.3897
  567MOL0     H76518  12.297   1.118   4.739 -0.1935 -1.6749 -1.1728
  567MOL0     H76519  12.463   1.366   4.669  0.8758 -1.2000 -1.3894
  567MOL0     H76520  12.453   1.289   4.830 -0.3121  0.1951 -0.4467
  567MOL0     H76521  12.586   1.214   4.576 -0.5003  0.3885  0.4189
  567MOL0     H76522  12.539   1.084   4.686  0.7660 -0.3404 -0.8883
  567MOL0     H76523  12.706   1.334   4.771  1.3513 -0.0959 -0.5726
  567MOL0     H76524  12.659   1.198   4.869  1.3435 -0.7550 -0.8115
  567MOL0     H76525  11.673   1.206   4.822 -1.7015  0.4758  0.0756
  567MOL0     H76526  11.443   1.248   4.796  0.0717 -1.2889  1.1081
  567MOL0     H76527  11.033   1.226   4.578 -2.0479  0.0678  0.6239
  567MOL0     H76528  10.790   1.307   4.568 -1.2385  0.4134 -0.9363
  567MOL0     H76529   8.936   1.539   4.712 -1.0136 -0.3085  1.8816
  567MOL0     H76530   8.789   1.543   4.848  0.1733 -0.8939 -1.3089
  567MOL0     H76531   8.489   1.583   5.224  1.4168  0.3671 -0.1878
  567MOL0     H76532   8.285   1.642   5.355 -0.6431 -1.1802 -1.3788
  567MOL0     H76533   8.117   1.750   5.490  2.7017  0.0694 -1.9399
  567MOL0     H76534   8.045   1.685   5.347  0.0963 -1.6044  4.3760
  567MOL0     H76535   7.891   1.846   5.332 -0.0400  2.0093 -0.3491
  567MOL0     H76536   7.957   1.949   5.456 -1.0878  0.0673  0.7562
  567MOL0     H76537   7.931   1.767   5.631  1.7629  1.0416 -1.5985
  567MOL0     H76538   7.849   1.659   5.513  0.8008 -0.1215 -0.9071
  567MOL0     H76539   7.742   1.951   5.558 -1.0148  0.3659 -3.0476
  567MOL0     H76540   7.653   1.815   5.510  0.1062 -0.2861 -0.0245
  567MOL0     H76541   7.588   1.821   5.927 -0.4101 -0.8598  0.6077
  567MOL0     H76542   8.211   1.980   5.106  1.5511  1.3530 -1.9894
  567MOL0     H76543   8.357   1.917   4.829  0.9791  0.1569 -0.4192
  567MOL0     H76544   8.340   2.054   4.935  0.0850 -0.3208  0.9198
  567MOL0     H76545   8.492   1.984   4.905 -1.0951  1.5821 -3.3440
  568MOL0     O76546   8.284  10.896   2.123 -0.0840 -0.6904 -0.2027
  568MOL0     C76547   8.337  10.935   2.021  0.4531 -0.3223 -0.2786
  568MOL0     O76548   8.278  11.008   1.920  0.3574  0.0533  0.2866
  568MOL0     C76549   8.142  11.041   1.928 -0.0942 -0.0038 -0.4753
  568MOL0     C76550   8.107  11.177   1.924 -0.1035  0.3544  0.7807
  568MOL0     C76551   7.976  11.208   1.918  0.6787  0.0108 -1.3789
  568MOL0     C76552   7.881  11.111   1.924 -0.6229 -0.0285 -0.3009
  568MOL0     O76553   7.748  11.157   1.920  0.4021 -0.3185 -0.5131
  568MOL0     C76554   7.650  11.056   1.911  1.0457  0.1326  0.2788
  568MOL0     C76555   7.511  11.108   1.932  0.2132  0.2674 -0.1503
  568MOL0     C76556   7.402  11.007   1.925  0.1984  0.2358  0.8760
  568MOL0     C76557   7.428  10.889   1.820  0.4507 -0.1707 -0.0164
  568MOL0     C76558   7.296  10.826   1.776  1.0692  0.9151  0.1590
  568MOL0     C76559   7.322  10.701   1.697 -0.4105  0.1366  0.1319
  568MOL0     C76560   7.207  10.623   1.655 -0.8618  0.6156 -0.5738
  568MOL0     C76561   7.239  10.502   1.568 -0.2160 -0.2433 -0.0866
  568MOL0     N76562   7.129  10.405   1.549 -0.2819  0.2431 -0.3028
  568MOL0     C76563   7.017  10.434   1.490  0.1137 -0.0897 -0.1883
  568MOL0     C76564   6.941  10.333   1.519  0.8540 -0.1387  0.8428
  568MOL0     C76565   6.803  10.301   1.459 -0.5537 -0.7544  0.2794
  568MOL0     C76566   6.814  10.248   1.315  0.4931 -0.2882  0.0587
  568MOL0     C76567   6.685  10.170   1.262 -0.8653  0.0917 -0.4848
  568MOL0     C76568   6.735  10.076   1.157 -0.4464  0.4644 -0.6598
  568MOL0     O76569   6.799  10.143   1.057 -0.4533 -0.0211 -0.0686
  568MOL0     C76570   6.868  10.070   0.960  0.4730 -0.4899  0.1226
  568MOL0     C76571   6.826   9.945   0.909 -0.8806 -0.4472 -0.4715
  568MOL0     C76572   6.894   9.884   0.806  0.1035  0.2670 -0.4634
  568MOL0     C76573   7.015   9.941   0.759  0.2369  0.1206 -0.0195
  568MOL0     C76574   7.095   9.876   0.651  0.6473 -0.3376  0.8228
  568MOL0     O76575   7.076   9.740   0.621  0.4115  0.0945  0.7579
  568MOL0     C76576   7.155   9.681   0.523  0.7749 -0.2810 -0.3903
  568MOL0     C76577   7.090   9.619   0.414 -0.9188  0.4843 -0.5088
  568MOL0     C76578   7.176   9.551   0.317 -0.0668 -0.3806  0.3637
  568MOL0     C76579   7.315   9.552   0.320  0.4658  0.1939  0.0023
  568MOL0     O76580   7.376   9.492   0.212  0.0678 -0.8222 -0.2558
  568MOL0     C76581   7.507   9.530   0.180 -0.0954 -0.2228 -0.0922
  568MOL0     C76582   7.547   9.470   0.039 -0.1170 -0.2203  0.4930
  568MOL0     C76583   7.697   9.473   0.005 -0.0249 -0.0848  0.2628
  568MOL0     C76584   7.741   9.425  -0.141  0.3127  0.4001 -0.5632
  568MOL0     C76585   7.892   9.454  -0.173  0.0042  0.1965 -0.4070
  568MOL0     C76586   7.948   9.600  -0.190  0.0287 -0.8890 -0.1308
  568MOL0     C76587   8.072   9.599  -0.263  0.1105 -0.9719  0.5292
  568MOL0     C76588   8.111   9.740  -0.305  0.1110 -0.7857  0.4991
  568MOL0    Cl76589   8.280   9.737  -0.345  0.1029 -0.1427  0.0629
  568MOL0     C76590   7.370   9.610   0.435 -0.3720  0.3187  0.0382
  568MOL0     C76591   7.292   9.669   0.538  0.3506  0.5159 -0.4089
  568MOL0     O76592   7.176   9.948   0.594 -0.6390  0.6995  0.0120
  568MOL0     C76593   7.051  10.070   0.812 -0.2553 -0.3038 -0.3017
  568MOL0     C76594   6.974  10.130   0.917 -0.4168  0.4594  0.6684
  568MOL0     N76595   7.011  10.234   1.580  0.1116  0.3681  0.5958
  568MOL0     N76596   7.132  10.283   1.606  0.1356 -0.0841  0.3453
  568MOL0     C76597   7.916  10.975   1.926 -0.2271 -0.2519  0.0272
  568MOL0     C76598   8.047  10.941   1.941 -0.6718  0.9794  0.0734
  568MOL0     C76599   8.484  10.893   2.008  0.1029  0.1786  0.3872
  568MOL0     C76600   8.531  10.820   2.116  0.1328 -1.1894 -0.0253
  568MOL0     C76601   8.665  10.808   2.141 -1.0269 -0.8197  0.1078
  568MOL0     C76602   8.760  10.844   2.044  0.5637  1.0262  0.7732
  568MOL0     O76603   8.886  10.823   2.070 -0.4689 -0.5403 -0.5187
  568MOL0     C76604   8.963  10.945   2.042  0.1942 -0.1413  0.2083
  568MOL0     C76605   9.106  10.942   2.106 -0.1722 -0.2591  0.0759
  568MOL0     C76606   9.178  10.815   2.092 -0.9711  0.1038  0.3200
  568MOL0     C76607   9.214  10.772   1.949 -1.2023  0.0637 -0.1243
  568MOL0     C76608   9.354  10.822   1.912 -0.3730 -0.6143 -0.6546
  568MOL0     C76609   9.461  10.868   1.873 -0.0749  0.1896 -0.5663
  568MOL0     C76610   8.710  10.897   1.922 -1.0090  0.5570 -1.9372
  568MOL0     C76611   8.574  10.932   1.908 -0.6339  0.5074 -0.1824
  568MOL0     C76612   8.540  11.010   1.784  0.5004 -0.6528  0.1329
  568MOL0     H76613   8.187  11.249   1.913 -0.0031 -0.0362 -1.4966
  568MOL0     H76614   7.942  11.311   1.918  0.5876  0.0711  1.4892
  568MOL0     H76615   7.660  11.035   1.804 -0.9381  0.3820  0.0109
  568MOL0     H76616   7.658  10.975   1.984 -1.0400  0.9505  1.5312
  568MOL0     H76617   7.495  11.178   1.849 -0.0207 -0.2043 -0.5108
  568MOL0     H76618   7.506  11.173   2.020  1.0268 -0.3665  0.3752
  568MOL0     H76619   7.309  11.057   1.897  0.1282 -0.5287 -0.2942
  568MOL0     H76620   7.395  10.956   2.021  0.4256  1.1628  1.4035
  568MOL0     H76621   7.476  10.923   1.727  2.4649 -0.2847  0.9203
  568MOL0     H76622   7.495  10.813   1.862 -0.8381 -0.3803  1.8056
  568MOL0     H76623   7.220  10.815   1.853 -2.5680 -3.3475 -3.5060
  568MOL0     H76624   7.243  10.892   1.706  1.2293 -0.1465 -1.0123
  568MOL0     H76625   7.380  10.721   1.607  1.0667 -0.6834  0.8492
  568MOL0     H76626   7.378  10.629   1.758  0.6935  0.0993 -0.9027
  568MOL0     H76627   7.139  10.690   1.603 -1.2280  1.8783  1.4227
  568MOL0     H76628   7.150  10.600   1.746 -1.9501  0.8543 -1.1783
  568MOL0     H76629   7.272  10.526   1.467  0.1088 -2.6804 -0.6196
  568MOL0     H76630   7.327  10.446   1.601 -1.5563 -2.4830 -0.1574
  568MOL0     H76631   6.995  10.520   1.427 -0.5652  0.4925  0.8195
  568MOL0     H76632   6.749  10.220   1.509 -2.4255 -1.0130 -2.0111
  568MOL0     H76633   6.738  10.386   1.478 -1.8258 -1.6104 -0.1387
  568MOL0     H76634   6.833  10.326   1.241  1.9597 -0.2730  0.4252
  568MOL0     H76635   6.890  10.170   1.310  0.2155 -0.4798 -1.9411
  568MOL0     H76636   6.618  10.248   1.224  0.2965  2.3049  1.6888
  568MOL0     H76637   6.631  10.119   1.343 -1.8976  1.7540 -0.0831
  568MOL0     H76638   6.644  10.025   1.124 -2.1124  1.3576  2.2351
  568MOL0     H76639   6.797   9.992   1.191 -2.2398 -0.8533 -0.4605
  568MOL0     H76640   6.728   9.905   0.931 -2.2910  1.7993 -2.2552
  568MOL0     H76641   6.860   9.806   0.738 -4.4717  1.9322 -0.3883
  568MOL0     H76642   6.983   9.612   0.400 -0.9834 -2.3089  0.6891
  568MOL0     H76643   7.124   9.517   0.228  0.6602  1.2362 -0.7275
  568MOL0     H76644   7.521   9.638   0.184 -2.2590  0.1023 -0.4170
  568MOL0     H76645   7.581   9.485   0.247 -0.7355 -0.1743  0.6618
  568MOL0     H76646   7.517   9.365   0.036  3.8067 -1.5672  1.9850
  568MOL0     H76647   7.487   9.527  -0.033  1.4431  1.3219  0.3631
  568MOL0     H76648   7.733   9.570   0.038  0.5761 -0.3926  0.5335
  568MOL0     H76649   7.740   9.400   0.075 -1.2603 -1.0881  0.0238
  568MOL0     H76650   7.686   9.487  -0.212  0.2441  0.3575 -0.5461
  568MOL0     H76651   7.707   9.322  -0.152 -3.0051  1.2514  0.5792
  568MOL0     H76652   7.914   9.408  -0.269 -0.2986 -1.0110  0.0819
  568MOL0     H76653   7.950   9.404  -0.095 -1.7372 -2.1213 -0.4832
  568MOL0     H76654   7.866   9.649  -0.244 -0.2910  0.1122  1.2172
  568MOL0     H76655   7.966   9.647  -0.093 -1.0804 -1.5109  0.3929
  568MOL0     H76656   8.065   9.543  -0.357 -3.0766  1.3106 -0.7373
  568MOL0     H76657   8.145   9.568  -0.187  0.2449 -0.6149  0.5463
  568MOL0     H76658   8.049   9.774  -0.389  2.2351 -2.2976 -1.8290
  568MOL0     H76659   8.100   9.807  -0.219 -2.1629 -1.2447  0.6149
  568MOL0     H76660   7.477   9.602   0.454 -0.5148 -0.8414  0.3943
  568MOL0     H76661   7.340   9.711   0.626  0.5266 -0.0190 -0.2426
  568MOL0     H76662   7.133  10.122   0.763 -2.1632  1.6161 -1.6550
  568MOL0     H76663   7.003  10.226   0.959  1.0699 -0.2046  1.2503
  568MOL0     H76664   7.839  10.899   1.926 -0.8448  0.3558 -0.5378
  568MOL0     H76665   8.074  10.836   1.947  0.6590  1.0740 -2.4995
  568MOL0     H76666   8.460  10.790   2.192 -0.0358 -1.7686 -0.4090
  568MOL0     H76667   8.694  10.772   2.239  1.3193 -0.3646 -0.3434
  568MOL0     H76668   8.914  11.036   2.079  2.5186  1.7215 -1.0060
  568MOL0     H76669   8.979  10.952   1.934 -0.3054 -2.0066 -0.0266
  568MOL0     H76670   9.087  10.965   2.211 -3.0105 -0.2506 -0.3790
  568MOL0     H76671   9.161  11.027   2.064  0.2679  0.5225  2.0913
  568MOL0     H76672   9.120  10.727   2.121  1.3503 -1.8500 -0.5491
  568MOL0     H76673   9.264  10.819   2.160  0.7238  1.6315 -1.7712
  568MOL0     H76674   9.202  10.663   1.947 -1.5553  0.1111 -1.6039
  568MOL0     H76675   9.143  10.808   1.875 -0.6127  0.7270 -0.3698
  568MOL0     H76676   9.564  10.888   1.854  0.8689 -1.5540  2.0676
  568MOL0     H76677   8.784  10.914   1.845  1.7422 -2.4643 -0.1985
  568MOL0     H76678   8.624  11.004   1.714  0.8922 -1.1459  0.6377
  568MOL0     H76679   8.454  10.959   1.739  0.4908 -0.2912 -0.2623
  568MOL0     H76680   8.525  11.115   1.810  2.7359  0.0882 -1.3083
  569MOL0     O76681   4.496   7.042   1.610  0.3810  0.2743  0.0332
  569MOL0     C76682   4.435   7.099   1.697  0.6049 -0.4022 -0.2429
  569MOL0     O76683   4.481   7.207   1.773  0.7059 -0.1300 -0.0606
  569MOL0     C76684   4.608   7.236   1.762 -0.3833 -0.4045 -0.0139
  569MOL0     C76685   4.702   7.178   1.854  0.4077  0.1539  0.1691
  569MOL0     C76686   4.837   7.213   1.849 -0.3438  0.7205 -1.4537
  569MOL0     C76687   4.877   7.319   1.769 -0.5582 -0.8279 -0.8079
  569MOL0     O76688   5.005   7.365   1.780 -0.6544 -0.5095 -0.0156
  569MOL0     C76689   5.055   7.466   1.684 -0.8879  0.9178 -0.0589
  569MOL0     C76690   5.196   7.520   1.726  0.6012  0.7126  0.0683
  569MOL0     C76691   5.306   7.428   1.671 -1.2090 -0.4116  0.3597
  569MOL0     C76692   5.439   7.466   1.707 -0.7796 -0.2561 -0.1167
  569MOL0     C76693   5.544   7.370   1.634 -0.4023 -0.1420 -0.1456
  569MOL0     C76694   5.688   7.386   1.696 -1.0908 -0.3565 -0.7400
  569MOL0     C76695   5.785   7.278   1.661 -0.8846  0.0577  0.5646
  569MOL0     C76696   5.784   7.257   1.510  0.5569 -0.2356  0.2277
  569MOL0     N76697   5.842   7.125   1.477 -0.4573 -1.2264 -0.0855
  569MOL0     C76698   5.900   7.038   1.573  0.5008 -0.1922 -0.0992
  569MOL0     C76699   5.914   6.920   1.504  0.3883  0.9336  0.1335
  569MOL0     C76700   5.963   6.794   1.563  0.4776  0.8142  0.7238
  569MOL0     C76701   6.095   6.749   1.498  0.3451 -0.1880  1.4172
  569MOL0     C76702   6.133   6.601   1.505 -0.5008 -0.1522 -0.0440
  569MOL0     C76703   6.223   6.553   1.397 -0.1292  0.1551 -0.5305
  569MOL0     O76704   6.354   6.595   1.436  0.2341 -0.1284 -0.1255
  569MOL0     C76705   6.457   6.541   1.369 -0.7417 -0.1952  0.2278
  569MOL0     C76706   6.585   6.601   1.396 -0.1744 -0.5098  0.1786
  569MOL0     C76707   6.703   6.553   1.333 -0.5699 -0.1987 -0.6171
  569MOL0     C76708   6.692   6.450   1.240  0.0839  0.1094 -0.7109
  569MOL0     C76709   6.816   6.404   1.176  0.1307 -0.7040  0.1423
  569MOL0     O76710   6.800   6.306   1.080 -0.4941 -0.4242  0.4417
  569MOL0     C76711   6.901   6.231   1.038 -0.1321 -0.0734 -0.3037
  569MOL0     C76712   6.947   6.256   0.907  0.1546  0.4864 -0.1343
  569MOL0     C76713   7.052   6.185   0.846 -0.0661  0.2652  0.0357
  569MOL0     C76714   7.118   6.081   0.919 -0.6449  0.7233 -0.6394
  569MOL0     O76715   7.224   6.010   0.870 -0.5288  0.2691 -0.3875
  569MOL0     C76716   7.271   6.047   0.741  0.5311 -0.0136  0.0564
  569MOL0     C76717   7.380   5.952   0.701  0.8717  1.0019 -0.8522
  569MOL0     C76718   7.435   5.982   0.566 -0.1478  0.1855 -0.4439
  569MOL0     C76719   7.559   5.899   0.536  0.6866 -0.4645  0.0941
  569MOL0     C76720   7.687   5.939   0.614 -0.3205  0.1203  0.8950
  569MOL0     C76721   7.786   6.028   0.535 -0.6122  0.3509  0.2235
  569MOL0     C76722   7.861   5.946   0.419  0.0045  0.3452 -0.4739
  569MOL0     C76723   7.974   6.039   0.360 -0.9884 -0.3514 -0.5968
  569MOL0    Cl76724   8.113   6.033   0.463  0.0792 -0.1648  0.0671
  569MOL0     C76725   7.076   6.057   1.053 -0.2015 -0.5108 -0.3928
  569MOL0     C76726   6.964   6.131   1.113 -0.6734  0.2057  0.2957
  569MOL0     O76727   6.921   6.433   1.225 -0.5348  0.4746  0.0609
  569MOL0     C76728   6.567   6.389   1.221  0.0106 -0.2923 -0.7164
  569MOL0     C76729   6.457   6.431   1.282  0.3533  0.0133  0.3184
  569MOL0     N76730   5.874   6.940   1.375  0.1417 -0.2938 -0.1859
  569MOL0     N76731   5.829   7.060   1.358 -0.0501  0.2177 -0.3822
  569MOL0     C76732   4.791   7.363   1.672 -0.1454  0.8086 -0.4425
  569MOL0     C76733   4.656   7.326   1.669  0.3089  0.3056 -0.2819
  569MOL0     C76734   4.298   7.050   1.725 -0.9307  0.2401  0.6579
  569MOL0     C76735   4.241   6.966   1.616 -0.3726 -0.4924 -0.5170
  569MOL0     C76736   4.108   6.921   1.619 -0.1479  0.0716 -0.5510
  569MOL0     C76737   4.027   6.959   1.732 -0.5823 -0.7030 -0.9976
  569MOL0     O76738   3.889   6.944   1.742 -0.2570  0.6770 -0.6188
  569MOL0     C76739   3.821   6.897   1.631 -0.4828 -0.5886  0.2394
  569MOL0     C76740   3.670   6.884   1.662 -0.4796  0.5198 -0.3523
  569MOL0     C76741   3.660   6.780   1.769 -0.7174 -0.2808  0.4118
  569MOL0     C76742   3.519   6.750   1.790  0.2439  0.7005 -0.4126
  569MOL0     C76743   3.478   6.626   1.726 -0.3613 -0.1266  0.3210
  569MOL0     C76744   3.416   6.528   1.688 -0.2476 -0.8124  0.0572
  569MOL0     C76745   4.085   7.030   1.838  0.2544 -0.1866  0.6388
  569MOL0     C76746   4.216   7.067   1.836  0.8647  0.1293  0.5317
  569MOL0     C76747   4.270   7.128   1.956  0.0580 -0.1560  0.1316
  569MOL0     H76748   4.666   7.108   1.929  0.8618 -0.1868  0.0753
  569MOL0     H76749   4.897   7.185   1.935 -3.0116 -0.9909 -0.0037
  569MOL0     H76750   5.060   7.412   1.589 -1.0264 -3.9391  2.3801
  569MOL0     H76751   4.993   7.555   1.677 -0.3474  1.5757  2.4365
  569MOL0     H76752   5.202   7.512   1.835  0.2804 -2.6380 -0.0699
  569MOL0     H76753   5.210   7.620   1.683 -1.3043  0.6922 -0.6777
  569MOL0     H76754   5.292   7.418   1.563  1.0059 -0.9625  0.0842
  569MOL0     H76755   5.280   7.326   1.702 -0.0421 -1.5298 -2.0770
  569MOL0     H76756   5.456   7.572   1.685  0.0595  0.5741  3.7779
  569MOL0     H76757   5.447   7.477   1.815 -1.4543  1.4018 -0.2137
  569MOL0     H76758   5.509   7.267   1.641 -2.1999  0.2607 -2.1776
  569MOL0     H76759   5.548   7.393   1.528  0.5351 -1.1187 -0.3325
  569MOL0     H76760   5.735   7.483   1.679 -0.9229 -0.0100  1.4620
  569MOL0     H76761   5.685   7.379   1.805 -0.3252  0.8218 -0.6301
  569MOL0     H76762   5.764   7.183   1.710 -0.0494 -0.6960 -0.4704
  569MOL0     H76763   5.881   7.314   1.699 -1.3064  1.5054  0.3303
  569MOL0     H76764   5.684   7.261   1.467  1.5324  0.0240 -2.1559
  569MOL0     H76765   5.841   7.337   1.462  0.4715  0.2363  0.8921
  569MOL0     H76766   5.910   7.057   1.680  2.0140 -5.2679  0.9738
  569MOL0     H76767   5.963   6.807   1.671 -2.1243  1.7461  0.6772
  569MOL0     H76768   5.887   6.718   1.545 -0.5410  1.8919  0.3655
  569MOL0     H76769   6.088   6.780   1.394  2.3895  0.8394  1.5408
  569MOL0     H76770   6.171   6.809   1.549 -2.1772  2.8095  1.9652
  569MOL0     H76771   6.038   6.548   1.512  0.1930 -1.4411 -0.1770
  569MOL0     H76772   6.175   6.576   1.603 -1.6531 -2.3608 -0.0534
  569MOL0     H76773   6.187   6.591   1.301  2.1577 -0.9450 -1.9126
  569MOL0     H76774   6.237   6.445   1.401  3.7337  0.5608  1.1962
  569MOL0     H76775   6.601   6.684   1.465 -0.7073  0.8308 -1.2777
  569MOL0     H76776   6.800   6.602   1.341 -0.0932 -1.1931 -0.2210
  569MOL0     H76777   6.909   6.339   0.848 -0.8535 -1.1972 -1.9452
  569MOL0     H76778   7.072   6.221   0.746  0.3106  1.7130  0.5914
  569MOL0     H76779   7.190   6.040   0.668 -0.6884 -2.5913  1.5054
  569MOL0     H76780   7.308   6.150   0.742 -0.1916  0.2867  2.1302
  569MOL0     H76781   7.464   5.950   0.772  0.0441 -0.9950  0.1469
  569MOL0     H76782   7.341   5.850   0.694  0.9835  0.9567 -0.8243
  569MOL0     H76783   7.357   5.973   0.490  0.4390 -0.7337 -0.9570
  569MOL0     H76784   7.475   6.083   0.561  1.5332 -0.4551 -0.7406
  569MOL0     H76785   7.578   5.915   0.430 -0.1973  1.9780  0.2246
  569MOL0     H76786   7.526   5.797   0.557  0.7346 -0.5899 -0.4432
  569MOL0     H76787   7.733   5.848   0.653 -0.4543 -0.3542 -0.0057
  569MOL0     H76788   7.659   6.003   0.698 -2.8120  0.9951 -0.4674
  569MOL0     H76789   7.732   6.106   0.480  0.0853  0.7872  0.1445
  569MOL0     H76790   7.856   6.063   0.612  0.1294 -0.7553  0.0720
  569MOL0     H76791   7.797   5.928   0.333  0.5374 -0.0469 -0.7963
  569MOL0     H76792   7.902   5.852   0.457 -1.0959  0.3522  0.8092
  569MOL0     H76793   7.993   6.013   0.255 -0.1745  1.9893 -1.0826
  569MOL0     H76794   7.949   6.145   0.371  0.0764 -0.3634  3.3724
  569MOL0     H76795   7.129   5.984   1.114  1.3428  0.6977 -0.2337
  569MOL0     H76796   6.931   6.097   1.211  0.0737  0.1551  0.5359
  569MOL0     H76797   6.556   6.305   1.153  2.0894 -0.1065 -1.3603
  569MOL0     H76798   6.368   6.372   1.262  2.2293 -3.9921  2.6799
  569MOL0     H76799   4.823   7.438   1.599  2.9596  0.7150  0.6653
  569MOL0     H76800   4.592   7.366   1.591  1.4007  1.8132 -0.4448
  569MOL0     H76801   4.303   6.944   1.529  2.1332  2.5240  0.3123
  569MOL0     H76802   4.069   6.871   1.530 -0.1367  1.4131 -1.3381
  569MOL0     H76803   3.850   6.795   1.603 -0.0377  0.2547 -2.7675
  569MOL0     H76804   3.841   6.961   1.544  0.4586 -4.0774 -2.3670
  569MOL0     H76805   3.612   6.855   1.573  0.3033  0.1328 -0.7487
  569MOL0     H76806   3.626   6.977   1.697  0.9228  1.3065 -0.5977
  569MOL0     H76807   3.703   6.817   1.863  0.7609  0.7075 -0.6215
  569MOL0     H76808   3.725   6.701   1.732  1.8374  1.9491 -0.1332
  569MOL0     H76809   3.515   6.727   1.897  4.1344 -0.5384 -0.3473
  569MOL0     H76810   3.458   6.831   1.750  0.5409  1.7738  1.2061
  569MOL0     H76811   3.380   6.434   1.652  1.6000 -2.2711  1.8116
  569MOL0     H76812   4.013   7.056   1.914 -2.8840  2.5314 -2.8389
  569MOL0     H76813   4.362   7.076   1.984 -0.3434 -0.2394  1.3374
  569MOL0     H76814   4.274   7.236   1.942  1.8426 -0.2194 -0.1245
  569MOL0     H76815   4.199   7.105   2.036 -0.8918  1.2203 -0.2811
  570MOL0     O76816   0.034   2.260   7.610  0.7060 -0.4072 -0.1192
  570MOL0     C76817  -0.028   2.271   7.717  0.4733  0.5243 -0.3401
  570MOL0     O76818   0.030   2.259   7.842 -0.3738 -0.2795  0.2119
  570MOL0     C76819   0.160   2.306   7.865  0.4961  0.7777  0.4648
  570MOL0     C76820   0.267   2.274   7.780 -0.1113 -0.2894 -0.6506
  570MOL0     C76821   0.401   2.308   7.822  0.2129  0.6881  0.1356
  570MOL0     C76822   0.426   2.360   7.946  0.0095  0.3096 -0.8415
  570MOL0     O76823   0.555   2.383   7.992  0.0825 -0.3572 -0.0423
  570MOL0     C76824   0.593   2.333   8.121 -0.1186  0.2368  0.3952
  570MOL0     C76825   0.727   2.398   8.159  0.5073  0.0798  0.5035
  570MOL0     C76826   0.840   2.353   8.072 -0.0882 -0.5513 -0.0210
  570MOL0     C76827   0.972   2.444   8.086 -0.2368 -0.3940 -0.4531
  570MOL0     C76828   1.088   2.408   7.997 -0.5105  0.3480  0.2839
  570MOL0     C76829   1.228   2.458   8.043  0.6621 -0.5545 -0.6533
  570MOL0     C76830   1.279   2.408   8.180 -0.1243  0.9495  0.3197
  570MOL0     C76831   1.350   2.273   8.160  0.1595 -0.7470 -0.2489
  570MOL0     N76832   1.489   2.321   8.122 -0.0860 -0.1540 -0.7132
  570MOL0     C76833   1.588   2.352   8.214  0.1046 -1.1272  0.2172
  570MOL0     C76834   1.679   2.421   8.137 -0.4448  0.0034 -0.1149
  570MOL0     C76835   1.807   2.475   8.198 -0.7707 -0.1691 -0.2931
  570MOL0     C76836   1.799   2.630   8.203  0.5929  0.7877  0.3369
  570MOL0     C76837   1.931   2.703   8.238 -0.0423  0.3097  0.1444
  570MOL0     C76838   1.945   2.842   8.188 -0.0242 -0.5476 -0.7095
  570MOL0     O76839   2.049   2.915   8.240 -0.5545 -0.0303 -0.6803
  570MOL0     C76840   2.179   2.866   8.224  1.1528 -0.1191  0.1415
  570MOL0     C76841   2.276   2.918   8.314  0.5593  0.4045 -0.3164
  570MOL0     C76842   2.411   2.890   8.291  0.0469 -0.7827 -0.2231
  570MOL0     C76843   2.451   2.795   8.204  0.9169  0.3691 -0.0108
  570MOL0     C76844   2.581   2.757   8.188 -1.1397 -0.2629 -0.0282
  570MOL0     O76845   2.601   2.635   8.128  0.1597 -0.2838 -0.1706
  570MOL0     C76846   2.730   2.605   8.100 -0.3461  0.1687  0.2411
  570MOL0     C76847   2.826   2.569   8.198  0.3850 -0.4593  0.0036
  570MOL0     C76848   2.961   2.544   8.155 -0.2672  1.5226  0.0396
  570MOL0     C76849   2.987   2.540   8.020 -0.3211 -0.0009 -0.8560
  570MOL0     O76850   3.106   2.499   7.968 -0.4790 -0.5222 -0.8152
  570MOL0     C76851   3.127   2.358   7.991  1.4303  0.4150  0.0969
  570MOL0     C76852   3.246   2.312   7.920  0.2101  0.1502 -0.2032
  570MOL0     C76853   3.366   2.352   8.016  0.7047  0.1954  0.0709
  570MOL0     C76854   3.493   2.358   7.941 -1.2827 -0.3198 -0.0401
  570MOL0     C76855   3.617   2.347   8.025  0.3276  0.2108 -0.1893
  570MOL0     C76856   3.738   2.339   7.933  0.0380  0.4148 -0.8595
  570MOL0     C76857   3.856   2.302   8.020  0.0037 -0.0424  0.0983
  570MOL0     C76858   3.940   2.189   7.959 -0.1203  0.9786 -0.1631
  570MOL0    Cl76859   3.841   2.029   7.970  0.0241 -0.0278 -0.2754
  570MOL0     C76860   2.893   2.580   7.928  0.1754  0.0666  0.4326
  570MOL0     C76861   2.762   2.613   7.961 -0.1968 -0.1667  0.4096
  570MOL0     O76862   2.674   2.820   8.237 -0.3409 -0.0424 -0.0370
  570MOL0     C76863   2.355   2.745   8.114  0.2684  0.1566 -0.5610
  570MOL0     C76864   2.220   2.780   8.124 -0.7933  0.2324  0.0180
  570MOL0     N76865   1.636   2.417   8.008 -0.1260 -0.5318  0.8328
  570MOL0     N76866   1.529   2.346   7.995 -0.3685  0.0844  0.2559
  570MOL0     C76867   0.314   2.401   8.026  0.5261  0.1874  1.0151
  570MOL0     C76868   0.183   2.373   7.986  1.8578 -0.6941 -0.1625
  570MOL0     C76869  -0.177   2.250   7.709 -0.4367  0.4166 -0.0290
  570MOL0     C76870  -0.253   2.240   7.828  0.5977 -0.0101 -1.1104
  570MOL0     C76871  -0.395   2.226   7.823  0.0386 -0.1467 -0.1910
  570MOL0     C76872  -0.459   2.223   7.709 -0.9402 -0.4670 -0.1563
  570MOL0     O76873  -0.592   2.195   7.711 -0.1387  0.4843  0.3047
  570MOL0     C76874  -0.664   2.139   7.595  0.0690 -0.3418 -0.4650
  570MOL0     C76875  -0.776   2.060   7.635 -0.2563 -0.4819 -0.0332
  570MOL0     C76876  -0.888   2.161   7.669  0.0940  0.6694  0.9616
  570MOL0     C76877  -1.003   2.102   7.750  0.9827  1.1833  0.8057
  570MOL0     C76878  -1.110   2.042   7.660 -0.8684 -0.1925  0.1841
  570MOL0     C76879  -1.192   2.001   7.578  0.7515 -0.1817 -0.4875
  570MOL0     C76880  -0.390   2.254   7.584  0.1180 -0.6428 -0.8523
  570MOL0     C76881  -0.253   2.276   7.590 -0.6018  0.8040 -0.5138
  570MOL0     C76882  -0.187   2.318   7.460  0.3056 -0.1839 -0.1852
  570MOL0     H76883   0.255   2.231   7.681  0.9268 -0.6957 -0.6171
  570MOL0     H76884   0.481   2.279   7.755 -0.1058 -3.1759  1.2281
  570MOL0     H76885   0.511   2.357   8.190 -2.0770  0.9165 -2.0274
  570MOL0     H76886   0.609   2.225   8.115 -1.5622  0.0466 -0.6821
  570MOL0     H76887   0.748   2.364   8.261  0.9066 -0.5420  0.2173
  570MOL0     H76888   0.707   2.506   8.158  0.0423  0.0063  1.0304
  570MOL0     H76889   0.813   2.348   7.966  1.2153  2.0216 -0.5455
  570MOL0     H76890   0.852   2.251   8.110 -2.1528 -1.7033 -2.2019
  570MOL0     H76891   0.939   2.546   8.066 -0.2120 -0.4434 -0.7408
  570MOL0     H76892   1.012   2.442   8.188 -0.9555 -0.5678 -0.1651
  570MOL0     H76893   1.090   2.301   7.978  0.2113 -0.7555  5.2527
  570MOL0     H76894   1.066   2.463   7.904  0.0082  2.0851  1.1437
  570MOL0     H76895   1.298   2.441   7.961  2.3774 -0.3839  0.7216
  570MOL0     H76896   1.238   2.566   8.045  2.6228 -0.6520 -2.2444
  570MOL0     H76897   1.203   2.402   8.259 -0.3409  2.9496  0.3014
  570MOL0     H76898   1.352   2.480   8.219  1.2326  1.0139 -2.1392
  570MOL0     H76899   1.350   2.220   8.256  1.5303  2.0904  1.4614
  570MOL0     H76900   1.295   2.219   8.082 -0.3726 -0.1568 -0.2976
  570MOL0     H76901   1.591   2.325   8.319 -0.3496  0.1469  0.5804
  570MOL0     H76902   1.834   2.434   8.296  1.4121 -2.0043 -1.5397
  570MOL0     H76903   1.896   2.456   8.137 -0.3818  0.8805 -0.0775
  570MOL0     H76904   1.753   2.672   8.114 -1.9624  1.2671  1.7937
  570MOL0     H76905   1.729   2.651   8.284 -1.4661 -3.0017 -0.1970
  570MOL0     H76906   2.022   2.650   8.207 -0.3956 -0.4572  0.4150
  570MOL0     H76907   1.942   2.705   8.346 -1.3360  3.1634  0.3027
  570MOL0     H76908   1.854   2.898   8.213  0.0802 -1.2820  1.6030
  570MOL0     H76909   1.953   2.834   8.079 -0.5944 -2.9284 -0.6366
  570MOL0     H76910   2.236   2.954   8.409 -1.0031 -0.5948 -0.5572
  570MOL0     H76911   2.475   2.914   8.376  0.1986  0.1604 -0.5869
  570MOL0     H76912   2.799   2.574   8.304 -2.3642 -0.4912 -0.6039
  570MOL0     H76913   3.038   2.520   8.227 -0.1228 -0.3866 -0.6935
  570MOL0     H76914   3.135   2.338   8.098  3.2224 -4.1440 -0.6659
  570MOL0     H76915   3.047   2.299   7.945  1.2463  0.6241  0.1452
  570MOL0     H76916   3.244   2.203   7.906  0.8136  0.0865  0.1819
  570MOL0     H76917   3.259   2.359   7.822  1.4933  2.6887  1.1031
  570MOL0     H76918   3.352   2.450   8.063  0.3575  0.6397 -0.9241
  570MOL0     H76919   3.376   2.277   8.095 -2.4715  1.0196  1.4034
  570MOL0     H76920   3.502   2.455   7.892 -1.7504 -0.6517 -0.7956
  570MOL0     H76921   3.502   2.280   7.865  0.4484 -0.9449  0.7618
  570MOL0     H76922   3.600   2.252   8.076 -0.6387  0.5467  0.1304
  570MOL0     H76923   3.634   2.419   8.106 -0.0668 -0.1154  0.1883
  570MOL0     H76924   3.727   2.256   7.863 -0.5995 -2.2867  2.1715
  570MOL0     H76925   3.763   2.429   7.877  2.8671  0.1686 -0.1919
  570MOL0     H76926   3.832   2.273   8.123 -0.4544  0.7947  0.2320
  570MOL0     H76927   3.921   2.389   8.024  0.5584 -0.5112  1.9892
  570MOL0     H76928   3.970   2.196   7.854 -0.3857  0.2993 -0.2911
  570MOL0     H76929   4.039   2.181   8.006 -0.4718 -1.3994  0.2713
  570MOL0     H76930   2.903   2.597   7.821 -0.7897  1.4601  0.5329
  570MOL0     H76931   2.694   2.649   7.885  0.0735  1.0155  0.7136
  570MOL0     H76932   2.384   2.680   8.032  1.0546  1.8020 -1.6548
  570MOL0     H76933   2.153   2.744   8.047 -1.0354  0.5528  0.0729
  570MOL0     H76934   0.325   2.447   8.124  1.4756  0.6514  0.7073
  570MOL0     H76935   0.099   2.398   8.050  1.4335 -2.7109  0.1397
  570MOL0     H76936  -0.203   2.250   7.924 -2.8590  1.4337  0.7489
  570MOL0     H76937  -0.456   2.215   7.912  1.0008 -1.2984  0.3553
  570MOL0     H76938  -0.595   2.070   7.546  0.3629  0.3098 -0.9972
  570MOL0     H76939  -0.690   2.220   7.525 -0.0017 -0.9648 -1.1791
  570MOL0     H76940  -0.738   1.994   7.713 -0.5428  0.5561  1.0155
  570MOL0     H76941  -0.804   1.993   7.553 -0.9783 -0.3394  0.0878
  570MOL0     H76942  -0.930   2.198   7.575  0.0934 -2.8900 -0.5643
  570MOL0     H76943  -0.841   2.242   7.726  0.1045  1.0825  0.3744
  570MOL0     H76944  -0.964   2.035   7.826  0.0967  0.5335  0.7002
  570MOL0     H76945  -1.055   2.181   7.805  1.2355  0.7978  1.6059
  570MOL0     H76946  -1.262   1.983   7.498 -1.0991 -1.0733  1.2486
  570MOL0     H76947  -0.450   2.254   7.494 -0.9608 -2.2266 -0.1786
  570MOL0     H76948  -0.116   2.400   7.471  0.5762 -0.6391  2.0225
  570MOL0     H76949  -0.136   2.233   7.415 -0.6858 -0.4524 -0.8331
  570MOL0     H76950  -0.264   2.350   7.389  1.3261 -0.4590 -1.4303
  571MOL0     O76951   5.364   1.027   9.035  0.1207  0.1293  0.1564
  571MOL0     C76952   5.316   1.129   8.984 -0.3999 -0.6096 -0.0344
  571MOL0     O76953   5.392   1.243   8.954 -0.3297  0.0781 -0.6069
  571MOL0     C76954   5.520   1.240   9.014 -0.5369 -0.1057 -0.3160
  571MOL0     C76955   5.615   1.156   8.963  0.4140  0.3315  0.8086
  571MOL0     C76956   5.748   1.149   9.018  0.1346 -0.3200  0.5314
  571MOL0     C76957   5.791   1.238   9.123  0.2477  0.1028  0.0047
  571MOL0     O76958   5.915   1.227   9.164 -0.5757  0.3744 -0.5403
  571MOL0     C76959   5.955   1.304   9.278 -0.3260  0.1624  0.4258
  571MOL0     C76960   6.098   1.271   9.322  0.1270  0.5144  0.6277
  571MOL0     C76961   6.100   1.187   9.452  0.1127 -0.1712 -0.7259
  571MOL0     C76962   6.022   1.052   9.440 -0.2469  0.5895 -0.2352
  571MOL0     C76963   6.106   0.946   9.523  0.5761 -0.7684  0.0110
  571MOL0     C76964   6.116   0.975   9.670 -0.0729 -0.8139  0.0668
  571MOL0     C76965   6.188   0.855   9.738 -0.1820 -0.2862  0.2020
  571MOL0     C76966   6.171   0.872   9.891 -0.2237 -0.6639 -0.2653
  571MOL0     N76967   6.241   0.772   9.973  0.7810  0.0863  0.3977
  571MOL0     C76968   6.377   0.749   9.986 -0.2162 -0.0920  0.7860
  571MOL0     C76969   6.391   0.645  10.074  0.1260  0.5284 -0.7983
  571MOL0     C76970   6.512   0.560  10.112  0.1450 -0.0578  0.3968
  571MOL0     C76971   6.587   0.508   9.988 -1.3036  0.2789 -0.0456
  571MOL0     C76972   6.500   0.433   9.885  0.2948 -0.3238 -0.0133
  571MOL0     C76973   6.592   0.359   9.777 -0.2917 -0.5409 -0.0980
  571MOL0     O76974   6.670   0.246   9.831 -0.5679  0.1167  0.1275
  571MOL0     C76975   6.796   0.217   9.777  0.7404  0.1111  0.2452
  571MOL0     C76976   6.841   0.247   9.652  1.2074  0.1853  0.9872
  571MOL0     C76977   6.967   0.204   9.606  0.5752  0.1039 -0.2112
  571MOL0     C76978   7.058   0.146   9.694  0.3729  0.3307 -0.4838
  571MOL0     C76979   7.200   0.117   9.661  0.4482 -0.3383 -0.0954
  571MOL0     O76980   7.282   0.040   9.746 -0.1070  0.9087 -0.4262
  571MOL0     C76981   7.417   0.052   9.735 -0.9419 -0.3766  0.7321
  571MOL0     C76982   7.494   0.014   9.614  0.7176 -0.3068  0.0002
  571MOL0     C76983   7.637   0.023   9.622  0.4761 -0.1810 -0.5605
  571MOL0     C76984   7.695   0.084   9.732  0.5273 -0.2060 -0.1099
  571MOL0     O76985   7.828   0.090   9.748  0.1702 -0.8997  0.7799
  571MOL0     C76986   7.906   0.163   9.652 -0.2758  0.3583 -0.0696
  571MOL0     C76987   8.055   0.189   9.704 -0.7627 -0.4456  0.2446
  571MOL0     C76988   8.134   0.056   9.734 -0.3420 -0.4706  0.8380
  571MOL0     C76989   8.138  -0.045   9.617 -0.1415 -0.0286 -0.6929
  571MOL0     C76990   8.230  -0.171   9.641 -0.4156  0.0916  0.2378
  571MOL0     C76991   8.255  -0.253   9.503  0.0328  0.4965 -0.1712
  571MOL0     C76992   8.348  -0.375   9.521  0.1883  0.0218 -0.1744
  571MOL0     C76993   8.485  -0.339   9.587  0.5276  0.5529 -0.3923
  571MOL0    Cl76994   8.571  -0.238   9.477 -0.0599  0.1521 -0.0830
  571MOL0     C76995   7.623   0.128   9.836  0.5939  0.2396 -0.1778
  571MOL0     C76996   7.481   0.113   9.837 -0.4147 -0.6269  0.0072
  571MOL0     O76997   7.237   0.168   9.555  0.5052  0.5346  0.7845
  571MOL0     C76998   7.023   0.140   9.822  0.2130  0.6008 -0.1263
  571MOL0     C76999   6.885   0.162   9.866  0.5139  0.8918  0.4278
  571MOL0     N77000   6.261   0.599  10.109 -0.1988 -0.0156 -0.3601
  571MOL0     N77001   6.174   0.679  10.054 -0.2266  0.4788  0.1129
  571MOL0     C77002   5.687   1.330   9.163  0.4971 -0.0546 -0.5057
  571MOL0     C77003   5.557   1.332   9.113  0.0996  0.6796  0.0522
  571MOL0     C77004   5.169   1.133   8.958 -0.2724  0.4164  0.1865
  571MOL0     C77005   5.103   1.011   8.921 -0.5384 -0.0361 -1.2211
  571MOL0     C77006   4.967   1.001   8.895 -0.7096 -0.4121 -0.0937
  571MOL0     C77007   4.885   1.115   8.884  0.8543 -0.5038 -0.0583
  571MOL0     O77008   4.752   1.117   8.841  0.5643  0.2177 -0.0040
  571MOL0     C77009   4.678   0.994   8.816 -0.7361  0.6834  0.6554
  571MOL0     C77010   4.608   1.015   8.686 -0.0484  0.1673  0.7707
  571MOL0     C77011   4.517   0.893   8.659  0.8618 -0.2409 -0.1777
  571MOL0     C77012   4.437   0.907   8.532 -0.0134  0.2016  0.1729
  571MOL0     C77013   4.521   0.888   8.412  0.5894 -0.1046  0.3491
  571MOL0     C77014   4.582   0.863   8.313  0.4459 -0.2114 -0.5151
  571MOL0     C77015   4.956   1.239   8.911  0.2572  0.2091 -0.2579
  571MOL0     C77016   5.091   1.257   8.951 -1.1098 -0.5532 -0.9828
  571MOL0     C77017   5.145   1.388   8.988  0.3604 -0.1125  0.3087
  571MOL0     H77018   5.579   1.098   8.879  0.9283  1.2816 -0.0917
  571MOL0     H77019   5.820   1.083   8.973  1.1295  1.3769 -0.4905
  571MOL0     H77020   5.950   1.409   9.248  0.3055  0.4853  1.3972
  571MOL0     H77021   5.890   1.306   9.366 -0.1052  0.2002  0.5886
  571MOL0     H77022   6.136   1.367   9.357 -0.7658  0.3748  2.0475
  571MOL0     H77023   6.171   1.228   9.252 -2.1323  1.8663 -2.8446
  571MOL0     H77024   6.053   1.250   9.529  0.6398  2.6998 -2.5958
  571MOL0     H77025   6.206   1.167   9.470  0.2274 -0.8565 -2.0489
  571MOL0     H77026   5.925   1.070   9.488 -0.2299 -1.6931  0.7653
  571MOL0     H77027   6.011   1.027   9.334 -2.0562  2.8883 -0.6892
  571MOL0     H77028   6.060   0.847   9.509  2.7388 -1.5644 -2.1272
  571MOL0     H77029   6.208   0.939   9.484  0.1236 -2.2204 -0.9944
  571MOL0     H77030   6.167   1.070   9.691  0.3276 -1.2985  1.3795
  571MOL0     H77031   6.017   0.991   9.713 -0.0439 -0.8808  0.1587
  571MOL0     H77032   6.293   0.869   9.713 -0.1961 -1.9572 -0.9536
  571MOL0     H77033   6.148   0.761   9.698  0.1335 -0.4222  0.2026
  571MOL0     H77034   6.201   0.973   9.921 -1.3867 -0.2894 -0.2943
  571MOL0     H77035   6.067   0.856   9.922 -0.2461  0.8102  0.5436
  571MOL0     H77036   6.453   0.800   9.927 -0.6165  0.4240  0.7051
  571MOL0     H77037   6.576   0.617  10.180  0.4800  0.3035 -0.2060
  571MOL0     H77038   6.476   0.481  10.177 -1.2759 -0.1625 -0.4758
  571MOL0     H77039   6.648   0.578   9.929  0.8739  0.9474  2.7810
  571MOL0     H77040   6.667   0.441  10.018  0.3817  1.6247 -1.3036
  571MOL0     H77041   6.431   0.505   9.841  0.1104  0.1946  1.0947
  571MOL0     H77042   6.432   0.361   9.932 -0.1445 -0.3096 -0.6172
  571MOL0     H77043   6.669   0.430   9.746  0.7891 -1.4214  0.5228
  571MOL0     H77044   6.529   0.316   9.699 -4.3214  2.5798  1.0175
  571MOL0     H77045   6.772   0.297   9.584  3.4167  4.0161  1.3010
  571MOL0     H77046   7.002   0.221   9.505  4.3590 -0.4745  0.8472
  571MOL0     H77047   7.447  -0.019   9.522  0.4975  0.5081 -0.1883
  571MOL0     H77048   7.700  -0.011   9.540  1.3811 -0.3403  0.1795
  571MOL0     H77049   7.926   0.104   9.562  3.2651  1.7284 -0.3619
  571MOL0     H77050   7.854   0.252   9.616 -3.4020 -1.1796  0.2998
  571MOL0     H77051   8.110   0.245   9.627 -1.3508  0.4927  0.4948
  571MOL0     H77052   8.045   0.246   9.796  3.5444 -0.5761  1.0306
  571MOL0     H77053   8.234   0.076   9.773 -0.2655 -0.7916  0.8100
  571MOL0     H77054   8.083   0.008   9.818 -2.3956  2.6539  1.5235
  571MOL0     H77055   8.153  -0.002   9.517 -0.3234  0.3382 -0.5655
  571MOL0     H77056   8.033  -0.076   9.620 -1.1686  3.0191  2.6903
  571MOL0     H77057   8.202  -0.231   9.728 -0.8499  0.3584  0.2825
  571MOL0     H77058   8.333  -0.140   9.660 -0.2501 -1.1920  1.6659
  571MOL0     H77059   8.160  -0.282   9.455 -0.4424  0.0919  0.9794
  571MOL0     H77060   8.302  -0.179   9.437 -0.4296  1.7403  0.8647
  571MOL0     H77061   8.370  -0.407   9.418 -0.8733 -1.2931 -0.0244
  571MOL0     H77062   8.295  -0.452   9.577 -1.1295  0.4631 -0.7725
  571MOL0     H77063   8.477  -0.283   9.680  0.0714  2.0975 -1.3361
  571MOL0     H77064   8.545  -0.428   9.609  0.6116  0.5901 -0.4747
  571MOL0     H77065   7.684   0.158   9.921  0.3741 -3.2114  1.3431
  571MOL0     H77066   7.428   0.136   9.929  0.2367  0.6132  0.0965
  571MOL0     H77067   7.094   0.119   9.901 -0.6258  1.8139  0.9871
  571MOL0     H77068   6.857   0.148   9.970 -1.2090 -0.0642 -0.1170
  571MOL0     H77069   5.709   1.391   9.250 -2.6019 -0.7636  0.9191
  571MOL0     H77070   5.489   1.408   9.150 -1.8389  1.0210 -3.7145
  571MOL0     H77071   5.157   0.918   8.936 -3.6703 -1.7528  0.5928
  571MOL0     H77072   4.921   0.904   8.878 -3.0198  0.4102  1.1153
  571MOL0     H77073   4.605   0.983   8.896  0.7325 -2.1672  1.7609
  571MOL0     H77074   4.736   0.902   8.807  1.6860  2.1675  0.0580
  571MOL0     H77075   4.673   1.022   8.599 -2.7909 -0.3496 -1.4553
  571MOL0     H77076   4.546   1.103   8.708  1.7437  1.4324  0.9786
  571MOL0     H77077   4.441   0.880   8.735  1.4676  1.1320  0.6953
  571MOL0     H77078   4.580   0.804   8.654  3.1256  1.2549  0.0996
  571MOL0     H77079   4.349   0.842   8.527 -1.6489  2.3890 -1.9568
  571MOL0     H77080   4.402   1.011   8.539 -0.9132 -0.1496  1.3394
  571MOL0     H77081   4.641   0.835   8.229  2.0224 -0.1852  0.5448
  571MOL0     H77082   4.905   1.332   8.889 -3.4774 -2.3846 -4.3516
  571MOL0     H77083   5.224   1.411   8.916  0.9140 -1.5058  0.4472
  571MOL0     H77084   5.069   1.467   8.980 -0.5848 -0.8492  1.6799
  571MOL0     H77085   5.185   1.399   9.089  0.4617 -1.0576  0.3766
  572MOL0     O77086   7.225   2.565  11.268  0.5267 -0.0236 -0.1652
  572MOL0     C77087   7.188   2.660  11.334 -0.0521 -0.8238  0.2277
  572MOL0     O77088   7.269   2.722  11.431 -0.8100 -0.2427  0.0742
  572MOL0     C77089   7.383   2.655  11.460 -1.3724  0.2458  0.0207
  572MOL0     C77090   7.393   2.527  11.521  0.4501 -0.3259  0.0566
  572MOL0     C77091   7.510   2.465  11.551  0.1923 -0.7516  0.3170
  572MOL0     C77092   7.629   2.528  11.534  0.4811  0.6220  1.1246
  572MOL0     O77093   7.742   2.464  11.572  0.1122 -0.9233 -0.5448
  572MOL0     C77094   7.810   2.536  11.676  0.6538 -0.0976  0.4445
  572MOL0     C77095   7.954   2.525  11.641 -0.3789 -0.3503 -0.5399
  572MOL0     C77096   8.002   2.384  11.632 -0.4428  0.4358 -0.1514
  572MOL0     C77097   8.154   2.371  11.604  0.5508 -1.3334  0.4696
  572MOL0     C77098   8.185   2.223  11.629 -0.1200  0.1174 -0.2306
  572MOL0     C77099   8.334   2.176  11.607 -0.3412  0.0589 -0.9474
  572MOL0     C77100   8.449   2.253  11.679 -0.3149  0.3792  0.4793
  572MOL0     C77101   8.564   2.166  11.705  0.1298 -0.0076 -0.4126
  572MOL0     N77102   8.664   2.238  11.783 -0.0123 -0.6867 -0.7666
  572MOL0     C77103   8.673   2.242  11.918  0.5057 -0.1565 -0.1804
  572MOL0     C77104   8.791   2.298  11.944 -0.2028 -0.5665 -0.7578
  572MOL0     C77105   8.852   2.332  12.082  0.1205  0.2963 -0.5316
  572MOL0     C77106   8.949   2.236  12.135 -0.4081  1.1710  0.8489
  572MOL0     C77107   9.066   2.210  12.039 -0.6586 -0.0244 -0.8062
  572MOL0     C77108   9.152   2.340  12.016  0.0551 -0.7741  0.1014
  572MOL0     O77109   9.194   2.393  12.139 -0.2823  0.7255  0.1142
  572MOL0     C77110   9.314   2.355  12.174 -0.0907  1.1994  0.2490
  572MOL0     C77111   9.422   2.388  12.093  0.5353  0.0922 -0.6255
  572MOL0     C77112   9.554   2.350  12.123  0.2942 -0.2490 -0.3116
  572MOL0     C77113   9.581   2.290  12.251 -0.3521 -0.3865  0.4533
  572MOL0     C77114   9.716   2.258  12.301  0.0252  0.9171  0.0963
  572MOL0     O77115   9.739   2.150  12.387 -0.1533  0.0948 -0.1145
  572MOL0     C77116   9.860   2.129  12.449  0.4173  0.1514  0.0440
  572MOL0     C77117   9.894   2.191  12.572 -1.0653  0.0500 -0.3762
  572MOL0     C77118  10.026   2.166  12.620 -0.3901 -0.3881  0.2268
  572MOL0     C77119  10.113   2.084  12.547  0.3653  0.0013  0.1226
  572MOL0     O77120  10.242   2.072  12.600  0.5185  0.9098 -0.2308
  572MOL0     C77121  10.343   2.007  12.520 -0.3733 -0.5586 -0.4336
  572MOL0     C77122  10.472   1.981  12.600  0.0159 -0.6480  0.4088
  572MOL0     C77123  10.444   1.927  12.743 -0.0952 -0.4536  0.2776
  572MOL0     C77124  10.571   1.855  12.802 -0.3995  0.2024  0.1846
  572MOL0     C77125  10.598   1.716  12.739 -0.5946 -0.1678  0.0192
  572MOL0     C77126  10.698   1.626  12.823  0.1966  0.0057 -0.0842
  572MOL0     C77127  10.776   1.521  12.743  0.3681 -0.3577  0.5519
  572MOL0     C77128  10.903   1.483  12.827  0.2944  0.2847  0.3194
  572MOL0    Cl77129  10.856   1.436  12.998 -0.4381  0.0773  0.4237
  572MOL0     C77130  10.066   2.020  12.430 -0.4261 -0.3687 -0.2275
  572MOL0     C77131   9.946   2.041  12.390  1.2736 -0.7313  0.3487
  572MOL0     O77132   9.798   2.334  12.259  0.0202 -0.2487  0.1360
  572MOL0     C77133   9.468   2.257  12.335  0.0763  0.0525 -0.2974
  572MOL0     C77134   9.335   2.288  12.298 -0.1892  0.3616  0.6102
  572MOL0     N77135   8.853   2.344  11.825 -0.2487  0.4468 -0.1165
  572MOL0     N77136   8.769   2.306  11.732 -0.4827 -0.9184  0.5008
  572MOL0     C77137   7.624   2.650  11.465 -0.3607 -0.4953  0.2918
  572MOL0     C77138   7.507   2.717  11.431  0.2345 -0.9964 -0.2963
  572MOL0     C77139   7.051   2.711  11.311  0.1884  0.1173 -0.5074
  572MOL0     C77140   7.016   2.844  11.348 -0.5104  0.9430  1.2590
  572MOL0     C77141   6.891   2.891  11.356  0.1672 -0.5566 -0.5880
  572MOL0     C77142   6.784   2.815  11.310  0.6874 -0.3273 -0.4945
  572MOL0     O77143   6.649   2.847  11.306 -0.2465  1.1037  0.0801
  572MOL0     C77144   6.619   2.952  11.391  0.1634 -0.8080  0.4535
  572MOL0     C77145   6.475   2.973  11.385 -0.3430 -0.1501 -0.0342
  572MOL0     C77146   6.396   2.873  11.460 -0.5123 -0.5342  1.4528
  572MOL0     C77147   6.250   2.927  11.468  0.1120 -0.7471 -0.4468
  572MOL0     C77148   6.240   3.000  11.593 -0.3152 -0.2761  0.5669
  572MOL0     C77149   6.237   3.071  11.689  0.2144  0.1156 -0.2842
  572MOL0     C77150   6.812   2.683  11.265  0.1554  0.2146  0.4348
  572MOL0     C77151   6.940   2.626  11.273 -1.1247 -0.1122  0.7069
  572MOL0     C77152   6.960   2.476  11.231  0.0066 -0.1159  0.2469
  572MOL0     H77153   7.295   2.484  11.539 -0.4578  1.4913 -0.2091
  572MOL0     H77154   7.506   2.365  11.594 -0.0652 -0.5338  0.8134
  572MOL0     H77155   7.792   2.643  11.668  0.1626 -0.0130  2.2465
  572MOL0     H77156   7.802   2.499  11.778  1.9778  1.3023  1.0965
  572MOL0     H77157   8.003   2.584  11.720 -2.8575  0.3789  0.5559
  572MOL0     H77158   7.967   2.579  11.547  1.6724 -0.1817 -0.2034
  572MOL0     H77159   7.947   2.316  11.565  0.0707  0.1444 -0.2827
  572MOL0     H77160   7.975   2.344  11.730 -0.7365  3.1374  0.9654
  572MOL0     H77161   8.161   2.402  11.500 -0.4323 -5.8717 -1.1918
  572MOL0     H77162   8.207   2.434  11.676  1.0123 -0.7475 -0.3782
  572MOL0     H77163   8.158   2.196  11.731  1.4227  0.5445  0.3182
  572MOL0     H77164   8.120   2.160  11.567  0.5352  2.1790 -3.2287
  572MOL0     H77165   8.354   2.069  11.621  0.8450  0.4786  0.9045
  572MOL0     H77166   8.340   2.188  11.498 -2.0268 -0.9988 -1.1989
  572MOL0     H77167   8.410   2.299  11.771 -0.5006 -2.6626  2.0579
  572MOL0     H77168   8.494   2.326  11.612 -0.1721 -0.4673 -0.3703
  572MOL0     H77169   8.531   2.075  11.756  0.0274  0.2959  0.0677
  572MOL0     H77170   8.592   2.137  11.604  1.7847  2.9147 -0.8870
  572MOL0     H77171   8.600   2.208  11.992  0.3748  2.9335  1.2569
  572MOL0     H77172   8.900   2.430  12.088 -1.1205  0.7985  2.7920
  572MOL0     H77173   8.769   2.344  12.152 -0.0287  2.9123 -1.0768
  572MOL0     H77174   8.989   2.245  12.237  2.5968 -0.6607 -0.0405
  572MOL0     H77175   8.905   2.136  12.131 -0.6500  1.2900  0.5293
  572MOL0     H77176   9.036   2.179  11.939  3.1473 -2.6767 -1.3527
  572MOL0     H77177   9.133   2.130  12.074 -0.0677  0.0607 -1.6996
  572MOL0     H77178   9.086   2.410  11.964 -1.8421 -1.5137  1.4030
  572MOL0     H77179   9.235   2.322  11.947  0.4492 -0.6129  0.5269
  572MOL0     H77180   9.411   2.445  12.001 -1.1265 -1.0595 -1.1742
  572MOL0     H77181   9.629   2.372  12.047 -0.3574 -0.5655 -1.0587
  572MOL0     H77182   9.822   2.260  12.614 -0.2212 -0.5246  2.1801
  572MOL0     H77183  10.071   2.229  12.696  2.6969  0.6700 -2.2483
  572MOL0     H77184  10.298   1.914  12.485  3.4918 -3.2381  0.9289
  572MOL0     H77185  10.380   2.068  12.437  3.0901  2.5451  2.9686
  572MOL0     H77186  10.541   1.917  12.544 -2.7598 -0.7646 -3.3031
  572MOL0     H77187  10.521   2.076  12.618 -0.2345 -0.7053  1.4692
  572MOL0     H77188  10.417   2.016  12.800 -0.3286 -0.8914  0.8634
  572MOL0     H77189  10.361   1.856  12.741  1.6360 -2.5856 -0.9129
  572MOL0     H77190  10.565   1.848  12.911  0.9841  1.8432  0.4168
  572MOL0     H77191  10.664   1.910  12.783  0.2758 -1.4573 -1.6660
  572MOL0     H77192  10.627   1.739  12.636 -1.4243  2.0511  0.2317
  572MOL0     H77193  10.501   1.666  12.734 -1.2270  1.1272 -1.4736
  572MOL0     H77194  10.771   1.689  12.876 -1.9304  2.5163  0.0397
  572MOL0     H77195  10.653   1.577  12.910 -1.8806  2.0224  0.0793
  572MOL0     H77196  10.793   1.542  12.637 -0.8026 -2.0289 -0.0129
  572MOL0     H77197  10.713   1.432  12.749 -0.2902  0.1976  2.2511
  572MOL0     H77198  10.960   1.403  12.779 -0.2526  1.1342 -1.8479
  572MOL0     H77199  10.970   1.569  12.836  0.5070  0.0015  1.7500
  572MOL0     H77200  10.134   1.965  12.365 -1.4202  0.5036 -2.1138
  572MOL0     H77201   9.904   1.992  12.303 -0.0992  0.0290  0.5510
  572MOL0     H77202   9.484   2.215  12.434  2.8299  0.6073 -0.4345
  572MOL0     H77203   9.250   2.272  12.364 -1.3960  1.4409 -0.6246
  572MOL0     H77204   7.716   2.706  11.450 -0.1883 -0.0230  2.6897
  572MOL0     H77205   7.498   2.815  11.384 -0.9657 -0.9959 -0.0914
  572MOL0     H77206   7.103   2.903  11.374 -0.0543  0.3386  1.1346
  572MOL0     H77207   6.878   2.991  11.396  1.1450 -1.5371  2.4580
  572MOL0     H77208   6.655   3.047  11.350 -0.5757 -0.5711  0.3381
  572MOL0     H77209   6.661   2.939  11.492  0.6220  0.6997  0.4832
  572MOL0     H77210   6.448   2.983  11.279  0.5369 -2.6636 -0.5754
  572MOL0     H77211   6.449   3.067  11.434 -2.2525 -1.2561  1.2232
  572MOL0     H77212   6.452   2.877  11.554  3.5719 -0.0837 -0.7577
  572MOL0     H77213   6.407   2.770  11.424  1.8777 -0.0865  0.7103
  572MOL0     H77214   6.221   2.991  11.384  2.1135 -0.3306 -0.8665
  572MOL0     H77215   6.173   2.850  11.482 -0.3341 -0.3850 -0.8727
  572MOL0     H77216   6.224   3.144  11.766 -0.2532 -0.4893  0.2195
  572MOL0     H77217   6.725   2.628  11.231  1.0346  0.3479 -2.3061
  572MOL0     H77218   7.014   2.479  11.136 -1.3772 -2.0859 -0.6865
  572MOL0     H77219   7.009   2.415  11.307 -0.0543  1.3898  1.5377
  572MOL0     H77220   6.864   2.423  11.221  0.0592 -0.6288  2.0920
  573MOL0     O77221   3.598   7.089   6.964 -0.1223 -0.3805  0.5305
  573MOL0     C77222   3.541   7.007   6.888 -0.2878  0.5060  0.2214
  573MOL0     O77223   3.601   6.938   6.788 -0.1382  0.2074 -0.8637
  573MOL0     C77224   3.735   6.910   6.800 -0.5676  0.4510 -0.4168
  573MOL0     C77225   3.800   6.891   6.920  0.4898  0.3918  0.3168
  573MOL0     C77226   3.942   6.895   6.926  0.3200 -0.3422  0.3711
  573MOL0     C77227   4.019   6.903   6.805 -1.1047  0.2836  0.0992
  573MOL0     O77228   4.162   6.904   6.802  0.5562  0.4866 -0.2723
  573MOL0     C77229   4.229   6.797   6.863 -0.4391  0.9496 -0.6493
  573MOL0     C77230   4.342   6.868   6.947 -0.0158  0.8553  0.0732
  573MOL0     C77231   4.454   6.759   6.990  0.7768  0.1635 -0.1869
  573MOL0     C77232   4.560   6.759   6.887 -0.6205 -0.3497 -0.5418
  573MOL0     C77233   4.667   6.660   6.927 -0.2052 -0.3915 -0.1341
  573MOL0     C77234   4.782   6.651   6.830  0.3071 -0.3427 -0.1962
  573MOL0     C77235   4.905   6.594   6.885  0.1811  0.2526 -0.4752
  573MOL0     C77236   5.009   6.583   6.765  0.1492  0.8902 -0.7198
  573MOL0     N77237   5.134   6.506   6.794 -1.1139  0.4271 -0.0036
  573MOL0     C77238   5.203   6.498   6.915 -0.0547  0.8337 -0.9771
  573MOL0     C77239   5.320   6.431   6.884 -0.2465 -0.3847 -0.4222
  573MOL0     C77240   5.424   6.399   6.981 -0.4272 -0.2864 -0.3713
  573MOL0     C77241   5.563   6.350   6.921 -0.0453  0.3572 -0.7780
  573MOL0     C77242   5.573   6.206   6.877 -0.4525  0.0120 -0.0198
  573MOL0     C77243   5.723   6.152   6.892 -0.3518 -0.0374 -0.6306
  573MOL0     O77244   5.767   6.109   7.019 -0.6054 -0.6270  0.1347
  573MOL0     C77245   5.900   6.060   7.025  0.2442  0.1006  0.2720
  573MOL0     C77246   5.979   6.012   6.922 -0.5507 -0.0306  0.4376
  573MOL0     C77247   6.110   5.963   6.948 -0.5077 -0.1612  0.0458
  573MOL0     C77248   6.171   5.958   7.076  0.3134 -0.3821 -0.4686
  573MOL0     C77249   6.300   5.884   7.106 -0.1633  0.3133 -0.0329
  573MOL0     O77250   6.330   5.840   7.231  0.4333  0.1930 -0.1045
  573MOL0     C77251   6.462   5.809   7.248  0.0855  0.1398 -0.8105
  573MOL0     C77252   6.568   5.908   7.247 -0.2320  0.2599  0.2625
  573MOL0     C77253   6.698   5.875   7.274 -0.9877 -0.2474 -0.4586
  573MOL0     C77254   6.735   5.750   7.308 -1.1978  0.2641  0.2924
  573MOL0     O77255   6.871   5.729   7.336  0.0038 -0.5089  0.0574
  573MOL0     C77256   6.893   5.659   7.458 -0.2799  0.4274  0.5504
  573MOL0     C77257   7.030   5.704   7.502  0.3251 -1.0152 -0.6168
  573MOL0     C77258   7.157   5.651   7.428  0.1269 -0.2915 -0.2220
  573MOL0     C77259   7.288   5.721   7.460 -0.0579  0.8823 -0.6028
  573MOL0     C77260   7.303   5.758   7.610 -0.8402 -0.0436 -0.2484
  573MOL0     C77261   7.461   5.770   7.631  0.3800  0.1337  0.5692
  573MOL0     C77262   7.537   5.633   7.635  0.5632 -0.1073  0.2183
  573MOL0     C77263   7.558   5.587   7.769  0.1075 -0.1135  0.3693
  573MOL0    Cl77264   7.683   5.451   7.768 -0.0871  0.1543  0.1928
  573MOL0     C77265   6.632   5.653   7.318  0.2114  0.1963  0.0650
  573MOL0     C77266   6.497   5.678   7.283  0.0361 -0.2871  0.0595
  573MOL0     O77267   6.379   5.893   7.015 -0.4011  0.0475 -0.2343
  573MOL0     C77268   6.088   6.006   7.178  0.1304  0.2603  0.4700
  573MOL0     C77269   5.957   6.059   7.148 -0.6923 -0.8448 -0.5404
  573MOL0     N77270   5.311   6.385   6.754  0.3314  0.2041  0.1033
  573MOL0     N77271   5.197   6.430   6.704  0.2016 -0.6777  0.0443
  573MOL0     C77272   3.953   6.915   6.685  0.1029 -0.4230 -0.3558
  573MOL0     C77273   3.804   6.919   6.688 -0.6503 -0.0410  0.2983
  573MOL0     C77274   3.385   7.009   6.877 -0.6213 -0.6599  0.8846
  573MOL0     C77275   3.335   7.002   6.747  0.2007  0.6686 -0.1075
  573MOL0     C77276   3.199   6.988   6.718 -0.4754  0.5231 -0.7967
  573MOL0     C77277   3.119   6.968   6.828 -0.2226 -0.2050  0.1883
  573MOL0     O77278   2.983   6.943   6.821 -0.4001  0.4447 -0.0309
  573MOL0     C77279   2.924   6.893   6.701  0.0593  0.1695  0.4397
  573MOL0     C77280   2.769   6.862   6.734 -0.0730  0.0213 -0.1304
  573MOL0     C77281   2.710   6.821   6.597  0.1200 -0.7859 -0.6246
  573MOL0     C77282   2.570   6.747   6.617 -0.6996 -1.2039  0.2131
  573MOL0     C77283   2.478   6.823   6.694 -0.8151  0.3475 -0.0622
  573MOL0     C77284   2.401   6.890   6.753  0.9235 -0.0241  0.4508
  573MOL0     C77285   3.167   6.981   6.959 -0.3370  0.1941 -0.6445
  573MOL0     C77286   3.300   6.996   6.990  0.1500 -0.5945 -0.3233
  573MOL0     C77287   3.344   6.979   7.133 -0.1412  0.4368  0.4357
  573MOL0     H77288   3.740   6.893   7.010 -1.2500  1.3233 -0.7982
  573MOL0     H77289   3.989   6.910   7.023  1.2170 -0.1124 -0.0869
  573MOL0     H77290   4.159   6.735   6.920  0.5963 -0.7236 -1.1308
  573MOL0     H77291   4.265   6.731   6.783  1.8271 -1.7298  2.3337
  573MOL0     H77292   4.290   6.904   7.036 -0.8754  1.3219 -0.5988
  573MOL0     H77293   4.388   6.951   6.893  3.6299  0.5167  2.3071
  573MOL0     H77294   4.411   6.660   7.004  0.4065  0.3077 -0.2749
  573MOL0     H77295   4.500   6.798   7.082 -3.4655  1.7352  1.5391
  573MOL0     H77296   4.521   6.724   6.791  0.9048  0.7385 -1.6080
  573MOL0     H77297   4.599   6.860   6.873 -0.0520 -0.1675  1.8625
  573MOL0     H77298   4.704   6.689   7.025 -2.5004  0.9100  0.4093
  573MOL0     H77299   4.628   6.558   6.939 -1.1396 -0.3393 -2.1822
  573MOL0     H77300   4.749   6.589   6.746 -0.6252 -0.8573  0.5345
  573MOL0     H77301   4.806   6.749   6.789  3.4505 -1.8023 -2.2266
  573MOL0     H77302   4.875   6.502   6.935 -2.7708  1.0171 -0.6663
  573MOL0     H77303   4.951   6.658   6.961  0.2977 -1.1133  0.6485
  573MOL0     H77304   4.962   6.546   6.673 -1.4084  3.1944 -0.9216
  573MOL0     H77305   5.047   6.682   6.739  0.8199  1.0454  0.7499
  573MOL0     H77306   5.165   6.534   7.010 -0.4362  0.3502 -0.9461
  573MOL0     H77307   5.438   6.489   7.042 -2.3097 -1.9705  2.8095
  573MOL0     H77308   5.381   6.318   7.041 -0.8975  1.2413  1.4461
  573MOL0     H77309   5.583   6.404   6.828 -0.0460  0.1572 -0.8948
  573MOL0     H77310   5.646   6.362   6.991  0.4817  0.6690 -1.4594
  573MOL0     H77311   5.541   6.193   6.773 -1.2737  0.4042  0.1750
  573MOL0     H77312   5.510   6.149   6.945 -0.1476  0.6216  0.7786
  573MOL0     H77313   5.793   6.221   6.842  0.0061 -1.2134 -1.8255
  573MOL0     H77314   5.713   6.064   6.827 -0.9536  0.4822 -1.2620
  573MOL0     H77315   5.950   6.017   6.817  2.2586  0.3844 -0.4006
  573MOL0     H77316   6.173   5.924   6.868 -1.3338 -2.9115  0.6443
  573MOL0     H77317   6.545   6.011   7.222 -3.2991 -0.4366 -0.2873
  573MOL0     H77318   6.776   5.951   7.266 -0.9770 -0.4255 -2.5949
  573MOL0     H77319   6.811   5.673   7.529 -2.4548 -1.3330 -1.4463
  573MOL0     H77320   6.903   5.551   7.441  0.8783  0.4649  0.9627
  573MOL0     H77321   7.034   5.811   7.523 -0.6006 -0.4702 -2.8943
  573MOL0     H77322   7.035   5.657   7.600  0.3915  2.3340  1.0909
  573MOL0     H77323   7.174   5.546   7.453 -0.9200 -1.1970 -2.9070
  573MOL0     H77324   7.148   5.655   7.319  1.4817  2.0151 -0.3002
  573MOL0     H77325   7.290   5.815   7.403 -3.7794  0.0956 -2.3520
  573MOL0     H77326   7.366   5.658   7.418 -0.4714  0.9450 -1.5038
  573MOL0     H77327   7.251   5.680   7.667 -2.5147 -0.9774 -2.8558
  573MOL0     H77328   7.251   5.851   7.636  0.8219  0.3173  2.0589
  573MOL0     H77329   7.499   5.826   7.545  1.2831  0.9216  1.4597
  573MOL0     H77330   7.489   5.825   7.722  5.0031 -1.3725  0.3075
  573MOL0     H77331   7.636   5.653   7.593 -0.7978  0.4800 -3.0134
  573MOL0     H77332   7.485   5.556   7.577  0.3296 -0.2829  0.6577
  573MOL0     H77333   7.599   5.667   7.830  1.4187 -1.0375  0.7395
  573MOL0     H77334   7.461   5.546   7.799  0.4492  0.6952  2.7391
  573MOL0     H77335   6.652   5.553   7.353 -0.0340  0.6320  1.5326
  573MOL0     H77336   6.425   5.597   7.277 -1.8271  1.3231 -0.4191
  573MOL0     H77337   6.127   6.010   7.279 -0.2136 -1.7026  0.7289
  573MOL0     H77338   5.887   6.098   7.222  0.6593 -1.0389  0.9097
  573MOL0     H77339   4.013   6.917   6.594  1.2422 -0.8937  0.3573
  573MOL0     H77340   3.754   6.925   6.592 -0.8417  3.0766  0.5093
  573MOL0     H77341   3.403   7.016   6.663  0.5336  2.0949  0.3861
  573MOL0     H77342   3.165   6.991   6.615 -2.6724  0.3929 -0.1428
  573MOL0     H77343   2.977   6.804   6.667 -0.7430 -0.1839  0.1012
  573MOL0     H77344   2.933   6.970   6.624 -1.3469 -0.8561 -0.7940
  573MOL0     H77345   2.718   6.949   6.774  1.1959  0.5582  0.3931
  573MOL0     H77346   2.760   6.783   6.809 -0.5906 -1.3638 -1.5864
  573MOL0     H77347   2.783   6.765   6.536  2.6807  1.1300  0.4730
  573MOL0     H77348   2.689   6.915   6.546  1.5003 -0.3242 -0.3984
  573MOL0     H77349   2.520   6.722   6.523 -1.7140 -0.4110  0.5270
  573MOL0     H77350   2.588   6.653   6.671  2.5779 -0.0442  1.4212
  573MOL0     H77351   2.342   6.943   6.824  1.4947 -0.5961  1.3779
  573MOL0     H77352   3.082   6.973   7.027 -0.9487 -0.5343 -1.4733
  573MOL0     H77353   3.330   6.875   7.162 -1.3531 -0.1756 -2.0868
  573MOL0     H77354   3.446   7.016   7.143  0.1234 -0.2562  0.2774
  573MOL0     H77355   3.280   7.040   7.199 -3.1449 -1.3419 -0.6069
  574MOL0     O77356   2.036   0.823   5.865 -0.3146 -0.3158 -0.3212
  574MOL0     C77357   1.996   0.733   5.941 -0.7511 -0.0124 -0.7641
  574MOL0     O77358   2.073   0.659   6.034  0.4490 -0.8901 -0.5412
  574MOL0     C77359   2.195   0.712   6.070 -0.0062 -0.1200  0.6483
  574MOL0     C77360   2.216   0.779   6.192  0.2168  0.1358  0.0816
  574MOL0     C77361   2.345   0.832   6.216 -0.3222  0.2349  0.2090
  574MOL0     C77362   2.456   0.805   6.135 -0.8939 -0.7076  0.1620
  574MOL0     O77363   2.584   0.859   6.152  0.4380 -1.1747 -0.4610
  574MOL0     C77364   2.620   0.874   6.286  0.2950 -0.4112  0.3997
  574MOL0     C77365   2.776   0.882   6.300 -0.3115 -0.0514  0.3777
  574MOL0     C77366   2.836   0.740   6.318  0.1127  0.7664  0.2333
  574MOL0     C77367   2.986   0.755   6.332  0.8936 -0.2438  0.0484
  574MOL0     C77368   3.040   0.613   6.334 -1.2825 -0.5531 -0.8570
  574MOL0     C77369   3.197   0.632   6.312  0.0141 -0.1423  0.1225
  574MOL0     C77370   3.278   0.508   6.278  0.5093 -0.2852 -0.0044
  574MOL0     C77371   3.423   0.540   6.233  0.3501  0.3554  0.4648
  574MOL0     N77372   3.514   0.561   6.348 -0.0664  0.4505  0.1029
  574MOL0     C77373   3.599   0.470   6.411 -0.1799 -0.3527 -0.6285
  574MOL0     C77374   3.674   0.543   6.496 -1.1229 -0.8102  0.6004
  574MOL0     C77375   3.785   0.496   6.589  0.2828 -0.0592 -0.5688
  574MOL0     C77376   3.913   0.464   6.517  0.2399  0.4031  0.2739
  574MOL0     C77377   4.000   0.392   6.630  0.8178  0.1856 -0.0613
  574MOL0     C77378   4.147   0.379   6.598 -0.0876  0.6057  0.0919
  574MOL0     O77379   4.206   0.281   6.679 -0.1595  0.4316  0.6809
  574MOL0     C77380   4.344   0.269   6.695 -0.1063 -0.0330  0.1853
  574MOL0     C77381   4.436   0.320   6.611 -0.1335  0.4889  0.3459
  574MOL0     C77382   4.569   0.288   6.625  0.4619  0.7534  0.5240
  574MOL0     C77383   4.618   0.201   6.722  0.1386 -0.0238 -0.5034
  574MOL0     C77384   4.760   0.173   6.736  0.2581 -1.0385 -0.0834
  574MOL0     O77385   4.858   0.199   6.637  0.4715 -0.3234  0.1027
  574MOL0     C77386   4.987   0.169   6.655 -0.3727  0.1776  0.1360
  574MOL0     C77387   5.077   0.268   6.610  0.8049 -0.1300 -0.4135
  574MOL0     C77388   5.210   0.245   6.611  0.2017  0.5641  0.0435
  574MOL0     C77389   5.259   0.126   6.667  0.2181 -0.2522 -0.3901
  574MOL0     O77390   5.390   0.097   6.671  0.4614  0.0869 -0.3074
  574MOL0     C77391   5.477   0.159   6.574  0.4156 -0.2410  0.3245
  574MOL0     C77392   5.440   0.120   6.439 -0.3115  0.2603 -0.0530
  574MOL0     C77393   5.546   0.154   6.338 -0.0749  0.0742  0.2269
  574MOL0     C77394   5.496   0.124   6.206 -0.0939  0.3349 -0.6512
  574MOL0     C77395   5.595   0.142   6.096 -0.0675 -0.3483 -0.0570
  574MOL0     C77396   5.670   0.280   6.089  0.1697  0.2334  0.6323
  574MOL0     C77397   5.772   0.284   5.971 -0.3653  0.2294  1.1671
  574MOL0     C77398   5.861   0.406   5.957 -0.0862 -0.3868  0.9124
  574MOL0    Cl77399   5.972   0.425   6.105 -0.4499 -0.2414 -0.0321
  574MOL0     C77400   5.173   0.026   6.716 -0.7389  0.0137 -0.1941
  574MOL0     C77401   5.039   0.050   6.708  0.3904 -0.0580 -0.6635
  574MOL0     O77402   4.782   0.136   6.857 -0.6812  0.1615 -0.1567
  574MOL0     C77403   4.523   0.144   6.810  0.2733 -0.4272 -1.4823
  574MOL0     C77404   4.387   0.187   6.798 -0.0427  0.2555 -0.0332
  574MOL0     N77405   3.634   0.670   6.488  0.2703 -0.3577 -0.4333
  574MOL0     N77406   3.534   0.685   6.399 -0.1885 -0.1835 -0.2800
  574MOL0     C77407   2.423   0.751   6.012 -0.0856 -0.1556 -0.3048
  574MOL0     C77408   2.298   0.710   5.977  0.0681  0.9732  0.2498
  574MOL0     C77409   1.853   0.701   5.947 -1.3147 -0.2643 -0.8755
  574MOL0     C77410   1.821   0.572   5.912  0.2943 -0.3597 -0.1341
  574MOL0     C77411   1.687   0.535   5.922  1.2473  0.3367  0.6086
  574MOL0     C77412   1.586   0.623   5.965 -0.0367 -0.7002 -0.2769
  574MOL0     O77413   1.455   0.579   5.972 -0.2842  0.0077  0.5537
  574MOL0     C77414   1.346   0.660   6.022 -0.1691  0.1465  0.0849
  574MOL0     C77415   1.206   0.595   6.024 -0.1306 -0.4275 -0.0142
  574MOL0     C77416   1.099   0.665   6.116 -0.2752 -0.2778 -0.3939
  574MOL0     C77417   0.962   0.599   6.125  0.3301 -0.5045  0.1760
  574MOL0     C77418   0.876   0.672   6.225 -0.5108 -0.7824  0.3986
  574MOL0     C77419   0.802   0.725   6.305 -0.4340 -0.4569 -0.1557
  574MOL0     C77420   1.622   0.754   5.991  0.3318  0.4410  0.4031
  574MOL0     C77421   1.760   0.795   5.975  0.5683 -0.2005  0.3256
  574MOL0     C77422   1.792   0.931   6.032 -0.7028 -0.7632 -0.7796
  574MOL0     H77423   2.135   0.790   6.264  0.4142  0.0102  0.3220
  574MOL0     H77424   2.358   0.889   6.307 -0.9519  3.0214 -1.3122
  574MOL0     H77425   2.580   0.965   6.331  2.2677  0.7385 -0.0341
  574MOL0     H77426   2.592   0.786   6.345 -1.8135  0.9985  1.6184
  574MOL0     H77427   2.804   0.959   6.372 -1.8033  0.9796 -0.1118
  574MOL0     H77428   2.822   0.919   6.208  1.2978 -3.6625 -0.4553
  574MOL0     H77429   2.807   0.672   6.237  0.2171 -2.4145  2.6572
  574MOL0     H77430   2.795   0.694   6.409  1.6203  0.5477  0.8299
  574MOL0     H77431   3.017   0.805   6.240 -0.1054 -3.2641 -2.0637
  574MOL0     H77432   3.014   0.811   6.422  0.6297  0.0794 -0.0667
  574MOL0     H77433   3.026   0.554   6.425  0.8180 -0.3186 -0.3242
  574MOL0     H77434   3.004   0.546   6.255  0.7862 -0.4462 -1.9694
  574MOL0     H77435   3.226   0.708   6.239  2.0651 -0.5097  0.5146
  574MOL0     H77436   3.236   0.677   6.403 -0.1981 -1.1674  0.7390
  574MOL0     H77437   3.221   0.471   6.192 -1.0799  1.4355  0.2252
  574MOL0     H77438   3.282   0.435   6.359  1.3849  0.4914  0.6764
  574MOL0     H77439   3.442   0.455   6.168 -1.9765 -0.9800  1.4295
  574MOL0     H77440   3.416   0.632   6.174 -0.8631  0.3609  0.5990
  574MOL0     H77441   3.602   0.362   6.403 -2.6921 -0.8061  2.3449
  574MOL0     H77442   3.804   0.572   6.665 -1.2849  0.1637 -0.3647
  574MOL0     H77443   3.755   0.408   6.649  1.2615 -1.1241 -1.5934
  574MOL0     H77444   3.913   0.382   6.445 -0.5651  0.0723  0.6379
  574MOL0     H77445   3.962   0.555   6.481 -0.2342  0.4726 -0.2121
  574MOL0     H77446   3.960   0.295   6.663 -1.8659  1.5324  0.9733
  574MOL0     H77447   3.990   0.458   6.716  2.7338 -0.6580  0.8732
  574MOL0     H77448   4.185   0.477   6.630  0.2611  0.0077  1.5931
  574MOL0     H77449   4.153   0.357   6.491  1.2547  2.9897 -0.3905
  574MOL0     H77450   4.400   0.374   6.524  0.5815 -0.1330 -0.3460
  574MOL0     H77451   4.638   0.332   6.553  0.3334 -1.2596 -0.9157
  574MOL0     H77452   5.061   0.370   6.576  0.2146  0.5795  1.8709
  574MOL0     H77453   5.278   0.317   6.566 -0.4078  1.0459 -0.1199
  574MOL0     H77454   5.482   0.268   6.585  2.6944 -0.1109 -1.2739
  574MOL0     H77455   5.574   0.121   6.610 -0.7578 -1.1368  2.7926
  574MOL0     H77456   5.412   0.014   6.444  1.1742 -0.1070  1.0107
  574MOL0     H77457   5.351   0.174   6.405  0.0723  0.5387 -0.6330
  574MOL0     H77458   5.561   0.263   6.343 -1.5896  0.4065 -1.5134
  574MOL0     H77459   5.634   0.095   6.365  2.8088  3.5441 -0.7121
  574MOL0     H77460   5.422   0.200   6.179 -1.2909 -1.0034 -1.2846
  574MOL0     H77461   5.457   0.022   6.213  1.4267 -0.2384 -0.1817
  574MOL0     H77462   5.553   0.130   5.996 -0.8636  1.1756  0.0603
  574MOL0     H77463   5.666   0.060   6.108 -0.3529 -1.2389 -3.6510
  574MOL0     H77464   5.589   0.354   6.086 -0.9141 -0.9400 -0.6842
  574MOL0     H77465   5.734   0.289   6.177  0.4457  3.5904  0.2082
  574MOL0     H77466   5.718   0.258   5.880 -2.2938 -1.3129  2.6708
  574MOL0     H77467   5.832   0.196   5.993 -2.5557 -1.5941  0.2235
  574MOL0     H77468   5.920   0.400   5.865 -1.7913  0.7215 -0.2954
  574MOL0     H77469   5.794   0.491   5.941  0.6190  0.0830  0.3906
  574MOL0     H77470   5.218  -0.049   6.781 -0.9691  2.7354  3.4215
  574MOL0     H77471   4.975  -0.024   6.755 -3.2108  2.7008 -0.7006
  574MOL0     H77472   4.548   0.083   6.896  0.5596  1.6109 -0.0480
  574MOL0     H77473   4.325   0.144   6.876  0.9530 -1.5668 -0.1945
  574MOL0     H77474   2.502   0.733   5.939 -1.1949  0.8910 -1.8007
  574MOL0     H77475   2.263   0.675   5.880 -2.7376  0.1459  1.4465
  574MOL0     H77476   1.899   0.500   5.892  2.3492  1.3227  1.3752
  574MOL0     H77477   1.657   0.432   5.904 -1.4317  1.1983 -0.3476
  574MOL0     H77478   1.327   0.749   5.961 -1.8186 -0.3615 -0.2184
  574MOL0     H77479   1.365   0.704   6.120  0.7833  1.1141 -0.5210
  574MOL0     H77480   1.229   0.492   6.054  0.9668  0.4597  2.4788
  574MOL0     H77481   1.169   0.607   5.922  0.0399  1.3813  0.1038
  574MOL0     H77482   1.091   0.764   6.069  1.6886  0.2219  0.2147
  574MOL0     H77483   1.149   0.666   6.213 -1.1957 -3.4234  0.1936
  574MOL0     H77484   0.911   0.594   6.029  0.3698  2.1187 -0.0337
  574MOL0     H77485   0.975   0.496   6.159  0.7512 -0.8763 -1.0435
  574MOL0     H77486   0.745   0.764   6.387 -1.9124  0.3001 -1.5024
  574MOL0     H77487   1.542   0.822   6.015  0.7588  1.2559 -0.4171
  574MOL0     H77488   1.715   0.974   6.096  0.4099  0.5462 -0.2855
  574MOL0     H77489   1.887   0.928   6.087 -1.7383  0.2652  1.1403
  574MOL0     H77490   1.804   0.995   5.945  2.1217 -2.4939 -1.8061
  575MOL0     O77491   1.194   3.891   1.193  0.0727 -0.1099  0.1968
  575MOL0     C77492   1.159   3.841   1.301 -0.1717 -0.4269 -0.4123
  575MOL0     O77493   1.247   3.791   1.391  0.5802 -0.2070  0.0101
  575MOL0     C77494   1.373   3.787   1.346 -0.2006 -0.5625  0.6100
  575MOL0     C77495   1.461   3.876   1.399 -0.4964 -0.1107 -0.1081
  575MOL0     C77496   1.592   3.886   1.341  0.2457  0.6973 -0.0941
  575MOL0     C77497   1.633   3.785   1.253 -0.4885 -0.1864 -0.7947
  575MOL0     O77498   1.757   3.777   1.200  0.1603 -0.6475 -0.2388
  575MOL0     C77499   1.869   3.812   1.294  0.1642  0.2960 -0.5156
  575MOL0     C77500   1.996   3.790   1.217  0.2759  0.5868 -0.3655
  575MOL0     C77501   2.131   3.834   1.269  0.7832  1.0431  0.2023
  575MOL0     C77502   2.234   3.841   1.157 -0.0769  0.6758  0.0943
  575MOL0     C77503   2.373   3.826   1.216 -0.0676  0.8812  0.9866
  575MOL0     C77504   2.478   3.882   1.119  0.6306  0.1032  0.2256
  575MOL0     C77505   2.607   3.879   1.186 -0.3072 -0.2405  0.5638
  575MOL0     C77506   2.716   3.898   1.082 -0.5369  0.1587 -0.0956
  575MOL0     N77507   2.853   3.884   1.141  0.3150  0.1774  0.4515
  575MOL0     C77508   2.913   3.771   1.190  1.7783  0.4737  0.5121
  575MOL0     C77509   3.042   3.789   1.169  0.1856  0.6424 -1.3117
  575MOL0     C77510   3.152   3.689   1.190  0.4533  0.5130  0.9020
  575MOL0     C77511   3.185   3.619   1.059  0.1863  0.1595  0.6470
  575MOL0     C77512   3.239   3.482   1.083  0.5295  1.1324  0.3944
  575MOL0     C77513   3.291   3.393   0.965 -0.2138  0.0509  0.1541
  575MOL0     O77514   3.335   3.264   1.013 -0.0787  0.2943  0.0878
  575MOL0     C77515   3.366   3.155   0.935 -0.1682  0.6898 -0.4687
  575MOL0     C77516   3.369   3.162   0.792  0.1680  0.1223 -0.1710
  575MOL0     C77517   3.423   3.061   0.713 -0.8435 -0.1592  0.2210
  575MOL0     C77518   3.477   2.946   0.780  0.3938  0.1091  0.3882
  575MOL0     C77519   3.552   2.856   0.697 -0.5051  0.4721  0.0245
  575MOL0     O77520   3.591   2.900   0.572  0.2092 -0.3205 -0.6525
  575MOL0     C77521   3.677   2.813   0.504  1.0425  0.1166 -0.0632
  575MOL0     C77522   3.793   2.768   0.550  0.0782  0.2617 -0.4277
  575MOL0     C77523   3.881   2.697   0.461 -0.1410  0.2025  0.3971
  575MOL0     C77524   3.845   2.664   0.334 -0.6360 -0.4186  0.3430
  575MOL0     O77525   3.927   2.591   0.251  0.0388  0.3777  0.4518
  575MOL0     C77526   4.059   2.633   0.236 -0.3266 -0.5123 -0.2803
  575MOL0     C77527   4.073   2.747   0.136 -0.7891  0.4022 -0.2188
  575MOL0     C77528   4.055   2.693  -0.004  0.5461  0.1649  0.1662
  575MOL0     C77529   4.037   2.807  -0.119  0.5830  0.2574  0.0215
  575MOL0     C77530   4.013   2.741  -0.257 -0.0370  0.0727 -0.7470
  575MOL0     C77531   3.873   2.688  -0.277  0.1131 -0.3941  0.2588
  575MOL0     C77532   3.865   2.597  -0.398  0.5874  0.2242 -0.0368
  575MOL0     C77533   3.713   2.554  -0.417 -0.3278  0.0123  0.4131
  575MOL0    Cl77534   3.663   2.432  -0.293  0.2851  0.6000 -0.1757
  575MOL0     C77535   3.715   2.701   0.289  0.3089 -0.4231  0.4614
  575MOL0     C77536   3.632   2.775   0.379 -0.1600 -0.4896 -0.1668
  575MOL0     O77537   3.578   2.739   0.738  0.0655  0.0001 -0.2995
  575MOL0     C77538   3.469   2.931   0.924  0.3534  0.4782  0.4219
  575MOL0     C77539   3.411   3.038   0.999 -0.6315 -0.3045  0.2561
  575MOL0     N77540   3.062   3.921   1.136 -0.7644  0.0609  0.1358
  575MOL0     N77541   2.951   3.974   1.120  0.2282  0.0019  0.3736
  575MOL0     C77542   1.546   3.692   1.208  0.2552 -0.0459 -0.7389
  575MOL0     C77543   1.415   3.696   1.246 -0.8768 -0.0598  0.1026
  575MOL0     C77544   1.004   3.833   1.330 -0.2826 -0.2627 -0.2406
  575MOL0     C77545   0.968   3.729   1.415 -0.8733  0.2613 -0.4857
  575MOL0     C77546   0.832   3.701   1.439  0.2459 -0.0708  0.6203
  575MOL0     C77547   0.736   3.790   1.383  0.0674 -0.3208 -0.3459
  575MOL0     O77548   0.605   3.758   1.418  0.0997  0.0328 -0.0128
  575MOL0     C77549   0.505   3.852   1.385  0.2601  0.2123  0.1681
  575MOL0     C77550   0.370   3.800   1.453 -0.6267  0.1789 -1.0855
  575MOL0     C77551   0.369   3.830   1.606 -1.2116  0.2233  0.8061
  575MOL0     C77552   0.244   3.906   1.645  0.1100 -0.1031 -0.4745
  575MOL0     C77553   0.122   3.827   1.642  0.2511 -0.3559 -0.4386
  575MOL0     C77554   0.015   3.768   1.641 -0.2446  0.4261 -0.1932
  575MOL0     C77555   0.771   3.895   1.301 -0.5246  0.6447  0.1387
  575MOL0     C77556   0.906   3.921   1.281 -0.4678  0.2445  1.1083
  575MOL0     C77557   0.934   4.041   1.194 -0.5601 -0.8527  0.4556
  575MOL0     H77558   1.430   3.943   1.479  0.0974  1.7705 -1.3763
  575MOL0     H77559   1.661   3.962   1.375  0.5687 -0.2656  1.5244
  575MOL0     H77560   1.871   3.916   1.331 -0.0499 -0.9297  3.4430
  575MOL0     H77561   1.876   3.758   1.389 -0.6651  0.0093 -0.6177
  575MOL0     H77562   1.976   3.840   1.122 -0.3281  2.0066  0.4688
  575MOL0     H77563   1.997   3.681   1.205 -2.8888  0.5129 -0.8985
  575MOL0     H77564   2.167   3.771   1.351  1.9569  0.8098 -0.4736
  575MOL0     H77565   2.110   3.933   1.309 -1.6117  0.4510  0.5938
  575MOL0     H77566   2.215   3.758   1.089 -0.6225  0.9767 -0.1294
  575MOL0     H77567   2.226   3.937   1.105 -1.2544  0.5874  0.0836
  575MOL0     H77568   2.379   3.879   1.311 -2.5534  1.0921  1.0862
  575MOL0     H77569   2.381   3.718   1.233 -0.9722  1.0381  2.5798
  575MOL0     H77570   2.480   3.827   1.024  2.0712  2.1765 -1.0343
  575MOL0     H77571   2.443   3.984   1.098  0.6864  1.0591  4.1516
  575MOL0     H77572   2.630   3.791   1.246  1.8999 -0.1647 -0.0909
  575MOL0     H77573   2.606   3.958   1.261  0.7475  1.0028 -0.6799
  575MOL0     H77574   2.712   3.813   1.013  0.9287 -0.3258  0.3766
  575MOL0     H77575   2.698   3.994   1.033 -0.7206  0.9005  1.3962
  575MOL0     H77576   2.874   3.677   1.227  1.3932  0.8801  1.1556
  575MOL0     H77577   3.239   3.747   1.221 -1.0834  5.0819 -2.2359
  575MOL0     H77578   3.113   3.614   1.260  1.7733 -1.0325  0.0716
  575MOL0     H77579   3.098   3.624   0.992  1.4143  1.6710 -0.9541
  575MOL0     H77580   3.267   3.674   1.010 -1.1382 -0.3806 -2.4033
  575MOL0     H77581   3.165   3.420   1.135  1.2305  0.5658  0.7400
  575MOL0     H77582   3.330   3.483   1.143  0.2116  0.5054  0.9053
  575MOL0     H77583   3.374   3.446   0.917  0.1232 -0.6899 -0.0915
  575MOL0     H77584   3.215   3.388   0.887  1.5090  1.9992 -1.7764
  575MOL0     H77585   3.344   3.257   0.748  3.1823  1.6312  1.0646
  575MOL0     H77586   3.430   3.086   0.608  1.1889  2.3665  0.8677
  575MOL0     H77587   3.828   2.809   0.645 -2.5977 -0.4878  0.9820
  575MOL0     H77588   3.979   2.669   0.500  0.9307  0.0359 -2.2020
  575MOL0     H77589   4.108   2.669   0.327 -0.9638  1.5540 -0.6831
  575MOL0     H77590   4.111   2.544   0.201  1.0227 -0.0512  0.4621
  575MOL0     H77591   3.994   2.814   0.168  0.5311  1.5261  0.8051
  575MOL0     H77592   4.170   2.797   0.137 -0.5759 -0.0102 -0.0657
  575MOL0     H77593   4.132   2.617  -0.019  1.1803  1.0517 -1.3219
  575MOL0     H77594   3.960   2.639   0.002  1.4648 -1.3609  2.2045
  575MOL0     H77595   4.127   2.868  -0.121  0.1430  0.8873 -1.7099
  575MOL0     H77596   3.960   2.879  -0.090 -1.1000 -1.9625  1.4277
  575MOL0     H77597   4.089   2.662  -0.263  0.0543  0.1992 -1.3656
  575MOL0     H77598   4.044   2.806  -0.340  3.4122 -1.9453 -1.2591
  575MOL0     H77599   3.836   2.635  -0.188  0.2387 -2.0015 -0.6062
  575MOL0     H77600   3.806   2.774  -0.284 -0.3044 -0.6355  1.1617
  575MOL0     H77601   3.914   2.504  -0.368 -1.7204 -1.2974 -0.7580
  575MOL0     H77602   3.911   2.650  -0.482 -0.8547  0.9951 -0.3763
  575MOL0     H77603   3.649   2.643  -0.408  0.3098  0.4749  0.4789
  575MOL0     H77604   3.695   2.511  -0.516 -2.0939  1.6841 -0.0557
  575MOL0     H77605   3.687   2.678   0.187  3.8348  0.1360 -0.7768
  575MOL0     H77606   3.535   2.821   0.363  1.2377  1.8756 -2.4965
  575MOL0     H77607   3.501   2.843   0.979 -2.2085 -1.3208 -0.7438
  575MOL0     H77608   3.393   3.043   1.106 -1.5024  0.6573  0.0773
  575MOL0     H77609   1.567   3.613   1.136 -1.0967  0.9448 -2.2903
  575MOL0     H77610   1.348   3.613   1.226 -2.0458 -0.2651  3.9913
  575MOL0     H77611   1.053   3.677   1.459 -0.2234  2.3595  0.8523
  575MOL0     H77612   0.816   3.625   1.515  2.7782 -1.5810 -0.2252
  575MOL0     H77613   0.499   3.865   1.277  0.7330 -2.2581 -0.2130
  575MOL0     H77614   0.534   3.948   1.427 -2.7455  0.3760  2.2191
  575MOL0     H77615   0.351   3.692   1.447  2.1084 -0.3023 -4.5692
  575MOL0     H77616   0.282   3.846   1.407 -1.1722  2.7024  2.1453
  575MOL0     H77617   0.454   3.891   1.640 -2.3827  2.0194  0.6605
  575MOL0     H77618   0.384   3.731   1.651  0.5323  1.4566  3.1996
  575MOL0     H77619   0.259   3.949   1.745 -0.4758 -1.9941  0.4678
  575MOL0     H77620   0.227   3.995   1.583  0.1949 -0.1762 -0.6000
  575MOL0     H77621  -0.081   3.720   1.642  0.6049 -1.4740 -1.6120
  575MOL0     H77622   0.697   3.963   1.258 -1.5374  0.1030  0.9622
  575MOL0     H77623   1.026   4.084   1.233 -0.1045 -1.9956  0.6608
  575MOL0     H77624   0.946   3.997   1.094 -0.0666 -1.3457  0.7308
  575MOL0     H77625   0.858   4.118   1.208 -1.3743 -1.2937 -1.1757
  576MOL0     O77626   2.162   4.623   9.540  0.2202 -0.0399  0.1840
  576MOL0     C77627   2.270   4.562   9.533  0.1055  0.7090  0.9148
  576MOL0     O77628   2.381   4.590   9.609  0.0406 -0.0016  0.3700
  576MOL0     C77629   2.371   4.698   9.699 -0.1498 -0.0119 -0.6293
  576MOL0     C77630   2.405   4.682   9.835 -0.2950  0.3688 -0.1313
  576MOL0     C77631   2.404   4.782   9.929  0.0757 -0.1074 -0.7890
  576MOL0     C77632   2.351   4.909   9.883 -0.2847 -0.1446  0.0383
  576MOL0     O77633   2.327   5.016   9.970 -0.5543 -0.2193 -0.2528
  576MOL0     C77634   2.365   5.144   9.927  0.1533  0.4430  0.5238
  576MOL0     C77635   2.413   5.232  10.043  0.8627  0.0254 -0.0241
  576MOL0     C77636   2.546   5.177  10.100 -0.3637  0.2560 -0.2245
  576MOL0     C77637   2.610   5.261  10.215 -0.6429  0.2825 -0.5418
  576MOL0     C77638   2.761   5.221  10.241  0.9543  0.8072  0.2544
  576MOL0     C77639   2.816   5.295  10.372  0.6423 -0.7176  0.0161
  576MOL0     C77640   2.957   5.249  10.404 -0.1129 -0.1758 -0.7105
  576MOL0     C77641   3.067   5.304  10.309 -0.1277  0.1891  0.9499
  576MOL0     N77642   3.202   5.265  10.346 -0.4624  1.0877 -0.4634
  576MOL0     C77643   3.243   5.143  10.396  0.2317 -0.5981 -0.4808
  576MOL0     C77644   3.374   5.130  10.355 -0.2969  0.1516 -0.3452
  576MOL0     C77645   3.472   5.017  10.379  0.5437 -0.3151 -0.1441
  576MOL0     C77646   3.598   5.031  10.299  0.3369 -0.3131  0.3378
  576MOL0     C77647   3.591   5.041  10.143  0.0558  0.1727 -0.4730
  576MOL0     C77648   3.721   5.018  10.072  0.1400 -0.4596 -0.6346
  576MOL0     O77649   3.825   5.103  10.119 -0.0736  0.4244 -0.0444
  576MOL0     C77650   3.943   5.104  10.051  0.3919  0.4076  0.0602
  576MOL0     C77651   4.012   4.978  10.040 -0.0664 -0.0972 -0.0294
  576MOL0     C77652   4.142   4.971   9.984  0.3080  0.7505  0.4911
  576MOL0     C77653   4.200   5.091   9.946  0.4831  0.4658 -0.3512
  576MOL0     C77654   4.342   5.084   9.908  0.5602 -1.0574 -0.4855
  576MOL0     O77655   4.412   5.200   9.931  0.2506  0.0624 -0.5012
  576MOL0     C77656   4.524   5.219   9.865 -0.7797  0.3309  0.3645
  576MOL0     C77657   4.651   5.202   9.926  0.1900  0.7686  0.6526
  576MOL0     C77658   4.762   5.235   9.848 -0.2496 -0.2848 -0.3449
  576MOL0     C77659   4.752   5.290   9.717  0.1651  0.0117 -0.5585
  576MOL0     O77660   4.862   5.307   9.629  0.5190 -0.1141  0.2257
  576MOL0     C77661   4.961   5.389   9.685  0.1599 -1.3326 -0.7495
  576MOL0     C77662   5.043   5.455   9.564 -0.9012  0.3351 -0.7125
  576MOL0     C77663   5.103   5.347   9.472 -0.2147  0.7163  0.0604
  576MOL0     C77664   5.209   5.407   9.381  0.5150  0.0854  0.1143
  576MOL0     C77665   5.267   5.295   9.296  0.1262  0.3170 -0.7342
  576MOL0     C77666   5.364   5.350   9.187  0.5548  0.2774  0.5707
  576MOL0     C77667   5.391   5.245   9.076 -0.4941  0.0483 -0.5592
  576MOL0     C77668   5.524   5.182   9.108  0.7262 -0.4029  0.3574
  576MOL0    Cl77669   5.670   5.294   9.093  0.1694 -0.1015  0.0116
  576MOL0     C77670   4.625   5.297   9.660 -0.7286  0.4457  0.2151
  576MOL0     C77671   4.509   5.268   9.733 -0.7747  0.5719 -0.1542
  576MOL0     O77672   4.394   4.978   9.871  0.2690 -0.2058 -0.4224
  576MOL0     C77673   4.129   5.213   9.952  0.1540 -0.4582  0.4533
  576MOL0     C77674   3.999   5.216  10.000  0.0020 -0.9769  0.0098
  576MOL0     N77675   3.418   5.250  10.309  0.0558 -0.1643 -0.2875
  576MOL0     N77676   3.314   5.332  10.310 -0.2104  0.0821 -0.3210
  576MOL0     C77677   2.317   4.930   9.747 -1.0671 -0.4250 -0.0170
  576MOL0     C77678   2.321   4.822   9.654 -0.4071 -0.6096 -0.4190
  576MOL0     C77679   2.250   4.440   9.440 -0.9944 -0.7104 -0.2142
  576MOL0     C77680   2.148   4.433   9.342 -0.9415 -0.9010 -1.0206
  576MOL0     C77681   2.129   4.326   9.272 -0.4484  1.0387 -0.0884
  576MOL0     C77682   2.212   4.211   9.275 -0.5488 -0.9371  1.1198
  576MOL0     O77683   2.178   4.109   9.195  0.1004  0.6875  0.2119
  576MOL0     C77684   2.278   4.025   9.132  0.2111  0.2609 -0.2914
  576MOL0     C77685   2.189   3.934   9.048 -0.5142 -0.1865  0.4274
  576MOL0     C77686   2.276   3.820   8.987  0.5745 -0.3237  0.0408
  576MOL0     C77687   2.196   3.723   8.893 -1.0147  0.5657 -0.0544
  576MOL0     C77688   2.283   3.624   8.835  0.2352  0.5128 -0.7371
  576MOL0     C77689   2.374   3.558   8.791  0.3438  0.1507  0.5365
  576MOL0     C77690   2.322   4.212   9.362  0.1896 -0.5838 -0.0485
  576MOL0     C77691   2.340   4.329   9.446  0.2208  0.0655  0.3251
  576MOL0     C77692   2.451   4.325   9.544 -0.9121 -0.2955 -0.6670
  576MOL0     H77693   2.442   4.585   9.866  0.3095  0.9766  1.0832
  576MOL0     H77694   2.439   4.769  10.031 -2.6745 -1.1940  0.1144
  576MOL0     H77695   2.439   5.143   9.846 -1.0113  2.2071 -0.6411
  576MOL0     H77696   2.271   5.192   9.897  0.8529  2.9277  1.9780
  576MOL0     H77697   2.332   5.233  10.117  0.4152 -3.2711 -0.3035
  576MOL0     H77698   2.418   5.336  10.011 -3.8425  0.1287 -1.1464
  576MOL0     H77699   2.627   5.180  10.026  0.0020  1.9438  0.1886
  576MOL0     H77700   2.524   5.073  10.125 -0.5846  0.2031 -0.6337
  576MOL0     H77701   2.616   5.370  10.200  1.1091  0.7536  2.6288
  576MOL0     H77702   2.551   5.248  10.305  1.1817 -1.1532  0.5156
  576MOL0     H77703   2.763   5.115  10.267  1.9241  0.7513 -0.0255
  576MOL0     H77704   2.824   5.238  10.153  0.5053  0.3872 -0.1519
  576MOL0     H77705   2.802   5.403  10.366  0.6866 -0.7254 -0.2387
  576MOL0     H77706   2.758   5.262  10.459 -1.7891 -1.3643 -1.7484
  576MOL0     H77707   2.960   5.139  10.411 -0.2861 -0.2269 -1.3944
  576MOL0     H77708   2.979   5.280  10.507  2.1357 -0.9650 -0.9007
  576MOL0     H77709   3.039   5.285  10.205 -3.1160  1.6787  1.3695
  576MOL0     H77710   3.062   5.412  10.323 -2.4169  0.3702 -0.7477
  576MOL0     H77711   3.181   5.064  10.438 -0.2695 -0.1772 -0.4296
  576MOL0     H77712   3.508   5.011  10.482 -1.1154  2.2586  0.6713
  576MOL0     H77713   3.424   4.923  10.350 -2.5275  1.7340 -2.2537
  576MOL0     H77714   3.649   5.120  10.336  0.9068 -0.2551 -0.5505
  576MOL0     H77715   3.657   4.942  10.326  2.0517  0.8491  0.5502
  576MOL0     H77716   3.540   5.134  10.116  1.1836  0.0378 -3.3889
  576MOL0     H77717   3.518   4.964  10.115 -2.9011  1.8154  2.0171
  576MOL0     H77718   3.702   5.044   9.968 -0.6315  0.1062 -0.3654
  576MOL0     H77719   3.740   4.911  10.090  0.2736 -0.1637  1.2732
  576MOL0     H77720   3.979   4.882  10.079  4.4058 -1.3948  1.2246
  576MOL0     H77721   4.203   4.881   9.975 -0.4928  0.1658  0.7716
  576MOL0     H77722   4.662   5.161  10.026  2.0025 -0.6217 -0.0457
  576MOL0     H77723   4.861   5.228   9.892  1.1447  0.3073 -3.1804
  576MOL0     H77724   4.921   5.476   9.737 -1.4990  0.0424 -4.0251
  576MOL0     H77725   5.020   5.325   9.751 -0.6750 -0.3992  0.9499
  576MOL0     H77726   5.001   5.544   9.517  2.2128  2.1170 -0.4292
  576MOL0     H77727   5.134   5.487   9.617 -1.5251  0.3072  0.4121
  576MOL0     H77728   5.158   5.277   9.536  2.4051  3.4749  1.1026
  576MOL0     H77729   5.024   5.291   9.422 -0.3057  0.6628  0.2627
  576MOL0     H77730   5.285   5.449   9.448  1.4294 -1.7610  0.2947
  576MOL0     H77731   5.185   5.493   9.317  0.8342 -0.6768 -1.0597
  576MOL0     H77732   5.180   5.242   9.254 -3.2820  2.0044  3.4896
  576MOL0     H77733   5.323   5.228   9.361  2.3780  2.0892 -0.7283
  576MOL0     H77734   5.324   5.436   9.133  0.1504 -1.0016 -1.2495
  576MOL0     H77735   5.454   5.391   9.233  2.2920 -1.3855 -1.1238
  576MOL0     H77736   5.407   5.300   8.982 -1.7586  4.8422  1.7029
  576MOL0     H77737   5.312   5.170   9.072 -1.3506  0.7735  1.6306
  576MOL0     H77738   5.530   5.130   9.205  0.4426 -1.2032 -0.0403
  576MOL0     H77739   5.536   5.112   9.025  0.8628  0.0718 -0.0250
  576MOL0     H77740   4.619   5.323   9.555 -1.9240 -0.9529 -0.0914
  576MOL0     H77741   4.408   5.279   9.692 -0.9339 -1.2031 -0.2903
  576MOL0     H77742   4.184   5.305   9.936 -1.7640  0.6509  0.0108
  576MOL0     H77743   3.948   5.310  10.015  2.9288  0.4749  1.5820
  576MOL0     H77744   2.295   5.029   9.708  2.0763  0.5463  0.3551
  576MOL0     H77745   2.308   4.833   9.547  0.4468  0.9950 -0.3798
  576MOL0     H77746   2.076   4.511   9.322 -1.2068 -0.9445 -0.2782
  576MOL0     H77747   2.046   4.330   9.203 -1.1696  1.3724  0.7805
  576MOL0     H77748   2.341   3.968   9.201 -0.3212  0.3916  0.3197
  576MOL0     H77749   2.349   4.077   9.068 -0.7096  1.3930 -0.4284
  576MOL0     H77750   2.153   4.001   8.969 -0.4024 -2.1139 -1.3500
  576MOL0     H77751   2.104   3.905   9.111 -3.1027  1.1139 -2.1693
  576MOL0     H77752   2.322   3.761   9.067  2.5797 -0.4929 -1.1575
  576MOL0     H77753   2.350   3.870   8.924 -0.0420  1.1859  0.4546
  576MOL0     H77754   2.113   3.674   8.945  1.4789 -1.7296  2.0284
  576MOL0     H77755   2.152   3.785   8.814 -0.7915  2.1071  0.9859
  576MOL0     H77756   2.455   3.499   8.753  0.9366  0.4972  1.2331
  576MOL0     H77757   2.390   4.128   9.369 -1.8798 -2.3538 -0.0216
  576MOL0     H77758   2.436   4.326   9.653  0.6437 -0.8807 -0.4321
  576MOL0     H77759   2.511   4.235   9.533 -0.3840  0.0230 -0.4347
  576MOL0     H77760   2.522   4.406   9.526 -1.6610  1.2500  2.5988
  577MOL0     O77761   0.973  10.644  10.392  0.1955 -0.0633 -0.1801
  577MOL0     C77762   0.895  10.717  10.459 -0.6974  0.0321 -0.3619
  577MOL0     O77763   0.924  10.765  10.584 -0.4262 -0.3506  0.0717
  577MOL0     C77764   1.013  10.701  10.665  0.8245 -0.2563  0.3414
  577MOL0     C77765   0.958  10.597  10.744  0.4687 -0.2996 -0.0776
  577MOL0     C77766   1.038  10.519  10.826  0.7858  0.6315 -0.0909
  577MOL0     C77767   1.180  10.537  10.825 -1.3028 -0.4299  0.7158
  577MOL0     O77768   1.260  10.460  10.898 -0.7693 -0.7715 -0.0317
  577MOL0     C77769   1.386  10.411  10.842 -0.2066 -0.6392 -0.3119
  577MOL0     C77770   1.447  10.296  10.924  0.1824 -0.5364  0.2828
  577MOL0     C77771   1.561  10.235  10.835 -0.5091  0.5858  0.6646
  577MOL0     C77772   1.574  10.087  10.885 -0.3603 -0.2213  0.3685
  577MOL0     C77773   1.690  10.015  10.816  0.0523 -0.1532 -0.0916
  577MOL0     C77774   1.702   9.870  10.844  0.1910  0.1056 -0.6623
  577MOL0     C77775   1.818   9.811  10.774 -0.1871  1.2237  0.6843
  577MOL0     C77776   1.807   9.658  10.773  0.0024  1.0357  0.1612
  577MOL0     N77777   1.941   9.596  10.737  0.7979 -0.7173 -0.8548
  577MOL0     C77778   1.986   9.485  10.797  0.3994  0.2600 -0.7820
  577MOL0     C77779   2.117   9.466  10.748  0.5495 -0.6307  0.3296
  577MOL0     C77780   2.200   9.349  10.761  0.1535  0.1104 -0.2839
  577MOL0     C77781   2.325   9.387  10.833 -0.5130  0.2210  0.1027
  577MOL0     C77782   2.436   9.454  10.746  0.7688 -0.1240 -0.1221
  577MOL0     C77783   2.500   9.354  10.649 -0.1777 -0.2621  0.3764
  577MOL0     O77784   2.567   9.249  10.723 -0.0355  0.2466  0.4019
  577MOL0     C77785   2.706   9.249  10.716  0.3309 -0.4637 -0.2986
  577MOL0     C77786   2.792   9.254  10.824  0.0462  0.5322 -1.4180
  577MOL0     C77787   2.930   9.247  10.824  0.1331  0.1744  0.0932
  577MOL0     C77788   2.986   9.226  10.697 -0.2562 -0.5307  0.2097
  577MOL0     C77789   3.132   9.224  10.684 -0.5255 -0.0916 -0.1083
  577MOL0     O77790   3.207   9.260  10.797 -0.7101  0.6661  0.6953
  577MOL0     C77791   3.342   9.266  10.771 -0.3342 -0.0134  0.4716
  577MOL0     C77792   3.395   9.353  10.673  0.5058 -0.3853  0.5400
  577MOL0     C77793   3.530   9.359  10.643 -0.6653  0.2440 -0.5724
  577MOL0     C77794   3.626   9.284  10.723 -0.1349 -0.0183  1.3265
  577MOL0     O77795   3.759   9.308  10.690 -0.1196  0.1587  0.6401
  577MOL0     C77796   3.848   9.293  10.802 -0.3543  0.8546  0.2080
  577MOL0     C77797   3.924   9.154  10.796 -0.8732 -0.7866  0.5449
  577MOL0     C77798   4.014   9.137  10.672  0.5093  0.0990 -0.3037
  577MOL0     C77799   4.141   9.068  10.727  0.4099 -0.3127  0.1457
  577MOL0     C77800   4.257   9.055  10.628  0.6027 -0.3141 -0.0989
  577MOL0     C77801   4.322   9.190  10.593 -0.9889  1.0624 -0.2067
  577MOL0     C77802   4.483   9.196  10.573 -0.2313  0.8542 -0.9864
  577MOL0     C77803   4.524   9.334  10.529 -0.0439  0.2054  0.5472
  577MOL0    Cl77804   4.694   9.350  10.480 -0.0073 -0.2929  0.1742
  577MOL0     C77805   3.572   9.197  10.819  0.3095 -0.0092 -0.8883
  577MOL0     C77806   3.434   9.196  10.852 -0.4765  0.0834  0.1601
  577MOL0     O77807   3.176   9.201  10.575  0.0299  0.4111 -0.4181
  577MOL0     C77808   2.905   9.209  10.584  0.2780  0.1538 -1.3095
  577MOL0     C77809   2.764   9.221  10.592  0.9908 -0.4983  0.2600
  577MOL0     N77810   2.133   9.570  10.654 -0.0561 -0.1024  0.5536
  577MOL0     N77811   2.034   9.645  10.649  0.5489 -0.1413  0.4282
  577MOL0     C77812   1.230  10.649  10.760  0.2028 -0.3795 -0.1452
  577MOL0     C77813   1.149  10.734  10.680 -0.1585 -0.3029 -0.4876
  577MOL0     C77814   0.762  10.758  10.412  0.3303 -0.2697 -0.4069
  577MOL0     C77815   0.658  10.791  10.506 -0.4659 -0.4200  0.8387
  577MOL0     C77816   0.541  10.846  10.462  0.5832 -0.0687  0.3410
  577MOL0     C77817   0.504  10.854  10.324  0.1737  0.5129  0.9354
  577MOL0     O77818   0.383  10.911  10.301 -0.0616  0.3087 -0.4758
  577MOL0     C77819   0.329  10.909  10.166  0.0594 -0.2088 -0.2900
  577MOL0     C77820   0.191  10.968  10.156  0.8494 -0.2177 -0.6066
  577MOL0     C77821   0.094  10.889  10.244  0.8999  0.2033  0.8104
  577MOL0     C77822  -0.014  10.968  10.327 -0.1555  0.9950 -0.3455
  577MOL0     C77823  -0.089  11.059  10.241  0.2655  0.0896 -0.0991
  577MOL0     C77824  -0.150  11.151  10.175  1.1062  0.3540 -0.4362
  577MOL0     C77825   0.600  10.817  10.237  1.0673 -0.0936  0.1354
  577MOL0     C77826   0.724  10.775  10.273 -0.1693 -0.6858  0.3137
  577MOL0     C77827   0.824  10.749  10.161  0.4986  0.5357 -0.1968
  577MOL0     H77828   0.850  10.586  10.743  0.6050 -1.9803 -1.0923
  577MOL0     H77829   0.990  10.448  10.892 -2.0141  0.6210 -1.9346
  577MOL0     H77830   1.359  10.363  10.747 -0.4927  0.5016 -0.8234
  577MOL0     H77831   1.465  10.483  10.821  2.5403 -3.5651 -0.8688
  577MOL0     H77832   1.364  10.224  10.930  1.8367 -2.7948 -1.8987
  577MOL0     H77833   1.486  10.319  11.023  0.6434  0.8687 -0.1927
  577MOL0     H77834   1.657  10.287  10.844 -0.7452  1.3810 -1.0055
  577MOL0     H77835   1.534  10.245  10.730 -0.4656 -1.6364  0.3851
  577MOL0     H77836   1.590  10.089  10.994  0.5417 -1.6330  0.2936
  577MOL0     H77837   1.480  10.033  10.873 -1.8133  1.7185  2.3387
  577MOL0     H77838   1.690  10.032  10.708  2.2283 -2.5046 -0.5321
  577MOL0     H77839   1.784  10.058  10.852 -1.1522  0.6232  2.3726
  577MOL0     H77840   1.712   9.849  10.951  1.3038 -1.3848 -1.0274
  577MOL0     H77841   1.616   9.809  10.814  0.0622 -0.3290  0.5675
  577MOL0     H77842   1.911   9.843  10.822 -0.2337 -2.3906  3.6386
  577MOL0     H77843   1.823   9.845  10.670  0.0921  3.2332  1.3180
  577MOL0     H77844   1.777   9.635  10.876  2.8231  1.7001  1.2091
  577MOL0     H77845   1.737   9.620  10.698 -0.9517  1.5396  0.7817
  577MOL0     H77846   1.934   9.407  10.851  1.1926  0.4103  0.2463
  577MOL0     H77847   2.142   9.265  10.799 -0.0186  0.4787  0.2879
  577MOL0     H77848   2.222   9.325  10.657 -1.2356 -1.7425 -0.1987
  577MOL0     H77849   2.314   9.462  10.913  1.5453  0.4612  0.2012
  577MOL0     H77850   2.370   9.300  10.880  0.5553 -0.3672 -1.8965
  577MOL0     H77851   2.512   9.501  10.809  1.4183  1.2453 -1.8628
  577MOL0     H77852   2.388   9.534  10.690  0.7939  0.2597  0.3925
  577MOL0     H77853   2.579   9.404  10.592  0.4006 -1.3982  0.1568
  577MOL0     H77854   2.423   9.311  10.583  0.6164 -2.9850  1.0942
  577MOL0     H77855   2.737   9.252  10.918  0.9099 -0.0690 -0.9156
  577MOL0     H77856   2.996   9.239  10.910  0.7220  0.1570 -0.3494
  577MOL0     H77857   3.340   9.428  10.617  0.4539 -1.0625 -0.3538
  577MOL0     H77858   3.566   9.433  10.573  0.3594  2.3525  2.0205
  577MOL0     H77859   3.923   9.372  10.794  1.7928 -0.5442  4.0402
  577MOL0     H77860   3.800   9.306  10.899 -1.7635 -2.9417  0.2003
  577MOL0     H77861   3.980   9.151  10.890 -0.1106 -1.9437  0.0714
  577MOL0     H77862   3.849   9.075  10.804 -1.0738 -1.0566 -2.7054
  577MOL0     H77863   3.957   9.074  10.603 -1.3589 -1.8384  2.7708
  577MOL0     H77864   4.027   9.233  10.622 -2.3797 -0.0638 -1.6045
  577MOL0     H77865   4.102   8.974  10.767 -1.6570 -0.2542 -1.5032
  577MOL0     H77866   4.170   9.131  10.812 -2.6371  3.4532 -1.2833
  577MOL0     H77867   4.217   9.004  10.540  1.3532  3.0182 -2.5668
  577MOL0     H77868   4.338   8.998  10.676  0.5717 -0.3384 -0.0749
  577MOL0     H77869   4.269   9.220  10.502 -1.2412  1.1046 -0.0469
  577MOL0     H77870   4.298   9.260  10.674 -0.7712  0.5694  0.2874
  577MOL0     H77871   4.514   9.122  10.498 -1.5564 -4.8438  3.3974
  577MOL0     H77872   4.531   9.175  10.669  1.1058 -1.3447 -2.0522
  577MOL0     H77873   4.473   9.367  10.437  1.0548  0.3513 -0.0255
  577MOL0     H77874   4.496   9.396  10.614 -1.0929 -1.6303  1.5972
  577MOL0     H77875   3.637   9.135  10.881  1.1209  3.0233  1.5704
  577MOL0     H77876   3.403   9.133  10.934 -3.0317  0.6795 -0.2581
  577MOL0     H77877   2.943   9.187  10.485  0.6385  0.6860 -1.2909
  577MOL0     H77878   2.713   9.215  10.496  0.7337 -1.1072  0.4295
  577MOL0     H77879   1.337  10.662  10.770  0.0640  0.1633  0.8012
  577MOL0     H77880   1.190  10.822  10.632  0.7602 -0.0236  0.7548
  577MOL0     H77881   0.660  10.784  10.614 -0.7910  1.7269  1.0306
  577MOL0     H77882   0.471  10.890  10.532 -0.5750  1.3656 -1.6301
  577MOL0     H77883   0.329  10.804  10.134  2.3953 -0.1784 -0.5513
  577MOL0     H77884   0.398  10.957  10.097  0.1781 -0.5904 -0.4375
  577MOL0     H77885   0.172  10.964  10.048 -0.6106 -0.0787 -0.3812
  577MOL0     H77886   0.195  11.074  10.182  1.1636 -0.3074 -0.2984
  577MOL0     H77887   0.142  10.825  10.319  0.1487 -0.5013  0.7027
  577MOL0     H77888   0.053  10.812  10.177 -0.5136  0.1235  1.7400
  577MOL0     H77889  -0.078  10.907  10.392  2.1077  1.4637  2.5183
  577MOL0     H77890   0.045  11.024  10.400 -0.1360  0.3814  0.1156
  577MOL0     H77891  -0.197  11.239  10.137  1.5462 -0.0710 -2.0205
  577MOL0     H77892   0.589  10.826  10.130 -1.3513 -1.4276  0.1898
  577MOL0     H77893   0.826  10.642  10.138 -0.4565  0.7592 -1.4177
  577MOL0     H77894   0.793  10.795  10.067 -1.5385 -0.0186  0.1517
  577MOL0     H77895   0.922  10.786  10.190  0.5175 -0.6529  1.4190
  578MOL0     O77896   5.540   9.034   9.347  0.0124 -0.3089  0.5058
  578MOL0     C77897   5.512   9.137   9.296 -0.1991  0.1135 -1.0061
  578MOL0     O77898   5.574   9.259   9.329  0.1159  0.1036  0.0845
  578MOL0     C77899   5.688   9.260   9.399  0.9333  0.3754 -0.4452
  578MOL0     C77900   5.690   9.351   9.507 -0.3722  0.1808 -0.0470
  578MOL0     C77901   5.801   9.363   9.590 -0.9296 -0.4849 -0.2501
  578MOL0     C77902   5.909   9.271   9.572  0.5697  0.3516  0.2599
  578MOL0     O77903   6.012   9.258   9.660  0.4897  0.5442 -0.0614
  578MOL0     C77904   6.049   9.380   9.721 -1.2681  0.1129 -0.3836
  578MOL0     C77905   6.197   9.393   9.773  0.6068  0.5407  0.8054
  578MOL0     C77906   6.291   9.394   9.654 -0.8121 -0.2775 -0.0906
  578MOL0     C77907   6.437   9.365   9.694 -0.2973  0.0909 -0.4041
  578MOL0     C77908   6.526   9.387   9.569 -0.4041  0.0462  0.1150
  578MOL0     C77909   6.675   9.397   9.604 -0.0137 -0.6602 -0.3118
  578MOL0     C77910   6.746   9.434   9.478 -0.3228 -0.0449  0.0801
  578MOL0     C77911   6.898   9.445   9.511 -0.6415  0.6103 -0.2921
  578MOL0     N77912   6.965   9.527   9.412 -0.2779 -0.0715 -0.8326
  578MOL0     C77913   7.006   9.483   9.288  1.0340 -0.2317 -0.0842
  578MOL0     C77914   7.068   9.591   9.247 -0.1121 -0.1793 -0.4442
  578MOL0     C77915   7.129   9.586   9.111 -0.8168  0.1975  0.5517
  578MOL0     C77916   7.287   9.584   9.117  0.3166 -0.0706  0.3092
  578MOL0     C77917   7.354   9.580   8.983  0.2796  0.1281 -0.1728
  578MOL0     C77918   7.501   9.564   9.005 -0.2134 -0.4156  0.2238
  578MOL0     O77919   7.570   9.528   8.877 -0.5776 -0.2596 -0.4000
  578MOL0     C77920   7.707   9.527   8.882 -0.2185 -0.2473 -0.1512
  578MOL0     C77921   7.768   9.557   8.761 -1.4151 -1.4287 -0.6987
  578MOL0     C77922   7.906   9.533   8.746  0.0275  0.0608 -0.2748
  578MOL0     C77923   7.985   9.481   8.851  0.0352 -0.4504 -0.6070
  578MOL0     C77924   8.125   9.462   8.834  0.5703 -0.4374  1.2490
  578MOL0     O77925   8.171   9.483   8.703 -0.5934  0.6894  0.7924
  578MOL0     C77926   8.314   9.491   8.692 -0.4817 -0.9404  0.7392
  578MOL0     C77927   8.385   9.411   8.597  0.0097  0.1806 -0.4090
  578MOL0     C77928   8.523   9.424   8.589 -0.1978  0.6421 -0.5007
  578MOL0     C77929   8.603   9.507   8.671 -0.4143  1.1214 -0.0066
  578MOL0     O77930   8.740   9.496   8.668  0.3207  0.2348 -0.3614
  578MOL0     C77931   8.814   9.612   8.634  1.1167  0.3594  0.6663
  578MOL0     C77932   8.966   9.590   8.601  0.0850 -0.4021 -0.0001
  578MOL0     C77933   9.002   9.486   8.488  0.1984 -0.2229 -0.3230
  578MOL0     C77934   8.999   9.553   8.354 -0.4842 -0.1138  0.4862
  578MOL0     C77935   9.031   9.435   8.260 -0.5361 -0.5989  0.0760
  578MOL0     C77936   9.064   9.483   8.119  0.1457  0.3849 -0.6930
  578MOL0     C77937   8.948   9.563   8.054 -0.0429  0.0556 -0.3098
  578MOL0     C77938   8.968   9.590   7.908 -0.7905  0.5701  0.2580
  578MOL0    Cl77939   9.145   9.650   7.879 -0.5994 -0.2728  0.3481
  578MOL0     C77940   8.530   9.586   8.770  0.0747  0.0988  0.3947
  578MOL0     C77941   8.390   9.580   8.771 -0.9202  0.0338 -0.3217
  578MOL0     O77942   8.194   9.424   8.926  0.4249 -0.0449  0.1200
  578MOL0     C77943   7.918   9.460   8.975  0.4553 -0.2592 -0.6788
  578MOL0     C77944   7.781   9.473   8.985  0.3044  0.5984 -0.2751
  578MOL0     N77945   7.078   9.684   9.348  0.5117 -0.5349 -0.1248
  578MOL0     N77946   7.004   9.651   9.448 -0.4116  0.0146 -0.1479
  578MOL0     C77947   5.906   9.183   9.462  0.2664 -0.9295 -0.7250
  578MOL0     C77948   5.800   9.183   9.371  0.1461 -0.2963  0.9215
  578MOL0     C77949   5.414   9.135   9.181 -0.4602 -0.5437  0.7843
  578MOL0     C77950   5.381   9.257   9.127  0.1683  0.0368 -0.2662
  578MOL0     C77951   5.294   9.295   9.019  0.9843  0.1142 -0.2665
  578MOL0     C77952   5.252   9.178   8.952  0.3375 -0.2366  0.3289
  578MOL0     O77953   5.159   9.172   8.850 -0.2995  0.0729 -0.0342
  578MOL0     C77954   5.101   9.298   8.816 -0.0841 -0.4415 -0.7259
  578MOL0     C77955   5.011   9.296   8.697  0.0068 -0.4096  0.2642
  578MOL0     C77956   4.880   9.232   8.729  0.6374 -0.2800 -0.5947
  578MOL0     C77957   4.775   9.255   8.621 -0.0887 -0.1155 -0.0821
  578MOL0     C77958   4.816   9.178   8.506 -0.1249 -0.8908  0.2334
  578MOL0     C77959   4.853   9.119   8.408 -0.0653 -0.1721 -0.2350
  578MOL0     C77960   5.296   9.042   8.992 -0.8878 -0.0594  0.0429
  578MOL0     C77961   5.382   9.025   9.100 -0.1149  0.8090 -0.5328
  578MOL0     C77962   5.439   8.886   9.117 -0.4078 -0.0398 -0.3707
  578MOL0     H77963   5.608   9.417   9.532  2.0289  4.0112 -1.3743
  578MOL0     H77964   5.786   9.431   9.673 -1.8900 -2.2521  1.1136
  578MOL0     H77965   6.040   9.463   9.650 -2.8009  0.1026 -0.2300
  578MOL0     H77966   5.977   9.414   9.796 -2.1665 -1.0760 -0.6921
  578MOL0     H77967   6.223   9.312   9.843  4.0382 -1.0604 -1.9782
  578MOL0     H77968   6.212   9.489   9.822  1.2601  1.6399 -1.4249
  578MOL0     H77969   6.282   9.488   9.599  1.7305 -1.3104 -2.5122
  578MOL0     H77970   6.257   9.317   9.584 -0.4951 -1.4991  1.0677
  578MOL0     H77971   6.467   9.425   9.780 -4.1499  0.2845  1.0009
  578MOL0     H77972   6.437   9.258   9.714  1.6651 -0.0987 -1.1366
  578MOL0     H77973   6.519   9.299   9.504  2.9610  1.4325 -2.4151
  578MOL0     H77974   6.508   9.481   9.517  3.3849  1.1532  0.4820
  578MOL0     H77975   6.691   9.472   9.682  1.3267 -1.3484  0.1043
  578MOL0     H77976   6.707   9.302   9.648  1.3215  0.2524  0.7729
  578MOL0     H77977   6.714   9.534   9.448 -3.5620  0.0930  3.2940
  578MOL0     H77978   6.731   9.362   9.397  0.3834  0.6398 -0.6774
  578MOL0     H77979   6.906   9.486   9.612  3.5118  0.0268 -0.1874
  578MOL0     H77980   6.940   9.343   9.518 -2.3306 -0.0588  0.6493
  578MOL0     H77981   6.985   9.399   9.223 -1.9526 -0.1148  0.5859
  578MOL0     H77982   7.085   9.506   9.050  0.4269 -0.3982  0.4043
  578MOL0     H77983   7.098   9.676   9.058  1.2849  0.9930  0.5565
  578MOL0     H77984   7.331   9.669   9.171  3.2908 -1.1271 -0.2831
  578MOL0     H77985   7.303   9.488   9.167  0.1177 -1.7199 -2.5717
  578MOL0     H77986   7.320   9.675   8.941  0.5696 -0.1748 -1.1240
  578MOL0     H77987   7.317   9.510   8.908 -0.4371  1.9636 -1.6159
  578MOL0     H77988   7.511   9.483   9.078 -0.7539  1.0217  1.9403
  578MOL0     H77989   7.546   9.655   9.044  2.3546 -1.5505  0.0831
  578MOL0     H77990   7.705   9.589   8.678 -2.2183  0.3631  0.5348
  578MOL0     H77991   7.950   9.555   8.649 -4.2085  1.5690 -2.1299
  578MOL0     H77992   8.329   9.349   8.528 -4.1012  1.2313  1.6608
  578MOL0     H77993   8.585   9.362   8.525 -0.5129  2.6540 -2.8989
  578MOL0     H77994   8.769   9.665   8.549 -1.6087 -1.9420  0.5245
  578MOL0     H77995   8.796   9.676   8.721 -3.9481  0.5641 -0.2546
  578MOL0     H77996   9.011   9.689   8.586 -1.2227  0.1914 -0.1793
  578MOL0     H77997   9.015   9.554   8.692  0.4899  1.9578  0.7965
  578MOL0     H77998   9.102   9.446   8.503  0.4763 -0.2435 -2.1220
  578MOL0     H77999   8.923   9.410   8.500 -1.1075  1.1435  0.0863
  578MOL0     H78000   9.085   9.620   8.348  2.4568 -3.6774 -2.0650
  578MOL0     H78001   8.901   9.600   8.344 -0.1655  0.3644 -0.4468
  578MOL0     H78002   8.952   9.359   8.260 -0.4798 -0.7005  1.7637
  578MOL0     H78003   9.127   9.394   8.292 -0.3843 -1.5156 -1.4358
  578MOL0     H78004   9.163   9.531   8.124  0.2380  0.0680  1.4071
  578MOL0     H78005   9.087   9.397   8.056 -0.6542 -0.1346 -0.2851
  578MOL0     H78006   8.957   9.663   8.097 -2.6015  0.0618  0.3631
  578MOL0     H78007   8.852   9.519   8.082  0.3524 -0.7988 -0.2542
  578MOL0     H78008   8.964   9.497   7.850  3.9579 -0.3155  0.9780
  578MOL0     H78009   8.896   9.665   7.875 -1.4754  1.2710  3.1149
  578MOL0     H78010   8.579   9.643   8.848  1.2622  0.3387 -0.4820
  578MOL0     H78011   8.331   9.642   8.839 -1.2206 -0.0854 -0.4698
  578MOL0     H78012   7.966   9.419   9.063 -2.6261 -1.8982  0.4015
  578MOL0     H78013   7.739   9.432   9.077  2.0618 -1.0603 -0.1427
  578MOL0     H78014   5.986   9.113   9.439 -1.1237 -3.1658  0.7534
  578MOL0     H78015   5.801   9.123   9.281 -0.6324 -0.1837  0.8377
  578MOL0     H78016   5.423   9.349   9.167  0.6967 -0.7165  0.9541
  578MOL0     H78017   5.267   9.395   8.987  2.5256  0.3930 -0.7566
  578MOL0     H78018   5.181   9.372   8.802 -0.5467  0.5226  1.3275
  578MOL0     H78019   5.044   9.329   8.904  2.5783 -5.1968  3.1751
  578MOL0     H78020   5.068   9.249   8.617  1.0060  3.2501 -1.4112
  578MOL0     H78021   4.991   9.397   8.659  0.8965 -0.2831  0.1174
  578MOL0     H78022   4.834   9.284   8.814  0.7943 -2.2580  0.7661
  578MOL0     H78023   4.900   9.126   8.745 -2.4777 -0.5790  2.6013
  578MOL0     H78024   4.673   9.225   8.644 -0.3790  0.8216 -0.1125
  578MOL0     H78025   4.774   9.361   8.596  0.4546 -0.3721 -1.3157
  578MOL0     H78026   4.901   9.066   8.329 -1.1054 -1.8760  0.2158
  578MOL0     H78027   5.278   8.955   8.930  0.6482  1.0059 -2.0351
  578MOL0     H78028   5.429   8.821   9.030  1.3908  1.3396 -1.6928
  578MOL0     H78029   5.540   8.893   9.156 -0.0815 -0.3068 -1.1542
  578MOL0     H78030   5.377   8.831   9.188 -0.0945 -0.9796 -0.8149
  579MOL0     O78031   8.150   2.983   3.425  0.1571 -0.6072 -0.8204
  579MOL0     C78032   8.077   2.893   3.466  0.2193  0.3971 -0.2393
  579MOL0     O78033   8.128   2.780   3.523 -0.1446 -0.3899 -0.3538
  579MOL0     C78034   8.260   2.755   3.550 -0.2523  0.1616 -0.4200
  579MOL0     C78035   8.281   2.648   3.641 -0.7838 -0.2758  0.6825
  579MOL0     C78036   8.406   2.587   3.647  0.4062 -0.2194  0.0830
  579MOL0     C78037   8.512   2.629   3.576 -0.3853 -0.2302 -0.2297
  579MOL0     O78038   8.629   2.563   3.588  0.1299  0.0325  0.3824
  579MOL0     C78039   8.736   2.646   3.638 -0.4548 -0.5244 -0.6633
  579MOL0     C78040   8.853   2.566   3.691 -0.1808  0.4888  0.5385
  579MOL0     C78041   8.891   2.459   3.588  0.1737 -0.1274 -0.5092
  579MOL0     C78042   8.988   2.368   3.654 -0.3815  0.4925  0.8926
  579MOL0     C78043   9.037   2.261   3.548 -0.0646 -0.3880 -0.3487
  579MOL0     C78044   9.133   2.152   3.593 -0.1460 -0.3425  0.4138
  579MOL0     C78045   9.117   2.025   3.514 -0.4434 -0.2274  0.2666
  579MOL0     C78046   8.990   1.947   3.547 -0.6460 -0.3439 -0.0233
  579MOL0     N78047   8.996   1.806   3.504  0.3042 -0.7138  0.2430
  579MOL0     C78048   9.011   1.759   3.383  1.1347 -0.2576  0.5126
  579MOL0     C78049   9.030   1.630   3.397 -0.3452 -1.0091  0.7037
  579MOL0     C78050   9.074   1.541   3.280  0.0368  0.4972 -0.9538
  579MOL0     C78051   9.197   1.582   3.208 -0.8629  0.6045  0.1820
  579MOL0     C78052   9.230   1.483   3.093  0.2126  0.9307  0.0676
  579MOL0     C78053   9.373   1.500   3.038  0.6248  0.4744  0.0552
  579MOL0     O78054   9.456   1.420   3.124  0.2753 -0.0206  0.1315
  579MOL0     C78055   9.585   1.405   3.087 -0.2102 -0.1392 -0.6983
  579MOL0     C78056   9.656   1.450   2.976  1.0321  0.3229 -0.0145
  579MOL0     C78057   9.798   1.432   2.967  0.6785  0.0272 -0.1504
  579MOL0     C78058   9.868   1.372   3.065  0.2173 -0.1980  0.3617
  579MOL0     C78059  10.014   1.357   3.058  0.1199 -0.0102  0.2382
  579MOL0     O78060  10.080   1.449   2.986  0.3537  0.3621 -0.1684
  579MOL0     C78061  10.213   1.445   2.975  0.0199  0.8754  0.5353
  579MOL0     C78062  10.281   1.556   3.006  0.7430  0.3171 -0.5277
  579MOL0     C78063  10.414   1.564   2.985  0.0550 -0.5418  0.4517
  579MOL0     C78064  10.492   1.461   2.923  0.6232 -1.0126 -0.0121
  579MOL0     O78065  10.626   1.462   2.909 -0.1636 -0.2802  0.1079
  579MOL0     C78066  10.670   1.561   2.813 -1.0012 -0.0918  0.0847
  579MOL0     C78067  10.800   1.611   2.864  0.5619 -0.7094 -0.9181
  579MOL0     C78068  10.909   1.513   2.877 -0.4284  0.4806  0.2212
  579MOL0     C78069  11.030   1.590   2.934  0.3600 -0.9719 -0.6784
  579MOL0     C78070  11.154   1.508   2.949  0.0012  0.5180  0.7304
  579MOL0     C78071  11.276   1.563   2.884 -0.6804  0.5396 -0.2280
  579MOL0     C78072  11.342   1.677   2.969 -0.1595  0.1487  0.3347
  579MOL0     C78073  11.482   1.718   2.917  0.4567 -0.0239  0.5469
  579MOL0    Cl78074  11.487   1.704   2.743 -0.4115 -0.9226  0.1558
  579MOL0     C78075  10.422   1.342   2.903 -0.3908  0.1891  0.1574
  579MOL0     C78076  10.283   1.336   2.913 -0.0452 -0.6981  0.2045
  579MOL0     O78077  10.071   1.264   3.130  0.7432  0.1770  0.8788
  579MOL0     C78078   9.802   1.333   3.177  0.2992 -0.2945 -0.4185
  579MOL0     C78079   9.665   1.355   3.192 -0.9240  0.8192 -0.0445
  579MOL0     N78080   9.007   1.589   3.520 -0.1170  0.0781  0.1122
  579MOL0     N78081   8.987   1.700   3.589  0.5659 -0.0436 -0.4753
  579MOL0     C78082   8.495   2.738   3.495 -0.6178  0.1666  0.3860
  579MOL0     C78083   8.373   2.800   3.484 -0.5699 -0.5260 -0.6615
  579MOL0     C78084   7.927   2.909   3.470  0.0788  0.4912 -0.0698
  579MOL0     C78085   7.850   2.807   3.542  0.4977 -0.2628  0.9336
  579MOL0     C78086   7.709   2.814   3.544  0.9946  0.5922 -0.0539
  579MOL0     C78087   7.642   2.908   3.477 -0.5667  0.2643 -0.1759
  579MOL0     O78088   7.503   2.908   3.498 -0.4856  0.6419  0.5529
  579MOL0     C78089   7.429   2.988   3.403 -0.2578  0.5692 -1.2727
  579MOL0     C78090   7.288   2.931   3.389 -0.1850 -0.0523  0.1582
  579MOL0     C78091   7.279   2.789   3.341 -0.3330  0.1500 -0.2867
  579MOL0     C78092   7.133   2.743   3.345 -0.2956 -0.0073 -0.2399
  579MOL0     C78093   7.108   2.616   3.277 -0.3820 -0.3782  0.8949
  579MOL0     C78094   7.105   2.505   3.219 -0.1435 -0.0239 -0.4545
  579MOL0     C78095   7.716   3.007   3.405 -0.7867  0.3207 -0.5570
  579MOL0     C78096   7.856   3.007   3.393 -0.1532  0.2209  0.2636
  579MOL0     C78097   7.928   3.100   3.297  0.2523  0.4164 -0.0520
  579MOL0     H78098   8.199   2.598   3.692 -0.7614 -1.3718 -0.3257
  579MOL0     H78099   8.423   2.507   3.718 -0.6693  0.5026  1.2097
  579MOL0     H78100   8.775   2.683   3.543 -0.5880  1.9695  0.1732
  579MOL0     H78101   8.700   2.722   3.709 -2.0061  0.9689 -2.9092
  579MOL0     H78102   8.836   2.516   3.787  0.1849 -2.2370 -0.7258
  579MOL0     H78103   8.937   2.636   3.694  0.8819 -0.2266 -4.3801
  579MOL0     H78104   8.934   2.505   3.498 -1.2284 -3.1141 -2.8514
  579MOL0     H78105   8.805   2.400   3.558 -1.9750  2.1805  0.7074
  579MOL0     H78106   9.064   2.435   3.695 -1.3173  0.6058  2.5024
  579MOL0     H78107   8.935   2.319   3.736  1.0857  0.3049  1.7712
  579MOL0     H78108   8.950   2.212   3.504  0.0173  0.1679 -1.1422
  579MOL0     H78109   9.088   2.309   3.464  0.5370  1.3053  0.9263
  579MOL0     H78110   9.233   2.193   3.580 -1.3439  2.4547 -0.8496
  579MOL0     H78111   9.121   2.130   3.700  2.1947 -0.3676  0.7150
  579MOL0     H78112   9.202   1.961   3.540  0.8087 -1.0216 -4.6812
  579MOL0     H78113   9.113   2.044   3.406 -0.5520  0.0345  0.3168
  579MOL0     H78114   8.982   1.948   3.656  2.6344 -2.1778  0.3579
  579MOL0     H78115   8.900   1.986   3.499 -0.0657 -1.1423 -1.8351
  579MOL0     H78116   9.010   1.811   3.288 -0.5445  2.5597  1.9465
  579MOL0     H78117   9.097   1.442   3.323 -1.7630  0.0380 -0.9608
  579MOL0     H78118   8.990   1.520   3.213 -0.3626 -0.7259 -0.1080
  579MOL0     H78119   9.188   1.685   3.174 -1.7581  0.4135 -0.1907
  579MOL0     H78120   9.284   1.578   3.273  1.4426 -1.5606 -2.7270
  579MOL0     H78121   9.158   1.516   3.017 -2.5673 -3.8807  0.2242
  579MOL0     H78122   9.214   1.376   3.112  4.2735  0.5452  2.3746
  579MOL0     H78123   9.404   1.600   3.007  0.8707 -0.3276 -2.5446
  579MOL0     H78124   9.385   1.450   2.941  0.4545  0.6951 -0.0784
  579MOL0     H78125   9.611   1.508   2.897  2.4289  0.8290 -0.4714
  579MOL0     H78126   9.840   1.464   2.872 -0.0538 -0.2859 -0.5881
  579MOL0     H78127  10.248   1.642   3.063  0.6317 -1.0400  1.5500
  579MOL0     H78128  10.466   1.655   3.014 -1.0912  0.5696 -0.7999
  579MOL0     H78129  10.678   1.511   2.716 -3.6209 -0.4092 -0.0305
  579MOL0     H78130  10.603   1.647   2.803 -0.8942 -0.0846 -0.6838
  579MOL0     H78131  10.832   1.695   2.801 -0.2680  0.3339  0.0163
  579MOL0     H78132  10.784   1.639   2.969  3.4576 -1.6921 -0.1057
  579MOL0     H78133  10.883   1.447   2.959  0.5313  0.5250  0.5707
  579MOL0     H78134  10.931   1.463   2.782 -1.3950 -0.8947  0.6958
  579MOL0     H78135  11.006   1.646   3.024 -2.3704  0.5919 -2.2560
  579MOL0     H78136  11.047   1.671   2.863 -3.1154 -0.2079 -0.8202
  579MOL0     H78137  11.138   1.411   2.900 -4.3297  2.2391 -1.7733
  579MOL0     H78138  11.183   1.490   3.053 -0.2229 -1.1832  0.5243
  579MOL0     H78139  11.351   1.483   2.881 -1.3832 -0.3728  2.8271
  579MOL0     H78140  11.249   1.593   2.783 -0.5278 -1.1581 -0.8024
  579MOL0     H78141  11.364   1.636   3.068  0.4687  2.1727  1.0829
  579MOL0     H78142  11.273   1.762   2.972 -0.5679 -0.0358 -2.0467
  579MOL0     H78143  11.494   1.819   2.958 -0.0023 -0.0516  0.7553
  579MOL0     H78144  11.562   1.663   2.967  1.2118 -0.1837 -0.7882
  579MOL0     H78145  10.472   1.256   2.858 -0.1287  1.4861 -2.1895
  579MOL0     H78146  10.238   1.248   2.869  2.4553 -1.6308 -0.6852
  579MOL0     H78147   9.848   1.303   3.271  0.2224  4.7362  1.5634
  579MOL0     H78148   9.620   1.326   3.286  1.6209 -1.0038  0.7301
  579MOL0     H78149   8.577   2.764   3.428 -1.3238 -0.7140 -0.8779
  579MOL0     H78150   8.370   2.883   3.414 -1.7484  2.0947  2.2242
  579MOL0     H78151   7.896   2.720   3.588 -0.3462 -1.5656 -0.6147
  579MOL0     H78152   7.648   2.743   3.599  1.4561  0.0620 -0.2164
  579MOL0     H78153   7.473   2.982   3.303 -2.7699 -2.3472 -2.3636
  579MOL0     H78154   7.419   3.094   3.430  1.3455  1.0202 -2.2740
  579MOL0     H78155   7.235   3.002   3.325  0.8802  2.9139  2.3781
  579MOL0     H78156   7.244   2.928   3.489 -4.5520  1.1567 -1.5029
  579MOL0     H78157   7.339   2.732   3.412 -1.4357 -2.8657 -1.5785
  579MOL0     H78158   7.320   2.771   3.241  1.4802  1.5987  0.1534
  579MOL0     H78159   7.105   2.732   3.450 -0.0859  0.9900 -0.0665
  579MOL0     H78160   7.076   2.822   3.297 -1.8075 -1.1503 -0.3902
  579MOL0     H78161   7.103   2.410   3.171  0.1196 -0.5413  0.5433
  579MOL0     H78162   7.655   3.078   3.350 -0.1536 -0.2784 -2.0893
  579MOL0     H78163   7.981   3.185   3.343 -0.8104  2.6973 -2.7303
  579MOL0     H78164   7.989   3.040   3.229  0.3019  0.0521  0.3133
  579MOL0     H78165   7.860   3.159   3.235  1.2715  0.8390 -0.7955
  580MOL0     O78166   2.000   4.095   1.551  0.4890 -0.1854  0.6047
  580MOL0     C78167   1.900   4.141   1.500 -0.2013 -0.3300 -0.3880
  580MOL0     O78168   1.902   4.200   1.370 -0.0599  0.5902 -0.6155
  580MOL0     C78169   2.010   4.211   1.296 -0.3131  0.5392 -0.3561
  580MOL0     C78170   2.127   4.270   1.340 -0.4254 -0.0112 -0.1570
  580MOL0     C78171   2.238   4.286   1.261 -0.0076 -0.6585  0.5777
  580MOL0     C78172   2.234   4.248   1.122  0.0505 -0.2366 -0.2087
  580MOL0     O78173   2.340   4.252   1.033  0.2153 -0.8286 -0.5164
  580MOL0     C78174   2.470   4.307   1.078 -0.4671  0.5224  0.4469
  580MOL0     C78175   2.481   4.466   1.070  0.4887 -0.1937 -0.7556
  580MOL0     C78176   2.624   4.536   1.067 -0.1910  0.5507 -0.3044
  580MOL0     C78177   2.590   4.690   1.079  0.0427  1.1832 -0.3663
  580MOL0     C78178   2.721   4.774   1.080 -0.1191  0.1226 -0.7782
  580MOL0     C78179   2.785   4.763   1.222  0.3649 -0.4024  0.6556
  580MOL0     C78180   2.886   4.880   1.237  0.2280  0.4200  0.3756
  580MOL0     C78181   2.941   4.864   1.379  0.2384  0.6231 -0.9020
  580MOL0     N78182   3.054   4.946   1.414 -0.1731  0.4482 -0.1316
  580MOL0     C78183   3.051   5.081   1.444  0.5196 -0.1455 -0.1915
  580MOL0     C78184   3.168   5.112   1.505  0.6247  0.0665  1.1993
  580MOL0     C78185   3.210   5.244   1.550 -0.0078  0.0538 -0.8966
  580MOL0     C78186   3.216   5.344   1.430 -0.1186 -0.1527 -0.5888
  580MOL0     C78187   3.295   5.468   1.471  0.2887  0.1602 -0.2344
  580MOL0     C78188   3.347   5.579   1.376  0.9292  0.5271 -0.3534
  580MOL0     O78189   3.434   5.677   1.452  0.3788 -0.5650  0.1731
  580MOL0     C78190   3.569   5.644   1.473 -0.2094 -0.4357 -0.0811
  580MOL0     C78191   3.642   5.723   1.564 -0.4130 -0.4936 -0.5767
  580MOL0     C78192   3.775   5.687   1.596 -0.5599  0.0872 -0.0053
  580MOL0     C78193   3.842   5.574   1.541  0.3624 -0.0096 -0.4585
  580MOL0     C78194   3.982   5.536   1.575  0.2115  0.7476  0.7171
  580MOL0     O78195   4.040   5.600   1.680  0.0489  0.7420 -0.7100
  580MOL0     C78196   4.168   5.563   1.718 -0.0195  0.0647  0.4608
  580MOL0     C78197   4.279   5.626   1.654 -0.2300  0.0715 -0.1215
  580MOL0     C78198   4.409   5.600   1.693 -0.0975 -0.4337  0.2729
  580MOL0     C78199   4.431   5.505   1.796 -0.6627 -0.0106 -0.3133
  580MOL0     O78200   4.564   5.474   1.817 -0.9299 -0.0552 -0.3114
  580MOL0     C78201   4.593   5.438   1.958 -0.0341 -0.1186  0.4043
  580MOL0     C78202   4.744   5.417   1.974 -0.3243  0.0993 -0.2363
  580MOL0     C78203   4.842   5.527   1.924  0.4714 -0.1096  0.2916
  580MOL0     C78204   4.798   5.665   1.972 -0.0937  0.7697  0.2093
  580MOL0     C78205   4.897   5.766   1.930  0.2304 -0.6395  0.2304
  580MOL0     C78206   4.864   5.904   1.991 -0.2600 -0.2961 -0.5295
  580MOL0     C78207   4.926   6.019   1.915  0.9067 -0.1865 -0.1421
  580MOL0     C78208   4.897   6.151   1.985  0.7607 -0.3602 -0.5678
  580MOL0    Cl78209   4.984   6.161   2.148  0.3076  0.0524 -0.0283
  580MOL0     C78210   4.317   5.444   1.866 -0.1694 -0.5954 -0.1054
  580MOL0     C78211   4.190   5.479   1.822  0.6040  0.9781 -0.1041
  580MOL0     O78212   4.040   5.460   1.500  0.3496 -0.4866  0.1117
  580MOL0     C78213   3.764   5.497   1.448 -0.2778  0.3274 -0.0494
  580MOL0     C78214   3.634   5.542   1.409 -0.2220  0.3580  0.3809
  580MOL0     N78215   3.245   4.994   1.507 -0.4598 -0.1891  0.5808
  580MOL0     N78216   3.172   4.893   1.459 -0.0497 -0.6615 -0.2238
  580MOL0     C78217   2.112   4.193   1.073 -0.6356  0.1203 -0.4172
  580MOL0     C78218   2.004   4.177   1.162  0.3473 -0.5919  0.3149
  580MOL0     C78219   1.760   4.148   1.574  0.5972  0.5704 -0.1255
  580MOL0     C78220   1.671   4.250   1.535 -0.3362 -0.2918  0.1540
  580MOL0     C78221   1.542   4.266   1.601  0.5593 -0.1649 -0.8159
  580MOL0     C78222   1.498   4.158   1.682  1.0611  0.0226  0.0328
  580MOL0     O78223   1.374   4.189   1.734  0.7584 -0.7577  0.0167
  580MOL0     C78224   1.313   4.091   1.832 -0.6295  0.3068 -0.3911
  580MOL0     C78225   1.272   3.962   1.762 -0.9091  0.5578 -0.2528
  580MOL0     C78226   1.133   3.972   1.688  0.2311  0.2990  0.6992
  580MOL0     C78227   1.021   3.987   1.794  0.6474 -1.1016 -0.2629
  580MOL0     C78228   0.895   3.964   1.723 -0.0188  0.3085 -0.3027
  580MOL0     C78229   0.797   3.967   1.639 -1.0300 -0.6700 -0.9585
  580MOL0     C78230   1.584   4.056   1.717 -0.5092  0.1642  1.0660
  580MOL0     C78231   1.712   4.046   1.652 -0.5808 -0.0212 -0.2467
  580MOL0     C78232   1.786   3.922   1.684 -0.3746 -0.3513 -0.4890
  580MOL0     H78233   2.127   4.306   1.443 -0.2386 -0.7967  0.1233
  580MOL0     H78234   2.330   4.333   1.293  0.3042  0.8268 -2.1611
  580MOL0     H78235   2.504   4.270   1.176  0.2116  1.2240  0.4848
  580MOL0     H78236   2.541   4.261   1.009 -1.3524 -0.4604  0.1624
  580MOL0     H78237   2.424   4.510   1.152  0.1118 -0.9938 -0.5797
  580MOL0     H78238   2.441   4.491   0.972 -2.4660 -1.3046  0.0640
  580MOL0     H78239   2.680   4.526   0.973 -2.3857  2.3588 -1.9262
  580MOL0     H78240   2.683   4.511   1.155 -2.1422  2.3458  1.6334
  580MOL0     H78241   2.540   4.726   0.989 -0.4284  1.7384  0.1123
  580MOL0     H78242   2.529   4.715   1.166 -0.8998  2.2434 -1.2941
  580MOL0     H78243   2.790   4.742   1.002  0.6956 -0.0718 -0.0056
  580MOL0     H78244   2.696   4.879   1.058  4.1322  1.5555  0.1275
  580MOL0     H78245   2.711   4.754   1.303 -1.2447  0.0956 -0.6863
  580MOL0     H78246   2.840   4.669   1.223 -0.1004 -0.7291 -1.0231
  580MOL0     H78247   2.841   4.978   1.215 -1.4233  0.3181  2.9047
  580MOL0     H78248   2.970   4.873   1.167  0.2648 -0.3895  0.5010
  580MOL0     H78249   2.862   4.889   1.450 -0.6781 -1.4446 -1.1432
  580MOL0     H78250   2.964   4.758   1.390 -4.9460 -0.5657  1.0697
  580MOL0     H78251   2.967   5.150   1.441  1.1469  0.8472  2.2162
  580MOL0     H78252   3.138   5.274   1.627  0.3294  0.8735 -0.8902
  580MOL0     H78253   3.309   5.235   1.596  1.4594 -2.1629 -4.1161
  580MOL0     H78254   3.257   5.284   1.348 -1.6882 -2.2159  0.0599
  580MOL0     H78255   3.114   5.373   1.400  0.2501  1.0930 -0.7015
  580MOL0     H78256   3.378   5.421   1.524 -0.8936 -0.3506  1.2271
  580MOL0     H78257   3.254   5.518   1.558  1.3411  2.8776 -1.1928
  580MOL0     H78258   3.265   5.633   1.328 -0.6480 -0.8200  0.6821
  580MOL0     H78259   3.401   5.525   1.297 -1.7369 -2.8616 -0.1376
  580MOL0     H78260   3.587   5.800   1.617 -2.2252 -0.1133 -2.8692
  580MOL0     H78261   3.821   5.753   1.668 -1.2052  2.1017 -1.3529
  580MOL0     H78262   4.263   5.698   1.575 -2.5745  0.5158  0.6852
  580MOL0     H78263   4.495   5.630   1.635  0.2130  0.3902  1.1486
  580MOL0     H78264   4.565   5.524   2.019  1.1508  0.6764 -0.1268
  580MOL0     H78265   4.540   5.348   1.989  0.3289 -0.2077  0.7733
  580MOL0     H78266   4.774   5.383   2.073 -1.0634  1.1130  0.3626
  580MOL0     H78267   4.770   5.337   1.904  1.7342  0.9944 -0.5690
  580MOL0     H78268   4.941   5.507   1.966  0.1024 -1.2536  0.6534
  580MOL0     H78269   4.858   5.516   1.817  1.7621  1.0881  0.3349
  580MOL0     H78270   4.779   5.678   2.079 -1.4039  0.6783  0.0095
  580MOL0     H78271   4.702   5.698   1.930 -1.6846 -1.3621  1.9408
  580MOL0     H78272   4.901   5.793   1.824 -2.1977 -0.1276  0.2139
  580MOL0     H78273   4.992   5.722   1.962 -2.0731 -4.9790  1.8420
  580MOL0     H78274   4.755   5.907   1.976  0.0591  0.2369 -3.1216
  580MOL0     H78275   4.883   5.916   2.098 -0.2703 -0.5939 -0.4936
  580MOL0     H78276   4.876   6.017   1.817  3.3800 -0.4381 -1.4822
  580MOL0     H78277   5.034   6.006   1.905  0.7522 -0.6347 -1.5358
  580MOL0     H78278   4.921   6.234   1.918  1.9036 -0.6714 -0.5564
  580MOL0     H78279   4.789   6.161   2.003  0.9765  1.1498  0.0725
  580MOL0     H78280   4.322   5.359   1.933  2.1871 -0.4193  0.0233
  580MOL0     H78281   4.106   5.419   1.856  2.0176 -1.3908 -0.5295
  580MOL0     H78282   3.809   5.411   1.399 -1.7632  1.0453 -2.9029
  580MOL0     H78283   3.582   5.483   1.334  0.3631  1.2785 -0.7797
  580MOL0     H78284   2.102   4.171   0.967  3.1387  1.3117 -1.1995
  580MOL0     H78285   1.918   4.140   1.107  2.0718  0.5032 -3.4330
  580MOL0     H78286   1.691   4.337   1.474  0.7994  0.9398  2.1672
  580MOL0     H78287   1.464   4.338   1.581 -1.2223 -0.0746  4.7935
  580MOL0     H78288   1.232   4.133   1.892 -0.0352  1.0523 -0.0976
  580MOL0     H78289   1.389   4.075   1.909 -0.3379  1.9739 -0.3014
  580MOL0     H78290   1.260   3.889   1.842 -1.5346  1.3736  0.4080
  580MOL0     H78291   1.345   3.927   1.688 -2.4416 -2.4033 -0.5320
  580MOL0     H78292   1.124   3.879   1.632 -0.6664  0.4574  0.5722
  580MOL0     H78293   1.137   4.056   1.618 -1.7360  0.1290  0.3364
  580MOL0     H78294   1.018   3.918   1.878  1.6959  0.4824  1.1491
  580MOL0     H78295   1.011   4.090   1.831 -0.8798 -0.1420 -3.0631
  580MOL0     H78296   0.708   3.970   1.579 -0.7001 -0.5592 -1.4431
  580MOL0     H78297   1.548   3.979   1.784  0.5041 -2.2567 -1.0056
  580MOL0     H78298   1.823   3.913   1.787 -3.3070  0.3169  0.7183
  580MOL0     H78299   1.715   3.840   1.669 -1.2643  0.4016 -0.4856
  580MOL0     H78300   1.871   3.907   1.616 -1.8084 -0.2897 -2.3555
  581MOL0     O78301   0.337  10.219  10.746  0.8059  0.2464 -1.2709
  581MOL0     C78302   0.330  10.334  10.691 -0.1276 -0.0578  0.5262
  581MOL0     O78303   0.436  10.416  10.674  0.4057 -0.0746  0.3263
  581MOL0     C78304   0.559  10.358  10.685  0.1556  0.7060  0.3373
  581MOL0     C78305   0.660  10.411  10.603 -0.0330  0.9921  0.0402
  581MOL0     C78306   0.791  10.368  10.603  0.3384  0.2062 -0.3873
  581MOL0     C78307   0.828  10.264  10.679 -0.1984  0.2275 -0.5296
  581MOL0     O78308   0.963  10.229  10.692  0.4395 -0.2341  0.9194
  581MOL0     C78309   1.005  10.125  10.779  0.1923 -0.4059  0.0083
  581MOL0     C78310   1.152  10.096  10.747  0.0652  0.3855  0.2766
  581MOL0     C78311   1.174  10.042  10.610  0.1893  0.4553  0.1071
  581MOL0     C78312   1.319  10.006  10.595  0.1550 -0.6186  0.8223
  581MOL0     C78313   1.351   9.933  10.469  0.7295 -0.3894 -0.0557
  581MOL0     C78314   1.380  10.020  10.332  0.1757  0.4463 -0.3866
  581MOL0     C78315   1.392   9.929  10.213 -1.0680 -0.4917  0.8202
  581MOL0     C78316   1.530   9.860  10.202  0.3751 -0.0476  0.0124
  581MOL0     N78317   1.643   9.937  10.246 -0.2452  0.5105 -0.1034
  581MOL0     C78318   1.743   9.883  10.322 -0.0402 -0.4886 -0.0783
  581MOL0     C78319   1.845   9.979  10.330  0.4329 -1.1510 -0.2546
  581MOL0     C78320   1.981   9.974  10.398 -0.3211 -0.7227 -0.0520
  581MOL0     C78321   2.057   9.857  10.335 -0.2387  0.2652 -0.0041
  581MOL0     C78322   2.209   9.867  10.360  0.2935 -0.4071 -0.3246
  581MOL0     C78323   2.253   9.868  10.509 -0.1634  0.5817  0.1287
  581MOL0     O78324   2.386   9.938  10.503 -0.0364  0.2392 -0.4465
  581MOL0     C78325   2.502   9.858  10.502  1.0544 -0.3234 -0.3716
  581MOL0     C78326   2.621   9.931  10.525  0.6494  0.2321  0.0622
  581MOL0     C78327   2.747   9.873  10.517 -0.1443 -0.3606 -0.6972
  581MOL0     C78328   2.759   9.734  10.490 -0.6361 -0.4664 -0.6779
  581MOL0     C78329   2.891   9.682  10.492  0.4390  0.3310  0.7238
  581MOL0     O78330   2.998   9.768  10.517 -0.8383 -0.6054 -0.3007
  581MOL0     C78331   3.131   9.738  10.494  0.0141 -0.7674  0.1675
  581MOL0     C78332   3.214   9.833  10.548  0.2924  0.0359  0.9339
  581MOL0     C78333   3.356   9.823  10.535  0.2334  0.6588 -0.8734
  581MOL0     C78334   3.413   9.711  10.464 -1.2873 -0.1519 -1.1461
  581MOL0     O78335   3.556   9.690  10.437 -0.0401 -0.3716  0.1121
  581MOL0     C78336   3.629   9.813  10.416  0.0388 -0.4053  0.4796
  581MOL0     C78337   3.722   9.837  10.537  0.3933 -0.6596  0.4081
  581MOL0     C78338   3.826   9.736  10.538 -0.0282  1.0632  0.7076
  581MOL0     C78339   3.945   9.759  10.644  0.5658 -0.8538 -0.1249
  581MOL0     C78340   4.067   9.671  10.644  0.0881  0.3158  0.6317
  581MOL0     C78341   4.153   9.686  10.520 -0.5587  0.2190  0.4454
  581MOL0     C78342   4.257   9.581  10.510  0.1476  0.1516 -0.5217
  581MOL0     C78343   4.360   9.629  10.402  0.3635 -0.6604  0.1914
  581MOL0    Cl78344   4.509   9.716  10.446 -0.1160  0.1622 -0.1165
  581MOL0     C78345   3.323   9.613  10.420  0.3390 -0.8124  0.3585
  581MOL0     C78346   3.188   9.622  10.430  0.4889  0.0740 -0.9694
  581MOL0     O78347   2.894   9.561  10.472 -0.3594 -0.0334 -0.0356
  581MOL0     C78348   2.635   9.660  10.469 -0.3652 -0.0270  0.4508
  581MOL0     C78349   2.508   9.718  10.469 -0.2798 -0.4231  0.8850
  581MOL0     N78350   1.794  10.090  10.263 -1.3687 -0.2153 -0.0656
  581MOL0     N78351   1.682  10.059  10.201 -0.2703 -0.3475 -0.3793
  581MOL0     C78352   0.729  10.205  10.763  0.1147 -0.4358 -0.2960
  581MOL0     C78353   0.596  10.255  10.778  0.7361  0.7106 -0.3562
  581MOL0     C78354   0.202  10.375  10.647 -0.1229  0.7770  0.0014
  581MOL0     C78355   0.086  10.322  10.711  0.9723 -0.4252  0.4430
  581MOL0     C78356  -0.048  10.368  10.681 -0.4318  0.2892 -0.2335
  581MOL0     C78357  -0.068  10.466  10.583  0.4227 -0.3173 -0.1182
  581MOL0     O78358  -0.190  10.510  10.535 -1.0532  0.0226  0.3233
  581MOL0     C78359  -0.303  10.443  10.583  0.7373 -0.0482  0.5955
  581MOL0     C78360  -0.419  10.512  10.512 -0.2065  0.0586  0.5255
  581MOL0     C78361  -0.562  10.469  10.559 -0.7653  0.4792 -0.5784
  581MOL0     C78362  -0.665  10.566  10.510 -0.6801 -0.2911  0.4263
  581MOL0     C78363  -0.802  10.525  10.547 -0.2902  0.3042 -0.0791
  581MOL0     C78364  -0.914  10.483  10.567  0.0255 -0.5164  0.7239
  581MOL0     C78365   0.048  10.518  10.521  0.3345  0.5961 -0.6371
  581MOL0     C78366   0.180  10.471  10.544  0.0111 -1.0178 -0.0907
  581MOL0     C78367   0.292  10.539  10.463 -1.0705 -0.7094 -0.6492
  581MOL0     H78368   0.635  10.479  10.523 -2.3268 -0.7531 -0.8307
  581MOL0     H78369   0.864  10.402  10.531  0.2639  1.2643  0.0114
  581MOL0     H78370   0.998  10.150  10.885  1.4719 -1.6902  0.4251
  581MOL0     H78371   0.954  10.030  10.761  0.3042 -0.7820  1.5455
  581MOL0     H78372   1.175  10.028  10.830 -2.2333 -0.2360  0.4763
  581MOL0     H78373   1.207  10.189  10.764 -1.0762  1.6843 -2.5596
  581MOL0     H78374   1.134  10.107  10.532 -3.7799 -3.2319 -1.3826
  581MOL0     H78375   1.124   9.945  10.603  2.6419 -1.2406  3.5267
  581MOL0     H78376   1.391  10.088  10.599  0.4453 -0.9100  2.0131
  581MOL0     H78377   1.343   9.953  10.687 -1.8505  0.8470  2.2740
  581MOL0     H78378   1.436   9.865  10.483 -0.6152 -1.7237  2.2928
  581MOL0     H78379   1.267   9.866  10.449  1.9485 -2.0799  0.2660
  581MOL0     H78380   1.289  10.081  10.321  0.6377  0.9711 -1.4172
  581MOL0     H78381   1.465  10.086  10.346  2.4813 -2.9062  3.8854
  581MOL0     H78382   1.377   9.997  10.129  0.1639  2.7323  2.9864
  581MOL0     H78383   1.321   9.846  10.213  1.7181 -3.0698  0.1400
  581MOL0     H78384   1.540   9.772  10.266  5.4509  0.1548 -0.1085
  581MOL0     H78385   1.545   9.830  10.097  0.9741 -0.1403  0.1213
  581MOL0     H78386   1.751   9.777  10.344 -1.8829 -0.9479 -1.3094
  581MOL0     H78387   2.020  10.076  10.395  0.0588 -0.8323  0.8026
  581MOL0     H78388   1.954   9.951  10.502 -1.1545 -4.3998 -0.9299
  581MOL0     H78389   2.021   9.762  10.375 -1.8979  1.2215  0.8699
  581MOL0     H78390   2.036   9.852  10.228 -0.3617 -2.8775  0.0869
  581MOL0     H78391   2.234   9.965  10.318  1.8929 -0.9958 -0.8420
  581MOL0     H78392   2.269   9.794  10.306  1.4352  0.0087  0.3414
  581MOL0     H78393   2.270   9.769  10.553  2.0993 -0.6242 -3.0799
  581MOL0     H78394   2.185   9.928  10.570  0.6017  2.4348 -0.7816
  581MOL0     H78395   2.619  10.037  10.546  2.3092  0.2108  0.3816
  581MOL0     H78396   2.831   9.941  10.527  0.6798 -1.4518  0.1123
  581MOL0     H78397   3.168   9.922  10.590 -0.1147  0.1348  0.2866
  581MOL0     H78398   3.416   9.905  10.571  2.0297  0.3442 -2.9449
  581MOL0     H78399   3.687   9.808  10.323  2.9833  0.7325  2.1396
  581MOL0     H78400   3.559   9.898  10.421 -1.7127 -1.7429 -0.1616
  581MOL0     H78401   3.773   9.932  10.524  1.9965 -1.2809  1.7205
  581MOL0     H78402   3.666   9.842  10.631  1.8439  2.6648  1.2433
  581MOL0     H78403   3.786   9.636  10.558 -0.8854  0.8097 -1.8297
  581MOL0     H78404   3.873   9.738  10.439  1.3104  2.1039  1.3407
  581MOL0     H78405   3.896   9.758  10.741 -1.0568 -0.6100 -0.9151
  581MOL0     H78406   3.974   9.864  10.633 -2.4608  0.2282  1.2464
  581MOL0     H78407   4.039   9.567  10.662  0.7960  0.3750  2.2793
  581MOL0     H78408   4.122   9.701  10.733 -0.7024  1.7999  0.6581
  581MOL0     H78409   4.093   9.686  10.428  0.5879 -2.0065 -0.3833
  581MOL0     H78410   4.183   9.791  10.529 -0.5895  0.4314 -1.4758
  581MOL0     H78411   4.202   9.493  10.475 -0.8631  0.7604 -0.4932
  581MOL0     H78412   4.311   9.558  10.602 -1.0241  0.4307  0.2536
  581MOL0     H78413   4.389   9.544  10.340 -0.3207 -0.8749  0.1576
  581MOL0     H78414   4.309   9.701  10.338  2.4711  2.6694  1.9720
  581MOL0     H78415   3.373   9.527  10.378  0.8138  0.2212 -1.2760
  581MOL0     H78416   3.126   9.540  10.394 -0.9634  0.1491  1.2047
  581MOL0     H78417   2.648   9.556  10.442  2.8817  0.0787  1.2494
  581MOL0     H78418   2.419   9.660  10.444 -1.4142  1.4360  0.4394
  581MOL0     H78419   0.757  10.125  10.831  2.3291 -0.4649 -1.1720
  581MOL0     H78420   0.538  10.225  10.864  0.9489  1.6474  0.1244
  581MOL0     H78421   0.098  10.248  10.788  0.0397  0.6008  1.6234
  581MOL0     H78422  -0.138  10.335  10.731 -0.5107  1.2840  0.3095
  581MOL0     H78423  -0.312  10.446  10.692  3.0688 -3.5225  1.0271
  581MOL0     H78424  -0.292  10.337  10.558  3.8589 -0.0975  1.7745
  581MOL0     H78425  -0.414  10.479  10.408 -0.2464  2.4006 -0.2770
  581MOL0     H78426  -0.405  10.620  10.517 -0.3881  0.0969  0.2098
  581MOL0     H78427  -0.544  10.473  10.667  3.4923 -1.5249 -1.0022
  581MOL0     H78428  -0.572  10.367  10.522  4.0786 -0.5862  0.4194
  581MOL0     H78429  -0.649  10.663  10.557  1.1110 -0.6131  0.5616
  581MOL0     H78430  -0.655  10.570  10.401 -0.2708  0.6663  0.4852
  581MOL0     H78431  -1.008  10.438  10.590 -1.0028  1.0783 -0.1124
  581MOL0     H78432   0.029  10.586  10.439 -1.6022 -0.5654 -1.2182
  581MOL0     H78433   0.369  10.465  10.440  1.1500  1.6632 -1.2888
  581MOL0     H78434   0.257  10.578  10.366 -1.0872  1.3351  0.1202
  581MOL0     H78435   0.349  10.615  10.516  1.6032 -1.5030 -2.2234
  582MOL0     O78436   6.165   4.620   3.343 -0.1050 -0.4987 -1.1675
  582MOL0     C78437   6.146   4.499   3.368 -0.2563 -0.0868 -0.3881
  582MOL0     O78438   6.237   4.415   3.430  0.6239  0.3688  0.6106
  582MOL0     C78439   6.361   4.465   3.466  0.1220 -0.1347  0.3961
  582MOL0     C78440   6.387   4.515   3.593  0.6916 -0.7907  0.2954
  582MOL0     C78441   6.513   4.559   3.620 -0.6509  0.1005 -0.1016
  582MOL0     C78442   6.614   4.552   3.520  0.1631  0.4093 -0.2985
  582MOL0     O78443   6.735   4.604   3.560  0.1880  0.4357 -0.2704
  582MOL0     C78444   6.852   4.568   3.493 -0.8173  0.5397 -0.2353
  582MOL0     C78445   6.972   4.617   3.579 -0.1998  0.2736 -0.2613
  582MOL0     C78446   6.967   4.570   3.727 -0.7586  0.6472  0.4638
  582MOL0     C78447   7.110   4.583   3.785  0.1813 -0.3503  0.8350
  582MOL0     C78448   7.093   4.632   3.927  0.6213  0.7924 -0.2117
  582MOL0     C78449   7.019   4.530   4.011  0.4537 -0.9284 -0.1532
  582MOL0     C78450   7.002   4.580   4.156 -0.3022 -0.0929 -0.3462
  582MOL0     C78451   6.881   4.666   4.182  1.2772  0.2946 -0.1501
  582MOL0     N78452   6.759   4.587   4.175  0.2656  0.7614  0.2273
  582MOL0     C78453   6.679   4.572   4.064 -0.2607 -0.8692  0.0029
  582MOL0     C78454   6.577   4.478   4.091 -0.2874 -0.1795  0.6140
  582MOL0     C78455   6.463   4.449   3.998 -0.1622 -0.4495 -0.8347
  582MOL0     C78456   6.328   4.437   4.073  0.4241 -0.4069  0.5555
  582MOL0     C78457   6.230   4.371   3.970  1.0448  0.1794 -0.7865
  582MOL0     C78458   6.082   4.403   3.999  0.6543  0.5414 -0.5842
  582MOL0     O78459   6.047   4.372   4.136  0.0739  0.2602 -0.5084
  582MOL0     C78460   5.911   4.373   4.171 -0.5103  0.5256  0.5879
  582MOL0     C78461   5.822   4.434   4.095  0.0191  1.2052  0.9285
  582MOL0     C78462   5.683   4.422   4.126  0.0776 -0.7876 -0.5726
  582MOL0     C78463   5.640   4.336   4.223  0.2861 -0.1993  0.8063
  582MOL0     C78464   5.494   4.323   4.248  1.0852 -0.5863 -0.5289
  582MOL0     O78465   5.458   4.268   4.371 -0.5522 -1.2945  0.0867
  582MOL0     C78466   5.328   4.234   4.381  0.0765 -0.6463  0.3466
  582MOL0     C78467   5.284   4.112   4.337  0.7056  0.5754 -0.4147
  582MOL0     C78468   5.145   4.071   4.341  0.7581 -0.6706 -0.2140
  582MOL0     C78469   5.052   4.157   4.403  0.1724 -0.4931 -0.5115
  582MOL0     O78470   4.916   4.124   4.399  0.5307  0.6186 -0.2372
  582MOL0     C78471   4.813   4.203   4.461 -0.4229 -0.2741  0.4091
  582MOL0     C78472   4.690   4.129   4.437  0.8356 -0.1390  0.8341
  582MOL0     C78473   4.682   3.981   4.465  0.4861  0.4878  0.0726
  582MOL0     C78474   4.544   3.913   4.451 -0.0194 -0.2941  0.3260
  582MOL0     C78475   4.558   3.763   4.444  0.0353 -0.3128 -0.9664
  582MOL0     C78476   4.425   3.688   4.470 -0.1439  0.2174 -0.0452
  582MOL0     C78477   4.309   3.716   4.372 -0.2280 -0.5007  0.2107
  582MOL0     C78478   4.337   3.725   4.223 -0.1613  0.3239  0.5243
  582MOL0    Cl78479   4.431   3.579   4.176 -0.1752 -0.4917  0.4893
  582MOL0     C78480   5.091   4.287   4.435 -0.4756 -0.1968 -0.4732
  582MOL0     C78481   5.230   4.328   4.422  0.8119  0.2698  0.4008
  582MOL0     O78482   5.414   4.358   4.151  0.3943  0.0619 -0.4048
  582MOL0     C78483   5.737   4.282   4.306  0.1895  0.5913 -0.2462
  582MOL0     C78484   5.871   4.300   4.279 -0.9659  1.1490 -1.0721
  582MOL0     N78485   6.599   4.441   4.219  0.4698 -0.3798  0.7790
  582MOL0     N78486   6.701   4.499   4.267  0.2141  0.4496 -0.1293
  582MOL0     C78487   6.591   4.504   3.390 -0.2763 -0.8460 -0.6370
  582MOL0     C78488   6.460   4.473   3.360  0.5786  0.2176 -0.6422
  582MOL0     C78489   6.016   4.441   3.322  0.5431  0.7596  0.0275
  582MOL0     C78490   6.013   4.303   3.292  0.5003  0.3734 -0.7752
  582MOL0     C78491   5.897   4.247   3.238  0.4010 -0.7857  0.1680
  582MOL0     C78492   5.773   4.322   3.231 -0.2773  0.2545  0.3246
  582MOL0     O78493   5.648   4.275   3.189 -0.4178  0.5439  0.1636
  582MOL0     C78494   5.641   4.134   3.152  0.7002 -0.4402 -0.5862
  582MOL0     C78495   5.679   4.101   3.008  0.5000  0.4431  0.2801
  582MOL0     C78496   5.600   4.181   2.911 -0.4351  0.1218  1.0726
  582MOL0     C78497   5.685   4.215   2.798 -0.4807 -0.6131  0.3752
  582MOL0     C78498   5.607   4.307   2.703  0.2275 -0.6829 -0.3885
  582MOL0     C78499   5.541   4.364   2.619 -0.7848  0.6430 -0.1471
  582MOL0     C78500   5.778   4.451   3.270 -0.5743  0.1575  0.8605
  582MOL0     C78501   5.894   4.517   3.309 -0.3435  0.0124 -0.5285
  582MOL0     C78502   5.893   4.668   3.329  0.1830  0.1934  0.4325
  582MOL0     H78503   6.313   4.511   3.672 -0.0091  0.6893 -0.2506
  582MOL0     H78504   6.520   4.616   3.712 -0.4049 -0.2789  0.1153
  582MOL0     H78505   6.845   4.462   3.468 -1.6828 -0.0047  2.1082
  582MOL0     H78506   6.858   4.627   3.400  1.3281  1.5389  0.4746
  582MOL0     H78507   6.974   4.726   3.577 -2.3969  0.3527 -2.3103
  582MOL0     H78508   7.069   4.593   3.536  0.3111 -1.9407  1.8808
  582MOL0     H78509   6.941   4.464   3.727 -0.2910  0.5293  0.1499
  582MOL0     H78510   6.894   4.623   3.789 -1.1852 -1.5064  1.8830
  582MOL0     H78511   7.167   4.491   3.776  0.4074 -0.1937  0.6379
  582MOL0     H78512   7.177   4.652   3.732 -0.6238  1.5450  2.1469
  582MOL0     H78513   7.191   4.646   3.974 -0.3270  1.5172  1.6881
  582MOL0     H78514   7.034   4.724   3.928 -3.6725 -1.6968 -0.3488
  582MOL0     H78515   6.918   4.515   3.970  0.6019 -3.0574  0.1605
  582MOL0     H78516   7.071   4.434   4.011 -0.3551 -1.3848 -0.4559
  582MOL0     H78517   7.088   4.647   4.165 -1.3527  1.4842 -1.5126
  582MOL0     H78518   7.001   4.495   4.225 -1.7703  1.0080  1.0542
  582MOL0     H78519   6.886   4.702   4.285 -1.4468 -0.4730  0.3096
  582MOL0     H78520   6.879   4.759   4.126  0.2830 -1.5254 -3.3499
  582MOL0     H78521   6.695   4.612   3.965  0.7038  2.2494  1.2665
  582MOL0     H78522   6.459   4.526   3.921 -2.2756 -1.2675 -1.6308
  582MOL0     H78523   6.488   4.352   3.956  0.3001 -1.0321  0.7174
  582MOL0     H78524   6.343   4.374   4.161 -0.1223 -0.9165  0.2921
  582MOL0     H78525   6.286   4.531   4.110 -0.8393  0.9205 -3.6557
  582MOL0     H78526   6.244   4.262   3.966 -0.3014 -0.0198 -0.5427
  582MOL0     H78527   6.254   4.412   3.871 -0.6568  2.0482 -0.4846
  582MOL0     H78528   6.023   4.337   3.935 -1.7009  1.6361  0.3546
  582MOL0     H78529   6.068   4.508   3.971  2.8947 -0.1366 -5.2126
  582MOL0     H78530   5.850   4.479   4.001  0.2411 -2.5922 -1.0027
  582MOL0     H78531   5.608   4.476   4.068 -0.0711  0.9831  1.1589
  582MOL0     H78532   5.367   4.048   4.307  1.8044  1.8075 -0.0707
  582MOL0     H78533   5.117   3.985   4.281  5.3819 -1.7938 -1.1779
  582MOL0     H78534   4.831   4.207   4.569 -0.8649  2.3831  0.4432
  582MOL0     H78535   4.820   4.298   4.407  0.8302 -0.7381 -0.2923
  582MOL0     H78536   4.612   4.184   4.491 -1.0207  0.5278 -2.2584
  582MOL0     H78537   4.651   4.143   4.336 -0.9995 -2.6222  1.0888
  582MOL0     H78538   4.753   3.934   4.396 -0.2514  1.4868 -1.4078
  582MOL0     H78539   4.710   3.963   4.570 -0.0876  0.2398  0.1859
  582MOL0     H78540   4.495   3.936   4.356  1.6357 -0.6406 -0.6639
  582MOL0     H78541   4.488   3.953   4.536 -1.0133  0.3745 -0.6140
  582MOL0     H78542   4.633   3.721   4.511 -0.8871  1.2475  1.1531
  582MOL0     H78543   4.597   3.759   4.341  0.2740  5.7902 -1.5087
  582MOL0     H78544   4.449   3.582   4.479  0.2791  0.4785  2.7389
  582MOL0     H78545   4.394   3.718   4.570 -0.6421 -1.5130  0.3474
  582MOL0     H78546   4.266   3.815   4.394  0.6757  0.3405 -1.5726
  582MOL0     H78547   4.237   3.634   4.381 -0.5141 -0.1870  0.9021
  582MOL0     H78548   4.245   3.733   4.165  0.8941  0.7426 -1.1672
  582MOL0     H78549   4.392   3.816   4.198  1.5491 -0.6035  0.6932
  582MOL0     H78550   5.017   4.358   4.469 -2.7791 -1.4767 -2.4719
  582MOL0     H78551   5.260   4.427   4.452  0.1675  0.7913 -0.6242
  582MOL0     H78552   5.713   4.235   4.401  1.5978 -3.5636 -1.7539
  582MOL0     H78553   5.950   4.264   4.344 -1.0086 -0.8737 -2.0748
  582MOL0     H78554   6.666   4.506   3.311  0.2737 -0.4162 -0.1078
  582MOL0     H78555   6.437   4.434   3.261  0.2822  0.4644 -0.6738
  582MOL0     H78556   6.104   4.244   3.294  0.7954  0.7726 -1.8071
  582MOL0     H78557   5.907   4.140   3.221  0.2600 -0.5123 -1.8638
  582MOL0     H78558   5.537   4.099   3.159 -1.2836  4.7761  2.9358
  582MOL0     H78559   5.692   4.074   3.228 -1.9640  2.3896  3.9069
  582MOL0     H78560   5.670   3.994   2.986 -1.2944  1.3541 -4.8127
  582MOL0     H78561   5.785   4.123   2.992  0.3627  1.5278  0.7826
  582MOL0     H78562   5.547   4.269   2.946 -2.7538 -1.3914  1.5701
  582MOL0     H78563   5.520   4.111   2.885  1.3080 -2.8551  3.1003
  582MOL0     H78564   5.769   4.276   2.833 -1.3616  0.2010  1.1169
  582MOL0     H78565   5.720   4.125   2.747 -0.4763 -1.0782  1.1858
  582MOL0     H78566   5.480   4.412   2.545 -0.1614  0.3707 -0.8528
  582MOL0     H78567   5.692   4.515   3.253  1.0071  2.5333  1.1667
  582MOL0     H78568   5.795   4.715   3.318  1.3406  2.8393  0.6464
  582MOL0     H78569   5.933   4.698   3.426  0.6400  2.1510 -0.3150
  582MOL0     H78570   5.950   4.713   3.248 -2.7684 -0.0647 -1.9594
  583MOL0     O78571   7.056   8.521   4.080 -0.8533  0.3620 -0.3143
  583MOL0     C78572   7.123   8.561   3.987 -0.2787 -0.4919 -0.5501
  583MOL0     O78573   7.081   8.587   3.867  0.9271 -0.6331 -0.1540
  583MOL0     C78574   6.941   8.572   3.851 -0.3455  0.0458  0.5244
  583MOL0     C78575   6.889   8.444   3.854 -0.5712 -0.3014  0.1768
  583MOL0     C78576   6.754   8.424   3.815 -1.1013  0.3184 -0.5340
  583MOL0     C78577   6.677   8.530   3.773  0.1325  0.6262  0.4603
  583MOL0     O78578   6.542   8.499   3.741 -0.6646 -0.4169 -1.0507
  583MOL0     C78579   6.440   8.600   3.758  0.3464 -0.5311  0.2272
  583MOL0     C78580   6.388   8.588   3.897  0.0913 -0.2899 -0.6993
  583MOL0     C78581   6.284   8.701   3.903 -0.3106  0.5239  0.3063
  583MOL0     C78582   6.224   8.713   4.044 -0.8891  0.4547 -0.6752
  583MOL0     C78583   6.128   8.827   4.070  0.1683  0.0943 -0.8724
  583MOL0     C78584   6.004   8.834   3.984 -0.2775  0.6830  0.1589
  583MOL0     C78585   5.891   8.917   4.028 -0.2312  0.4598  0.4481
  583MOL0     C78586   5.830   8.830   4.136  0.0148 -1.1776  0.2558
  583MOL0     N78587   5.689   8.870   4.142  0.1633 -0.7031  0.3029
  583MOL0     C78588   5.635   9.000   4.159  0.6595  0.5284  0.0729
  583MOL0     C78589   5.507   8.983   4.106 -0.7465 -0.3973 -0.6154
  583MOL0     C78590   5.402   9.085   4.092 -0.4205  0.6155  0.2498
  583MOL0     C78591   5.426   9.158   3.950  0.3874 -0.3176  0.0245
  583MOL0     C78592   5.519   9.278   3.975 -0.0590 -0.1170  0.2467
  583MOL0     C78593   5.574   9.340   3.844 -0.5729  0.5188 -0.6384
  583MOL0     O78594   5.660   9.237   3.783  0.9515  0.4637 -0.1068
  583MOL0     C78595   5.784   9.223   3.824 -0.5869 -0.1452 -0.4962
  583MOL0     C78596   5.865   9.135   3.747 -0.1278  1.2869 -0.1712
  583MOL0     C78597   6.001   9.120   3.775 -0.1669 -0.5237  0.4416
  583MOL0     C78598   6.068   9.188   3.882  0.1431 -0.6046  0.2330
  583MOL0     C78599   6.208   9.166   3.904  0.2936 -0.3868  0.3601
  583MOL0     O78600   6.279   9.119   3.796 -0.5421  0.4414  0.0539
  583MOL0     C78601   6.419   9.115   3.795  0.2698 -0.4612 -0.0392
  583MOL0     C78602   6.477   9.041   3.693 -0.4437  0.1321  0.0972
  583MOL0     C78603   6.614   9.018   3.679 -0.4975  0.6001  0.4776
  583MOL0     C78604   6.697   9.067   3.782  0.1123  0.5693 -0.8249
  583MOL0     O78605   6.826   9.018   3.784 -0.4055  0.3041  0.3455
  583MOL0     C78606   6.929   9.086   3.863 -0.1775  0.7549  0.2461
  583MOL0     C78607   7.060   9.004   3.860 -0.2190  1.1080 -0.1774
  583MOL0     C78608   7.177   9.088   3.912 -0.5860 -0.5026  0.2528
  583MOL0     C78609   7.293   8.995   3.897 -0.5960  0.2246  0.1783
  583MOL0     C78610   7.422   9.057   3.958  0.0652 -0.1008 -0.3554
  583MOL0     C78611   7.530   8.961   3.993  0.8318 -0.3059 -0.6899
  583MOL0     C78612   7.666   9.023   4.018  0.8159  0.4809  0.2503
  583MOL0     C78613   7.770   8.913   4.016  0.9779  0.5422  0.2801
  583MOL0    Cl78614   7.929   8.985   4.020 -0.0959 -0.3902 -0.0402
  583MOL0     C78615   6.646   9.162   3.874  0.9576  0.7952 -1.2061
  583MOL0     C78616   6.504   9.177   3.889 -0.5605 -0.2283 -0.1210
  583MOL0     O78617   6.253   9.195   4.015 -0.5441 -0.0604 -0.3597
  583MOL0     C78618   5.991   9.275   3.960  0.5050  0.4145 -0.4872
  583MOL0     C78619   5.848   9.288   3.935 -0.3603 -0.7013  0.0371
  583MOL0     N78620   5.486   8.852   4.067  0.0126  0.4736  0.2196
  583MOL0     N78621   5.596   8.787   4.074  0.5884 -0.2212 -0.3092
  583MOL0     C78622   6.732   8.656   3.770  0.1428 -0.6776 -0.5824
  583MOL0     C78623   6.861   8.683   3.814 -0.7965 -0.7395  0.1278
  583MOL0     C78624   7.268   8.568   4.002 -0.3232  0.6051 -0.0196
  583MOL0     C78625   7.344   8.593   3.887  0.1822 -0.0640 -0.7100
  583MOL0     C78626   7.485   8.590   3.885  0.7908  0.5568 -0.4557
  583MOL0     C78627   7.550   8.575   4.010  0.2705 -0.0268 -0.6270
  583MOL0     O78628   7.689   8.575   4.026 -0.6935 -0.0474  0.1497
  583MOL0     C78629   7.778   8.583   3.914  0.7163  0.5102 -0.9137
  583MOL0     C78630   7.925   8.576   3.943 -1.0547  1.2979 -0.1763
  583MOL0     C78631   7.956   8.457   4.044 -0.0872  0.6431  0.2692
  583MOL0     C78632   8.115   8.453   4.071  0.1379  0.5061 -0.6650
  583MOL0     C78633   8.142   8.361   4.178 -0.2734 -0.1103  0.5542
  583MOL0     C78634   8.173   8.284   4.270 -0.0394  0.5461 -0.6452
  583MOL0     C78635   7.480   8.563   4.123  0.3576  0.6953  0.1216
  583MOL0     C78636   7.341   8.548   4.125 -0.8073  0.3120 -0.6042
  583MOL0     C78637   7.282   8.519   4.262 -0.3395  0.3757 -0.6664
  583MOL0     H78638   6.939   8.353   3.886 -0.0969 -0.8277 -1.9175
  583MOL0     H78639   6.715   8.323   3.821  1.6577 -0.7894  1.0166
  583MOL0     H78640   6.467   8.704   3.735 -3.7091  0.6605  0.0730
  583MOL0     H78641   6.367   8.581   3.679  2.1155  0.6425 -1.8081
  583MOL0     H78642   6.470   8.595   3.970 -0.0052 -0.1734 -0.6009
  583MOL0     H78643   6.341   8.489   3.896  1.4657 -0.9939  0.4949
  583MOL0     H78644   6.209   8.679   3.827  2.3728  1.2618 -2.8045
  583MOL0     H78645   6.328   8.800   3.889 -1.0107  0.8719  0.5637
  583MOL0     H78646   6.184   8.615   4.072 -1.0646  1.0244  1.1534
  583MOL0     H78647   6.306   8.738   4.112 -1.0042 -1.1696  0.1179
  583MOL0     H78648   6.096   8.836   4.175  1.5897  2.0898 -0.5601
  583MOL0     H78649   6.180   8.923   4.065 -0.0037  0.1766 -1.1380
  583MOL0     H78650   6.040   8.867   3.886 -1.9471 -0.2590 -0.8280
  583MOL0     H78651   5.970   8.732   3.961 -2.2032  1.4417 -0.5788
  583MOL0     H78652   5.823   8.939   3.945  0.9643  0.0548 -0.6958
  583MOL0     H78653   5.923   9.014   4.066 -0.9521  2.2299 -3.0802
  583MOL0     H78654   5.836   8.721   4.135  1.6702 -1.1081 -0.3317
  583MOL0     H78655   5.885   8.866   4.224  2.0604  0.1890 -1.4920
  583MOL0     H78656   5.688   9.076   4.215  0.1063  0.3257  0.9011
  583MOL0     H78657   5.301   9.044   4.104  0.2375 -1.0375  0.3498
  583MOL0     H78658   5.408   9.154   4.177  1.1393  1.6270 -0.6184
  583MOL0     H78659   5.466   9.092   3.872  1.8738  0.3608  0.1700
  583MOL0     H78660   5.333   9.191   3.903  0.0025 -1.1740  0.1520
  583MOL0     H78661   5.607   9.249   4.034  2.0226 -0.6274 -2.8393
  583MOL0     H78662   5.451   9.351   4.019  0.5035  0.0415  0.8867
  583MOL0     H78663   5.630   9.432   3.865  0.4863  0.2973 -2.3674
  583MOL0     H78664   5.485   9.364   3.785 -0.7476  1.8044  0.0897
  583MOL0     H78665   5.823   9.087   3.659  1.5056 -2.9016  1.0686
  583MOL0     H78666   6.058   9.049   3.716  1.2396  0.4098  0.6417
  583MOL0     H78667   6.411   8.996   3.619  0.0417 -1.2129  0.4538
  583MOL0     H78668   6.648   8.954   3.599  1.2646  2.1630 -0.0784
  583MOL0     H78669   6.942   9.187   3.822  2.1826  0.0633 -0.9121
  583MOL0     H78670   6.897   9.089   3.968  1.3575 -0.0242  0.7738
  583MOL0     H78671   7.049   8.932   3.942 -2.4432  4.1426  2.4741
  583MOL0     H78672   7.077   8.962   3.761  0.0337 -0.0834  0.3565
  583MOL0     H78673   7.202   9.170   3.843 -0.0866 -1.1951 -0.4046
  583MOL0     H78674   7.161   9.126   4.013  3.8711  0.8681  0.6436
  583MOL0     H78675   7.303   8.957   3.795 -1.3171  0.8502 -0.1391
  583MOL0     H78676   7.274   8.899   3.947  1.5876 -0.4760 -0.2193
  583MOL0     H78677   7.407   9.111   4.052  1.4857 -0.4781  0.1062
  583MOL0     H78678   7.463   9.119   3.877 -0.3942  0.5903 -0.0722
  583MOL0     H78679   7.501   8.910   4.085 -1.8935  0.5636 -0.9911
  583MOL0     H78680   7.534   8.886   3.913  0.7415 -1.0802  0.0199
  583MOL0     H78681   7.677   9.084   4.108  0.4813  1.7483 -0.5480
  583MOL0     H78682   7.684   9.093   3.936  0.6001 -1.1171 -1.2162
  583MOL0     H78683   7.753   8.848   4.103  2.1442  0.5703  0.5497
  583MOL0     H78684   7.761   8.853   3.924  2.1753  0.8773 -0.0750
  583MOL0     H78685   6.705   9.205   3.954 -0.5137 -0.4178  0.6046
  583MOL0     H78686   6.466   9.253   3.956 -0.3026 -0.2554  0.0545
  583MOL0     H78687   6.032   9.324   4.048 -2.0689  0.4784  0.7422
  583MOL0     H78688   5.794   9.360   3.995  1.3752  0.2079  0.5702
  583MOL0     H78689   6.675   8.741   3.735  0.4119  0.2022  1.0339
  583MOL0     H78690   6.898   8.784   3.800 -0.5507 -0.6250  1.5376
  583MOL0     H78691   7.296   8.605   3.790 -2.0481 -2.8230 -0.0993
  583MOL0     H78692   7.554   8.609   3.804  1.2082  1.9325  0.1846
  583MOL0     H78693   7.770   8.674   3.853  2.7190  0.3137 -1.5363
  583MOL0     H78694   7.766   8.500   3.843  1.2749 -1.2361  0.9208
  583MOL0     H78695   7.960   8.674   3.977  0.3708  0.2912  1.4566
  583MOL0     H78696   7.977   8.543   3.852 -1.4995  0.8611 -0.2741
  583MOL0     H78697   7.919   8.363   4.003  2.8977 -0.3268 -0.4499
  583MOL0     H78698   7.911   8.477   4.142  2.8245  0.6987  1.6972
  583MOL0     H78699   8.171   8.420   3.983  4.2091 -0.8510  2.1511
  583MOL0     H78700   8.159   8.550   4.096  3.9477 -0.9616 -1.0450
  583MOL0     H78701   8.202   8.216   4.347  1.2409  0.8378 -0.8433
  583MOL0     H78702   7.540   8.559   4.213  1.4830  0.7797 -0.6035
  583MOL0     H78703   7.233   8.422   4.251  2.8911 -1.2036 -2.5727
  583MOL0     H78704   7.365   8.502   4.331 -0.2140  2.9997 -0.0736
  583MOL0     H78705   7.221   8.599   4.305  0.5551 -1.3122  4.3524
  584MOL0     O78706   7.315   2.136   2.666  0.5364  0.1589 -0.6158
  584MOL0     C78707   7.233   2.204   2.731 -0.4063 -0.1848  0.5190
  584MOL0     O78708   7.271   2.295   2.827  0.0425 -0.8198 -0.0330
  584MOL0     C78709   7.406   2.328   2.838 -0.0080  0.6140  0.5478
  584MOL0     C78710   7.463   2.327   2.967  1.2415 -0.4776 -0.0155
  584MOL0     C78711   7.601   2.341   2.972 -0.2936 -0.6982  0.1533
  584MOL0     C78712   7.682   2.383   2.868  0.3059 -0.4440  0.3185
  584MOL0     O78713   7.816   2.407   2.886  0.6193  1.1994  0.0915
  584MOL0     C78714   7.893   2.293   2.932  0.1730  0.0008  0.1738
  584MOL0     C78715   8.048   2.313   2.922  0.1947  0.2661 -0.3933
  584MOL0     C78716   8.112   2.170   2.935 -0.7777  0.4484  0.4404
  584MOL0     C78717   8.257   2.182   2.975 -0.0039 -0.0912 -0.6957
  584MOL0     C78718   8.328   2.054   2.955  0.1066 -0.9397  0.6656
  584MOL0     C78719   8.477   2.070   2.977  0.4717  0.4337 -0.0654
  584MOL0     C78720   8.558   1.947   2.927 -0.3566  0.4821  0.0039
  584MOL0     C78721   8.541   1.828   3.017 -0.3113  0.4581  0.3114
  584MOL0     N78722   8.642   1.719   2.991 -0.6356  0.3219 -0.3149
  584MOL0     C78723   8.667   1.659   2.866 -0.2684 -0.5537  0.1461
  584MOL0     C78724   8.781   1.588   2.884  0.5689  0.5573  0.3717
  584MOL0     C78725   8.815   1.486   2.787  0.5938 -0.5478  0.2138
  584MOL0     C78726   8.964   1.467   2.776  0.1648  0.2491  0.2949
  584MOL0     C78727   8.990   1.341   2.689 -0.1447 -0.3121  0.0526
  584MOL0     C78728   9.133   1.294   2.721  0.0006 -0.1085  0.4447
  584MOL0     O78729   9.224   1.409   2.732  0.0253  1.0579 -0.3526
  584MOL0     C78730   9.350   1.381   2.707 -0.1553 -0.1686  0.0241
  584MOL0     C78731   9.416   1.496   2.662 -0.6356 -0.2871  0.2774
  584MOL0     C78732   9.561   1.501   2.646  0.1341 -0.5565  0.2950
  584MOL0     C78733   9.638   1.375   2.654  0.2340  0.3901  0.3714
  584MOL0     C78734   9.778   1.373   2.619 -0.2898 -0.6823 -0.0899
  584MOL0     O78735   9.848   1.255   2.635 -0.4094  0.0727 -0.3427
  584MOL0     C78736   9.981   1.234   2.613 -0.6919 -0.2976  0.6057
  584MOL0     C78737  10.021   1.100   2.631  0.3276 -0.8246 -0.4019
  584MOL0     C78738  10.160   1.063   2.622  0.0556 -0.1010  0.8489
  584MOL0     C78739  10.258   1.164   2.585 -1.2057 -1.1644  0.0573
  584MOL0     O78740  10.389   1.129   2.590  0.6126  0.0336  0.5024
  584MOL0     C78741  10.500   1.219   2.574 -0.2790  0.4007 -0.3013
  584MOL0     C78742  10.617   1.138   2.635 -0.1184 -0.2300 -0.3564
  584MOL0     C78743  10.756   1.185   2.598 -0.4580 -0.0913  0.2328
  584MOL0     C78744  10.866   1.091   2.625  0.3351 -1.0480  0.1315
  584MOL0     C78745  10.854   0.944   2.580  0.2369 -0.2498  0.4847
  584MOL0     C78746  10.989   0.886   2.576 -0.2947 -0.9794 -0.2566
  584MOL0     C78747  10.998   0.732   2.550  0.0568  0.9070 -0.3342
  584MOL0     C78748  11.144   0.674   2.564 -0.1604 -0.8687  0.1753
  584MOL0    Cl78749  11.240   0.732   2.432 -0.0405 -0.0770  0.0578
  584MOL0     C78750  10.210   1.291   2.553  0.2275 -0.2552  0.3474
  584MOL0     C78751  10.075   1.327   2.571 -0.1592  0.1497 -0.1859
  584MOL0     O78752   9.824   1.482   2.591  0.0818 -0.5525  0.5175
  584MOL0     C78753   9.570   1.264   2.694  0.1966  0.2084  0.5558
  584MOL0     C78754   9.428   1.265   2.716 -0.0327  0.4369 -1.5420
  584MOL0     N78755   8.821   1.602   3.013 -0.1950 -0.5546 -0.4761
  584MOL0     N78756   8.744   1.687   3.073  0.3663 -0.3557 -0.2004
  584MOL0     C78757   7.619   2.386   2.742  0.0215  0.4294 -0.6080
  584MOL0     C78758   7.483   2.359   2.727  0.2783 -0.1470 -0.4839
  584MOL0     C78759   7.082   2.192   2.717  0.5796 -0.4202 -0.2941
  584MOL0     C78760   7.002   2.294   2.776  0.5245 -0.0453  0.0287
  584MOL0     C78761   6.863   2.298   2.756 -0.0334  0.4002  0.5061
  584MOL0     C78762   6.794   2.202   2.681 -0.7153 -0.2057  0.2110
  584MOL0     O78763   6.659   2.213   2.656 -1.0617 -0.3787 -0.0421
  584MOL0     C78764   6.585   2.086   2.648 -0.3838  0.5162 -0.3908
  584MOL0     C78765   6.572   2.042   2.500  0.4622 -0.3823 -0.0668
  584MOL0     C78766   6.527   2.163   2.416 -0.1694 -0.7351 -0.1839
  584MOL0     C78767   6.391   2.220   2.467  0.0811 -0.8718  0.1734
  584MOL0     C78768   6.280   2.129   2.425  0.6520  0.1317  0.3632
  584MOL0     C78769   6.185   2.052   2.401  0.0192  0.6595  0.5574
  584MOL0     C78770   6.879   2.097   2.626  0.2343  0.1270 -0.4109
  584MOL0     C78771   7.019   2.090   2.649 -0.0651 -0.4727 -0.2224
  584MOL0     C78772   7.093   1.960   2.612 -0.1652 -0.1196 -0.4792
  584MOL0     H78773   7.407   2.298   3.056  0.4345 -0.5196 -0.5265
  584MOL0     H78774   7.649   2.330   3.069 -0.5646  1.7703  0.6317
  584MOL0     H78775   7.866   2.266   3.034  1.3810 -2.0083  0.0091
  584MOL0     H78776   7.871   2.207   2.869  0.1020  1.4142 -1.8311
  584MOL0     H78777   8.076   2.391   2.994  0.4651 -0.3973  0.2346
  584MOL0     H78778   8.068   2.350   2.821 -0.8310  0.3521 -0.5761
  584MOL0     H78779   8.116   2.121   2.837 -0.1534  0.3629  0.5019
  584MOL0     H78780   8.059   2.113   3.011  1.7841 -2.6378  0.1193
  584MOL0     H78781   8.305   2.242   2.897  1.2050 -1.0218 -0.6970
  584MOL0     H78782   8.274   2.241   3.066 -0.0565  0.6393 -1.1477
  584MOL0     H78783   8.293   1.991   3.037 -0.7307  1.0113  1.8953
  584MOL0     H78784   8.303   2.013   2.857 -1.7340  2.5774 -0.5049
  584MOL0     H78785   8.515   2.161   2.929 -0.9473  2.2162  1.9571
  584MOL0     H78786   8.494   2.078   3.085 -0.7243 -0.7180  0.2405
  584MOL0     H78787   8.664   1.973   2.923 -0.2012 -0.3259 -1.8272
  584MOL0     H78788   8.535   1.923   2.823  3.0005 -3.0168 -0.1326
  584MOL0     H78789   8.568   1.855   3.120  0.7477  1.0463 -0.1109
  584MOL0     H78790   8.435   1.800   3.017 -0.5074  1.0119 -1.9633
  584MOL0     H78791   8.603   1.662   2.778 -4.7186  2.6124  3.0880
  584MOL0     H78792   8.766   1.393   2.819 -2.4212  1.2894  1.3674
  584MOL0     H78793   8.776   1.521   2.690 -0.3837 -2.8649 -0.3078
  584MOL0     H78794   9.010   1.562   2.746  0.9363 -0.1928  0.0670
  584MOL0     H78795   8.994   1.438   2.877 -1.6397 -0.9227  0.5477
  584MOL0     H78796   8.975   1.352   2.581  2.0503 -5.1055 -0.9815
  584MOL0     H78797   8.933   1.254   2.722 -1.5187  0.5961  0.1379
  584MOL0     H78798   9.155   1.217   2.647  2.8270  0.2129  0.8613
  584MOL0     H78799   9.135   1.244   2.818  3.0066 -1.0772 -0.0196
  584MOL0     H78800   9.365   1.591   2.647 -0.3636 -0.4356 -1.7900
  584MOL0     H78801   9.609   1.593   2.613 -1.0933  0.0746  0.1993
  584MOL0     H78802   9.948   1.023   2.657 -0.9981 -0.7841 -3.5991
  584MOL0     H78803  10.175   0.958   2.642 -1.8314 -1.1438 -2.4336
  584MOL0     H78804  10.518   1.237   2.468  0.6176 -0.0978 -0.2348
  584MOL0     H78805  10.487   1.312   2.631 -1.2694  1.7022 -2.5189
  584MOL0     H78806  10.611   1.148   2.743 -0.0573  2.8944 -0.5399
  584MOL0     H78807  10.602   1.031   2.616 -0.2075 -0.5358  1.3167
  584MOL0     H78808  10.750   1.208   2.491  3.0583 -0.1011 -0.0899
  584MOL0     H78809  10.778   1.278   2.651 -2.5333  1.7412 -1.8500
  584MOL0     H78810  10.881   1.079   2.733 -0.7757  0.3999  0.4864
  584MOL0     H78811  10.949   1.137   2.572 -2.7175 -1.3345 -5.8212
  584MOL0     H78812  10.823   0.954   2.475  1.4006 -1.9952 -0.0610
  584MOL0     H78813  10.783   0.881   2.634 -1.1285  0.1246 -0.7917
  584MOL0     H78814  11.052   0.931   2.499  1.7098 -1.3827  1.0609
  584MOL0     H78815  11.036   0.919   2.669 -0.7094 -2.9538  0.7211
  584MOL0     H78816  10.957   0.720   2.449 -0.0874  1.2047 -0.3140
  584MOL0     H78817  10.929   0.675   2.613  0.7789 -1.3534 -1.4709
  584MOL0     H78818  11.188   0.710   2.657  0.0208 -1.3224  0.2658
  584MOL0     H78819  11.139   0.565   2.561 -0.7459 -0.8802  1.2177
  584MOL0     H78820  10.274   1.367   2.511 -0.5717 -1.1159 -2.6863
  584MOL0     H78821  10.062   1.431   2.544  1.3083 -0.0538 -1.8308
  584MOL0     H78822   9.619   1.169   2.713 -2.4284 -1.2811  0.3701
  584MOL0     H78823   9.380   1.174   2.750 -1.8270  1.9768  0.2683
  584MOL0     H78824   7.686   2.386   2.657  2.3408 -0.5961  1.1095
  584MOL0     H78825   7.462   2.358   2.620  0.4968  0.1627 -0.5329
  584MOL0     H78826   7.032   2.378   2.838 -0.6000  1.3366 -1.2047
  584MOL0     H78827   6.809   2.379   2.804 -0.5242 -0.3646  1.2818
  584MOL0     H78828   6.489   2.115   2.693 -0.5133 -1.1565  0.4971
  584MOL0     H78829   6.630   2.008   2.709 -1.7217 -2.1186 -2.5693
  584MOL0     H78830   6.506   1.956   2.510  0.2946 -0.1032  1.3017
  584MOL0     H78831   6.668   2.005   2.460  1.1227 -0.0360  1.1519
  584MOL0     H78832   6.522   2.132   2.311 -0.5072 -0.9089 -0.1188
  584MOL0     H78833   6.601   2.243   2.409 -0.3232  0.2849  5.4284
  584MOL0     H78834   6.401   2.245   2.573 -2.7951 -2.2067  0.8554
  584MOL0     H78835   6.380   2.312   2.410 -0.3143  0.5225  2.3824
  584MOL0     H78836   6.100   1.988   2.388 -0.3934  1.5966 -1.9335
  584MOL0     H78837   6.849   2.013   2.564  0.7842  0.4391 -1.1182
  584MOL0     H78838   7.111   1.968   2.505 -1.3868  0.0418 -0.6835
  584MOL0     H78839   7.186   1.944   2.669  0.3919 -0.7895 -1.5390
  584MOL0     H78840   7.023   1.875   2.614  1.2448 -1.3291 -0.3345
  585MOL0     O78841   2.167   5.144   0.262 -0.6123 -0.3179 -0.2816
  585MOL0     C78842   2.124   5.133   0.149  0.0664 -0.7339 -0.2307
  585MOL0     O78843   2.196   5.156   0.043  0.2893  0.4280 -0.1734
  585MOL0     C78844   2.313   5.232   0.040 -0.3743 -0.3644  0.0430
  585MOL0     C78845   2.412   5.203  -0.052 -0.0123 -0.4313  0.3321
  585MOL0     C78846   2.534   5.271  -0.041 -0.4860 -0.3978 -0.3484
  585MOL0     C78847   2.556   5.377   0.053 -0.8083  0.7795 -0.0832
  585MOL0     O78848   2.673   5.449   0.060 -0.2566 -0.0914  0.4089
  585MOL0     C78849   2.789   5.414  -0.019  0.0610  0.4122 -0.1340
  585MOL0     C78850   2.903   5.509   0.017  0.2611 -0.5921 -0.1053
  585MOL0     C78851   3.035   5.476  -0.055  0.5765 -0.1787 -0.2252
  585MOL0     C78852   3.114   5.606  -0.095 -0.3620  0.1799  0.7174
  585MOL0     C78853   3.256   5.558  -0.139 -0.1303  0.5682  1.0029
  585MOL0     C78854   3.348   5.683  -0.167 -0.4245  0.3772 -0.1408
  585MOL0     C78855   3.385   5.745  -0.043 -0.2506 -0.0996 -0.7165
  585MOL0     C78856   3.479   5.856  -0.074 -0.0533 -0.3478  1.2350
  585MOL0     N78857   3.557   5.902   0.043 -0.5414  1.0880 -1.0976
  585MOL0     C78858   3.656   5.827   0.099 -0.2030  0.1011  0.6254
  585MOL0     C78859   3.675   5.878   0.216 -0.1372 -0.3947  0.4749
  585MOL0     C78860   3.764   5.826   0.328 -0.1126 -0.1821 -0.2784
  585MOL0     C78861   3.909   5.848   0.292  0.2972 -0.0722  0.8649
  585MOL0     C78862   3.979   5.769   0.181  0.0620  0.4185 -0.0595
  585MOL0     C78863   4.130   5.808   0.170  0.4809  0.4438  0.2247
  585MOL0     O78864   4.184   5.789   0.299  0.7998 -0.2784  0.3305
  585MOL0     C78865   4.318   5.808   0.319  0.9386  0.2314  0.5581
  585MOL0     C78866   4.362   5.823   0.449  0.5705 -0.1396 -0.1262
  585MOL0     C78867   4.499   5.856   0.472  0.0371 -0.8304 -0.3888
  585MOL0     C78868   4.592   5.846   0.361 -0.0691 -0.2218  0.0342
  585MOL0     C78869   4.733   5.843   0.383 -1.2145  0.4267  1.5356
  585MOL0     O78870   4.780   5.902   0.495  0.3327  0.1879 -0.2980
  585MOL0     C78871   4.915   5.904   0.514  0.4458 -0.4602  0.1579
  585MOL0     C78872   5.006   5.934   0.416  0.9046  0.1744 -0.3836
  585MOL0     C78873   5.144   5.937   0.438  0.1232  0.4154 -0.3352
  585MOL0     C78874   5.188   5.894   0.572 -1.8596  0.5502 -0.3408
  585MOL0     O78875   5.329   5.890   0.593  0.2569  0.5087 -1.0617
  585MOL0     C78876   5.377   5.865   0.727 -0.0320  0.0639  0.5392
  585MOL0     C78877   5.522   5.907   0.732  0.0765 -0.6796 -0.6248
  585MOL0     C78878   5.598   5.809   0.650 -0.8307  0.7596 -0.2146
  585MOL0     C78879   5.745   5.809   0.677 -0.3173  0.5567 -0.1588
  585MOL0     C78880   5.820   5.742   0.565  0.0656  1.1769 -0.3126
  585MOL0     C78881   5.930   5.641   0.613  1.4377  0.2470 -0.5927
  585MOL0     C78882   5.998   5.586   0.492  0.0543  0.0141  0.1849
  585MOL0     C78883   6.079   5.469   0.551  0.5968 -0.5721 -0.0326
  585MOL0    Cl78884   6.128   5.353   0.418 -0.1334 -0.4547 -0.0608
  585MOL0     C78885   5.097   5.859   0.663  0.0342  0.2774 -0.0425
  585MOL0     C78886   4.958   5.868   0.640 -0.5424  0.3550 -0.6762
  585MOL0     O78887   4.795   5.786   0.290  0.4607 -0.1180  0.2166
  585MOL0     C78888   4.537   5.848   0.228  0.5469 -0.1272 -0.2862
  585MOL0     C78889   4.405   5.828   0.211  0.1484 -0.6235 -0.3214
  585MOL0     N78890   3.598   5.990   0.230  0.0234  1.1267 -0.6192
  585MOL0     N78891   3.522   5.999   0.131  0.5246  0.0256  0.5242
  585MOL0     C78892   2.456   5.403   0.140 -0.0957  0.3036  0.4059
  585MOL0     C78893   2.335   5.334   0.133  0.1981 -0.0443  0.3704
  585MOL0     C78894   1.976   5.095   0.131  0.2571 -0.1681 -0.5811
  585MOL0     C78895   1.879   5.129   0.229 -0.6849  0.2844 -1.1339
  585MOL0     C78896   1.750   5.091   0.211 -0.0649 -0.2513 -0.1353
  585MOL0     C78897   1.705   5.024   0.094  0.3997 -0.3614 -0.2415
  585MOL0     O78898   1.573   4.993   0.077  0.0176  0.1941 -0.1107
  585MOL0     C78899   1.528   4.895  -0.014 -0.2679  0.9941 -0.1483
  585MOL0     C78900   1.555   4.755   0.027 -0.1141  0.7781  0.0676
  585MOL0     C78901   1.486   4.703   0.155  0.3411  0.0935  0.0841
  585MOL0     C78902   1.529   4.555   0.173  0.4148  0.0972  0.1469
  585MOL0     C78903   1.456   4.468   0.075 -0.6536 -0.3347 -0.3067
  585MOL0     C78904   1.395   4.389   0.002  0.2507 -0.5232 -0.1726
  585MOL0     C78905   1.801   5.002  -0.004  0.8589  0.0121  0.4076
  585MOL0     C78906   1.933   5.028   0.018  0.5529 -0.7286  0.7869
  585MOL0     C78907   2.030   4.972  -0.086  0.6178  0.0210  0.1099
  585MOL0     H78908   2.406   5.147  -0.145  0.9992  1.1524 -0.7444
  585MOL0     H78909   2.617   5.275  -0.110  2.2191  2.3424  2.6750
  585MOL0     H78910   2.825   5.313   0.000  0.1644  0.3227 -0.7711
  585MOL0     H78911   2.760   5.428  -0.124  0.2023  3.5322  0.1569
  585MOL0     H78912   2.915   5.499   0.126 -0.5946 -0.1163  0.0380
  585MOL0     H78913   2.859   5.606  -0.005 -1.6332 -1.4482 -0.2733
  585MOL0     H78914   3.015   5.414  -0.144  2.3431  1.7950 -2.1256
  585MOL0     H78915   3.100   5.420   0.012  2.1746 -0.2538 -1.7425
  585MOL0     H78916   3.070   5.666  -0.175 -2.3744 -1.1107  0.7590
  585MOL0     H78917   3.124   5.679  -0.014 -0.5085  2.0175 -0.8609
  585MOL0     H78918   3.298   5.497  -0.058 -1.0002 -2.1489 -0.4710
  585MOL0     H78919   3.252   5.504  -0.233  0.5158  1.6569  0.3312
  585MOL0     H78920   3.442   5.648  -0.213  0.5442  0.6857  1.5307
  585MOL0     H78921   3.296   5.755  -0.230  0.3491  0.6790 -0.4451
  585MOL0     H78922   3.423   5.684   0.039  0.2235  0.6853 -0.3327
  585MOL0     H78923   3.302   5.796   0.006  2.3391  1.4929  2.4469
  585MOL0     H78924   3.542   5.842  -0.163  1.2033  4.6164  1.0597
  585MOL0     H78925   3.419   5.945  -0.098 -0.6500 -0.8895  0.6787
  585MOL0     H78926   3.687   5.728   0.067 -0.9228 -0.0582  0.4027
  585MOL0     H78927   3.744   5.883   0.419 -0.7771 -1.6234  0.5090
  585MOL0     H78928   3.739   5.721   0.344 -0.5858  0.3355  3.0665
  585MOL0     H78929   3.912   5.953   0.261 -1.4150  0.5005  2.4547
  585MOL0     H78930   3.961   5.827   0.386 -0.1648  2.3294  1.7159
  585MOL0     H78931   3.934   5.790   0.084  1.2682  2.4491 -0.2561
  585MOL0     H78932   3.987   5.663   0.207  0.7295  0.4928  0.0499
  585MOL0     H78933   4.149   5.907   0.127  0.4459  0.1321 -0.5197
  585MOL0     H78934   4.184   5.742   0.102 -0.6291 -1.4205  1.0885
  585MOL0     H78935   4.277   5.825   0.517 -0.0257  1.3938 -0.8748
  585MOL0     H78936   4.536   5.890   0.568  0.6008 -0.8921 -0.5776
  585MOL0     H78937   4.964   5.978   0.325 -1.3735 -0.2229  0.4111
  585MOL0     H78938   5.206   5.981   0.360 -1.4179 -1.0986 -2.5494
  585MOL0     H78939   5.325   5.925   0.802 -1.1453 -2.6117  2.0372
  585MOL0     H78940   5.365   5.758   0.746 -1.3053 -0.5573 -3.0529
  585MOL0     H78941   5.542   6.006   0.690  4.1997 -0.3356  1.6519
  585MOL0     H78942   5.558   5.905   0.836  2.0660  1.3438 -1.1993
  585MOL0     H78943   5.566   5.706   0.670  3.6870 -1.2419 -1.9179
  585MOL0     H78944   5.583   5.817   0.542  0.7158  0.4092 -0.4829
  585MOL0     H78945   5.759   5.758   0.773  1.2837  2.6642  0.7871
  585MOL0     H78946   5.785   5.905   0.711  1.1069 -0.0537 -0.0691
  585MOL0     H78947   5.861   5.819   0.499 -0.8625  1.8544 -0.1188
  585MOL0     H78948   5.755   5.680   0.502  1.8984  0.3382 -1.4434
  585MOL0     H78949   5.998   5.678   0.690  0.3058 -3.1682  2.3335
  585MOL0     H78950   5.871   5.559   0.656  1.6647  0.5835  0.3982
  585MOL0     H78951   6.071   5.662   0.463 -1.5920  0.5281 -3.0860
  585MOL0     H78952   5.934   5.555   0.409  1.0348 -1.2291 -0.1505
  585MOL0     H78953   6.172   5.504   0.598  0.6133  0.1346 -0.5682
  585MOL0     H78954   6.021   5.410   0.622 -0.0197  0.6206  0.4781
  585MOL0     H78955   5.114   5.829   0.766 -0.0012  2.6314  0.7102
  585MOL0     H78956   4.883   5.839   0.713  0.1809 -0.9587 -0.4233
  585MOL0     H78957   4.599   5.859   0.140  0.3326 -0.2626 -0.4540
  585MOL0     H78958   4.376   5.837   0.107  2.9334  3.5323 -0.9978
  585MOL0     H78959   2.482   5.467   0.224 -0.0836  1.1774 -0.2610
  585MOL0     H78960   2.263   5.366   0.208  1.0300  2.3240  0.2313
  585MOL0     H78961   1.918   5.175   0.320 -1.1576  0.8731 -1.2217
  585MOL0     H78962   1.667   5.115   0.277  0.4466 -0.8395  0.7493
  585MOL0     H78963   1.572   4.909  -0.114  1.1559 -2.9638 -0.2667
  585MOL0     H78964   1.419   4.898  -0.012 -0.3034  0.4874 -0.7239
  585MOL0     H78965   1.662   4.734   0.033 -0.5743 -1.4579  2.8265
  585MOL0     H78966   1.516   4.690  -0.052 -2.0300  1.6341  0.2494
  585MOL0     H78967   1.378   4.714   0.139  0.6440  2.6333 -0.6366
  585MOL0     H78968   1.512   4.762   0.242  1.5920 -2.9410  1.9267
  585MOL0     H78969   1.638   4.555   0.163  0.5682  3.4858  0.6300
  585MOL0     H78970   1.514   4.520   0.275  3.2495  0.9138  0.9387
  585MOL0     H78971   1.332   4.328  -0.060  1.8731 -0.2724 -2.1788
  585MOL0     H78972   1.777   4.935  -0.086 -0.1106  2.0757 -1.0909
  585MOL0     H78973   2.113   4.919  -0.038  0.7685  0.2349  0.0892
  585MOL0     H78974   1.984   4.898  -0.152  2.3391 -1.7786  0.8242
  585MOL0     H78975   2.075   5.044  -0.155  2.8130 -2.8882 -1.7513
  586MOL0     O78976   1.679   8.129   0.979 -0.0248 -0.1472  0.3002
  586MOL0     C78977   1.623   8.240   0.953 -0.7193  0.0884 -0.0599
  586MOL0     O78978   1.676   8.355   0.982 -0.2388 -0.7952  0.3331
  586MOL0     C78979   1.802   8.352   1.029  0.2514 -0.2628 -0.1454
  586MOL0     C78980   1.832   8.347   1.162  0.4796 -0.0839 -0.1628
  586MOL0     C78981   1.964   8.347   1.214  0.5232  0.0271 -0.5353
  586MOL0     C78982   2.070   8.351   1.121  0.0644 -0.2980  0.1147
  586MOL0     O78983   2.197   8.367   1.170 -0.8143 -0.4010  0.8339
  586MOL0     C78984   2.308   8.403   1.079  0.6552 -0.3427 -0.1153
  586MOL0     C78985   2.440   8.427   1.148  0.9498  0.4134 -0.2619
  586MOL0     C78986   2.555   8.503   1.068  0.4744  0.7593  0.1133
  586MOL0     C78987   2.676   8.501   1.152  0.5857  0.1540  0.4551
  586MOL0     C78988   2.798   8.583   1.101  0.0138 -0.6956 -0.9770
  586MOL0     C78989   2.914   8.584   1.197  0.2759 -0.6725  0.4278
  586MOL0     C78990   2.900   8.635   1.346 -0.0724 -0.3311 -0.2214
  586MOL0     C78991   2.866   8.781   1.371 -1.0824 -0.4412 -0.0200
  586MOL0     N78992   2.977   8.864   1.312  0.8539  0.7106 -0.4112
  586MOL0     C78993   3.094   8.904   1.372 -0.3526  0.7756  0.5086
  586MOL0     C78994   3.165   8.960   1.271 -0.9686  0.6815  0.2607
  586MOL0     C78995   3.297   9.029   1.280 -0.0609  0.2121 -1.2311
  586MOL0     C78996   3.416   8.954   1.219 -0.6041 -0.3106  0.0958
  586MOL0     C78997   3.433   8.817   1.279 -0.2168  0.3867  0.2292
  586MOL0     C78998   3.554   8.745   1.221  0.4456  0.5547  0.2211
  586MOL0     O78999   3.674   8.818   1.237 -0.0731 -0.1760 -0.1644
  586MOL0     C79000   3.783   8.755   1.281 -0.5560  0.5729  0.5345
  586MOL0     C79001   3.802   8.690   1.402  0.3168  0.4902  0.8122
  586MOL0     C79002   3.921   8.619   1.443  0.6496 -0.9601 -0.3524
  586MOL0     C79003   4.026   8.615   1.358 -0.4909  0.7308 -0.7692
  586MOL0     C79004   4.154   8.554   1.417  0.1505 -0.7776 -0.2753
  586MOL0     O79005   4.153   8.505   1.548 -0.0500 -0.3023 -0.3831
  586MOL0     C79006   4.271   8.454   1.590  0.5469  0.2445  0.4905
  586MOL0     C79007   4.324   8.490   1.711  0.6177 -0.2337 -0.5135
  586MOL0     C79008   4.442   8.433   1.763 -0.0029 -0.6714  0.2433
  586MOL0     C79009   4.514   8.340   1.682 -0.9287 -0.7658 -0.3057
  586MOL0     O79010   4.640   8.309   1.736  0.9032  0.2882  1.1395
  586MOL0     C79011   4.752   8.295   1.638  0.5068 -0.3288 -0.1029
  586MOL0     C79012   4.805   8.152   1.644  0.1155  0.7704  0.2764
  586MOL0     C79013   4.922   8.145   1.548  1.0135  0.3221 -0.6644
  586MOL0     C79014   5.051   8.201   1.613 -0.6098 -0.2706 -0.0549
  586MOL0     C79015   5.174   8.176   1.532 -0.6530  0.0343  0.5608
  586MOL0     C79016   5.305   8.205   1.600  0.4482  0.0424 -1.0170
  586MOL0     C79017   5.419   8.223   1.496 -0.3307  0.2162 -0.2614
  586MOL0     C79018   5.557   8.223   1.571  1.0990 -0.1932  0.6956
  586MOL0    Cl79019   5.691   8.241   1.453  0.0763 -0.3643  0.1817
  586MOL0     C79020   4.461   8.305   1.558 -0.5596 -0.4990  0.5985
  586MOL0     C79021   4.336   8.349   1.518  0.2405  0.1667  0.0750
  586MOL0     O79022   4.251   8.562   1.340 -0.2410  0.0188 -0.3607
  586MOL0     C79023   4.016   8.683   1.233 -0.0178  0.5367  0.0175
  586MOL0     C79024   3.893   8.750   1.198  0.8742 -0.2580  0.0699
  586MOL0     N79025   3.091   8.963   1.155  0.5368  0.6173  0.5596
  586MOL0     N79026   2.978   8.910   1.182 -0.6897 -0.3163  0.0988
  586MOL0     C79027   2.042   8.342   0.982 -0.6099  0.1073  0.2864
  586MOL0     C79028   1.906   8.352   0.939 -0.9769  0.0365  0.6455
  586MOL0     C79029   1.496   8.239   0.885 -0.1186  0.0965  0.7082
  586MOL0     C79030   1.441   8.368   0.846 -0.1576  0.1282  0.4582
  586MOL0     C79031   1.310   8.366   0.790  0.0945  0.3203  0.0099
  586MOL0     C79032   1.241   8.249   0.752  0.0325 -0.2671  0.0148
  586MOL0     O79033   1.118   8.256   0.682 -0.3980  0.3187  0.0249
  586MOL0     C79034   1.074   8.391   0.645 -0.0395 -0.2869  0.7525
  586MOL0     C79035   0.968   8.388   0.540 -0.3486 -0.7120 -0.0299
  586MOL0     C79036   0.827   8.351   0.595 -0.8214  0.0007 -0.6899
  586MOL0     C79037   0.735   8.363   0.483  0.4708 -0.0232  0.3824
  586MOL0     C79038   0.607   8.308   0.520 -0.2243  0.5737 -0.2974
  586MOL0     C79039   0.508   8.257   0.561  0.1833  0.6582  0.1029
  586MOL0     C79040   1.301   8.130   0.775 -0.4408  0.9290  0.2911
  586MOL0     C79041   1.427   8.115   0.845  0.0897  0.1539  0.4956
  586MOL0     C79042   1.486   7.981   0.865  0.6030  0.0856 -0.0825
  586MOL0     H79043   1.740   8.360   1.217 -0.0689  1.2646 -1.3435
  586MOL0     H79044   1.980   8.334   1.321 -2.2802  0.8139  0.0606
  586MOL0     H79045   2.333   8.313   1.023  1.0881 -1.4853  1.8517
  586MOL0     H79046   2.286   8.497   1.026  1.0037  0.9391  1.8899
  586MOL0     H79047   2.475   8.329   1.182 -1.3063 -0.1202  0.7439
  586MOL0     H79048   2.426   8.477   1.244  1.0468 -0.1351  0.0444
  586MOL0     H79049   2.521   8.604   1.042 -0.0385  0.6389  0.3000
  586MOL0     H79050   2.577   8.457   0.971 -0.0657  4.9751 -2.2339
  586MOL0     H79051   2.642   8.544   1.246  0.7817  0.1740  0.5185
  586MOL0     H79052   2.704   8.398   1.178 -0.6463  0.5233  3.7237
  586MOL0     H79053   2.820   8.542   1.002 -2.0384  0.4642 -1.9949
  586MOL0     H79054   2.761   8.686   1.095  0.8325 -0.2346  1.0753
  586MOL0     H79055   2.962   8.486   1.199  0.4228 -0.5837  2.3301
  586MOL0     H79056   2.987   8.642   1.139  0.2495 -0.5366  0.5277
  586MOL0     H79057   2.997   8.629   1.396 -0.4105  1.0579  0.6501
  586MOL0     H79058   2.828   8.568   1.392 -2.0678  1.5811 -0.3920
  586MOL0     H79059   2.771   8.819   1.331 -0.3481 -0.2495 -1.6230
  586MOL0     H79060   2.866   8.810   1.477  1.7571  0.4626 -0.1756
  586MOL0     H79061   3.130   8.889   1.473 -0.5802  1.7723  0.7503
  586MOL0     H79062   3.294   9.125   1.228 -0.3473  1.3260  0.7462
  586MOL0     H79063   3.313   9.060   1.384 -1.9426 -0.2216 -0.7560
  586MOL0     H79064   3.408   8.935   1.112 -0.0034 -2.3355  0.3491
  586MOL0     H79065   3.511   9.006   1.237  0.3871 -2.3080  1.0830
  586MOL0     H79066   3.347   8.751   1.269  0.2335 -0.0574 -0.8290
  586MOL0     H79067   3.457   8.840   1.384 -0.6161  0.7164  0.2512
  586MOL0     H79068   3.532   8.726   1.115  0.5178 -0.5282  0.3907
  586MOL0     H79069   3.570   8.645   1.262 -1.9426 -0.7616 -1.8226
  586MOL0     H79070   3.719   8.685   1.472 -3.6020  0.6812 -3.3354
  586MOL0     H79071   3.907   8.573   1.540 -2.8253  1.5649  0.5504
  586MOL0     H79072   4.266   8.569   1.758  1.4161  0.8365 -1.2600
  586MOL0     H79073   4.484   8.462   1.859  0.8614 -1.2539  0.0454
  586MOL0     H79074   4.727   8.321   1.534 -0.2469 -0.2160  0.0985
  586MOL0     H79075   4.831   8.363   1.672 -0.6520  2.8514 -3.1231
  586MOL0     H79076   4.832   8.126   1.746 -1.7506 -0.1915  0.5773
  586MOL0     H79077   4.725   8.085   1.612  1.9951 -0.8739 -1.2329
  586MOL0     H79078   4.941   8.041   1.522  4.0009  1.0824 -1.8684
  586MOL0     H79079   4.902   8.194   1.452  3.1643  0.1149 -1.2561
  586MOL0     H79080   5.063   8.151   1.709 -2.2897  2.8156  1.9109
  586MOL0     H79081   5.046   8.310   1.620  2.4721 -0.1008  0.7196
  586MOL0     H79082   5.160   8.249   1.452 -0.9790 -0.0059  0.5782
  586MOL0     H79083   5.177   8.073   1.495 -1.3950 -0.5053  1.9180
  586MOL0     H79084   5.285   8.296   1.657 -0.6330  0.0942 -1.4657
  586MOL0     H79085   5.334   8.117   1.658 -0.2963  1.5620  1.8177
  586MOL0     H79086   5.418   8.318   1.441 -2.5343 -0.5445 -1.6420
  586MOL0     H79087   5.411   8.149   1.416  0.9364  0.2337 -0.4192
  586MOL0     H79088   5.557   8.304   1.644  1.6033 -0.6436  1.2082
  586MOL0     H79089   5.572   8.126   1.620 -1.6599 -1.5641 -0.9691
  586MOL0     H79090   4.522   8.236   1.501  1.0420  0.7476  0.7448
  586MOL0     H79091   4.291   8.319   1.424  1.0670 -0.9104  0.0106
  586MOL0     H79092   4.100   8.693   1.165 -0.8968 -0.8788 -1.3596
  586MOL0     H79093   3.879   8.797   1.101 -0.5779  0.4738  0.5974
  586MOL0     H79094   2.121   8.336   0.907 -1.1584 -2.7569 -0.1715
  586MOL0     H79095   1.895   8.373   0.833  2.0850  0.4597  0.3072
  586MOL0     H79096   1.481   8.465   0.872 -5.2023  2.7532 -0.3000
  586MOL0     H79097   1.266   8.464   0.775 -2.5107 -0.9589 -1.3020
  586MOL0     H79098   1.161   8.435   0.594  0.7014 -0.8439  1.5136
  586MOL0     H79099   1.055   8.464   0.724 -0.3598  1.0114 -0.4560
  586MOL0     H79100   0.995   8.311   0.467 -0.0512 -0.4996 -0.1479
  586MOL0     H79101   0.971   8.487   0.493  0.0101 -0.2951  0.8523
  586MOL0     H79102   0.784   8.406   0.679 -1.1024 -2.1228  0.6320
  586MOL0     H79103   0.828   8.249   0.635  2.9712 -0.0423 -0.4832
  586MOL0     H79104   0.717   8.467   0.455  0.7457 -0.1032 -0.0995
  586MOL0     H79105   0.767   8.305   0.396  1.2483 -0.7950  1.1631
  586MOL0     H79106   0.416   8.217   0.599  0.1723  0.4455 -0.1467
  586MOL0     H79107   1.253   8.041   0.738  0.1129  0.4287  0.7452
  586MOL0     H79108   1.587   7.963   0.826  0.5309 -2.2749  0.6476
  586MOL0     H79109   1.488   7.966   0.973  0.5734  0.1965 -0.0671
  586MOL0     H79110   1.414   7.912   0.820  2.5671 -1.1898 -1.4344
  587MOL0     O79111   9.227   6.346   5.781  0.2004 -0.1386 -0.3344
  587MOL0     C79112   9.142   6.299   5.709  0.8141  1.3227  0.8169
  587MOL0     O79113   9.167   6.192   5.624  0.0889  0.1464 -0.6446
  587MOL0     C79114   9.296   6.159   5.601 -0.2184 -0.2678  0.8794
  587MOL0     C79115   9.344   6.061   5.684  0.4249  0.0742 -0.3425
  587MOL0     C79116   9.467   6.002   5.659  0.1921 -0.5436  0.6729
  587MOL0     C79117   9.544   6.043   5.551 -0.2741  0.2576 -0.3092
  587MOL0     O79118   9.665   5.984   5.524 -0.6635  0.2065 -0.1495
  587MOL0     C79119   9.753   5.973   5.633  0.5463 -0.6267 -0.3085
  587MOL0     C79120   9.902   6.001   5.599 -0.1935  0.5085 -0.3080
  587MOL0     C79121   9.989   5.933   5.708  0.5199  0.0662  0.7007
  587MOL0     C79122  10.134   5.985   5.713 -0.4511  0.0533  0.7111
  587MOL0     C79123  10.197   5.991   5.577  0.4929 -0.3070 -0.4381
  587MOL0     C79124  10.344   6.011   5.582 -0.1739  0.3171  1.2580
  587MOL0     C79125  10.414   5.964   5.454 -0.3390 -0.5571  0.3337
  587MOL0     C79126  10.550   6.037   5.421  0.6161  0.3472  0.3424
  587MOL0     N79127  10.608   5.985   5.291  0.0002 -0.3609 -0.2361
  587MOL0     C79128  10.665   5.866   5.270  0.3011  0.3085 -0.2018
  587MOL0     C79129  10.699   5.865   5.139  0.4737  0.3677  0.3124
  587MOL0     C79130  10.774   5.766   5.057  0.5469 -0.5852 -0.3451
  587MOL0     C79131  10.916   5.803   5.052  0.0077 -0.4455  0.0466
  587MOL0     C79132  10.998   5.695   4.982 -0.1663 -0.0894  0.3500
  587MOL0     C79133  11.153   5.731   4.970  0.2368  0.0613  0.5498
  587MOL0     O79134  11.207   5.641   4.873  0.3844 -0.1522  0.3064
  587MOL0     C79135  11.340   5.662   4.837 -0.0833 -0.2489 -0.5426
  587MOL0     C79136  11.406   5.575   4.750 -0.1158  0.1982  0.3648
  587MOL0     C79137  11.540   5.576   4.735 -0.8470 -0.0346  0.3862
  587MOL0     C79138  11.624   5.676   4.790  0.8093  0.2699  1.0013
  587MOL0     C79139  11.764   5.677   4.746  0.1434 -0.5888  0.1076
  587MOL0     O79140  11.826   5.787   4.780 -0.3716 -1.4706  0.6208
  587MOL0     C79141  11.961   5.783   4.764  0.5243  0.1134  0.0262
  587MOL0     C79142  12.024   5.860   4.667  0.2713  0.0448  0.0787
  587MOL0     C79143  12.160   5.850   4.639  0.0935 -0.4863 -0.1812
  587MOL0     C79144  12.241   5.765   4.713  0.3358  1.0018  0.5321
  587MOL0     O79145  12.377   5.760   4.683 -0.0021 -0.1187 -0.1151
  587MOL0     C79146  12.470   5.721   4.786 -0.3592  0.3071  0.1654
  587MOL0     C79147  12.605   5.756   4.730 -0.4246 -0.2612  0.5988
  587MOL0     C79148  12.662   5.650   4.632  0.2216  1.0278 -0.0865
  587MOL0     C79149  12.780   5.698   4.553  0.5983  0.0392  0.7343
  587MOL0     C79150  12.866   5.583   4.487 -0.4180 -1.0338 -0.2415
  587MOL0     C79151  12.969   5.636   4.382 -0.5026  0.4932 -0.2440
  587MOL0     C79152  12.915   5.697   4.254  0.1745 -0.1199  0.3709
  587MOL0     C79153  13.036   5.717   4.157  0.3474 -0.7096  0.8640
  587MOL0    Cl79154  12.961   5.792   4.012 -0.0156 -0.0192  0.0252
  587MOL0     C79155  12.177   5.678   4.809 -0.3937  0.0462 -0.7212
  587MOL0     C79156  12.040   5.692   4.836  0.0002  0.3746  0.0909
  587MOL0     O79157  11.813   5.579   4.690  0.4153  0.3347  0.2221
  587MOL0     C79158  11.568   5.773   4.870 -0.0945 -0.0841 -0.1053
  587MOL0     C79159  11.426   5.762   4.902  0.5498 -0.5138 -0.8476
  587MOL0     N79160  10.655   5.982   5.082 -0.8557  0.4830 -0.1755
  587MOL0     N79161  10.598   6.053   5.174  0.2469  0.3250  0.7177
  587MOL0     C79162   9.482   6.126   5.455 -1.1032 -0.4198 -0.5662
  587MOL0     C79163   9.362   6.189   5.483  0.0926 -1.0014  0.1434
  587MOL0     C79164   9.005   6.348   5.691  0.5977 -0.3268 -1.1687
  587MOL0     C79165   8.910   6.267   5.621  0.1113  0.2439 -0.2236
  587MOL0     C79166   8.776   6.297   5.619 -0.3087  0.0467  1.6831
  587MOL0     C79167   8.737   6.415   5.681 -0.2096 -0.5586  0.6541
  587MOL0     O79168   8.609   6.459   5.684  0.2411  0.0699 -0.1285
  587MOL0     C79169   8.568   6.563   5.591  0.3043 -0.2258  1.2401
  587MOL0     C79170   8.505   6.526   5.457 -0.6103  0.1689  0.8496
  587MOL0     C79171   8.613   6.495   5.345 -0.4666  0.7567 -1.0080
  587MOL0     C79172   8.580   6.537   5.208 -0.2093 -0.5525  0.5719
  587MOL0     C79173   8.687   6.517   5.116 -0.6592  0.0967 -0.0164
  587MOL0     C79174   8.781   6.505   5.039 -0.7919  0.3055  1.1076
  587MOL0     C79175   8.823   6.488   5.749 -0.5968 -0.8040  0.0841
  587MOL0     C79176   8.960   6.464   5.747 -0.4245  0.5815  0.2756
  587MOL0     C79177   9.056   6.566   5.812 -0.0385  0.6133  0.4574
  587MOL0     H79178   9.285   6.034   5.771  0.0067 -0.5944 -0.8252
  587MOL0     H79179   9.514   5.930   5.725  0.6266 -1.6045 -0.7497
  587MOL0     H79180   9.736   6.045   5.714 -1.8881 -0.4246 -0.9228
  587MOL0     H79181   9.744   5.871   5.671 -1.1481 -0.4603 -0.2063
  587MOL0     H79182   9.903   6.109   5.584 -0.9490  0.6160  0.3913
  587MOL0     H79183   9.922   5.950   5.504  0.8968  1.5935 -0.6777
  587MOL0     H79184   9.987   5.825   5.689  1.8974  0.4418 -2.1067
  587MOL0     H79185   9.943   5.958   5.804  0.3280 -1.4086  1.0288
  587MOL0     H79186  10.135   6.089   5.748  0.0580 -0.2217  1.5573
  587MOL0     H79187  10.189   5.916   5.778  0.1260 -2.7946 -2.5277
  587MOL0     H79188  10.175   5.893   5.535  0.3395 -1.0301  1.2251
  587MOL0     H79189  10.156   6.062   5.505  2.5672  0.2033 -1.1975
  587MOL0     H79190  10.357   6.117   5.605  0.0958  0.5453  0.0937
  587MOL0     H79191  10.388   5.949   5.662  1.3727 -0.9209 -0.4729
  587MOL0     H79192  10.344   5.977   5.371 -1.0198  1.2454  1.1390
  587MOL0     H79193  10.441   5.858   5.463 -0.2994 -0.5700  0.0681
  587MOL0     H79194  10.535   6.145   5.414  0.9762  0.2847 -3.0564
  587MOL0     H79195  10.633   6.025   5.492  0.7805  0.2921  0.1414
  587MOL0     H79196  10.711   5.806   5.348 -0.0260 -0.0917 -0.3121
  587MOL0     H79197  10.773   5.668   5.107  1.2644 -1.8458 -2.6455
  587MOL0     H79198  10.726   5.763   4.959  1.5885  0.0343 -0.8876
  587MOL0     H79199  10.913   5.898   4.997 -3.9373 -1.6455 -2.1666
  587MOL0     H79200  10.962   5.819   5.150 -2.2475 -1.1893  1.2817
  587MOL0     H79201  10.952   5.674   4.885  0.8919 -0.3377 -0.1129
  587MOL0     H79202  10.986   5.597   5.029 -0.8947 -1.6102 -2.7520
  587MOL0     H79203  11.202   5.724   5.067  0.0651  0.2926  0.6540
  587MOL0     H79204  11.164   5.832   4.928 -0.4954 -1.1503 -2.8976
  587MOL0     H79205  11.358   5.487   4.707  2.9602 -1.2249 -0.3806
  587MOL0     H79206  11.576   5.501   4.666 -2.3363  2.4464 -3.4382
  587MOL0     H79207  11.958   5.913   4.599  1.1941  0.8604 -0.2078
  587MOL0     H79208  12.205   5.905   4.557  2.9966 -0.8887  1.0096
  587MOL0     H79209  12.452   5.769   4.883  1.3938  0.3851  0.4784
  587MOL0     H79210  12.464   5.613   4.805 -0.1037  0.2486 -0.0842
  587MOL0     H79211  12.604   5.852   4.677 -1.4361 -0.5418  0.0945
  587MOL0     H79212  12.679   5.768   4.810  0.3312 -1.2530  0.0592
  587MOL0     H79213  12.692   5.556   4.678  1.4329  0.6189 -1.6250
  587MOL0     H79214  12.583   5.619   4.563 -0.6779 -2.2084  2.1887
  587MOL0     H79215  12.837   5.766   4.616 -1.5989  2.0796  0.6462
  587MOL0     H79216  12.747   5.765   4.473 -1.6618 -0.9298  0.7844
  587MOL0     H79217  12.806   5.514   4.427 -0.6616  0.4212 -1.7454
  587MOL0     H79218  12.926   5.534   4.564  0.5207 -0.2276 -0.4394
  587MOL0     H79219  13.044   5.692   4.439 -1.1610 -1.9072  3.2941
  587MOL0     H79220  13.037   5.556   4.352 -0.0574  0.9940 -0.6042
  587MOL0     H79221  12.869   5.793   4.281 -1.1855 -0.9079  0.9694
  587MOL0     H79222  12.843   5.630   4.207 -0.8349  0.9231  0.3852
  587MOL0     H79223  13.102   5.799   4.189 -3.0576  3.9365 -2.5802
  587MOL0     H79224  13.098   5.630   4.136  2.8957  1.3599 -0.8011
  587MOL0     H79225  12.225   5.625   4.891 -3.4295  0.3355  1.4029
  587MOL0     H79226  12.011   5.649   4.931  1.1210  1.1444  0.8152
  587MOL0     H79227  11.619   5.862   4.904 -1.0244  0.2036  0.5734
  587MOL0     H79228  11.383   5.837   4.968  0.0605 -2.7212  1.4841
  587MOL0     H79229   9.542   6.134   5.364  0.4443 -2.6097  0.1803
  587MOL0     H79230   9.317   6.247   5.404  1.1298 -0.8494 -0.3508
  587MOL0     H79231   8.937   6.170   5.582 -1.4585  0.4441 -1.9522
  587MOL0     H79232   8.706   6.233   5.566  0.8501  0.3085 -0.2661
  587MOL0     H79233   8.657   6.625   5.573  0.8617  0.3364  5.1516
  587MOL0     H79234   8.493   6.627   5.639  0.1215  1.8497 -1.5292
  587MOL0     H79235   8.438   6.605   5.422 -0.1221  0.8232  1.3614
  587MOL0     H79236   8.446   6.435   5.470  1.2971 -1.4229 -0.8041
  587MOL0     H79237   8.626   6.387   5.359 -1.4046  1.1096  5.0442
  587MOL0     H79238   8.705   6.550   5.367 -0.5558  0.4282  0.2432
  587MOL0     H79239   8.487   6.495   5.167 -0.2856 -1.2989  1.4895
  587MOL0     H79240   8.579   6.646   5.216  2.6825 -0.5157  1.7333
  587MOL0     H79241   8.864   6.476   4.977  0.7251  0.5624  2.9190
  587MOL0     H79242   8.790   6.580   5.797  0.7073 -0.4937  0.4429
  587MOL0     H79243   9.159   6.565   5.773  0.4455 -2.8374  1.4844
  587MOL0     H79244   9.007   6.661   5.793 -0.5184 -0.0239 -1.8553
  587MOL0     H79245   9.061   6.550   5.920 -1.5029 -1.4150  0.2932
  588MOL0     O79246   3.880   4.007   0.720  1.2940  0.7282  0.4949
  588MOL0     C79247   3.779   4.064   0.685  0.1864 -0.7838  0.1141
  588MOL0     O79248   3.769   4.198   0.657  0.1345  0.0757 -0.4372
  588MOL0     C79249   3.873   4.282   0.674 -0.1428  0.3606 -0.2740
  588MOL0     C79250   3.896   4.372   0.567  0.4919  1.1257  0.1798
  588MOL0     C79251   3.997   4.466   0.573  0.0834  0.7998 -0.8569
  588MOL0     C79252   4.084   4.466   0.676  0.1198  0.1244 -0.3836
  588MOL0     O79253   4.189   4.557   0.674  0.1199 -0.2780 -0.4441
  588MOL0     C79254   4.321   4.505   0.709 -0.1466 -0.9443 -0.3774
  588MOL0     C79255   4.424   4.612   0.697 -0.2384 -0.3771  0.4624
  588MOL0     C79256   4.573   4.565   0.721  0.8257 -0.1160 -0.1308
  588MOL0     C79257   4.680   4.651   0.650  0.6359 -0.1033 -1.3358
  588MOL0     C79258   4.824   4.621   0.686 -0.3958  0.4757  0.6285
  588MOL0     C79259   4.877   4.688   0.815 -0.9359  0.0186 -0.0299
  588MOL0     C79260   5.025   4.653   0.834 -0.2097  0.1511 -0.2146
  588MOL0     C79261   5.099   4.726   0.958  0.0856  0.1557  0.5262
  588MOL0     N79262   5.240   4.701   0.943 -0.9159  0.2153 -0.1601
  588MOL0     C79263   5.296   4.582   0.923 -0.2311 -0.0924  0.7064
  588MOL0     C79264   5.424   4.608   0.879  0.1356  0.4854  0.4689
  588MOL0     C79265   5.512   4.510   0.818 -0.3536  0.8918  0.3904
  588MOL0     C79266   5.595   4.436   0.927  0.3590  0.0511  0.1087
  588MOL0     C79267   5.651   4.304   0.884  0.3069 -0.1604  0.7807
  588MOL0     C79268   5.730   4.235   0.990  0.8358  0.6230  0.3598
  588MOL0     O79269   5.777   4.112   0.942 -0.0862  0.1442 -0.6651
  588MOL0     C79270   5.907   4.088   0.963 -0.2554 -0.7662 -0.0493
  588MOL0     C79271   5.997   4.115   0.862  0.6707 -0.2710  0.4208
  588MOL0     C79272   6.133   4.082   0.864 -0.1494  0.9514 -0.1444
  588MOL0     C79273   6.183   4.022   0.987  0.0056  0.1633  0.1786
  588MOL0     C79274   6.321   3.977   1.000  0.1309 -0.1164 -0.8493
  588MOL0     O79275   6.337   3.863   1.072 -0.1556  0.5807  0.2185
  588MOL0     C79276   6.465   3.819   1.087  0.2054  0.7609 -0.2274
  588MOL0     C79277   6.513   3.709   1.020 -0.0970  0.6623  0.1801
  588MOL0     C79278   6.642   3.657   1.039 -0.0773 -0.0002 -0.4011
  588MOL0     C79279   6.726   3.721   1.130 -0.5182  0.5258  0.4326
  588MOL0     O79280   6.853   3.674   1.136 -0.0202  0.5679  0.1483
  588MOL0     C79281   6.950   3.769   1.164 -0.2231 -0.4119  0.1401
  588MOL0     C79282   7.091   3.716   1.129  0.0828  0.4167  0.2637
  588MOL0     C79283   7.204   3.813   1.154 -0.1367  0.2847  0.3914
  588MOL0     C79284   7.342   3.767   1.103 -0.5300  0.0665  0.4139
  588MOL0     C79285   7.464   3.857   1.153 -0.0944 -0.4722 -0.8784
  588MOL0     C79286   7.598   3.779   1.128  0.3443  0.0789 -0.1746
  588MOL0     C79287   7.725   3.878   1.102  0.1222 -0.0200  0.7856
  588MOL0     C79288   7.786   3.833   0.970  0.2787  0.3925  0.2245
  588MOL0    Cl79289   7.846   3.663   0.975 -0.0409  0.3131  0.3736
  588MOL0     C79290   6.675   3.822   1.211 -0.3490 -0.5955 -0.0229
  588MOL0     C79291   6.548   3.872   1.191  0.6376  0.4175 -0.9454
  588MOL0     O79292   6.405   4.047   0.950 -0.2845 -0.0030  0.4383
  588MOL0     C79293   6.093   3.991   1.092  0.2300  1.0872  0.4954
  588MOL0     C79294   5.951   4.024   1.080  0.4768 -0.1468 -0.5407
  588MOL0     N79295   5.441   4.746   0.876  0.2017 -1.1380  0.4457
  588MOL0     N79296   5.331   4.800   0.907 -0.6811  1.6505  0.9160
  588MOL0     C79297   4.066   4.385   0.793 -0.2059  0.7221  0.1566
  588MOL0     C79298   3.950   4.298   0.795  0.4063 -0.2867 -0.2810
  588MOL0     C79299   3.649   3.989   0.688  0.4659  0.5857 -0.5152
  588MOL0     C79300   3.534   4.055   0.735 -0.0033 -1.1344 -0.3108
  588MOL0     C79301   3.402   4.005   0.735 -0.6877 -0.8077  0.5220
  588MOL0     C79302   3.399   3.867   0.709 -0.0831 -0.8895  0.1422
  588MOL0     O79303   3.280   3.801   0.718 -0.1822 -0.3418  0.0391
  588MOL0     C79304   3.154   3.874   0.703  0.1634  0.3786  0.6641
  588MOL0     C79305   3.029   3.788   0.736 -0.2088  0.0185  0.5020
  588MOL0     C79306   3.022   3.665   0.639 -0.8672  0.1775  0.9865
  588MOL0     C79307   2.895   3.586   0.682  0.7815 -0.1770 -0.1162
  588MOL0     C79308   2.923   3.488   0.789 -0.5973 -0.6245 -0.4016
  588MOL0     C79309   2.950   3.412   0.878 -0.5894  0.5557 -0.2651
  588MOL0     C79310   3.508   3.797   0.662 -0.5458  0.6221 -0.1668
  588MOL0     C79311   3.634   3.855   0.649 -0.9735 -1.4275  0.0701
  588MOL0     C79312   3.742   3.770   0.584 -0.2856  0.6470 -0.4437
  588MOL0     H79313   3.827   4.377   0.483 -0.2016  2.4547  0.7886
  588MOL0     H79314   4.028   4.524   0.487  4.2192 -2.9498 -2.2497
  588MOL0     H79315   4.326   4.471   0.813  0.2423  1.3893  0.4313
  588MOL0     H79316   4.334   4.415   0.648 -0.7703 -0.7396 -0.8188
  588MOL0     H79317   4.396   4.699   0.758 -1.1084  1.0599 -1.8499
  588MOL0     H79318   4.422   4.641   0.592  2.8166 -0.0949  0.3926
  588MOL0     H79319   4.576   4.460   0.689 -1.4744  0.1752 -1.5850
  588MOL0     H79320   4.595   4.573   0.828 -1.6406 -1.1608  0.5355
  588MOL0     H79321   4.668   4.634   0.543 -1.6773  2.1070 -1.5252
  588MOL0     H79322   4.668   4.756   0.677  0.9912 -0.3931  0.0291
  588MOL0     H79323   4.837   4.513   0.694 -2.7809 -0.0591 -1.4135
  588MOL0     H79324   4.881   4.647   0.596 -3.0308  0.5682 -1.1231
  588MOL0     H79325   4.865   4.796   0.808 -0.3472  0.1157  0.3064
  588MOL0     H79326   4.818   4.647   0.898 -0.1540 -1.4333 -0.1632
  588MOL0     H79327   5.081   4.667   0.741  0.8992 -0.9798  0.2397
  588MOL0     H79328   5.035   4.547   0.860  0.8571  0.5334  0.9936
  588MOL0     H79329   5.080   4.832   0.940  1.2036 -0.0360 -2.1838
  588MOL0     H79330   5.053   4.702   1.055  0.7711 -1.4447  0.4784
  588MOL0     H79331   5.255   4.482   0.913  3.6765 -1.6241 -3.7596
  588MOL0     H79332   5.457   4.429   0.769  1.6822 -0.8390  0.7996
  588MOL0     H79333   5.582   4.550   0.743  1.2471  1.5629  2.1754
  588MOL0     H79334   5.666   4.506   0.973 -1.2733  1.9863 -0.1672
  588MOL0     H79335   5.531   4.409   1.011 -2.1769  1.1418 -1.3489
  588MOL0     H79336   5.720   4.322   0.801  1.6080 -1.8369  1.4625
  588MOL0     H79337   5.572   4.235   0.850 -0.4417  0.0343  2.0683
  588MOL0     H79338   5.675   4.232   1.085  0.7204  4.4081  0.5845
  588MOL0     H79339   5.813   4.303   1.009  0.6921  0.4277  1.8745
  588MOL0     H79340   5.952   4.167   0.778  2.3465 -0.1882 -0.4629
  588MOL0     H79341   6.194   4.112   0.779 -0.5024 -0.0213 -0.7667
  588MOL0     H79342   6.445   3.656   0.953  1.1345 -3.0523  1.6141
  588MOL0     H79343   6.681   3.573   0.984  0.3570  0.9575 -1.5897
  588MOL0     H79344   6.928   3.862   1.112 -1.9834 -0.6906  0.3362
  588MOL0     H79345   6.954   3.803   1.268 -2.9505  1.9113 -0.4021
  588MOL0     H79346   7.104   3.622   1.184 -3.1873 -0.9845 -1.0448
  588MOL0     H79347   7.085   3.690   1.023  0.3360  1.6378 -0.0583
  588MOL0     H79348   7.192   3.908   1.102  0.9776  1.3206  1.9462
  588MOL0     H79349   7.200   3.838   1.260  0.4449  1.8850  0.0688
  588MOL0     H79350   7.350   3.769   0.994  0.4653  0.7355  0.4847
  588MOL0     H79351   7.352   3.662   1.131 -0.2196 -0.0548 -0.1417
  588MOL0     H79352   7.442   3.896   1.253  0.1027  4.5636 -2.5158
  588MOL0     H79353   7.464   3.950   1.094 -1.9175  0.5801  0.6659
  588MOL0     H79354   7.615   3.703   1.204  3.8824 -0.6804 -1.5380
  588MOL0     H79355   7.594   3.715   1.040  0.5079  2.4780 -2.0422
  588MOL0     H79356   7.791   3.868   1.189  2.5561 -0.3785 -0.9972
  588MOL0     H79357   7.688   3.980   1.093 -0.3072 -0.0714  1.7763
  588MOL0     H79358   7.716   3.845   0.888  2.3418  2.0424 -1.4049
  588MOL0     H79359   7.876   3.892   0.951 -0.3459  1.7421  1.3395
  588MOL0     H79360   6.734   3.875   1.285  0.2737 -0.8367 -0.3392
  588MOL0     H79361   6.522   3.953   1.258  0.2818  1.3049 -2.1120
  588MOL0     H79362   6.135   3.920   1.162  0.6827 -1.1458 -1.8636
  588MOL0     H79363   5.890   3.999   1.166  1.3064 -3.0280 -0.6954
  588MOL0     H79364   4.137   4.368   0.873 -1.4015 -2.7496  0.6425
  588MOL0     H79365   3.921   4.235   0.878 -3.4712  2.9222  1.1112
  588MOL0     H79366   3.564   4.156   0.762  0.4743 -1.5382  0.7337
  588MOL0     H79367   3.332   4.070   0.786  0.7087  0.7885  0.5242
  588MOL0     H79368   3.149   3.914   0.601 -2.4571  0.2410  0.6829
  588MOL0     H79369   3.139   3.959   0.770 -2.9278 -0.9086  1.7796
  588MOL0     H79370   2.946   3.856   0.714  0.2315  0.8477  1.3220
  588MOL0     H79371   3.033   3.767   0.843  2.3824 -1.1440  0.2577
  588MOL0     H79372   3.109   3.599   0.632 -1.2711 -0.4699  1.8273
  588MOL0     H79373   3.015   3.704   0.537  0.0494 -0.1256  0.8020
  588MOL0     H79374   2.814   3.654   0.710  1.9322  0.4991  1.7353
  588MOL0     H79375   2.861   3.528   0.596  1.0973  1.4466 -1.3836
  588MOL0     H79376   2.966   3.339   0.954 -0.3422  0.9096  0.0268
  588MOL0     H79377   3.496   3.690   0.651 -0.1488  0.6063 -0.4590
  588MOL0     H79378   3.835   3.781   0.641 -0.3093 -3.0854  0.6040
  588MOL0     H79379   3.713   3.664   0.587  0.7847  0.3555  1.0568
  588MOL0     H79380   3.751   3.790   0.477  0.3537  0.1010 -0.4973
  589MOL0     O79381   0.857   0.386   4.605  0.8671 -0.1019 -0.6043
  589MOL0     C79382   0.855   0.337   4.496 -0.6550 -0.2748 -0.1492
  589MOL0     O79383   0.976   0.303   4.423  0.4133  0.3446  0.3890
  589MOL0     C79384   1.100   0.298   4.476 -0.0594  1.1992  1.2301
  589MOL0     C79385   1.208   0.308   4.385 -0.0074 -0.6525 -0.4348
  589MOL0     C79386   1.341   0.324   4.429  0.5788  1.2050  0.3012
  589MOL0     C79387   1.379   0.337   4.567  0.1862  0.3249  0.3223
  589MOL0     O79388   1.507   0.353   4.601 -0.1829 -0.4800  0.0817
  589MOL0     C79389   1.545   0.337   4.736 -0.4234  0.3923  1.2475
  589MOL0     C79390   1.681   0.395   4.773 -0.3750 -0.2907 -0.0312
  589MOL0     C79391   1.791   0.307   4.710  1.0519  0.4815  0.8051
  589MOL0     C79392   1.926   0.318   4.779 -0.3534  1.1241  0.4834
  589MOL0     C79393   2.032   0.223   4.707  0.2314 -0.6041 -0.1091
  589MOL0     C79394   2.155   0.195   4.796  0.8253  0.0281 -0.4090
  589MOL0     C79395   2.259   0.114   4.721 -0.0473 -0.1186  0.3376
  589MOL0     C79396   2.224  -0.027   4.672 -0.2784 -0.2421  0.3977
  589MOL0     N79397   2.337  -0.077   4.586 -0.1705  0.0862 -0.1371
  589MOL0     C79398   2.474  -0.075   4.623  0.4147 -0.1806  0.0161
  589MOL0     C79399   2.543  -0.098   4.505 -0.2996 -0.4461 -0.2280
  589MOL0     C79400   2.696  -0.100   4.498 -0.0320  0.1131  0.6680
  589MOL0     C79401   2.775  -0.017   4.602 -0.5574  0.2830 -0.6203
  589MOL0     C79402   2.927  -0.048   4.603 -0.1327  0.1566 -0.1415
  589MOL0     C79403   2.982   0.006   4.739 -0.2696  0.0314  0.6359
  589MOL0     O79404   3.119  -0.029   4.751 -0.6007  0.5063  0.2537
  589MOL0     C79405   3.211   0.023   4.671  0.4962  0.9867  0.0141
  589MOL0     C79406   3.339  -0.022   4.683 -0.0011  0.5063  0.5533
  589MOL0     C79407   3.449   0.039   4.618 -0.0760  0.2336 -0.1556
  589MOL0     C79408   3.427   0.156   4.548 -0.2429  0.3246  0.1043
  589MOL0     C79409   3.536   0.232   4.484  0.1477  0.3587 -1.1138
  589MOL0     O79410   3.664   0.195   4.524  0.0313 -0.0102  0.2913
  589MOL0     C79411   3.761   0.246   4.445 -0.2829 -0.8579  1.1327
  589MOL0     C79412   3.789   0.383   4.443 -0.0625 -0.6023 -0.2572
  589MOL0     C79413   3.907   0.424   4.379 -0.1226  0.1970 -0.3148
  589MOL0     C79414   3.993   0.327   4.317 -0.0806  0.6307 -0.6053
  589MOL0     O79415   4.105   0.370   4.247 -0.1556  1.3055  1.1283
  589MOL0     C79416   4.187   0.459   4.316  0.3766 -0.4523  0.9724
  589MOL0     C79417   4.320   0.434   4.250 -0.2791 -0.0909 -0.8323
  589MOL0     C79418   4.331   0.484   4.105  0.0397 -0.4518 -0.3520
  589MOL0     C79419   4.434   0.404   4.034  0.7157  0.2932  0.2962
  589MOL0     C79420   4.578   0.449   4.072  0.4406 -0.9937 -0.8050
  589MOL0     C79421   4.687   0.403   3.978 -0.2930  0.0199  0.5258
  589MOL0     C79422   4.824   0.466   4.009 -0.3381 -0.1928  0.4054
  589MOL0     C79423   4.833   0.608   3.949  0.1956 -0.3349 -0.6076
  589MOL0    Cl79424   4.999   0.663   3.984  0.3029  0.2067  0.3546
  589MOL0     C79425   3.965   0.188   4.321 -0.4419 -0.1640  0.5645
  589MOL0     C79426   3.846   0.149   4.381  0.5824 -0.2712  0.2219
  589MOL0     O79427   3.502   0.302   4.395  0.3511  0.9482  1.0040
  589MOL0     C79428   3.292   0.203   4.537 -0.4249  0.0958 -0.2041
  589MOL0     C79429   3.189   0.141   4.605  0.3575  0.1286  0.0832
  589MOL0     N79430   2.446  -0.124   4.407 -0.8016  0.1719 -0.4352
  589MOL0     N79431   2.328  -0.112   4.459  0.7089 -1.1609  1.1335
  589MOL0     C79432   1.274   0.332   4.653  0.9825  0.3903 -0.1583
  589MOL0     C79433   1.141   0.295   4.615 -0.0596  0.3819  0.3069
  589MOL0     C79434   0.723   0.338   4.423 -1.2244  0.4947 -0.0154
  589MOL0     C79435   0.610   0.389   4.501 -0.3310 -0.4223 -0.2738
  589MOL0     C79436   0.486   0.411   4.436 -0.0197  0.2013 -0.3387
  589MOL0     C79437   0.472   0.371   4.304 -0.4706 -0.4843  0.1618
  589MOL0     O79438   0.357   0.387   4.225 -0.2941 -0.2508 -0.4079
  589MOL0     C79439   0.231   0.397   4.290  0.6640 -0.0335  0.7600
  589MOL0     C79440   0.129   0.311   4.203  1.0548 -0.7468 -0.0344
  589MOL0     C79441   0.105   0.382   4.065 -0.6031 -0.3280  0.0462
  589MOL0     C79442  -0.033   0.446   4.060  0.5537 -0.0845  0.5919
  589MOL0     C79443  -0.066   0.545   4.173 -0.4644  0.6180 -0.9174
  589MOL0     C79444  -0.085   0.640   4.249  1.4685  0.3665 -0.1519
  589MOL0     C79445   0.570   0.325   4.231 -0.3093 -0.1507 -0.6855
  589MOL0     C79446   0.702   0.305   4.290  0.2551 -0.4668  0.4730
  589MOL0     C79447   0.809   0.252   4.195 -0.2906  0.0370  0.2928
  589MOL0     H79448   1.179   0.311   4.280 -0.8475 -1.6564 -0.2357
  589MOL0     H79449   1.417   0.336   4.353  0.4029 -0.2788 -0.1588
  589MOL0     H79450   1.471   0.397   4.791  1.1174  3.5773  0.0709
  589MOL0     H79451   1.539   0.234   4.771  2.3706  0.6182  2.6646
  589MOL0     H79452   1.697   0.399   4.881 -0.5381 -2.0007  0.0786
  589MOL0     H79453   1.688   0.497   4.734 -0.0418 -0.3898 -0.2341
  589MOL0     H79454   1.797   0.335   4.605 -0.8246 -0.0350  0.5178
  589MOL0     H79455   1.766   0.202   4.729 -0.4614  1.1569  2.9727
  589MOL0     H79456   1.958   0.420   4.754 -2.5983  2.7588  3.5854
  589MOL0     H79457   1.921   0.282   4.883 -1.0914 -2.9763 -0.7778
  589MOL0     H79458   1.987   0.124   4.700 -0.1589 -1.1634  5.6261
  589MOL0     H79459   2.057   0.269   4.611 -0.6738  0.3137  0.0798
  589MOL0     H79460   2.210   0.284   4.828  2.2818 -1.5494  1.7914
  589MOL0     H79461   2.125   0.135   4.882 -0.3868 -0.4942 -1.1637
  589MOL0     H79462   2.348   0.112   4.784 -0.5057  3.1744  1.2856
  589MOL0     H79463   2.285   0.173   4.633 -0.7642  1.4410  1.1310
  589MOL0     H79464   2.214  -0.105   4.747 -0.5950 -2.5838 -1.9100
  589MOL0     H79465   2.131  -0.027   4.614 -0.0123 -0.2607 -0.0382
  589MOL0     H79466   2.515  -0.052   4.721 -2.4436  0.8475  1.0956
  589MOL0     H79467   2.734  -0.201   4.514 -0.8360 -0.1782  0.7660
  589MOL0     H79468   2.717  -0.066   4.396 -0.9901  0.8875  0.7139
  589MOL0     H79469   2.769   0.090   4.580  1.3845  0.4507 -0.5650
  589MOL0     H79470   2.734  -0.043   4.700  0.1579 -3.5496 -1.1709
  589MOL0     H79471   2.985  -0.008   4.519 -0.7267  0.4038 -0.4421
  589MOL0     H79472   2.941  -0.155   4.582  1.2524  0.9213 -3.7451
  589MOL0     H79473   2.929  -0.042   4.822  0.8910 -1.0120  0.7891
  589MOL0     H79474   2.981   0.115   4.750 -1.7160  0.1541 -0.4106
  589MOL0     H79475   3.358  -0.104   4.752 -0.1449 -1.5092 -1.6585
  589MOL0     H79476   3.554   0.012   4.623  0.9489  3.0771 -3.0086
  589MOL0     H79477   3.724   0.457   4.489  0.3183 -0.7802  0.5813
  589MOL0     H79478   3.933   0.529   4.385 -1.6191  0.5166  1.3160
  589MOL0     H79479   4.152   0.561   4.298 -0.8573 -0.8014  1.3233
  589MOL0     H79480   4.193   0.445   4.425  0.9597 -0.5487  0.9326
  589MOL0     H79481   4.404   0.482   4.302 -0.4864  0.1470 -0.7178
  589MOL0     H79482   4.342   0.327   4.262  0.1585 -0.4019 -3.6449
  589MOL0     H79483   4.235   0.478   4.051 -0.4610 -1.8494  0.6368
  589MOL0     H79484   4.359   0.589   4.089  0.3757 -0.6496 -1.0929
  589MOL0     H79485   4.414   0.408   3.927 -1.2313 -0.7745  0.5730
  589MOL0     H79486   4.425   0.297   4.054 -0.6243  0.5152  1.0105
  589MOL0     H79487   4.609   0.422   4.173 -1.4959  0.1793  0.1581
  589MOL0     H79488   4.579   0.559   4.075  1.6214 -1.0250  0.9355
  589MOL0     H79489   4.684   0.294   3.986 -0.6841  0.0441  0.7310
  589MOL0     H79490   4.652   0.409   3.875 -1.9005 -1.3711  0.9473
  589MOL0     H79491   4.900   0.403   3.962 -0.5119  0.4302 -0.7325
  589MOL0     H79492   4.846   0.459   4.116  2.4078 -0.0417 -0.0639
  589MOL0     H79493   4.802   0.601   3.845 -2.6558  0.4828  0.1096
  589MOL0     H79494   4.756   0.666   4.001 -0.3945 -0.6760 -1.0913
  589MOL0     H79495   4.025   0.117   4.266 -2.7516 -2.9252  1.3444
  589MOL0     H79496   3.813   0.046   4.381 -1.1781  0.2398  1.5266
  589MOL0     H79497   3.279   0.293   4.477  2.1859  0.4369 -0.3644
  589MOL0     H79498   3.088   0.181   4.596 -1.0755 -3.6282 -4.6747
  589MOL0     H79499   1.282   0.357   4.758 -1.8508  2.0927 -0.2540
  589MOL0     H79500   1.063   0.293   4.690 -1.3621  0.9456 -0.9801
  589MOL0     H79501   0.615   0.416   4.606  2.9159  1.9523 -0.8875
  589MOL0     H79502   0.403   0.462   4.485  0.1305 -2.2864  2.8500
  589MOL0     H79503   0.205   0.503   4.289 -2.3418 -0.6020  3.0176
  589MOL0     H79504   0.226   0.355   4.390  0.5603 -0.5440  0.5454
  589MOL0     H79505   0.045   0.276   4.264  2.1307  0.4936  2.2842
  589MOL0     H79506   0.184   0.221   4.173  0.1541 -1.0130 -0.9411
  589MOL0     H79507   0.115   0.310   3.983 -1.0936  0.7367 -0.9623
  589MOL0     H79508   0.178   0.462   4.056 -2.0922  1.1512  0.6304
  589MOL0     H79509  -0.045   0.497   3.964  2.7899  0.3534  0.5034
  589MOL0     H79510  -0.105   0.363   4.071 -0.0185  0.3975  0.5246
  589MOL0     H79511  -0.106   0.730   4.303 -1.3555 -0.5042  0.3926
  589MOL0     H79512   0.554   0.304   4.126 -0.3151 -1.4500 -0.4507
  589MOL0     H79513   0.870   0.167   4.228  0.2531  0.5290  0.5679
  589MOL0     H79514   0.765   0.205   4.107  0.3729 -2.6140  1.2559
  589MOL0     H79515   0.884   0.329   4.173  1.8872 -1.5201  1.8341
  590MOL0     O79516   3.970   2.293   6.641  0.0662 -0.2273 -0.3759
  590MOL0     C79517   3.898   2.308   6.543 -1.4154 -0.0387 -0.5780
  590MOL0     O79518   3.942   2.294   6.420 -0.0298 -0.0720  0.7548
  590MOL0     C79519   4.073   2.262   6.393 -0.0771  0.3949 -0.3855
  590MOL0     C79520   4.152   2.345   6.313  0.4103  0.0999 -0.0781
  590MOL0     C79521   4.291   2.326   6.297  0.5293 -0.5138  1.0459
  590MOL0     C79522   4.351   2.211   6.343  0.5257  1.3540 -0.2289
  590MOL0     O79523   4.488   2.174   6.320  0.4943  0.3865  0.0048
  590MOL0     C79524   4.567   2.286   6.277  0.7446 -0.2933  0.0327
  590MOL0     C79525   4.721   2.248   6.263  0.6572  0.5993  0.0979
  590MOL0     C79526   4.728   2.108   6.189 -0.0063 -0.3333 -0.3274
  590MOL0     C79527   4.705   2.121   6.037 -0.1998  0.6309 -0.0328
  590MOL0     C79528   4.839   2.109   5.954  0.0165 -0.1073 -0.6514
  590MOL0     C79529   4.942   2.215   5.987  0.4228  0.3949 -0.3737
  590MOL0     C79530   5.072   2.213   5.899  0.7225  0.2183 -1.1902
  590MOL0     C79531   5.141   2.081   5.884  0.1194  0.0231  0.7982
  590MOL0     N79532   5.185   2.025   6.015  0.0792  0.4095 -0.5060
  590MOL0     C79533   5.203   1.887   6.053 -0.0640  0.1386  0.9283
  590MOL0     C79534   5.274   1.899   6.175  0.0649  0.2880 -0.2159
  590MOL0     C79535   5.327   1.794   6.264  0.2342  0.2724 -0.2868
  590MOL0     C79536   5.482   1.811   6.276  0.4805  0.9874  0.6345
  590MOL0     C79537   5.549   1.769   6.154 -0.3089  0.5487 -0.1041
  590MOL0     C79538   5.701   1.765   6.163 -0.0655 -0.4452 -0.1653
  590MOL0     O79539   5.739   1.903   6.172  0.4317  0.8125 -0.1724
  590MOL0     C79540   5.875   1.932   6.156  0.3959  0.5284 -0.5759
  590MOL0     C79541   5.923   2.053   6.111  0.0214 -0.3746  0.6615
  590MOL0     C79542   6.056   2.080   6.114 -0.1202 -0.2150 -0.4795
  590MOL0     C79543   6.153   1.982   6.152  0.7219 -0.3125  0.2551
  590MOL0     C79544   6.297   2.021   6.183  0.6383 -0.7716  0.4048
  590MOL0     O79545   6.323   2.154   6.163 -0.0699 -0.1132 -0.6157
  590MOL0     C79546   6.450   2.216   6.188  0.1932  0.0659 -0.5843
  590MOL0     C79547   6.468   2.345   6.132 -0.5166  0.1550 -0.3395
  590MOL0     C79548   6.593   2.419   6.148 -0.0788  0.0012 -0.2737
  590MOL0     C79549   6.697   2.364   6.229  0.9451 -0.3636  0.2226
  590MOL0     O79550   6.820   2.429   6.250 -0.3641 -0.1380  0.1175
  590MOL0     C79551   6.940   2.343   6.239  0.2024  0.9222 -0.1839
  590MOL0     C79552   7.061   2.421   6.187  0.4372  0.1037  0.4527
  590MOL0     C79553   7.173   2.327   6.152 -0.3537 -1.1576  0.4513
  590MOL0     C79554   7.158   2.269   6.009  0.6951 -0.3700  0.3793
  590MOL0     C79555   7.260   2.151   5.992 -0.0348 -0.7774 -0.5643
  590MOL0     C79556   7.278   2.117   5.844  1.2738  0.4207  0.8015
  590MOL0     C79557   7.363   1.987   5.822  0.0731 -0.1649 -0.1616
  590MOL0     C79558   7.293   1.859   5.871 -0.2888 -0.1796  0.5858
  590MOL0    Cl79559   7.129   1.833   5.824 -0.2990 -0.0569  0.0293
  590MOL0     C79560   6.672   2.244   6.296  0.2507  0.3691  0.5233
  590MOL0     C79561   6.551   2.172   6.279  0.3086  0.1060 -0.1605
  590MOL0     O79562   6.377   1.939   6.229  0.4761  0.1286 -0.1451
  590MOL0     C79563   6.116   1.855   6.188  0.2340  1.2303  0.6836
  590MOL0     C79564   5.980   1.830   6.187  0.4402  0.2877  0.0401
  590MOL0     N79565   5.283   2.027   6.211 -0.1118  0.2603 -0.1500
  590MOL0     N79566   5.243   2.103   6.115 -0.3285  0.2553  0.4662
  590MOL0     C79567   4.270   2.119   6.422 -1.1396  0.5203  1.4462
  590MOL0     C79568   4.134   2.148   6.435  0.3242  0.5888  0.2228
  590MOL0     C79569   3.762   2.354   6.575  0.3750  0.1466 -0.5559
  590MOL0     C79570   3.730   2.381   6.714  0.1902 -0.0562 -0.0354
  590MOL0     C79571   3.600   2.427   6.746  1.0058  0.8070 -0.0644
  590MOL0     C79572   3.493   2.437   6.646  0.1162  0.8995 -0.5983
  590MOL0     O79573   3.360   2.465   6.661 -0.7026  0.4511 -0.6643
  590MOL0     C79574   3.309   2.489   6.798 -0.0362  0.3363 -0.6422
  590MOL0     C79575   3.153   2.487   6.779 -0.1625  1.2544  0.3520
  590MOL0     C79576   3.095   2.600   6.705  0.7729  0.8141  0.7507
  590MOL0     C79577   2.942   2.609   6.715 -0.6987 -0.3878  0.3244
  590MOL0     C79578   2.876   2.510   6.643 -0.6121  0.7564  0.6828
  590MOL0     C79579   2.822   2.422   6.578  0.3532  0.0442 -1.1194
  590MOL0     C79580   3.533   2.410   6.517 -0.2933 -0.1845  0.4557
  590MOL0     C79581   3.663   2.366   6.478  0.1456  0.5079  0.9194
  590MOL0     C79582   3.678   2.333   6.325  0.1402 -0.0799  0.6249
  590MOL0     H79583   4.109   2.431   6.262  1.7037  1.3755  0.9105
  590MOL0     H79584   4.344   2.398   6.235 -1.8563 -2.3887 -3.6980
  590MOL0     H79585   4.526   2.305   6.178 -1.5792 -0.5049  0.8832
  590MOL0     H79586   4.547   2.376   6.335 -2.7519  2.1287 -4.3311
  590MOL0     H79587   4.762   2.253   6.365 -1.5392 -1.2681  1.1473
  590MOL0     H79588   4.781   2.322   6.209  1.9550 -1.8208 -1.9745
  590MOL0     H79589   4.657   2.032   6.223  1.1298 -1.1865  0.1766
  590MOL0     H79590   4.828   2.064   6.197 -0.3202 -1.1679 -0.8430
  590MOL0     H79591   4.629   2.054   5.994  0.0236 -0.6188  1.4486
  590MOL0     H79592   4.655   2.216   6.017 -4.7515 -1.5882 -0.4282
  590MOL0     H79593   4.872   2.006   5.971 -0.4253 -0.0605  0.5788
  590MOL0     H79594   4.808   2.108   5.849  4.2527  0.8165 -2.1113
  590MOL0     H79595   4.889   2.311   5.984  2.2674  1.4542 -0.6694
  590MOL0     H79596   4.981   2.201   6.088  1.8457 -0.5633 -1.0145
  590MOL0     H79597   5.141   2.284   5.946 -0.8589  2.8537 -2.5867
  590MOL0     H79598   5.055   2.259   5.801 -3.1860  0.5300 -0.5407
  590MOL0     H79599   5.074   2.010   5.835 -0.4308  1.8030 -1.1175
  590MOL0     H79600   5.228   2.102   5.822 -0.5350  0.8030  0.1357
  590MOL0     H79601   5.168   1.801   5.997 -2.3355  1.1125  0.7392
  590MOL0     H79602   5.282   1.793   6.363  0.2291 -0.4984 -0.2913
  590MOL0     H79603   5.306   1.700   6.213 -0.7352  0.0846  0.4213
  590MOL0     H79604   5.498   1.917   6.296 -2.2375  1.9865 -1.6815
  590MOL0     H79605   5.509   1.746   6.360 -1.0877 -2.3464 -1.2207
  590MOL0     H79606   5.518   1.840   6.078 -3.8548 -0.8021 -0.1327
  590MOL0     H79607   5.520   1.666   6.131  4.5676 -1.5529  1.6986
  590MOL0     H79608   5.731   1.716   6.070 -0.2321  1.3694 -1.2162
  590MOL0     H79609   5.721   1.701   6.249  0.1965  0.1327  0.2070
  590MOL0     H79610   5.848   2.129   6.089 -0.8531 -1.0288  1.3348
  590MOL0     H79611   6.087   2.184   6.112  1.5249 -0.3198  4.9242
  590MOL0     H79612   6.386   2.383   6.072 -3.1513 -2.7824  1.1714
  590MOL0     H79613   6.612   2.521   6.115 -0.3368  0.3241  0.5470
  590MOL0     H79614   6.957   2.301   6.339 -1.9662  0.4621  0.0375
  590MOL0     H79615   6.929   2.256   6.174  2.2204  2.8782 -3.4288
  590MOL0     H79616   7.018   2.475   6.102 -1.0225 -0.8824  0.5306
  590MOL0     H79617   7.094   2.499   6.257  0.7099 -0.6880  1.2241
  590MOL0     H79618   7.267   2.383   6.153 -1.2371  0.3970 -0.0793
  590MOL0     H79619   7.186   2.246   6.224  0.6189 -0.4894  1.0450
  590MOL0     H79620   7.180   2.346   5.935 -1.1540  0.1974  0.3816
  590MOL0     H79621   7.055   2.236   5.995  0.9320 -1.7711  1.6822
  590MOL0     H79622   7.225   2.058   6.038  1.4647 -1.4867 -0.7965
  590MOL0     H79623   7.356   2.167   6.041  0.1727 -0.4843 -1.0735
  590MOL0     H79624   7.182   2.095   5.798  1.9878  1.0852 -1.1072
  590MOL0     H79625   7.320   2.203   5.790 -1.6977  0.8096 -1.1239
  590MOL0     H79626   7.455   1.990   5.881  0.3161  1.3713 -0.5921
  590MOL0     H79627   7.396   1.980   5.718 -3.0680  0.2670 -1.3208
  590MOL0     H79628   7.352   1.781   5.823  1.4090  0.4035  1.6340
  590MOL0     H79629   7.296   1.855   5.981 -0.9702  1.5755  0.7060
  590MOL0     H79630   6.749   2.202   6.359  1.6898  1.0110 -0.7337
  590MOL0     H79631   6.543   2.076   6.329 -1.5555 -0.5912 -1.6989
  590MOL0     H79632   6.180   1.779   6.234 -1.3401 -0.7309 -0.2275
  590MOL0     H79633   5.949   1.737   6.232  0.5094  0.6512  0.8590
  590MOL0     H79634   4.307   2.033   6.476 -0.8884 -0.4464 -0.1814
  590MOL0     H79635   4.073   2.079   6.491  2.0109 -1.0076  0.1899
  590MOL0     H79636   3.794   2.366   6.800  0.2996  0.8042  0.0410
  590MOL0     H79637   3.572   2.452   6.848 -1.0539  2.5020 -0.9664
  590MOL0     H79638   3.354   2.582   6.834  1.8363 -0.2391 -1.4013
  590MOL0     H79639   3.340   2.402   6.857 -1.1530 -0.1295 -0.7089
  590MOL0     H79640   3.113   2.474   6.880  2.3225 -0.6839  1.1937
  590MOL0     H79641   3.131   2.398   6.721 -0.0950 -0.8150  3.2828
  590MOL0     H79642   3.127   2.594   6.601 -0.9001  0.3996  0.2243
  590MOL0     H79643   3.129   2.693   6.752  0.1390  2.0013 -1.0137
  590MOL0     H79644   2.906   2.608   6.818  1.9873 -0.5414  1.3514
  590MOL0     H79645   2.917   2.705   6.669  1.4823 -0.7916 -2.0127
  590MOL0     H79646   2.766   2.357   6.514  1.2857 -1.2142 -0.6788
  590MOL0     H79647   3.453   2.430   6.446  0.8557  1.7983 -0.3605
  590MOL0     H79648   3.589   2.361   6.268  2.5157  1.0639 -2.7899
  590MOL0     H79649   3.758   2.402   6.296 -0.9395  1.9411  2.1482
  590MOL0     H79650   3.704   2.229   6.306  0.2398 -0.2031  1.4045
  591MOL0     O79651   5.065   8.867   6.747 -0.2400  0.2673 -0.1762
  591MOL0     C79652   5.049   8.981   6.711  0.5293  0.5340 -0.2874
  591MOL0     O79653   5.149   9.058   6.653 -0.1334  0.0715 -0.0386
  591MOL0     C79654   5.276   9.014   6.626 -0.1698 -1.0113 -0.3804
  591MOL0     C79655   5.351   9.082   6.529  0.5587 -0.7536  0.7988
  591MOL0     C79656   5.488   9.055   6.505  0.4643  0.9276  0.0685
  591MOL0     C79657   5.547   8.952   6.573 -0.2261 -0.4284 -0.8688
  591MOL0     O79658   5.678   8.913   6.560 -0.0221 -0.5688 -0.7717
  591MOL0     C79659   5.751   8.927   6.438 -0.1877 -0.3175 -0.6324
  591MOL0     C79660   5.897   8.875   6.472  0.8347 -0.0162 -0.3913
  591MOL0     C79661   5.901   8.721   6.455  0.5665 -0.3975  0.3663
  591MOL0     C79662   6.035   8.663   6.518 -0.2420 -0.6848  0.6138
  591MOL0     C79663   6.163   8.684   6.434 -0.2212 -0.0353 -0.7908
  591MOL0     C79664   6.286   8.680   6.521 -0.0738 -0.7141 -0.5025
  591MOL0     C79665   6.428   8.695   6.449 -0.1413 -1.5899 -0.0379
  591MOL0     C79666   6.446   8.849   6.417 -0.1118 -0.6807  0.2923
  591MOL0     N79667   6.547   8.881   6.313 -0.3633  1.0017  0.6370
  591MOL0     C79668   6.585   8.798   6.209 -0.0563 -0.0187  0.6156
  591MOL0     C79669   6.677   8.871   6.145 -0.4296  0.5889  0.3798
  591MOL0     C79670   6.755   8.820   6.024  0.1149  0.7244 -0.1143
  591MOL0     C79671   6.892   8.887   6.026 -0.3787  0.6094 -0.0885
  591MOL0     C79672   6.975   8.812   5.909  0.3523  0.1978 -0.9185
  591MOL0     C79673   7.091   8.900   5.874  0.5618 -0.0672  0.7240
  591MOL0     O79674   7.171   8.916   5.992  0.3588 -0.2973 -0.0104
  591MOL0     C79675   7.283   8.994   5.984 -0.8407  0.2948 -0.1723
  591MOL0     C79676   7.351   9.052   5.880 -0.2866  0.2769  0.2942
  591MOL0     C79677   7.474   9.113   5.882  0.0180 -0.4928 -0.3134
  591MOL0     C79678   7.532   9.144   6.004  0.6299  0.2767 -1.0333
  591MOL0     C79679   7.656   9.217   6.007 -0.7354 -0.2767  0.1616
  591MOL0     O79680   7.700   9.274   5.886  0.1631 -0.4364 -0.1008
  591MOL0     C79681   7.810   9.355   5.897  0.0690 -0.0837  0.5682
  591MOL0     C79682   7.910   9.335   5.798 -1.0491  0.0207  0.8526
  591MOL0     C79683   8.007   9.436   5.789 -0.5156 -0.2372  0.9009
  591MOL0     C79684   8.011   9.536   5.885  0.3526 -0.2095 -0.2399
  591MOL0     O79685   8.109   9.634   5.858 -0.5826  0.6512 -0.3552
  591MOL0     C79686   8.168   9.698   5.974  0.3191  1.4874  0.7399
  591MOL0     C79687   8.314   9.705   5.932  0.8652 -0.7647  0.1402
  591MOL0     C79688   8.389   9.795   6.029 -0.2825 -0.3110 -0.4486
  591MOL0     C79689   8.467   9.716   6.130 -0.8933 -0.0761 -0.4237
  591MOL0     C79690   8.587   9.795   6.184 -0.1598 -0.0988 -0.4863
  591MOL0     C79691   8.654   9.698   6.277  0.0524  0.4336  0.4337
  591MOL0     C79692   8.775   9.769   6.340  0.6484 -0.7770  0.3052
  591MOL0     C79693   8.875   9.660   6.390 -0.3728  0.2438 -0.0459
  591MOL0    Cl79694   8.820   9.604   6.552 -0.4627  0.1453 -0.4658
  591MOL0     C79695   7.915   9.543   5.989  0.5272  0.2052  0.3260
  591MOL0     C79696   7.811   9.462   5.988 -0.2180  0.4067 -0.0194
  591MOL0     O79697   7.715   9.228   6.116  0.4171 -0.5416  0.5510
  591MOL0     C79698   7.460   9.099   6.120 -0.0437 -0.2547 -0.4061
  591MOL0     C79699   7.339   9.028   6.106 -0.5026  0.7520 -0.9317
  591MOL0     N79700   6.679   9.003   6.191  0.1434  1.3649 -0.3192
  591MOL0     N79701   6.600   9.003   6.295 -0.5483 -0.1926  0.0916
  591MOL0     C79702   5.470   8.882   6.673  0.1526 -0.0820  0.7280
  591MOL0     C79703   5.340   8.920   6.700  0.3004  0.2668  0.2948
  591MOL0     C79704   4.915   9.044   6.700  0.6090  0.8484 -0.0921
  591MOL0     C79705   4.883   9.125   6.587 -0.3620 -0.4400  0.2198
  591MOL0     C79706   4.756   9.166   6.568  0.1587  0.3933 -0.0844
  591MOL0     C79707   4.655   9.130   6.661 -0.2134 -0.0160 -0.6198
  591MOL0     O79708   4.529   9.178   6.641 -0.7768 -0.0341  0.3435
  591MOL0     C79709   4.428   9.182   6.742 -0.2768  0.1653 -0.5308
  591MOL0     C79710   4.330   9.278   6.688  0.4490 -0.0411  0.6549
  591MOL0     C79711   4.197   9.269   6.771  0.4836  0.5520  0.3115
  591MOL0     C79712   4.090   9.378   6.741 -0.0244 -0.8818 -0.8105
  591MOL0     C79713   4.039   9.363   6.607 -0.4369  0.6445  0.5133
  591MOL0     C79714   3.996   9.358   6.492  0.1885  0.2431  0.6559
  591MOL0     C79715   4.690   9.055   6.773  0.0225 -1.1098 -0.0427
  591MOL0     C79716   4.817   9.009   6.795  0.1093 -0.3448 -0.0381
  591MOL0     C79717   4.849   8.940   6.925  0.6859  0.4634  0.5955
  591MOL0     H79718   5.297   9.154   6.468  1.6961  1.5147  2.3015
  591MOL0     H79719   5.531   9.107   6.420 -0.4103  1.9225  0.2159
  591MOL0     H79720   5.707   8.892   6.345 -2.5968 -0.3498  0.4529
  591MOL0     H79721   5.756   9.036   6.422  1.5379 -0.1743  0.5726
  591MOL0     H79722   5.925   8.887   6.577 -1.9135 -3.0884  0.8720
  591MOL0     H79723   5.972   8.917   6.404  2.6308 -1.4579  0.5980
  591MOL0     H79724   5.896   8.699   6.348 -0.5252  3.1205 -0.4333
  591MOL0     H79725   5.817   8.676   6.508  0.6343  1.2151  1.9349
  591MOL0     H79726   6.057   8.706   6.616  2.3197  0.7549 -0.5020
  591MOL0     H79727   6.011   8.557   6.535 -4.9199  0.1128  0.3127
  591MOL0     H79728   6.178   8.601   6.365  4.2926 -0.8035  0.7657
  591MOL0     H79729   6.154   8.781   6.386  1.3149  1.5532  1.8851
  591MOL0     H79730   6.270   8.753   6.601 -0.1731  0.1405 -1.2971
  591MOL0     H79731   6.288   8.580   6.567  0.9507 -0.6646 -0.4007
  591MOL0     H79732   6.430   8.639   6.355  1.4248  0.8194 -1.5339
  591MOL0     H79733   6.510   8.659   6.513  1.2799  0.5832 -0.5352
  591MOL0     H79734   6.356   8.905   6.386  1.1375  1.1930 -0.1514
  591MOL0     H79735   6.473   8.881   6.518 -0.8273 -2.4036  1.0636
  591MOL0     H79736   6.549   8.697   6.192  0.2327 -0.0591  0.2336
  591MOL0     H79737   6.779   8.714   6.041  0.9347  1.1497  1.5756
  591MOL0     H79738   6.703   8.822   5.928 -0.3446 -0.5996  0.0825
  591MOL0     H79739   6.873   8.991   5.999 -0.3268  0.6585  0.0626
  591MOL0     H79740   6.953   8.878   6.117  0.0935 -0.6540 -0.5200
  591MOL0     H79741   6.902   8.808   5.828 -3.6491  1.1738  2.3455
  591MOL0     H79742   7.006   8.712   5.941 -0.2687  0.5950  1.0703
  591MOL0     H79743   7.053   8.998   5.843  0.8786 -0.9449 -2.8879
  591MOL0     H79744   7.157   8.867   5.793 -1.3702 -0.3186 -0.8343
  591MOL0     H79745   7.302   9.045   5.784  1.4115  1.7986 -0.7386
  591MOL0     H79746   7.522   9.153   5.793  1.7156 -0.6293  0.5096
  591MOL0     H79747   7.915   9.249   5.733  0.9422 -0.6268  1.7881
  591MOL0     H79748   8.089   9.420   5.721 -0.6159 -2.2962  1.1913
  591MOL0     H79749   8.128   9.799   5.985 -1.8352  0.5987  1.7416
  591MOL0     H79750   8.160   9.638   6.065 -0.9245 -1.2651 -1.0438
  591MOL0     H79751   8.344   9.600   5.939  2.8331 -0.2813 -0.4981
  591MOL0     H79752   8.328   9.737   5.829  0.0276 -1.0356 -0.0672
  591MOL0     H79753   8.452   9.864   5.971  1.7504 -1.4094  0.3646
  591MOL0     H79754   8.317   9.862   6.077  2.0344  2.5850 -0.7129
  591MOL0     H79755   8.511   9.629   6.080  0.7895 -0.6547  1.8971
  591MOL0     H79756   8.402   9.677   6.210 -0.1354  3.4790  2.1560
  591MOL0     H79757   8.550   9.890   6.224 -2.4089 -1.5457  1.0656
  591MOL0     H79758   8.654   9.817   6.100 -1.5598  0.8260 -1.4098
  591MOL0     H79759   8.585   9.666   6.356  0.1547 -0.2496  0.2504
  591MOL0     H79760   8.690   9.611   6.222  0.8301  0.9068  0.1808
  591MOL0     H79761   8.741   9.838   6.417 -2.1871  0.2214 -1.6972
  591MOL0     H79762   8.818   9.834   6.264  0.7352  1.5255  2.2248
  591MOL0     H79763   8.881   9.576   6.319 -0.6903 -1.4343  1.8405
  591MOL0     H79764   8.977   9.699   6.391 -0.4133  0.4165 -1.2157
  591MOL0     H79765   7.893   9.633   6.046  0.9976 -0.2577  1.2675
  591MOL0     H79766   7.740   9.487   6.067  1.1284  1.8866  0.7839
  591MOL0     H79767   7.491   9.124   6.221 -0.2923  0.8371 -0.5894
  591MOL0     H79768   7.274   9.003   6.189  1.4281  2.3033  1.1906
  591MOL0     H79769   5.516   8.800   6.727  2.0649  0.2363 -0.3140
  591MOL0     H79770   5.295   8.859   6.777 -0.3458 -1.0467 -1.0535
  591MOL0     H79771   4.956   9.158   6.513 -1.4519 -1.1490 -1.2236
  591MOL0     H79772   4.731   9.224   6.479 -1.1629  0.6339  0.4186
  591MOL0     H79773   4.460   9.217   6.841  0.1961 -0.3077 -0.5119
  591MOL0     H79774   4.379   9.086   6.764  0.1895  0.3002  1.3145
  591MOL0     H79775   4.311   9.242   6.587  0.8491  1.3459  0.0549
  591MOL0     H79776   4.370   9.380   6.688  1.4419 -0.3763 -1.6084
  591MOL0     H79777   4.223   9.279   6.876  0.0811 -0.6387  0.5306
  591MOL0     H79778   4.148   9.173   6.757  1.2196  0.1968  0.0926
  591MOL0     H79779   4.008   9.370   6.813  1.0594  1.2109  0.7609
  591MOL0     H79780   4.122   9.481   6.757 -0.6195 -0.9509  1.1226
  591MOL0     H79781   3.974   9.367   6.388 -1.4990  0.7727  1.0307
  591MOL0     H79782   4.619   9.033   6.852  0.8099 -0.5003  0.8636
  591MOL0     H79783   4.884   8.839   6.905  3.3999  1.3445  0.4197
  591MOL0     H79784   4.930   8.996   6.973  0.9309 -0.0258  0.7507
  591MOL0     H79785   4.761   8.939   6.989  0.0521  1.7225 -0.2159
  592MOL0     O79786   0.715  10.979   8.111  1.0705 -0.2982  0.2739
  592MOL0     C79787   0.618  11.009   8.173 -0.3486  0.3670  0.0662
  592MOL0     O79788   0.603  10.968   8.307  0.0910 -0.6586 -0.1095
  592MOL0     C79789   0.712  10.906   8.367 -0.2146  0.4761 -0.7333
  592MOL0     C79790   0.762  10.787   8.329 -0.2482 -1.2678 -0.1933
  592MOL0     C79791   0.872  10.731   8.400  0.3553 -0.2412 -0.2648
  592MOL0     C79792   0.912  10.771   8.527 -0.0974 -0.1467 -0.2207
  592MOL0     O79793   1.003  10.703   8.610  0.9120 -0.2504  0.0304
  592MOL0     C79794   0.987  10.570   8.598  0.2104  0.3207 -0.3928
  592MOL0     C79795   1.070  10.508   8.714 -0.0670 -0.3598 -0.0447
  592MOL0     C79796   1.222  10.521   8.706 -0.0115 -1.3110 -0.3124
  592MOL0     C79797   1.285  10.481   8.838 -1.0271  0.0843  0.3605
  592MOL0     C79798   1.438  10.470   8.821 -0.2973 -0.3719  0.0028
  592MOL0     C79799   1.509  10.442   8.953 -0.1212  0.5480 -0.6266
  592MOL0     C79800   1.657  10.476   8.940 -0.0479 -1.0196  0.0486
  592MOL0     C79801   1.752  10.445   9.063  0.3629 -0.9087  0.1498
  592MOL0     N79802   1.878  10.513   9.042  0.1469  0.8108 -0.4525
  592MOL0     C79803   1.947  10.490   8.928 -0.1749  0.2386 -0.4465
  592MOL0     C79804   2.065  10.545   8.951  0.5096  0.0941  0.3055
  592MOL0     C79805   2.170  10.527   8.849 -1.0669  0.3693  0.0161
  592MOL0     C79806   2.299  10.602   8.885 -1.1381  0.1585 -0.1228
  592MOL0     C79807   2.396  10.616   8.759  0.0012 -0.2351  0.4092
  592MOL0     C79808   2.526  10.690   8.791 -0.1460 -0.1981  0.1171
  592MOL0     O79809   2.587  10.758   8.673 -0.4861  0.3986 -0.4455
  592MOL0     C79810   2.709  10.809   8.694 -1.0029 -0.8486 -0.7279
  592MOL0     C79811   2.781  10.851   8.582 -0.4255  0.2474 -0.6039
  592MOL0     C79812   2.896  10.931   8.596 -0.1318  0.1528 -0.3078
  592MOL0     C79813   2.952  10.956   8.726  0.3861  0.2177  0.3089
  592MOL0     C79814   3.077  11.035   8.741  0.7631  0.6536 -0.6392
  592MOL0     O79815   3.159  11.017   8.859  0.6495  1.1209  0.0934
  592MOL0     C79816   3.272  11.099   8.879  0.8324  0.3179 -0.7262
  592MOL0     C79817   3.377  11.094   8.793 -0.6581  0.4034  0.1030
  592MOL0     C79818   3.476  11.194   8.806  0.2746  0.1709  0.9907
  592MOL0     C79819   3.482  11.282   8.912  0.6466  0.1345 -0.6582
  592MOL0     O79820   3.578  11.376   8.931  0.3370  0.0350  0.0454
  592MOL0     C79821   3.693  11.379   8.852 -0.1272  0.9097  0.6672
  592MOL0     C79822   3.779  11.479   8.915 -0.4658  0.1649 -0.8177
  592MOL0     C79823   3.922  11.482   8.861  0.0090  0.2220  0.9555
  592MOL0     C79824   3.999  11.604   8.905  0.3069 -0.4847  0.1262
  592MOL0     C79825   4.144  11.619   8.849  0.4519  0.6146  0.0811
  592MOL0     C79826   4.195  11.756   8.901  0.0567  0.2728 -0.5156
  592MOL0     C79827   4.347  11.762   8.900 -0.5715  0.6081  0.1665
  592MOL0     C79828   4.394  11.909   8.879 -0.4935 -0.2694  0.2490
  592MOL0    Cl79829   4.571  11.896   8.845 -0.0851 -0.0423  0.2606
  592MOL0     C79830   3.381  11.272   9.012 -0.4242 -0.2657  0.5068
  592MOL0     C79831   3.268  11.191   8.984  0.4516  0.0679 -0.4720
  592MOL0     O79832   3.099  11.113   8.648  0.2512 -0.8652 -0.2301
  592MOL0     C79833   2.892  10.895   8.834  0.8725 -0.8304  0.1691
  592MOL0     C79834   2.773  10.824   8.822 -0.1206  0.0290  0.3224
  592MOL0     N79835   2.068  10.614   9.077 -0.4571 -0.2409  0.3560
  592MOL0     N79836   1.953  10.575   9.134  0.3387 -0.7643 -0.2492
  592MOL0     C79837   0.847  10.881   8.574  0.3151  0.1831 -1.1140
  592MOL0     C79838   0.752  10.951   8.495 -0.2671  0.4018 -0.4163
  592MOL0     C79839   0.507  11.085   8.116 -0.2266  0.0775  0.0279
  592MOL0     C79840   0.388  11.097   8.191 -1.2359 -1.0042 -0.1492
  592MOL0     C79841   0.270  11.151   8.134  0.0796 -0.8275 -0.2049
  592MOL0     C79842   0.275  11.221   8.010  0.5168 -0.7248  0.5482
  592MOL0     O79843   0.174  11.282   7.938 -0.1709  0.4107  0.2716
  592MOL0     C79844   0.067  11.347   8.003  0.3512  0.6079 -0.0933
  592MOL0     C79845  -0.003  11.443   7.916  0.2134 -0.4682 -0.4236
  592MOL0     C79846  -0.075  11.376   7.793 -0.2260 -0.1157  0.3254
  592MOL0     C79847  -0.102  11.483   7.686 -1.0068  0.7529 -0.4142
  592MOL0     C79848  -0.222  11.441   7.605 -0.9254 -0.3086 -0.6296
  592MOL0     C79849  -0.325  11.423   7.546  0.3981  0.0562 -0.1706
  592MOL0     C79850   0.398  11.208   7.938  0.6044  0.1118  0.6157
  592MOL0     C79851   0.511  11.140   7.985 -0.6812  0.1294 -0.4240
  592MOL0     C79852   0.635  11.158   7.901 -0.2600 -0.9459  0.2930
  592MOL0     H79853   0.717  10.752   8.237  1.8411 -0.6355 -1.4978
  592MOL0     H79854   0.912  10.638   8.359 -2.7007 -1.4584 -0.7604
  592MOL0     H79855   0.885  10.535   8.617  1.1861 -1.7932  1.4393
  592MOL0     H79856   1.032  10.538   8.503 -0.4253  2.8642 -1.6484
  592MOL0     H79857   1.042  10.403   8.722  0.8840 -0.4589  3.6375
  592MOL0     H79858   1.038  10.545   8.812 -0.3735 -2.0922  0.5376
  592MOL0     H79859   1.241  10.625   8.678 -2.0212 -1.1291 -1.1661
  592MOL0     H79860   1.261  10.456   8.626 -2.2728 -1.9440 -0.9715
  592MOL0     H79861   1.262  10.552   8.919  0.3385  0.4332  0.4595
  592MOL0     H79862   1.248  10.384   8.873  1.2796 -0.6030  1.0405
  592MOL0     H79863   1.464  10.390   8.751 -0.2628  0.5066 -1.0012
  592MOL0     H79864   1.469  10.566   8.780  1.3715 -0.8974 -0.0471
  592MOL0     H79865   1.463  10.499   9.034 -2.1899  1.7621 -2.5523
  592MOL0     H79866   1.493  10.337   8.977  2.3433  0.7811  2.6278
  592MOL0     H79867   1.664  10.584   8.923  0.2734 -1.2695 -1.5073
  592MOL0     H79868   1.687  10.425   8.848 -0.2426 -1.3972  0.1920
  592MOL0     H79869   1.708  10.489   9.153  1.8511  0.3999  0.2816
  592MOL0     H79870   1.770  10.337   9.058  1.0392 -0.7387 -2.3126
  592MOL0     H79871   1.915  10.440   8.837 -3.5295  0.4170  0.5221
  592MOL0     H79872   2.197  10.422   8.837  2.9361  1.4031 -1.9052
  592MOL0     H79873   2.143  10.558   8.747  0.9523  1.5057 -0.2179
  592MOL0     H79874   2.286  10.701   8.929  0.6795 -1.0961  3.7742
  592MOL0     H79875   2.344  10.542   8.965 -1.5697  0.2167  0.1673
  592MOL0     H79876   2.355  10.666   8.670 -0.3783  0.6819  1.0871
  592MOL0     H79877   2.423  10.515   8.727 -1.2035 -0.6562  0.6770
  592MOL0     H79878   2.599  10.627   8.842  3.4080  0.0995 -3.9800
  592MOL0     H79879   2.503  10.773   8.858  0.1074  0.8300 -1.0249
  592MOL0     H79880   2.735  10.849   8.484 -2.3171 -0.8159  0.2572
  592MOL0     H79881   2.936  10.969   8.502  0.0396 -2.3623 -1.3190
  592MOL0     H79882   3.376  11.017   8.716  1.3092  0.8895 -0.4533
  592MOL0     H79883   3.558  11.188   8.734  0.9297 -4.4760  1.7953
  592MOL0     H79884   3.732  11.277   8.854 -0.0150  0.9607  1.2820
  592MOL0     H79885   3.667  11.425   8.756  1.2120  1.0806  0.3696
  592MOL0     H79886   3.739  11.581   8.916  1.4387  0.9709  0.8925
  592MOL0     H79887   3.791  11.463   9.023 -0.2381  1.2097 -0.6708
  592MOL0     H79888   3.982  11.395   8.890  0.9665  0.8540  0.9296
  592MOL0     H79889   3.919  11.490   8.752  3.7916 -0.1094  0.6784
  592MOL0     H79890   4.000  11.602   9.014 -0.3928 -0.0621  0.1513
  592MOL0     H79891   3.936  11.687   8.872 -0.9126 -1.4690 -0.0897
  592MOL0     H79892   4.150  11.600   8.741  1.6247  0.0076  0.2336
  592MOL0     H79893   4.200  11.536   8.894 -2.7830 -0.4980  2.3656
  592MOL0     H79894   4.157  11.844   8.848 -1.7408 -0.4997 -0.5937
  592MOL0     H79895   4.167  11.772   9.005 -1.1623  0.7172 -0.8935
  592MOL0     H79896   4.382  11.698   8.818  3.0902  1.9689  0.4995
  592MOL0     H79897   4.388  11.736   8.998 -3.3662 -0.5755  1.1408
  592MOL0     H79898   4.350  11.950   8.787 -0.7143 -0.5057  0.2475
  592MOL0     H79899   4.364  11.983   8.953  0.5128  1.8644 -1.3702
  592MOL0     H79900   3.377  11.332   9.102  0.1275 -0.6332  0.7787
  592MOL0     H79901   3.178  11.186   9.044  0.9729  0.7474  0.3860
  592MOL0     H79902   2.934  10.900   8.934 -0.1398 -3.1284  0.7849
  592MOL0     H79903   2.719  10.793   8.912 -2.4486  0.9488 -0.6716
  592MOL0     H79904   0.867  10.913   8.676 -0.9856 -0.2235 -0.7190
  592MOL0     H79905   0.719  11.046   8.534  0.5605  1.2710 -1.7523
  592MOL0     H79906   0.379  11.052   8.290  1.0391 -1.9243 -0.2903
  592MOL0     H79907   0.174  11.140   8.184 -0.9085 -0.3160 -1.9017
  592MOL0     H79908   0.123  11.389   8.087  0.8869 -1.5227  0.6816
  592MOL0     H79909  -0.011  11.282   8.044 -0.2162  1.3495  0.0274
  592MOL0     H79910   0.074  11.508   7.874 -0.0828 -0.7386 -1.4152
  592MOL0     H79911  -0.082  11.495   7.970  0.2842 -1.8020  1.0463
  592MOL0     H79912  -0.168  11.324   7.821 -0.1118 -0.6904 -0.3595
  592MOL0     H79913  -0.010  11.301   7.749  1.8435  2.4301 -1.2152
  592MOL0     H79914  -0.113  11.579   7.738 -2.2643  0.7860 -0.6999
  592MOL0     H79915  -0.014  11.494   7.623 -1.6203 -1.2644 -1.7245
  592MOL0     H79916  -0.415  11.410   7.489  1.9750  0.2854 -2.9243
  592MOL0     H79917   0.401  11.262   7.844  0.1133 -1.2242 -0.1796
  592MOL0     H79918   0.693  11.067   7.886 -0.2181 -1.1294  1.4145
  592MOL0     H79919   0.604  11.193   7.802  1.3384  0.0284  0.1072
  592MOL0     H79920   0.701  11.233   7.947 -2.8317  2.2292 -0.7963
  593MOL0     O79921   1.386   0.101   8.005 -0.4690 -0.4316 -0.3714
  593MOL0     C79922   1.325   0.211   8.016 -0.0568 -0.0242  0.3440
  593MOL0     O79923   1.369   0.318   8.086  0.5108  1.5037  0.0339
  593MOL0     C79924   1.485   0.308   8.159  0.6718  0.3085  0.6417
  593MOL0     C79925   1.473   0.302   8.296 -0.3183  0.2580 -0.8049
  593MOL0     C79926   1.592   0.300   8.376  0.6341 -0.3089  0.2927
  593MOL0     C79927   1.723   0.286   8.317  0.5384 -0.0251 -0.0383
  593MOL0     O79928   1.837   0.264   8.394  0.0285  0.4548  0.1664
  593MOL0     C79929   1.965   0.292   8.333  0.7448  0.0323 -0.6501
  593MOL0     C79930   2.089   0.264   8.421  0.7276  0.2161 -0.1088
  593MOL0     C79931   2.105   0.378   8.521  0.3370  0.4911  0.1006
  593MOL0     C79932   2.250   0.366   8.584  0.3557  1.4292  0.0110
  593MOL0     C79933   2.329   0.491   8.529  0.0985  0.2851 -1.5876
  593MOL0     C79934   2.465   0.501   8.613  0.0853  0.4121  0.5614
  593MOL0     C79935   2.456   0.564   8.750  0.5082 -1.0599 -0.4911
  593MOL0     C79936   2.448   0.722   8.732 -0.3826  0.2000 -0.4632
  593MOL0     N79937   2.582   0.783   8.695 -0.5091  0.0176 -0.3310
  593MOL0     C79938   2.627   0.817   8.565  0.9311 -0.9711 -0.6321
  593MOL0     C79939   2.742   0.875   8.573  0.7858  0.1471 -0.3830
  593MOL0     C79940   2.836   0.931   8.469  0.4517 -0.0288 -0.1498
  593MOL0     C79941   2.780   1.072   8.439  1.1573 -0.4028 -0.1861
  593MOL0     C79942   2.881   1.145   8.349  0.1398  0.0812 -0.0672
  593MOL0     C79943   3.008   1.193   8.420  0.6730  0.0095 -0.7016
  593MOL0     O79944   2.985   1.270   8.543 -0.0415 -0.0091 -0.4054
  593MOL0     C79945   3.083   1.306   8.633 -0.5033  0.3973  0.4989
  593MOL0     C79946   3.215   1.298   8.595  0.6752  0.1079 -0.1313
  593MOL0     C79947   3.317   1.343   8.675  0.5504  0.6217  0.6516
  593MOL0     C79948   3.281   1.392   8.804  0.0070  0.3071  0.4218
  593MOL0     C79949   3.391   1.444   8.892 -0.1287 -0.3817 -0.8249
  593MOL0     O79950   3.520   1.415   8.849  0.3977 -0.4446 -0.3858
  593MOL0     C79951   3.635   1.444   8.919 -0.4163 -0.4544  0.4341
  593MOL0     C79952   3.752   1.403   8.860  0.1083 -0.1084 -0.0189
  593MOL0     C79953   3.875   1.417   8.923 -0.6183  0.4391  0.1763
  593MOL0     C79954   3.883   1.465   9.045  0.4967 -0.2492 -0.0178
  593MOL0     O79955   3.994   1.487   9.120 -0.3529 -0.5066  0.5042
  593MOL0     C79956   4.126   1.467   9.065  0.2956  0.1452  0.2092
  593MOL0     C79957   4.161   1.590   8.977 -0.8761  0.2905  0.2755
  593MOL0     C79958   4.171   1.718   9.062  0.4395  0.1486  0.2930
  593MOL0     C79959   4.172   1.855   8.992 -1.2297  0.1996  0.7500
  593MOL0     C79960   4.182   1.974   9.089  0.5783  0.1807 -0.5999
  593MOL0     C79961   4.211   2.107   9.017 -0.3923  0.4061 -0.3298
  593MOL0     C79962   4.077   2.146   8.941 -0.7494 -0.2082  0.4398
  593MOL0     C79963   4.061   2.293   8.917  0.0578  0.4301 -0.2071
  593MOL0    Cl79964   4.214   2.354   8.834  0.3470 -0.0525  0.6632
  593MOL0     C79965   3.764   1.514   9.110 -0.3035  0.2393 -0.6483
  593MOL0     C79966   3.643   1.512   9.045  0.6147 -0.4434 -0.0400
  593MOL0     O79967   3.359   1.491   8.998 -0.1503  0.2100 -0.2489
  593MOL0     C79968   3.150   1.395   8.848 -0.6170  0.1711 -1.2432
  593MOL0     C79969   3.047   1.351   8.760 -0.2295 -0.0705  0.0363
  593MOL0     N79970   2.768   0.879   8.714  0.0959  0.1301  0.1889
  593MOL0     N79971   2.681   0.810   8.786 -0.6963 -0.7250 -0.2597
  593MOL0     C79972   1.725   0.272   8.174 -0.7794  0.0353 -0.4586
  593MOL0     C79973   1.607   0.296   8.101 -1.2061 -0.1942 -0.2733
  593MOL0     C79974   1.194   0.223   7.950  0.0779  0.4164 -0.3586
  593MOL0     C79975   1.142   0.110   7.881  0.4294 -0.6573  0.7387
  593MOL0     C79976   1.025   0.115   7.809 -0.5155  0.6099  0.2792
  593MOL0     C79977   0.949   0.234   7.814  0.9188 -0.1800 -0.1134
  593MOL0     O79978   0.830   0.262   7.746  0.2451  0.0653 -0.0719
  593MOL0     C79979   0.781   0.164   7.660  0.8431  0.0316  0.3064
  593MOL0     C79980   0.651   0.206   7.593  0.6316 -0.2588  0.3269
  593MOL0     C79981   0.594   0.091   7.507 -0.5056 -0.6338 -0.1381
  593MOL0     C79982   0.470   0.136   7.425  1.0142 -0.0901 -0.6387
  593MOL0     C79983   0.372   0.225   7.493  0.0586  0.3070  0.2557
  593MOL0     C79984   0.291   0.306   7.548  0.2421  0.3861  0.6210
  593MOL0     C79985   0.997   0.338   7.881 -0.0490 -0.1131 -0.0843
  593MOL0     C79986   1.116   0.337   7.954 -0.1358  0.0277  0.8218
  593MOL0     C79987   1.161   0.465   8.018  0.3864  0.0428 -0.2931
  593MOL0     H79988   1.378   0.306   8.349  0.2964 -0.5222  0.3952
  593MOL0     H79989   1.586   0.296   8.484 -4.4822  0.5282  0.2941
  593MOL0     H79990   1.980   0.223   8.250 -3.0236 -0.2426 -1.2655
  593MOL0     H79991   1.954   0.388   8.282  2.0007 -0.4393 -1.8937
  593MOL0     H79992   2.166   0.269   8.343  3.0324 -2.9647  1.7392
  593MOL0     H79993   2.088   0.166   8.469  0.5444  0.2978  0.0511
  593MOL0     H79994   2.027   0.374   8.598  0.1171 -1.3853 -0.1717
  593MOL0     H79995   2.102   0.473   8.467 -2.1779 -0.4302 -1.5451
  593MOL0     H79996   2.252   0.362   8.693 -2.6574  1.2985  0.1544
  593MOL0     H79997   2.288   0.266   8.564 -0.7860  0.7195  1.2557
  593MOL0     H79998   2.339   0.487   8.420 -4.2285  0.0792 -2.1433
  593MOL0     H79999   2.277   0.585   8.548 -0.4099  0.0743 -1.9273
  593MOL0     H80000   2.512   0.405   8.633  1.4674  1.3080  1.7537
  593MOL0     H80001   2.538   0.562   8.560 -0.8234  0.7989 -0.2939
  593MOL0     H80002   2.550   0.544   8.802  0.2093 -1.0604  0.0546
  593MOL0     H80003   2.380   0.529   8.820 -1.5365  1.4530 -1.2802
  593MOL0     H80004   2.380   0.749   8.651 -1.7426 -0.2203  0.5081
  593MOL0     H80005   2.420   0.756   8.831  1.6870 -2.8304  1.3383
  593MOL0     H80006   2.574   0.806   8.470 -0.8984  0.5547  0.1453
  593MOL0     H80007   2.938   0.934   8.508 -0.7279 -1.7991  3.5153
  593MOL0     H80008   2.835   0.879   8.373  1.7564  0.4864 -0.4711
  593MOL0     H80009   2.683   1.070   8.389  0.3467  0.9053  1.2660
  593MOL0     H80010   2.759   1.130   8.529  1.5998 -0.1182 -0.2619
  593MOL0     H80011   2.830   1.236   8.315  1.3225 -0.1486 -2.7174
  593MOL0     H80012   2.908   1.084   8.262 -1.7036  1.6541 -1.8469
  593MOL0     H80013   3.060   1.250   8.342  1.5660 -3.1326 -2.5834
  593MOL0     H80014   3.063   1.102   8.445 -0.2257 -0.0786  1.1069
  593MOL0     H80015   3.240   1.262   8.496 -2.7958 -2.7456 -0.1506
  593MOL0     H80016   3.414   1.357   8.629  1.1281  0.2955  1.7256
  593MOL0     H80017   3.744   1.349   8.766 -2.4468  1.6012 -0.8963
  593MOL0     H80018   3.967   1.389   8.871  0.8245  2.6689  1.3934
  593MOL0     H80019   4.197   1.460   9.148 -1.1543  2.2774  1.7497
  593MOL0     H80020   4.124   1.374   9.007 -0.1284  0.9389 -1.0883
  593MOL0     H80021   4.256   1.560   8.931 -0.2792  2.4915 -0.0297
  593MOL0     H80022   4.085   1.611   8.902 -1.5884  1.6190  1.3200
  593MOL0     H80023   4.083   1.726   9.126  0.4339 -0.2913  0.3397
  593MOL0     H80024   4.260   1.710   9.125  0.9648 -0.5071 -0.5024
  593MOL0     H80025   4.086   1.862   8.924 -0.5360 -0.1475 -0.1824
  593MOL0     H80026   4.265   1.852   8.935 -0.4538 -1.8580  2.0523
  593MOL0     H80027   4.270   1.962   9.152  2.3806 -1.6151 -3.2543
  593MOL0     H80028   4.093   1.987   9.151  1.6229 -0.0700  0.9869
  593MOL0     H80029   4.241   2.183   9.089 -2.9635  0.9360  0.2533
  593MOL0     H80030   4.297   2.100   8.949  1.5580 -1.5720  2.1034
  593MOL0     H80031   3.986   2.105   8.986  0.1139  0.1236  2.5985
  593MOL0     H80032   4.082   2.097   8.843 -2.0276 -0.8479  0.6692
  593MOL0     H80033   3.966   2.311   8.865 -0.7906  0.0003  1.1387
  593MOL0     H80034   4.039   2.346   9.009 -1.0313  2.4906 -1.5770
  593MOL0     H80035   3.777   1.560   9.207  0.5504  0.3678 -0.8234
  593MOL0     H80036   3.559   1.553   9.099  2.7050  1.5578  1.9378
  593MOL0     H80037   3.120   1.450   8.936  0.3152 -3.8264  1.8307
  593MOL0     H80038   2.943   1.367   8.786 -0.4045 -0.6527 -0.2809
  593MOL0     H80039   1.818   0.247   8.124  0.2372  0.3575  1.2162
  593MOL0     H80040   1.630   0.290   7.995  0.9112  1.4411  0.0156
  593MOL0     H80041   1.200   0.018   7.874  1.0097 -0.2200 -0.3411
  593MOL0     H80042   1.006   0.023   7.755  1.3003  0.5402 -0.2842
  593MOL0     H80043   0.768   0.067   7.709  0.8179  0.1255  0.4842
  593MOL0     H80044   0.862   0.153   7.587  0.1366 -0.7576 -0.3792
  593MOL0     H80045   0.670   0.295   7.531  0.3753 -1.7713 -2.0441
  593MOL0     H80046   0.577   0.246   7.664 -1.1410  3.4043 -3.1694
  593MOL0     H80047   0.562   0.023   7.586 -0.7656 -0.5613 -0.1786
  593MOL0     H80048   0.669   0.055   7.436 -1.6916  0.4335 -1.9959
  593MOL0     H80049   0.505   0.174   7.329  1.1640 -0.3265 -0.6762
  593MOL0     H80050   0.418   0.043   7.401 -0.5620  0.9098 -1.2616
  593MOL0     H80051   0.232   0.374   7.606  0.7287  0.4761  1.0116
  593MOL0     H80052   0.945   0.433   7.873 -0.6729 -0.5125 -0.9838
  593MOL0     H80053   1.183   0.453   8.125  1.0792  1.9033 -0.1870
  593MOL0     H80054   1.255   0.500   7.974  0.8685 -1.2551 -0.3286
  593MOL0     H80055   1.087   0.545   8.014 -0.6759 -0.8726  0.3901
  594MOL0     O80056   5.649   7.294   7.238 -0.4217 -0.1570  0.7604
  594MOL0     C80057   5.566   7.214   7.194  0.1162 -0.7564  0.1361
  594MOL0     O80058   5.598   7.087   7.162 -0.1552  0.3213  0.1857
  594MOL0     C80059   5.720   7.043   7.165  0.0507  0.1139 -0.2712
  594MOL0     C80060   5.744   6.946   7.264  0.6558 -0.5122  0.7791
  594MOL0     C80061   5.865   6.874   7.257 -0.3565  0.0800  0.1307
  594MOL0     C80062   5.955   6.900   7.159 -0.1156  0.4030  0.3946
  594MOL0     O80063   6.072   6.828   7.151 -0.8166 -0.5692  0.5189
  594MOL0     C80064   6.164   6.838   7.259 -0.1570 -0.0556  0.3979
  594MOL0     C80065   6.312   6.844   7.215 -0.0022  0.2343 -0.5395
  594MOL0     C80066   6.357   6.983   7.156  0.7403 -0.4658 -0.6919
  594MOL0     C80067   6.450   6.983   7.038  0.2432 -0.3055  0.2899
  594MOL0     C80068   6.593   6.929   7.055  0.4816  1.0043  0.1956
  594MOL0     C80069   6.673   7.003   7.154 -0.0696 -0.0862  0.3510
  594MOL0     C80070   6.695   7.156   7.138 -0.4474 -0.2099 -0.7737
  594MOL0     C80071   6.770   7.218   7.256 -0.2365  0.5481  0.0652
  594MOL0     N80072   6.914   7.210   7.232  0.3536 -0.0724  0.1557
  594MOL0     C80073   6.979   7.314   7.170  0.4015  0.0967  0.4411
  594MOL0     C80074   7.105   7.278   7.184 -0.6781  0.3296  0.7641
  594MOL0     C80075   7.215   7.371   7.135 -0.3387  0.0441  1.1525
  594MOL0     C80076   7.175   7.465   7.025 -0.8563 -0.6300 -0.2583
  594MOL0     C80077   7.293   7.555   6.982 -0.3109 -0.2783 -0.2062
  594MOL0     C80078   7.350   7.515   6.847 -0.5712  0.2470  0.1568
  594MOL0     O80079   7.474   7.589   6.833 -0.1036 -0.1359 -0.2834
  594MOL0     C80080   7.513   7.616   6.701 -0.3882  0.7689 -0.0544
  594MOL0     C80081   7.452   7.572   6.583  0.0171 -0.3094  0.1066
  594MOL0     C80082   7.481   7.632   6.461 -0.7438  0.3634 -0.6854
  594MOL0     C80083   7.583   7.735   6.456 -0.7301 -0.0232  0.9029
  594MOL0     C80084   7.622   7.791   6.317 -0.1584  0.9187 -0.0200
  594MOL0     O80085   7.580   7.722   6.201  0.4523 -0.4005  0.1316
  594MOL0     C80086   7.620   7.770   6.076  0.2830 -0.3091 -0.5652
  594MOL0     C80087   7.694   7.695   5.994 -0.5641 -0.0580  0.4571
  594MOL0     C80088   7.732   7.740   5.868  0.0481  0.6410  0.4862
  594MOL0     C80089   7.699   7.877   5.830  0.1987  0.6232 -0.3502
  594MOL0     O80090   7.741   7.933   5.711  0.5633 -0.2962 -0.0086
  594MOL0     C80091   7.767   7.842   5.604  0.5672  0.0177 -0.3327
  594MOL0     C80092   7.704   7.900   5.471  0.2397 -0.1345 -0.9678
  594MOL0     C80093   7.554   7.916   5.495 -0.0456 -0.8832  0.3482
  594MOL0     C80094   7.493   7.983   5.376 -0.1666 -0.2655 -0.0863
  594MOL0     C80095   7.339   8.002   5.399  0.7584 -0.0748  0.7256
  594MOL0     C80096   7.278   8.130   5.335 -0.8132  0.4135  0.0446
  594MOL0     C80097   7.125   8.129   5.363 -1.0698  0.3154 -0.0315
  594MOL0     C80098   7.068   8.268   5.349  0.4119 -0.5535  0.2122
  594MOL0    Cl80099   6.888   8.262   5.355  0.1675 -0.3785  0.0915
  594MOL0     C80100   7.613   7.945   5.912 -0.1973  0.4660 -0.3665
  594MOL0     C80101   7.573   7.892   6.034 -0.3878  0.4462  0.6353
  594MOL0     O80102   7.693   7.890   6.319 -0.4234  0.1303 -0.1510
  594MOL0     C80103   7.643   7.777   6.574  0.5411 -0.9498  0.2179
  594MOL0     C80104   7.608   7.721   6.693 -0.3153  0.3171 -0.5976
  594MOL0     N80105   7.125   7.174   7.264 -0.7395  0.3824 -0.2224
  594MOL0     N80106   7.001   7.124   7.288 -0.2707 -0.1653 -0.5015
  594MOL0     C80107   5.931   6.997   7.061 -0.2577  0.5787  0.5538
  594MOL0     C80108   5.811   7.075   7.066  0.3754 -0.5381 -0.1380
  594MOL0     C80109   5.419   7.259   7.184  0.0258  0.9689 -0.5408
  594MOL0     C80110   5.392   7.392   7.155  0.3379  0.9258 -0.2152
  594MOL0     C80111   5.264   7.437   7.124 -0.2859  0.7404 -0.2046
  594MOL0     C80112   5.150   7.351   7.139  0.5600 -0.1802 -0.7117
  594MOL0     O80113   5.022   7.399   7.124  0.1905 -0.3542  0.3961
  594MOL0     C80114   4.904   7.324   7.154 -0.2202 -0.5159  0.0479
  594MOL0     C80115   4.881   7.324   7.303  0.4869 -0.6924  0.3905
  594MOL0     C80116   4.816   7.463   7.330  0.9323  0.1933 -0.2307
  594MOL0     C80117   4.808   7.503   7.474  0.4866 -0.3514 -0.8763
  594MOL0     C80118   4.757   7.395   7.557  0.0526  0.2297 -0.2646
  594MOL0     C80119   4.708   7.307   7.616 -0.5394  0.1629 -0.5211
  594MOL0     C80120   5.176   7.216   7.166  0.0350  0.0091 -0.2811
  594MOL0     C80121   5.310   7.174   7.184  0.4780 -0.2469 -0.7297
  594MOL0     C80122   5.315   7.022   7.211  0.1032  0.2220  0.2777
  594MOL0     H80123   5.681   6.909   7.344 -0.2711 -1.4539 -0.3438
  594MOL0     H80124   5.887   6.801   7.335  0.4293  2.2822  2.1097
  594MOL0     H80125   6.142   6.921   7.328 -0.0002 -0.4471  0.9221
  594MOL0     H80126   6.141   6.754   7.325 -0.8245 -2.1586 -2.3406
  594MOL0     H80127   6.318   6.759   7.147  0.4853 -0.8134  0.7719
  594MOL0     H80128   6.372   6.818   7.303 -0.3296 -1.1437 -0.7078
  594MOL0     H80129   6.413   7.044   7.228 -0.2177  3.6196 -3.0746
  594MOL0     H80130   6.270   7.048   7.142  0.5414  0.0235  2.1995
  594MOL0     H80131   6.403   6.914   6.967  1.2810 -1.0136  0.2647
  594MOL0     H80132   6.456   7.081   6.990  0.7124 -1.6193 -2.5800
  594MOL0     H80133   6.586   6.832   7.107 -0.2765  1.2262  0.5193
  594MOL0     H80134   6.640   6.911   6.958  2.3528 -0.1536  1.2619
  594MOL0     H80135   6.634   6.979   7.254  2.5539  0.7305  1.6882
  594MOL0     H80136   6.776   6.966   7.150 -0.0509  0.0658 -3.3340
  594MOL0     H80137   6.598   7.207   7.135  0.7706  2.3327  0.5227
  594MOL0     H80138   6.760   7.175   7.052  4.1606 -1.2088  2.1552
  594MOL0     H80139   6.747   7.325   7.265 -0.1822  0.4980  0.8909
  594MOL0     H80140   6.734   7.171   7.348 -0.8887  2.1830  0.6822
  594MOL0     H80141   6.934   7.396   7.115 -1.4131 -2.0114 -1.3924
  594MOL0     H80142   7.249   7.436   7.216  0.1432  1.5734 -0.2273
  594MOL0     H80143   7.292   7.306   7.091 -2.1860 -1.5379  0.1118
  594MOL0     H80144   7.130   7.416   6.938 -2.5016 -1.7090  1.1453
  594MOL0     H80145   7.105   7.535   7.071 -2.0730 -1.1283 -1.2749
  594MOL0     H80146   7.366   7.553   7.064  0.2339 -0.0355 -0.6789
  594MOL0     H80147   7.272   7.661   6.968  5.5825  0.9830 -2.7712
  594MOL0     H80148   7.281   7.539   6.765 -1.1366  0.7441  0.7742
  594MOL0     H80149   7.361   7.406   6.841  0.5300  0.3720 -0.3432
  594MOL0     H80150   7.374   7.497   6.585  1.0953 -1.4602  0.3288
  594MOL0     H80151   7.429   7.595   6.373 -0.9729  1.4895 -1.0409
  594MOL0     H80152   7.726   7.597   6.029 -0.5342 -1.1128 -2.2877
  594MOL0     H80153   7.797   7.679   5.806 -1.4234  0.1287 -0.6020
  594MOL0     H80154   7.872   7.817   5.583  0.8558  0.1757  0.8406
  594MOL0     H80155   7.710   7.751   5.625 -1.8790  1.1461 -1.6922
  594MOL0     H80156   7.759   7.987   5.435  2.0427  0.4251  2.6178
  594MOL0     H80157   7.719   7.823   5.395 -0.7889 -0.4063 -0.9105
  594MOL0     H80158   7.502   7.823   5.518 -1.1403  0.2155  2.5662
  594MOL0     H80159   7.539   7.973   5.587 -0.1966 -0.2739 -0.0447
  594MOL0     H80160   7.522   7.937   5.282 -0.4149 -0.8288  0.1067
  594MOL0     H80161   7.533   8.083   5.362  3.0305 -1.2296  1.2492
  594MOL0     H80162   7.316   8.006   5.506 -3.1632 -0.3811  0.0254
  594MOL0     H80163   7.284   7.922   5.349  2.0109 -1.5809  1.6662
  594MOL0     H80164   7.330   8.211   5.389 -0.5262  0.5748 -0.4646
  594MOL0     H80165   7.299   8.150   5.229  0.8636 -0.7852  0.0985
  594MOL0     H80166   7.109   8.089   5.463  2.4594  2.5538  1.5885
  594MOL0     H80167   7.069   8.057   5.301 -2.4688  0.8782  0.5313
  594MOL0     H80168   7.094   8.314   5.445  0.2114 -0.1123  0.0556
  594MOL0     H80169   7.107   8.329   5.267  0.6676 -1.5970 -0.4581
  594MOL0     H80170   7.576   8.037   5.868 -4.5531 -0.7276  0.3459
  594MOL0     H80171   7.502   7.955   6.087 -0.5763  3.0015 -2.3285
  594MOL0     H80172   7.717   7.856   6.562 -0.7950  0.0634 -1.9024
  594MOL0     H80173   7.643   7.759   6.788 -2.3030  0.4196  0.1377
  594MOL0     H80174   6.004   6.998   6.980  0.9310 -2.7553  1.4072
  594MOL0     H80175   5.783   7.143   6.987 -1.7949 -1.4683 -0.2421
  594MOL0     H80176   5.475   7.461   7.142  0.1843  1.2286  0.3964
  594MOL0     H80177   5.253   7.538   7.088  2.2774  1.2962  0.4251
  594MOL0     H80178   4.916   7.223   7.112 -2.6036  0.6760 -4.0195
  594MOL0     H80179   4.813   7.368   7.112 -1.1089 -2.0328  0.2704
  594MOL0     H80180   4.976   7.308   7.356  3.4285  1.7575 -3.5062
  594MOL0     H80181   4.818   7.237   7.320  0.8505 -1.6698 -2.7033
  594MOL0     H80182   4.714   7.472   7.289  0.2502 -0.3046  1.2953
  594MOL0     H80183   4.862   7.549   7.281 -2.3176  3.2077  1.5097
  594MOL0     H80184   4.908   7.536   7.503  0.0672  1.5478 -1.4375
  594MOL0     H80185   4.736   7.585   7.476  1.4938  0.5566 -1.1851
  594MOL0     H80186   4.670   7.248   7.696 -0.3892  5.0073  3.6268
  594MOL0     H80187   5.094   7.147   7.184 -2.9996  3.3269 -0.2792
  594MOL0     H80188   5.334   6.965   7.120 -1.2258  0.0344  0.0998
  594MOL0     H80189   5.406   7.016   7.272  0.1461  3.7798  0.7613
  594MOL0     H80190   5.228   6.981   7.264  0.7366 -3.3524 -1.1868
  595MOL0     O80191   4.277   7.850   3.649 -0.4701 -0.9596 -0.5040
  595MOL0     C80192   4.268   7.868   3.527  0.3297 -0.5243 -0.2681
  595MOL0     O80193   4.358   7.941   3.452 -0.4969 -0.8292  0.7766
  595MOL0     C80194   4.446   8.022   3.523  0.4383 -0.1758 -0.0454
  595MOL0     C80195   4.402   8.123   3.612  0.2578 -0.0230  0.4544
  595MOL0     C80196   4.498   8.197   3.679 -0.3702 -0.2537 -0.0976
  595MOL0     C80197   4.630   8.162   3.668  0.0749  0.1820 -0.3603
  595MOL0     O80198   4.721   8.236   3.739  0.3303  0.3784  0.0588
  595MOL0     C80199   4.856   8.201   3.760 -0.5257  0.3773  0.6497
  595MOL0     C80200   4.916   8.284   3.877  0.1340  0.3545  0.5491
  595MOL0     C80201   5.071   8.301   3.868  1.4440 -0.2203 -0.2844
  595MOL0     C80202   5.126   8.406   3.956 -0.2222 -0.6189  0.4233
  595MOL0     C80203   5.283   8.425   3.940  0.9692  0.7035 -0.8215
  595MOL0     C80204   5.356   8.293   3.975  0.0017 -0.7163  0.2691
  595MOL0     C80205   5.510   8.319   3.962 -0.4535 -0.1287  0.4242
  595MOL0     C80206   5.571   8.424   4.051  0.2225 -0.4190  0.1908
  595MOL0     N80207   5.718   8.404   4.040 -0.1419 -0.6858  0.1888
  595MOL0     C80208   5.794   8.312   4.106 -0.1527  0.4794 -0.1104
  595MOL0     C80209   5.919   8.310   4.048 -0.8801 -1.0430 -0.3800
  595MOL0     C80210   6.045   8.237   4.091 -1.1686  0.0551  0.3064
  595MOL0     C80211   6.185   8.277   4.036  0.2642 -0.6813  0.4606
  595MOL0     C80212   6.310   8.199   4.087  0.6056  0.0786 -0.1674
  595MOL0     C80213   6.444   8.218   4.026 -0.0784 -0.4124 -0.4312
  595MOL0     O80214   6.514   8.336   4.084  0.3283  0.2498  0.1326
  595MOL0     C80215   6.607   8.315   4.184  0.1828  1.2302  0.1968
  595MOL0     C80216   6.588   8.225   4.291  0.2384  0.4579 -0.1968
  595MOL0     C80217   6.690   8.220   4.386 -0.6311  0.2402  0.0186
  595MOL0     C80218   6.815   8.289   4.369 -0.5784 -0.3965 -0.3283
  595MOL0     C80219   6.923   8.280   4.480  0.3867 -0.5656  0.6917
  595MOL0     O80220   7.027   8.370   4.478  0.1630  0.6110 -0.1473
  595MOL0     C80221   7.119   8.352   4.576 -0.1749  0.5759  0.4506
  595MOL0     C80222   7.225   8.261   4.554  0.5519  0.2377 -0.2596
  595MOL0     C80223   7.310   8.238   4.655 -0.5742  0.9280  0.0442
  595MOL0     C80224   7.312   8.305   4.774 -0.8060 -0.1652 -0.2896
  595MOL0     O80225   7.414   8.284   4.868  0.2591 -0.3151 -0.1743
  595MOL0     C80226   7.420   8.374   4.982 -0.5142  0.2526 -0.6141
  595MOL0     C80227   7.539   8.341   5.073  0.3876  0.4280  1.1170
  595MOL0     C80228   7.677   8.305   4.999 -0.6607 -0.2709  0.4883
  595MOL0     C80229   7.768   8.427   4.958 -0.6207  0.7445 -0.8466
  595MOL0     C80230   7.919   8.391   4.951  0.1447 -0.1095  0.3207
  595MOL0     C80231   8.001   8.517   4.923  0.3664  0.8942 -0.0793
  595MOL0     C80232   8.005   8.533   4.774  0.0193 -0.4977  0.6020
  595MOL0     C80233   8.134   8.595   4.727  0.1861  0.5533 -0.4914
  595MOL0    Cl80234   8.191   8.499   4.596  0.0082 -0.0609 -0.1065
  595MOL0     C80235   7.204   8.401   4.788 -0.3215  0.2988 -0.7830
  595MOL0     C80236   7.107   8.423   4.691  0.4880 -0.0717  0.0127
  595MOL0     O80237   6.909   8.187   4.556 -0.1199  0.0190 -0.1844
  595MOL0     C80238   6.831   8.375   4.261 -0.7716  0.4005 -0.3253
  595MOL0     C80239   6.723   8.400   4.177  0.0400  1.1450 -0.1603
  595MOL0     N80240   5.917   8.405   3.949  0.7959  0.5023 -0.1566
  595MOL0     N80241   5.800   8.456   3.940 -0.2991 -0.6607  0.3841
  595MOL0     C80242   4.672   8.045   3.596 -0.3770 -0.2919  0.2513
  595MOL0     C80243   4.578   7.984   3.512  0.4565 -0.2592  0.2687
  595MOL0     C80244   4.145   7.816   3.450  0.1774 -0.4854 -0.3795
  595MOL0     C80245   4.109   7.880   3.338  0.4621 -0.8607  0.3215
  595MOL0     C80246   3.994   7.839   3.259 -0.3623  0.6127 -0.4871
  595MOL0     C80247   3.919   7.729   3.294 -0.2592  0.4479  0.3936
  595MOL0     O80248   3.816   7.693   3.209 -0.1545  0.2952 -0.5638
  595MOL0     C80249   3.722   7.785   3.171  0.2810 -0.2884  0.7724
  595MOL0     C80250   3.612   7.727   3.085  0.1801 -0.4165 -0.1788
  595MOL0     C80251   3.516   7.656   3.171  0.7522  1.1318 -1.2491
  595MOL0     C80252   3.380   7.632   3.097 -0.6562 -0.4097  0.5141
  595MOL0     C80253   3.307   7.520   3.150 -0.1119  0.4897  0.2505
  595MOL0     C80254   3.234   7.429   3.183  0.1842  0.2020  1.0454
  595MOL0     C80255   3.952   7.656   3.407  0.2584  0.8683 -0.1645
  595MOL0     C80256   4.064   7.701   3.487  0.2013  0.6955 -0.6707
  595MOL0     C80257   4.098   7.598   3.605 -0.5209 -0.2377  0.9265
  595MOL0     H80258   4.297   8.142   3.627  0.1395 -0.4235  0.1556
  595MOL0     H80259   4.464   8.283   3.736 -0.8135 -0.2034 -0.4385
  595MOL0     H80260   4.864   8.096   3.789  2.4031  0.2475 -0.3047
  595MOL0     H80261   4.911   8.205   3.665  0.4984 -3.6470  0.8656
  595MOL0     H80262   4.896   8.244   3.976  0.3258  1.8569  1.2208
  595MOL0     H80263   4.869   8.383   3.869  0.2736  0.3985  0.2629
  595MOL0     H80264   5.100   8.319   3.764  1.7612 -2.4037 -0.6124
  595MOL0     H80265   5.109   8.205   3.903  0.8373  0.1344  1.4822
  595MOL0     H80266   5.082   8.503   3.931 -0.1297 -1.0594 -1.5380
  595MOL0     H80267   5.100   8.390   4.062 -1.2161 -1.3654  0.0788
  595MOL0     H80268   5.303   8.467   3.841  0.2766  0.5193 -1.0431
  595MOL0     H80269   5.303   8.493   4.023  1.6137 -0.4494 -0.0041
  595MOL0     H80270   5.336   8.258   4.076 -0.8845 -2.0059 -0.3173
  595MOL0     H80271   5.328   8.209   3.910  0.0025 -0.2930 -0.2889
  595MOL0     H80272   5.531   8.353   3.860 -0.5988  1.7271  0.9893
  595MOL0     H80273   5.565   8.225   3.969  2.5200  1.5634  1.7891
  595MOL0     H80274   5.549   8.526   4.018 -0.4474 -0.2558  1.0996
  595MOL0     H80275   5.537   8.413   4.154  0.9867  0.8438  0.5994
  595MOL0     H80276   5.768   8.251   4.192 -1.6206 -2.4848 -2.4814
  595MOL0     H80277   6.063   8.254   4.198 -0.6066  1.2849  0.0302
  595MOL0     H80278   6.026   8.130   4.078 -2.8572  0.3400  0.1761
  595MOL0     H80279   6.191   8.273   3.927  4.1229  3.4361  0.2243
  595MOL0     H80280   6.199   8.384   4.054  2.6950 -0.3377 -2.5166
  595MOL0     H80281   6.281   8.094   4.077  1.1848 -0.2226  1.1080
  595MOL0     H80282   6.306   8.212   4.196  1.5236  0.6700 -0.1969
  595MOL0     H80283   6.428   8.230   3.919 -0.3168 -0.4227 -0.3986
  595MOL0     H80284   6.506   8.129   4.039  0.7668  0.4692  2.3215
  595MOL0     H80285   6.504   8.156   4.287  2.8174 -3.0172 -4.4259
  595MOL0     H80286   6.672   8.144   4.461 -1.6941  1.7851  1.4207
  595MOL0     H80287   7.239   8.208   4.460 -2.0723 -0.7756 -0.1789
  595MOL0     H80288   7.405   8.193   4.629 -0.4518  2.0354 -1.5033
  595MOL0     H80289   7.440   8.473   4.941  1.3208 -0.9867 -2.9736
  595MOL0     H80290   7.323   8.378   5.033 -2.3292 -0.5291 -3.7434
  595MOL0     H80291   7.553   8.416   5.152 -4.3706 -0.1339  2.8315
  595MOL0     H80292   7.512   8.250   5.127  2.6510 -0.7619  0.3843
  595MOL0     H80293   7.726   8.267   5.089 -1.8992  0.8097  1.6830
  595MOL0     H80294   7.671   8.227   4.923 -0.3448 -0.3243  0.5157
  595MOL0     H80295   7.751   8.518   5.017 -0.5972  0.5534 -0.5439
  595MOL0     H80296   7.730   8.440   4.856 -0.5105 -2.2596 -1.3642
  595MOL0     H80297   7.934   8.318   4.872  0.1543  0.5156 -0.2607
  595MOL0     H80298   7.955   8.336   5.039 -0.4606 -2.2132 -0.6845
  595MOL0     H80299   7.961   8.604   4.976  3.2269  2.3337 -0.1157
  595MOL0     H80300   8.105   8.505   4.954  0.7410 -0.5070 -1.7207
  595MOL0     H80301   7.921   8.591   4.736  1.8877  2.2804  0.3404
  595MOL0     H80302   7.996   8.440   4.717 -3.1819  0.3582 -0.4998
  595MOL0     H80303   8.106   8.690   4.681 -0.9911  0.8582  0.7946
  595MOL0     H80304   8.210   8.606   4.804  1.2005 -1.0056 -1.2120
  595MOL0     H80305   7.193   8.458   4.879  0.8081 -1.7137  0.7107
  595MOL0     H80306   7.029   8.496   4.706  1.5265  1.0636  0.0862
  595MOL0     H80307   6.923   8.431   4.258 -1.0021  0.7259 -2.2918
  595MOL0     H80308   6.727   8.457   4.085 -3.7730  2.8999  0.5545
  595MOL0     H80309   4.774   8.008   3.590 -1.2065 -2.8073  0.4169
  595MOL0     H80310   4.608   7.897   3.455  2.0749  1.3851 -1.5559
  595MOL0     H80311   4.167   7.963   3.300  0.3689 -0.9191  0.0485
  595MOL0     H80312   3.977   7.909   3.177 -0.3212 -0.1438 -1.1598
  595MOL0     H80313   3.781   7.849   3.105  3.9552 -1.5079  2.5900
  595MOL0     H80314   3.676   7.843   3.252  2.7146 -0.2892  2.2524
  595MOL0     H80315   3.671   7.651   3.033  1.5767 -1.0274  2.1269
  595MOL0     H80316   3.572   7.804   3.019  2.3517  0.7887 -0.2153
  595MOL0     H80317   3.491   7.712   3.261  1.3221  0.8602 -0.9110
  595MOL0     H80318   3.564   7.561   3.199  0.6845  1.1904 -0.9260
  595MOL0     H80319   3.325   7.726   3.101  1.5862  1.3181 -3.3209
  595MOL0     H80320   3.394   7.607   2.992 -0.7131 -2.7786  1.0208
  595MOL0     H80321   3.178   7.341   3.207  0.3485  0.2485  1.6174
  595MOL0     H80322   3.903   7.563   3.434  0.9217  0.4236 -0.4766
  595MOL0     H80323   4.005   7.548   3.633 -1.3604  0.3038 -0.7550
  595MOL0     H80324   4.169   7.526   3.564 -1.6321  0.0432 -1.6699
  595MOL0     H80325   4.134   7.646   3.697 -1.1842  0.8859  0.6269
  596MOL0     O80326   3.461   8.597   4.644 -0.0939 -0.1452  1.0060
  596MOL0     C80327   3.391   8.623   4.746 -0.7061 -0.3456  0.4872
  596MOL0     O80328   3.431   8.702   4.856 -0.7906  0.1780  0.0599
  596MOL0     C80329   3.570   8.715   4.867 -0.3049  0.0081 -0.0691
  596MOL0     C80330   3.651   8.609   4.891  0.1682  0.0071 -0.1969
  596MOL0     C80331   3.788   8.624   4.919  0.6673 -0.3486  0.8483
  596MOL0     C80332   3.844   8.755   4.927 -0.2924 -0.4318  0.0481
  596MOL0     O80333   3.976   8.783   4.941  0.4216 -0.6741 -0.5093
  596MOL0     C80334   4.073   8.681   4.971 -0.3445  0.3764  0.5491
  596MOL0     C80335   4.123   8.613   4.836 -0.8780 -0.2686  0.6747
  596MOL0     C80336   4.262   8.562   4.861  0.5773 -0.6608  0.0992
  596MOL0     C80337   4.316   8.451   4.770  0.4324 -0.1436  0.8422
  596MOL0     C80338   4.455   8.405   4.824  0.2837 -0.1001 -0.4040
  596MOL0     C80339   4.572   8.501   4.790 -0.1813 -0.5907  0.0770
  596MOL0     C80340   4.689   8.468   4.890  0.5686 -0.3426 -0.0293
  596MOL0     C80341   4.668   8.551   5.028  0.4696  0.1905 -0.6073
  596MOL0     N80342   4.686   8.696   5.031 -0.3344 -0.7962 -0.3677
  596MOL0     C80343   4.806   8.743   5.073  0.2667  0.2429 -0.1176
  596MOL0     C80344   4.792   8.878   5.050 -0.2184  0.4120 -0.4416
  596MOL0     C80345   4.893   8.983   5.081  0.7329 -0.1832 -0.1793
  596MOL0     C80346   4.906   9.050   5.215 -0.7461 -0.3855  0.0704
  596MOL0     C80347   4.997   9.178   5.209 -0.7700  0.0511  0.0720
  596MOL0     C80348   5.130   9.147   5.143  0.0684 -0.5930  1.2176
  596MOL0     O80349   5.217   9.083   5.232  0.0081  0.3698 -0.3452
  596MOL0     C80350   5.345   9.081   5.199 -0.2034  0.1602 -0.8770
  596MOL0     C80351   5.390   9.017   5.083 -0.4972 -0.4775 -0.1114
  596MOL0     C80352   5.523   9.031   5.035  0.4168 -0.4589  0.2542
  596MOL0     C80353   5.620   9.085   5.124  0.5222 -0.5315  0.0773
  596MOL0     C80354   5.763   9.076   5.079 -0.6913 -0.6045 -0.1902
  596MOL0     O80355   5.847   9.120   5.177 -0.1897 -0.2720 -0.0435
  596MOL0     C80356   5.984   9.118   5.173 -0.4671 -0.5862  0.0827
  596MOL0     C80357   6.053   9.240   5.186 -0.5065  0.4591 -0.9902
  596MOL0     C80358   6.191   9.239   5.182 -0.3220 -0.2997 -0.3598
  596MOL0     C80359   6.270   9.118   5.181  0.8160  0.1591  0.4689
  596MOL0     O80360   6.408   9.134   5.165 -0.0409  0.0394  0.2262
  596MOL0     C80361   6.490   9.020   5.145 -0.1805  0.2907  0.0218
  596MOL0     C80362   6.633   9.064   5.103  0.4644  0.7712  0.1334
  596MOL0     C80363   6.704   9.174   5.183 -0.0677  0.1145  0.0017
  596MOL0     C80364   6.845   9.177   5.146 -0.5410  0.5135  0.5399
  596MOL0     C80365   6.917   9.293   5.207 -0.2393  0.6230  0.6052
  596MOL0     C80366   7.054   9.308   5.139 -0.0681 -0.3302 -0.0032
  596MOL0     C80367   7.138   9.412   5.208 -0.4424  0.4541  0.0935
  596MOL0     C80368   7.266   9.426   5.128  1.0317 -0.3067  0.0946
  596MOL0    Cl80369   7.368   9.507   5.238 -0.0891 -0.2264 -0.2148
  596MOL0     C80370   6.193   8.997   5.180 -0.7317 -0.1874 -0.9664
  596MOL0     C80371   6.049   8.994   5.169 -0.5194 -0.9430  0.7195
  596MOL0     O80372   5.790   9.015   4.977 -0.3337 -0.6281 -0.1586
  596MOL0     C80373   5.574   9.129   5.257 -0.4389  0.1214 -0.5344
  596MOL0     C80374   5.442   9.128   5.292  0.2762 -0.1178 -1.0390
  596MOL0     N80375   4.666   8.907   4.997 -0.0793 -0.8314  0.7396
  596MOL0     N80376   4.606   8.791   4.989 -0.2527  0.1574  0.4763
  596MOL0     C80377   3.752   8.863   4.910 -0.4924 -0.0300  0.0361
  596MOL0     C80378   3.615   8.844   4.884  0.8796  0.9488  0.0851
  596MOL0     C80379   3.243   8.587   4.748  0.1560  0.0562 -0.3946
  596MOL0     C80380   3.164   8.630   4.857 -0.3469  1.0107  0.1103
  596MOL0     C80381   3.032   8.587   4.870  0.0677 -0.1956 -0.1946
  596MOL0     C80382   2.974   8.519   4.764  0.5616 -0.2818 -0.1984
  596MOL0     O80383   2.845   8.474   4.772 -0.1725 -0.2476  0.0802
  596MOL0     C80384   2.755   8.532   4.867  0.7316 -0.1156 -0.3888
  596MOL0     C80385   2.618   8.461   4.853  0.3148  0.2512 -0.5505
  596MOL0     C80386   2.564   8.493   4.717 -1.1190 -1.1868  0.0309
  596MOL0     C80387   2.416   8.456   4.709  0.6550  0.1781  0.0965
  596MOL0     C80388   2.330   8.562   4.771  0.0798 -1.1207 -0.5520
  596MOL0     C80389   2.271   8.658   4.809  0.7942 -0.4677 -0.1289
  596MOL0     C80390   3.051   8.470   4.661 -0.1830  0.0370 -0.0288
  596MOL0     C80391   3.183   8.507   4.650 -0.1763  0.0911  0.0900
  596MOL0     C80392   3.258   8.440   4.531 -0.0538 -0.2329 -0.9986
  596MOL0     H80393   3.614   8.507   4.885  0.9732 -0.3237  0.2935
  596MOL0     H80394   3.844   8.533   4.935  0.6263 -0.4704  0.3265
  596MOL0     H80395   4.159   8.737   5.009 -0.8280  0.0443  2.2524
  596MOL0     H80396   4.047   8.600   5.040 -1.1131  0.5959  0.5233
  596MOL0     H80397   4.124   8.682   4.752 -1.6224 -0.9619  0.0769
  596MOL0     H80398   4.061   8.529   4.802  2.1316 -1.9972 -1.0423
  596MOL0     H80399   4.270   8.533   4.966  1.4555  1.0644  0.5264
  596MOL0     H80400   4.334   8.643   4.851 -0.4175  0.2923  0.4402
  596MOL0     H80401   4.249   8.364   4.770  0.8447 -0.5026 -0.7973
  596MOL0     H80402   4.320   8.482   4.665 -1.8834 -0.5003  0.5995
  596MOL0     H80403   4.450   8.390   4.933  1.8801 -1.7689 -0.5254
  596MOL0     H80404   4.482   8.307   4.785  1.6738 -0.4637  1.3310
  596MOL0     H80405   4.603   8.470   4.690  1.9052 -3.1818  1.3964
  596MOL0     H80406   4.551   8.607   4.800  1.4489 -0.3281  0.9792
  596MOL0     H80407   4.784   8.498   4.845  0.0053  0.3506 -0.7780
  596MOL0     H80408   4.704   8.361   4.902  1.0690 -0.3467 -0.6433
  596MOL0     H80409   4.562   8.544   5.052  0.5248 -0.2313 -0.4742
  596MOL0     H80410   4.731   8.504   5.104 -0.9143 -3.1355 -1.3231
  596MOL0     H80411   4.877   8.675   5.117  1.3865  0.5063 -1.4590
  596MOL0     H80412   4.988   8.942   5.045  0.2709 -1.0415 -0.4562
  596MOL0     H80413   4.876   9.059   5.004  0.3881 -1.8267 -1.7774
  596MOL0     H80414   4.806   9.073   5.254 -0.0452  2.8456  0.2797
  596MOL0     H80415   4.949   8.978   5.285 -1.6082 -0.9529  0.0414
  596MOL0     H80416   5.011   9.234   5.302  1.1396 -0.0918 -0.0890
  596MOL0     H80417   4.939   9.255   5.157 -0.1428  0.9546  0.6598
  596MOL0     H80418   5.177   9.241   5.114  0.8833 -1.4949 -0.5774
  596MOL0     H80419   5.121   9.100   5.044  1.5524  3.0577 -0.8730
  596MOL0     H80420   5.317   8.977   5.014 -0.0700  0.2983 -1.0458
  596MOL0     H80421   5.556   9.000   4.937  1.8112  1.2942  0.1046
  596MOL0     H80422   6.006   9.337   5.189  0.9034  1.1368  1.8574
  596MOL0     H80423   6.244   9.332   5.195  0.1160 -0.8605  2.3717
  596MOL0     H80424   6.500   8.957   5.233  1.5610 -0.6799 -0.8326
  596MOL0     H80425   6.451   8.967   5.057 -1.4435  4.4502 -2.2168
  596MOL0     H80426   6.698   8.976   5.104  0.7891  0.9590 -1.3815
  596MOL0     H80427   6.616   9.105   5.003 -2.0864  0.9399  0.5735
  596MOL0     H80428   6.656   9.269   5.157 -1.5950 -0.5955  0.1755
  596MOL0     H80429   6.694   9.157   5.291  1.1459  1.8952  0.4349
  596MOL0     H80430   6.856   9.189   5.038 -1.2700  0.7173  0.4818
  596MOL0     H80431   6.898   9.084   5.173  2.1970  1.7052 -0.3559
  596MOL0     H80432   6.931   9.273   5.314  0.2059 -0.7664  0.3014
  596MOL0     H80433   6.855   9.383   5.209  0.0712  0.8369  0.9480
  596MOL0     H80434   7.106   9.212   5.139  0.7046 -0.2634 -5.5729
  596MOL0     H80435   7.049   9.323   5.031 -1.0924 -1.9292 -0.2113
  596MOL0     H80436   7.151   9.368   5.307 -1.6154  0.2784  0.1838
  596MOL0     H80437   7.078   9.503   5.217 -1.2672 -0.0698  0.0104
  596MOL0     H80438   7.302   9.328   5.096 -0.0104 -1.2162  1.5611
  596MOL0     H80439   7.241   9.485   5.039 -1.3203  0.5047  1.1999
  596MOL0     H80440   6.242   8.902   5.162  1.4604  0.5119  0.7543
  596MOL0     H80441   5.987   8.907   5.147 -3.1902  0.6835  1.4360
  596MOL0     H80442   5.650   9.163   5.326  1.0069 -2.0827 -0.9449
  596MOL0     H80443   5.413   9.161   5.391  1.7837 -0.3930 -0.4833
  596MOL0     H80444   3.780   8.967   4.906  0.6206 -0.1228  2.7403
  596MOL0     H80445   3.558   8.933   4.864 -0.4419  0.3882  1.1904
  596MOL0     H80446   3.193   8.696   4.938 -3.4196 -1.6327  3.6951
  596MOL0     H80447   2.974   8.626   4.953 -0.7914 -1.0723 -0.3673
  596MOL0     H80448   2.737   8.638   4.850 -1.0681 -0.2509  0.4348
  596MOL0     H80449   2.792   8.519   4.969  0.4716 -1.8286 -0.4829
  596MOL0     H80450   2.543   8.497   4.923 -1.1131 -2.2451 -0.7016
  596MOL0     H80451   2.635   8.354   4.868  3.3489  1.0250  3.1577
  596MOL0     H80452   2.622   8.432   4.646  0.4841 -0.6697  0.8417
  596MOL0     H80453   2.573   8.600   4.700  1.5126 -1.1349  1.1764
  596MOL0     H80454   2.393   8.430   4.605  2.8358  0.7447 -0.5886
  596MOL0     H80455   2.392   8.363   4.761 -0.4324  0.6184  0.4232
  596MOL0     H80456   2.218   8.740   4.853  2.8583  0.6538  0.4207
  596MOL0     H80457   3.003   8.406   4.587 -0.0829 -1.9497  1.5340
  596MOL0     H80458   3.186   8.393   4.463  0.6500 -1.1066 -1.1586
  596MOL0     H80459   3.307   8.520   4.476  0.5965  0.1148  0.0554
  596MOL0     H80460   3.332   8.367   4.564  0.4003  0.0418 -1.4130
  597MOL0     O80461   2.470   4.796   2.021 -0.1057 -0.3240  0.2156
  597MOL0     C80462   2.390   4.702   2.012  0.1513 -1.1813 -1.1852
  597MOL0     O80463   2.418   4.573   2.039 -0.1322 -0.1946 -1.2320
  597MOL0     C80464   2.537   4.547   2.096 -0.6917 -0.0017 -1.1625
  597MOL0     C80465   2.581   4.596   2.218 -0.1806  0.6339 -0.0827
  597MOL0     C80466   2.716   4.576   2.264 -0.5019  0.0760  0.1339
  597MOL0     C80467   2.802   4.502   2.178 -0.6508  0.4454  0.9781
  597MOL0     O80468   2.939   4.474   2.202 -0.1955 -0.4495  0.2269
  597MOL0     C80469   3.004   4.533   2.318 -0.2088  0.2199  0.0283
  597MOL0     C80470   3.071   4.663   2.266  0.3370  1.0712 -0.8179
  597MOL0     C80471   3.141   4.731   2.383 -0.2379 -0.0092  0.8410
  597MOL0     C80472   3.195   4.864   2.349  0.0075 -0.6376 -0.8979
  597MOL0     C80473   3.273   4.932   2.475 -0.7126  0.5441  0.8126
  597MOL0     C80474   3.351   5.053   2.430  0.1749  0.0973 -0.1392
  597MOL0     C80475   3.476   5.027   2.339  0.8205  1.4991  0.4880
  597MOL0     C80476   3.612   5.022   2.409  0.4660 -0.0182 -0.2618
  597MOL0     N80477   3.708   5.049   2.304  0.7656  0.6880 -0.1342
  597MOL0     C80478   3.783   4.950   2.235 -0.3702 -0.0197 -0.8144
  597MOL0     C80479   3.862   5.023   2.151  0.2050 -1.2385 -0.5089
  597MOL0     C80480   3.970   4.973   2.056 -0.0490  0.1155 -0.3323
  597MOL0     C80481   4.034   4.826   2.089 -0.2429 -0.9307  0.5998
  597MOL0     C80482   4.127   4.780   1.970 -0.0312 -0.4769  0.3190
  597MOL0     C80483   4.241   4.876   1.935 -0.4795  0.5499 -0.3814
  597MOL0     O80484   4.343   4.869   2.046  0.4930 -0.7085 -0.0040
  597MOL0     C80485   4.465   4.929   2.026 -0.6274  0.1803  0.5406
  597MOL0     C80486   4.561   4.919   2.132  0.4937 -0.8851  0.1263
  597MOL0     C80487   4.686   4.978   2.123 -0.6274  0.1132 -0.0482
  597MOL0     C80488   4.732   5.039   2.002  0.2630 -0.6830  1.0486
  597MOL0     C80489   4.864   5.102   1.978 -0.1636 -0.3270  0.1575
  597MOL0     O80490   4.930   5.156   2.089 -0.0650 -0.1504  0.2972
  597MOL0     C80491   5.065   5.174   2.092 -0.2842 -0.5791 -0.2486
  597MOL0     C80492   5.160   5.191   1.983 -0.1146 -0.0130  0.1954
  597MOL0     C80493   5.293   5.223   2.016  0.0306 -0.9657 -0.1221
  597MOL0     C80494   5.338   5.245   2.145 -0.0956 -0.8737 -0.3981
  597MOL0     O80495   5.467   5.279   2.168 -0.7776 -0.2978  0.0000
  597MOL0     C80496   5.535   5.369   2.074  0.6301  0.3662  0.8945
  597MOL0     C80497   5.677   5.406   2.122  0.5817  0.0268  0.8620
  597MOL0     C80498   5.670   5.486   2.257  0.9085 -1.1370 -0.1289
  597MOL0     C80499   5.810   5.472   2.331  0.3482 -0.6330 -0.7282
  597MOL0     C80500   5.796   5.498   2.479  0.7104 -1.1417 -0.3989
  597MOL0     C80501   5.718   5.625   2.510 -0.0499  0.3545  0.5483
  597MOL0     C80502   5.732   5.678   2.648 -0.1779 -0.9678  0.0557
  597MOL0     C80503   5.640   5.798   2.676  0.9736 -0.4644  0.0779
  597MOL0    Cl80504   5.474   5.753   2.654  0.0249 -0.0694 -0.2784
  597MOL0     C80505   5.248   5.227   2.249 -0.0033 -0.2083 -1.2418
  597MOL0     C80506   5.117   5.194   2.222  0.0714  0.6737 -0.4148
  597MOL0     O80507   4.919   5.061   1.873 -0.0567 -0.6064  0.4006
  597MOL0     C80508   4.635   5.052   1.899 -0.1174  0.0679  0.7652
  597MOL0     C80509   4.507   4.994   1.909  0.2779 -0.3203  0.3865
  597MOL0     N80510   3.833   5.159   2.160 -0.1496 -0.1044  0.1389
  597MOL0     N80511   3.739   5.176   2.251 -0.2478 -0.4647 -0.1222
  597MOL0     C80512   2.750   4.429   2.066  1.1005 -0.6324 -0.2473
  597MOL0     C80513   2.622   4.461   2.025  0.1842  0.7128 -0.0617
  597MOL0     C80514   2.245   4.731   1.968  0.1886  0.3822  0.8762
  597MOL0     C80515   2.233   4.851   1.904  0.4716 -0.3274 -0.9495
  597MOL0     C80516   2.105   4.901   1.862  0.6345 -0.1174  0.5661
  597MOL0     C80517   1.993   4.820   1.885  1.2175 -0.3598  0.5492
  597MOL0     O80518   1.863   4.858   1.849 -0.1594  1.1447 -0.2555
  597MOL0     C80519   1.839   5.000   1.840  0.2713  0.2004  0.0196
  597MOL0     C80520   1.693   5.019   1.886  0.5313 -0.1183  0.2373
  597MOL0     C80521   1.601   5.022   1.769 -0.0964  0.4327  0.4740
  597MOL0     C80522   1.460   5.077   1.794 -0.3218  0.1493  0.0352
  597MOL0     C80523   1.391   5.005   1.905  0.2691  0.5171  0.1507
  597MOL0     C80524   1.316   4.958   1.985  0.6106 -0.0411  1.1555
  597MOL0     C80525   2.011   4.688   1.934  0.1760  0.1305 -0.4287
  597MOL0     C80526   2.133   4.638   1.977  0.1192 -0.1885 -0.7875
  597MOL0     C80527   2.149   4.496   2.031  0.0998  0.1860 -0.4570
  597MOL0     H80528   2.514   4.658   2.277 -1.3470  1.1803 -1.8949
  597MOL0     H80529   2.750   4.629   2.353 -2.1712  0.1090  0.8033
  597MOL0     H80530   2.946   4.549   2.409  2.2116 -2.6628  2.2876
  597MOL0     H80531   3.088   4.468   2.345  0.7405  1.4301  0.0663
  597MOL0     H80532   2.994   4.731   2.227 -2.2051 -0.5561  0.9862
  597MOL0     H80533   3.141   4.629   2.190 -0.4723 -0.1857 -1.0351
  597MOL0     H80534   3.224   4.664   2.409  0.5076 -0.3706 -2.0674
  597MOL0     H80535   3.084   4.746   2.475 -1.8919  1.9595 -0.4066
  597MOL0     H80536   3.260   4.862   2.262 -1.2122  1.1151 -1.8979
  597MOL0     H80537   3.108   4.924   2.324 -0.3181 -0.3862  0.6967
  597MOL0     H80538   3.213   4.951   2.565 -0.4038 -0.1237  1.1663
  597MOL0     H80539   3.347   4.859   2.509 -1.5316 -0.4649  0.4934
  597MOL0     H80540   3.283   5.129   2.392  0.1430 -0.3116 -0.9179
  597MOL0     H80541   3.388   5.095   2.524 -0.7856 -1.9882  1.2648
  597MOL0     H80542   3.483   5.114   2.274  1.1700  0.8524 -0.3671
  597MOL0     H80543   3.464   4.938   2.277  2.7987  1.2978  0.3058
  597MOL0     H80544   3.624   5.104   2.481 -1.1584 -1.7192  2.1256
  597MOL0     H80545   3.640   4.927   2.455 -0.0953  0.1482  0.4444
  597MOL0     H80546   3.786   4.845   2.259 -1.0186  0.4533  1.5827
  597MOL0     H80547   3.943   4.976   1.950  1.6328 -1.9559 -0.8884
  597MOL0     H80548   4.051   5.046   2.068 -0.1953  0.0714  1.0089
  597MOL0     H80549   4.102   4.847   2.172  0.2472  1.6112 -0.3616
  597MOL0     H80550   3.961   4.747   2.109 -2.4400  1.0595  0.9305
  597MOL0     H80551   4.064   4.776   1.880  0.2756  0.2807  0.0606
  597MOL0     H80552   4.170   4.687   2.008 -1.4939 -0.6960  1.5331
  597MOL0     H80553   4.201   4.975   1.911 -2.5793 -0.3451 -0.8364
  597MOL0     H80554   4.293   4.837   1.847 -0.3195  0.6577 -0.3352
  597MOL0     H80555   4.531   4.869   2.223 -0.9167 -0.2474  0.0449
  597MOL0     H80556   4.753   4.976   2.208  0.1365 -1.6986 -0.6372
  597MOL0     H80557   5.131   5.185   1.878  3.1569  1.3239 -0.9292
  597MOL0     H80558   5.353   5.234   1.926  1.2953 -0.9979  0.6878
  597MOL0     H80559   5.551   5.326   1.975  1.4263  1.4392  0.5428
  597MOL0     H80560   5.474   5.459   2.065  0.2023  0.0377  0.4139
  597MOL0     H80561   5.729   5.310   2.133  0.6927 -0.4202 -2.6975
  597MOL0     H80562   5.733   5.465   2.049  0.3936 -2.0380 -1.0296
  597MOL0     H80563   5.636   5.589   2.246 -1.4299 -1.5059  2.5554
  597MOL0     H80564   5.595   5.437   2.320 -0.0651  1.0226  0.4723
  597MOL0     H80565   5.880   5.541   2.283 -2.6628  2.1897 -1.3624
  597MOL0     H80566   5.843   5.367   2.336  0.3235 -0.7667 -2.7043
  597MOL0     H80567   5.893   5.509   2.528 -0.4735  0.2095  1.8396
  597MOL0     H80568   5.744   5.424   2.541  1.0345  1.2921  3.0546
  597MOL0     H80569   5.740   5.699   2.431  0.2783  1.0742  1.2978
  597MOL0     H80570   5.615   5.596   2.489  0.0998  0.3055 -0.1596
  597MOL0     H80571   5.829   5.729   2.647 -1.9064  2.7534 -2.6824
  597MOL0     H80572   5.734   5.599   2.723  1.7415 -0.7422  0.2907
  597MOL0     H80573   5.660   5.854   2.768  6.7412  0.4329 -1.3235
  597MOL0     H80574   5.674   5.872   2.604  2.7322 -0.1654  1.1704
  597MOL0     H80575   5.286   5.226   2.351 -0.9596 -1.8266 -0.8681
  597MOL0     H80576   5.043   5.183   2.301  0.4886 -2.6690 -0.3698
  597MOL0     H80577   4.664   5.090   1.802 -1.0352  0.0492  0.4714
  597MOL0     H80578   4.436   5.003   1.827  1.2129 -0.0339 -0.4047
  597MOL0     H80579   2.811   4.363   2.006  0.4247 -1.7510  0.2789
  597MOL0     H80580   2.577   4.419   1.936  1.4338  1.1727 -0.9378
  597MOL0     H80581   2.316   4.920   1.902 -0.0719  0.5680  2.1459
  597MOL0     H80582   2.092   4.995   1.810  0.5095  0.2084  1.1739
  597MOL0     H80583   1.856   5.053   1.746 -0.9105  0.6037  0.0083
  597MOL0     H80584   1.909   5.039   1.915  1.1470 -2.4548  0.6816
  597MOL0     H80585   1.682   5.113   1.941  2.5055 -0.1618  0.7805
  597MOL0     H80586   1.668   4.942   1.959 -1.0071 -0.0029 -0.1486
  597MOL0     H80587   1.593   4.924   1.722  1.2929  1.5673 -2.3842
  597MOL0     H80588   1.642   5.091   1.695  0.9710  2.0998  2.4855
  597MOL0     H80589   1.453   5.182   1.826 -1.3141 -0.3556  1.5735
  597MOL0     H80590   1.406   5.048   1.704  0.3171  1.0357 -0.6490
  597MOL0     H80591   1.258   4.905   2.058  1.9073 -3.0339  0.1814
  597MOL0     H80592   1.912   4.643   1.941 -1.2269  3.0324 -0.3468
  597MOL0     H80593   2.188   4.487   2.133 -0.1016  2.9045 -0.0809
  597MOL0     H80594   2.052   4.446   2.022 -0.2040  0.5541  0.6446
  597MOL0     H80595   2.214   4.439   1.963  3.9023  2.0072  1.3161
  598MOL0     O80596   9.800   5.429   0.174 -0.0017  1.0259 -0.0334
  598MOL0     C80597   9.699   5.356   0.208  0.7192  0.2221 -0.3900
  598MOL0     O80598   9.699   5.225   0.206 -0.1814  0.1476 -0.1264
  598MOL0     C80599   9.817   5.172   0.147  0.7049 -0.8506  0.3858
  598MOL0     C80600   9.834   5.162   0.008  0.4443  0.6765 -0.7822
  598MOL0     C80601   9.946   5.119  -0.042 -0.3025 -0.0120  0.0135
  598MOL0     C80602  10.057   5.082   0.036  0.1259 -0.2193  0.3593
  598MOL0     O80603  10.173   5.036  -0.020  0.1041  0.6457 -0.0062
  598MOL0     C80604  10.193   5.041  -0.161 -0.7996 -0.4335  0.9421
  598MOL0     C80605  10.333   4.987  -0.187 -0.2991  0.2643 -0.4991
  598MOL0     C80606  10.356   4.936  -0.323 -0.2444 -0.3583 -0.4746
  598MOL0     C80607  10.504   4.888  -0.336 -0.7053  1.3615 -0.0730
  598MOL0     C80608  10.529   4.842  -0.481 -0.3073  0.4103 -0.7390
  598MOL0     C80609  10.667   4.872  -0.521 -0.1827 -0.5319  0.2257
  598MOL0     C80610  10.692   4.857  -0.669 -0.2765 -0.7064 -0.0252
  598MOL0     C80611  10.833   4.854  -0.711 -0.3087 -0.3229  0.9619
  598MOL0     N80612  10.896   4.737  -0.650 -1.0745 -0.5105  0.0019
  598MOL0     C80613  10.906   4.610  -0.690  0.2266 -0.3875  0.3126
  598MOL0     C80614  11.003   4.553  -0.623  0.6936  0.6950  0.2265
  598MOL0     C80615  11.055   4.414  -0.616 -0.7111 -0.4620 -0.0659
  598MOL0     C80616  11.001   4.348  -0.489 -0.3762 -0.4217  1.0805
  598MOL0     C80617  11.090   4.309  -0.377 -0.7275  0.2488 -0.0865
  598MOL0     C80618  11.197   4.212  -0.429  0.3197 -0.0611  0.0375
  598MOL0     O80619  11.272   4.167  -0.306 -0.0656 -0.0857 -0.7071
  598MOL0     C80620  11.379   4.084  -0.329  0.6131  0.1599  0.5927
  598MOL0     C80621  11.400   4.032  -0.459  0.2766 -0.1349 -0.6628
  598MOL0     C80622  11.513   3.955  -0.482 -0.6430 -0.0984  0.7130
  598MOL0     C80623  11.615   3.947  -0.392  0.1996 -0.3520 -0.0276
  598MOL0     C80624  11.730   3.876  -0.433 -0.2733 -0.5862  0.3066
  598MOL0     O80625  11.758   3.882  -0.568  0.2073 -0.0569  0.5390
  598MOL0     C80626  11.868   3.816  -0.613  0.8940  0.4715  0.6474
  598MOL0     C80627  11.994   3.836  -0.546 -0.4800 -0.5108 -0.0402
  598MOL0     C80628  12.106   3.791  -0.604 -1.0835 -0.4769  0.5036
  598MOL0     C80629  12.101   3.733  -0.727 -0.2310 -0.0138  0.5002
  598MOL0     O80630  12.228   3.686  -0.774  0.7578 -0.5882 -0.5372
  598MOL0     C80631  12.241   3.663  -0.911  1.1209  0.7965  0.1126
  598MOL0     C80632  12.388   3.662  -0.940  0.4338 -0.2536 -0.6451
  598MOL0     C80633  12.417   3.639  -1.081 -0.5218 -0.1290  0.0296
  598MOL0     C80634  12.568   3.629  -1.104  0.7899  0.4666 -0.2796
  598MOL0     C80635  12.610   3.578  -1.240  0.1761  0.1627 -0.3741
  598MOL0     C80636  12.762   3.546  -1.232 -0.8875 -0.9813 -0.3986
  598MOL0     C80637  12.815   3.513  -1.376 -0.4163  0.8873  0.3662
  598MOL0     C80638  12.969   3.490  -1.388  0.0138 -0.0309 -0.2246
  598MOL0    Cl80639  13.063   3.643  -1.350 -0.1693  0.3879 -0.1670
  598MOL0     C80640  11.983   3.705  -0.796  0.9916 -0.6271  0.0147
  598MOL0     C80641  11.863   3.757  -0.742 -0.1838 -0.1470 -0.3359
  598MOL0     O80642  11.785   3.807  -0.347 -0.0074 -0.4560  0.2934
  598MOL0     C80643  11.591   3.999  -0.264 -0.2391  1.0166 -0.0026
  598MOL0     C80644  11.473   4.064  -0.236 -0.3167 -0.0311  0.3168
  598MOL0     N80645  11.055   4.648  -0.539 -0.2637 -0.3916  0.1780
  598MOL0     N80646  10.992   4.758  -0.556  0.3730 -0.1916 -0.3175
  598MOL0     C80647  10.042   5.089   0.180 -0.0135 -0.3590  0.5363
  598MOL0     C80648   9.922   5.138   0.231 -0.0082 -0.5736 -0.7176
  598MOL0     C80649   9.581   5.426   0.257  0.2169  0.0933 -0.1991
  598MOL0     C80650   9.603   5.559   0.298 -0.5345 -0.4962 -0.5763
  598MOL0     C80651   9.488   5.641   0.328  0.2808  0.1853 -0.6740
  598MOL0     C80652   9.373   5.589   0.357  0.0692 -0.1199  0.0310
  598MOL0     O80653   9.266   5.672   0.366  0.3619 -0.0409  0.2670
  598MOL0     C80654   9.149   5.634   0.435  0.2716  0.6668  0.4094
  598MOL0     C80655   9.104   5.755   0.517  0.8212  0.2556  0.3459
  598MOL0     C80656   9.063   5.872   0.424 -0.3874 -0.6590 -0.1228
  598MOL0     C80657   8.952   5.944   0.489 -0.3515 -0.4372  0.4722
  598MOL0     C80658   8.904   6.047   0.401  0.2977 -0.2186 -0.7451
  598MOL0     C80659   8.877   6.133   0.318  0.5749 -0.5266  0.1725
  598MOL0     C80660   9.349   5.457   0.314 -0.2877  0.8797  0.1578
  598MOL0     C80661   9.452   5.373   0.264  0.3122  0.0900  0.2842
  598MOL0     C80662   9.416   5.239   0.219 -0.1334 -0.2849 -1.0237
  598MOL0     H80663   9.752   5.187  -0.059 -0.7962 -0.7490  0.1408
  598MOL0     H80664   9.951   5.115  -0.150 -0.7427  0.7441 -0.0456
  598MOL0     H80665  10.126   4.974  -0.217 -0.7799 -0.1232  0.5395
  598MOL0     H80666  10.191   5.145  -0.196  3.3184 -0.3847  0.2874
  598MOL0     H80667  10.360   4.910  -0.114  0.7516  1.5877  0.5470
  598MOL0     H80668  10.401   5.071  -0.172 -1.3520  1.0337  0.0857
  598MOL0     H80669  10.337   5.025  -0.384 -1.0370  0.4288  0.8741
  598MOL0     H80670  10.286   4.856  -0.349  0.0890 -1.0885  0.7855
  598MOL0     H80671  10.582   4.958  -0.305 -0.7421  1.3221  0.1072
  598MOL0     H80672  10.511   4.797  -0.277  0.2141  0.1263 -1.9813
  598MOL0     H80673  10.504   4.736  -0.484  0.1276  0.3142 -0.9185
  598MOL0     H80674  10.468   4.895  -0.555 -1.0214 -1.6073 -1.6569
  598MOL0     H80675  10.689   4.974  -0.488  0.0305 -1.2276  2.3815
  598MOL0     H80676  10.742   4.817  -0.463  0.9753  1.6624  0.9151
  598MOL0     H80677  10.638   4.933  -0.726  1.5428 -0.1635 -1.1081
  598MOL0     H80678  10.643   4.762  -0.694 -0.0887 -1.1241  1.1328
  598MOL0     H80679  10.839   4.855  -0.820  1.4671  1.1915  1.0230
  598MOL0     H80680  10.882   4.945  -0.674 -0.8004  0.4785 -0.2698
  598MOL0     H80681  10.863   4.561  -0.777 -0.8225  1.0579 -0.0249
  598MOL0     H80682  11.027   4.362  -0.708  1.0927  2.8595 -2.7037
  598MOL0     H80683  11.164   4.415  -0.606 -0.7948  1.8867  1.6381
  598MOL0     H80684  10.922   4.413  -0.451  0.4866  3.6183 -3.1579
  598MOL0     H80685  10.948   4.255  -0.515 -2.5433  0.9152  0.4510
  598MOL0     H80686  11.035   4.257  -0.298  1.4896 -1.6227  0.3495
  598MOL0     H80687  11.146   4.396  -0.340  0.5071 -0.2613 -0.7020
  598MOL0     H80688  11.266   4.246  -0.507 -0.0393 -0.1938 -0.3422
  598MOL0     H80689  11.148   4.124  -0.471  0.9934 -0.3514 -0.1496
  598MOL0     H80690  11.334   4.043  -0.545  0.3562 -0.1686 -0.7281
  598MOL0     H80691  11.529   3.916  -0.582 -0.4301  0.3916  0.5546
  598MOL0     H80692  11.995   3.898  -0.457 -1.0770 -0.7745  0.1565
  598MOL0     H80693  12.204   3.806  -0.561  0.7395 -3.6733 -2.0710
  598MOL0     H80694  12.212   3.560  -0.933  2.4927 -0.8360  4.7610
  598MOL0     H80695  12.192   3.737  -0.975  2.7524  0.9632 -1.0119
  598MOL0     H80696  12.429   3.757  -0.903 -1.1829  0.0524  0.4551
  598MOL0     H80697  12.440   3.589  -0.878 -0.7093  0.8091  1.6942
  598MOL0     H80698  12.369   3.550  -1.124  0.1141  0.3769 -1.8112
  598MOL0     H80699  12.389   3.728  -1.137 -0.8897 -0.2215  0.0596
  598MOL0     H80700  12.614   3.566  -1.027 -0.3457  0.1921  0.1944
  598MOL0     H80701  12.610   3.730  -1.096 -0.1968  0.8263  0.6810
  598MOL0     H80702  12.586   3.648  -1.321 -1.8332 -0.1395 -0.0824
  598MOL0     H80703  12.555   3.489  -1.270 -3.6187  3.1682 -3.4712
  598MOL0     H80704  12.818   3.634  -1.198  3.4876 -4.0940  1.2692
  598MOL0     H80705  12.786   3.478  -1.150 -0.7918  1.7340  1.9831
  598MOL0     H80706  12.774   3.560  -1.466  0.7183  0.8661 -0.1718
  598MOL0     H80707  12.775   3.414  -1.400  0.4565  1.0560 -2.0131
  598MOL0     H80708  12.999   3.418  -1.311  0.4573  1.5944  1.1825
  598MOL0     H80709  12.992   3.443  -1.485  1.3801 -2.6553  1.2446
  598MOL0     H80710  11.985   3.654  -0.892  1.8679 -1.4698  0.4611
  598MOL0     H80711  11.771   3.741  -0.798  0.7663 -0.1538 -1.9689
  598MOL0     H80712  11.645   3.974  -0.173  0.6320  0.3872 -0.6722
  598MOL0     H80713  11.466   4.096  -0.132 -1.0823  0.7846  0.0334
  598MOL0     H80714  10.129   5.057   0.237 -1.6449 -2.0220  2.2467
  598MOL0     H80715   9.911   5.143   0.339 -0.1191  0.1447 -0.7617
  598MOL0     H80716   9.698   5.610   0.291  0.2577 -1.9940 -1.0971
  598MOL0     H80717   9.505   5.747   0.341 -1.3348  0.1017  4.2975
  598MOL0     H80718   9.147   5.539   0.490 -2.9699  0.5809  0.3354
  598MOL0     H80719   9.071   5.602   0.366 -1.5360 -0.2435  2.7529
  598MOL0     H80720   9.185   5.791   0.581  1.0030  1.9338 -0.7741
  598MOL0     H80721   9.022   5.723   0.583 -0.3543  2.3094 -0.0527
  598MOL0     H80722   9.024   5.832   0.329 -1.6589  2.6635 -1.1329
  598MOL0     H80723   9.159   5.922   0.408  0.9433 -2.2856  2.2268
  598MOL0     H80724   8.864   5.881   0.507 -2.5744  1.8563 -1.6361
  598MOL0     H80725   8.994   5.981   0.582  0.1059 -0.1584  0.1599
  598MOL0     H80726   8.853   6.207   0.245  0.4056 -1.7056 -1.0119
  598MOL0     H80727   9.243   5.436   0.308 -0.3448  1.5365 -1.9156
  598MOL0     H80728   9.450   5.183   0.307 -0.9769  1.0105  0.1472
  598MOL0     H80729   9.311   5.225   0.192  0.0354 -4.5471 -0.1448
  598MOL0     H80730   9.471   5.207   0.129  0.5811 -2.6806  0.1859
  599MOL0     O80731   7.974   6.743   8.121  0.3272 -1.2578  0.4710
  599MOL0     C80732   7.931   6.632   8.116  0.3333  0.3515  0.3666
  599MOL0     O80733   7.988   6.527   8.181 -0.3869  0.6112 -0.5262
  599MOL0     C80734   8.093   6.556   8.267 -0.4819  0.3334 -0.6941
  599MOL0     C80735   8.220   6.611   8.225 -0.1926  0.2967 -0.5091
  599MOL0     C80736   8.321   6.633   8.315  0.6118  0.0321 -0.1314
  599MOL0     C80737   8.313   6.591   8.447 -0.1316  0.0978  0.5960
  599MOL0     O80738   8.424   6.620   8.520 -0.6613 -0.4950 -0.0680
  599MOL0     C80739   8.399   6.661   8.659 -0.0493  0.4369 -0.3779
  599MOL0     C80740   8.537   6.687   8.727  0.7479 -0.7496  0.4536
  599MOL0     C80741   8.621   6.562   8.733 -0.7374  0.7998  0.1533
  599MOL0     C80742   8.737   6.574   8.834 -0.5107  0.3621  1.1013
  599MOL0     C80743   8.839   6.670   8.781 -1.0784 -0.0565 -0.9253
  599MOL0     C80744   8.974   6.649   8.858  0.7828 -0.6178  0.5545
  599MOL0     C80745   9.071   6.730   8.786  0.0800 -0.6626  0.2256
  599MOL0     C80746   9.210   6.710   8.860  0.0315  0.5284 -0.1840
  599MOL0     N80747   9.318   6.792   8.801  0.9875 -0.1105 -0.5490
  599MOL0     C80748   9.304   6.932   8.794 -0.3120  0.4271 -0.3237
  599MOL0     C80749   9.405   6.963   8.711  0.0282 -0.3817 -0.0912
  599MOL0     C80750   9.417   7.113   8.683 -0.1812  0.4569  0.1918
  599MOL0     C80751   9.529   7.178   8.770  0.1518  0.2028  0.0186
  599MOL0     C80752   9.670   7.105   8.764  0.1266  0.1846 -0.1664
  599MOL0     C80753   9.784   7.196   8.819  0.1233  0.1619  0.0611
  599MOL0     O80754   9.779   7.322   8.745  0.4267 -0.1207  0.0376
  599MOL0     C80755   9.886   7.411   8.745 -0.0829  0.1751 -0.7196
  599MOL0     C80756  10.008   7.386   8.804 -0.3698  0.8759 -0.3076
  599MOL0     C80757  10.104   7.490   8.796  0.2613 -0.2229  0.6009
  599MOL0     C80758  10.086   7.619   8.741 -0.3383 -0.5214  0.1440
  599MOL0     C80759  10.197   7.723   8.738 -0.0310  0.1955 -0.8375
  599MOL0     O80760  10.149   7.847   8.699  0.0671 -0.0526  0.3024
  599MOL0     C80761  10.247   7.943   8.678 -0.6501  0.6104  0.0026
  599MOL0     C80762  10.282   8.029   8.780 -0.1360  0.2496  0.5555
  599MOL0     C80763  10.381   8.123   8.773 -0.5470 -0.4011  0.1396
  599MOL0     C80764  10.444   8.138   8.650  0.0436 -0.8158  0.5594
  599MOL0     O80765  10.535   8.250   8.637  0.0942 -0.1456  0.4749
  599MOL0     C80766  10.668   8.239   8.700  0.4010 -0.4058 -0.4424
  599MOL0     C80767  10.704   8.357   8.795 -0.0372  0.0771  0.4863
  599MOL0     C80768  10.838   8.321   8.860 -0.3903 -0.3291 -0.5287
  599MOL0     C80769  10.892   8.444   8.923  0.0250  0.4743 -0.1762
  599MOL0     C80770  11.013   8.401   9.014  0.0616 -0.1330  0.0319
  599MOL0     C80771  11.056   8.516   9.109 -0.3771  0.1733  0.2715
  599MOL0     C80772  11.182   8.475   9.187 -0.6617  0.6961 -0.9059
  599MOL0     C80773  11.327   8.496   9.124  0.0884  0.7892  0.4816
  599MOL0    Cl80774  11.346   8.361   8.988  0.2607 -0.2177 -0.4185
  599MOL0     C80775  10.416   8.053   8.541  0.0764 -0.1139  0.4683
  599MOL0     C80776  10.319   7.950   8.553 -0.1444  0.2122  0.5023
  599MOL0     O80777  10.311   7.691   8.768  0.2558 -0.1926  0.1036
  599MOL0     C80778   9.960   7.639   8.678 -0.4835  0.3974 -0.3820
  599MOL0     C80779   9.869   7.537   8.684  1.3661 -0.4077 -0.3875
  599MOL0     N80780   9.476   6.849   8.672  0.0367  0.0606  0.1609
  599MOL0     N80781   9.410   6.748   8.716 -0.6112 -0.4141 -0.7020
  599MOL0     C80782   8.190   6.546   8.496  0.8239 -0.8061 -0.5209
  599MOL0     C80783   8.081   6.524   8.405 -0.1034 -1.5082 -0.0089
  599MOL0     C80784   7.805   6.614   8.037  0.5496 -0.1953 -0.3438
  599MOL0     C80785   7.710   6.723   8.034 -0.1307 -0.9753  0.2215
  599MOL0     C80786   7.583   6.709   7.985  0.3015  0.3502  0.0833
  599MOL0     C80787   7.538   6.589   7.929 -0.4005 -0.1492  0.4367
  599MOL0     O80788   7.413   6.586   7.890 -0.1058 -0.7362 -0.5238
  599MOL0     C80789   7.393   6.636   7.757 -0.1085  0.0069  0.2259
  599MOL0     C80790   7.260   6.718   7.770 -0.2904  0.3455  0.0746
  599MOL0     C80791   7.125   6.639   7.771 -0.3938  0.6053  0.3616
  599MOL0     C80792   7.081   6.614   7.920 -0.3213  0.1499  0.5313
  599MOL0     C80793   6.953   6.548   7.932  0.5129 -0.4043  0.1006
  599MOL0     C80794   6.847   6.494   7.946 -0.5042  0.2365 -0.0976
  599MOL0     C80795   7.628   6.483   7.924  0.1980 -0.2949 -0.7742
  599MOL0     C80796   7.757   6.492   7.973 -0.2765 -0.0267  0.0395
  599MOL0     C80797   7.846   6.372   7.961 -0.3250 -0.1566  0.3692
  599MOL0     H80798   8.228   6.632   8.119  0.4073 -3.1760 -1.2957
  599MOL0     H80799   8.410   6.681   8.278  1.1821 -0.7931  0.1447
  599MOL0     H80800   8.346   6.757   8.657  1.7231  1.4871  0.1266
  599MOL0     H80801   8.344   6.584   8.714 -0.9121  0.7596 -0.7840
  599MOL0     H80802   8.519   6.719   8.829  0.4492 -1.4165  0.6169
  599MOL0     H80803   8.598   6.764   8.679  0.7128 -0.3137  1.1032
  599MOL0     H80804   8.666   6.545   8.635 -1.0405 -0.4066  0.2137
  599MOL0     H80805   8.561   6.476   8.762 -0.7298  1.1329  1.2269
  599MOL0     H80806   8.697   6.606   8.931  0.9779 -1.2117  2.2997
  599MOL0     H80807   8.778   6.474   8.851 -1.1851 -0.2567 -0.6504
  599MOL0     H80808   8.860   6.640   8.678  4.1860 -1.8290  0.3669
  599MOL0     H80809   8.793   6.768   8.794 -1.7762 -0.6747  1.9958
  599MOL0     H80810   8.949   6.684   8.958 -1.1985  0.9812 -0.4074
  599MOL0     H80811   8.997   6.542   8.864  1.4487 -0.5224 -0.1566
  599MOL0     H80812   9.047   6.836   8.786  0.7165 -0.4920 -1.2407
  599MOL0     H80813   9.066   6.694   8.683 -0.0151 -0.3028  0.1034
  599MOL0     H80814   9.198   6.728   8.967  0.5427 -0.3248  0.0298
  599MOL0     H80815   9.226   6.603   8.844 -1.8429  0.1889 -0.0047
  599MOL0     H80816   9.220   6.989   8.832 -0.7704  0.7468 -1.7415
  599MOL0     H80817   9.440   7.121   8.576  2.9306 -0.4550  0.6866
  599MOL0     H80818   9.329   7.175   8.699  0.7226  2.3671 -1.7336
  599MOL0     H80819   9.540   7.279   8.729 -0.1656  0.1314 -0.2413
  599MOL0     H80820   9.507   7.187   8.877  1.0838  2.0654  0.0871
  599MOL0     H80821   9.688   7.085   8.658  0.1139 -1.3820  0.1072
  599MOL0     H80822   9.664   7.016   8.827  0.6561  1.2622  1.4692
  599MOL0     H80823   9.881   7.146   8.815  0.7443  1.1762  1.5622
  599MOL0     H80824   9.765   7.212   8.925  2.3600 -1.6190  0.8126
  599MOL0     H80825  10.043   7.301   8.861 -1.0918  2.0082  1.9686
  599MOL0     H80826  10.196   7.484   8.854 -0.4663  0.9556  1.9354
  599MOL0     H80827  10.236   8.024   8.878 -0.9373  1.8243  0.3031
  599MOL0     H80828  10.400   8.184   8.861  1.2479 -0.5231 -0.1227
  599MOL0     H80829  10.678   8.149   8.761  1.2986 -0.4098 -0.5815
  599MOL0     H80830  10.742   8.243   8.619 -0.1141  2.2294 -0.8616
  599MOL0     H80831  10.719   8.457   8.753  0.2749 -0.3834 -0.5537
  599MOL0     H80832  10.628   8.376   8.870 -0.9340 -3.2497  0.5960
  599MOL0     H80833  10.841   8.232   8.923  1.4082 -1.8659 -2.6171
  599MOL0     H80834  10.901   8.285   8.778 -1.0388 -3.9359  0.3823
  599MOL0     H80835  10.814   8.484   8.988 -0.2645 -2.8657  1.7658
  599MOL0     H80836  10.928   8.512   8.846 -1.7925  1.5948 -0.0944
  599MOL0     H80837  11.097   8.381   8.946  0.1507 -1.2815  0.4629
  599MOL0     H80838  10.983   8.318   9.077 -2.8419  2.4523  2.3694
  599MOL0     H80839  11.074   8.604   9.047  0.8092  0.3969  0.8956
  599MOL0     H80840  10.977   8.536   9.183 -0.8560  0.6712 -0.3664
  599MOL0     H80841  11.175   8.368   9.210 -0.1336  1.2089  2.0913
  599MOL0     H80842  11.184   8.528   9.283  4.2370 -3.2396  1.7406
  599MOL0     H80843  11.338   8.597   9.083 -1.6812  0.8842  0.1383
  599MOL0     H80844  11.406   8.478   9.196  0.1561  0.3596  0.3015
  599MOL0     H80845  10.458   8.071   8.443 -1.6097 -1.2626 -0.5125
  599MOL0     H80846  10.286   7.880   8.477 -2.8078 -0.2330  1.9592
  599MOL0     H80847   9.942   7.737   8.635 -1.1202  0.3322 -0.2662
  599MOL0     H80848   9.780   7.572   8.634  0.2015 -0.8540  1.2694
  599MOL0     H80849   8.174   6.533   8.602  0.4557  0.6560 -0.3695
  599MOL0     H80850   7.983   6.487   8.434 -1.9554  0.5463 -3.0548
  599MOL0     H80851   7.737   6.817   8.080 -2.1924 -1.5635  2.8467
  599MOL0     H80852   7.500   6.778   7.995 -1.2571 -1.3567 -0.3878
  599MOL0     H80853   7.389   6.549   7.691 -0.7205 -2.0843  2.8066
  599MOL0     H80854   7.465   6.705   7.714 -1.6843 -0.2185 -3.0492
  599MOL0     H80855   7.263   6.774   7.676 -0.1991  2.7730  1.4322
  599MOL0     H80856   7.269   6.788   7.854 -2.7315  0.5426  0.2312
  599MOL0     H80857   7.139   6.545   7.717 -0.2839 -1.1279  3.2444
  599MOL0     H80858   7.049   6.693   7.713  1.1008  2.8882  0.3711
  599MOL0     H80859   7.151   6.548   7.972 -0.8511 -1.2822 -0.4790
  599MOL0     H80860   7.077   6.704   7.982  1.8830 -0.2792  1.3878
  599MOL0     H80861   6.759   6.434   7.957 -2.2304  1.7622 -4.0162
  599MOL0     H80862   7.610   6.392   7.868 -0.7222 -0.3223 -0.4437
  599MOL0     H80863   7.929   6.404   7.898 -1.6721  0.6493 -1.0746
  599MOL0     H80864   7.870   6.341   8.063  2.9782 -0.4612 -0.3951
  599MOL0     H80865   7.797   6.285   7.916  0.5147 -1.2065  1.4287
  600MOL0     O80866   3.157   0.293   3.319 -0.5746 -0.3831 -0.1032
  600MOL0     C80867   3.071   0.221   3.286  0.5248  0.0233  0.7027
  600MOL0     O80868   3.082   0.113   3.196  0.3496  0.1093  0.4852
  600MOL0     C80869   3.197   0.068   3.138  0.6941 -0.5241 -0.6968
  600MOL0     C80870   3.207   0.046   3.000  0.2599 -0.0558  0.4885
  600MOL0     C80871   3.329   0.007   2.950 -0.0986  0.8413 -0.6396
  600MOL0     C80872   3.445  -0.011   3.029  0.0870 -0.6189  0.0987
  600MOL0     O80873   3.561  -0.032   2.960 -0.2556  0.6129 -0.4750
  600MOL0     C80874   3.682  -0.071   3.033  0.4872  0.1372  1.0779
  600MOL0     C80875   3.758  -0.170   2.946 -0.4074 -0.2686 -0.5668
  600MOL0     C80876   3.844  -0.259   3.029 -0.3147 -0.3385  0.3458
  600MOL0     C80877   3.969  -0.284   2.949  0.7181 -0.0281  0.3289
  600MOL0     C80878   4.071  -0.355   3.039  0.2849 -0.0241 -0.1348
  600MOL0     C80879   4.040  -0.494   3.089 -0.6072  0.8654 -0.3030
  600MOL0     C80880   4.169  -0.571   3.126  0.0261  0.9939 -0.1163
  600MOL0     C80881   4.150  -0.715   3.180  0.1862 -0.0408  0.0439
  600MOL0     N80882   4.263  -0.810   3.186 -0.4427  0.4681  0.6702
  600MOL0     C80883   4.311  -0.873   3.297  0.0012  0.0566  0.4189
  600MOL0     C80884   4.432  -0.922   3.258  0.3293 -0.9130 -0.2746
  600MOL0     C80885   4.530  -1.000   3.339  0.8884  0.3558 -0.6795
  600MOL0     C80886   4.669  -1.024   3.274 -0.1738  0.5620 -0.4847
  600MOL0     C80887   4.759  -1.125   3.349 -0.0084 -0.1560 -0.5212
  600MOL0     C80888   4.902  -1.126   3.305  0.3348  0.0701 -0.1789
  600MOL0     O80889   4.991  -1.202   3.390  0.8414  0.1730 -0.2137
  600MOL0     C80890   5.122  -1.193   3.352  0.0993  0.4978  0.1514
  600MOL0     C80891   5.175  -1.101   3.254 -0.3224  0.1605 -0.3649
  600MOL0     C80892   5.309  -1.111   3.219 -0.8970 -0.2207  0.1059
  600MOL0     C80893   5.393  -1.211   3.279  0.0963 -0.0085 -0.1879
  600MOL0     C80894   5.528  -1.240   3.235  0.6036  0.1993  0.4679
  600MOL0     O80895   5.548  -1.203   3.103 -0.1758  0.0605 -0.2834
  600MOL0     C80896   5.665  -1.242   3.050 -0.0730 -0.2874 -0.0843
  600MOL0     C80897   5.732  -1.140   2.975  0.1503  0.0215  0.7644
  600MOL0     C80898   5.856  -1.174   2.911 -0.2435 -0.8661  0.3631
  600MOL0     C80899   5.917  -1.299   2.927  0.1422  0.0310 -0.4357
  600MOL0     O80900   6.048  -1.312   2.885  0.9020 -0.9976  0.2728
  600MOL0     C80901   6.118  -1.434   2.903 -0.0020  0.2951 -0.0217
  600MOL0     C80902   6.257  -1.417   2.844  0.6355  0.1614 -0.2160
  600MOL0     C80903   6.331  -1.551   2.852  0.0457 -0.8478 -0.2357
  600MOL0     C80904   6.462  -1.525   2.784  0.1501  0.3463  0.3627
  600MOL0     C80905   6.554  -1.650   2.793 -0.6671 -0.1794 -0.6797
  600MOL0     C80906   6.687  -1.614   2.721 -0.0441  0.8100 -0.8235
  600MOL0     C80907   6.682  -1.579   2.578 -0.1469 -0.3521  0.9926
  600MOL0     C80908   6.621  -1.678   2.480 -0.2132  0.6295  0.5721
  600MOL0    Cl80909   6.732  -1.808   2.463 -0.4664  0.1921 -0.1879
  600MOL0     C80910   5.848  -1.399   3.002 -0.4084 -0.0812 -0.2277
  600MOL0     C80911   5.726  -1.368   3.058  0.1783 -0.5640  0.4395
  600MOL0     O80912   5.617  -1.278   3.314  0.2852 -0.0243  0.4543
  600MOL0     C80913   5.333  -1.291   3.382 -1.0721  0.5443 -0.1365
  600MOL0     C80914   5.203  -1.283   3.414  0.4778 -0.0840  0.5077
  600MOL0     N80915   4.447  -0.893   3.118 -0.0528 -0.4755 -0.4587
  600MOL0     N80916   4.362  -0.808   3.088 -0.1449 -0.5633 -0.5803
  600MOL0     C80917   3.431   0.021   3.169  0.2908  0.0790  0.6028
  600MOL0     C80918   3.306   0.049   3.225 -1.0470 -0.8757  0.3700
  600MOL0     C80919   2.947   0.213   3.374  0.3139  0.9684  0.3154
  600MOL0     C80920   2.952   0.241   3.509 -0.4830  0.0804  0.3011
  600MOL0     C80921   2.838   0.236   3.596  0.2415 -0.0684 -0.0083
  600MOL0     C80922   2.718   0.193   3.547  0.5076 -0.7926 -0.7622
  600MOL0     O80923   2.613   0.196   3.638 -0.0649 -0.0022 -0.2370
  600MOL0     C80924   2.488   0.244   3.587  0.1043 -0.0387 -0.6539
  600MOL0     C80925   2.389   0.129   3.572 -0.6768 -0.4744 -0.2061
  600MOL0     C80926   2.278   0.161   3.475 -0.5067  0.5368 -1.0398
  600MOL0     C80927   2.158   0.062   3.500  0.0180  0.4889  0.5189
  600MOL0     C80928   2.064   0.083   3.392  0.1965  0.2750 -0.6706
  600MOL0     C80929   1.991   0.108   3.295  0.1310  0.0658  0.4077
  600MOL0     C80930   2.717   0.157   3.413  0.4174  1.1325 -0.4382
  600MOL0     C80931   2.824   0.168   3.323 -0.2011  0.2940 -0.3777
  600MOL0     C80932   2.788   0.143   3.176  1.0140 -0.7613 -0.4405
  600MOL0     H80933   3.115   0.056   2.945  0.6385  1.4094  0.0566
  600MOL0     H80934   3.331  -0.009   2.842 -2.8175  0.2166 -0.6882
  600MOL0     H80935   3.740   0.020   3.054  0.0831  0.3247  1.3986
  600MOL0     H80936   3.648  -0.123   3.123 -2.1185 -1.3691 -0.6342
  600MOL0     H80937   3.814  -0.120   2.866 -2.7838 -0.4298 -2.4623
  600MOL0     H80938   3.687  -0.235   2.895  0.5204 -3.4266  1.8318
  600MOL0     H80939   3.797  -0.354   3.055  0.7511 -1.1789 -0.7269
  600MOL0     H80940   3.875  -0.211   3.123  1.9301 -1.0161  0.0095
  600MOL0     H80941   3.957  -0.337   2.855  2.9339 -2.0225  1.0734
  600MOL0     H80942   4.019  -0.190   2.922 -0.0275  0.9534  2.1861
  600MOL0     H80943   4.164  -0.360   2.982  0.6120  1.2425  0.2514
  600MOL0     H80944   4.088  -0.288   3.124 -1.7680 -0.9463  1.0910
  600MOL0     H80945   3.979  -0.487   3.180 -0.0185  1.5541  0.0598
  600MOL0     H80946   3.983  -0.550   3.015  2.8341  0.1669 -2.6850
  600MOL0     H80947   4.229  -0.525   3.204  1.9498 -0.4572 -0.6459
  600MOL0     H80948   4.231  -0.576   3.036 -0.0913  1.1711 -0.2073
  600MOL0     H80949   4.122  -0.711   3.285  0.8098 -2.2560  0.3249
  600MOL0     H80950   4.071  -0.767   3.125  0.6298  0.6156 -1.2495
  600MOL0     H80951   4.279  -0.873   3.401 -0.7632  1.6086  0.2172
  600MOL0     H80952   4.546  -0.939   3.428 -0.7975  0.2825 -0.2978
  600MOL0     H80953   4.491  -1.096   3.374 -1.9790  0.8670 -2.1749
  600MOL0     H80954   4.661  -1.064   3.172  1.0308  0.3972 -0.5239
  600MOL0     H80955   4.721  -0.928   3.267 -0.0902  1.2031  5.0983
  600MOL0     H80956   4.721  -1.226   3.335 -2.8649  0.7104  0.2570
  600MOL0     H80957   4.739  -1.104   3.455  0.5648  1.0481 -0.6226
  600MOL0     H80958   4.934  -1.023   3.319 -0.0719 -0.0981  2.4224
  600MOL0     H80959   4.906  -1.150   3.198 -0.0230 -0.2088 -0.1347
  600MOL0     H80960   5.115  -1.024   3.206  0.6760  0.4140 -1.2226
  600MOL0     H80961   5.353  -1.059   3.134 -0.5748 -0.1957  0.2860
  600MOL0     H80962   5.678  -1.047   2.962  0.9863  0.4428  0.2164
  600MOL0     H80963   5.904  -1.091   2.861  0.8174 -1.2778  0.6680
  600MOL0     H80964   6.120  -1.472   3.006 -0.6237 -1.4393 -0.6110
  600MOL0     H80965   6.068  -1.514   2.847 -0.2462 -0.3849  1.1237
  600MOL0     H80966   6.243  -1.373   2.745 -0.1133  0.8029  0.1621
  600MOL0     H80967   6.306  -1.347   2.913  1.6922 -1.1722  0.4303
  600MOL0     H80968   6.352  -1.587   2.953 -0.3762  0.2606  0.2635
  600MOL0     H80969   6.275  -1.627   2.797 -1.6331  0.4497 -0.3803
  600MOL0     H80970   6.512  -1.438   2.827 -2.0470  1.5934  0.5878
  600MOL0     H80971   6.439  -1.494   2.681  1.6411 -0.4005 -0.2237
  600MOL0     H80972   6.507  -1.737   2.747 -0.6300 -0.6513  0.1527
  600MOL0     H80973   6.580  -1.686   2.893 -0.9297 -0.4630 -0.7109
  600MOL0     H80974   6.744  -1.544   2.783 -2.3133  0.5466  1.7629
  600MOL0     H80975   6.743  -1.707   2.734 -0.5930  0.7095  1.0814
  600MOL0     H80976   6.785  -1.570   2.543  0.4035  0.5498  2.7687
  600MOL0     H80977   6.643  -1.479   2.558  1.3931  0.3998  1.6273
  600MOL0     H80978   6.528  -1.711   2.526  1.2176 -0.4494  2.8365
  600MOL0     H80979   6.606  -1.648   2.376 -0.6550 -3.1958 -0.5907
  600MOL0     H80980   5.895  -1.496   3.017 -0.2147  0.0420 -0.0313
  600MOL0     H80981   5.687  -1.438   3.132 -1.1986  1.7066  1.9727
  600MOL0     H80982   5.392  -1.358   3.444  1.0352  0.7789 -1.7751
  600MOL0     H80983   5.162  -1.348   3.490 -0.4503 -2.5861 -1.9546
  600MOL0     H80984   3.523   0.014   3.226  1.6517  1.1543 -1.3216
  600MOL0     H80985   3.299   0.058   3.333  0.0746 -1.0931  0.4655
  600MOL0     H80986   3.044   0.265   3.561 -1.1172  0.3302  1.3283
  600MOL0     H80987   2.846   0.252   3.703 -1.3637  0.6304  0.0373
  600MOL0     H80988   2.507   0.298   3.494 -1.0376  0.2035 -0.7665
  600MOL0     H80989   2.448   0.320   3.656  0.1222 -0.2620 -0.3929
  600MOL0     H80990   2.355   0.108   3.673  1.2700  2.3193  1.1606
  600MOL0     H80991   2.433   0.034   3.540  1.3251  1.2638 -3.1268
  600MOL0     H80992   2.314   0.147   3.372  2.3284  0.3357 -0.1202
  600MOL0     H80993   2.243   0.264   3.487  1.3752  0.9176  2.5194
  600MOL0     H80994   2.183  -0.044   3.488 -3.4361 -0.2079 -2.4187
  600MOL0     H80995   2.119   0.085   3.599 -0.4425 -2.4863  1.1287
  600MOL0     H80996   1.932   0.144   3.213 -2.0285 -1.4224  1.2125
  600MOL0     H80997   2.620   0.132   3.372  0.3571  3.4458 -1.8929
  600MOL0     H80998   2.770   0.233   3.117 -1.0426  0.9825  2.6125
  600MOL0     H80999   2.857   0.074   3.126  1.6836  0.4403 -1.2080
  600MOL0     H81000   2.688   0.098   3.171  0.8707 -0.4617 -0.2896
  601MOL0     O81001   6.260   5.999   1.315  0.5454  0.2010  0.6275
  601MOL0     C81002   6.293   6.047   1.208  0.3758  0.1887  0.2518
  601MOL0     O81003   6.403   6.013   1.137  0.1194 -0.6565 -0.3565
  601MOL0     C81004   6.489   5.913   1.170 -0.3456 -0.1295  0.0933
  601MOL0     C81005   6.449   5.793   1.234 -0.6960  0.1638 -0.5556
  601MOL0     C81006   6.545   5.693   1.267  0.7710 -0.5510 -0.7090
  601MOL0     C81007   6.676   5.703   1.227  0.2182  0.1390 -0.3089
  601MOL0     O81008   6.775   5.609   1.243 -0.2377  0.1545 -0.0307
  601MOL0     C81009   6.751   5.478   1.306  0.2790 -0.0829  0.8011
  601MOL0     C81010   6.872   5.392   1.323  0.4985 -0.3127  0.2788
  601MOL0     C81011   6.943   5.425   1.446 -0.0616  0.3555 -0.7150
  601MOL0     C81012   7.069   5.339   1.462 -0.4843  0.0125 -1.0108
  601MOL0     C81013   7.147   5.382   1.584  0.6320 -0.0243 -0.3795
  601MOL0     C81014   7.280   5.299   1.589  1.1036 -1.1091 -0.3324
  601MOL0     C81015   7.390   5.395   1.645 -0.3083 -1.3684 -0.5437
  601MOL0     C81016   7.506   5.302   1.689 -0.1516  0.2882 -0.0168
  601MOL0     N81017   7.631   5.355   1.737  0.6884  0.2086 -0.1001
  601MOL0     C81018   7.658   5.433   1.850 -0.2473 -0.2999 -1.3641
  601MOL0     C81019   7.778   5.488   1.832  0.7082  0.3583  0.7488
  601MOL0     C81020   7.835   5.603   1.915  0.2149  0.3696 -0.0616
  601MOL0     C81021   7.974   5.642   1.870 -1.2625  0.5026 -0.1829
  601MOL0     C81022   8.089   5.544   1.900 -0.2384  0.4420 -0.4289
  601MOL0     C81023   8.211   5.610   1.859  0.2276 -0.4678  0.2146
  601MOL0     O81024   8.308   5.512   1.878 -0.7786  0.2072 -0.6030
  601MOL0     C81025   8.442   5.541   1.876  0.2758  0.3386 -0.2219
  601MOL0     C81026   8.501   5.660   1.827 -0.9959  0.1228  0.3958
  601MOL0     C81027   8.636   5.684   1.840  0.3893  0.8526 -0.2035
  601MOL0     C81028   8.718   5.583   1.902 -0.2024 -0.0019  0.4907
  601MOL0     C81029   8.865   5.609   1.906 -0.4673 -0.6262  0.3046
  601MOL0     O81030   8.951   5.499   1.903  0.1007  0.2219  0.1405
  601MOL0     C81031   9.085   5.519   1.871 -0.7475  0.7168 -0.1026
  601MOL0     C81032   9.142   5.589   1.759 -0.1077 -0.2350 -0.8234
  601MOL0     C81033   9.277   5.585   1.735 -0.9843 -0.1800 -0.5017
  601MOL0     C81034   9.365   5.512   1.824  0.1225  0.0109  0.2608
  601MOL0     O81035   9.501   5.494   1.808  0.1098 -1.0802  0.3432
  601MOL0     C81036   9.554   5.553   1.688  0.1907 -0.2343 -0.2392
  601MOL0     C81037   9.708   5.549   1.704  0.0796  0.7983 -0.3152
  601MOL0     C81038   9.760   5.479   1.579  0.4553  0.6146  0.1913
  601MOL0     C81039   9.909   5.442   1.598 -0.6268  0.5687 -0.1694
  601MOL0     C81040   9.963   5.380   1.477 -0.8689  0.2269  0.3918
  601MOL0     C81041  10.103   5.330   1.485  0.3844 -0.4487  0.8049
  601MOL0     C81042  10.202   5.433   1.428 -0.5050  0.2704  1.0144
  601MOL0     C81043  10.349   5.386   1.444  0.7237  0.2727  0.2856
  601MOL0    Cl81044  10.360   5.216   1.382 -0.1515 -0.1588  0.4407
  601MOL0     C81045   9.312   5.445   1.934  0.7357 -0.4260  1.1391
  601MOL0     C81046   9.175   5.446   1.956  0.2071  0.2249  0.1868
  601MOL0     O81047   8.904   5.726   1.890  0.1002  0.0822 -0.1172
  601MOL0     C81048   8.659   5.465   1.945 -0.9400  0.7525  0.3977
  601MOL0     C81049   8.525   5.449   1.935  0.3363  0.2531 -1.6676
  601MOL0     N81050   7.826   5.432   1.716 -0.1355 -0.2657 -0.2112
  601MOL0     N81051   7.735   5.365   1.658 -0.2950  0.6670 -0.4084
  601MOL0     C81052   6.712   5.825   1.174 -1.0182 -0.3049 -0.5664
  601MOL0     C81053   6.624   5.928   1.145 -0.4360  0.3985 -0.5246
  601MOL0     C81054   6.198   6.163   1.163 -0.9668 -0.4995  0.1185
  601MOL0     C81055   6.220   6.215   1.035  0.8309 -0.0477 -0.1906
  601MOL0     C81056   6.139   6.317   0.983 -0.4330 -0.1092  0.0893
  601MOL0     C81057   6.029   6.365   1.056 -0.0682 -0.3630 -0.2666
  601MOL0     O81058   5.962   6.480   1.013 -0.4322 -0.2027  0.4272
  601MOL0     C81059   5.858   6.532   1.094  0.3088 -0.3348 -0.1340
  601MOL0     C81060   5.809   6.674   1.041 -0.0809  0.3966  0.8472
  601MOL0     C81061   5.915   6.781   1.051  0.5458 -0.3784  0.6385
  601MOL0     C81062   5.866   6.922   1.012  0.7635  0.0824 -0.6999
  601MOL0     C81063   5.870   6.946   0.866 -0.4433 -0.2997 -0.6332
  601MOL0     C81064   5.898   6.965   0.755  0.8198  0.0287  0.6329
  601MOL0     C81065   6.003   6.303   1.184  0.4526  0.1312  0.3376
  601MOL0     C81066   6.089   6.206   1.239 -0.2493 -0.1281  0.1917
  601MOL0     C81067   6.042   6.155   1.382 -0.5461  0.3245  0.4000
  601MOL0     H81068   6.349   5.772   1.268 -0.4968 -0.5335 -0.3884
  601MOL0     H81069   6.522   5.616   1.340  2.6415 -0.3837  0.1191
  601MOL0     H81070   6.710   5.504   1.404 -2.5621 -2.8143  0.4676
  601MOL0     H81071   6.669   5.428   1.254 -0.7484  2.8135 -0.6266
  601MOL0     H81072   6.938   5.398   1.235  0.5713  0.1024  0.3590
  601MOL0     H81073   6.842   5.287   1.331 -1.9674  0.1055 -1.8928
  601MOL0     H81074   6.888   5.400   1.537 -0.1144 -1.9129 -1.2878
  601MOL0     H81075   6.969   5.531   1.444  0.5552  0.4292  3.3043
  601MOL0     H81076   7.047   5.232   1.463 -0.5734  0.0300 -1.0794
  601MOL0     H81077   7.136   5.359   1.378  2.1649 -0.7794  0.7651
  601MOL0     H81078   7.159   5.489   1.568  0.6580 -0.1395 -1.1652
  601MOL0     H81079   7.101   5.370   1.683  2.4298 -1.2772  0.3559
  601MOL0     H81080   7.268   5.218   1.661  0.4193  0.4555  1.4157
  601MOL0     H81081   7.301   5.258   1.490  0.1681 -1.9484 -0.2021
  601MOL0     H81082   7.360   5.449   1.735  2.9097 -1.6116  0.8329
  601MOL0     H81083   7.415   5.461   1.562 -4.6200  0.5774 -0.5569
  601MOL0     H81084   7.466   5.239   1.769 -0.4447 -0.9277 -1.0959
  601MOL0     H81085   7.543   5.236   1.610 -0.3057  0.4601 -0.2354
  601MOL0     H81086   7.591   5.466   1.929  2.7559 -1.8416  2.1142
  601MOL0     H81087   7.768   5.686   1.890  0.6339 -0.0111 -2.8655
  601MOL0     H81088   7.831   5.562   2.016  1.9013 -2.4854 -1.0241
  601MOL0     H81089   7.979   5.668   1.764  2.1901 -0.7259 -0.4172
  601MOL0     H81090   7.988   5.733   1.929 -0.9265  1.1081 -1.1677
  601MOL0     H81091   8.075   5.453   1.842 -1.9407 -1.6040  2.9237
  601MOL0     H81092   8.086   5.521   2.006  0.7311  0.6502 -0.3486
  601MOL0     H81093   8.218   5.689   1.934 -1.6205 -0.4891  0.4412
  601MOL0     H81094   8.214   5.652   1.758  0.4969  1.2727  0.9099
  601MOL0     H81095   8.444   5.733   1.771  2.3471  1.6055 -1.3463
  601MOL0     H81096   8.665   5.775   1.789 -0.9120  0.1547 -2.2862
  601MOL0     H81097   9.081   5.646   1.689 -0.7899 -1.1990 -1.0405
  601MOL0     H81098   9.309   5.642   1.649 -1.0796  0.5926 -0.0334
  601MOL0     H81099   9.520   5.506   1.595  0.4145 -1.5112  0.2987
  601MOL0     H81100   9.526   5.658   1.697  0.8992 -0.1700  1.7002
  601MOL0     H81101   9.754   5.647   1.709 -2.2980  2.0668 -1.4029
  601MOL0     H81102   9.744   5.495   1.792 -0.4090  0.9327 -0.0279
  601MOL0     H81103   9.702   5.387   1.569 -1.8248  1.9426  0.5743
  601MOL0     H81104   9.755   5.538   1.487  1.2251  2.1036  1.0737
  601MOL0     H81105   9.913   5.373   1.682 -1.0679 -1.1807 -1.5225
  601MOL0     H81106   9.962   5.536   1.615 -1.6221  0.7992  1.9985
  601MOL0     H81107   9.953   5.460   1.403 -0.1173  0.5674  0.6545
  601MOL0     H81108   9.897   5.296   1.451 -0.9235  0.5832 -0.7119
  601MOL0     H81109  10.141   5.299   1.583  4.2050 -0.9315 -0.6381
  601MOL0     H81110  10.098   5.245   1.417  0.2438 -0.8415  1.3011
  601MOL0     H81111  10.200   5.527   1.483 -0.7038  0.4839  0.6406
  601MOL0     H81112  10.185   5.438   1.320 -1.9534  0.4698  1.2365
  601MOL0     H81113  10.420   5.436   1.376 -0.5852 -2.1533 -3.1099
  601MOL0     H81114  10.381   5.392   1.549 -1.2613  5.7550  0.9012
  601MOL0     H81115   9.382   5.392   1.997  2.0720  2.4952  2.3139
  601MOL0     H81116   9.135   5.394   2.042  0.5075 -0.1457  0.1019
  601MOL0     H81117   8.707   5.376   1.984 -2.4658 -1.4808 -2.4393
  601MOL0     H81118   8.478   5.362   1.979 -0.4196  0.8525 -1.2702
  601MOL0     H81119   6.815   5.828   1.139 -0.2583 -1.0000  1.4832
  601MOL0     H81120   6.670   6.004   1.082  1.5756  0.3738  0.8293
  601MOL0     H81121   6.295   6.174   0.968  0.7048  2.4204 -1.9872
  601MOL0     H81122   6.145   6.348   0.879  2.0410  0.3455  0.3083
  601MOL0     H81123   5.894   6.544   1.196  0.2549  4.3495 -0.4540
  601MOL0     H81124   5.769   6.470   1.085 -0.5773  0.9466 -0.5594
  601MOL0     H81125   5.725   6.706   1.104 -0.6479  1.2884 -0.3267
  601MOL0     H81126   5.770   6.668   0.939 -0.2268  0.5347  0.8927
  601MOL0     H81127   6.005   6.755   0.995  0.5878 -1.1201  1.0275
  601MOL0     H81128   5.945   6.787   1.156 -0.0944  1.0936  0.7548
  601MOL0     H81129   5.766   6.937   1.053 -0.4244 -2.8556 -2.1698
  601MOL0     H81130   5.928   6.999   1.059  0.3898 -1.2288  2.1247
  601MOL0     H81131   5.926   6.977   0.653  1.5403 -0.5483  0.7567
  601MOL0     H81132   5.912   6.331   1.235 -2.2592 -1.5661 -3.1864
  601MOL0     H81133   6.118   6.157   1.460 -1.4597  0.3612  1.3013
  601MOL0     H81134   5.960   6.221   1.410 -0.3830  1.4212 -1.4562
  601MOL0     H81135   6.002   6.054   1.371  2.5519 -0.8820 -1.0168
  602MOL0     O81136   0.985   1.506   6.362 -0.8000 -0.2729  0.3302
  602MOL0     C81137   0.925   1.448   6.453 -0.4085  0.2267  0.4840
  602MOL0     O81138   0.991   1.387   6.559 -0.2814 -0.5173  0.3205
  602MOL0     C81139   1.123   1.408   6.590  0.2977 -1.0185 -0.1251
  602MOL0     C81140   1.193   1.321   6.669 -0.2338 -0.0939 -0.3648
  602MOL0     C81141   1.331   1.349   6.701 -0.1138 -0.3607 -0.0410
  602MOL0     C81142   1.388   1.465   6.653  0.1784  0.4552 -0.9322
  602MOL0     O81143   1.521   1.479   6.675 -0.5996  0.1694  0.4238
  602MOL0     C81144   1.607   1.501   6.561  0.7304 -0.1392  0.0055
  602MOL0     C81145   1.722   1.585   6.604 -0.2034 -0.6126  0.1173
  602MOL0     C81146   1.821   1.516   6.697 -0.9038  0.0147 -0.1922
  602MOL0     C81147   1.925   1.621   6.740 -0.1272  0.9541  0.4464
  602MOL0     C81148   2.044   1.561   6.819  0.1161 -0.1050  0.0340
  602MOL0     C81149   2.140   1.676   6.858 -0.1374  0.1968 -0.6461
  602MOL0     C81150   2.260   1.617   6.938 -0.4777 -1.1014 -0.0476
  602MOL0     C81151   2.225   1.584   7.083 -0.1016  0.4367 -0.0917
  602MOL0     N81152   2.348   1.574   7.168  0.1336  0.0481 -0.2173
  602MOL0     C81153   2.344   1.544   7.303 -0.3217 -0.3539  0.3011
  602MOL0     C81154   2.474   1.533   7.341  0.1029 -0.0280 -0.2198
  602MOL0     C81155   2.508   1.529   7.484 -0.2389  0.0522 -0.1003
  602MOL0     C81156   2.660   1.549   7.509  0.3369  0.5866  0.0493
  602MOL0     C81157   2.687   1.570   7.660 -0.8329  0.6431  0.0653
  602MOL0     C81158   2.838   1.545   7.687 -0.3770 -0.5722 -0.5568
  602MOL0     O81159   2.873   1.402   7.686  0.6028  0.4916 -0.0187
  602MOL0     C81160   3.001   1.377   7.720 -0.8083 -0.3915  0.0700
  602MOL0     C81161   3.048   1.253   7.695  0.0646 -0.6841  0.2924
  602MOL0     C81162   3.177   1.208   7.725  0.1197 -0.7420 -0.2022
  602MOL0     C81163   3.262   1.301   7.791  0.2353 -0.9015  0.0144
  602MOL0     C81164   3.398   1.257   7.818  0.1068 -0.1071 -0.5553
  602MOL0     O81165   3.412   1.128   7.819 -0.1510  0.1652 -0.0771
  602MOL0     C81166   3.536   1.074   7.845  0.0280 -0.0624 -0.2592
  602MOL0     C81167   3.589   0.999   7.752 -0.8829  1.0650  0.5341
  602MOL0     C81168   3.723   0.952   7.747 -0.3198 -0.3706  0.2428
  602MOL0     C81169   3.806   0.983   7.863  0.2605  0.1380  0.1675
  602MOL0     O81170   3.931   0.947   7.886 -0.5196 -0.1909  0.4594
  602MOL0     C81171   3.979   0.829   7.810  0.1236  0.5593 -0.2730
  602MOL0     C81172   3.938   0.696   7.875 -0.0385  0.3980  0.4820
  602MOL0     C81173   4.040   0.581   7.856  0.1814  0.2175  0.2205
  602MOL0     C81174   4.083   0.541   7.718  0.1847 -0.6835  0.8143
  602MOL0     C81175   4.150   0.397   7.712  0.3113 -1.1225  0.7136
  602MOL0     C81176   4.247   0.397   7.583 -0.0807  0.5572 -0.3922
  602MOL0     C81177   4.318   0.260   7.578  0.5599  1.2853 -0.0134
  602MOL0     C81178   4.229   0.154   7.503 -0.3556 -0.0160 -0.4546
  602MOL0    Cl81179   4.333   0.009   7.479 -0.1766 -0.0001  0.5344
  602MOL0     C81180   3.743   1.048   7.971 -0.1011 -0.3026  0.4654
  602MOL0     C81181   3.612   1.099   7.959  0.2597  0.2204 -0.4472
  602MOL0     O81182   3.474   1.337   7.861  0.1374  0.5332 -0.2273
  602MOL0     C81183   3.216   1.431   7.825 -0.2537 -0.5496 -1.2321
  602MOL0     C81184   3.087   1.470   7.789 -0.1227  1.0211 -0.2292
  602MOL0     N81185   2.553   1.553   7.230 -0.3144  0.0329 -1.0175
  602MOL0     N81186   2.481   1.562   7.126 -0.3584  0.1276 -0.5130
  602MOL0     C81187   1.312   1.562   6.586 -1.2472 -0.0920 -0.1611
  602MOL0     C81188   1.181   1.538   6.565  0.7554 -0.8565 -0.3285
  602MOL0     C81189   0.778   1.444   6.449  0.4379  0.3071  0.2903
  602MOL0     C81190   0.714   1.517   6.348  0.6569  0.0968 -0.8506
  602MOL0     C81191   0.576   1.497   6.321 -0.8958  1.0113  0.9621
  602MOL0     C81192   0.497   1.416   6.406  0.0198  0.5793  0.0361
  602MOL0     O81193   0.357   1.412   6.411  0.1059 -0.7294  0.1688
  602MOL0     C81194   0.285   1.466   6.293  0.5551  0.4521 -0.3680
  602MOL0     C81195   0.144   1.408   6.275  0.2511  0.1148  0.6487
  602MOL0     C81196   0.065   1.472   6.171  0.6673  0.5003 -0.1773
  602MOL0     C81197   0.107   1.456   6.030  0.4221 -0.3339  0.2613
  602MOL0     C81198   0.000   1.482   5.929  0.4493 -0.9124  0.0021
  602MOL0     C81199  -0.080   1.507   5.838  0.4917 -0.4939  0.1952
  602MOL0     C81200   0.560   1.357   6.514 -0.7704  0.0033  0.2825
  602MOL0     C81201   0.701   1.364   6.535 -0.0795  0.6166  0.0286
  602MOL0     C81202   0.761   1.282   6.644  0.2155  0.0921 -0.4527
  602MOL0     H81203   1.140   1.233   6.701  0.3564 -0.1195  0.5707
  602MOL0     H81204   1.395   1.274   6.745  0.2376 -0.0140  0.0373
  602MOL0     H81205   1.642   1.411   6.509 -0.2950 -0.7990  0.4339
  602MOL0     H81206   1.551   1.554   6.483 -1.3115 -1.1937  0.6896
  602MOL0     H81207   1.675   1.669   6.656  1.5754  0.9337 -0.6662
  602MOL0     H81208   1.775   1.625   6.517 -0.9829  0.1138 -0.0321
  602MOL0     H81209   1.872   1.430   6.653 -0.8246 -1.5462  2.7004
  602MOL0     H81210   1.769   1.464   6.778 -0.3523  0.9260  0.7629
  602MOL0     H81211   1.970   1.655   6.647 -0.6776 -0.5902 -0.4201
  602MOL0     H81212   1.877   1.699   6.800  1.3803  0.8229  1.9044
  602MOL0     H81213   1.994   1.510   6.902 -2.2321  1.9726  0.0310
  602MOL0     H81214   2.104   1.484   6.769  0.5968 -0.7918  1.6063
  602MOL0     H81215   2.174   1.716   6.763  1.7307  0.2946  0.0234
  602MOL0     H81216   2.090   1.763   6.902  0.7782 -0.1537  1.2094
  602MOL0     H81217   2.330   1.701   6.934  1.3011 -2.5218 -0.1938
  602MOL0     H81218   2.322   1.544   6.885  0.4326  0.6713 -1.5481
  602MOL0     H81219   2.154   1.658   7.121 -2.9991 -1.8726 -0.6857
  602MOL0     H81220   2.175   1.487   7.088  1.8208 -0.6032  0.1707
  602MOL0     H81221   2.255   1.548   7.364  0.4568  1.2459  1.3859
  602MOL0     H81222   2.452   1.610   7.532 -0.3839 -0.8911  1.3717
  602MOL0     H81223   2.466   1.435   7.520  1.7118 -1.0774 -0.6286
  602MOL0     H81224   2.721   1.460   7.491  2.5686  1.8444  1.0045
  602MOL0     H81225   2.700   1.624   7.439  1.0624 -1.2057 -1.5284
  602MOL0     H81226   2.617   1.499   7.705 -0.7126 -0.6274 -1.6918
  602MOL0     H81227   2.663   1.674   7.688  1.1312  0.9812  0.6050
  602MOL0     H81228   2.861   1.568   7.791 -1.2608  0.7015 -0.6238
  602MOL0     H81229   2.902   1.594   7.613  2.8262 -1.6585  1.3099
  602MOL0     H81230   2.985   1.183   7.641 -0.8980 -0.2117  0.7796
  602MOL0     H81231   3.199   1.104   7.703  1.0432 -0.5794 -0.0650
  602MOL0     H81232   3.520   0.985   7.670  0.0574  0.4961 -0.1883
  602MOL0     H81233   3.753   0.887   7.665 -2.7016 -1.6763  0.3341
  602MOL0     H81234   3.954   0.832   7.703 -1.2004  2.0442  0.0349
  602MOL0     H81235   4.088   0.831   7.804  0.1929 -1.7547 -0.5798
  602MOL0     H81236   3.925   0.706   7.983 -0.9045  2.9785  0.1942
  602MOL0     H81237   3.843   0.668   7.828  0.1038  2.2181 -0.9883
  602MOL0     H81238   4.129   0.603   7.916  0.8698  0.3925 -0.8407
  602MOL0     H81239   3.992   0.495   7.903 -2.4665 -0.2608 -3.0500
  602MOL0     H81240   4.154   0.620   7.695 -0.6607 -0.6761 -2.3202
  602MOL0     H81241   4.002   0.547   7.644  0.2411  3.5171  0.8796
  602MOL0     H81242   4.074   0.321   7.693 -0.2147  0.0120 -2.2765
  602MOL0     H81243   4.202   0.388   7.809  1.1004  1.2561  0.5993
  602MOL0     H81244   4.195   0.408   7.487 -0.9695  1.8355  0.2034
  602MOL0     H81245   4.326   0.471   7.598 -0.0909  0.2964  0.9980
  602MOL0     H81246   4.343   0.238   7.682 -0.5637 -0.3159 -0.0553
  602MOL0     H81247   4.406   0.276   7.515 -0.6864 -1.8463 -2.8613
  602MOL0     H81248   4.144   0.124   7.564  0.1700 -4.1821 -1.4411
  602MOL0     H81249   4.198   0.187   7.403 -0.4223  0.1364 -0.3839
  602MOL0     H81250   3.811   1.066   8.054 -0.1033  0.1057  0.3772
  602MOL0     H81251   3.580   1.154   8.047  1.4299  0.7547 -0.3363
  602MOL0     H81252   3.282   1.488   7.889  1.2531 -0.5021 -2.7493
  602MOL0     H81253   3.058   1.567   7.827 -3.5730  0.4321 -1.1016
  602MOL0     H81254   1.357   1.653   6.550 -1.2420 -0.2229 -0.4887
  602MOL0     H81255   1.124   1.620   6.523  1.0143 -1.7370 -2.5436
  602MOL0     H81256   0.758   1.589   6.280 -1.2337  0.8127 -1.3885
  602MOL0     H81257   0.533   1.570   6.252 -2.0291  1.9484  2.5684
  602MOL0     H81258   0.335   1.430   6.202  0.4207 -0.7810  0.0201
  602MOL0     H81259   0.281   1.575   6.300 -0.4354  0.5693 -2.2410
  602MOL0     H81260   0.085   1.434   6.364 -1.2340 -0.8378 -0.0045
  602MOL0     H81261   0.149   1.301   6.254  0.2467 -0.1257  1.8057
  602MOL0     H81262   0.060   1.580   6.189  0.2513  0.7185 -1.4718
  602MOL0     H81263  -0.036   1.431   6.165 -0.6615  3.4735 -5.9325
  602MOL0     H81264   0.200   1.502   5.996  1.9661 -1.9737  1.9924
  602MOL0     H81265   0.144   1.353   6.025  1.4939  0.0146  0.7948
  602MOL0     H81266  -0.155   1.527   5.765  1.3337  1.1210 -0.2828
  602MOL0     H81267   0.502   1.287   6.573  1.3389 -2.2858 -0.1982
  602MOL0     H81268   0.808   1.345   6.719  0.9958 -2.5328  1.4140
  602MOL0     H81269   0.686   1.218   6.692  0.1953 -0.5925 -1.3542
  602MOL0     H81270   0.836   1.215   6.602  0.8300  0.1327  0.5510
  603MOL0     O81271   3.404   3.298   9.925  0.4196  0.0201  0.4230
  603MOL0     C81272   3.364   3.315  10.043 -0.0347 -0.4139  0.2498
  603MOL0     O81273   3.449   3.332  10.150 -0.4867 -0.3993 -0.3800
  603MOL0     C81274   3.580   3.362  10.139  0.2389 -0.3361  0.2916
  603MOL0     C81275   3.671   3.268  10.094  0.1275  0.3722 -0.1772
  603MOL0     C81276   3.806   3.307  10.070 -0.4789  0.6944 -0.6761
  603MOL0     C81277   3.845   3.446  10.087 -0.0678  0.5788  0.6462
  603MOL0     O81278   3.967   3.506  10.045  0.5299  0.1425  0.2067
  603MOL0     C81279   4.063   3.425   9.975  0.3855 -0.2388 -0.0239
  603MOL0     C81280   4.179   3.514   9.944  0.5225  0.2157  0.2094
  603MOL0     C81281   4.139   3.609   9.826  0.3352  0.3013 -0.0270
  603MOL0     C81282   4.258   3.696   9.778 -0.8308 -0.6149 -0.1328
  603MOL0     C81283   4.221   3.784   9.658  0.7251 -0.3503  0.6554
  603MOL0     C81284   4.345   3.858   9.597 -0.4234  0.6574 -0.0260
  603MOL0     C81285   4.411   3.967   9.685 -0.0337 -1.3627  0.0539
  603MOL0     C81286   4.315   4.073   9.741 -0.4279 -0.3861 -0.3855
  603MOL0     N81287   4.403   4.174   9.797  0.0132 -0.3328 -0.2560
  603MOL0     C81288   4.454   4.286   9.729 -1.2119  0.5423  0.0242
  603MOL0     C81289   4.541   4.337   9.807  0.0226  0.5754 -0.4473
  603MOL0     C81290   4.629   4.449   9.768  0.0150  0.5931 -0.3873
  603MOL0     C81291   4.754   4.415   9.681  0.2690 -0.3371  1.2307
  603MOL0     C81292   4.806   4.534   9.609 -0.0055 -0.2879  0.3020
  603MOL0     C81293   4.923   4.497   9.509  0.0416  0.3478 -0.2267
  603MOL0     O81294   4.997   4.612   9.493  0.4371 -0.0261  0.2884
  603MOL0     C81295   5.130   4.583   9.468  0.4190  1.1932  0.0855
  603MOL0     C81296   5.160   4.484   9.362 -0.2450  0.0345 -1.1530
  603MOL0     C81297   5.292   4.459   9.334  1.2881  0.8047 -0.3750
  603MOL0     C81298   5.393   4.521   9.408 -1.4344  0.1462 -0.0361
  603MOL0     C81299   5.532   4.505   9.365 -0.7453 -0.1362 -0.5326
  603MOL0     O81300   5.611   4.614   9.376 -0.0234 -0.3362 -0.6571
  603MOL0     C81301   5.747   4.609   9.335  0.1464 -0.0218 -0.0580
  603MOL0     C81302   5.835   4.510   9.386 -0.4051  0.2672 -0.1352
  603MOL0     C81303   5.964   4.494   9.349 -0.5903  0.0557  0.6407
  603MOL0     C81304   6.019   4.575   9.245 -0.2257  0.2312  0.4496
  603MOL0     O81305   6.147   4.570   9.201 -0.2216  0.1907 -0.5462
  603MOL0     C81306   6.248   4.488   9.257 -0.6080  0.5071 -0.1200
  603MOL0     C81307   6.384   4.546   9.221 -0.4089 -1.3242 -0.0751
  603MOL0     C81308   6.505   4.451   9.250 -0.5124  0.4406 -0.7460
  603MOL0     C81309   6.637   4.535   9.239 -0.6778  0.4047 -0.2259
  603MOL0     C81310   6.674   4.540   9.089 -0.1683 -0.5099 -0.7400
  603MOL0     C81311   6.790   4.639   9.062 -0.5050  0.5951 -0.0848
  603MOL0     C81312   6.913   4.594   9.137 -0.6270 -0.6954 -0.5672
  603MOL0     C81313   7.026   4.689   9.102 -0.1136 -0.1710  0.6753
  603MOL0    Cl81314   7.067   4.766   9.257  0.3042  0.1876 -0.4493
  603MOL0     C81315   5.933   4.684   9.195 -0.2962  0.3533 -0.0182
  603MOL0     C81316   5.797   4.694   9.239  0.1811  0.7107 -0.7193
  603MOL0     O81317   5.565   4.405   9.307  0.4455 -0.0771 -0.2411
  603MOL0     C81318   5.363   4.617   9.501 -0.0915 -0.1962  0.6236
  603MOL0     C81319   5.231   4.654   9.529 -0.7101 -0.1848 -0.2920
  603MOL0     N81320   4.522   4.280   9.938  0.5280 -0.1842 -0.2271
  603MOL0     N81321   4.430   4.184   9.928 -0.3139  0.3029  0.4114
  603MOL0     C81322   3.753   3.529  10.148  0.5194 -0.0110 -0.0692
  603MOL0     C81323   3.618   3.497  10.165  0.2925 -0.5284 -0.3989
  603MOL0     C81324   3.220   3.336  10.071  0.3392 -0.3389 -0.1248
  603MOL0     C81325   3.188   3.315  10.209  0.4052 -0.0492  0.7300
  603MOL0     C81326   3.054   3.303  10.243 -0.3682  0.1914 -0.2890
  603MOL0     C81327   2.942   3.324  10.157 -1.0292 -0.9249  0.1426
  603MOL0     O81328   2.813   3.318  10.202  0.3505  0.6262 -0.5914
  603MOL0     C81329   2.702   3.336  10.104  0.3118 -0.0150  0.0564
  603MOL0     C81330   2.577   3.328  10.181 -0.1968 -0.3125 -0.1255
  603MOL0     C81331   2.456   3.391  10.124  0.5391  0.6315 -0.6132
  603MOL0     C81332   2.381   3.317  10.014 -0.1570 -0.6171  0.7065
  603MOL0     C81333   2.260   3.391   9.975 -0.0160  0.3560 -0.2411
  603MOL0     C81334   2.150   3.438   9.952 -0.5555  0.0340 -0.1173
  603MOL0     C81335   2.977   3.349  10.017 -0.4211  1.1818 -0.6726
  603MOL0     C81336   3.116   3.347   9.973  0.3817  1.1982 -0.2234
  603MOL0     C81337   3.145   3.362   9.824 -0.5838 -0.8900 -0.0692
  603MOL0     H81338   3.635   3.169  10.065  1.7048  0.1297 -1.4505
  603MOL0     H81339   3.872   3.244  10.011  0.4250  3.1625 -2.4674
  603MOL0     H81340   4.108   3.346  10.036 -1.5282 -2.1373 -0.9258
  603MOL0     H81341   4.019   3.375   9.889 -3.9267 -0.4021  2.0340
  603MOL0     H81342   4.265   3.458   9.906 -0.5527  0.0860 -2.1971
  603MOL0     H81343   4.212   3.576  10.028  0.8449 -0.2156  0.4096
  603MOL0     H81344   4.082   3.689   9.874  0.2395  0.7331 -0.8399
  603MOL0     H81345   4.091   3.558   9.741  1.6546 -2.2087  0.6408
  603MOL0     H81346   4.311   3.747   9.859  0.2521  0.4738 -1.4705
  603MOL0     H81347   4.333   3.625   9.743 -0.5763  0.4395 -1.8539
  603MOL0     H81348   4.185   3.734   9.568 -0.0265  1.3059 -0.0018
  603MOL0     H81349   4.143   3.851   9.695  1.3887  0.4134  0.6820
  603MOL0     H81350   4.421   3.782   9.575 -0.6946  0.5836 -0.7378
  603MOL0     H81351   4.313   3.900   9.502  2.4961  1.1953 -0.8578
  603MOL0     H81352   4.495   4.012   9.631 -0.1583 -1.5612 -0.3068
  603MOL0     H81353   4.463   3.912   9.764  2.2732  0.5532 -0.0070
  603MOL0     H81354   4.256   4.114   9.659 -0.7246 -0.3355 -0.1450
  603MOL0     H81355   4.252   4.038   9.823  2.2549 -1.4249  1.3984
  603MOL0     H81356   4.437   4.328   9.630  0.3929 -0.1703 -0.5796
  603MOL0     H81357   4.569   4.515   9.704  1.0051  0.2806 -1.6902
  603MOL0     H81358   4.672   4.501   9.854  0.5434  2.2214 -1.5766
  603MOL0     H81359   4.833   4.376   9.746  1.1107 -1.6435 -0.5011
  603MOL0     H81360   4.722   4.334   9.615 -2.0915 -1.5666  3.6774
  603MOL0     H81361   4.837   4.614   9.678  0.4127 -0.3039  0.1381
  603MOL0     H81362   4.725   4.575   9.548  0.7434 -0.0584 -0.5684
  603MOL0     H81363   4.878   4.462   9.416 -1.8017  1.4425  0.2000
  603MOL0     H81364   4.984   4.417   9.553  0.8089  0.6070 -0.7874
  603MOL0     H81365   5.078   4.441   9.305 -1.1351 -1.1191  0.8734
  603MOL0     H81366   5.315   4.390   9.253 -0.2796  0.3495 -0.4748
  603MOL0     H81367   5.803   4.446   9.467  1.8526  0.2819  0.8667
  603MOL0     H81368   6.032   4.428   9.400 -0.3010 -1.9022 -2.0876
  603MOL0     H81369   6.243   4.494   9.366  1.3657  2.6054 -0.0571
  603MOL0     H81370   6.232   4.389   9.213  0.1210  0.4214 -0.2090
  603MOL0     H81371   6.386   4.573   9.115 -1.6574 -0.0921  0.1900
  603MOL0     H81372   6.397   4.641   9.273  1.3403 -1.6409  0.1489
  603MOL0     H81373   6.479   4.411   9.349 -1.1640  1.9637 -0.2688
  603MOL0     H81374   6.510   4.366   9.181 -1.7993  2.0580 -2.9688
  603MOL0     H81375   6.713   4.478   9.294 -0.9041 -0.4447 -0.7796
  603MOL0     H81376   6.630   4.634   9.285 -1.1305  0.1705  0.2269
  603MOL0     H81377   6.589   4.581   9.034 -2.8181 -1.3178  2.4577
  603MOL0     H81378   6.709   4.442   9.055 -0.7128 -0.6702 -0.8506
  603MOL0     H81379   6.811   4.643   8.955  0.1256  1.7051  0.0664
  603MOL0     H81380   6.769   4.740   9.097  0.0340  0.4972  0.5289
  603MOL0     H81381   6.946   4.491   9.118 -2.5784 -0.9647 -2.7931
  603MOL0     H81382   6.890   4.601   9.244 -4.2176  1.9901 -1.3592
  603MOL0     H81383   7.120   4.647   9.066  1.6793  3.3778  0.8130
  603MOL0     H81384   7.005   4.764   9.024  2.4623  1.0476  1.0373
  603MOL0     H81385   5.980   4.746   9.120  2.4840 -1.7142 -0.1649
  603MOL0     H81386   5.732   4.773   9.203 -1.2459  0.0778  0.3728
  603MOL0     H81387   5.439   4.674   9.554  0.6588  1.7293 -2.2720
  603MOL0     H81388   5.211   4.736   9.596  0.1434  1.8233 -2.3628
  603MOL0     H81389   3.784   3.630  10.175 -2.0313  0.2434  2.2955
  603MOL0     H81390   3.551   3.569  10.210  0.0504 -0.2614 -1.1613
  603MOL0     H81391   3.253   3.292  10.292 -2.6690  0.7729  3.5989
  603MOL0     H81392   3.032   3.275  10.346  3.5317 -0.5267  0.4808
  603MOL0     H81393   2.686   3.268  10.020  0.0565  0.0405  0.0580
  603MOL0     H81394   2.703   3.438  10.064  0.4627 -0.2142 -0.4573
  603MOL0     H81395   2.594   3.388  10.272 -0.2100  0.5459 -0.6769
  603MOL0     H81396   2.547   3.225  10.200  1.5901 -0.9544 -0.6540
  603MOL0     H81397   2.473   3.495  10.093  0.0938 -0.2935 -4.4329
  603MOL0     H81398   2.387   3.399  10.209  1.2330 -2.0645  0.3112
  603MOL0     H81399   2.455   3.313   9.934 -0.0676 -0.5437  0.7862
  603MOL0     H81400   2.360   3.214  10.045  0.4356 -1.1483 -0.5892
  603MOL0     H81401   2.052   3.477   9.936 -0.8164 -0.9179 -0.9253
  603MOL0     H81402   2.900   3.358   9.941 -2.3668  0.9795  1.1891
  603MOL0     H81403   3.207   3.279   9.788  3.3069  0.2311  3.3459
  603MOL0     H81404   3.060   3.376   9.757 -0.2499 -2.2208 -0.7950
  603MOL0     H81405   3.195   3.459   9.814  1.4354 -1.9639 -0.8428
  604MOL0     O81406  10.137   3.709  10.070 -0.1052 -0.3459 -0.2454
  604MOL0     C81407  10.053   3.630  10.116 -0.3799  0.4766 -0.6858
  604MOL0     O81408  10.089   3.509  10.170 -0.5499 -0.4313  0.0527
  604MOL0     C81409  10.222   3.483  10.207 -0.8799 -0.1661 -0.0992
  604MOL0     C81410  10.323   3.475  10.109 -0.3558 -0.9562  0.2963
  604MOL0     C81411  10.459   3.452  10.139  0.4201 -0.1855 -0.4026
  604MOL0     C81412  10.498   3.423  10.267  0.9463 -0.6623 -0.4520
  604MOL0     O81413  10.631   3.387  10.304  0.3679 -0.1335 -0.1776
  604MOL0     C81414  10.643   3.304  10.420  0.1371  0.1272  0.1875
  604MOL0     C81415  10.784   3.244  10.429 -0.8059 -0.3117  0.2176
  604MOL0     C81416  10.833   3.192  10.291  0.1952  0.5601  0.5725
  604MOL0     C81417  10.946   3.092  10.301  0.1972  0.2047 -0.2816
  604MOL0     C81418  10.998   3.054  10.163  0.2611  0.1197 -0.4591
  604MOL0     C81419  11.089   2.927  10.171  0.1915 -0.6014 -0.7293
  604MOL0     C81420  11.213   2.941  10.259  0.4009 -0.3442 -0.0470
  604MOL0     C81421  11.312   3.044  10.213  0.2196 -0.1728 -0.6199
  604MOL0     N81422  11.434   3.036  10.282 -0.3640 -0.3718  0.0425
  604MOL0     C81423  11.524   2.932  10.248  0.5627 -0.7989  0.3783
  604MOL0     C81424  11.617   2.949  10.345  0.0523  0.7968 -0.1088
  604MOL0     C81425  11.743   2.864  10.345 -0.9021  0.2302 -0.3612
  604MOL0     C81426  11.868   2.930  10.408  0.3305  0.0885 -0.1735
  604MOL0     C81427  11.987   2.833  10.390  0.2852 -0.3085 -0.2568
  604MOL0     C81428  12.113   2.884  10.450  0.1850  0.1852  0.0312
  604MOL0     O81429  12.215   2.786  10.446  0.0754  0.6772  0.2188
  604MOL0     C81430  12.338   2.825  10.492 -0.7111  0.3270 -0.1181
  604MOL0     C81431  12.458   2.760  10.456  0.1577 -0.2336  0.8266
  604MOL0     C81432  12.582   2.796  10.500 -1.1002 -0.0041 -0.0721
  604MOL0     C81433  12.596   2.899  10.588 -0.8211  1.0945  0.4130
  604MOL0     C81434  12.739   2.949  10.611  1.1869  0.1280 -1.0359
  604MOL0     O81435  12.839   2.873  10.564 -0.5135 -0.7299  0.1592
  604MOL0     C81436  12.961   2.925  10.602 -0.0649  0.5202  0.7241
  604MOL0     C81437  13.019   2.896  10.722  0.9033  0.5029 -0.4733
  604MOL0     C81438  13.153   2.918  10.751 -0.1007  0.6257 -0.3483
  604MOL0     C81439  13.233   2.965  10.649 -0.0364  0.2717  0.0215
  604MOL0     O81440  13.365   2.966  10.675 -0.4545  0.0429  0.1170
  604MOL0     C81441  13.440   2.858  10.611 -0.4786  0.9768  0.2944
  604MOL0     C81442  13.533   2.787  10.716  0.3102  0.2480  1.1501
  604MOL0     C81443  13.684   2.802  10.684  0.0505  0.5468 -0.2512
  604MOL0     C81444  13.763   2.818  10.812  0.0344  0.0279 -0.1939
  604MOL0     C81445  13.920   2.843  10.786  0.1528 -0.3637  0.3453
  604MOL0     C81446  13.988   2.852  10.923 -0.3923 -0.7233  0.9029
  604MOL0     C81447  14.139   2.855  10.907  0.0408 -0.0891  0.1553
  604MOL0     C81448  14.187   2.991  10.842  0.0753  0.5833 -0.0881
  604MOL0    Cl81449  14.362   2.989  10.859  0.0224  0.3494 -0.0235
  604MOL0     C81450  13.185   2.988  10.518  0.5035  1.4505  0.2728
  604MOL0     C81451  13.047   2.966  10.494  0.0160  0.4182 -0.1141
  604MOL0     O81452  12.749   3.052  10.684 -0.7304 -0.4292  0.4317
  604MOL0     C81453  12.485   2.963  10.629  0.2157  0.2166  0.2285
  604MOL0     C81454  12.355   2.925  10.588 -0.3523  0.0971  0.6964
  604MOL0     N81455  11.582   3.053  10.427  0.4512 -0.3034 -0.0590
  604MOL0     N81456  11.467   3.103  10.395 -0.6322 -0.3235 -0.8347
  604MOL0     C81457  10.391   3.436  10.370 -0.0638 -0.7233  0.4538
  604MOL0     C81458  10.264   3.468  10.341 -0.3615  0.9271 -0.2084
  604MOL0     C81459   9.913   3.664  10.097 -0.4947 -0.2380  0.3222
  604MOL0     C81460   9.822   3.575  10.033 -0.4195  0.5673 -0.0209
  604MOL0     C81461   9.687   3.588  10.029  0.9694  0.4235 -0.1851
  604MOL0     C81462   9.626   3.706  10.079  0.0146  0.6459 -0.2967
  604MOL0     O81463   9.487   3.710  10.084  0.0213 -0.1836  0.0031
  604MOL0     C81464   9.429   3.825  10.144 -0.5406 -0.1494  0.1762
  604MOL0     C81465   9.429   3.811  10.302  0.5222 -0.0367  0.2973
  604MOL0     C81466   9.373   3.678  10.353 -0.1114  0.0131  0.2818
  604MOL0     C81467   9.225   3.655  10.312  0.1657 -0.8191  0.4675
  604MOL0     C81468   9.132   3.735  10.386 -0.4188  0.0353  0.7965
  604MOL0     C81469   9.043   3.782  10.458  0.1930  0.2633 -0.2469
  604MOL0     C81470   9.712   3.800  10.137 -0.1605 -0.5974 -0.5793
  604MOL0     C81471   9.852   3.784  10.144  0.1101 -0.3460  0.3122
  604MOL0     C81472   9.932   3.894  10.212  0.8549  0.2536  0.4966
  604MOL0     H81473  10.305   3.488  10.003  1.3470  0.2681  0.1081
  604MOL0     H81474  10.536   3.440  10.064 -0.7008 -0.9401 -1.4671
  604MOL0     H81475  10.614   3.366  10.506  0.0646 -0.0720  0.3062
  604MOL0     H81476  10.567   3.226  10.417  1.6083 -1.4685  1.7996
  604MOL0     H81477  10.787   3.160  10.499  0.0550 -2.3049 -2.0795
  604MOL0     H81478  10.856   3.316  10.469 -1.4216  0.1988  0.4272
  604MOL0     H81479  10.866   3.267  10.219  2.4139  1.1709  2.1062
  604MOL0     H81480  10.749   3.137  10.248  0.5028  0.5683 -0.0483
  604MOL0     H81481  11.034   3.130  10.354  2.2807 -3.5111 -0.6924
  604MOL0     H81482  10.918   3.006  10.362  0.5704  1.7076  2.1531
  604MOL0     H81483  10.919   3.031  10.091  0.9564 -1.5553 -0.7191
  604MOL0     H81484  11.064   3.134  10.127 -1.0609  1.0602 -0.8543
  604MOL0     H81485  11.030   2.842  10.209  0.3145  0.0450  1.0115
  604MOL0     H81486  11.127   2.908  10.071  2.4410 -1.5582  0.2462
  604MOL0     H81487  11.251   2.839  10.265 -0.1368 -0.5189  0.5967
  604MOL0     H81488  11.185   2.948  10.365 -1.0034  1.7025 -0.4983
  604MOL0     H81489  11.334   3.027  10.107  2.2642 -1.4215 -0.0393
  604MOL0     H81490  11.265   3.143  10.221 -1.6215 -1.1280  1.4003
  604MOL0     H81491  11.513   2.858  10.169 -0.1498 -0.6345  0.3181
  604MOL0     H81492  11.721   2.769  10.394 -1.6571 -0.1474 -1.4051
  604MOL0     H81493  11.759   2.837  10.240  1.3606 -0.7953  0.1816
  604MOL0     H81494  11.883   3.020  10.348 -2.6205  1.0181  0.3060
  604MOL0     H81495  11.858   2.956  10.514  1.9576 -3.0144  0.8434
  604MOL0     H81496  11.992   2.810  10.283 -0.6473  0.6677 -0.5224
  604MOL0     H81497  11.958   2.739  10.439 -0.9458 -0.2482 -0.8458
  604MOL0     H81498  12.091   2.927  10.548 -1.0251  0.3456 -0.2910
  604MOL0     H81499  12.157   2.965  10.391  3.0591 -1.2874 -0.0040
  604MOL0     H81500  12.454   2.688  10.374  0.9980  2.9484 -2.2610
  604MOL0     H81501  12.674   2.749  10.464 -0.5765  0.3293  0.7960
  604MOL0     H81502  12.965   2.850  10.805  2.9198  2.8327  2.3358
  604MOL0     H81503  13.189   2.906  10.853  1.3661 -4.2698 -1.1698
  604MOL0     H81504  13.376   2.777  10.574  1.3980  0.4322 -1.9772
  604MOL0     H81505  13.498   2.893  10.526 -1.9279  0.3782 -0.9916
  604MOL0     H81506  13.510   2.837  10.811  1.0429  1.3058  0.7864
  604MOL0     H81507  13.512   2.680  10.723  2.7928 -0.9030 -4.3431
  604MOL0     H81508  13.722   2.708  10.643  2.1524  0.8333  0.9180
  604MOL0     H81509  13.717   2.880  10.614 -0.5459  0.1443 -0.9887
  604MOL0     H81510  13.749   2.727  10.870 -0.8961  0.0133 -0.4282
  604MOL0     H81511  13.725   2.900  10.874 -0.4467  1.3221 -2.1090
  604MOL0     H81512  13.929   2.939  10.735 -1.5299  0.1536  0.9310
  604MOL0     H81513  13.962   2.765  10.722 -1.3690 -2.1109  1.3580
  604MOL0     H81514  13.945   2.944  10.963 -1.8272 -0.5186 -0.9515
  604MOL0     H81515  13.945   2.781  10.995 -2.1785  1.7471  2.4447
  604MOL0     H81516  14.185   2.779  10.843 -1.7846 -0.1972 -1.1018
  604MOL0     H81517  14.182   2.846  11.007 -1.3423  0.0679  0.7882
  604MOL0     H81518  14.169   3.013  10.736  1.6114 -1.2874 -0.8051
  604MOL0     H81519  14.137   3.075  10.890 -1.3847  0.6386 -1.5936
  604MOL0     H81520  13.248   3.026  10.437 -1.5466  3.2519 -0.5829
  604MOL0     H81521  13.016   2.984  10.392 -1.0171  2.0914  0.4706
  604MOL0     H81522  12.488   3.047  10.698  1.3777  0.7562 -0.4519
  604MOL0     H81523  12.269   2.970  10.635 -1.9606 -0.6526 -1.3779
  604MOL0     H81524  10.407   3.413  10.475  2.1814 -2.2703 -0.1562
  604MOL0     H81525  10.194   3.484  10.423  0.8333 -0.1069  1.0814
  604MOL0     H81526   9.868   3.483   9.998 -2.2973 -1.6626  2.9600
  604MOL0     H81527   9.617   3.515   9.990  0.1664  1.4174 -0.6644
  604MOL0     H81528   9.324   3.828  10.115 -0.2156 -0.8753 -1.1769
  604MOL0     H81529   9.478   3.914  10.104  0.1923 -0.9881 -0.8432
  604MOL0     H81530   9.362   3.885  10.348 -1.0176 -1.4830  0.5033
  604MOL0     H81531   9.525   3.831  10.350  0.2617  0.3819  0.6707
  604MOL0     H81532   9.375   3.686  10.462 -1.8194 -0.4612  0.3759
  604MOL0     H81533   9.433   3.589  10.330 -0.5498 -0.2665  0.2089
  604MOL0     H81534   9.211   3.682  10.207  1.5694  2.2859  0.9506
  604MOL0     H81535   9.202   3.549  10.320  0.0118 -1.0325 -2.0061
  604MOL0     H81536   8.963   3.808  10.524 -1.0456 -1.7987 -0.8217
  604MOL0     H81537   9.671   3.889  10.184  1.0435 -0.0515 -0.5241
  604MOL0     H81538  10.039   3.897  10.193  0.5953  0.5628 -1.0474
  604MOL0     H81539   9.897   3.985  10.162  0.4561 -0.5456 -0.7565
  604MOL0     H81540   9.901   3.911  10.315 -0.3194  2.4192 -0.1516
  605MOL0     O81541  10.685   9.047   1.024  0.4785  0.1806  0.2441
  605MOL0     C81542  10.608   9.020   0.927 -0.2103 -0.4491 -0.2990
  605MOL0     O81543  10.648   8.963   0.812 -0.0710  0.6294  0.4073
  605MOL0     C81544  10.786   8.943   0.796  0.7482 -0.2720 -0.3885
  605MOL0     C81545  10.853   8.852   0.878  0.2670  0.1092  0.0491
  605MOL0     C81546  10.988   8.831   0.856 -0.4142  0.9531 -0.0707
  605MOL0     C81547  11.060   8.886   0.745  0.4756  0.8386 -0.1820
  605MOL0     O81548  11.195   8.860   0.713  0.6091  0.0043  0.4479
  605MOL0     C81549  11.282   8.900   0.817  0.0316 -0.1271 -0.4793
  605MOL0     C81550  11.414   8.826   0.788  0.3050  0.2071 -0.3178
  605MOL0     C81551  11.521   8.853   0.905 -0.1834  0.0658 -0.0383
  605MOL0     C81552  11.652   8.780   0.859 -0.0576 -0.7650  0.5800
  605MOL0     C81553  11.757   8.766   0.967  0.4404 -0.7021 -0.6079
  605MOL0     C81554  11.824   8.904   0.992 -0.6321 -0.2592 -0.1912
  605MOL0     C81555  11.926   8.891   1.102 -0.6720 -0.3054 -0.2398
  605MOL0     C81556  12.006   9.027   1.121 -0.1190  0.4157 -0.4527
  605MOL0     N81557  12.149   9.000   1.161 -0.4352 -0.4046  0.0465
  605MOL0     C81558  12.260   9.000   1.081  0.0323  0.5635  1.0466
  605MOL0     C81559  12.357   8.952   1.158 -0.6695  1.8374 -0.4395
  605MOL0     C81560  12.498   8.920   1.102 -0.5187  0.4645  0.6869
  605MOL0     C81561  12.596   8.992   1.190 -0.2644 -0.1560  0.2514
  605MOL0     C81562  12.736   9.011   1.124 -0.6293 -0.1171 -0.1021
  605MOL0     C81563  12.814   9.105   1.204  0.3507  0.0877 -0.2264
  605MOL0     O81564  12.948   9.110   1.161 -0.0652  1.2376  0.2298
  605MOL0     C81565  13.029   9.218   1.168  0.8356  0.1719 -0.0009
  605MOL0     C81566  13.163   9.196   1.183 -0.0584 -1.1711 -0.0049
  605MOL0     C81567  13.253   9.308   1.191  0.6114  0.5107  0.5134
  605MOL0     C81568  13.210   9.437   1.170  0.1912 -0.0310 -1.1692
  605MOL0     C81569  13.313   9.542   1.177  0.0566  0.4720 -0.0368
  605MOL0     O81570  13.264   9.674   1.192  0.2559 -0.0508  0.7106
  605MOL0     C81571  13.356   9.774   1.199 -0.5321  0.0788  0.5205
  605MOL0     C81572  13.366   9.873   1.098 -0.7198  0.1299  0.1053
  605MOL0     C81573  13.467   9.973   1.110  0.2134 -0.0960  0.2138
  605MOL0     C81574  13.558   9.975   1.207 -0.7927 -0.7574  0.4217
  605MOL0     O81575  13.651  10.076   1.201  0.1580 -0.6428  0.2489
  605MOL0     C81576  13.774  10.056   1.278  0.0888  0.6829  0.1834
  605MOL0     C81577  13.873  10.162   1.219 -0.2176 -0.9805  0.2693
  605MOL0     C81578  14.021  10.131   1.257 -0.1244  0.4551 -1.1279
  605MOL0     C81579  14.110  10.242   1.190  0.4734 -0.2429  0.1183
  605MOL0     C81580  14.253  10.222   1.227 -0.8715 -0.5326 -0.3524
  605MOL0     C81581  14.341  10.320   1.155 -0.1403  0.8362 -0.2221
  605MOL0     C81582  14.490  10.308   1.192  0.1071  0.5239  0.0808
  605MOL0     C81583  14.567  10.181   1.143 -0.9017 -0.2775  0.0902
  605MOL0    Cl81584  14.569  10.166   0.964  0.4978 -0.5439 -0.2586
  605MOL0     C81585  13.549   9.882   1.313  0.5912  0.7183 -0.2319
  605MOL0     C81586  13.452   9.779   1.303  0.2748  0.6759  0.3557
  605MOL0     O81587  13.432   9.513   1.174  0.3557 -0.0149  0.5525
  605MOL0     C81588  13.072   9.461   1.157  0.3616 -0.2178 -0.2152
  605MOL0     C81589  12.979   9.355   1.161  0.5882  0.0671  0.1523
  605MOL0     N81590  12.308   8.927   1.288  1.0004  0.5179 -0.2017
  605MOL0     N81591  12.181   8.946   1.275  0.0024 -0.9582  0.1770
  605MOL0     C81592  10.984   8.961   0.660  0.5493 -0.8125 -1.2832
  605MOL0     C81593  10.853   8.989   0.691 -0.0550 -0.1745 -0.0206
  605MOL0     C81594  10.463   9.079   0.933  0.2260  0.3296  0.6187
  605MOL0     C81595  10.356   8.995   0.914 -0.6903  0.6219  0.5759
  605MOL0     C81596  10.224   9.032   0.939  0.2346  0.1075  0.3920
  605MOL0     C81597  10.191   9.161   0.973 -0.3382  0.5229 -0.1439
  605MOL0     O81598  10.065   9.196   1.004 -0.4232 -0.0669 -0.1532
  605MOL0     C81599  10.009   9.305   0.923  0.0169  0.0393  0.2146
  605MOL0     C81600   9.992   9.431   0.999  0.4600  0.3411 -0.6310
  605MOL0     C81601   9.889   9.415   1.111 -0.3858 -0.6956 -1.0434
  605MOL0     C81602   9.851   9.549   1.166  0.9702 -0.0168  0.2293
  605MOL0     C81603   9.751   9.536   1.266  0.3478 -0.5936 -1.1141
  605MOL0     C81604   9.673   9.512   1.351 -0.9564 -0.9910  0.1226
  605MOL0     C81605  10.302   9.246   0.999 -0.3307  0.1243  1.1296
  605MOL0     C81606  10.435   9.215   0.970 -0.5252  0.1307 -0.0018
  605MOL0     C81607  10.541   9.319   0.994  0.1100  0.4306  0.2240
  605MOL0     H81608  10.803   8.804   0.961 -0.2206  0.5853  0.0349
  605MOL0     H81609  11.034   8.765   0.929 -3.8556 -1.1130  0.4550
  605MOL0     H81610  11.303   9.006   0.831  3.0593 -0.3789 -2.2798
  605MOL0     H81611  11.246   8.862   0.913  1.5395  0.0358  0.1850
  605MOL0     H81612  11.468   8.848   0.696  1.2698  1.4663  0.5300
  605MOL0     H81613  11.386   8.720   0.788  0.2314  0.2000 -1.7022
  605MOL0     H81614  11.495   8.811   1.002 -2.8787  0.0280 -0.7115
  605MOL0     H81615  11.545   8.959   0.898  0.4339 -0.1095 -0.9104
  605MOL0     H81616  11.631   8.687   0.804 -1.6139  0.2924 -0.7043
  605MOL0     H81617  11.686   8.856   0.788 -1.4435 -0.3736  0.2990
  605MOL0     H81618  11.728   8.722   1.063  1.9212  3.1944  1.8621
  605MOL0     H81619  11.836   8.702   0.927  0.9521  0.5743 -1.7108
  605MOL0     H81620  11.872   8.937   0.899 -1.6926  0.8889 -0.3690
  605MOL0     H81621  11.752   8.980   1.023  0.6963  1.7235 -1.6734
  605MOL0     H81622  11.997   8.810   1.081  0.2268  0.8843 -2.0442
  605MOL0     H81623  11.886   8.859   1.199  1.1601 -0.0489  0.6328
  605MOL0     H81624  12.004   9.086   1.029 -0.0922 -1.0800 -1.4586
  605MOL0     H81625  11.955   9.084   1.199 -1.6965 -2.2134  0.5600
  605MOL0     H81626  12.261   9.029   0.976 -0.2636  0.2613  0.9584
  605MOL0     H81627  12.518   8.813   1.105  0.4100  0.5882 -0.3350
  605MOL0     H81628  12.514   8.964   1.003 -0.5036  3.4552  1.8996
  605MOL0     H81629  12.560   9.093   1.208 -1.4404 -0.1295 -1.8938
  605MOL0     H81630  12.611   8.933   1.281  1.8592 -0.2640 -0.1141
  605MOL0     H81631  12.733   9.057   1.025 -0.5026 -2.3961 -1.2498
  605MOL0     H81632  12.795   8.919   1.112 -0.6987 -0.5532  2.2874
  605MOL0     H81633  12.814   9.052   1.299 -3.5043 -3.2225 -1.7834
  605MOL0     H81634  12.772   9.206   1.215  2.8869  1.0396  1.9385
  605MOL0     H81635  13.198   9.094   1.202  2.0161 -0.4117  0.5251
  605MOL0     H81636  13.358   9.281   1.200  0.8630  0.5946 -1.6564
  605MOL0     H81637  13.307   9.859   1.007  0.7643  1.1566 -1.0620
  605MOL0     H81638  13.466  10.055   1.039 -0.5089  0.5349  0.9278
  605MOL0     H81639  13.759  10.073   1.385 -0.2265  2.6722 -0.1376
  605MOL0     H81640  13.809   9.953   1.267 -1.1524  0.1396  0.9775
  605MOL0     H81641  13.853  10.172   1.112 -0.6455  0.3373  0.4494
  605MOL0     H81642  13.835  10.252   1.268 -3.5084 -3.2334  2.3322
  605MOL0     H81643  14.013  10.132   1.366 -0.0571  0.9769 -1.1245
  605MOL0     H81644  14.056  10.036   1.216 -2.3203 -1.0292  0.2709
  605MOL0     H81645  14.065  10.339   1.214  1.5029  0.3537 -0.3164
  605MOL0     H81646  14.116  10.227   1.082  4.3984 -2.4271  0.4255
  605MOL0     H81647  14.290  10.126   1.192  1.3578  0.7783 -1.8263
  605MOL0     H81648  14.268  10.229   1.335 -0.2832 -0.7312 -0.4192
  605MOL0     H81649  14.323  10.311   1.048  0.3267 -0.1107 -0.2269
  605MOL0     H81650  14.303  10.418   1.186  2.6415  1.6846  0.8458
  605MOL0     H81651  14.495  10.320   1.301 -1.4271  0.2399  0.1953
  605MOL0     H81652  14.538  10.396   1.146 -0.2762 -0.1269 -1.6038
  605MOL0     H81653  14.672  10.184   1.172 -0.6602 -1.9751 -0.5048
  605MOL0     H81654  14.531  10.097   1.203 -0.4207  0.5681  1.6198
  605MOL0     H81655  13.619   9.879   1.397 -0.5002 -1.0493  0.6731
  605MOL0     H81656  13.452   9.699   1.376  2.3083 -0.4537 -0.7738
  605MOL0     H81657  13.052   9.567   1.143 -0.3174 -0.1543  1.1026
  605MOL0     H81658  12.876   9.366   1.130  0.7859 -0.2303 -0.6262
  605MOL0     H81659  11.043   9.007   0.581  0.7651  0.5383 -0.3723
  605MOL0     H81660  10.801   9.051   0.618  1.0225  2.9677  1.7169
  605MOL0     H81661  10.383   8.893   0.890 -1.0492  0.8817 -1.0009
  605MOL0     H81662  10.147   8.959   0.918  2.3272 -1.3756 -3.2397
  605MOL0     H81663   9.918   9.277   0.869  0.5656  0.9152 -1.2361
  605MOL0     H81664  10.071   9.326   0.835 -1.3251  3.4908 -0.0698
  605MOL0     H81665   9.958   9.512   0.934 -1.0596 -2.3629 -3.4705
  605MOL0     H81666  10.088   9.459   1.044  1.5360  2.1876 -3.7323
  605MOL0     H81667   9.927   9.353   1.192  0.5002  0.5900 -0.4378
  605MOL0     H81668   9.799   9.370   1.068 -0.6829 -1.0664 -0.0642
  605MOL0     H81669   9.944   9.588   1.208  1.4991 -1.7000  0.7046
  605MOL0     H81670   9.814   9.623   1.095  1.2415  0.5042  0.6323
  605MOL0     H81671   9.601   9.488   1.426 -0.9429  1.3884  0.9796
  605MOL0     H81672  10.292   9.343   1.048  0.1428  0.7795 -0.0044
  605MOL0     H81673  10.551   9.331   1.102 -0.0893 -0.1992  0.3172
  605MOL0     H81674  10.636   9.295   0.945  1.0399  2.0793  1.1548
  605MOL0     H81675  10.505   9.407   0.941 -0.4726  0.0421 -0.0462
  606MOL0     O81676   1.338   1.076   4.328  0.5056  0.3218  0.2866
  606MOL0     C81677   1.338   1.009   4.221 -0.2875 -0.3314  0.5892
  606MOL0     O81678   1.452   0.945   4.163 -0.4667 -0.4761 -0.0615
  606MOL0     C81679   1.584   0.980   4.197 -0.1317  0.8138 -0.0142
  606MOL0     C81680   1.625   1.072   4.297 -0.3754  0.0718 -0.5970
  606MOL0     C81681   1.761   1.081   4.326 -0.6712 -0.8897 -0.0136
  606MOL0     C81682   1.857   1.010   4.258  0.0792  0.4351  0.0991
  606MOL0     O81683   1.980   1.016   4.299 -0.2407 -0.1355 -0.8484
  606MOL0     C81684   2.023   0.882   4.340 -1.3406 -0.0409  0.3332
  606MOL0     C81685   2.157   0.893   4.422 -0.4137  0.0077 -0.4526
  606MOL0     C81686   2.265   0.975   4.347 -0.2474 -0.3402  0.5845
  606MOL0     C81687   2.415   0.935   4.382  0.3290 -0.0594 -0.9787
  606MOL0     C81688   2.518   1.008   4.301  0.2002  0.7150  0.5485
  606MOL0     C81689   2.533   1.159   4.341  1.0337  1.0600  0.7700
  606MOL0     C81690   2.653   1.220   4.267  0.3575  0.6797 -0.3549
  606MOL0     C81691   2.640   1.368   4.257 -0.2953  0.6489  0.2380
  606MOL0     N81692   2.618   1.442   4.378  0.8516  0.0844 -0.0138
  606MOL0     C81693   2.703   1.441   4.489  1.2851  0.2181 -0.1588
  606MOL0     C81694   2.638   1.504   4.584  0.0734 -0.0710  0.2919
  606MOL0     C81695   2.669   1.522   4.726 -0.1165 -0.4914 -0.1269
  606MOL0     C81696   2.817   1.565   4.748  0.0749  0.7200  0.0458
  606MOL0     C81697   2.852   1.701   4.705 -0.4423  0.1105  0.3797
  606MOL0     C81698   3.000   1.742   4.733  0.1723 -0.9780  0.0939
  606MOL0     O81699   3.006   1.884   4.690 -0.6057  0.5408 -0.3519
  606MOL0     C81700   3.128   1.945   4.680 -0.5308  0.1958  0.7679
  606MOL0     C81701   3.253   1.882   4.713  0.2906  0.1797  0.4325
  606MOL0     C81702   3.382   1.944   4.717 -0.2969  0.0703 -0.1122
  606MOL0     C81703   3.392   2.078   4.674 -0.1254  0.3513 -0.0707
  606MOL0     C81704   3.521   2.149   4.676 -0.1837  0.3560 -0.0242
  606MOL0     O81705   3.517   2.269   4.610 -0.2176  1.1319 -0.3346
  606MOL0     C81706   3.641   2.326   4.595 -0.4252 -0.0614  0.6270
  606MOL0     C81707   3.725   2.294   4.485 -0.6004 -0.0341  0.5452
  606MOL0     C81708   3.849   2.348   4.471 -0.0212  1.3065  0.1471
  606MOL0     C81709   3.896   2.449   4.564  0.8264  0.5426  0.5886
  606MOL0     O81710   4.021   2.499   4.559  0.0218 -0.2975 -0.1858
  606MOL0     C81711   4.138   2.439   4.505 -0.1188  0.5353 -0.2084
  606MOL0     C81712   4.258   2.499   4.574 -0.1875  1.4995 -0.6600
  606MOL0     C81713   4.392   2.446   4.525 -0.5837  0.2280 -0.1608
  606MOL0     C81714   4.526   2.498   4.600  0.0652 -0.5467  0.6708
  606MOL0     C81715   4.545   2.646   4.569  0.2455  1.0509  0.5480
  606MOL0     C81716   4.685   2.689   4.580 -0.1728  0.3683 -0.3573
  606MOL0     C81717   4.725   2.706   4.733 -0.1392  0.4151 -0.3517
  606MOL0     C81718   4.864   2.762   4.749 -0.6285 -0.0268 -0.5893
  606MOL0    Cl81719   4.988   2.637   4.726  0.4120  1.1457  0.0125
  606MOL0     C81720   3.808   2.487   4.670 -0.0411 -0.1059  0.2366
  606MOL0     C81721   3.686   2.428   4.683 -0.5247 -0.0208 -0.6572
  606MOL0     O81722   3.624   2.101   4.729 -0.1897  0.1133 -0.4747
  606MOL0     C81723   3.270   2.134   4.627 -0.5862 -0.1735  0.3083
  606MOL0     C81724   3.147   2.079   4.632  0.0123  0.0886 -0.0180
  606MOL0     N81725   2.517   1.541   4.534  0.0976  0.2780 -0.7119
  606MOL0     N81726   2.505   1.520   4.410  0.6487 -0.3865 -0.3150
  606MOL0     C81727   1.819   0.929   4.152 -0.6353 -0.7738 -0.1065
  606MOL0     C81728   1.682   0.908   4.124  0.2332  0.0800  0.0262
  606MOL0     C81729   1.211   0.994   4.150  1.1106  0.4219  0.1692
  606MOL0     C81730   1.213   0.908   4.040  0.4755  0.1101  0.6141
  606MOL0     C81731   1.103   0.880   3.964  0.4212 -0.1191 -0.3564
  606MOL0     C81732   0.977   0.923   4.008 -1.1243  0.3495 -0.4363
  606MOL0     O81733   0.861   0.886   3.961 -0.0991  0.4513  0.0008
  606MOL0     C81734   0.859   0.773   3.877 -0.2225 -0.3750  1.0822
  606MOL0     C81735   0.722   0.710   3.866 -0.7894  0.3095 -0.2970
  606MOL0     C81736   0.677   0.653   4.004 -0.6690  0.8604 -0.9830
  606MOL0     C81737   0.548   0.575   3.988 -0.5684  0.1400 -1.2683
  606MOL0     C81738   0.548   0.453   3.899  0.2381  1.1552  0.9817
  606MOL0     C81739   0.546   0.349   3.828 -0.4309  1.0710  0.5021
  606MOL0     C81740   0.977   1.014   4.117 -0.2878 -0.0542  0.5654
  606MOL0     C81741   1.089   1.046   4.189 -1.3598  0.9767 -0.5159
  606MOL0     C81742   1.064   1.102   4.327  0.4416 -0.5876 -0.6567
  606MOL0     H81743   1.571   1.144   4.357  1.6565  1.0937  0.0756
  606MOL0     H81744   1.790   1.148   4.406 -0.1725 -0.4554 -0.5518
  606MOL0     H81745   1.951   0.812   4.384 -0.6487 -1.4342 -0.6704
  606MOL0     H81746   2.047   0.826   4.249  2.8792 -1.1632  1.8794
  606MOL0     H81747   2.195   0.793   4.446  2.2833  1.0343 -0.0628
  606MOL0     H81748   2.144   0.942   4.519 -0.6006 -0.0332 -0.4557
  606MOL0     H81749   2.265   1.082   4.372  4.6057  0.0067 -0.0735
  606MOL0     H81750   2.254   0.967   4.239  2.4854  1.7621  0.0563
  606MOL0     H81751   2.430   0.963   4.487 -3.3379 -0.3012 -0.2706
  606MOL0     H81752   2.421   0.827   4.369 -2.7089 -0.2120 -1.8615
  606MOL0     H81753   2.606   0.949   4.329 -1.7212 -2.0291  1.3055
  606MOL0     H81754   2.492   0.997   4.196  1.4563 -1.2105  0.3880
  606MOL0     H81755   2.439   1.205   4.309 -0.3331 -2.3777 -0.6636
  606MOL0     H81756   2.546   1.168   4.450  0.7376  1.9284  0.7367
  606MOL0     H81757   2.672   1.181   4.166  1.8935 -1.6262  0.7498
  606MOL0     H81758   2.743   1.193   4.323  2.2537  3.3970 -1.8245
  606MOL0     H81759   2.734   1.410   4.218 -0.7418  1.9357  0.5222
  606MOL0     H81760   2.554   1.385   4.193  1.0830 -0.2822 -2.0106
  606MOL0     H81761   2.792   1.382   4.511 -0.2384 -1.7523  1.0555
  606MOL0     H81762   2.612   1.603   4.773 -0.4729 -1.1738  0.6356
  606MOL0     H81763   2.659   1.431   4.786  1.6967  0.4791  1.7793
  606MOL0     H81764   2.836   1.556   4.856 -1.0441 -3.8240  0.0773
  606MOL0     H81765   2.879   1.490   4.698  1.4110  1.5078  0.4760
  606MOL0     H81766   2.776   1.769   4.743 -0.0215  1.2349 -0.7303
  606MOL0     H81767   2.852   1.707   4.595  1.8284 -4.0252 -0.0936
  606MOL0     H81768   3.078   1.686   4.681  1.6636  1.0609 -0.0060
  606MOL0     H81769   3.018   1.738   4.841 -1.1861  1.2479  0.4884
  606MOL0     H81770   3.247   1.776   4.734  1.4239 -0.1396 -0.7136
  606MOL0     H81771   3.462   1.883   4.757 -1.6740 -1.2264  0.7848
  606MOL0     H81772   3.697   2.216   4.416  3.2534 -1.1009 -0.0278
  606MOL0     H81773   3.914   2.325   4.387  1.2976  0.5111  1.3400
  606MOL0     H81774   4.139   2.331   4.520  0.5579  0.6333  0.4432
  606MOL0     H81775   4.142   2.464   4.398 -0.2217  0.3027 -0.2673
  606MOL0     H81776   4.261   2.608   4.564 -1.1445  1.4558 -1.5432
  606MOL0     H81777   4.246   2.480   4.681 -0.2382 -0.4209 -0.9790
  606MOL0     H81778   4.393   2.338   4.541  1.7226  0.2655  0.3206
  606MOL0     H81779   4.401   2.464   4.418 -0.0756 -2.8908 -0.7502
  606MOL0     H81780   4.606   2.448   4.545  0.2805  1.6237 -1.1762
  606MOL0     H81781   4.528   2.480   4.707 -2.1140  2.4784  1.3610
  606MOL0     H81782   4.476   2.716   4.617 -1.2736 -1.6511  2.5801
  606MOL0     H81783   4.520   2.652   4.463 -3.2744 -0.4933  1.1552
  606MOL0     H81784   4.757   2.621   4.532  0.1163  1.6899 -1.8623
  606MOL0     H81785   4.705   2.788   4.538  2.2458  0.8140  1.5527
  606MOL0     H81786   4.724   2.613   4.790  2.3342 -1.1056 -2.5421
  606MOL0     H81787   4.653   2.778   4.774  1.1445  2.2724 -1.2307
  606MOL0     H81788   4.887   2.830   4.666  3.3613 -1.4003 -0.8262
  606MOL0     H81789   4.875   2.814   4.844 -2.9824 -0.7788  0.1505
  606MOL0     H81790   3.842   2.554   4.748 -2.4581  1.4870  0.0257
  606MOL0     H81791   3.626   2.479   4.758  3.0016  2.6254  0.6529
  606MOL0     H81792   3.284   2.237   4.594  1.4475 -1.1674 -2.2807
  606MOL0     H81793   3.063   2.138   4.595  1.1697  1.4926 -0.4989
  606MOL0     H81794   1.894   0.899   4.079  0.0885 -1.7157  0.9903
  606MOL0     H81795   1.654   0.842   4.043  0.1791 -1.5823  1.3248
  606MOL0     H81796   1.307   0.869   4.003  1.0000  0.6322  1.3792
  606MOL0     H81797   1.111   0.809   3.883  0.4257  1.9319 -2.2229
  606MOL0     H81798   0.913   0.692   3.927 -5.2824 -2.6085  3.6988
  606MOL0     H81799   0.900   0.789   3.777 -0.8427 -4.3419  0.0004
  606MOL0     H81800   0.714   0.636   3.785 -0.9977  0.4903 -0.4432
  606MOL0     H81801   0.642   0.781   3.842 -1.4322  0.0193  0.9350
  606MOL0     H81802   0.661   0.730   4.080  0.0912  0.4270 -0.3619
  606MOL0     H81803   0.750   0.588   4.054 -0.8835  0.7944 -0.7546
  606MOL0     H81804   0.522   0.541   4.089 -3.6178  0.7161 -1.7506
  606MOL0     H81805   0.470   0.642   3.951 -1.5585 -1.5311 -2.3442
  606MOL0     H81806   0.530   0.263   3.765  1.2219  0.1508  1.2870
  606MOL0     H81807   0.880   1.039   4.160 -0.4992  2.5461 -1.1874
  606MOL0     H81808   1.095   1.206   4.315  0.9536 -0.9500 -3.0583
  606MOL0     H81809   0.958   1.102   4.353  0.7795 -1.5721  0.9046
  606MOL0     H81810   1.119   1.044   4.402  0.4155 -4.1228 -3.1080
  607MOL0     O81811   2.123   2.161  10.196 -0.1577  0.4222  0.5826
  607MOL0     C81812   2.064   2.180  10.089 -0.4982  0.4077  0.7735
  607MOL0     O81813   2.110   2.254   9.985 -0.2389 -0.1551 -0.4984
  607MOL0     C81814   2.232   2.319  10.000  0.8488 -0.8664 -1.6983
  607MOL0     C81815   2.348   2.255   9.958  0.8141 -0.1566  1.4021
  607MOL0     C81816   2.467   2.316   9.970  0.4024  0.1278 -0.3766
  607MOL0     C81817   2.476   2.450  10.012  0.2042 -0.4592 -0.4795
  607MOL0     O81818   2.593   2.507  10.028  0.0988 -0.1130  0.5567
  607MOL0     C81819   2.674   2.558   9.922  0.3422 -0.8127  0.0577
  607MOL0     C81820   2.815   2.507   9.941  0.2250  0.3030  0.2033
  607MOL0     C81821   2.900   2.595  10.025 -0.4336 -1.1012 -0.5084
  607MOL0     C81822   3.031   2.517  10.054 -0.4299  0.2143 -0.3710
  607MOL0     C81823   3.120   2.586  10.167  0.2377 -0.6138  0.6112
  607MOL0     C81824   3.259   2.523  10.150 -0.5063 -0.1917  0.3945
  607MOL0     C81825   3.357   2.605  10.248  0.0756 -0.5197 -0.2610
  607MOL0     C81826   3.481   2.514  10.261 -0.2927  0.0213  0.0443
  607MOL0     N81827   3.589   2.557  10.350  0.8702 -0.2106  0.1715
  607MOL0     C81828   3.697   2.623  10.310 -0.1015  0.2095  0.8802
  607MOL0     C81829   3.755   2.657  10.425 -0.7064 -0.0648  0.3961
  607MOL0     C81830   3.877   2.746  10.434 -0.1985 -0.4388 -0.4332
  607MOL0     C81831   4.005   2.662  10.398  0.4473  0.2044 -0.5391
  607MOL0     C81832   4.052   2.585  10.517  0.3074 -0.1916  0.2871
  607MOL0     C81833   4.138   2.663  10.617 -0.0122  0.7029 -0.3831
  607MOL0     O81834   4.167   2.592  10.738 -0.4009 -0.6299 -0.1960
  607MOL0     C81835   4.277   2.515  10.752  1.6078  0.0065 -0.1122
  607MOL0     C81836   4.259   2.396  10.833 -0.7499  0.0216 -0.7406
  607MOL0     C81837   4.370   2.330  10.887  0.1059  0.0508  0.8061
  607MOL0     C81838   4.497   2.365  10.847 -0.1073  0.2156 -0.4582
  607MOL0     C81839   4.608   2.308  10.915 -0.0563  0.0657  0.4761
  607MOL0     O81840   4.723   2.381  10.909  0.7215  0.2127  0.3744
  607MOL0     C81841   4.817   2.345  11.007  0.5496 -0.3924  0.1583
  607MOL0     C81842   4.843   2.426  11.120 -0.1868 -0.0316 -0.4123
  607MOL0     C81843   4.942   2.378  11.209  0.8740  0.3046  0.2574
  607MOL0     C81844   5.010   2.257  11.187  0.8142 -0.3535 -0.2135
  607MOL0     O81845   5.087   2.221  11.289 -0.8694 -0.3318  0.8103
  607MOL0     C81846   5.167   2.097  11.284  0.0611  0.1238  0.8007
  607MOL0     C81847   5.304   2.146  11.229  0.9269 -0.7555 -0.1952
  607MOL0     C81848   5.422   2.047  11.234  0.3873  0.0063  0.7773
  607MOL0     C81849   5.436   1.978  11.099 -0.0345 -0.2403  0.0959
  607MOL0     C81850   5.522   2.069  10.999  0.8055  0.2758  0.2354
  607MOL0     C81851   5.677   2.064  11.038 -0.4756 -0.5079 -0.0301
  607MOL0     C81852   5.764   2.112  10.928  0.1083  0.3256 -0.1948
  607MOL0     C81853   5.917   2.107  10.963  0.1216  0.1378  0.9566
  607MOL0    Cl81854   6.027   2.158  10.827 -0.2435  0.4256  0.2846
  607MOL0     C81855   4.988   2.187  11.074  0.7969  0.6463  0.1381
  607MOL0     C81856   4.898   2.231  10.977  0.0320 -0.2464 -0.1934
  607MOL0     O81857   4.585   2.212  10.991  0.3596 -0.0947 -0.5087
  607MOL0     C81858   4.513   2.469  10.751  1.1088 -0.3440  0.4200
  607MOL0     C81859   4.407   2.549  10.719 -0.8460  0.4456 -0.3132
  607MOL0     N81860   3.668   2.619  10.530 -0.5698  1.1464  0.1764
  607MOL0     N81861   3.565   2.556  10.481  0.0028 -0.7575 -0.1665
  607MOL0     C81862   2.362   2.520  10.047 -0.0353 -0.4692  0.9867
  607MOL0     C81863   2.242   2.454  10.039  0.1878 -0.8616 -0.3089
  607MOL0     C81864   1.914   2.152  10.086 -1.0904  0.1683  0.2379
  607MOL0     C81865   1.827   2.241  10.015  0.3055 -0.0092 -0.0023
  607MOL0     C81866   1.687   2.221  10.006  0.2890  0.8733 -0.5418
  607MOL0     C81867   1.624   2.122  10.083  0.2860 -0.1659 -0.5218
  607MOL0     O81868   1.483   2.100  10.080 -0.9355 -0.5069  0.0148
  607MOL0     C81869   1.433   1.983  10.133 -0.1660 -0.8232 -0.5665
  607MOL0     C81870   1.290   1.957  10.073 -0.6902 -0.3495 -0.3790
  607MOL0     C81871   1.301   1.953   9.923  0.1081  0.6756 -0.1075
  607MOL0     C81872   1.163   1.918   9.867 -0.3678  0.4776 -0.4631
  607MOL0     C81873   1.058   2.009   9.922 -0.1821  0.0586 -0.2486
  607MOL0     C81874   0.978   2.069   9.988  0.1984  0.0427  0.0456
  607MOL0     C81875   1.709   2.033  10.150 -0.0526  0.3151 -0.0107
  607MOL0     C81876   1.853   2.039  10.148  1.0852 -0.0657  0.1289
  607MOL0     C81877   1.933   1.935  10.219  0.2866 -0.3642  0.4104
  607MOL0     H81878   2.343   2.147   9.949 -0.6465 -0.0057 -0.0954
  607MOL0     H81879   2.563   2.266   9.967  1.3947  1.9429 -0.7257
  607MOL0     H81880   2.639   2.523   9.824  1.4113  0.2290 -0.7141
  607MOL0     H81881   2.685   2.666   9.930 -0.6826 -0.1709 -4.2757
  607MOL0     H81882   2.856   2.489   9.842 -0.5660  3.4970 -0.7946
  607MOL0     H81883   2.807   2.414   9.999  0.3969 -0.1586 -0.5047
  607MOL0     H81884   2.864   2.627  10.124  2.8606 -1.5225  0.9910
  607MOL0     H81885   2.920   2.690   9.975  0.0196 -1.2605 -0.6399
  607MOL0     H81886   3.011   2.412  10.074 -0.3691  0.5342  1.5746
  607MOL0     H81887   3.084   2.519   9.958  0.7925  0.2334  0.2925
  607MOL0     H81888   3.112   2.694  10.148 -1.8356 -0.9524 -0.7491
  607MOL0     H81889   3.077   2.576  10.267 -0.2549 -0.2729  0.4383
  607MOL0     H81890   3.257   2.415  10.168  0.5505 -0.4830 -1.0671
  607MOL0     H81891   3.304   2.533  10.051 -0.9591  4.5449  0.4566
  607MOL0     H81892   3.309   2.627  10.344 -1.4072  1.3214 -1.3449
  607MOL0     H81893   3.384   2.700  10.201  2.2544 -0.5792  0.7688
  607MOL0     H81894   3.460   2.410  10.287  1.0602 -0.5503 -0.9666
  607MOL0     H81895   3.519   2.517  10.158 -2.4385  2.9642 -0.8004
  607MOL0     H81896   3.737   2.650  10.213  4.7464 -0.2063  2.4910
  607MOL0     H81897   3.866   2.834  10.370  0.2044  0.4673  0.7134
  607MOL0     H81898   3.876   2.782  10.537  1.3635  1.8792 -1.1559
  607MOL0     H81899   3.985   2.590  10.319 -2.1241 -2.0235  1.9131
  607MOL0     H81900   4.083   2.728  10.359 -2.0874  2.6747 -1.7459
  607MOL0     H81901   4.111   2.501  10.479  0.8554 -0.2232  1.1831
  607MOL0     H81902   3.971   2.529  10.567  0.8421 -0.8705  0.4110
  607MOL0     H81903   4.086   2.753  10.650  1.0809  1.0248  0.5595
  607MOL0     H81904   4.230   2.699  10.571  1.1612 -0.5390  0.8468
  607MOL0     H81905   4.156   2.371  10.858 -1.7804  2.0323 -2.6092
  607MOL0     H81906   4.360   2.251  10.961  0.5010 -1.5308 -0.7651
  607MOL0     H81907   4.808   2.527  11.135  2.2046  0.6730  1.0312
  607MOL0     H81908   4.959   2.440  11.297 -2.9237 -0.1673  1.5186
  607MOL0     H81909   5.188   2.046  11.378  0.7958 -1.8721 -0.3897
  607MOL0     H81910   5.123   2.019  11.221  1.0506  0.7336 -0.6821
  607MOL0     H81911   5.291   2.189  11.129  1.2958  0.8600  0.4068
  607MOL0     H81912   5.322   2.230  11.297  0.3759 -0.4270 -0.4430
  607MOL0     H81913   5.511   2.109  11.248 -0.2778  1.4661 -1.1228
  607MOL0     H81914   5.416   1.968  11.311 -0.4752  0.1365  0.8530
  607MOL0     H81915   5.334   1.953  11.068 -0.7259 -1.4434  3.0131
  607MOL0     H81916   5.495   1.888  11.118 -0.9349 -0.7218  0.7337
  607MOL0     H81917   5.485   2.172  11.005  1.5638  0.6125 -0.6084
  607MOL0     H81918   5.501   2.037  10.897 -3.6935 -1.1039  1.3988
  607MOL0     H81919   5.687   2.119  11.132 -1.8803 -1.1143  0.5104
  607MOL0     H81920   5.706   1.961  11.062  0.1922 -1.3194 -3.7082
  607MOL0     H81921   5.731   2.215  10.913 -1.3274 -0.1910 -0.7529
  607MOL0     H81922   5.746   2.050  10.839  2.1442 -0.6975  0.0432
  607MOL0     H81923   5.934   2.169  11.052 -0.3578 -0.3436  1.3908
  607MOL0     H81924   5.944   2.007  10.996  1.7369  0.6582  1.3078
  607MOL0     H81925   5.038   2.093  11.057 -2.3492 -0.9735 -1.0480
  607MOL0     H81926   4.901   2.189  10.877  0.7556 -3.0038  0.8960
  607MOL0     H81927   4.615   2.490  10.720  1.3252 -0.7530  0.8573
  607MOL0     H81928   4.423   2.640  10.662  0.8327 -0.3241 -1.1364
  607MOL0     H81929   2.377   2.625  10.069  2.1534 -0.3811 -0.6139
  607MOL0     H81930   2.155   2.514  10.064 -0.0130 -1.4649  0.5130
  607MOL0     H81931   1.865   2.331   9.968  0.3630 -0.8245 -1.5907
  607MOL0     H81932   1.617   2.277   9.944 -1.5022 -1.1917 -0.5129
  607MOL0     H81933   1.431   1.974  10.242 -1.1951  0.5006 -0.4437
  607MOL0     H81934   1.497   1.902  10.096  3.5113  2.1981 -1.4924
  607MOL0     H81935   1.232   2.045  10.103 -1.2352 -0.5720 -0.7640
  607MOL0     H81936   1.243   1.869  10.116  1.1955 -0.2043  2.2115
  607MOL0     H81937   1.364   1.869   9.894  0.1616  0.4332  0.6808
  607MOL0     H81938   1.334   2.046   9.876 -1.2351  0.8766 -0.7075
  607MOL0     H81939   1.155   1.925   9.758 -0.5589  3.2368 -0.3502
  607MOL0     H81940   1.129   1.816   9.886 -2.4274  1.2844  0.4555
  607MOL0     H81941   0.902   2.119  10.044  1.5086  2.0213  0.1675
  607MOL0     H81942   1.670   1.946  10.202 -0.1083 -0.2580 -0.9944
  607MOL0     H81943   1.969   1.855  10.154 -1.2847 -0.0298 -0.9301
  607MOL0     H81944   2.019   1.969  10.276  0.2319 -1.7768  1.3924
  607MOL0     H81945   1.866   1.895  10.295  0.0200 -1.5541 -0.4221
  608MOL0     O81946   6.489   2.394   2.043 -0.4600 -0.6335 -0.1546
  608MOL0     C81947   6.525   2.289   1.994  0.4068  0.2383 -0.7803
  608MOL0     O81948   6.649   2.259   1.945 -0.6616  1.1375 -0.5197
  608MOL0     C81949   6.747   2.353   1.949  0.4602  0.8214  0.5673
  608MOL0     C81950   6.824   2.349   1.831 -0.4440  0.4127  0.0112
  608MOL0     C81951   6.944   2.413   1.833 -1.1853 -0.7752  0.0557
  608MOL0     C81952   6.999   2.484   1.938 -0.1832  0.3374 -0.3898
  608MOL0     O81953   7.127   2.533   1.932  0.2226  0.0231 -0.3125
  608MOL0     C81954   7.136   2.639   1.834  0.6271 -0.5792 -0.0935
  608MOL0     C81955   7.285   2.651   1.802  0.5804 -0.3221 -0.4081
  608MOL0     C81956   7.366   2.712   1.916 -0.1697 -0.2083 -0.7073
  608MOL0     C81957   7.462   2.821   1.872 -1.1908 -0.5806  0.0455
  608MOL0     C81958   7.554   2.882   1.982 -0.3661 -0.3785  0.3124
  608MOL0     C81959   7.678   2.956   1.927 -0.1568  0.7470  0.1748
  608MOL0     C81960   7.738   3.040   2.040 -0.5020  0.0463 -0.9435
  608MOL0     C81961   7.843   3.140   1.980  0.1574  0.2076 -1.4990
  608MOL0     N81962   7.886   3.232   2.080 -0.0935  0.1162 -0.9957
  608MOL0     C81963   7.949   3.204   2.198 -0.3260 -0.3537 -0.0502
  608MOL0     C81964   7.960   3.322   2.262 -0.0742 -0.7849  0.6394
  608MOL0     C81965   8.018   3.345   2.398 -0.8782  0.3494 -0.5368
  608MOL0     C81966   7.923   3.285   2.508 -0.1627  0.0563  0.0080
  608MOL0     C81967   7.997   3.291   2.648 -0.0389 -0.5647 -0.4611
  608MOL0     C81968   8.019   3.431   2.705 -0.4767  0.1733  0.5986
  608MOL0     O81969   8.122   3.508   2.646  0.0318  0.8369  0.0556
  608MOL0     C81970   8.211   3.585   2.715 -0.0322  0.9275  0.6560
  608MOL0     C81971   8.289   3.663   2.632  0.0829  0.5579  0.6211
  608MOL0     C81972   8.385   3.749   2.682  1.0538  0.2871 -0.4262
  608MOL0     C81973   8.413   3.745   2.815  0.4416  0.0921 -0.4596
  608MOL0     C81974   8.521   3.835   2.868 -0.4522  0.1329 -0.0132
  608MOL0     O81975   8.526   3.852   3.000 -0.2534  0.4628  0.2311
  608MOL0     C81976   8.639   3.865   3.074  0.0885  0.1558 -1.1206
  608MOL0     C81977   8.760   3.824   3.021 -0.3505 -0.2439  0.0276
  608MOL0     C81978   8.871   3.812   3.100  0.2324  0.6831 -0.0370
  608MOL0     C81979   8.861   3.854   3.232  0.4506 -0.5014  0.2160
  608MOL0     O81980   8.977   3.825   3.302 -0.2820 -0.0246  0.3533
  608MOL0     C81981   9.091   3.893   3.253 -0.4133 -0.6501 -0.1702
  608MOL0     C81982   9.211   3.795   3.265  0.0594  0.0349 -0.3039
  608MOL0     C81983   9.343   3.871   3.274 -0.4557  0.8188  0.4902
  608MOL0     C81984   9.396   3.908   3.414  0.6927  0.1871  0.1177
  608MOL0     C81985   9.513   4.003   3.403  0.2379 -0.0856  0.3149
  608MOL0     C81986   9.590   4.037   3.532  0.2140 -0.3587  1.0352
  608MOL0     C81987   9.664   4.171   3.514  0.8844  0.3255  0.8777
  608MOL0     C81988   9.773   4.194   3.610  0.0427  0.0285  0.0122
  608MOL0    Cl81989   9.900   4.072   3.580 -0.0574  0.0378 -0.0102
  608MOL0     C81990   8.740   3.910   3.286 -0.5066  0.5179 -1.1807
  608MOL0     C81991   8.624   3.913   3.211 -0.2009  0.3028  0.1824
  608MOL0     O81992   8.595   3.891   2.788 -0.1483 -0.4158 -0.3236
  608MOL0     C81993   8.340   3.659   2.899 -0.3117  0.9740  0.4517
  608MOL0     C81994   8.242   3.585   2.846  0.8547  0.7198 -0.4396
  608MOL0     N81995   7.905   3.425   2.182  0.8285  0.7814 -0.7038
  608MOL0     N81996   7.866   3.362   2.075  0.7833 -0.0428 -0.2867
  608MOL0     C81997   6.921   2.492   2.053  0.2713 -0.4619  0.4259
  608MOL0     C81998   6.793   2.428   2.059 -0.2248  0.2052 -0.3705
  608MOL0     C81999   6.419   2.191   1.992 -0.1744 -0.1011 -0.0777
  608MOL0     C82000   6.463   2.064   1.951 -0.6555 -0.5150  0.0117
  608MOL0     C82001   6.376   1.959   1.936  0.4740 -0.2516  0.9879
  608MOL0     C82002   6.235   1.976   1.963 -0.4442  0.8033 -0.0475
  608MOL0     O82003   6.135   1.877   1.947 -0.0140  0.1397 -1.1415
  608MOL0     C82004   6.188   1.751   1.900  0.4673  0.0035 -0.5694
  608MOL0     C82005   6.077   1.656   1.877  0.9874  0.7796  0.1995
  608MOL0     C82006   5.975   1.637   1.996  0.4950 -0.3827  0.1514
  608MOL0     C82007   5.840   1.575   1.954  0.0265 -0.0334 -0.4348
  608MOL0     C82008   5.742   1.651   1.870 -0.4567 -0.3748  0.1204
  608MOL0     C82009   5.659   1.699   1.800  0.2081 -0.1300  0.2568
  608MOL0     C82010   6.197   2.097   2.020 -0.2545  0.3305 -0.1562
  608MOL0     C82011   6.285   2.202   2.040  0.5458  0.3631 -0.3158
  608MOL0     C82012   6.241   2.325   2.117 -0.2245  0.5032  0.9954
  608MOL0     H82013   6.792   2.295   1.743 -3.2955  0.6704  0.7831
  608MOL0     H82014   7.005   2.403   1.743 -2.0743  3.1389 -1.1557
  608MOL0     H82015   7.086   2.606   1.742  0.2216  0.0351 -0.0954
  608MOL0     H82016   7.100   2.737   1.866  1.0664  0.2571 -1.9949
  608MOL0     H82017   7.290   2.711   1.711 -1.8217 -0.7565 -0.8934
  608MOL0     H82018   7.339   2.560   1.774  0.5912 -0.7472  0.9370
  608MOL0     H82019   7.429   2.635   1.961  1.0135  1.2447  0.2222
  608MOL0     H82020   7.299   2.763   1.986  1.2317  1.9580 -0.8493
  608MOL0     H82021   7.533   2.776   1.801  3.0563  0.4042  3.2604
  608MOL0     H82022   7.415   2.910   1.829 -0.5170 -0.6038 -0.7687
  608MOL0     H82023   7.492   2.954   2.037 -0.7318 -1.1675  0.9621
  608MOL0     H82024   7.587   2.804   2.052  0.9612 -0.6740 -0.6076
  608MOL0     H82025   7.755   2.885   1.895  0.4098  1.2677  0.3651
  608MOL0     H82026   7.645   3.011   1.838 -0.1850 -2.3937 -1.9326
  608MOL0     H82027   7.781   2.964   2.106 -0.8016  1.1473  0.5499
  608MOL0     H82028   7.664   3.101   2.092  1.3542  3.3955 -1.9916
  608MOL0     H82029   7.929   3.083   1.943 -0.6300 -1.0243 -1.4766
  608MOL0     H82030   7.802   3.202   1.899 -0.1500  1.9222 -0.0748
  608MOL0     H82031   7.977   3.105   2.230 -0.7758 -1.2674 -2.3457
  608MOL0     H82032   8.112   3.290   2.403 -0.5403  0.9696  0.1170
  608MOL0     H82033   8.030   3.453   2.414 -3.0004  0.4424  0.8713
  608MOL0     H82034   7.830   3.341   2.514 -1.0744 -1.2985 -0.9719
  608MOL0     H82035   7.897   3.180   2.488 -0.7015  0.3139 -0.6595
  608MOL0     H82036   8.084   3.227   2.636  0.7142  0.6130 -1.5081
  608MOL0     H82037   7.929   3.246   2.721 -0.3565  1.5818  0.6674
  608MOL0     H82038   8.045   3.412   2.810 -1.2305  0.1148  0.7798
  608MOL0     H82039   7.929   3.494   2.702 -0.1283  0.6483 -0.3443
  608MOL0     H82040   8.259   3.667   2.528 -2.9944 -0.0398  1.3656
  608MOL0     H82041   8.447   3.814   2.620  2.5013 -0.2186  0.4254
  608MOL0     H82042   8.780   3.781   2.924 -0.4547 -1.5707  0.5770
  608MOL0     H82043   8.963   3.773   3.057 -2.2963 -0.6813 -4.9948
  608MOL0     H82044   9.082   3.930   3.151 -4.4876  0.3319  0.3697
  608MOL0     H82045   9.117   3.983   3.309  0.3869 -0.6700 -0.4969
  608MOL0     H82046   9.199   3.731   3.353  1.0516 -1.0151 -0.9090
  608MOL0     H82047   9.205   3.724   3.182 -0.2388  0.8253 -0.9762
  608MOL0     H82048   9.421   3.807   3.232 -2.7293 -2.0013  0.2711
  608MOL0     H82049   9.329   3.957   3.207 -1.4119 -0.7504 -1.4262
  608MOL0     H82050   9.431   3.814   3.458 -0.5166 -0.1769  0.3235
  608MOL0     H82051   9.316   3.948   3.476 -2.5438 -3.5102 -1.2499
  608MOL0     H82052   9.469   4.093   3.359  1.1191  0.5204  0.6468
  608MOL0     H82053   9.590   3.964   3.336  2.7134  2.0769  1.7326
  608MOL0     H82054   9.513   4.050   3.609 -1.4618  2.1613 -0.8776
  608MOL0     H82055   9.654   3.953   3.559 -0.6332 -0.5137  2.7396
  608MOL0     H82056   9.593   4.254   3.525  3.0230  3.0537 -3.2537
  608MOL0     H82057   9.690   4.174   3.408 -2.6554  0.8734 -0.1219
  608MOL0     H82058   9.802   4.296   3.583 -2.0045  0.3838 -0.9792
  608MOL0     H82059   9.735   4.207   3.711 -0.9450  0.1733 -0.3698
  608MOL0     H82060   8.719   3.927   3.391 -0.5581  1.0828 -1.2784
  608MOL0     H82061   8.529   3.931   3.261  0.1289  0.6127  0.7036
  608MOL0     H82062   8.371   3.635   3.001  1.6410 -1.0569 -0.5305
  608MOL0     H82063   8.188   3.518   2.912 -0.0681 -1.6613 -3.4086
  608MOL0     H82064   6.958   2.546   2.140  1.3710  1.0450 -0.9156
  608MOL0     H82065   6.739   2.430   2.153  0.5499 -0.8366  0.1121
  608MOL0     H82066   6.563   2.044   1.913 -1.6354 -0.0345 -3.0779
  608MOL0     H82067   6.420   1.870   1.893 -2.8941 -0.5501 -2.3787
  608MOL0     H82068   6.261   1.712   1.971  0.2929  0.1749 -0.2957
  608MOL0     H82069   6.239   1.762   1.804 -1.5359 -2.8732 -2.1110
  608MOL0     H82070   6.119   1.558   1.852  1.4485  1.2881 -1.1004
  608MOL0     H82071   6.020   1.688   1.790  0.4443 -1.6062 -0.4123
  608MOL0     H82072   5.960   1.732   2.048 -1.0411  0.1697 -1.2250
  608MOL0     H82073   6.028   1.571   2.066 -1.3018 -3.1099 -0.8973
  608MOL0     H82074   5.864   1.485   1.897  0.2885 -0.8146  0.8723
  608MOL0     H82075   5.790   1.542   2.046 -1.6338 -0.6375 -1.4946
  608MOL0     H82076   5.575   1.737   1.746  1.8947  2.1589 -0.9273
  608MOL0     H82077   6.096   2.108   2.058  0.8747 -0.5476  3.4953
  608MOL0     H82078   6.224   2.402   2.041 -0.5207  1.1805  1.7422
  608MOL0     H82079   6.149   2.310   2.174 -0.3269 -0.0713  0.6975
  608MOL0     H82080   6.311   2.355   2.195  0.2327  3.9658 -0.5851
  609MOL0     O82081   9.225  11.138   9.263  0.1833  0.0576  0.8101
  609MOL0     C82082   9.197  11.056   9.175 -0.6248  0.1812  0.0356
  609MOL0     O82083   9.281  11.015   9.073 -0.1376  0.5032  0.2970
  609MOL0     C82084   9.402  11.062   9.053 -0.4075 -0.1897  1.1684
  609MOL0     C82085   9.428  11.140   8.936  0.6087  0.2679  0.2378
  609MOL0     C82086   9.550  11.211   8.926  0.0435  0.3795  0.5012
  609MOL0     C82087   9.643  11.202   9.026  0.1049  0.0317  0.6063
  609MOL0     O82088   9.756  11.287   9.029  0.0854  0.3551 -0.7768
  609MOL0     C82089   9.880  11.226   9.059  0.6844  0.1326  0.7140
  609MOL0     C82090   9.991  11.322   9.023  0.2513 -0.0054  0.6360
  609MOL0     C82091  10.095  11.333   9.138  0.2265  0.5580 -0.4833
  609MOL0     C82092  10.188  11.448   9.121  0.0495  0.0756 -0.4352
  609MOL0     C82093  10.300  11.475   9.223  0.0925 -0.2509  0.0525
  609MOL0     C82094  10.386  11.347   9.255 -0.2939 -0.1412  0.1072
  609MOL0     C82095  10.489  11.367   9.367 -0.0035  1.0221 -0.9960
  609MOL0     C82096  10.576  11.242   9.373 -0.0309 -0.2501 -0.0731
  609MOL0     N82097  10.698  11.278   9.442  1.2002  0.0120 -0.0207
  609MOL0     C82098  10.725  11.259   9.573 -0.0138  0.1225  0.0474
  609MOL0     C82099  10.853  11.295   9.586 -0.0683 -0.1988  0.6911
  609MOL0     C82100  10.935  11.275   9.715 -0.6082  0.2621  0.0032
  609MOL0     C82101  11.063  11.195   9.682 -0.3638 -0.4815 -0.1648
  609MOL0     C82102  11.136  11.146   9.809  0.5087  0.7058  0.0616
  609MOL0     C82103  11.259  11.059   9.753 -0.6558  0.0996 -0.2711
  609MOL0     O82104  11.357  11.144   9.685  0.0782  0.4247  0.9403
  609MOL0     C82105  11.468  11.190   9.755 -0.1831 -0.6904  0.4257
  609MOL0     C82106  11.491  11.187   9.887  0.1798 -0.3990 -0.1256
  609MOL0     C82107  11.605  11.232   9.954 -0.1866  0.5108 -0.0192
  609MOL0     C82108  11.714  11.282   9.877  0.2455  0.0731  0.6352
  609MOL0     C82109  11.849  11.300   9.948 -0.5857 -0.8265 -0.0544
  609MOL0     O82110  11.941  11.230   9.877 -0.1788  0.5429 -0.0207
  609MOL0     C82111  12.072  11.243   9.918  0.5526 -0.2733  0.4624
  609MOL0     C82112  12.142  11.366   9.891  0.4877 -0.0716 -0.4023
  609MOL0     C82113  12.266  11.386   9.940 -0.1328 -0.0286  0.6637
  609MOL0     C82114  12.332  11.281  10.011 -0.8796 -0.6441 -0.2096
  609MOL0     O82115  12.454  11.294  10.061 -0.5374 -0.2235 -0.3028
  609MOL0     C82116  12.562  11.343   9.989  0.4169 -0.1340 -0.4351
  609MOL0     C82117  12.694  11.280  10.029  0.0061  0.9334  0.0336
  609MOL0     C82118  12.822  11.340   9.969  0.7600  0.3430 -0.6519
  609MOL0     C82119  12.947  11.269  10.021 -0.7688  1.0592  0.6701
  609MOL0     C82120  13.066  11.366  10.009 -0.6265  1.0266 -0.4658
  609MOL0     C82121  13.206  11.296  10.031  0.0160 -0.6125 -0.0079
  609MOL0     C82122  13.231  11.207   9.918 -0.0475  0.3896  0.9754
  609MOL0     C82123  13.337  11.099   9.937 -0.0058  0.4066 -0.3522
  609MOL0    Cl82124  13.510  11.169   9.951  0.0747  0.2171  0.4171
  609MOL0     C82125  12.268  11.156  10.028 -0.7443  0.5106 -0.7958
  609MOL0     C82126  12.137  11.142   9.982  0.8112  0.5464 -0.4274
  609MOL0     O82127  11.870  11.373  10.047  0.1264 -0.0487  0.2041
  609MOL0     C82128  11.695  11.292   9.735  0.0641  0.0678  1.2300
  609MOL0     C82129  11.576  11.245   9.681 -0.0020  0.4257 -1.0160
  609MOL0     N82130  10.907  11.322   9.467 -0.0086 -0.5406 -0.3612
  609MOL0     N82131  10.815  11.315   9.379  0.2405 -0.4837 -0.7898
  609MOL0     C82132   9.611  11.133   9.147  0.0415 -0.5072 -0.2545
  609MOL0     C82133   9.496  11.060   9.158  0.3999  0.3071  1.1951
  609MOL0     C82134   9.053  11.008   9.168  0.1617 -0.2189  0.5049
  609MOL0     C82135   9.028  10.923   9.056 -0.1684 -0.0703 -0.4361
  609MOL0     C82136   8.902  10.871   9.036 -0.0442 -0.2524 -0.2140
  609MOL0     C82137   8.797  10.915   9.115 -0.4424 -0.0526 -0.8721
  609MOL0     O82138   8.670  10.867   9.084  0.0791  0.4168 -0.0110
  609MOL0     C82139   8.549  10.881   9.160  0.9679 -0.1169  0.4777
  609MOL0     C82140   8.443  10.820   9.071  0.2184 -0.2112 -0.0746
  609MOL0     C82141   8.314  10.786   9.143 -0.0846 -0.6772  0.3018
  609MOL0     C82142   8.348  10.665   9.230  0.2678  0.1378  0.4055
  609MOL0     C82143   8.365  10.543   9.152 -0.3386 -0.4714  0.3410
  609MOL0     C82144   8.366  10.442   9.087 -0.3919  0.1156  0.0553
  609MOL0     C82145   8.819  10.999   9.224  1.6582 -0.2288  0.0772
  609MOL0     C82146   8.947  11.044   9.258  1.1777 -0.0155 -0.1084
  609MOL0     C82147   8.968  11.126   9.382 -0.1621  0.6346 -0.3708
  609MOL0     H82148   9.349  11.143   8.862  1.4729 -3.3205 -1.0603
  609MOL0     H82149   9.555  11.275   8.838  0.6306 -0.3933 -0.0383
  609MOL0     H82150   9.897  11.193   9.162  1.4844 -0.3370  0.4419
  609MOL0     H82151   9.882  11.131   9.005  3.0304  0.1988  0.5899
  609MOL0     H82152   9.958  11.422   8.992  1.2753 -0.4530 -2.2197
  609MOL0     H82153  10.038  11.296   8.928  0.9175 -0.3881  1.0665
  609MOL0     H82154  10.149  11.238   9.141 -1.2334 -0.4150 -2.8198
  609MOL0     H82155  10.044  11.354   9.233  1.1521 -2.3438  0.7532
  609MOL0     H82156  10.234  11.422   9.026 -1.1499 -2.4598 -0.4003
  609MOL0     H82157  10.124  11.537   9.121  0.1582  0.1723  0.5781
  609MOL0     H82158  10.371  11.548   9.183 -2.0697  2.6210  1.1431
  609MOL0     H82159  10.248  11.498   9.317  0.4331 -2.1088  0.7435
  609MOL0     H82160  10.325  11.262   9.287  0.8173 -0.4199  1.5781
  609MOL0     H82161  10.436  11.330   9.159 -0.5650  0.5981 -0.1754
  609MOL0     H82162  10.433  11.393   9.457 -3.1598  3.8073 -3.4741
  609MOL0     H82163  10.550  11.453   9.338  3.4433 -0.9062  0.0478
  609MOL0     H82164  10.528  11.167   9.436  0.2049  1.2986  2.0543
  609MOL0     H82165  10.599  11.198   9.276  1.8690  0.0651  0.1885
  609MOL0     H82166  10.667  11.216   9.654 -0.9624  1.1732 -0.0312
  609MOL0     H82167  10.960  11.377   9.748  1.7548  0.3911 -1.8591
  609MOL0     H82168  10.875  11.226   9.792  2.1442 -0.7087  1.6852
  609MOL0     H82169  11.027  11.112   9.620 -2.5016  0.7610 -0.6944
  609MOL0     H82170  11.124  11.254   9.613 -0.5989 -0.6588 -0.5267
  609MOL0     H82171  11.069  11.080   9.864 -0.2513  0.1633 -1.4485
  609MOL0     H82172  11.183  11.219   9.875  0.9626  1.4546 -1.0671
  609MOL0     H82173  11.229  10.983   9.681  0.3800  0.4548 -1.1063
  609MOL0     H82174  11.301  11.010   9.841 -0.4160 -0.8232 -0.8836
  609MOL0     H82175  11.410  11.147   9.948 -0.2832 -1.1560 -1.2170
  609MOL0     H82176  11.597  11.224  10.062 -1.5249  0.7288 -0.0806
  609MOL0     H82177  12.091  11.449   9.843 -1.2169 -0.2772  0.9567
  609MOL0     H82178  12.309  11.485   9.925  0.7560 -0.4469  0.3967
  609MOL0     H82179  12.554  11.328   9.881 -0.4011  0.1810 -0.4236
  609MOL0     H82180  12.564  11.450  10.008  1.0241  0.1779 -2.0523
  609MOL0     H82181  12.708  11.286  10.137  2.9670  0.8043 -0.2680
  609MOL0     H82182  12.696  11.174  10.002 -2.6027  1.3491 -2.2816
  609MOL0     H82183  12.817  11.331   9.860  0.7855  3.4544 -0.9986
  609MOL0     H82184  12.822  11.447   9.995 -0.0780 -0.1728  1.6928
  609MOL0     H82185  12.945  11.177   9.962 -0.3757  0.8376  0.9972
  609MOL0     H82186  12.939  11.234  10.124 -3.1646  0.6324  0.4135
  609MOL0     H82187  13.056  11.448  10.081  2.8133 -0.2274  1.6418
  609MOL0     H82188  13.063  11.396   9.904 -2.4253 -3.2861 -1.8777
  609MOL0     H82189  13.285  11.371  10.042  0.4824 -0.6314 -2.7318
  609MOL0     H82190  13.193  11.231  10.118  0.8770  0.1637  0.7212
  609MOL0     H82191  13.246  11.267   9.828 -2.2950 -1.6039 -0.8932
  609MOL0     H82192  13.143  11.144   9.900  1.5799 -1.7971  0.2934
  609MOL0     H82193  13.325  11.027  10.018  0.7676 -0.9321 -1.3777
  609MOL0     H82194  13.334  11.032   9.851  1.1909 -0.0049 -0.0932
  609MOL0     H82195  12.329  11.090  10.088  1.4103  2.7229 -0.4188
  609MOL0     H82196  12.085  11.049  10.000  0.7815  0.5937 -0.2629
  609MOL0     H82197  11.768  11.324   9.662 -1.2273  2.8988  1.0764
  609MOL0     H82198  11.570  11.232   9.574 -2.0220 -3.3276 -0.6232
  609MOL0     H82199   9.693  11.141   9.218  0.2848  1.8423 -0.7138
  609MOL0     H82200   9.483  10.999   9.247 -0.7357  2.0412  2.2938
  609MOL0     H82201   9.107  10.895   8.987  0.4830  3.6676 -1.4195
  609MOL0     H82202   8.881  10.799   8.958  1.7843  0.0809 -1.0465
  609MOL0     H82203   8.518  10.983   9.182  1.0393  0.5384 -2.1987
  609MOL0     H82204   8.561  10.826   9.255 -3.4551  1.2731  2.0917
  609MOL0     H82205   8.474  10.730   9.017 -1.0386 -0.5580 -0.2521
  609MOL0     H82206   8.422  10.895   8.994  0.9050  0.3958  0.3131
  609MOL0     H82207   8.229  10.765   9.079 -0.0812  1.8043 -0.6139
  609MOL0     H82208   8.278  10.876   9.194 -3.0425 -1.1969 -0.7170
  609MOL0     H82209   8.436  10.686   9.291 -1.7821 -0.1033  3.7282
  609MOL0     H82210   8.269  10.648   9.304 -1.4909 -1.0162 -1.6188
  609MOL0     H82211   8.390  10.361   9.020  0.6669  0.7454 -0.3527
  609MOL0     H82212   8.740  11.030   9.292  0.7119  1.2570 -1.6131
  609MOL0     H82213   9.009  11.226   9.364  1.6339  0.1079  0.6312
  609MOL0     H82214   8.867  11.135   9.423  0.6612  0.7451  1.7022
  609MOL0     H82215   9.027  11.088   9.465 -2.1172 -3.0504 -0.4632
  610MOL0     O82216   1.766   8.496   8.087  0.4165  0.4101 -0.0242
  610MOL0     C82217   1.824   8.603   8.084 -0.1906  0.3013 -0.7942
  610MOL0     O82218   1.847   8.682   7.975  0.0069 -1.1225  0.0406
  610MOL0     C82219   1.832   8.615   7.853 -0.4787 -0.2492  0.1865
  610MOL0     C82220   1.939   8.594   7.762  0.7322 -0.4964  0.4863
  610MOL0     C82221   1.919   8.525   7.646 -0.0519  0.6845  0.3483
  610MOL0     C82222   1.790   8.477   7.608 -1.3604 -0.0807 -1.1645
  610MOL0     O82223   1.792   8.436   7.476  0.3093  0.3390  0.1880
  610MOL0     C82224   1.668   8.427   7.405 -0.0021 -0.1246  0.3155
  610MOL0     C82225   1.688   8.436   7.256 -0.8032  0.1864  0.2585
  610MOL0     C82226   1.744   8.572   7.200 -0.1509 -0.3397  0.0552
  610MOL0     C82227   1.714   8.585   7.053 -0.3486 -0.2238  0.6574
  610MOL0     C82228   1.803   8.505   6.966 -0.1686  0.3037  0.3759
  610MOL0     C82229   1.725   8.459   6.834  0.2358  0.5844 -1.2783
  610MOL0     C82230   1.699   8.580   6.742  0.1166 -0.4052 -0.6949
  610MOL0     C82231   1.603   8.532   6.634 -0.0867 -0.3656  0.2135
  610MOL0     N82232   1.674   8.465   6.522 -0.1424 -0.3858  0.4599
  610MOL0     C82233   1.712   8.330   6.514 -0.4183 -0.2180  1.1601
  610MOL0     C82234   1.757   8.319   6.385 -0.3463  0.1229 -0.0961
  610MOL0     C82235   1.825   8.207   6.302  0.9884 -1.3436  0.0989
  610MOL0     C82236   1.979   8.220   6.297  0.0971 -0.4181 -1.1313
  610MOL0     C82237   2.059   8.099   6.247  0.1953  0.4094  0.8254
  610MOL0     C82238   2.211   8.119   6.259 -0.0352 -0.2975 -0.0655
  610MOL0     O82239   2.262   8.200   6.364 -0.2029 -0.0793 -0.1478
  610MOL0     C82240   2.364   8.163   6.444  0.0612  0.1204  0.0129
  610MOL0     C82241   2.399   8.033   6.482  0.8300 -0.2779 -0.6710
  610MOL0     C82242   2.511   8.015   6.561  0.8992 -0.0924 -0.6264
  610MOL0     C82243   2.600   8.123   6.586  0.8520  0.7038 -0.8606
  610MOL0     C82244   2.715   8.104   6.676 -0.1677  0.3905 -0.1503
  610MOL0     O82245   2.785   8.213   6.705 -0.3323  0.1848 -0.0691
  610MOL0     C82246   2.883   8.217   6.802 -0.3083  0.1541  0.8433
  610MOL0     C82247   2.936   8.118   6.879  0.6029  0.2148  0.1930
  610MOL0     C82248   3.037   8.146   6.967 -0.6820 -0.0970  0.8363
  610MOL0     C82249   3.098   8.280   6.985 -0.0574 -0.9637 -0.5747
  610MOL0     O82250   3.207   8.315   7.068  0.4462 -0.2395  0.1541
  610MOL0     C82251   3.194   8.443   7.140  0.1209 -0.1834 -0.5542
  610MOL0     C82252   3.274   8.432   7.267 -0.4658 -0.5543  0.8573
  610MOL0     C82253   3.423   8.395   7.244 -0.2199 -0.2342  0.1717
  610MOL0     C82254   3.487   8.371   7.384 -0.1105 -0.0985  0.0177
  610MOL0     C82255   3.508   8.499   7.469 -0.4245 -0.3048  0.1133
  610MOL0     C82256   3.615   8.485   7.573  0.4272 -0.5660  0.2683
  610MOL0     C82257   3.619   8.367   7.669  0.4808 -0.4214 -0.1890
  610MOL0     C82258   3.759   8.301   7.689  0.1681 -0.1931  0.9063
  610MOL0    Cl82259   3.775   8.157   7.568  0.2860 -0.2400  0.2852
  610MOL0     C82260   3.039   8.378   6.901 -0.0247 -0.5106  1.6927
  610MOL0     C82261   2.941   8.349   6.808  0.3995 -0.2165 -0.1185
  610MOL0     O82262   2.727   7.997   6.731  0.1251  0.6273  0.1204
  610MOL0     C82263   2.566   8.254   6.540 -0.0982  0.4919  0.9152
  610MOL0     C82264   2.446   8.271   6.474 -0.3363 -0.8843 -0.6683
  610MOL0     N82265   1.754   8.444   6.326 -0.7268  0.6513  0.3439
  610MOL0     N82266   1.705   8.524   6.410  0.5874  0.0150  0.3060
  610MOL0     C82267   1.679   8.499   7.694  0.6259  0.6524 -0.3401
  610MOL0     C82268   1.704   8.560   7.814  0.9427  0.2044 -0.2530
  610MOL0     C82269   1.884   8.647   8.207 -0.0711  0.3159 -0.9785
  610MOL0     C82270   1.827   8.603   8.322  0.2481 -0.3131 -0.3151
  610MOL0     C82271   1.874   8.634   8.450  0.0694 -0.0030 -0.0946
  610MOL0     C82272   1.984   8.707   8.462  0.0193 -0.7182 -0.4415
  610MOL0     O82273   2.032   8.738   8.587  0.1375  0.1425 -0.7768
  610MOL0     C82274   2.019   8.878   8.636 -0.2805  0.5458 -0.5505
  610MOL0     C82275   2.098   8.886   8.768  0.3447 -0.1692 -0.4767
  610MOL0     C82276   2.041   8.797   8.883  0.2142 -0.4023  1.4743
  610MOL0     C82277   1.893   8.831   8.921  0.0601  0.3640 -0.0243
  610MOL0     C82278   1.796   8.748   8.854  0.7924  1.4305 -0.2812
  610MOL0     C82279   1.717   8.668   8.805  0.6993 -1.1417  0.2444
  610MOL0     C82280   2.045   8.758   8.347  0.1806 -0.7782 -0.1819
  610MOL0     C82281   1.998   8.736   8.221  0.1504  1.2525 -0.0096
  610MOL0     C82282   2.081   8.783   8.108 -0.0009  0.2180 -0.8777
  610MOL0     H82283   2.027   8.655   7.782  0.7638 -0.9756  1.8983
  610MOL0     H82284   2.000   8.518   7.574 -0.2579 -0.9012  0.2472
  610MOL0     H82285   1.624   8.331   7.434 -2.8786  1.2411  0.9412
  610MOL0     H82286   1.594   8.504   7.431  0.3030 -0.0642  1.0459
  610MOL0     H82287   1.599   8.412   7.197  0.2003 -1.4650 -0.6487
  610MOL0     H82288   1.753   8.352   7.230  0.7471  1.4379 -0.1042
  610MOL0     H82289   1.853   8.575   7.207  0.0348 -1.2377 -1.9095
  610MOL0     H82290   1.718   8.663   7.255 -0.0933 -0.0908 -0.3265
  610MOL0     H82291   1.610   8.551   7.048  0.1369 -2.1873  2.4977
  610MOL0     H82292   1.703   8.691   7.030 -0.2548 -0.3688 -0.0833
  610MOL0     H82293   1.888   8.565   6.932 -2.2112  1.8095 -2.4510
  610MOL0     H82294   1.833   8.413   7.018 -2.6844 -1.9059 -1.7827
  610MOL0     H82295   1.788   8.392   6.774  2.4448  1.8990 -0.5177
  610MOL0     H82296   1.635   8.401   6.854  0.6714  0.0644 -0.7985
  610MOL0     H82297   1.795   8.607   6.697 -0.8274 -0.3309 -2.7799
  610MOL0     H82298   1.659   8.667   6.795  1.2375 -0.7392  0.7601
  610MOL0     H82299   1.520   8.468   6.665  2.2023 -4.2659 -1.0736
  610MOL0     H82300   1.558   8.622   6.590  0.1575 -0.9645 -1.3206
  610MOL0     H82301   1.709   8.254   6.592  2.2752 -0.4343  1.1316
  610MOL0     H82302   1.794   8.106   6.333  0.2897 -1.7339 -1.7511
  610MOL0     H82303   1.788   8.222   6.200 -1.4324 -1.9486  0.8055
  610MOL0     H82304   2.012   8.316   6.255  1.6567 -0.2847  0.2696
  610MOL0     H82305   2.009   8.233   6.402 -3.6347  2.1769 -0.1969
  610MOL0     H82306   2.022   8.076   6.146  0.7102 -2.9340  1.3039
  610MOL0     H82307   2.031   8.016   6.312  1.2578 -0.1403  0.5995
  610MOL0     H82308   2.237   8.151   6.158  0.3414  0.8337  0.3752
  610MOL0     H82309   2.253   8.018   6.266  0.4900 -0.2239 -1.6646
  610MOL0     H82310   2.343   7.944   6.457  2.2287 -1.8767  1.4529
  610MOL0     H82311   2.523   7.916   6.604 -2.8832 -1.3323 -2.0317
  610MOL0     H82312   2.895   8.017   6.879 -0.4865  0.6340  1.6340
  610MOL0     H82313   3.076   8.062   7.023 -0.2277 -0.3325  0.1874
  610MOL0     H82314   3.230   8.528   7.082 -1.4426  0.4988 -0.5658
  610MOL0     H82315   3.090   8.472   7.158 -0.0415  0.1605 -1.9194
  610MOL0     H82316   3.262   8.522   7.328  0.7362 -0.0590  0.4013
  610MOL0     H82317   3.228   8.344   7.314  0.6613 -1.2398  0.7206
  610MOL0     H82318   3.429   8.304   7.184  3.0121 -0.9168  1.3124
  610MOL0     H82319   3.479   8.477   7.198 -1.2185  0.1824 -0.3262
  610MOL0     H82320   3.579   8.314   7.365  0.7433  0.5192  2.0569
  610MOL0     H82321   3.425   8.299   7.440 -0.5212  0.1663 -0.0972
  610MOL0     H82322   3.415   8.529   7.519 -1.6313 -0.6484 -1.8339
  610MOL0     H82323   3.543   8.580   7.405  0.1224 -0.6368 -0.0166
  610MOL0     H82324   3.707   8.503   7.517 -1.5906  3.1037 -2.3039
  610MOL0     H82325   3.593   8.571   7.638 -0.4434 -1.0738  0.6748
  610MOL0     H82326   3.558   8.290   7.622  1.3538 -0.7250 -0.8539
  610MOL0     H82327   3.584   8.396   7.769  0.8760  0.5359 -0.3153
  610MOL0     H82328   3.839   8.368   7.658 -0.4315 -0.2131 -0.7608
  610MOL0     H82329   3.766   8.272   7.795  0.6511  0.7085  1.1326
  610MOL0     H82330   3.056   8.485   6.910  2.0078 -0.7149  0.7567
  610MOL0     H82331   2.912   8.428   6.739 -0.7860 -0.6377 -0.1263
  610MOL0     H82332   2.623   8.342   6.568  1.8812 -0.9192  1.5123
  610MOL0     H82333   2.429   8.369   6.431  0.3198 -0.3134  0.3114
  610MOL0     H82334   1.580   8.459   7.672  1.6321 -2.3867  0.2197
  610MOL0     H82335   1.623   8.569   7.886  0.8833  1.5200 -0.4638
  610MOL0     H82336   1.740   8.541   8.303  0.8747 -0.5943 -2.5421
  610MOL0     H82337   1.829   8.596   8.541 -2.2599 -0.5927 -1.4195
  610MOL0     H82338   1.914   8.910   8.634 -0.8207 -1.1143 -1.6379
  610MOL0     H82339   2.074   8.938   8.564 -2.5941 -0.9420 -3.7989
  610MOL0     H82340   2.093   8.986   8.812  1.7686 -0.8628  1.3742
  610MOL0     H82341   2.204   8.868   8.749  0.0948 -1.4912 -0.7228
  610MOL0     H82342   2.106   8.829   8.965  2.6072  2.3219 -1.2494
  610MOL0     H82343   2.055   8.690   8.863 -1.7928 -0.2584 -1.4550
  610MOL0     H82344   1.879   8.828   9.029  0.3997  2.7559  0.1532
  610MOL0     H82345   1.871   8.932   8.886 -0.6870  1.5434  3.4331
  610MOL0     H82346   1.650   8.602   8.754  0.1006  0.1158 -0.6506
  610MOL0     H82347   2.130   8.821   8.371 -2.2381  2.1568  1.6293
  610MOL0     H82348   2.177   8.807   8.154 -0.1045  1.2659 -1.1831
  610MOL0     H82349   2.087   8.696   8.042 -0.5069 -1.9111  1.6699
  610MOL0     H82350   2.054   8.867   8.043  0.0979 -1.0146 -2.5719
  611MOL0     O82351   6.903   4.818  10.567 -0.2381  0.2467 -0.2888
  611MOL0     C82352   6.875   4.707  10.524 -0.8151  0.7310 -0.4636
  611MOL0     O82353   6.967   4.615  10.479 -0.0377 -0.2698 -0.3997
  611MOL0     C82354   7.104   4.634  10.474 -0.1740 -0.1018 -0.0126
  611MOL0     C82355   7.166   4.762  10.469 -0.1063 -0.1242 -0.4952
  611MOL0     C82356   7.298   4.778  10.424 -0.3127  0.6750 -0.6018
  611MOL0     C82357   7.378   4.672  10.385 -0.2584  0.2445  0.0214
  611MOL0     O82358   7.505   4.681  10.334  0.8644  0.3699  0.7232
  611MOL0     C82359   7.575   4.797  10.310 -0.3686 -0.0159 -0.1841
  611MOL0     C82360   7.710   4.736  10.259 -0.1605 -0.6483 -0.2924
  611MOL0     C82361   7.793   4.831  10.183 -0.9073 -0.6715  1.0358
  611MOL0     C82362   7.916   4.755  10.119  0.2827 -0.0224 -0.8832
  611MOL0     C82363   8.031   4.844  10.080 -0.9913 -0.2238 -0.5682
  611MOL0     C82364   8.003   4.927   9.961 -0.7676 -0.4620 -0.1413
  611MOL0     C82365   8.132   4.977   9.894  0.6722  0.0263 -0.3370
  611MOL0     C82366   8.223   4.873   9.818  0.1816  0.8893 -0.0000
  611MOL0     N82367   8.360   4.923   9.785 -0.6202 -0.1602  0.1628
  611MOL0     C82368   8.395   5.029   9.699  0.3003 -0.5663  0.2978
  611MOL0     C82369   8.529   5.023   9.701 -0.1568 -0.1697 -0.1012
  611MOL0     C82370   8.613   5.120   9.618 -0.7818 -0.0764  0.4144
  611MOL0     C82371   8.581   5.265   9.648 -0.6186 -0.0787 -1.1524
  611MOL0     C82372   8.703   5.346   9.600  0.2841  0.8028 -0.5206
  611MOL0     C82373   8.689   5.493   9.614  0.1962 -0.6127 -0.0511
  611MOL0     O82374   8.695   5.543   9.744  0.3571 -0.1823  0.1908
  611MOL0     C82375   8.816   5.540   9.812  0.1236  0.0914  0.1213
  611MOL0     C82376   8.803   5.566   9.947  0.4791 -0.1178  0.2402
  611MOL0     C82377   8.924   5.594  10.022 -0.4855  0.0115  0.0109
  611MOL0     C82378   9.054   5.587   9.960  1.0342  0.4912  0.4822
  611MOL0     C82379   9.177   5.612  10.033  0.2132 -0.5267 -0.4848
  611MOL0     O82380   9.299   5.576   9.977 -0.3202 -0.0648 -0.8764
  611MOL0     C82381   9.416   5.627  10.034  0.5154  0.8722  0.0791
  611MOL0     C82382   9.462   5.589  10.161  0.3423  0.5599  0.1389
  611MOL0     C82383   9.592   5.621  10.206 -0.0991 -0.4079  0.2081
  611MOL0     C82384   9.681   5.689  10.118  0.4332  0.3038 -0.2316
  611MOL0     O82385   9.800   5.734  10.153 -1.0915  0.0195 -0.3290
  611MOL0     C82386   9.852   5.694  10.278 -1.1313 -0.4483 -0.1200
  611MOL0     C82387  10.003   5.751  10.274  0.2206 -0.1124 -1.0612
  611MOL0     C82388  10.098   5.684  10.389 -0.4965 -0.4195 -0.7937
  611MOL0     C82389  10.236   5.754  10.384 -0.3029 -0.0735 -0.3271
  611MOL0     C82390  10.330   5.692  10.270 -1.0936  0.2266  0.0717
  611MOL0     C82391  10.464   5.759  10.267  0.2769  0.0502 -0.8168
  611MOL0     C82392  10.557   5.715  10.148 -0.0605 -1.0369 -0.0463
  611MOL0     C82393  10.610   5.569  10.155 -0.6752  0.4723  0.1397
  611MOL0    Cl82394  10.720   5.544  10.017  0.4826 -0.2727 -0.1939
  611MOL0     C82395   9.641   5.714   9.989  0.1211  0.2150  1.1109
  611MOL0     C82396   9.504   5.690   9.954 -0.5959 -0.1680 -0.1799
  611MOL0     O82397   9.159   5.674  10.139  0.3504  0.0785 -0.1655
  611MOL0     C82398   9.057   5.543   9.825 -0.0453  0.3790  0.1319
  611MOL0     C82399   8.945   5.520   9.753  0.5197  0.9618  0.9289
  611MOL0     N82400   8.568   4.917   9.777  0.1978 -0.2841  0.6067
  611MOL0     N82401   8.469   4.849   9.819 -0.3322 -0.7354 -1.1269
  611MOL0     C82402   7.321   4.538  10.393  0.9338  0.5050  1.1252
  611MOL0     C82403   7.186   4.522  10.437  0.7645 -0.5718  0.6702
  611MOL0     C82404   6.734   4.667  10.536 -0.3459 -0.1180  0.8941
  611MOL0     C82405   6.707   4.538  10.489 -0.1889 -0.1793  0.0421
  611MOL0     C82406   6.568   4.502  10.485  0.2632  0.1300  0.0238
  611MOL0     C82407   6.471   4.572  10.550  1.0445 -0.6017  0.3002
  611MOL0     O82408   6.345   4.524  10.520  0.0952 -0.1238  0.2176
  611MOL0     C82409   6.229   4.596  10.566  0.0433 -0.7824  0.0459
  611MOL0     C82410   6.098   4.544  10.504 -0.1205  0.6619 -0.4209
  611MOL0     C82411   6.075   4.388  10.520 -0.4207 -0.0382 -0.1167
  611MOL0     C82412   6.079   4.337  10.663 -0.5166  0.0209 -0.6443
  611MOL0     C82413   6.065   4.197  10.681 -0.4802  0.5513  0.5422
  611MOL0     C82414   6.052   4.080  10.691 -0.6828 -0.1197 -0.3746
  611MOL0     C82415   6.501   4.689  10.602 -0.4415 -0.9250  0.6206
  611MOL0     C82416   6.634   4.747  10.592  0.0233 -0.1137 -0.5504
  611MOL0     C82417   6.643   4.881  10.656 -0.0001  0.1720  0.1462
  611MOL0     H82418   7.119   4.859  10.483  0.6894  0.8043 -3.4606
  611MOL0     H82419   7.330   4.881  10.414  0.7433  0.3777 -0.3678
  611MOL0     H82420   7.516   4.847  10.233 -0.9005  2.4480  1.6903
  611MOL0     H82421   7.585   4.858  10.400  0.0590 -1.8142  1.0274
  611MOL0     H82422   7.698   4.639  10.209  1.9722 -1.1761  0.1318
  611MOL0     H82423   7.767   4.705  10.347  2.2476  0.3489 -1.4021
  611MOL0     H82424   7.821   4.905  10.258  1.3041 -0.2507 -0.0986
  611MOL0     H82425   7.741   4.876  10.099  1.9487 -1.1439 -1.1704
  611MOL0     H82426   7.957   4.690  10.197  1.1513  0.9791 -0.4794
  611MOL0     H82427   7.864   4.694  10.044 -2.6423 -0.8062  1.5647
  611MOL0     H82428   8.055   4.908  10.166  1.4782  0.6454 -1.8186
  611MOL0     H82429   8.119   4.782  10.057 -1.8982 -1.9080  0.3006
  611MOL0     H82430   7.956   4.863   9.886 -0.4877 -2.1236  1.0496
  611MOL0     H82431   7.939   5.011   9.988  0.9470  1.2335 -1.0497
  611MOL0     H82432   8.199   5.020   9.969  2.0376 -1.4027 -0.6843
  611MOL0     H82433   8.118   5.061   9.824  0.5318  1.4293  1.3008
  611MOL0     H82434   8.238   4.779   9.873  1.1843  0.1561 -1.4805
  611MOL0     H82435   8.169   4.845   9.727 -1.0224  0.2108  0.8852
  611MOL0     H82436   8.340   5.091   9.630  0.8113 -0.2733  0.1468
  611MOL0     H82437   8.719   5.096   9.633 -0.2283  1.1620 -1.2038
  611MOL0     H82438   8.598   5.092   9.513  3.9705  1.0532 -0.7943
  611MOL0     H82439   8.491   5.300   9.595 -0.5471  0.6871 -0.7701
  611MOL0     H82440   8.563   5.276   9.755 -2.5808 -2.0447 -1.2117
  611MOL0     H82441   8.706   5.330   9.492 -0.2974  0.2007 -0.4607
  611MOL0     H82442   8.791   5.320   9.660 -2.5658 -2.4958  2.7361
  611MOL0     H82443   8.596   5.526   9.567  0.6542  0.4290 -0.2483
  611MOL0     H82444   8.774   5.536   9.561  0.9618 -1.2226  0.6590
  611MOL0     H82445   8.706   5.569   9.995 -0.2603  0.6872 -1.2572
  611MOL0     H82446   8.920   5.620  10.128  0.6915 -2.3531  0.6938
  611MOL0     H82447   9.394   5.530  10.222 -0.1652 -1.6222 -2.3851
  611MOL0     H82448   9.625   5.591  10.304 -0.1664 -2.5694 -0.3937
  611MOL0     H82449   9.801   5.749  10.358 -0.9711  1.7873 -1.4654
  611MOL0     H82450   9.851   5.586  10.295 -2.2468 -0.3489  0.5075
  611MOL0     H82451  10.047   5.743  10.174 -1.4453 -3.0936 -1.6663
  611MOL0     H82452   9.991   5.857  10.299 -0.2170 -0.1201 -1.2289
  611MOL0     H82453  10.054   5.684  10.489 -0.6465  0.3207 -0.8566
  611MOL0     H82454  10.118   5.581  10.357 -1.2918 -1.3090  1.3962
  611MOL0     H82455  10.292   5.752  10.478  1.3503  0.6471 -1.2533
  611MOL0     H82456  10.220   5.860  10.362  0.0966  0.1276  0.3416
  611MOL0     H82457  10.284   5.688  10.170  2.5183 -1.3978 -1.7265
  611MOL0     H82458  10.336   5.585  10.291 -0.5105  0.1396 -0.5305
  611MOL0     H82459  10.445   5.866  10.264 -2.3400 -0.3725 -1.4453
  611MOL0     H82460  10.520   5.737  10.358  0.4307 -0.9692 -1.1384
  611MOL0     H82461  10.648   5.775  10.153 -0.2678 -0.7725  4.7032
  611MOL0     H82462  10.504   5.734  10.054  0.0348 -2.7279 -0.4798
  611MOL0     H82463  10.670   5.557  10.245  0.6636  0.4412 -0.7192
  611MOL0     H82464  10.529   5.497  10.145 -1.3115  1.1980 -0.0517
  611MOL0     H82465   9.708   5.762   9.919 -1.7429  3.0331  1.0784
  611MOL0     H82466   9.480   5.722   9.853 -1.7701 -0.1113  0.1048
  611MOL0     H82467   9.151   5.525   9.773  0.2967 -1.2470  1.2325
  611MOL0     H82468   8.954   5.481   9.652  1.4163  3.9636 -0.2546
  611MOL0     H82469   7.365   4.449  10.349  0.0369  0.3751  0.4619
  611MOL0     H82470   7.142   4.423  10.439  0.8104 -0.5851  1.0478
  611MOL0     H82471   6.788   4.473  10.456  0.1065 -0.2576  0.8994
  611MOL0     H82472   6.533   4.411  10.437  1.7930 -0.2460 -0.4058
  611MOL0     H82473   6.232   4.704  10.549 -0.2598 -0.4685  1.7640
  611MOL0     H82474   6.214   4.582  10.673  1.6287 -0.5931  0.3280
  611MOL0     H82475   6.091   4.555  10.395 -0.8660 -1.5427 -0.6515
  611MOL0     H82476   6.009   4.598  10.537 -0.7269  0.6569 -1.9527
  611MOL0     H82477   6.150   4.336  10.460 -1.8683 -1.0700 -1.1036
  611MOL0     H82478   5.981   4.365  10.467  0.0627  0.6639 -1.3124
  611MOL0     H82479   6.173   4.370  10.710  0.1606 -2.1154 -0.3802
  611MOL0     H82480   6.006   4.382  10.731 -0.8555 -0.9748 -0.3384
  611MOL0     H82481   6.040   3.978  10.720  3.6756 -0.6425  0.3540
  611MOL0     H82482   6.430   4.746  10.662 -0.4830  2.6148 -2.4425
  611MOL0     H82483   6.701   4.887  10.749  1.2507  0.4774 -0.6329
  611MOL0     H82484   6.690   4.940  10.578  2.4872 -3.2163 -1.1771
  611MOL0     H82485   6.548   4.928  10.683  1.1604  2.0818  1.0564
  612MOL0     O82486   0.728   7.730   8.000  0.1137  0.0384 -0.3344
  612MOL0     C82487   0.732   7.614   8.025 -0.6051 -0.4381  0.1850
  612MOL0     O82488   0.837   7.548   8.070 -0.0020  0.0431  0.1965
  612MOL0     C82489   0.953   7.622   8.089 -0.7570  0.4097  0.8009
  612MOL0     C82490   1.073   7.554   8.045  0.5814  0.4269  0.8734
  612MOL0     C82491   1.193   7.622   8.068  0.5168  0.5462  0.5767
  612MOL0     C82492   1.199   7.741   8.136 -1.1120 -0.3347 -0.4177
  612MOL0     O82493   1.321   7.800   8.150 -0.2355 -0.7864 -0.8525
  612MOL0     C82494   1.372   7.784   8.282 -0.1907 -0.3424 -0.1057
  612MOL0     C82495   1.520   7.841   8.292  0.2472 -0.6904  0.4379
  612MOL0     C82496   1.602   7.785   8.404  0.9680 -0.1361  0.3166
  612MOL0     C82497   1.730   7.857   8.420  0.2767  0.7248  0.1261
  612MOL0     C82498   1.831   7.777   8.498  0.0626  0.2007 -0.3393
  612MOL0     C82499   1.916   7.874   8.573 -0.8124  0.6013 -0.1814
  612MOL0     C82500   2.009   7.769   8.649  0.5195  0.1323  0.2968
  612MOL0     C82501   2.113   7.852   8.724  0.1911  0.4070 -0.5628
  612MOL0     N82502   2.209   7.895   8.623  0.8193  0.2358  0.1305
  612MOL0     C82503   2.280   7.827   8.527 -0.0748  0.6168 -0.2356
  612MOL0     C82504   2.331   7.921   8.444 -0.3570 -0.1942  0.3738
  612MOL0     C82505   2.399   7.897   8.309 -0.3790 -0.3751  0.0943
  612MOL0     C82506   2.510   8.005   8.280 -0.1528  0.6877 -0.1322
  612MOL0     C82507   2.625   8.006   8.380  0.6406 -0.3854  0.5717
  612MOL0     C82508   2.672   7.868   8.427 -0.0900  0.1268  0.5708
  612MOL0     O82509   2.787   7.890   8.509 -0.8014 -0.5788 -0.5676
  612MOL0     C82510   2.872   7.795   8.560  0.6961  0.1310 -0.8236
  612MOL0     C82511   2.854   7.657   8.540  0.0843 -0.5254  0.4627
  612MOL0     C82512   2.950   7.567   8.583  0.4638  1.1327 -0.2287
  612MOL0     C82513   3.065   7.617   8.648 -0.3478  0.3005 -0.3584
  612MOL0     C82514   3.161   7.524   8.712 -0.0005 -0.1174  0.1214
  612MOL0     O82515   3.273   7.585   8.766  0.1494  0.3439  0.4232
  612MOL0     C82516   3.385   7.510   8.802 -0.1722  0.5858  0.1443
  612MOL0     C82517   3.390   7.376   8.846  0.6375 -0.5908  0.6735
  612MOL0     C82518   3.520   7.314   8.877  0.1140 -0.4621  0.3188
  612MOL0     C82519   3.638   7.388   8.867 -0.5533 -0.5239  0.3354
  612MOL0     O82520   3.762   7.335   8.892 -0.2414  0.7268  0.4061
  612MOL0     C82521   3.782   7.216   8.970 -0.5056  0.2605 -0.4077
  612MOL0     C82522   3.812   7.254   9.124 -0.7236 -0.0197  0.6470
  612MOL0     C82523   3.938   7.338   9.152 -0.2316 -0.8449  0.0841
  612MOL0     C82524   4.060   7.306   9.060 -0.4709 -0.0529  0.5428
  612MOL0     C82525   4.188   7.387   9.088 -0.3264  0.6364  0.4512
  612MOL0     C82526   4.314   7.351   9.000  0.0442  0.4196  0.1633
  612MOL0     C82527   4.443   7.420   9.039  0.0736  0.8912  0.2123
  612MOL0     C82528   4.506   7.366   9.170 -0.0040  0.5133  0.5311
  612MOL0    Cl82529   4.640   7.466   9.204 -0.1115 -0.0539  0.0722
  612MOL0     C82530   3.635   7.523   8.818  0.8787 -0.3684 -0.0360
  612MOL0     C82531   3.507   7.583   8.796 -0.4350  0.1562  0.0834
  612MOL0     O82532   3.148   7.405   8.693  0.1408 -0.1330  0.4706
  612MOL0     C82533   3.086   7.750   8.657 -0.4496  0.0312  0.2887
  612MOL0     C82534   2.983   7.837   8.621 -0.0983  1.4750  0.2392
  612MOL0     N82535   2.317   8.036   8.515  0.3184 -0.5187 -0.2648
  612MOL0     N82536   2.244   8.021   8.625  0.3829  0.4870  0.2818
  612MOL0     C82537   1.079   7.794   8.181  0.4282 -0.2008 -0.1147
  612MOL0     C82538   0.959   7.737   8.159 -0.1801  0.3205 -0.2464
  612MOL0     C82539   0.608   7.529   7.993  0.1591  0.4705 -0.0656
  612MOL0     C82540   0.623   7.386   7.993 -0.2957  0.2538 -0.0578
  612MOL0     C82541   0.511   7.295   7.980  0.0205 -0.7433 -0.6894
  612MOL0     C82542   0.380   7.352   7.958 -0.2413  0.7212 -0.4290
  612MOL0     O82543   0.266   7.267   7.943  0.2429  0.0129  0.1630
  612MOL0     C82544   0.269   7.124   7.976 -0.6272  0.0624 -0.4586
  612MOL0     C82545   0.127   7.066   7.956  0.1395 -0.0243  0.0737
  612MOL0     C82546   0.078   7.088   7.809 -0.4068  0.1830  0.0110
  612MOL0     C82547  -0.067   7.116   7.808 -0.5660  1.2162 -0.3358
  612MOL0     C82548  -0.106   7.154   7.676 -0.0291  0.1545 -0.4976
  612MOL0     C82549  -0.132   7.186   7.565 -0.0163 -0.0066 -0.4733
  612MOL0     C82550   0.365   7.494   7.943 -0.3054 -0.3797 -0.2569
  612MOL0     C82551   0.478   7.582   7.962 -0.0074 -0.0937  0.3372
  612MOL0     C82552   0.440   7.724   7.973 -0.4915 -0.1188  0.2377
  612MOL0     H82553   1.065   7.464   7.985 -0.0962  0.0452  1.5177
  612MOL0     H82554   1.273   7.573   8.015  1.0422 -2.4014  3.7172
  612MOL0     H82555   1.302   7.832   8.350 -2.9603  0.0719 -3.0264
  612MOL0     H82556   1.378   7.677   8.303 -1.5990 -0.4720 -0.2562
  612MOL0     H82557   1.514   7.950   8.299  1.7940 -0.5196 -0.4067
  612MOL0     H82558   1.570   7.831   8.195 -0.4658  2.3434 -0.3487
  612MOL0     H82559   1.623   7.680   8.383 -1.9350 -0.4363 -1.7170
  612MOL0     H82560   1.547   7.802   8.497  3.3580  0.1029  1.7713
  612MOL0     H82561   1.773   7.860   8.319 -2.3219 -1.4850 -1.1921
  612MOL0     H82562   1.706   7.953   8.467  3.2565  0.9842  1.3790
  612MOL0     H82563   1.766   7.713   8.559 -2.2619  2.1687 -0.5680
  612MOL0     H82564   1.880   7.704   8.433 -0.0617  1.1839 -1.5768
  612MOL0     H82565   1.983   7.928   8.505 -0.3623 -0.2671 -0.4389
  612MOL0     H82566   1.855   7.942   8.634 -2.9005 -1.4638  0.1671
  612MOL0     H82567   2.055   7.686   8.595  1.6315  1.8031 -1.4466
  612MOL0     H82568   1.956   7.723   8.733  1.8488  1.7239  2.1328
  612MOL0     H82569   2.067   7.937   8.776 -3.4446 -1.3814 -0.5386
  612MOL0     H82570   2.164   7.797   8.803  0.6859 -0.7934 -1.6832
  612MOL0     H82571   2.274   7.719   8.520 -2.7505  0.6600  0.3762
  612MOL0     H82572   2.436   7.794   8.311 -1.2720 -0.7088  2.6494
  612MOL0     H82573   2.318   7.905   8.236 -0.8899 -0.2531  0.6685
  612MOL0     H82574   2.552   7.985   8.181 -0.3500  0.8474 -0.2488
  612MOL0     H82575   2.469   8.106   8.277  1.5343  1.3709 -2.2502
  612MOL0     H82576   2.594   8.068   8.464  0.3023 -0.4217  0.4747
  612MOL0     H82577   2.709   8.050   8.325 -1.3412  1.2891 -1.3250
  612MOL0     H82578   2.703   7.813   8.338  4.0196 -1.3177  2.5963
  612MOL0     H82579   2.594   7.808   8.474 -0.3283  0.4280  0.5647
  612MOL0     H82580   2.755   7.638   8.499  0.1323  1.2886 -0.5989
  612MOL0     H82581   2.933   7.464   8.551 -1.4049  0.3572  2.8278
  612MOL0     H82582   3.293   7.328   8.854 -1.3078  2.5759 -1.5034
  612MOL0     H82583   3.509   7.211   8.910  0.6103  0.2801  3.0963
  612MOL0     H82584   3.696   7.151   8.956  0.1157 -0.5339 -0.6423
  612MOL0     H82585   3.867   7.153   8.943 -1.1716 -2.1812  2.6527
  612MOL0     H82586   3.726   7.313   9.157 -0.2637  1.5107 -0.7470
  612MOL0     H82587   3.816   7.160   9.179  0.4533 -1.0360 -1.0813
  612MOL0     H82588   3.911   7.442   9.131 -2.8072 -1.2483  1.0076
  612MOL0     H82589   3.966   7.333   9.258  2.1341  1.6463 -0.3198
  612MOL0     H82590   4.035   7.340   8.959  2.4296 -0.4887 -0.4210
  612MOL0     H82591   4.073   7.197   9.062 -4.1627 -0.6155  1.8367
  612MOL0     H82592   4.212   7.375   9.194  2.3229  0.1438 -0.1354
  612MOL0     H82593   4.184   7.494   9.066 -2.2559  0.2681 -1.2578
  612MOL0     H82594   4.335   7.244   8.999 -1.6706 -0.0803  3.3974
  612MOL0     H82595   4.275   7.370   8.900 -1.3046  1.3351  0.8248
  612MOL0     H82596   4.419   7.527   9.046 -0.0246  0.7823  2.0325
  612MOL0     H82597   4.510   7.408   8.954 -0.2588  2.1699 -0.2493
  612MOL0     H82598   4.438   7.379   9.255  1.3871 -2.6450  2.2918
  612MOL0     H82599   4.544   7.265   9.151  0.1592  1.1282 -3.0473
  612MOL0     H82600   3.722   7.588   8.808 -0.3351  1.9958  2.9660
  612MOL0     H82601   3.507   7.682   8.751  2.7394  1.1116  1.9290
  612MOL0     H82602   3.173   7.798   8.701 -1.1386  1.2547  0.3898
  612MOL0     H82603   3.001   7.940   8.647  1.6458  0.8306  1.8424
  612MOL0     H82604   1.087   7.883   8.242  0.0554  2.0929 -3.1744
  612MOL0     H82605   0.869   7.777   8.205 -0.3467 -0.9097  0.5330
  612MOL0     H82606   0.723   7.343   8.004 -0.2582  0.2649 -0.3430
  612MOL0     H82607   0.524   7.190   8.003 -2.8757 -0.7821  1.4379
  612MOL0     H82608   0.298   7.106   8.079 -5.6209 -1.5274  0.9685
  612MOL0     H82609   0.338   7.070   7.910  4.0712  1.5545  2.7517
  612MOL0     H82610   0.056   7.113   8.025  1.2556  0.8990  0.6262
  612MOL0     H82611   0.132   6.957   7.967 -2.5063 -0.2569 -0.2360
  612MOL0     H82612   0.103   6.999   7.751  2.7582  0.8645  0.1505
  612MOL0     H82613   0.140   7.166   7.765  1.1123 -0.7414  0.4581
  612MOL0     H82614  -0.102   7.019   7.845  0.0319  0.1646 -2.3832
  612MOL0     H82615  -0.078   7.197   7.881  1.9278 -0.6991  2.3670
  612MOL0     H82616  -0.167   7.220   7.470 -1.9088 -2.6093 -0.8383
  612MOL0     H82617   0.265   7.533   7.928 -0.6021 -0.5533  1.1184
  612MOL0     H82618   0.484   7.768   8.063  0.9164 -2.2830  0.6736
  612MOL0     H82619   0.470   7.777   7.882 -0.0794  1.0214  1.0212
  612MOL0     H82620   0.335   7.750   7.991  0.0229  2.9354 -0.6128
  613MOL0     O82621  10.359   9.028   9.269  0.0768 -0.1640 -0.2509
  613MOL0     C82622  10.351   8.960   9.374 -0.6253 -0.2495 -0.7916
  613MOL0     O82623  10.420   8.979   9.481 -0.4096 -0.1728 -0.8181
  613MOL0     C82624  10.549   9.028   9.480 -0.1376 -0.1660 -0.2962
  613MOL0     C82625  10.638   8.988   9.379  0.3503  0.2171 -0.6527
  613MOL0     C82626  10.773   9.027   9.394  0.7204 -0.6995  0.2172
  613MOL0     C82627  10.826   9.113   9.497 -0.1585  0.4934 -0.5334
  613MOL0     O82628  10.960   9.144   9.516 -0.0468  0.1299  0.1222
  613MOL0     C82629  11.055   9.132   9.411  0.2002 -0.7069  0.1801
  613MOL0     C82630  11.145   9.252   9.406 -0.2710  0.2979 -0.1669
  613MOL0     C82631  11.236   9.279   9.530  0.9704  0.0299 -0.1621
  613MOL0     C82632  11.318   9.413   9.531  0.1815 -0.3583 -0.5086
  613MOL0     C82633  11.366   9.442   9.672 -0.3098 -0.1405 -0.5726
  613MOL0     C82634  11.444   9.319   9.736  0.1252  0.4638  0.6977
  613MOL0     C82635  11.499   9.355   9.876 -0.2541  0.6751  0.4714
  613MOL0     C82636  11.622   9.274   9.911 -0.0354  0.1029 -0.3402
  613MOL0     N82637  11.626   9.123   9.887  0.5805 -0.4089  0.1069
  613MOL0     C82638  11.530   9.033   9.925 -0.4082 -0.6370 -0.1219
  613MOL0     C82639  11.570   8.915   9.872 -0.3402  0.7095 -0.8154
  613MOL0     C82640  11.503   8.776   9.868  0.3752 -0.5877 -0.3781
  613MOL0     C82641  11.454   8.739   9.728 -0.2014 -0.2908 -0.3722
  613MOL0     C82642  11.419   8.588   9.716 -0.3877 -0.0471  0.8349
  613MOL0     C82643  11.349   8.544   9.589 -0.0688 -0.0896  0.1046
  613MOL0     O82644  11.240   8.624   9.544 -0.3379  0.2178  0.6156
  613MOL0     C82645  11.108   8.599   9.592  1.3918 -0.8318 -0.5142
  613MOL0     C82646  11.007   8.687   9.542  0.3536 -0.5464  0.0722
  613MOL0     C82647  10.869   8.674   9.590 -0.5885 -0.0494 -1.1014
  613MOL0     C82648  10.834   8.568   9.675  0.4976  0.8603 -0.5540
  613MOL0     C82649  10.703   8.554   9.743 -0.9822  0.4391 -0.0961
  613MOL0     O82650  10.607   8.657   9.742  0.3266 -0.9354  0.4561
  613MOL0     C82651  10.473   8.629   9.766  0.1687 -0.1261 -1.2647
  613MOL0     C82652  10.401   8.503   9.766  0.6782 -0.6286 -0.0750
  613MOL0     C82653  10.266   8.493   9.824 -0.2135 -0.2021  0.2420
  613MOL0     C82654  10.207   8.618   9.870 -0.4573  0.0387  0.0611
  613MOL0     O82655  10.092   8.617   9.941 -0.3437 -0.3901  1.0623
  613MOL0     C82656   9.975   8.546   9.888 -0.3859  0.1548 -0.3924
  613MOL0     C82657   9.863   8.649   9.857  0.0422  0.1314 -0.2912
  613MOL0     C82658   9.737   8.610   9.783  0.6914 -0.3375  0.1935
  613MOL0     C82659   9.687   8.479   9.830  0.4925  0.3379 -0.7462
  613MOL0     C82660   9.547   8.439   9.780 -0.4610 -0.2410  0.3550
  613MOL0     C82661   9.509   8.302   9.828 -0.3595 -0.0611  0.1166
  613MOL0     C82662   9.482   8.284   9.971  0.2222 -0.8734  0.4083
  613MOL0     C82663   9.407   8.156   9.998  0.8871 -0.0290 -0.1622
  613MOL0    Cl82664   9.342   8.152  10.178 -0.2027  0.1845  0.2793
  613MOL0     C82665  10.265   8.736   9.862  0.4283  0.5475 -0.2739
  613MOL0     C82666  10.394   8.738   9.810 -1.2643 -0.7703  0.4416
  613MOL0     O82667  10.671   8.442   9.782 -0.3686 -0.1849 -0.3271
  613MOL0     C82668  10.938   8.491   9.731  0.4391  0.8638 -0.2340
  613MOL0     C82669  11.069   8.500   9.686 -0.4415  0.7419 -0.1427
  613MOL0     N82670  11.695   8.935   9.811  0.2837  0.1647  0.0304
  613MOL0     N82671  11.726   9.057   9.823  0.5775  0.1431  0.2875
  613MOL0     C82672  10.731   9.144   9.596 -1.0905 -0.5771 -0.6064
  613MOL0     C82673  10.596   9.103   9.590  0.6921 -0.0827 -0.7560
  613MOL0     C82674  10.240   8.862   9.377  0.0101  0.8282 -0.8269
  613MOL0     C82675  10.208   8.806   9.499  0.3913  0.3025 -1.0294
  613MOL0     C82676  10.101   8.720   9.515  0.1593  0.3490 -0.1501
  613MOL0     C82677  10.035   8.668   9.407 -0.0859 -0.4933 -0.4525
  613MOL0     O82678   9.928   8.582   9.438  0.0385  0.2078 -0.5913
  613MOL0     C82679   9.849   8.521   9.332  0.1121  0.7054 -0.0228
  613MOL0     C82680   9.726   8.612   9.300 -0.3374 -0.6614 -0.3989
  613MOL0     C82681   9.653   8.647   9.431  0.2910 -0.1589  0.6220
  613MOL0     C82682   9.512   8.692   9.403  0.0576  0.2500 -0.3997
  613MOL0     C82683   9.441   8.578   9.336  0.2470 -0.1454  0.1986
  613MOL0     C82684   9.372   8.481   9.298  0.6690  0.2891 -0.8601
  613MOL0     C82685  10.071   8.709   9.280  0.3382  0.0523 -0.5337
  613MOL0     C82686  10.174   8.805   9.263 -0.2441 -0.0772 -0.3999
  613MOL0     C82687  10.210   8.838   9.116 -0.5305 -0.3039 -0.1630
  613MOL0     H82688  10.599   8.920   9.303 -3.2973  0.4921  0.7418
  613MOL0     H82689  10.843   8.982   9.324 -0.3922 -0.7981 -0.8633
  613MOL0     H82690  11.119   9.044   9.425 -1.2187 -1.7345  0.5515
  613MOL0     H82691  11.018   9.112   9.310  1.4087  1.0903 -0.6535
  613MOL0     H82692  11.082   9.340   9.388 -0.0690  0.7296  1.1519
  613MOL0     H82693  11.211   9.249   9.319 -0.2165  0.7596 -0.1449
  613MOL0     H82694  11.303   9.192   9.531 -0.1545 -0.8713  1.4216
  613MOL0     H82695  11.177   9.269   9.622  0.2854  0.2263 -0.5743
  613MOL0     H82696  11.409   9.409   9.470  0.3952  1.6545 -0.4056
  613MOL0     H82697  11.257   9.500   9.503 -2.8605 -1.6081  1.6538
  613MOL0     H82698  11.427   9.532   9.664  0.6730 -0.6260  0.9656
  613MOL0     H82699  11.286   9.465   9.743  1.5753  0.5189  1.4908
  613MOL0     H82700  11.371   9.238   9.744 -0.4358  0.5563 -2.3238
  613MOL0     H82701  11.528   9.297   9.670  0.0019  3.6127 -0.6802
  613MOL0     H82702  11.422   9.358   9.954 -1.5329 -0.9320 -0.6485
  613MOL0     H82703  11.549   9.453   9.874  1.1338 -0.0066  0.9552
  613MOL0     H82704  11.705   9.321   9.857  0.9410 -0.3717  0.7127
  613MOL0     H82705  11.642   9.295  10.017 -1.1215 -0.7110  0.0401
  613MOL0     H82706  11.446   9.054   9.990  0.0164  2.3209 -0.3805
  613MOL0     H82707  11.567   8.690   9.891  0.1499 -1.0964 -1.5805
  613MOL0     H82708  11.422   8.780   9.941  0.6910 -1.3861  0.0268
  613MOL0     H82709  11.365   8.796   9.700 -0.0065 -0.3455 -1.1205
  613MOL0     H82710  11.537   8.763   9.660  2.5908  1.6647  3.3388
  613MOL0     H82711  11.359   8.552   9.800 -1.8286  1.1435  0.3708
  613MOL0     H82712  11.505   8.522   9.727 -0.4071 -0.5405 -1.4828
  613MOL0     H82713  11.317   8.440   9.600 -2.1307  0.6251  1.4533
  613MOL0     H82714  11.428   8.545   9.514 -0.5964 -1.4962 -0.5146
  613MOL0     H82715  11.035   8.757   9.464 -0.2476 -1.9744 -1.4961
  613MOL0     H82716  10.796   8.748   9.557  0.0946  0.4704 -1.4730
  613MOL0     H82717  10.433   8.407   9.727 -0.8660 -0.7333 -1.2149
  613MOL0     H82718  10.209   8.403   9.841  0.5922 -0.2744  3.2912
  613MOL0     H82719  10.004   8.498   9.795 -3.7711  2.8278 -3.1213
  613MOL0     H82720   9.945   8.471   9.962  0.7649 -0.2007 -0.2770
  613MOL0     H82721   9.837   8.676   9.960  0.0513 -0.6193 -0.0857
  613MOL0     H82722   9.896   8.738   9.803  1.4956 -1.6134 -2.4939
  613MOL0     H82723   9.659   8.684   9.799  0.0266 -0.9574 -0.1425
  613MOL0     H82724   9.766   8.615   9.678 -0.9685  0.4353 -0.2479
  613MOL0     H82725   9.687   8.491   9.938 -0.2253  4.0440 -1.0127
  613MOL0     H82726   9.752   8.394   9.808  0.6312 -0.3669  2.0390
  613MOL0     H82727   9.534   8.445   9.672  1.8911 -1.9611 -0.0946
  613MOL0     H82728   9.484   8.521   9.817 -0.0934  1.2036 -2.0186
  613MOL0     H82729   9.421   8.281   9.766 -1.3873  2.0327  0.7616
  613MOL0     H82730   9.589   8.232   9.801 -1.7999 -1.0802 -1.7406
  613MOL0     H82731   9.415   8.367   9.990  2.3061  0.9957 -0.0278
  613MOL0     H82732   9.576   8.299  10.025 -0.1704  2.7752  0.3267
  613MOL0     H82733   9.319   8.150   9.933  0.3703 -0.9785  0.5963
  613MOL0     H82734   9.458   8.062   9.974  1.0222  0.3287 -1.3383
  613MOL0     H82735  10.210   8.822   9.899 -1.4274  0.2993 -2.2730
  613MOL0     H82736  10.440   8.836   9.810  0.7936 -1.6515  2.0855
  613MOL0     H82737  10.911   8.412   9.801 -1.3071  0.1657 -1.6069
  613MOL0     H82738  11.144   8.451   9.747 -1.9211  0.8894  1.9024
  613MOL0     H82739  10.758   9.207   9.681 -0.8730 -0.8223 -0.4926
  613MOL0     H82740  10.526   9.144   9.662  1.6175 -0.3586  0.3310
  613MOL0     H82741  10.256   8.819   9.595 -0.7445 -1.0425 -0.2493
  613MOL0     H82742  10.078   8.688   9.616 -0.9609  2.4317  0.3055
  613MOL0     H82743   9.812   8.425   9.370 -1.6028  1.9538  1.6105
  613MOL0     H82744   9.912   8.498   9.245  1.1995 -0.2884  0.9828
  613MOL0     H82745   9.665   8.551   9.233 -0.8461  0.3688 -0.8886
  613MOL0     H82746   9.757   8.693   9.233  2.5635 -2.5246 -1.5399
  613MOL0     H82747   9.702   8.732   9.478 -0.2770  0.4447  0.1437
  613MOL0     H82748   9.649   8.561   9.499  0.0558 -1.9287 -1.5038
  613MOL0     H82749   9.464   8.730   9.493  0.5823  0.8955 -0.3864
  613MOL0     H82750   9.535   8.780   9.342  3.1783  1.0170  1.6820
  613MOL0     H82751   9.304   8.403   9.270 -0.4395  1.6171 -2.0948
  613MOL0     H82752  10.023   8.664   9.193  1.7328 -1.5114 -0.5335
  613MOL0     H82753  10.312   8.816   9.084 -0.2726  3.1826 -2.2277
  613MOL0     H82754  10.132   8.795   9.053 -0.9509 -1.2261  0.9453
  613MOL0     H82755  10.207   8.945   9.093  0.3505 -0.7393 -2.5688
  614MOL0     O82756   1.916   3.338   9.677 -0.1410 -0.3915  0.0999
  614MOL0     C82757   2.014   3.283   9.633  0.2543  0.4707  0.1887
  614MOL0     O82758   2.122   3.334   9.589 -0.1861  0.0296  0.2024
  614MOL0     C82759   2.139   3.460   9.567 -0.6382 -1.0134 -0.1088
  614MOL0     C82760   2.051   3.550   9.513 -0.0435 -0.4180  0.1827
  614MOL0     C82761   2.095   3.686   9.499  0.4646 -0.2086 -0.3014
  614MOL0     C82762   2.221   3.729   9.536 -0.5094 -0.3801  0.4761
  614MOL0     O82763   2.266   3.863   9.525  0.4468  0.4554 -0.8616
  614MOL0     C82764   2.175   3.958   9.570 -0.4384 -0.1412 -0.1007
  614MOL0     C82765   2.153   3.951   9.727  0.3381 -0.2139 -0.1139
  614MOL0     C82766   2.064   4.067   9.782 -0.5577  0.8908 -0.7571
  614MOL0     C82767   2.159   4.177   9.838  0.2955  1.2557  0.6123
  614MOL0     C82768   2.070   4.300   9.869 -0.5144  0.0510 -0.0793
  614MOL0     C82769   2.141   4.404   9.949 -0.2215  0.2772  0.0601
  614MOL0     C82770   2.047   4.509   9.998 -0.4726 -0.1243 -0.0682
  614MOL0     C82771   1.975   4.591   9.896  0.0844  0.9904 -0.0442
  614MOL0     N82772   1.943   4.727   9.945 -0.4904 -0.4951  0.1538
  614MOL0     C82773   2.006   4.844   9.916  0.0197 -1.0227  0.1334
  614MOL0     C82774   1.934   4.939   9.974  0.6184 -0.4377  0.0443
  614MOL0     C82775   1.947   5.092   9.957 -0.5349  0.1632 -0.0688
  614MOL0     C82776   2.004   5.143  10.086 -0.3708 -0.7828 -0.8219
  614MOL0     C82777   2.022   5.290  10.111 -0.9838 -0.2611  0.7602
  614MOL0     C82778   1.888   5.363  10.110  0.1612 -0.7144  0.0930
  614MOL0     O82779   1.894   5.500  10.160  0.3361  0.6000  1.0397
  614MOL0     C82780   1.770   5.562  10.191  0.0782 -0.0265 -0.4734
  614MOL0     C82781   1.772   5.677  10.263 -0.1157 -0.7770  0.3503
  614MOL0     C82782   1.652   5.738  10.293 -0.0116 -0.2281 -0.5720
  614MOL0     C82783   1.527   5.677  10.264  0.5271 -0.5828 -0.0251
  614MOL0     C82784   1.405   5.750  10.303  1.0979  0.3405  0.3271
  614MOL0     O82785   1.296   5.719  10.227 -0.5647 -1.0580  0.1291
  614MOL0     C82786   1.172   5.756  10.270  0.6046 -0.1593 -0.7208
  614MOL0     C82787   1.082   5.815  10.179 -0.7977  0.0723 -0.0112
  614MOL0     C82788   0.955   5.850  10.215 -0.0349 -0.1832  0.0499
  614MOL0     C82789   0.905   5.817  10.347 -0.7054 -1.1425 -0.1935
  614MOL0     O82790   0.775   5.832  10.381 -0.4104 -0.0525  0.0725
  614MOL0     C82791   0.666   5.835  10.284  0.7546 -0.2177 -0.0865
  614MOL0     C82792   0.614   5.973  10.249  0.1657  0.4111 -0.5940
  614MOL0     C82793   0.539   5.958  10.128 -0.3826 -0.3792  1.1948
  614MOL0     C82794   0.624   5.972  10.002 -0.5035 -0.0135  0.0452
  614MOL0     C82795   0.723   6.087  10.004  0.2775  0.2161  0.3111
  614MOL0     C82796   0.763   6.115   9.861  0.2492  0.4840  0.6922
  614MOL0     C82797   0.862   6.232   9.842  0.1084  0.1136  0.0561
  614MOL0     C82798   0.976   6.246   9.940 -0.3129 -0.6748  1.4651
  614MOL0    Cl82799   1.080   6.101   9.956  0.2855  0.1708  0.1056
  614MOL0     C82800   0.989   5.760  10.439  0.7058  0.0666  0.8811
  614MOL0     C82801   1.122   5.723  10.397 -0.3540  0.0806  0.2944
  614MOL0     O82802   1.403   5.830  10.397 -0.0707 -0.1412  0.3383
  614MOL0     C82803   1.525   5.554  10.199 -0.6407 -0.9837  0.3858
  614MOL0     C82804   1.649   5.502  10.160 -0.3252  0.3959 -1.0247
  614MOL0     N82805   1.823   4.890  10.033 -0.3166  0.7457 -0.6696
  614MOL0     N82806   1.830   4.757  10.017  0.2233 -0.1459  0.1131
  614MOL0     C82807   2.316   3.636   9.574 -1.2181  0.2542  0.5507
  614MOL0     C82808   2.276   3.503   9.595 -0.1017 -0.0259  0.0499
  614MOL0     C82809   1.998   3.124   9.643 -0.2448  0.4608  0.5840
  614MOL0     C82810   2.087   3.052   9.557 -0.6501 -0.1950 -0.4155
  614MOL0     C82811   2.089   2.912   9.556  0.3747 -1.0448 -0.2586
  614MOL0     C82812   1.997   2.837   9.633 -0.8158  0.2980  0.3531
  614MOL0     O82813   2.000   2.699   9.616 -0.3458  0.3599  0.2708
  614MOL0     C82814   1.964   2.619   9.727 -0.1319 -0.2415 -0.4609
  614MOL0     C82815   2.018   2.486   9.706  0.0675  0.2415  1.3880
  614MOL0     C82816   1.934   2.394   9.619 -0.3333  0.5542 -0.0326
  614MOL0     C82817   1.925   2.442   9.473  0.2274  0.3785  0.0174
  614MOL0     C82818   1.826   2.356   9.424  0.1376  0.7789  0.8999
  614MOL0     C82819   1.755   2.265   9.389  0.3267  0.0782 -0.6290
  614MOL0     C82820   1.902   2.906   9.713  0.4241  0.1305  0.0529
  614MOL0     C82821   1.903   3.048   9.720  0.9815 -1.0446 -0.4903
  614MOL0     C82822   1.797   3.115   9.811  0.5150 -0.2006  0.8548
  614MOL0     H82823   1.949   3.519   9.494  0.1020 -0.3383 -0.7859
  614MOL0     H82824   2.020   3.758   9.468  0.1048 -0.4060  0.0995
  614MOL0     H82825   2.224   4.053   9.548  1.1989 -1.6205 -3.3960
  614MOL0     H82826   2.078   3.947   9.520 -0.9197 -3.5724  1.3026
  614MOL0     H82827   2.245   3.958   9.786 -0.6922 -0.4188  1.6001
  614MOL0     H82828   2.108   3.855   9.756  1.4303 -0.6128  0.3366
  614MOL0     H82829   2.006   4.022   9.864 -0.4952 -0.4028 -1.4032
  614MOL0     H82830   2.001   4.111   9.704  0.6229  0.8965 -1.7307
  614MOL0     H82831   2.206   4.138   9.930 -1.2104 -0.9418  0.5153
  614MOL0     H82832   2.233   4.201   9.761 -0.4792 -0.7412 -0.8296
  614MOL0     H82833   2.043   4.347   9.774  0.2000 -2.4505 -1.5845
  614MOL0     H82834   1.978   4.281   9.926 -1.0499  0.7636 -0.6842
  614MOL0     H82835   2.184   4.347  10.032 -0.3587 -1.3657 -0.9476
  614MOL0     H82836   2.223   4.445   9.889 -1.7673  2.9496 -0.3925
  614MOL0     H82837   2.111   4.567  10.064  2.0165 -2.0762 -0.6092
  614MOL0     H82838   1.978   4.449  10.059 -0.6843  0.6955  0.5168
  614MOL0     H82839   2.042   4.600   9.810 -0.0448  1.7294 -0.0733
  614MOL0     H82840   1.889   4.530   9.867 -0.0374  0.7059  0.8912
  614MOL0     H82841   2.089   4.853   9.847  0.2600 -2.2472  0.2424
  614MOL0     H82842   2.001   5.115   9.865 -0.9254 -3.6121 -1.3832
  614MOL0     H82843   1.849   5.136   9.940  0.2567  2.5881  1.1602
  614MOL0     H82844   1.944   5.106  10.169  2.0952 -3.7932 -0.2230
  614MOL0     H82845   2.101   5.094  10.087 -0.0434 -0.2309 -2.1807
  614MOL0     H82846   2.082   5.323  10.026  2.0443 -1.4401  2.2927
  614MOL0     H82847   2.082   5.313  10.200 -2.0657  1.0538  1.1727
  614MOL0     H82848   1.830   5.309  10.185  0.5084  1.0816  1.7258
  614MOL0     H82849   1.847   5.353  10.009 -1.3811  3.1543  0.1803
  614MOL0     H82850   1.867   5.729  10.268 -0.5828  0.0451  1.1860
  614MOL0     H82851   1.660   5.840  10.331 -2.0356 -0.4615  0.6411
  614MOL0     H82852   1.110   5.830  10.075 -1.6246  0.9669 -0.1178
  614MOL0     H82853   0.889   5.880  10.135 -1.7575 -2.1787  0.6260
  614MOL0     H82854   0.703   5.779  10.197 -0.1102 -2.3608  0.8437
  614MOL0     H82855   0.587   5.771  10.324  0.0018 -0.2736 -1.5912
  614MOL0     H82856   0.537   5.999  10.322 -0.2184  1.7360 -1.4414
  614MOL0     H82857   0.692   6.049  10.246  0.3659  0.2492  0.3851
  614MOL0     H82858   0.477   5.869  10.113 -1.3167  0.5875 -1.0585
  614MOL0     H82859   0.469   6.041  10.131  2.1277  1.8509  2.1118
  614MOL0     H82860   0.558   5.993   9.917  0.1016  2.6759  0.1604
  614MOL0     H82861   0.682   5.881   9.982 -0.3104  0.3599 -1.1870
  614MOL0     H82862   0.812   6.050  10.055 -0.0279 -2.7467 -1.1105
  614MOL0     H82863   0.691   6.183  10.045  0.8048  0.5623 -0.0573
  614MOL0     H82864   0.815   6.025   9.828  0.2943  0.8783 -0.3477
  614MOL0     H82865   0.678   6.137   9.797  0.2212 -0.7352  0.2963
  614MOL0     H82866   0.795   6.318   9.850 -2.6700 -1.9703  1.1306
  614MOL0     H82867   0.904   6.229   9.741  2.4289  0.6007  0.9492
  614MOL0     H82868   1.039   6.330   9.911  0.1025 -1.7426 -0.9342
  614MOL0     H82869   0.947   6.264  10.044 -0.1304 -1.2936  1.6310
  614MOL0     H82870   0.952   5.753  10.541 -1.0735  1.4308  0.3923
  614MOL0     H82871   1.186   5.685  10.476  0.9930  4.1477  1.4014
  614MOL0     H82872   1.435   5.497  10.181  0.7067 -3.8769  2.1380
  614MOL0     H82873   1.639   5.404  10.115  1.8630  0.0913 -0.9595
  614MOL0     H82874   2.414   3.681   9.587 -1.6645  1.5275 -0.2892
  614MOL0     H82875   2.343   3.434   9.646 -1.2753 -0.2115  1.4166
  614MOL0     H82876   2.149   3.115   9.494 -1.4671 -0.5279 -1.5797
  614MOL0     H82877   2.159   2.859   9.492  0.3023 -0.5444 -0.7670
  614MOL0     H82878   1.858   2.613   9.751 -0.2854  0.1898 -1.0120
  614MOL0     H82879   2.015   2.655   9.817 -3.0268 -0.0505  1.2070
  614MOL0     H82880   2.027   2.432   9.801 -0.5163 -2.0071  0.2512
  614MOL0     H82881   2.116   2.499   9.659 -1.1444  0.1970 -1.3429
  614MOL0     H82882   1.836   2.379   9.666 -0.4604  1.0704 -0.1231
  614MOL0     H82883   1.994   2.303   9.616  0.1155  0.8769 -0.9070
  614MOL0     H82884   1.897   2.548   9.468  1.3768  0.7199  0.5324
  614MOL0     H82885   2.021   2.438   9.422  0.5103  1.8240  0.3831
  614MOL0     H82886   1.674   2.196   9.379  0.4034 -0.5365  2.3117
  614MOL0     H82887   1.833   2.853   9.777  1.4007 -0.2328  0.8261
  614MOL0     H82888   1.705   3.139   9.756  1.6363  2.3606 -0.0500
  614MOL0     H82889   1.777   3.042   9.890 -1.6597 -0.0360  0.5383
  614MOL0     H82890   1.833   3.208   9.854  2.5663 -0.0471 -1.0174
  615MOL0     O82891   0.050   4.953   7.482 -0.3198  0.4028  0.0309
  615MOL0     C82892  -0.030   4.959   7.390 -0.1393  0.4235 -0.1591
  615MOL0     O82893  -0.001   4.994   7.267 -0.5994  0.5414  0.2140
  615MOL0     C82894   0.127   4.984   7.231 -0.2136 -0.4233 -0.0028
  615MOL0     C82895   0.174   4.859   7.205 -0.1437 -0.1105  0.3049
  615MOL0     C82896   0.305   4.834   7.189 -0.1561 -0.3509  0.3459
  615MOL0     C82897   0.402   4.933   7.190 -0.4129 -0.2694 -0.2221
  615MOL0     O82898   0.531   4.906   7.160  0.7617 -0.3127  0.8466
  615MOL0     C82899   0.617   4.889   7.268 -0.8695  0.5078 -0.8068
  615MOL0     C82900   0.761   4.861   7.230  0.1903 -0.4157  0.4621
  615MOL0     C82901   0.859   4.907   7.339 -0.0087 -0.5587 -0.1089
  615MOL0     C82902   1.002   4.898   7.302  0.4393  0.1881 -0.4359
  615MOL0     C82903   1.076   4.925   7.432 -0.4753 -0.1558 -0.2437
  615MOL0     C82904   1.223   4.904   7.444  0.9668  0.1763  0.7489
  615MOL0     C82905   1.311   5.012   7.384 -0.1202  0.4637 -0.1877
  615MOL0     C82906   1.458   4.970   7.396 -0.1561  0.8644 -0.3568
  615MOL0     N82907   1.542   5.076   7.345 -0.0005 -0.2183 -0.3309
  615MOL0     C82908   1.609   5.080   7.227 -0.3511  0.1050  1.0158
  615MOL0     C82909   1.709   5.174   7.240  0.0291  0.4894 -0.3756
  615MOL0     C82910   1.815   5.210   7.146 -0.7473 -0.5496  0.5270
  615MOL0     C82911   1.784   5.326   7.056 -0.2290 -1.1375  0.4002
  615MOL0     C82912   1.919   5.406   7.025 -0.0492  0.7863 -0.1252
  615MOL0     C82913   1.980   5.470   7.150 -0.1922 -0.0237  0.2641
  615MOL0     O82914   2.071   5.578   7.113 -0.0610  0.1243 -0.6828
  615MOL0     C82915   2.154   5.614   7.219  0.6452 -0.2721 -0.5524
  615MOL0     C82916   2.135   5.587   7.355  0.2667  0.3889  0.0716
  615MOL0     C82917   2.227   5.636   7.450  0.4043 -0.1355 -0.6094
  615MOL0     C82918   2.323   5.730   7.409 -0.4670  0.9089  0.2753
  615MOL0     C82919   2.401   5.807   7.509  0.3047  0.4302 -0.4813
  615MOL0     O82920   2.500   5.889   7.470 -0.0493 -0.3874 -0.0068
  615MOL0     C82921   2.593   5.940   7.562  0.9814  0.7586  0.6401
  615MOL0     C82922   2.727   5.905   7.552 -0.5792  0.0331  1.1056
  615MOL0     C82923   2.818   5.946   7.648 -0.8193 -0.1816  1.0639
  615MOL0     C82924   2.778   6.027   7.762 -0.3190 -0.6663 -0.0032
  615MOL0     O82925   2.852   6.065   7.872 -0.1414 -0.0926  0.1565
  615MOL0     C82926   2.992   6.083   7.852  0.7171  0.2438  0.5136
  615MOL0     C82927   3.072   5.941   7.878  1.3569  0.4598 -1.4796
  615MOL0     C82928   3.043   5.888   8.025  0.1397 -0.2466 -0.5154
  615MOL0     C82929   3.133   5.772   8.070  0.0630  1.1841  0.3634
  615MOL0     C82930   3.289   5.808   8.074  0.2027 -0.3512  0.7272
  615MOL0     C82931   3.371   5.691   8.139  0.3448 -0.7517  0.8532
  615MOL0     C82932   3.510   5.748   8.124  0.4309  0.5126 -0.4058
  615MOL0     C82933   3.603   5.660   8.194  0.7384  0.1419 -0.8657
  615MOL0    Cl82934   3.591   5.491   8.116  0.2848 -0.2666  0.1088
  615MOL0     C82935   2.645   6.056   7.767  0.3116 -0.2921  0.4292
  615MOL0     C82936   2.551   6.018   7.667  0.2643  0.7549 -0.2879
  615MOL0     O82937   2.381   5.766   7.629  0.1311  0.2881  0.2090
  615MOL0     C82938   2.342   5.755   7.275 -0.0353 -0.7399  0.4768
  615MOL0     C82939   2.258   5.701   7.183  0.6016  0.9130 -0.6275
  615MOL0     N82940   1.700   5.230   7.366 -0.3405  0.3061 -0.1963
  615MOL0     N82941   1.591   5.184   7.423 -0.0368 -0.1841  0.1916
  615MOL0     C82942   0.358   5.067   7.223  1.4702  0.5513 -0.4968
  615MOL0     C82943   0.218   5.091   7.241 -0.2477 -0.7917  0.5374
  615MOL0     C82944  -0.171   4.925   7.416 -0.7536  0.7732  0.5825
  615MOL0     C82945  -0.250   4.902   7.303 -0.0806  0.8207  0.2524
  615MOL0     C82946  -0.391   4.879   7.317 -0.3358  0.9205 -0.0881
  615MOL0     C82947  -0.445   4.876   7.448  0.2999  0.4788 -0.4868
  615MOL0     O82948  -0.571   4.852   7.479 -0.3651  0.3620 -0.1364
  615MOL0     C82949  -0.657   4.778   7.390  0.1151 -0.0411 -0.1651
  615MOL0     C82950  -0.792   4.776   7.463  0.3367 -0.0529 -0.3722
  615MOL0     C82951  -0.875   4.656   7.428  0.1726  0.0575  1.3030
  615MOL0     C82952  -1.011   4.630   7.493 -0.2290 -0.7145  0.3712
  615MOL0     C82953  -0.990   4.588   7.631  0.0287  0.0991  0.4147
  615MOL0     C82954  -0.992   4.567   7.748 -0.1309 -0.2954 -0.7901
  615MOL0     C82955  -0.361   4.893   7.559 -0.2289  0.6979 -0.0713
  615MOL0     C82956  -0.230   4.914   7.550 -0.5514 -0.0465  0.5223
  615MOL0     C82957  -0.156   4.958   7.675  0.2379  0.4779  0.1407
  615MOL0     H82958   0.092   4.787   7.199 -1.7881  1.7334 -0.3424
  615MOL0     H82959   0.339   4.732   7.176  2.7371  0.6059 -0.2590
  615MOL0     H82960   0.622   4.985   7.321  0.9688  0.4131 -0.7370
  615MOL0     H82961   0.584   4.806   7.331 -0.1946 -0.9176 -2.2636
  615MOL0     H82962   0.782   4.903   7.132  0.3958 -1.1268  0.1946
  615MOL0     H82963   0.770   4.752   7.221  1.7838 -0.3686  1.0498
  615MOL0     H82964   0.840   4.859   7.435 -0.0286  0.0926  0.2158
  615MOL0     H82965   0.860   5.015   7.354 -2.3267 -0.8915  3.6103
  615MOL0     H82966   1.020   4.797   7.264 -0.4727 -0.3473  0.5001
  615MOL0     H82967   1.033   4.973   7.228 -3.6556  0.4387 -2.1482
  615MOL0     H82968   1.057   5.032   7.450 -2.8973  0.2834 -4.1094
  615MOL0     H82969   1.033   4.864   7.511 -2.1232 -0.1468 -1.0885
  615MOL0     H82970   1.249   4.896   7.550 -1.3488  2.3537  1.5913
  615MOL0     H82971   1.252   4.811   7.396  4.5189  1.7119 -0.4549
  615MOL0     H82972   1.301   5.108   7.436  0.2525 -0.3977  1.5525
  615MOL0     H82973   1.292   5.037   7.279 -2.9128  0.6201  0.2622
  615MOL0     H82974   1.475   4.954   7.503  0.7094  1.1682 -0.4381
  615MOL0     H82975   1.491   4.884   7.337  0.6799  2.9302 -3.0631
  615MOL0     H82976   1.604   5.004   7.150  2.3341  0.0442  0.8085
  615MOL0     H82977   1.908   5.225   7.202 -0.5952  3.3216 -0.4872
  615MOL0     H82978   1.831   5.126   7.078  0.3708  0.5020 -0.5778
  615MOL0     H82979   1.726   5.295   6.969  0.6473 -3.4191  0.5666
  615MOL0     H82980   1.725   5.408   7.098  2.0826  1.8770 -1.7707
  615MOL0     H82981   1.885   5.488   6.960 -0.1930  1.0223  0.2434
  615MOL0     H82982   1.992   5.338   6.982  0.5713  0.2468  1.7350
  615MOL0     H82983   2.040   5.389   7.193 -0.0059 -1.6875 -2.8798
  615MOL0     H82984   1.898   5.507   7.212  1.2513  2.6125  0.7478
  615MOL0     H82985   2.050   5.527   7.386 -1.1708  1.8290 -0.8716
  615MOL0     H82986   2.201   5.620   7.555 -0.9383  1.6639 -0.6327
  615MOL0     H82987   2.747   5.856   7.457  2.5767 -0.2115  1.7811
  615MOL0     H82988   2.923   5.929   7.628 -0.6462  1.1846  0.6701
  615MOL0     H82989   3.007   6.113   7.748  1.8452 -0.0729  0.5717
  615MOL0     H82990   3.027   6.163   7.917 -1.3721  2.6784 -1.1488
  615MOL0     H82991   3.034   5.866   7.808  3.3015 -3.7253  1.4870
  615MOL0     H82992   3.178   5.961   7.859  2.4518 -2.5092  0.6270
  615MOL0     H82993   3.066   5.973   8.090 -1.2541  0.5198 -0.9754
  615MOL0     H82994   2.936   5.871   8.040 -0.3167  2.7067  0.3553
  615MOL0     H82995   3.117   5.686   8.004 -0.3252  0.1469  1.7677
  615MOL0     H82996   3.109   5.745   8.173  0.7897  0.2554  0.3072
  615MOL0     H82997   3.286   5.889   8.148 -4.7898  0.2965  0.1799
  615MOL0     H82998   3.324   5.840   7.976  1.3650 -2.0459  0.5491
  615MOL0     H82999   3.336   5.666   8.239 -1.4193  1.9762  1.0128
  615MOL0     H83000   3.354   5.606   8.072  0.2299 -0.5464  0.6198
  615MOL0     H83001   3.515   5.844   8.175 -0.3540 -0.4149  1.4923
  615MOL0     H83002   3.548   5.754   8.021  3.2454 -3.9423  0.0940
  615MOL0     H83003   3.709   5.688   8.184  0.8732  0.2294  0.5469
  615MOL0     H83004   3.588   5.662   8.302  1.0774  1.0995 -0.8255
  615MOL0     H83005   2.605   6.112   7.850  0.2738 -0.1110  0.2907
  615MOL0     H83006   2.448   6.048   7.676 -0.7138 -2.2609 -0.1542
  615MOL0     H83007   2.428   5.815   7.248 -0.8468  0.0822 -0.3293
  615MOL0     H83008   2.282   5.725   7.080  2.5959  0.5887 -0.2849
  615MOL0     H83009   0.426   5.151   7.215 -0.8402  2.3837 -2.7795
  615MOL0     H83010   0.183   5.192   7.259 -0.3466 -1.0362  1.7659
  615MOL0     H83011  -0.221   4.908   7.198 -1.8252 -1.0680 -0.3964
  615MOL0     H83012  -0.450   4.857   7.228  1.0472 -1.1860 -0.5418
  615MOL0     H83013  -0.605   4.681   7.392  1.7022  0.7918  1.3354
  615MOL0     H83014  -0.652   4.818   7.288 -1.0981 -0.1264 -0.2753
  615MOL0     H83015  -0.849   4.865   7.433  1.4527  0.1775 -1.9157
  615MOL0     H83016  -0.782   4.786   7.571  3.5764 -2.7118 -0.2837
  615MOL0     H83017  -0.813   4.566   7.435  1.9358  1.1919  1.1083
  615MOL0     H83018  -0.901   4.662   7.322 -1.0314 -5.2157  1.0038
  615MOL0     H83019  -1.075   4.719   7.492 -0.8770 -1.1568  0.9960
  615MOL0     H83020  -1.057   4.549   7.434  1.5010 -0.6208 -1.1755
  615MOL0     H83021  -0.992   4.539   7.851  1.1593 -1.5664 -1.1114
  615MOL0     H83022  -0.402   4.896   7.659 -1.0467  1.3994 -0.4119
  615MOL0     H83023  -0.225   4.954   7.759 -0.3570  3.7091 -0.0641
  615MOL0     H83024  -0.069   4.894   7.696 -0.5126 -1.1592 -1.4304
  615MOL0     H83025  -0.133   5.065   7.671 -0.5537  0.6323 -1.0240
  616MOL0     O83026  11.116   5.280   2.587 -0.2983 -0.6713 -0.0644
  616MOL0     C83027  11.062   5.329   2.489  0.0767  0.4758  0.0079
  616MOL0     O83028  11.119   5.369   2.370  0.0033  0.2574  0.1830
  616MOL0     C83029  11.237   5.315   2.330 -0.4391  0.0254  0.1701
  616MOL0     C83030  11.298   5.194   2.375 -0.5417  0.1893  0.7592
  616MOL0     C83031  11.429   5.154   2.336 -0.6339 -1.0169 -0.3729
  616MOL0     C83032  11.504   5.229   2.253  0.3228  0.0494 -0.0910
  616MOL0     O83033  11.628   5.184   2.205 -0.1827 -0.1586  0.7741
  616MOL0     C83034  11.722   5.132   2.294 -0.4189 -0.0125  0.6208
  616MOL0     C83035  11.757   5.250   2.389  0.2445  0.3143  0.1679
  616MOL0     C83036  11.801   5.382   2.321 -0.7008 -0.2536  0.2841
  616MOL0     C83037  11.943   5.368   2.272 -0.2594  0.0256 -0.1423
  616MOL0     C83038  11.993   5.497   2.210 -0.7543  0.2560 -0.3474
  616MOL0     C83039  12.053   5.610   2.305  0.2904 -0.2513 -0.9052
  616MOL0     C83040  12.161   5.577   2.407 -0.4106  0.1742  0.0561
  616MOL0     C83041  12.295   5.563   2.327  0.0095 -0.2181  0.3486
  616MOL0     N83042  12.406   5.503   2.417 -0.0655  0.6754  0.0287
  616MOL0     C83043  12.474   5.577   2.506  0.3947  0.2530  0.5584
  616MOL0     C83044  12.566   5.496   2.565  0.2352 -0.0188 -0.2663
  616MOL0     C83045  12.665   5.524   2.674 -0.9556 -0.3637  0.7247
  616MOL0     C83046  12.804   5.497   2.631 -0.4461 -0.3209 -0.2008
  616MOL0     C83047  12.845   5.564   2.498  0.3532  0.4205  0.2729
  616MOL0     C83048  12.980   5.521   2.451  0.4056  0.9922  0.1786
  616MOL0     O83049  13.077   5.553   2.555 -0.1018 -0.2797  0.1581
  616MOL0     C83050  13.210   5.523   2.531  0.7313 -0.1881  0.0848
  616MOL0     C83051  13.306   5.578   2.625 -0.0324 -0.1837 -0.0671
  616MOL0     C83052  13.448   5.576   2.607  0.1480  0.3079  0.4340
  616MOL0     C83053  13.498   5.505   2.497 -0.0751  0.8445  0.0463
  616MOL0     C83054  13.642   5.475   2.476  0.0739 -0.2901  0.3126
  616MOL0     O83055  13.681   5.383   2.385 -0.1959 -0.3658  1.1382
  616MOL0     C83056  13.808   5.387   2.345 -0.3228 -0.4167 -0.1349
  616MOL0     C83057  13.898   5.280   2.342  0.2835 -0.1294 -0.0225
  616MOL0     C83058  14.031   5.295   2.320  0.2107  0.2272  0.1556
  616MOL0     C83059  14.087   5.412   2.291 -0.4885 -1.3705 -0.7233
  616MOL0     O83060  14.225   5.423   2.272  0.0703  0.1246  0.3965
  616MOL0     C83061  14.283   5.500   2.376  0.4243 -0.8104  0.4200
  616MOL0     C83062  14.428   5.458   2.372 -0.5397 -0.1939  0.6750
  616MOL0     C83063  14.501   5.531   2.254 -0.1722 -0.1364  0.2225
  616MOL0     C83064  14.636   5.462   2.228 -0.9411  0.2515  0.4041
  616MOL0     C83065  14.736   5.526   2.326 -0.8489 -0.0732 -0.2574
  616MOL0     C83066  14.878   5.483   2.294  0.0774 -0.3516 -0.2074
  616MOL0     C83067  14.983   5.563   2.371 -0.0501 -0.1272 -0.1771
  616MOL0     C83068  15.124   5.496   2.374 -0.1531  0.1049  0.6724
  616MOL0    Cl83069  15.252   5.616   2.348  0.4800  0.1577 -0.2043
  616MOL0     C83070  13.999   5.525   2.276  0.0760 -0.2845 -0.1672
  616MOL0     C83071  13.860   5.509   2.299 -0.2510 -0.7080  0.1504
  616MOL0     O83072  13.717   5.548   2.547 -1.1131  0.1334  0.5008
  616MOL0     C83073  13.403   5.454   2.403  0.1870  0.7923 -0.7176
  616MOL0     C83074  13.261   5.466   2.420 -0.7323 -0.5490 -0.5353
  616MOL0     N83075  12.561   5.380   2.491 -0.2093  0.0103 -0.5817
  616MOL0     N83076  12.470   5.382   2.401 -0.0424  0.1306 -0.3485
  616MOL0     C83077  11.447   5.350   2.210 -0.2849  0.0631 -0.4932
  616MOL0     C83078  11.314   5.386   2.246 -0.1666  0.1614 -0.2276
  616MOL0     C83079  10.912   5.368   2.509 -0.4166 -0.6846 -0.7981
  616MOL0     C83080  10.856   5.372   2.644 -1.3093 -0.5134 -0.6522
  616MOL0     C83081  10.729   5.424   2.667  0.0185  0.3869  0.4422
  616MOL0     C83082  10.650   5.474   2.560 -0.2542  0.3099 -0.1315
  616MOL0     O83083  10.537   5.535   2.584  0.1637 -0.6517 -0.5329
  616MOL0     C83084  10.416   5.459   2.562 -0.0783 -0.6227 -0.0185
  616MOL0     C83085  10.311   5.464   2.676 -0.0925 -0.3959  0.0324
  616MOL0     C83086  10.236   5.605   2.665 -0.4866 -0.0584 -0.4762
  616MOL0     C83087  10.130   5.630   2.773  0.1492  0.7138 -0.8215
  616MOL0     C83088  10.183   5.645   2.906 -0.1530  0.4411 -0.0079
  616MOL0     C83089  10.213   5.637   3.017 -0.4404 -0.1326  0.1964
  616MOL0     C83090  10.701   5.459   2.432 -0.0432 -0.3339 -1.0786
  616MOL0     C83091  10.823   5.400   2.405  0.2455 -0.5465  0.6930
  616MOL0     C83092  10.863   5.398   2.255  0.3390 -0.3222 -0.3299
  616MOL0     H83093  11.242   5.134   2.446 -1.1081 -0.2009 -0.0072
  616MOL0     H83094  11.482   5.065   2.369 -0.2179 -0.0135  1.8775
  616MOL0     H83095  11.680   5.048   2.350 -0.3850 -1.0423 -0.8435
  616MOL0     H83096  11.812   5.085   2.253 -1.6514 -2.2881  0.3635
  616MOL0     H83097  11.833   5.222   2.462  0.9777  2.0211  0.1095
  616MOL0     H83098  11.675   5.282   2.453  0.9995  0.2347  1.1907
  616MOL0     H83099  11.802   5.468   2.388 -1.1300 -0.2066  0.2297
  616MOL0     H83100  11.741   5.408   2.234  0.0827  0.7687  0.0279
  616MOL0     H83101  12.004   5.348   2.361  1.1365  0.7307 -0.8958
  616MOL0     H83102  11.952   5.280   2.208  0.1737 -1.0278  1.3128
  616MOL0     H83103  12.071   5.469   2.138  1.1136  0.9074  1.3367
  616MOL0     H83104  11.910   5.537   2.150 -0.6288  0.9087 -0.0952
  616MOL0     H83105  12.080   5.702   2.252 -1.4957  0.4900 -0.6162
  616MOL0     H83106  11.973   5.636   2.375 -0.2003 -0.0551 -1.5274
  616MOL0     H83107  12.135   5.486   2.461 -1.2576  0.5544  0.3115
  616MOL0     H83108  12.172   5.657   2.481  1.8975  0.0518 -0.0881
  616MOL0     H83109  12.285   5.491   2.245 -1.4275  1.2337 -0.8172
  616MOL0     H83110  12.321   5.659   2.283 -2.2042  0.2761 -0.0068
  616MOL0     H83111  12.437   5.674   2.537  0.7761  1.7196 -3.0929
  616MOL0     H83112  12.672   5.632   2.690 -0.7941 -0.1750 -0.4849
  616MOL0     H83113  12.633   5.472   2.764 -0.7972 -2.2691 -0.2709
  616MOL0     H83114  12.876   5.528   2.708  0.3322 -1.7404 -0.3389
  616MOL0     H83115  12.819   5.389   2.621 -0.7533 -0.4995  1.0711
  616MOL0     H83116  12.853   5.672   2.511  2.4682  0.4318 -0.5993
  616MOL0     H83117  12.772   5.533   2.423 -0.4120  1.0720  0.7426
  616MOL0     H83118  13.000   5.564   2.352  1.6875 -2.4686 -1.2313
  616MOL0     H83119  12.977   5.413   2.438 -0.6716  0.8730  1.2960
  616MOL0     H83120  13.278   5.630   2.716 -0.2568 -1.6286  0.7331
  616MOL0     H83121  13.504   5.621   2.688 -2.3221  0.4789  2.1828
  616MOL0     H83122  13.857   5.186   2.377 -0.2914 -0.4578 -1.5041
  616MOL0     H83123  14.091   5.206   2.309  1.0424  0.5036  2.1285
  616MOL0     H83124  14.279   5.607   2.356  2.6902 -0.7646 -0.0418
  616MOL0     H83125  14.235   5.473   2.471 -1.2208 -1.7079 -0.6153
  616MOL0     H83126  14.476   5.490   2.465  0.0970  0.7307  0.0403
  616MOL0     H83127  14.429   5.349   2.374  0.7856 -0.3370 -2.2977
  616MOL0     H83128  14.438   5.543   2.165 -0.2502  1.1613  0.4293
  616MOL0     H83129  14.514   5.633   2.290  0.1975 -0.2074  0.2882
  616MOL0     H83130  14.673   5.483   2.127 -1.8869  5.9655  0.8754
  616MOL0     H83131  14.615   5.356   2.242  0.2867  0.1470  1.7233
  616MOL0     H83132  14.713   5.510   2.432  1.0692 -1.8068 -0.0258
  616MOL0     H83133  14.721   5.632   2.306  0.2385  0.1370 -0.0322
  616MOL0     H83134  14.893   5.378   2.317  2.2789  0.2094  1.1711
  616MOL0     H83135  14.890   5.490   2.185  2.8518 -0.4871  0.0239
  616MOL0     H83136  14.942   5.574   2.471 -2.2383  0.3240 -1.0611
  616MOL0     H83137  14.990   5.663   2.326  0.2369  0.0949  0.3604
  616MOL0     H83138  15.128   5.439   2.467 -2.4576 -2.1404 -0.4864
  616MOL0     H83139  15.124   5.421   2.294  0.9011  0.7265  0.0594
  616MOL0     H83140  14.053   5.614   2.244 -0.3366  0.9835  2.4354
  616MOL0     H83141  13.799   5.598   2.289 -0.0047 -0.6429 -0.9834
  616MOL0     H83142  13.449   5.399   2.321  1.0165  0.3712  0.0155
  616MOL0     H83143  13.187   5.425   2.352 -1.6212 -0.3714  0.3010
  616MOL0     H83144  11.495   5.418   2.141 -1.3121  2.9512  1.4698
  616MOL0     H83145  11.276   5.481   2.208  0.8243  1.1081  1.0571
  616MOL0     H83146  10.910   5.340   2.732 -0.4676  1.3120 -0.4529
  616MOL0     H83147  10.683   5.428   2.765 -1.6496  1.6252 -0.3394
  616MOL0     H83148  10.436   5.352   2.550 -0.8699 -0.6755 -1.0468
  616MOL0     H83149  10.378   5.486   2.463  0.9161 -0.5689 -0.4018
  616MOL0     H83150  10.358   5.455   2.775 -0.7455  0.5947  0.4457
  616MOL0     H83151  10.230   5.394   2.657  0.6196 -1.4667  0.8371
  616MOL0     H83152  10.183   5.608   2.570 -3.3733  2.0298  1.0412
  616MOL0     H83153  10.304   5.690   2.670 -0.0476 -0.4704  3.3196
  616MOL0     H83154  10.066   5.714   2.744  1.3046  1.9701  0.1332
  616MOL0     H83155  10.069   5.540   2.782 -0.9104  1.3947 -0.9124
  616MOL0     H83156  10.245   5.621   3.118  1.3418 -0.1492 -0.3446
  616MOL0     H83157  10.632   5.494   2.356 -2.1991 -2.7761 -0.3990
  616MOL0     H83158  10.910   5.304   2.226 -0.2523 -1.1599  1.2605
  616MOL0     H83159  10.775   5.404   2.191 -0.9179  0.9053  1.4004
  616MOL0     H83160  10.916   5.486   2.218 -0.8149  0.1860 -0.8052
  617MOL0     O83161   3.221   9.074   8.393 -0.4265  0.2152  0.3491
  617MOL0     C83162   3.177   9.032   8.287  0.8297 -1.1160 -0.2330
  617MOL0     O83163   3.249   9.024   8.178 -0.2938  0.2669  0.1739
  617MOL0     C83164   3.383   9.019   8.189  0.3292  0.2134  0.7337
  617MOL0     C83165   3.463   8.976   8.295 -0.7708  0.1304 -0.0959
  617MOL0     C83166   3.601   8.979   8.286 -0.8581  0.2119 -0.1830
  617MOL0     C83167   3.666   8.987   8.166  1.2700 -0.1077 -0.6460
  617MOL0     O83168   3.805   8.978   8.145 -0.0875 -0.4443 -0.2576
  617MOL0     C83169   3.884   8.906   8.241 -0.4368  0.3660 -0.4509
  617MOL0     C83170   4.013   8.879   8.170 -0.3214  0.4900  0.3502
  617MOL0     C83171   4.056   8.732   8.171 -0.8359  0.0122 -0.4998
  617MOL0     C83172   4.205   8.706   8.117  0.0416 -0.8667 -0.4220
  617MOL0     C83173   4.243   8.561   8.104  1.0673 -0.5693  0.0079
  617MOL0     C83174   4.394   8.551   8.106 -0.0817  0.3688 -0.4399
  617MOL0     C83175   4.447   8.407   8.099  1.0490 -0.2427 -0.3497
  617MOL0     C83176   4.425   8.330   7.966  0.4426  0.5883 -0.4687
  617MOL0     N83177   4.498   8.401   7.862  0.1474 -0.8618 -0.5771
  617MOL0     C83178   4.603   8.363   7.786 -0.1376 -0.4631  0.1970
  617MOL0     C83179   4.606   8.431   7.676  0.2812 -0.5482  0.5183
  617MOL0     C83180   4.703   8.422   7.560 -0.8387 -0.5237  0.3315
  617MOL0     C83181   4.834   8.351   7.592 -0.9040  0.1766 -0.1481
  617MOL0     C83182   4.929   8.407   7.703  1.1096 -0.9115 -0.1962
  617MOL0     C83183   5.018   8.530   7.648 -0.5880 -0.3439 -0.2936
  617MOL0     O83184   5.110   8.568   7.746  0.5188 -0.1915 -0.5023
  617MOL0     C83185   5.191   8.674   7.725  0.1383  0.0206 -1.5711
  617MOL0     C83186   5.297   8.703   7.815  0.3286  0.3848 -0.5273
  617MOL0     C83187   5.375   8.815   7.799 -0.3651  0.6530 -0.6631
  617MOL0     C83188   5.363   8.894   7.685  0.1810  0.1583 -1.2322
  617MOL0     C83189   5.453   9.016   7.664 -0.3614  0.3432  0.8791
  617MOL0     O83190   5.421   9.093   7.553 -0.4325  0.4303  0.6713
  617MOL0     C83191   5.489   9.208   7.514  0.5542  0.0059 -0.4608
  617MOL0     C83192   5.492   9.309   7.611 -0.8224  0.5687  0.0350
  617MOL0     C83193   5.571   9.421   7.573  0.7287  0.8571  0.5767
  617MOL0     C83194   5.635   9.431   7.447  0.2709  0.1792 -0.0740
  617MOL0     O83195   5.700   9.550   7.428  0.0336  0.4184  0.8061
  617MOL0     C83196   5.760   9.569   7.302  0.0401  0.4238  0.3677
  617MOL0     C83197   5.824   9.710   7.290  0.6371  1.2217  0.3097
  617MOL0     C83198   5.925   9.723   7.393 -0.6593  0.4993 -0.8977
  617MOL0     C83199   5.996   9.862   7.394 -0.7123  0.3730 -0.2476
  617MOL0     C83200   6.116   9.868   7.491 -0.4199  0.8282 -0.2846
  617MOL0     C83201   6.197   9.992   7.477 -0.4714 -0.0880 -0.0858
  617MOL0     C83202   6.152  10.085   7.593 -0.2747 -1.0102 -0.5827
  617MOL0     C83203   6.191  10.231   7.588  0.0181 -0.6026 -0.0506
  617MOL0    Cl83204   6.378  10.255   7.577  0.1157 -0.0687  0.2120
  617MOL0     C83205   5.609   9.333   7.351  0.0641  0.2938  0.6608
  617MOL0     C83206   5.548   9.220   7.386 -0.2510 -0.0135  0.1750
  617MOL0     O83207   5.542   9.042   7.749  0.3640  0.3857 -0.1758
  617MOL0     C83208   5.263   8.866   7.595 -0.5221  0.6804 -0.3887
  617MOL0     C83209   5.175   8.760   7.612 -1.0507 -0.3107 -0.2088
  617MOL0     N83210   4.500   8.523   7.686 -0.0838  0.0803 -0.2075
  617MOL0     N83211   4.435   8.500   7.792 -0.3415  0.0859 -0.4258
  617MOL0     C83212   3.588   9.032   8.056 -0.7104  1.0025  0.4366
  617MOL0     C83213   3.450   9.048   8.065 -0.0990  0.2863 -0.3468
  617MOL0     C83214   3.034   8.980   8.284  0.1269  0.1240  0.2441
  617MOL0     C83215   2.993   8.901   8.174 -0.4402  0.3983 -0.5344
  617MOL0     C83216   2.874   8.839   8.171 -0.4422  0.2687 -0.3362
  617MOL0     C83217   2.783   8.838   8.284  0.2660 -0.5770  0.9799
  617MOL0     O83218   2.658   8.778   8.287 -0.2614 -0.6595  0.0086
  617MOL0     C83219   2.582   8.757   8.169 -0.0423 -0.4861  0.1081
  617MOL0     C83220   2.447   8.834   8.185  0.3726  0.1339  0.7124
  617MOL0     C83221   2.477   8.984   8.185  0.8420  0.3820 -0.2175
  617MOL0     C83222   2.347   9.068   8.213 -0.6542 -0.1324  0.1609
  617MOL0     C83223   2.295   9.079   8.341 -0.9172  0.3004  1.2602
  617MOL0     C83224   2.243   9.105   8.448  0.1910 -0.4316 -0.0868
  617MOL0     C83225   2.825   8.910   8.398  0.5492 -0.2635  0.7413
  617MOL0     C83226   2.942   8.979   8.403 -1.2181  1.1706  0.7165
  617MOL0     C83227   2.967   9.050   8.538  0.7880 -0.1310  0.4759
  617MOL0     H83228   3.429   8.942   8.393  3.9736 -1.1598  1.3911
  617MOL0     H83229   3.663   8.947   8.368  0.3686  3.7973  0.4534
  617MOL0     H83230   3.907   8.964   8.331 -0.6082 -1.8821  1.1064
  617MOL0     H83231   3.832   8.812   8.259 -1.4244  1.0359  0.3441
  617MOL0     H83232   4.096   8.933   8.216 -0.1000 -0.1839  0.7472
  617MOL0     H83233   4.012   8.903   8.063 -0.2850  1.4645  0.5554
  617MOL0     H83234   3.985   8.675   8.111 -0.1045 -1.4159 -0.0524
  617MOL0     H83235   4.039   8.699   8.274 -1.8766 -1.0842 -1.0059
  617MOL0     H83236   4.222   8.755   8.021 -0.1467  1.3299  0.5957
  617MOL0     H83237   4.279   8.752   8.183 -0.9982 -1.8039  1.4775
  617MOL0     H83238   4.208   8.518   8.199  3.7433  0.8965  1.7993
  617MOL0     H83239   4.179   8.524   8.023  1.6878  0.7858 -1.1416
  617MOL0     H83240   4.433   8.614   8.025 -4.1315  1.5478 -1.7009
  617MOL0     H83241   4.443   8.587   8.197  1.0765 -1.3507 -0.3363
  617MOL0     H83242   4.384   8.346   8.164  1.5072  2.3462  2.8218
  617MOL0     H83243   4.554   8.402   8.121  1.0527  2.6711  0.8162
  617MOL0     H83244   4.466   8.230   7.984 -0.9564  0.2235  0.9642
  617MOL0     H83245   4.319   8.337   7.943  0.3097  1.7453  0.4266
  617MOL0     H83246   4.672   8.285   7.814  0.6452  0.4093  0.7582
  617MOL0     H83247   4.656   8.364   7.480 -1.8778 -0.8353  1.1485
  617MOL0     H83248   4.734   8.520   7.523  0.9158 -1.6305 -1.3780
  617MOL0     H83249   4.805   8.250   7.622  0.0584 -0.3627 -0.9480
  617MOL0     H83250   4.904   8.351   7.508  1.1265 -0.7463  1.4344
  617MOL0     H83251   5.003   8.329   7.722 -0.6425 -2.3220  1.1590
  617MOL0     H83252   4.879   8.439   7.795  1.5189  0.8977 -0.5635
  617MOL0     H83253   4.955   8.617   7.628 -2.4377 -1.8781 -1.4416
  617MOL0     H83254   5.066   8.492   7.557  1.0110 -0.0340  0.3782
  617MOL0     H83255   5.307   8.644   7.905 -1.0416  1.1397  0.1657
  617MOL0     H83256   5.441   8.839   7.882 -0.5695  2.0595 -0.8959
  617MOL0     H83257   5.440   9.292   7.704  0.7852 -0.0301  0.8674
  617MOL0     H83258   5.579   9.488   7.658 -2.9944  0.6444  1.2656
  617MOL0     H83259   5.826   9.482   7.292 -1.6440 -0.8878  0.1808
  617MOL0     H83260   5.692   9.559   7.217 -1.2838  0.3908  1.3900
  617MOL0     H83261   5.869   9.706   7.191 -1.9592  2.0938 -0.9768
  617MOL0     H83262   5.751   9.791   7.289  0.1526  0.7879 -0.9606
  617MOL0     H83263   5.874   9.721   7.490 -0.0481  0.5441 -0.5736
  617MOL0     H83264   5.999   9.643   7.397 -2.1682 -1.0199 -1.8823
  617MOL0     H83265   5.922   9.937   7.422 -0.7571  0.2261  0.0345
  617MOL0     H83266   6.025   9.884   7.291  3.0533 -0.1567  0.5493
  617MOL0     H83267   6.194   9.798   7.460 -0.1426  0.0775  1.9364
  617MOL0     H83268   6.076   9.852   7.592  0.8225 -1.9355 -0.1532
  617MOL0     H83269   6.304   9.968   7.488  0.1030  2.3057 -0.0390
  617MOL0     H83270   6.183  10.048   7.385  0.5051 -0.0519 -0.2297
  617MOL0     H83271   6.186  10.045   7.689 -0.6254  1.8019  0.8163
  617MOL0     H83272   6.042  10.084   7.592 -0.3717  0.1158  1.6692
  617MOL0     H83273   6.138  10.280   7.506 -1.9011 -1.7805  0.4131
  617MOL0     H83274   6.154  10.271   7.682  1.7777  0.9339  0.0543
  617MOL0     H83275   5.639   9.347   7.248 -0.9518  0.1819  0.3321
  617MOL0     H83276   5.542   9.139   7.313 -2.2548  1.0171 -0.8999
  617MOL0     H83277   5.254   8.928   7.507  2.1624  0.0528 -1.1935
  617MOL0     H83278   5.110   8.739   7.528 -0.9880 -5.6302  0.7141
  617MOL0     H83279   3.647   9.050   7.967  1.0708 -1.6570  0.9813
  617MOL0     H83280   3.396   9.077   7.976  2.1422  1.7246 -1.3284
  617MOL0     H83281   3.058   8.882   8.089  0.6137 -0.7208  0.4787
  617MOL0     H83282   2.847   8.781   8.083  0.7704  1.0077 -1.2336
  617MOL0     H83283   2.569   8.648   8.167 -0.0825 -0.5048  0.8869
  617MOL0     H83284   2.633   8.782   8.076 -0.4506 -0.6145 -0.1514
  617MOL0     H83285   2.403   8.803   8.281  2.7706 -3.7224  0.7875
  617MOL0     H83286   2.383   8.814   8.099 -0.6259 -2.1180  1.8659
  617MOL0     H83287   2.502   9.008   8.081 -0.3176 -0.4662 -0.7148
  617MOL0     H83288   2.562   9.014   8.247  1.1333 -0.9837  0.0619
  617MOL0     H83289   2.376   9.168   8.179 -1.4900  1.0409  2.6399
  617MOL0     H83290   2.264   9.026   8.156 -2.3576  1.5142  1.2828
  617MOL0     H83291   2.217   9.117   8.551 -1.2745 -2.4094 -0.1622
  617MOL0     H83292   2.758   8.905   8.483 -3.0965  2.5526 -1.6719
  617MOL0     H83293   3.041   8.989   8.590  0.3119 -2.0496 -0.9874
  617MOL0     H83294   2.995   9.154   8.517 -1.4745  0.6663  1.1412
  617MOL0     H83295   2.880   9.057   8.603  0.1170  1.2266 -0.5006
  618MOL0     O83296   9.688   1.992   9.630  0.4374 -0.1152 -0.3035
  618MOL0     C83297   9.635   1.881   9.655 -0.4664  0.0161 -0.7760
  618MOL0     O83298   9.691   1.761   9.629 -0.2746 -0.0209 -0.5246
  618MOL0     C83299   9.831   1.762   9.615  0.6309  0.2665 -1.2809
  618MOL0     C83300   9.893   1.758   9.491  0.1361  0.2802 -1.1286
  618MOL0     C83301  10.033   1.745   9.490 -0.2797  0.0938 -0.7780
  618MOL0     C83302  10.108   1.725   9.605 -0.0042 -0.0498 -0.7291
  618MOL0     O83303  10.252   1.722   9.601  0.0273  0.4809  0.1397
  618MOL0     C83304  10.308   1.781   9.486  0.3631 -0.1187  0.5608
  618MOL0     C83305  10.462   1.759   9.491 -0.3260  0.1286 -0.2836
  618MOL0     C83306  10.530   1.832   9.608  0.2817  0.2169  0.0388
  618MOL0     C83307  10.680   1.822   9.596 -0.5165  0.0777  0.0542
  618MOL0     C83308  10.758   1.884   9.710  0.8797  0.0128 -0.1833
  618MOL0     C83309  10.911   1.860   9.699 -0.1650  0.5565  0.0888
  618MOL0     C83310  10.975   1.971   9.778  0.0580  0.2978  0.7115
  618MOL0     C83311  11.135   1.963   9.792  1.4473 -0.3945 -0.0341
  618MOL0     N83312  11.185   1.987   9.660  0.4109 -0.4550 -0.2360
  618MOL0     C83313  11.207   1.887   9.565 -0.0357  0.2660 -0.2444
  618MOL0     C83314  11.300   1.930   9.486 -0.1713  0.1169  0.3405
  618MOL0     C83315  11.370   1.849   9.379 -0.4832  0.5329 -0.0783
  618MOL0     C83316  11.523   1.843   9.377 -0.7109 -0.3186  0.1291
  618MOL0     C83317  11.587   1.784   9.254 -0.1488  0.0315  0.5456
  618MOL0     C83318  11.734   1.808   9.244  0.0568  0.1925 -0.8368
  618MOL0     O83319  11.784   1.745   9.358 -0.4374  0.0694 -0.0560
  618MOL0     C83320  11.925   1.756   9.375  0.3171  0.2148 -0.9955
  618MOL0     C83321  12.011   1.831   9.298  0.4133 -0.4975 -0.1382
  618MOL0     C83322  12.140   1.855   9.347 -0.0822  0.1843  0.2729
  618MOL0     C83323  12.187   1.786   9.458  0.4285 -0.2837  0.4985
  618MOL0     C83324  12.329   1.794   9.502  0.6966 -0.1028 -0.1263
  618MOL0     O83325  12.410   1.892   9.452 -0.4053 -0.9693  0.8821
  618MOL0     C83326  12.538   1.916   9.503 -0.2049  0.5916  0.1730
  618MOL0     C83327  12.580   2.051   9.528 -0.2826 -0.1022  0.4508
  618MOL0     C83328  12.707   2.077   9.568 -0.2502  0.8469 -1.0719
  618MOL0     C83329  12.805   1.977   9.579  0.9044  0.4880 -0.5931
  618MOL0     O83330  12.932   2.003   9.611  0.0816 -0.3003  0.2951
  618MOL0     C83331  12.982   1.927   9.723 -0.2686  0.7594 -0.0673
  618MOL0     C83332  13.121   1.975   9.774  0.2407  0.6123 -0.1935
  618MOL0     C83333  13.229   1.982   9.672 -0.6842 -0.2699  0.6815
  618MOL0     C83334  13.358   1.999   9.749  0.5281  0.1687  0.5085
  618MOL0     C83335  13.491   2.005   9.680 -1.7212 -0.6497  0.0268
  618MOL0     C83336  13.529   2.146   9.615 -1.1848 -0.8898  0.3676
  618MOL0     C83337  13.690   2.147   9.601 -0.2069  0.2954 -0.0228
  618MOL0     C83338  13.742   2.200   9.477 -0.5285  0.8152  0.3012
  618MOL0    Cl83339  13.705   2.087   9.347  0.0718 -0.3953  0.3316
  618MOL0     C83340  12.766   1.849   9.542  0.3500  0.2309 -0.3302
  618MOL0     C83341  12.639   1.817   9.505  0.3295  0.6854  0.3879
  618MOL0     O83342  12.361   1.712   9.597  0.1109  0.3525 -0.3984
  618MOL0     C83343  12.099   1.701   9.534  0.7794  0.1384  0.8676
  618MOL0     C83344  11.968   1.687   9.494 -0.0713  0.0643 -1.0608
  618MOL0     N83345  11.331   2.061   9.508  1.1325 -0.0937  0.5788
  618MOL0     N83346  11.257   2.093   9.613 -1.0650 -0.4164  0.5447
  618MOL0     C83347  10.043   1.733   9.726 -0.4646  0.5042  0.7521
  618MOL0     C83348   9.904   1.742   9.732  0.2637  0.4527  0.2866
  618MOL0     C83349   9.491   1.874   9.693 -0.0935  0.1692 -1.0230
  618MOL0     C83350   9.434   1.746   9.712  0.5884 -0.3759  0.7151
  618MOL0     C83351   9.300   1.731   9.746 -0.4314 -0.6438  0.2449
  618MOL0     C83352   9.222   1.848   9.773  0.2280  0.4321 -0.7141
  618MOL0     O83353   9.099   1.837   9.840  0.1983  0.6857 -0.6380
  618MOL0     C83354   9.046   1.710   9.888  0.5479 -0.0919  0.6702
  618MOL0     C83355   8.930   1.743   9.983 -0.5944  0.4240 -0.2874
  618MOL0     C83356   8.830   1.842   9.929  0.0139  0.5730  0.1746
  618MOL0     C83357   8.683   1.823   9.980  0.6050 -0.0079 -0.2309
  618MOL0     C83358   8.669   1.850  10.126 -0.2323 -0.2362  0.6133
  618MOL0     C83359   8.649   1.880  10.242  0.0072 -0.5433  0.8481
  618MOL0     C83360   9.277   1.974   9.760 -0.6103  0.7257  0.3010
  618MOL0     C83361   9.408   1.986   9.717  0.2082 -0.8221  0.2671
  618MOL0     C83362   9.453   2.134   9.718  0.1518 -0.5019  0.5227
  618MOL0     H83363   9.841   1.764   9.396 -0.5256 -1.7853 -0.9504
  618MOL0     H83364  10.075   1.748   9.390 -1.4014  2.7320 -1.2467
  618MOL0     H83365  10.273   1.720   9.402  0.8510  0.1090  0.1842
  618MOL0     H83366  10.284   1.888   9.491  1.2826  0.1460 -0.2062
  618MOL0     H83367  10.506   1.794   9.397  2.1957  0.4379  0.9211
  618MOL0     H83368  10.480   1.652   9.504 -0.3784  0.3730  2.2293
  618MOL0     H83369  10.502   1.786   9.703  0.8258  2.1855  1.2242
  618MOL0     H83370  10.494   1.935   9.611 -3.5882 -0.8708 -2.1607
  618MOL0     H83371  10.695   1.713   9.599 -2.7376 -0.2661  0.7396
  618MOL0     H83372  10.717   1.869   9.505  1.1673  0.4042  0.8747
  618MOL0     H83373  10.732   1.990   9.712 -0.4221 -0.2566 -1.0979
  618MOL0     H83374  10.724   1.851   9.809 -0.5794  3.0416  0.4266
  618MOL0     H83375  10.952   1.764   9.733 -0.8556 -0.5095 -1.9259
  618MOL0     H83376  10.948   1.862   9.596  0.6390 -1.2054  0.3134
  618MOL0     H83377  10.934   1.968   9.879 -0.1034  1.7789  0.7123
  618MOL0     H83378  10.946   2.067   9.733 -1.1239 -0.5235 -0.3438
  618MOL0     H83379  11.175   2.032   9.868  0.1345 -0.4042  0.7086
  618MOL0     H83380  11.159   1.865   9.833  0.6917 -0.0331  1.3714
  618MOL0     H83381  11.166   1.787   9.568  2.1570 -0.7115 -0.9821
  618MOL0     H83382  11.335   1.746   9.363  3.5890 -0.5511 -4.1294
  618MOL0     H83383  11.353   1.910   9.290 -3.2287 -0.0443 -0.0353
  618MOL0     H83384  11.556   1.945   9.399 -0.2373 -0.4979  0.2731
  618MOL0     H83385  11.562   1.782   9.459  1.3955  2.2726  1.2052
  618MOL0     H83386  11.548   1.827   9.162  1.9665 -1.0022 -0.9182
  618MOL0     H83387  11.570   1.676   9.247 -0.8448  0.1653  0.0089
  618MOL0     H83388  11.743   1.916   9.253 -2.1573  0.5551 -2.3189
  618MOL0     H83389  11.786   1.768   9.155  1.9134  0.9066 -0.1277
  618MOL0     H83390  11.982   1.878   9.205 -1.0446  1.4811  1.2240
  618MOL0     H83391  12.210   1.917   9.293  0.3929 -1.6840 -1.4000
  618MOL0     H83392  12.507   2.129   9.513  0.6299  0.5288 -0.9289
  618MOL0     H83393  12.741   2.178   9.590  0.9932  0.2183  0.0132
  618MOL0     H83394  12.904   1.948   9.797 -0.7666 -1.2200  0.0258
  618MOL0     H83395  12.980   1.824   9.688 -1.9146 -0.4633  3.2349
  618MOL0     H83396  13.102   2.075   9.816 -0.6971 -0.7604  2.9893
  618MOL0     H83397  13.155   1.912   9.857  0.3053 -0.2277 -0.8513
  618MOL0     H83398  13.242   1.888   9.617  0.1604  0.4534 -0.3841
  618MOL0     H83399  13.210   2.059   9.597  1.5153 -0.1631  0.1713
  618MOL0     H83400  13.378   1.917   9.818  0.8026 -1.4769 -1.4155
  618MOL0     H83401  13.357   2.094   9.803 -1.1550  1.9272 -2.4024
  618MOL0     H83402  13.490   1.926   9.604 -0.3147 -0.0998 -0.5896
  618MOL0     H83403  13.563   1.989   9.761 -3.4987 -1.4456  1.5358
  618MOL0     H83404  13.481   2.151   9.517 -0.1119 -1.0933 -0.1779
  618MOL0     H83405  13.491   2.230   9.675 -0.1711 -0.1739  0.0249
  618MOL0     H83406  13.727   2.045   9.599  3.0175  1.3359 -2.7235
  618MOL0     H83407  13.731   2.205   9.684  3.1416 -0.0772 -1.2551
  618MOL0     H83408  13.694   2.295   9.452 -3.8063 -1.3128 -2.4039
  618MOL0     H83409  13.849   2.221   9.489 -0.8654  2.0870  1.3660
  618MOL0     H83410  12.837   1.767   9.532  0.5796  0.2493  0.9741
  618MOL0     H83411  12.616   1.718   9.467  1.9326  0.2418  0.4936
  618MOL0     H83412  12.133   1.655   9.626 -2.2383 -3.0882  0.5794
  618MOL0     H83413  11.904   1.635   9.565  1.1824  0.8199  0.6927
  618MOL0     H83414  10.104   1.723   9.815  0.4416 -1.3764 -0.0383
  618MOL0     H83415   9.853   1.730   9.827  2.2768 -1.9949  1.1660
  618MOL0     H83416   9.491   1.655   9.692 -0.1970 -0.3215 -2.3357
  618MOL0     H83417   9.263   1.632   9.768 -1.5705 -0.3812 -0.4234
  618MOL0     H83418   9.110   1.655   9.958  0.2554  0.1705  1.1479
  618MOL0     H83419   9.014   1.645   9.805 -0.0440 -0.9203  1.5181
  618MOL0     H83420   8.971   1.786  10.074  1.0546 -0.9217 -0.3362
  618MOL0     H83421   8.880   1.647   9.997 -0.1315  0.4172  1.5276
  618MOL0     H83422   8.817   1.845   9.820  1.2281  1.5171  0.0400
  618MOL0     H83423   8.864   1.942   9.956  0.4515  0.3852  0.3346
  618MOL0     H83424   8.620   1.890   9.921  3.1142  1.3055 -1.6106
  618MOL0     H83425   8.646   1.721   9.966  0.4466 -0.0033  0.1336
  618MOL0     H83426   8.620   1.918  10.338 -0.3957  0.0221  0.5127
  618MOL0     H83427   9.209   2.053   9.790  0.1817  1.5097  0.0796
  618MOL0     H83428   9.370   2.189   9.765  0.2995 -0.2716  0.5134
  618MOL0     H83429   9.543   2.154   9.776 -0.3098 -1.8339  1.7582
  618MOL0     H83430   9.474   2.171   9.618 -0.4917 -1.6684 -0.0641
  619MOL0     O83431   8.848   8.407   9.448  0.9775  0.2893  0.3862
  619MOL0     C83432   8.836   8.286   9.487  0.4658 -1.1085 -0.0179
  619MOL0     O83433   8.901   8.236   9.601  0.7079  0.7600 -0.5768
  619MOL0     C83434   8.977   8.314   9.683 -0.3533  0.6480 -0.6840
  619MOL0     C83435   9.096   8.384   9.650  0.8455  0.2485 -0.0349
  619MOL0     C83436   9.173   8.467   9.744  0.1964  0.0665  1.0345
  619MOL0     C83437   9.132   8.483   9.875  0.7915 -0.1885  0.1307
  619MOL0     O83438   9.211   8.568   9.940 -0.2916 -0.0222 -0.3157
  619MOL0     C83439   9.170   8.598  10.076  0.7912 -0.3577  0.5586
  619MOL0     C83440   9.280   8.686  10.144  0.4159 -0.6540  0.2599
  619MOL0     C83441   9.423   8.618  10.145 -0.1438 -0.3944  0.6307
  619MOL0     C83442   9.529   8.703  10.224  0.5861 -0.8073 -0.0775
  619MOL0     C83443   9.666   8.641  10.236 -0.2181  0.2845  0.4782
  619MOL0     C83444   9.768   8.740  10.292  0.3601  0.3746  0.4803
  619MOL0     C83445   9.900   8.657  10.284 -0.6607  0.1651 -0.3558
  619MOL0     C83446  10.019   8.744  10.343 -0.3392  0.0028 -0.8732
  619MOL0     N83447  10.144   8.669  10.353 -0.0324 -0.8822  0.2055
  619MOL0     C83448  10.239   8.677  10.261 -0.3027 -0.4145 -0.7285
  619MOL0     C83449  10.332   8.586  10.291  0.5294  0.1526 -0.5390
  619MOL0     C83450  10.436   8.531  10.192 -0.5075 -0.9429 -0.8263
  619MOL0     C83451  10.573   8.533  10.261  0.6006  0.0248  0.4386
  619MOL0     C83452  10.684   8.580  10.163  0.2389 -0.4565  0.3651
  619MOL0     C83453  10.832   8.545  10.197  0.7519 -0.8303 -0.0348
  619MOL0     O83454  10.920   8.620  10.114 -0.1201  0.0028  0.0467
  619MOL0     C83455  11.053   8.597  10.131  0.5280  0.6778  0.5101
  619MOL0     C83456  11.116   8.476  10.095 -0.0745  0.5882 -0.2348
  619MOL0     C83457  11.251   8.456  10.108  0.7089 -1.0217  0.2652
  619MOL0     C83458  11.336   8.548  10.163  0.1338 -0.5082  0.2800
  619MOL0     C83459  11.478   8.530  10.179 -0.0620 -0.3362  0.1825
  619MOL0     O83460  11.535   8.417  10.136 -0.4024 -0.9023  0.0370
  619MOL0     C83461  11.670   8.408  10.165  0.5735 -0.2257  1.2521
  619MOL0     C83462  11.776   8.456  10.082 -0.2454 -0.1628  0.2700
  619MOL0     C83463  11.909   8.449  10.125 -1.0214  0.3910 -0.0777
  619MOL0     C83464  11.940   8.393  10.250 -0.1594  0.1828  0.1063
  619MOL0     O83465  12.068   8.383  10.303  0.0879 -0.6303 -0.0541
  619MOL0     C83466  12.139   8.510  10.292  0.1299  0.4927 -0.1897
  619MOL0     C83467  12.268   8.513  10.374  0.2015  1.5748 -0.0067
  619MOL0     C83468  12.328   8.655  10.382 -0.6885  0.4885  0.1737
  619MOL0     C83469  12.432   8.671  10.497 -0.1570 -0.5932  0.1723
  619MOL0     C83470  12.538   8.567  10.480 -0.6656  0.5107  0.1333
  619MOL0     C83471  12.657   8.576  10.575 -1.3665 -0.9813 -0.3471
  619MOL0     C83472  12.734   8.707  10.574  0.1348 -0.5276  0.2420
  619MOL0     C83473  12.840   8.692  10.689  0.1964  0.6048 -0.3468
  619MOL0    Cl83474  12.944   8.835  10.691 -0.2018  0.0257  0.3298
  619MOL0     C83475  11.837   8.329  10.321  0.0248  0.1817 -0.1958
  619MOL0     C83476  11.707   8.334  10.279  0.6143 -0.0674 -1.1486
  619MOL0     O83477  11.541   8.625  10.231 -0.3843  0.3313  0.0496
  619MOL0     C83478  11.275   8.669  10.203  0.4866 -0.8178 -0.6364
  619MOL0     C83479  11.137   8.697  10.180 -0.3296  0.2496  1.0103
  619MOL0     N83480  10.287   8.522  10.403 -0.2696  0.6883  0.2273
  619MOL0     N83481  10.175   8.569  10.448  0.4068  0.0289  0.2009
  619MOL0     C83482   9.021   8.405   9.910 -0.5485 -0.0301  0.0049
  619MOL0     C83483   8.940   8.328   9.821  0.3535 -0.5752  0.4588
  619MOL0     C83484   8.753   8.190   9.413  0.3351  0.0734 -0.4880
  619MOL0     C83485   8.652   8.118   9.482 -0.9332  0.4745  0.3768
  619MOL0     C83486   8.560   8.047   9.414  0.5655  0.2203  0.8590
  619MOL0     C83487   8.561   8.041   9.275  0.2030 -0.4645 -0.4628
  619MOL0     O83488   8.454   7.971   9.221 -0.3137  0.1591 -0.2755
  619MOL0     C83489   8.402   8.006   9.091 -0.4496 -0.5053  0.0239
  619MOL0     C83490   8.264   7.942   9.073 -0.1220 -0.4737 -0.4356
  619MOL0     C83491   8.233   7.929   8.930  0.5659 -0.1641  0.9275
  619MOL0     C83492   8.094   7.852   8.925  0.2819  0.0933  0.5665
  619MOL0     C83493   8.045   7.851   8.786  0.1774 -0.1803  0.4209
  619MOL0     C83494   8.017   7.862   8.669  0.8370 -0.1502  0.1343
  619MOL0     C83495   8.651   8.118   9.203  0.0309  0.4037  0.3087
  619MOL0     C83496   8.748   8.194   9.267 -0.3051 -0.1960  0.2990
  619MOL0     C83497   8.846   8.267   9.191  0.1736  0.2162  0.6328
  619MOL0     H83498   9.133   8.388   9.548 -0.7549  0.4744 -0.6366
  619MOL0     H83499   9.254   8.532   9.713 -0.3549  0.5995  0.6951
  619MOL0     H83500   9.071   8.645  10.078 -1.2464 -4.2523  0.9898
  619MOL0     H83501   9.158   8.507  10.135 -0.3529 -0.3356  0.3716
  619MOL0     H83502   9.240   8.681  10.245  0.8677 -3.4329  0.3796
  619MOL0     H83503   9.280   8.790  10.109  0.4318 -1.5457 -2.6720
  619MOL0     H83504   9.455   8.591  10.044  2.0531 -1.2163  1.4863
  619MOL0     H83505   9.408   8.522  10.197  2.7145 -1.9654 -1.2134
  619MOL0     H83506   9.533   8.806  10.187  1.7815  0.5998  3.4767
  619MOL0     H83507   9.496   8.703  10.329  0.2778 -2.9516 -0.1289
  619MOL0     H83508   9.667   8.554  10.303  1.6200  0.0367  0.1774
  619MOL0     H83509   9.702   8.601  10.141  0.0697 -2.6463  1.7019
  619MOL0     H83510   9.783   8.826  10.225  2.8863  0.6634  1.2953
  619MOL0     H83511   9.747   8.773  10.394 -1.8003  0.2782  0.1106
  619MOL0     H83512   9.925   8.629  10.181 -0.4805  0.5703 -0.4268
  619MOL0     H83513   9.897   8.567  10.346  1.9282  0.2535  0.0061
  619MOL0     H83514  10.040   8.830  10.279  0.1452  0.9661  0.5273
  619MOL0     H83515   9.997   8.755  10.449 -0.9202 -3.6772 -0.4643
  619MOL0     H83516  10.247   8.741  10.174 -2.8317  0.3883 -0.4582
  619MOL0     H83517  10.412   8.427  10.167  0.4877 -1.0039 -1.5629
  619MOL0     H83518  10.437   8.596  10.104  1.1429  1.1499  0.6143
  619MOL0     H83519  10.577   8.601  10.346  0.0000  0.5602  0.0434
  619MOL0     H83520  10.593   8.435  10.306 -0.5683  0.4028  1.8649
  619MOL0     H83521  10.678   8.689  10.157 -0.5350 -0.3530  2.4093
  619MOL0     H83522  10.675   8.535  10.063  2.3352  0.6886 -0.3944
  619MOL0     H83523  10.848   8.439  10.176 -0.4635 -0.8089 -1.2459
  619MOL0     H83524  10.853   8.559  10.304  1.0670 -0.9465 -0.0792
  619MOL0     H83525  11.058   8.393  10.058 -0.7643  1.3703 -0.9374
  619MOL0     H83526  11.285   8.359  10.072  0.6262 -1.5757  1.6325
  619MOL0     H83527  11.751   8.507   9.989 -0.1960 -1.1175 -0.2811
  619MOL0     H83528  11.993   8.492  10.071  0.7484 -1.8739  0.6884
  619MOL0     H83529  12.167   8.529  10.188 -2.0956  1.8701 -0.6128
  619MOL0     H83530  12.081   8.594  10.332 -0.0226  0.2377  0.1319
  619MOL0     H83531  12.247   8.485  10.478 -1.2928  0.3868 -0.5904
  619MOL0     H83532  12.340   8.439  10.340 -1.6877 -0.6627  0.6002
  619MOL0     H83533  12.385   8.672  10.290  0.2006  1.0240  0.8076
  619MOL0     H83534  12.252   8.733  10.388  0.6429  2.0485 -1.7806
  619MOL0     H83535  12.380   8.655  10.592  2.5860  0.1013  1.8991
  619MOL0     H83536  12.474   8.772  10.497  0.6077 -0.8821 -1.4191
  619MOL0     H83537  12.571   8.568  10.376 -2.6102 -2.3697 -0.6432
  619MOL0     H83538  12.494   8.468  10.493  1.2701 -0.2901  1.0041
  619MOL0     H83539  12.630   8.554  10.679  1.1889 -1.3599  0.3064
  619MOL0     H83540  12.737   8.502  10.564 -0.8655 -0.4554 -0.2519
  619MOL0     H83541  12.670   8.793  10.598 -0.3484 -0.7383 -0.3027
  619MOL0     H83542  12.780   8.723  10.476  0.9520  0.2723  0.7387
  619MOL0     H83543  12.806   8.671  10.791  1.1781  0.1367 -0.1060
  619MOL0     H83544  12.898   8.606  10.654  1.2825  0.9948  0.4183
  619MOL0     H83545  11.871   8.279  10.410  0.6391 -0.5918 -0.8483
  619MOL0     H83546  11.628   8.282  10.332 -0.8537  1.9936 -1.1945
  619MOL0     H83547  11.328   8.761  10.227  1.0718 -1.4451  0.5274
  619MOL0     H83548  11.095   8.795  10.201  0.7869  0.7090  1.1896
  619MOL0     H83549   8.992   8.408  10.015  2.0239 -1.0724  0.8102
  619MOL0     H83550   8.851   8.279   9.860 -0.9408 -1.2996 -3.0400
  619MOL0     H83551   8.660   8.121   9.590 -0.4945  0.6346  0.3431
  619MOL0     H83552   8.474   7.993   9.454  1.7066 -2.7484 -0.3597
  619MOL0     H83553   8.469   7.967   9.015  0.6557  2.6799 -0.8018
  619MOL0     H83554   8.403   8.116   9.091 -2.2551 -0.4403 -1.5098
  619MOL0     H83555   8.189   8.005   9.123  1.5176  2.2886 -1.2208
  619MOL0     H83556   8.256   7.846   9.125  2.6417  0.2493  1.6172
  619MOL0     H83557   8.312   7.875   8.876  1.5425 -0.9789  3.0732
  619MOL0     H83558   8.226   8.028   8.883 -2.6111 -1.3881 -1.5414
  619MOL0     H83559   8.112   7.748   8.951  1.0494  1.0603  4.5920
  619MOL0     H83560   8.017   7.893   8.991 -0.6794  0.7358 -0.9089
  619MOL0     H83561   7.989   7.872   8.566 -2.6037  4.3563  1.1432
  619MOL0     H83562   8.649   8.123   9.095 -0.4496  1.3444  0.3531
  619MOL0     H83563   8.944   8.263   9.239 -0.8074 -1.7942  2.6818
  619MOL0     H83564   8.863   8.215   9.097  0.8920  1.0353  0.2952
  619MOL0     H83565   8.819   8.371   9.170  2.8928  1.3556  2.2170
  620MOL0     O83566   7.611   0.963   6.173  0.1762  0.5723  0.2096
  620MOL0     C83567   7.547   0.873   6.115 -0.2308  0.5811 -0.1075
  620MOL0     O83568   7.604   0.767   6.054 -0.0535  0.2500 -0.3149
  620MOL0     C83569   7.733   0.753   6.033  0.4975  0.8003 -0.0132
  620MOL0     C83570   7.841   0.844   6.059  0.4744  0.1107  0.3317
  620MOL0     C83571   7.979   0.819   6.030  0.0307  0.8172  0.4234
  620MOL0     C83572   8.001   0.691   5.969  0.1850  0.2545 -0.1216
  620MOL0     O83573   8.128   0.658   5.940 -0.5174 -0.1107 -0.3378
  620MOL0     C83574   8.244   0.725   5.988 -0.5702  0.3441  0.6856
  620MOL0     C83575   8.366   0.660   5.928  0.0400  0.1924  0.6143
  620MOL0     C83576   8.481   0.700   6.025 -0.7303 -0.3177  0.1610
  620MOL0     C83577   8.616   0.638   5.978 -0.0277  0.5206  0.2316
  620MOL0     C83578   8.743   0.707   6.025  0.8087 -0.6156  0.6041
  620MOL0     C83579   8.790   0.649   6.156  0.1123 -1.7424  0.1611
  620MOL0     C83580   8.925   0.712   6.199  0.0071  0.0648 -0.5417
  620MOL0     C83581   9.004   0.607   6.284 -0.1120  0.1235  0.5801
  620MOL0     N83582   9.130   0.669   6.325  0.1603 -0.9140 -0.4432
  620MOL0     C83583   9.227   0.713   6.247 -0.2940 -0.1410 -0.4944
  620MOL0     C83584   9.331   0.752   6.323 -0.5701 -0.1875 -1.4097
  620MOL0     C83585   9.463   0.806   6.279  0.2704 -1.0382  0.8805
  620MOL0     C83586   9.577   0.726   6.332  0.3168  0.2444  0.0305
  620MOL0     C83587   9.716   0.775   6.294  0.2603  0.1814  0.4418
  620MOL0     C83588   9.835   0.699   6.351  0.3281  0.3404 -0.6573
  620MOL0     O83589   9.946   0.781   6.327 -0.0969 -0.1395 -0.1076
  620MOL0     C83590  10.063   0.729   6.277 -0.3402 -1.0338  0.8351
  620MOL0     C83591  10.152   0.825   6.244  0.6082 -0.6302 -0.4826
  620MOL0     C83592  10.277   0.808   6.195 -0.3854  0.1637 -0.7241
  620MOL0     C83593  10.322   0.676   6.187 -0.3456  1.3607 -0.7981
  620MOL0     C83594  10.453   0.645   6.135 -0.6916 -0.4353  0.0821
  620MOL0     O83595  10.503   0.727   6.033  0.4951  0.1520  0.3217
  620MOL0     C83596  10.616   0.703   5.967 -0.1077 -0.4035 -1.0741
  620MOL0     C83597  10.659   0.579   5.942 -0.7446  1.5880 -0.2499
  620MOL0     C83598  10.787   0.572   5.880  0.1555  0.2477 -1.1889
  620MOL0     C83599  10.864   0.681   5.829  0.2964 -0.5853 -0.4116
  620MOL0     O83600  10.981   0.671   5.760 -0.0816  1.3107  0.5862
  620MOL0     C83601  10.961   0.643   5.621  0.5763 -0.0001 -0.0045
  620MOL0     C83602  10.942   0.495   5.597 -0.5780  0.1644 -0.2459
  620MOL0     C83603  11.037   0.399   5.668 -0.2507 -0.7457 -0.1056
  620MOL0     C83604  11.024   0.250   5.618  0.4235  1.1232  0.3313
  620MOL0     C83605  11.126   0.149   5.675  1.0451  0.7550 -0.0682
  620MOL0     C83606  11.268   0.166   5.644 -0.5776 -0.2804  0.3291
  620MOL0     C83607  11.355   0.048   5.704 -0.5643 -0.0044 -1.0575
  620MOL0     C83608  11.377   0.066   5.852 -0.0893 -0.4878  0.0130
  620MOL0    Cl83609  11.452   0.224   5.885 -0.0641 -0.3616 -0.5739
  620MOL0     C83610  10.806   0.808   5.854  0.5360 -0.5372 -0.1096
  620MOL0     C83611  10.682   0.818   5.915 -0.1847  0.0394 -0.4480
  620MOL0     O83612  10.517   0.557   6.197 -0.7936 -0.4281 -0.4723
  620MOL0     C83613  10.245   0.570   6.234 -0.4552  0.6179 -0.3590
  620MOL0     C83614  10.112   0.598   6.281  0.2489  0.4324 -0.4495
  620MOL0     N83615   9.296   0.726   6.458  0.4931 -0.4502 -0.1533
  620MOL0     N83616   9.170   0.683   6.456 -0.2624 -0.8220 -0.0273
  620MOL0     C83617   7.898   0.593   5.950  0.2733  0.6077 -0.7301
  620MOL0     C83618   7.765   0.630   5.978  0.1190  0.1144  0.6691
  620MOL0     C83619   7.401   0.867   6.138 -0.7084 -0.5858  0.4089
  620MOL0     C83620   7.338   0.749   6.098  0.2224  0.7715 -0.1383
  620MOL0     C83621   7.204   0.719   6.119 -0.1727 -0.4495  0.7444
  620MOL0     C83622   7.120   0.819   6.171 -0.4087 -0.2812 -0.2699
  620MOL0     O83623   6.986   0.817   6.177 -0.7328  0.1214  0.4777
  620MOL0     C83624   6.915   0.700   6.134 -0.0004 -0.2042  0.4412
  620MOL0     C83625   6.782   0.695   6.213  1.0828 -0.0082 -0.3687
  620MOL0     C83626   6.699   0.568   6.182 -0.6444  0.5102  0.4812
  620MOL0     C83627   6.632   0.506   6.307  0.2149 -0.7452  0.7149
  620MOL0     C83628   6.542   0.406   6.264 -0.3945  0.2747  0.1607
  620MOL0     C83629   6.458   0.323   6.230  0.7961 -0.6407 -0.0001
  620MOL0     C83630   7.177   0.945   6.206 -0.2417 -0.4030 -0.3980
  620MOL0     C83631   7.314   0.969   6.198  0.2888 -0.0100 -0.1252
  620MOL0     C83632   7.368   1.107   6.241 -0.4353 -1.2507  0.1350
  620MOL0     H83633   7.821   0.937   6.110 -3.0797 -1.5214  2.2380
  620MOL0     H83634   8.055   0.897   6.033  1.0809 -0.0328 -1.8803
  620MOL0     H83635   8.249   0.830   5.961  1.6038  0.8082  2.5546
  620MOL0     H83636   8.245   0.706   6.096 -1.9873  0.4535  0.7373
  620MOL0     H83637   8.374   0.692   5.824 -1.1839 -0.3525  0.3391
  620MOL0     H83638   8.349   0.552   5.921  0.7339  0.1085  0.1322
  620MOL0     H83639   8.449   0.679   6.127 -1.0051  0.3230  0.2161
  620MOL0     H83640   8.490   0.809   6.012  0.9296 -0.5120 -0.5300
  620MOL0     H83641   8.617   0.536   6.018 -1.9515 -1.0686 -3.3026
  620MOL0     H83642   8.613   0.624   5.869  2.0800 -2.2782  0.4077
  620MOL0     H83643   8.825   0.690   5.953  0.8575  0.5270  0.3647
  620MOL0     H83644   8.734   0.815   6.033  3.8641 -0.2241  0.2135
  620MOL0     H83645   8.714   0.683   6.228 -0.3132 -1.4123 -0.4398
  620MOL0     H83646   8.796   0.540   6.158  1.2773 -1.7215 -1.0568
  620MOL0     H83647   8.909   0.802   6.260 -2.5617  0.9674 -2.3684
  620MOL0     H83648   8.988   0.737   6.114  0.0056 -0.1420 -0.6019
  620MOL0     H83649   8.945   0.571   6.368 -1.5311 -1.1978 -0.9237
  620MOL0     H83650   9.024   0.523   6.217 -0.2586  1.4138 -1.1379
  620MOL0     H83651   9.232   0.701   6.139  0.3044 -2.2098 -0.2911
  620MOL0     H83652   9.456   0.799   6.170 -3.1018 -1.0965  0.9853
  620MOL0     H83653   9.473   0.911   6.305  0.0432 -0.4252 -1.3322
  620MOL0     H83654   9.565   0.735   6.440 -0.4474  2.8596 -0.2006
  620MOL0     H83655   9.557   0.622   6.307  1.4459 -0.0884  0.4324
  620MOL0     H83656   9.733   0.881   6.315 -2.5657  0.2842  2.8525
  620MOL0     H83657   9.727   0.771   6.185  0.5431 -0.0704  0.4779
  620MOL0     H83658   9.836   0.608   6.290 -2.0733  0.7612 -1.4126
  620MOL0     H83659   9.831   0.663   6.454 -1.0275  0.9224 -0.4947
  620MOL0     H83660  10.121   0.927   6.267 -0.5379 -1.4239  1.8319
  620MOL0     H83661  10.345   0.890   6.174 -1.6959  1.2500 -0.8890
  620MOL0     H83662  10.609   0.485   5.963 -1.5653  2.0872  0.0736
  620MOL0     H83663  10.819   0.471   5.856 -1.4703 -0.3371 -1.0405
  620MOL0     H83664  10.871   0.694   5.584 -0.1022 -2.3955 -1.8901
  620MOL0     H83665  11.050   0.673   5.566  0.9299  1.3218  1.2258
  620MOL0     H83666  10.838   0.477   5.627 -0.3738 -1.9311 -0.6675
  620MOL0     H83667  10.951   0.478   5.489 -1.6318  3.5877 -1.0136
  620MOL0     H83668  11.139   0.438   5.662 -0.1380 -1.0703 -0.3149
  620MOL0     H83669  11.004   0.402   5.772  0.5512  2.4656  0.1526
  620MOL0     H83670  11.037   0.246   5.510  2.3007  0.3126  0.5629
  620MOL0     H83671  10.923   0.213   5.639  0.3648  0.8270 -0.4275
  620MOL0     H83672  11.099   0.049   5.640 -2.8288  0.9557  1.7991
  620MOL0     H83673  11.110   0.147   5.783 -0.2999  3.3710 -0.1369
  620MOL0     H83674  11.276   0.157   5.535 -0.4145 -0.3444  0.3463
  620MOL0     H83675  11.303   0.264   5.677 -0.6146 -0.1581  0.0051
  620MOL0     H83676  11.450   0.037   5.651 -0.9207  1.3632 -2.0191
  620MOL0     H83677  11.301  -0.047   5.697  0.8621 -0.9493  0.2135
  620MOL0     H83678  11.286   0.059   5.912  1.3315  1.2081  2.5175
  620MOL0     H83679  11.440  -0.015   5.889  0.9277 -0.0205 -0.6519
  620MOL0     H83680  10.849   0.905   5.832 -2.0687  0.8502  0.4702
  620MOL0     H83681  10.640   0.906   5.963  2.5135  0.4048  1.4546
  620MOL0     H83682  10.285   0.469   6.241 -0.2269  0.8198  2.3016
  620MOL0     H83683  10.047   0.524   6.326 -1.8650  2.7053  0.4935
  620MOL0     H83684   7.919   0.491   5.920 -0.1978 -0.0714  1.1040
  620MOL0     H83685   7.700   0.547   5.948 -0.3971  1.6620 -2.9914
  620MOL0     H83686   7.402   0.678   6.046 -1.2469  0.1173 -1.1239
  620MOL0     H83687   7.182   0.618   6.085  0.0510 -0.4297  0.5411
  620MOL0     H83688   6.980   0.616   6.158  1.3460  0.9805  1.1061
  620MOL0     H83689   6.896   0.703   6.026 -1.7102 -1.4490  0.6598
  620MOL0     H83690   6.721   0.775   6.169  1.9806  0.0683 -1.5202
  620MOL0     H83691   6.795   0.710   6.320 -0.8035  1.2312 -0.2677
  620MOL0     H83692   6.772   0.497   6.143 -1.6023  0.4033 -1.2541
  620MOL0     H83693   6.621   0.579   6.105 -0.4005 -1.0043 -0.0053
  620MOL0     H83694   6.714   0.471   6.370  0.6200  0.4314  0.8792
  620MOL0     H83695   6.583   0.585   6.365 -0.8980 -1.1428  0.3431
  620MOL0     H83696   6.397   0.246   6.189  0.4665 -0.4778  0.1731
  620MOL0     H83697   7.101   1.017   6.238 -1.4581 -1.7635 -0.1254
  620MOL0     H83698   7.436   1.094   6.326  1.0049 -1.7520 -1.0453
  620MOL0     H83699   7.426   1.161   6.166 -1.8058  1.9321  1.1851
  620MOL0     H83700   7.283   1.173   6.261 -0.4347 -0.2679 -2.6181
  621MOL0     O83701   7.804   0.208   9.195 -0.6422 -0.0542  0.1146
  621MOL0     C83702   7.819   0.307   9.258 -0.2648 -0.3294 -0.4755
  621MOL0     O83703   7.944   0.360   9.273 -0.2936  0.7479 -0.4682
  621MOL0     C83704   8.041   0.331   9.177 -0.3219 -0.0846 -0.3048
  621MOL0     C83705   8.173   0.347   9.223  0.6940  0.4742 -0.2164
  621MOL0     C83706   8.281   0.321   9.143 -0.3851  0.1517 -0.7370
  621MOL0     C83707   8.262   0.310   9.009 -0.3028  0.2582  0.8178
  621MOL0     O83708   8.361   0.304   8.914 -0.6067  0.1921  0.2192
  621MOL0     C83709   8.490   0.251   8.934 -0.5938 -0.3493 -0.5363
  621MOL0     C83710   8.578   0.280   8.818  0.3727  0.6052  0.4766
  621MOL0     C83711   8.518   0.229   8.686  0.9311  0.9744  0.2157
  621MOL0     C83712   8.597   0.264   8.565 -0.3941  1.0453 -0.1494
  621MOL0     C83713   8.744   0.200   8.569 -0.7173 -0.7762 -0.3543
  621MOL0     C83714   8.820   0.222   8.446  0.4769 -0.8724 -0.3938
  621MOL0     C83715   8.775   0.162   8.308 -0.4282  0.1813  0.6215
  621MOL0     C83716   8.779   0.014   8.326 -0.2943  0.3127 -0.8531
  621MOL0     N83717   8.915  -0.035   8.363 -0.1430 -0.4401 -0.8503
  621MOL0     C83718   9.031   0.008   8.293 -0.2632 -0.4760  0.5769
  621MOL0     C83719   9.126  -0.073   8.342 -0.2364 -0.3902 -0.9103
  621MOL0     C83720   9.273  -0.046   8.300  0.0859 -0.5001  0.4761
  621MOL0     C83721   9.349   0.035   8.409  0.3019 -0.2974  0.7497
  621MOL0     C83722   9.357  -0.029   8.540 -0.1052 -0.8668  0.4266
  621MOL0     C83723   9.482  -0.122   8.566 -1.0856 -0.6785 -0.1359
  621MOL0     O83724   9.612  -0.062   8.559 -0.0634 -0.7419  0.3443
  621MOL0     C83725   9.728  -0.122   8.606  0.0315 -0.1898  0.2700
  621MOL0     C83726   9.731  -0.254   8.636 -0.4222 -0.2083  0.0905
  621MOL0     C83727   9.854  -0.310   8.665  0.6755 -0.0907 -0.8959
  621MOL0     C83728   9.972  -0.229   8.682 -0.5396 -0.1672 -0.6500
  621MOL0     C83729  10.104  -0.282   8.731  0.2239 -0.8940  0.6699
  621MOL0     O83730  10.203  -0.183   8.739 -0.1026  0.3836 -0.5791
  621MOL0     C83731  10.321  -0.216   8.792 -0.4146 -1.1811 -0.7400
  621MOL0     C83732  10.395  -0.324   8.749  0.3746  0.7288  0.2087
  621MOL0     C83733  10.521  -0.344   8.793 -0.6396 -0.3065  0.2061
  621MOL0     C83734  10.583  -0.253   8.883 -0.3098  0.3310 -0.0507
  621MOL0     O83735  10.713  -0.264   8.937 -0.0630  0.2574  0.1466
  621MOL0     C83736  10.791  -0.383   8.901 -0.6343 -0.9085 -0.6588
  621MOL0     C83737  10.924  -0.361   8.972 -0.4999 -0.5892  0.1084
  621MOL0     C83738  11.022  -0.458   8.906  0.1835 -0.4644  0.5505
  621MOL0     C83739  11.155  -0.466   8.992 -0.2303  0.3390 -0.3117
  621MOL0     C83740  11.216  -0.611   8.984  0.1245  0.0227 -0.0726
  621MOL0     C83741  11.337  -0.623   9.068 -0.5038  0.2833  0.5423
  621MOL0     C83742  11.395  -0.768   9.066  0.6073 -0.2402 -0.3152
  621MOL0     C83743  11.483  -0.791   9.188 -0.9918 -0.3602  0.1379
  621MOL0    Cl83744  11.571  -0.946   9.168  0.2475 -0.0491 -0.4902
  621MOL0     C83745  10.510  -0.141   8.930  0.6903 -0.1364 -0.4583
  621MOL0     C83746  10.380  -0.126   8.886  0.3523  0.4322  0.7263
  621MOL0     O83747  10.113  -0.402   8.755  0.5129  0.2977  0.0773
  621MOL0     C83748   9.962  -0.098   8.658 -1.1356  0.7462  0.1642
  621MOL0     C83749   9.845  -0.044   8.615  0.1555 -0.5378 -0.8146
  621MOL0     N83750   9.062  -0.151   8.446  0.2433  0.8237 -0.7336
  621MOL0     N83751   8.934  -0.130   8.452 -0.6005  0.7523  0.3072
  621MOL0     C83752   8.134   0.306   8.956 -0.3286 -0.1283 -0.6452
  621MOL0     C83753   8.020   0.316   9.041  0.0864  0.7180  0.3001
  621MOL0     C83754   7.706   0.377   9.328 -0.2921  0.0401  0.1888
  621MOL0     C83755   7.738   0.498   9.397  0.2005  0.4020 -0.5833
  621MOL0     C83756   7.637   0.574   9.467 -0.1016  1.3664  0.1997
  621MOL0     C83757   7.513   0.508   9.492 -0.1745 -0.5083 -0.2177
  621MOL0     O83758   7.412   0.571   9.570 -0.3294 -0.2455 -0.3976
  621MOL0     C83759   7.282   0.510   9.589  0.2076  0.0570 -0.1208
  621MOL0     C83760   7.192   0.607   9.654  0.2686 -0.1348 -0.7471
  621MOL0     C83761   7.055   0.536   9.676 -0.3702  0.8024 -0.1984
  621MOL0     C83762   6.973   0.605   9.780  0.2393  0.4491 -0.5579
  621MOL0     C83763   7.016   0.553   9.912  0.1551  0.9348 -0.6286
  621MOL0     C83764   7.052   0.513  10.025  0.3260  0.2004  1.1549
  621MOL0     C83765   7.494   0.384   9.444 -0.8702 -0.1285  1.1772
  621MOL0     C83766   7.586   0.317   9.360 -0.0498  0.3492 -0.6587
  621MOL0     C83767   7.536   0.181   9.311  0.0188  0.3076 -0.1979
  621MOL0     H83768   8.196   0.367   9.327  1.3642 -2.5369  0.3307
  621MOL0     H83769   8.384   0.328   9.178 -0.9507  1.6476  0.7820
  621MOL0     H83770   8.543   0.304   9.013  2.6371 -0.4160 -2.4841
  621MOL0     H83771   8.477   0.148   8.969 -0.8887  0.4865  2.0152
  621MOL0     H83772   8.656   0.205   8.834 -0.4080 -1.2776 -3.3633
  621MOL0     H83773   8.608   0.386   8.814 -0.2725  0.8744  2.1344
  621MOL0     H83774   8.416   0.266   8.682  1.0578  1.5754  1.8422
  621MOL0     H83775   8.499   0.122   8.692  0.0804  1.0420 -0.9332
  621MOL0     H83776   8.551   0.216   8.478  0.4297  2.8031 -1.6377
  621MOL0     H83777   8.594   0.373   8.556 -1.0523  1.1266  0.8628
  621MOL0     H83778   8.796   0.249   8.652 -0.1496 -1.1224 -0.4994
  621MOL0     H83779   8.729   0.093   8.587  1.3658 -0.8115  1.5901
  621MOL0     H83780   8.803   0.329   8.432 -0.7524 -1.0270 -0.1669
  621MOL0     H83781   8.927   0.205   8.465  0.5062 -2.5508 -1.8413
  621MOL0     H83782   8.843   0.206   8.234 -0.3335  1.2493  1.3286
  621MOL0     H83783   8.671   0.191   8.289  0.3027  0.9940 -2.9718
  621MOL0     H83784   8.708  -0.027   8.398 -1.8514  2.7928 -0.8556
  621MOL0     H83785   8.748  -0.025   8.228  2.4244 -1.0779 -1.2365
  621MOL0     H83786   9.041   0.085   8.217  0.3524 -1.0734  0.0423
  621MOL0     H83787   9.328  -0.141   8.296  1.0845  0.0447  1.0019
  621MOL0     H83788   9.270   0.011   8.207 -4.9046 -0.1733  0.5321
  621MOL0     H83789   9.447   0.058   8.368  0.1131 -2.4198 -1.0934
  621MOL0     H83790   9.291   0.126   8.424  0.4436  0.1254 -0.9969
  621MOL0     H83791   9.267  -0.089   8.555 -1.0510 -0.6018 -3.1708
  621MOL0     H83792   9.361   0.056   8.610 -2.7403 -0.1317 -0.1735
  621MOL0     H83793   9.474  -0.210   8.502  1.5153  0.6264 -2.4695
  621MOL0     H83794   9.476  -0.145   8.673  0.1018  0.4730  0.1978
  621MOL0     H83795   9.643  -0.315   8.624 -0.0429 -0.5145 -1.2455
  621MOL0     H83796   9.868  -0.412   8.700  2.5125  1.8036  4.9470
  621MOL0     H83797  10.346  -0.388   8.675 -1.6102  1.3982  0.8620
  621MOL0     H83798  10.571  -0.437   8.770  1.6763  0.0753  3.0771
  621MOL0     H83799  10.758  -0.482   8.935  3.2146 -2.7114 -1.5865
  621MOL0     H83800  10.812  -0.382   8.794 -1.0631 -2.5786 -0.7892
  621MOL0     H83801  10.963  -0.259   8.969 -0.8285 -0.4544  0.3625
  621MOL0     H83802  10.907  -0.385   9.077  0.9215 -1.6580  0.1230
  621MOL0     H83803  10.981  -0.558   8.893 -1.5125  0.2935 -0.2589
  621MOL0     H83804  11.036  -0.431   8.801  0.0222 -1.6731  0.2000
  621MOL0     H83805  11.122  -0.452   9.095  0.0515  0.0934 -0.1862
  621MOL0     H83806  11.220  -0.378   8.978  1.0590 -0.2559  1.5391
  621MOL0     H83807  11.241  -0.636   8.881  2.9781  2.3730 -0.0631
  621MOL0     H83808  11.138  -0.679   9.021  1.2999 -1.3490 -0.0048
  621MOL0     H83809  11.407  -0.545   9.037 -2.4667  2.2487  0.8374
  621MOL0     H83810  11.301  -0.585   9.164 -0.8268 -0.5828  0.7714
  621MOL0     H83811  11.449  -0.793   8.975  0.5457  0.1932 -0.4742
  621MOL0     H83812  11.309  -0.836   9.059  1.4830 -1.3444 -0.6897
  621MOL0     H83813  11.566  -0.720   9.180  0.8142 -2.5450 -2.0244
  621MOL0     H83814  11.421  -0.786   9.278 -2.1686 -0.6812 -0.6317
  621MOL0     H83815  10.548  -0.074   9.006 -4.0501  1.4027  0.9145
  621MOL0     H83816  10.323  -0.037   8.909 -0.5856 -0.3075  1.3500
  621MOL0     H83817  10.050  -0.035   8.661 -0.2523 -0.4472  0.1410
  621MOL0     H83818   9.825   0.060   8.592 -2.0074 -0.6433  0.3588
  621MOL0     H83819   8.123   0.300   8.849  0.9796 -1.1820 -0.7524
  621MOL0     H83820   7.919   0.310   9.001 -0.3445  2.4856  1.0187
  621MOL0     H83821   7.835   0.547   9.401  0.8212 -0.7482 -0.9439
  621MOL0     H83822   7.643   0.665   9.525 -1.1398 -0.3985  3.3188
  621MOL0     H83823   7.288   0.419   9.650  1.6378 -0.4691 -0.9908
  621MOL0     H83824   7.245   0.494   9.487 -1.6086  0.2894  0.4581
  621MOL0     H83825   7.166   0.696   9.596 -2.2045 -0.6842 -0.5947
  621MOL0     H83826   7.229   0.636   9.753  0.7019  2.6772 -1.6326
  621MOL0     H83827   7.071   0.428   9.680  1.5305  1.0802  1.3504
  621MOL0     H83828   6.991   0.543   9.587 -1.7456 -3.7772  0.1903
  621MOL0     H83829   6.996   0.712   9.780 -0.6369  0.6462 -0.7055
  621MOL0     H83830   6.865   0.587   9.779  0.4163 -0.6932 -0.1862
  621MOL0     H83831   7.086   0.472  10.118  1.7818  1.7177  1.3441
  621MOL0     H83832   7.401   0.330   9.459 -1.0963  0.1557  0.8442
  621MOL0     H83833   7.610   0.102   9.325 -0.2919  0.2001  0.8834
  621MOL0     H83834   7.440   0.155   9.357 -1.8244  1.4469 -3.0331
  621MOL0     H83835   7.516   0.192   9.204 -0.7197  0.7673 -0.0234
  622MOL0     O83836   3.070  11.199   6.135  0.0448  0.1640  0.0476
  622MOL0     C83837   3.003  11.268   6.059  0.1516  0.3565  0.4911
  622MOL0     O83838   3.048  11.379   5.993  0.0817 -0.4169 -0.6488
  622MOL0     C83839   3.171  11.417   6.032 -0.1562  0.6170 -0.7942
  622MOL0     C83840   3.285  11.382   5.963  0.3215  1.0932 -0.6441
  622MOL0     C83841   3.410  11.412   6.013  0.7571  0.6942 -0.6831
  622MOL0     C83842   3.428  11.452   6.147 -0.5936 -0.6891 -0.5744
  622MOL0     O83843   3.549  11.467   6.214  0.6033  0.4094  0.5145
  622MOL0     C83844   3.667  11.414   6.153  0.3310 -1.2735 -0.0216
  622MOL0     C83845   3.783  11.450   6.243 -0.4827 -0.1952 -0.0872
  622MOL0     C83846   3.910  11.426   6.181  0.3457  0.1004  0.0109
  622MOL0     C83847   4.027  11.442   6.281  0.3821 -0.2231  0.4285
  622MOL0     C83848   4.156  11.431   6.213  0.1284 -0.1206  0.4664
  622MOL0     C83849   4.179  11.308   6.120 -0.1036  0.1556  0.7501
  622MOL0     C83850   4.321  11.316   6.065 -0.3546  0.9770 -0.2912
  622MOL0     C83851   4.350  11.197   5.975 -0.3690 -0.4762  0.8379
  622MOL0     N83852   4.487  11.223   5.928 -0.8554 -0.2792  0.3719
  622MOL0     C83853   4.530  11.190   5.800  0.2832 -0.2349  0.0455
  622MOL0     C83854   4.657  11.232   5.792 -0.2901  0.7632  0.7195
  622MOL0     C83855   4.744  11.237   5.673  0.7348 -0.6357 -0.5384
  622MOL0     C83856   4.858  11.140   5.687  0.5584  0.3796  0.2996
  622MOL0     C83857   4.953  11.149   5.564  0.3899  0.0476 -0.2330
  622MOL0     C83858   5.070  11.257   5.590  0.6376  0.0493  0.1848
  622MOL0     O83859   5.147  11.268   5.471 -0.2236 -0.7422  0.2320
  622MOL0     C83860   5.259  11.201   5.437  0.6535 -0.1790 -0.5711
  622MOL0     C83861   5.315  11.226   5.315  0.9760  0.4552  0.0294
  622MOL0     C83862   5.423  11.145   5.264 -0.6330 -0.0329 -0.4302
  622MOL0     C83863   5.465  11.038   5.340 -0.7352  1.0183  0.4041
  622MOL0     C83864   5.583  10.945   5.304 -0.2605 -0.0025 -0.5122
  622MOL0     O83865   5.622  10.857   5.399  0.4740 -0.1180  0.1130
  622MOL0     C83866   5.742  10.796   5.405 -0.0888  0.4569  0.4733
  622MOL0     C83867   5.846  10.815   5.315 -0.3590  0.1006  0.3004
  622MOL0     C83868   5.968  10.744   5.330  0.5076 -0.5710 -0.1701
  622MOL0     C83869   5.976  10.663   5.440 -0.1830 -0.2975  0.4163
  622MOL0     O83870   6.088  10.596   5.476 -0.3094  0.3114 -0.4410
  622MOL0     C83871   6.152  10.508   5.380  0.4230 -0.2330 -0.2261
  622MOL0     C83872   6.263  10.419   5.442 -0.2731 -0.0514 -0.2303
  622MOL0     C83873   6.294  10.304   5.342 -0.0968 -0.5050  0.4092
  622MOL0     C83874   6.420  10.211   5.387  0.2327 -0.0919  0.3933
  622MOL0     C83875   6.552  10.278   5.433  0.6716  0.7717 -0.0419
  622MOL0     C83876   6.647  10.167   5.458 -0.8334 -0.1545  0.7008
  622MOL0     C83877   6.780  10.212   5.523 -0.5940 -1.3094  0.4670
  622MOL0     C83878   6.769  10.204   5.683 -0.5300  1.0017 -0.1497
  622MOL0    Cl83879   6.664  10.343   5.737  0.5535 -0.5332  0.4254
  622MOL0     C83880   5.866  10.634   5.525 -0.4590  0.7205 -0.4791
  622MOL0     C83881   5.752  10.704   5.510 -1.0338 -0.0234 -0.1538
  622MOL0     O83882   5.635  10.961   5.191  0.8216  0.1208 -0.5276
  622MOL0     C83883   5.411  11.018   5.471  0.3201  0.3349 -0.1263
  622MOL0     C83884   5.309  11.094   5.515 -0.2931 -0.2386  0.6271
  622MOL0     N83885   4.697  11.300   5.905 -0.4731  0.4432 -0.4492
  622MOL0     N83886   4.598  11.291   5.981  0.2536  0.4531 -0.4667
  622MOL0     C83887   3.315  11.491   6.215  0.2343 -0.5467 -0.0211
  622MOL0     C83888   3.184  11.472   6.163  0.4429 -0.2560  0.7752
  622MOL0     C83889   2.857  11.241   6.044 -0.3893 -1.2164  0.0625
  622MOL0     C83890   2.778  11.348   6.001  0.1553 -0.3623  0.2586
  622MOL0     C83891   2.638  11.343   5.993 -0.5174 -0.3997 -0.7801
  622MOL0     C83892   2.573  11.221   6.022  0.1839  0.1598  0.1518
  622MOL0     O83893   2.439  11.194   6.018 -0.2174  0.4857  0.1954
  622MOL0     C83894   2.348  11.307   5.995 -0.0263 -0.0758 -0.5003
  622MOL0     C83895   2.206  11.255   5.998  0.7800 -0.0706  0.8897
  622MOL0     C83896   2.192  11.123   5.926  0.4389  0.7766  0.1306
  622MOL0     C83897   2.044  11.094   5.886 -0.5342  0.1509 -0.3209
  622MOL0     C83898   2.025  10.951   5.914 -0.1353  0.1526  0.6681
  622MOL0     C83899   1.995  10.836   5.919 -0.2348  0.5025  0.3833
  622MOL0     C83900   2.653  11.112   6.063 -0.2237 -0.4341  0.7896
  622MOL0     C83901   2.790  11.123   6.077  0.5853 -0.1047 -1.7338
  622MOL0     C83902   2.867  11.002   6.117 -0.5090  0.1495 -0.3743
  622MOL0     H83903   3.267  11.347   5.862  0.0414 -2.4878  0.4937
  622MOL0     H83904   3.495  11.384   5.952  1.4162 -0.9300  0.8927
  622MOL0     H83905   3.657  11.306   6.139  0.7962 -1.4721  1.0847
  622MOL0     H83906   3.679  11.461   6.056  0.1702 -2.6401 -0.7324
  622MOL0     H83907   3.777  11.399   6.339 -0.9391 -0.2880 -0.1670
  622MOL0     H83908   3.779  11.559   6.259  0.2722 -0.0708 -0.6602
  622MOL0     H83909   3.914  11.496   6.098 -1.2176  3.1816  2.3237
  622MOL0     H83910   3.915  11.327   6.135  1.9492  0.3660 -0.4406
  622MOL0     H83911   4.019  11.535   6.339 -1.9772  0.5889 -1.0138
  622MOL0     H83912   4.026  11.363   6.357  1.2631  1.1021  1.8856
  622MOL0     H83913   4.174  11.513   6.142  1.0578 -0.9509 -0.2869
  622MOL0     H83914   4.235  11.441   6.288  0.4573  1.6803 -0.0462
  622MOL0     H83915   4.173  11.214   6.177  2.1134  0.0411  0.8682
  622MOL0     H83916   4.111  11.300   6.035  0.2220 -1.8738  0.6178
  622MOL0     H83917   4.383  11.302   6.154 -0.8575  1.8352  0.1934
  622MOL0     H83918   4.358  11.410   6.023  5.0988 -0.6016  0.2225
  622MOL0     H83919   4.348  11.106   6.035  0.3613 -0.1281  1.4003
  622MOL0     H83920   4.283  11.184   5.889 -0.4925  0.7407  0.7321
  622MOL0     H83921   4.462  11.147   5.727 -0.8723  1.6003 -0.0203
  622MOL0     H83922   4.690  11.217   5.580  0.0631  1.3171 -0.6312
  622MOL0     H83923   4.782  11.340   5.669 -2.4330  0.6666 -0.2070
  622MOL0     H83924   4.910  11.166   5.780 -0.7489 -1.0834  1.5173
  622MOL0     H83925   4.814  11.041   5.699  1.7544 -0.1170  0.7025
  622MOL0     H83926   4.897  11.181   5.476 -0.9951  0.6309  0.8349
  622MOL0     H83927   4.990  11.047   5.549 -1.1972 -0.4022 -1.3002
  622MOL0     H83928   5.127  11.229   5.679  2.4689  2.0348 -0.2882
  622MOL0     H83929   5.025  11.355   5.606 -2.3552 -1.1811  0.0187
  622MOL0     H83930   5.273  11.309   5.260 -0.1770  1.7999  2.7296
  622MOL0     H83931   5.468  11.176   5.170  0.2530  1.0129  0.3101
  622MOL0     H83932   5.843  10.893   5.240  0.3549  0.7766  0.9658
  622MOL0     H83933   6.061  10.762   5.275 -0.7517 -0.1750 -2.2897
  622MOL0     H83934   6.076  10.441   5.338  1.8458 -2.7184  0.9473
  622MOL0     H83935   6.202  10.563   5.300  0.7591 -1.6323 -1.0167
  622MOL0     H83936   6.352  10.476   5.471 -0.6666 -0.4312  1.8639
  622MOL0     H83937   6.222  10.374   5.533 -0.8103  1.7248  0.4491
  622MOL0     H83938   6.205  10.243   5.327 -1.4271  1.1525  1.2924
  622MOL0     H83939   6.322  10.349   5.246  0.1586 -1.7667 -0.1329
  622MOL0     H83940   6.449  10.143   5.306  0.3701 -0.1576  0.4983
  622MOL0     H83941   6.381  10.148   5.467  0.7644  3.3745  3.6406
  622MOL0     H83942   6.534  10.340   5.521  1.1484 -0.9854  1.3691
  622MOL0     H83943   6.589  10.352   5.362 -0.9161  1.5443 -0.1030
  622MOL0     H83944   6.607  10.084   5.517 -0.0855 -1.4230 -0.5169
  622MOL0     H83945   6.665  10.119   5.362 -0.4866 -2.6402  1.9268
  622MOL0     H83946   6.811  10.310   5.485  0.1905 -2.5272 -2.2737
  622MOL0     H83947   6.862  10.146   5.495 -0.6472 -1.7370  1.3086
  622MOL0     H83948   6.733  10.108   5.722  1.1501  1.0869  1.7427
  622MOL0     H83949   6.863  10.219   5.736 -0.9713  0.3220  0.8495
  622MOL0     H83950   5.892  10.563   5.603  0.2819  1.8917  0.3530
  622MOL0     H83951   5.677  10.698   5.588  0.6457  1.7342  1.6949
  622MOL0     H83952   5.451  10.940   5.534 -0.6723 -0.0239  0.0823
  622MOL0     H83953   5.276  11.089   5.619  2.8465  3.1081  2.0206
  622MOL0     H83954   3.314  11.531   6.315  2.1228  0.4525 -0.3632
  622MOL0     H83955   3.093  11.498   6.217  0.4100  1.5618 -0.0807
  622MOL0     H83956   2.825  11.439   5.964  1.0811 -0.8840  0.1212
  622MOL0     H83957   2.580  11.427   5.956  1.1348  0.5772 -1.2743
  622MOL0     H83958   2.361  11.357   5.899 -1.2770  2.7395  0.6890
  622MOL0     H83959   2.362  11.372   6.082  2.1037 -0.1245 -0.7472
  622MOL0     H83960   2.154  11.340   5.953  2.1981  0.8365  0.9044
  622MOL0     H83961   2.175  11.251   6.102  1.1940 -0.5971  0.9991
  622MOL0     H83962   2.229  11.050   5.998 -1.2721  1.5078  1.8460
  622MOL0     H83963   2.246  11.109   5.832  0.9142  2.6097  0.0917
  622MOL0     H83964   1.987  11.139   5.967  0.3132  0.8554 -0.0985
  622MOL0     H83965   2.012  11.132   5.789  0.0256 -2.7902 -1.7665
  622MOL0     H83966   1.961  10.735   5.929  0.2945  0.5569  3.6557
  622MOL0     H83967   2.610  11.015   6.085  0.5505 -1.2043 -0.9830
  622MOL0     H83968   2.937  11.008   6.201  2.4729  0.8856 -2.7656
  622MOL0     H83969   2.800  10.917   6.133 -0.6928 -0.0310 -1.9655
  622MOL0     H83970   2.921  10.954   6.035 -1.4560 -0.5284 -0.6173
  623MOL0     O83971   8.374   3.496   7.347  0.7455 -0.5435 -0.1608
  623MOL0     C83972   8.310   3.567   7.265  0.1768 -0.1235 -0.4547
  623MOL0     O83973   8.348   3.689   7.217 -0.0102 -0.1974 -0.1893
  623MOL0     C83974   8.475   3.740   7.259 -0.5344  0.2444  0.1131
  623MOL0     C83975   8.473   3.823   7.377 -0.0776  0.6576  0.9927
  623MOL0     C83976   8.592   3.877   7.429 -0.0229 -0.4865  0.3593
  623MOL0     C83977   8.714   3.853   7.364  0.4133  0.2558  0.7666
  623MOL0     O83978   8.817   3.923   7.415 -0.0871 -0.1254  0.3715
  623MOL0     C83979   8.932   3.913   7.334 -0.3720  0.2395 -0.0666
  623MOL0     C83980   9.027   4.019   7.402  0.4127  0.3552 -0.2948
  623MOL0     C83981   9.162   4.018   7.323  1.2820 -0.2204  0.4125
  623MOL0     C83982   9.251   4.129   7.376 -0.9580 -0.2435 -0.0866
  623MOL0     C83983   9.399   4.100   7.382  0.3164  0.2735  0.8169
  623MOL0     C83984   9.459   4.062   7.246 -0.1400  0.1233  0.3313
  623MOL0     C83985   9.609   4.042   7.261  0.0546  0.2690  0.1789
  623MOL0     C83986   9.670   4.008   7.123 -1.3824  0.4828 -0.6756
  623MOL0     N83987   9.816   4.047   7.113  0.6498  0.3926 -0.2256
  623MOL0     C83988   9.871   4.178   7.116 -0.6503  0.4285 -0.4286
  623MOL0     C83989  10.009   4.159   7.110  0.2576  0.1969  0.3827
  623MOL0     C83990  10.110   4.265   7.147 -0.2462 -0.5405 -0.7709
  623MOL0     C83991  10.219   4.304   7.041  0.9090  0.2732  0.1521
  623MOL0     C83992  10.323   4.406   7.110  0.7508  0.5954  0.3712
  623MOL0     C83993  10.437   4.424   6.999  0.0348  0.1375  1.0842
  623MOL0     O83994  10.521   4.534   7.041  0.6519 -0.7322 -0.8125
  623MOL0     C83995  10.645   4.496   7.085  1.0350  0.1521 -0.6736
  623MOL0     C83996  10.672   4.389   7.167 -0.5992  0.1792  0.0186
  623MOL0     C83997  10.804   4.353   7.191  0.4966 -0.5632 -0.1455
  623MOL0     C83998  10.906   4.437   7.151 -0.2457  0.4664  1.1323
  623MOL0     C83999  11.045   4.395   7.175 -1.0922  0.2674 -0.5554
  623MOL0     O84000  11.140   4.477   7.136  0.0058 -0.0135  0.0147
  623MOL0     C84001  11.275   4.443   7.138 -0.1939  0.3334 -0.8459
  623MOL0     C84002  11.348   4.377   7.239 -0.7111  0.4624 -0.1497
  623MOL0     C84003  11.494   4.371   7.237  0.8278 -0.6254 -0.6397
  623MOL0     C84004  11.568   4.437   7.135  0.2984  0.2973 -0.8902
  623MOL0     O84005  11.707   4.425   7.116  0.1328  0.5557 -0.2474
  623MOL0     C84006  11.778   4.460   7.232  0.2740 -0.4658 -1.0550
  623MOL0     C84007  11.922   4.508   7.200  0.1176 -0.0494 -0.1595
  623MOL0     C84008  12.012   4.403   7.144 -0.5204  0.8978 -0.3165
  623MOL0     C84009  12.091   4.431   7.024 -0.6122  0.7822  0.5493
  623MOL0     C84010  12.188   4.548   7.047 -0.5537 -0.8298 -0.3357
  623MOL0     C84011  12.286   4.570   6.925 -0.9386  0.0983  0.4876
  623MOL0     C84012  12.378   4.688   6.946 -0.4058  0.6202 -1.1302
  623MOL0     C84013  12.466   4.712   6.815  0.4720  0.3565  0.0979
  623MOL0    Cl84014  12.592   4.593   6.774  0.5098  0.2345 -0.1060
  623MOL0     C84015  11.487   4.490   7.033 -0.2444  0.8510 -0.2044
  623MOL0     C84016  11.347   4.498   7.036  0.0433 -0.0541  0.0494
  623MOL0     O84017  11.065   4.284   7.223  0.4794  0.0756  0.0200
  623MOL0     C84018  10.874   4.545   7.075 -1.1613  0.5871 -0.9519
  623MOL0     C84019  10.744   4.580   7.047 -0.8004 -0.0398 -0.7008
  623MOL0     N84020  10.029   4.022   7.097  0.0476  0.1378 -0.5684
  623MOL0     N84021   9.917   3.958   7.101  0.8361  0.1030  0.2626
  623MOL0     C84022   8.714   3.768   7.247 -0.5967  0.3475  0.5246
  623MOL0     C84023   8.596   3.724   7.192 -0.2696 -0.3771  0.2721
  623MOL0     C84024   8.170   3.520   7.237 -0.3064  0.4133  0.7018
  623MOL0     C84025   8.126   3.548   7.106  0.1842 -0.3404  0.0342
  623MOL0     C84026   7.997   3.521   7.074  0.5326 -0.4505  0.1815
  623MOL0     C84027   7.907   3.463   7.166  0.7587 -0.5013  0.3467
  623MOL0     O84028   7.783   3.438   7.113  0.3065  0.0547 -0.3343
  623MOL0     C84029   7.698   3.346   7.191 -0.6003  0.1928  0.4261
  623MOL0     C84030   7.568   3.301   7.108 -0.2822  0.3219 -0.3388
  623MOL0     C84031   7.452   3.273   7.202  0.5312  0.1365  0.3695
  623MOL0     C84032   7.317   3.242   7.135  0.2841  0.2991 -0.9472
  623MOL0     C84033   7.317   3.138   7.025 -0.1445 -0.3800  0.3118
  623MOL0     C84034   7.317   3.052   6.942  0.3071 -0.4498 -0.4342
  623MOL0     C84035   7.955   3.432   7.289  0.4153  1.1980 -0.8843
  623MOL0     C84036   8.087   3.440   7.320 -0.1677  0.2655  0.1062
  623MOL0     C84037   8.125   3.386   7.453  0.3636  0.5053 -0.7221
  623MOL0     H84038   8.377   3.844   7.422 -0.5674 -1.3424  0.9641
  623MOL0     H84039   8.593   3.942   7.517  0.2997 -1.4843  1.1082
  623MOL0     H84040   8.980   3.815   7.338  0.8862  0.8260 -0.1322
  623MOL0     H84041   8.908   3.940   7.231 -0.6526 -0.8740 -0.3086
  623MOL0     H84042   9.040   4.002   7.509 -3.6196 -1.8723  0.0338
  623MOL0     H84043   8.982   4.114   7.373 -1.6742 -0.5886 -0.3402
  623MOL0     H84044   9.144   4.022   7.215 -0.6607 -0.3969  0.6858
  623MOL0     H84045   9.202   3.921   7.352  1.4030 -0.3218 -0.0955
  623MOL0     H84046   9.223   4.218   7.318 -2.1206 -0.2027  0.5149
  623MOL0     H84047   9.235   4.167   7.477  1.0283  0.9282 -0.1687
  623MOL0     H84048   9.450   4.191   7.417  0.6513  0.1602  0.6299
  623MOL0     H84049   9.410   4.011   7.444 -1.6711 -1.8712 -1.6819
  623MOL0     H84050   9.415   3.974   7.199 -0.4901  0.3341  0.2607
  623MOL0     H84051   9.438   4.143   7.176  0.7849 -1.6514 -2.1473
  623MOL0     H84052   9.635   3.958   7.326  1.0761 -1.5645 -2.3796
  623MOL0     H84053   9.646   4.137   7.299 -2.6927  0.7942  1.8085
  623MOL0     H84054   9.666   3.899   7.114  0.7634  0.4304 -1.6616
  623MOL0     H84055   9.609   4.066   7.053 -1.5566  1.7923  0.5068
  623MOL0     H84056   9.809   4.267   7.127 -0.8216  0.3186 -0.5026
  623MOL0     H84057  10.059   4.357   7.175 -0.9466 -0.6109 -1.7885
  623MOL0     H84058  10.170   4.228   7.231 -0.1928  1.1695 -0.0204
  623MOL0     H84059  10.256   4.213   6.993  0.7035  0.4437 -0.3311
  623MOL0     H84060  10.163   4.372   6.976  3.1432  4.7191  2.3445
  623MOL0     H84061  10.359   4.358   7.201 -0.4794  3.1608  2.3603
  623MOL0     H84062  10.278   4.502   7.137 -3.1042 -0.7869 -0.5406
  623MOL0     H84063  10.386   4.441   6.904 -0.8795 -1.1697  1.3095
  623MOL0     H84064  10.494   4.331   6.998  0.7270  0.5592  1.1075
  623MOL0     H84065  10.585   4.328   7.191  0.7720 -1.8940  0.0297
  623MOL0     H84066  10.816   4.254   7.233 -1.1856 -0.9060 -0.3798
  623MOL0     H84067  11.297   4.335   7.325 -0.5037 -2.1390 -1.1907
  623MOL0     H84068  11.552   4.323   7.315 -1.3181  0.0276  1.4959
  623MOL0     H84069  11.724   4.544   7.275  0.5957  0.3946 -2.2808
  623MOL0     H84070  11.787   4.372   7.297  1.6449  0.5932  0.2707
  623MOL0     H84071  11.915   4.588   7.125  0.2521  0.3759  0.2749
  623MOL0     H84072  11.968   4.552   7.289 -0.8124 -1.3864  1.0410
  623MOL0     H84073  12.073   4.374   7.230 -2.0765  0.7390  0.7731
  623MOL0     H84074  11.959   4.313   7.113  1.0785 -0.3886  0.4862
  623MOL0     H84075  12.029   4.463   6.940 -1.1445 -0.7938  0.3086
  623MOL0     H84076  12.150   4.343   6.995 -2.0030  0.1207 -0.4112
  623MOL0     H84077  12.241   4.534   7.141 -0.6965 -1.0520 -0.2874
  623MOL0     H84078  12.131   4.641   7.057  0.3178 -0.1662 -1.3374
  623MOL0     H84079  12.351   4.482   6.919 -3.5515 -1.8629 -3.7122
  623MOL0     H84080  12.230   4.587   6.833 -0.7326  1.4067  0.5954
  623MOL0     H84081  12.440   4.661   7.032 -0.8393 -5.2910 -2.2474
  623MOL0     H84082  12.316   4.774   6.976 -1.2352 -0.4970  0.5165
  623MOL0     H84083  12.402   4.725   6.727  0.0994  1.6322  0.5290
  623MOL0     H84084  12.504   4.815   6.812 -0.8644  0.8806  0.3741
  623MOL0     H84085  11.538   4.533   6.947 -1.0948  1.7599 -0.2735
  623MOL0     H84086  11.285   4.546   6.961 -1.3845  1.0199  1.8385
  623MOL0     H84087  10.949   4.618   7.047 -1.8028  1.6353 -0.0450
  623MOL0     H84088  10.717   4.668   6.990  0.6844  0.3368 -0.8524
  623MOL0     H84089   8.804   3.755   7.188 -1.1155 -1.8730  0.1369
  623MOL0     H84090   8.584   3.672   7.098  0.0780  0.8240 -0.4621
  623MOL0     H84091   8.195   3.599   7.040  0.7654 -1.7676 -0.5183
  623MOL0     H84092   7.956   3.539   6.976  0.1459  1.7726  0.6986
  623MOL0     H84093   7.675   3.391   7.288 -1.6625  1.6448 -0.4623
  623MOL0     H84094   7.758   3.257   7.215  0.6347  0.3674 -1.7192
  623MOL0     H84095   7.593   3.209   7.055 -0.0056  0.1825  0.0306
  623MOL0     H84096   7.533   3.374   7.035 -2.8156 -0.4379  0.0165
  623MOL0     H84097   7.431   3.367   7.254 -0.5348  1.1721 -1.8223
  623MOL0     H84098   7.485   3.195   7.271  2.3795  0.1913 -0.4150
  623MOL0     H84099   7.235   3.209   7.200 -0.9758  0.9770 -2.1325
  623MOL0     H84100   7.281   3.336   7.090  0.3812  0.2607 -1.1067
  623MOL0     H84101   7.329   2.979   6.865 -1.3940 -1.4435  0.2041
  623MOL0     H84102   7.892   3.390   7.367  0.8583  0.2740 -1.0196
  623MOL0     H84103   8.217   3.326   7.449 -1.4165 -2.6662  1.1438
  623MOL0     H84104   8.130   3.460   7.533  3.1511  0.9992 -1.2663
  623MOL0     H84105   8.047   3.321   7.495  1.6444  1.6522  4.0322
  624MOL0     O84106   0.866   2.283   2.492  0.6051 -0.4459 -0.1547
  624MOL0     C84107   0.832   2.215   2.399  0.3177 -0.3639  0.3343
  624MOL0     O84108   0.913   2.170   2.300 -0.5076  0.2692  0.2168
  624MOL0     C84109   1.030   2.235   2.271 -0.1555  0.6601 -0.0123
  624MOL0     C84110   1.138   2.235   2.366 -0.3227 -0.0475  0.6896
  624MOL0     C84111   1.267   2.281   2.331  0.3993 -1.0042  0.5584
  624MOL0     C84112   1.297   2.328   2.205  0.1876  0.7929  0.1412
  624MOL0     O84113   1.424   2.376   2.189 -0.2396  0.0192 -0.1567
  624MOL0     C84114   1.490   2.375   2.062  0.0365 -0.2859  0.8653
  624MOL0     C84115   1.635   2.376   2.106 -1.1859  0.3549  0.1443
  624MOL0     C84116   1.721   2.402   1.990  0.4681 -0.3112  0.4188
  624MOL0     C84117   1.861   2.373   2.036 -0.1604  0.2415 -0.0529
  624MOL0     C84118   1.970   2.377   1.931 -0.5336 -0.1374 -0.0799
  624MOL0     C84119   2.102   2.328   1.967 -1.1845 -0.0775 -0.6465
  624MOL0     C84120   2.208   2.344   1.858 -0.4040 -0.0739 -0.0546
  624MOL0     C84121   2.199   2.246   1.736 -0.3119  0.3115 -0.0177
  624MOL0     N84122   2.334   2.205   1.692  1.2363 -0.6814 -1.3872
  624MOL0     C84123   2.437   2.279   1.660 -0.2107  0.6899 -0.3695
  624MOL0     C84124   2.542   2.196   1.670  0.5443 -0.2352 -0.6701
  624MOL0     C84125   2.690   2.225   1.648 -0.3723  0.6263  0.4946
  624MOL0     C84126   2.782   2.127   1.731  0.2742  0.0965 -0.2178
  624MOL0     C84127   2.921   2.137   1.680 -0.2922  0.7861  0.4921
  624MOL0     C84128   3.017   2.031   1.740 -0.5015 -0.5188  0.9611
  624MOL0     O84129   3.046   2.065   1.875 -0.2110  0.2466  0.0781
  624MOL0     C84130   3.171   2.040   1.925 -0.2474 -0.1653 -0.0978
  624MOL0     C84131   3.281   1.982   1.847  0.2090  0.1751  0.6654
  624MOL0     C84132   3.407   1.974   1.908  0.3851 -0.3996 -0.2848
  624MOL0     C84133   3.431   2.028   2.034  0.5863 -0.1610  0.2407
  624MOL0     C84134   3.564   2.040   2.093 -0.0668  0.5288 -0.2027
  624MOL0     O84135   3.655   1.971   2.021 -0.0736  0.1290  0.2380
  624MOL0     C84136   3.789   2.010   2.036 -0.6837  0.4592 -0.3372
  624MOL0     C84137   3.846   2.135   2.082  0.1664  0.3596 -0.5853
  624MOL0     C84138   3.984   2.144   2.094 -0.8711  0.0651 -0.1838
  624MOL0     C84139   4.072   2.040   2.053  0.1100  0.0934 -0.2657
  624MOL0     O84140   4.203   2.067   2.060  0.1103  0.1212  0.9001
  624MOL0     C84141   4.277   1.998   1.962  0.2366  0.2846 -1.0681
  624MOL0     C84142   4.421   2.047   1.956 -0.2977 -0.8789 -0.3365
  624MOL0     C84143   4.430   2.200   1.966  0.1304 -0.5073  0.1026
  624MOL0     C84144   4.570   2.250   1.951 -0.3879  1.0148 -0.8531
  624MOL0     C84145   4.577   2.401   1.962  0.4990  0.0988 -0.3259
  624MOL0     C84146   4.714   2.447   1.940 -0.3932  0.7775  0.2868
  624MOL0     C84147   4.731   2.593   1.978  0.4048 -0.0104  0.2393
  624MOL0     C84148   4.877   2.639   1.982  0.4161  0.0291 -0.2129
  624MOL0    Cl84149   4.962   2.606   1.825  0.2628  0.4064 -0.2841
  624MOL0     C84150   4.012   1.928   2.000  0.2576 -0.0820 -0.0097
  624MOL0     C84151   3.877   1.905   2.003 -0.7328  1.1329  0.8560
  624MOL0     O84152   3.582   2.086   2.206 -0.5106 -0.2500  0.7549
  624MOL0     C84153   3.321   2.079   2.106 -0.0206 -0.9054  0.4866
  624MOL0     C84154   3.198   2.075   2.052  0.3073 -0.6662 -0.8897
  624MOL0     N84155   2.498   2.066   1.688 -0.8934 -0.3039 -0.4847
  624MOL0     N84156   2.369   2.073   1.697  0.1291  0.2776 -0.2559
  624MOL0     C84157   1.186   2.345   2.118 -0.5236  0.2270 -0.3246
  624MOL0     C84158   1.058   2.293   2.151 -0.6051  0.7102  0.2566
  624MOL0     C84159   0.706   2.153   2.406 -0.0603 -0.0968  0.5930
  624MOL0     C84160   0.677   2.043   2.324 -0.1255  0.0716  0.3275
  624MOL0     C84161   0.547   1.981   2.324  0.4093  0.5507  0.4339
  624MOL0     C84162   0.451   2.017   2.415 -0.1709  0.7721 -0.4193
  624MOL0     O84163   0.333   1.956   2.411 -0.2985 -0.0855  0.4711
  624MOL0     C84164   0.232   2.020   2.335  0.4094 -0.1094  0.2251
  624MOL0     C84165   0.255   2.005   2.184  0.3212 -0.4941 -0.3431
  624MOL0     C84166   0.122   2.034   2.112 -0.4477 -0.2973  0.3854
  624MOL0     C84167   0.129   1.986   1.971  0.4884  0.1801  0.2604
  624MOL0     C84168   0.002   1.985   1.897  0.6365  0.0067  0.5935
  624MOL0     C84169  -0.097   1.979   1.828 -0.1948  0.1617  0.2270
  624MOL0     C84170   0.476   2.122   2.495  0.5131 -0.0437 -0.6218
  624MOL0     C84171   0.601   2.184   2.500  0.0963 -0.4353 -0.5573
  624MOL0     C84172   0.615   2.303   2.597  0.0383 -0.2090  1.3298
  624MOL0     H84173   1.123   2.188   2.462 -1.7680 -0.5981  0.2323
  624MOL0     H84174   1.347   2.281   2.406 -0.2232  1.0168  1.2727
  624MOL0     H84175   1.471   2.292   1.994 -0.5641  0.3773  0.1966
  624MOL0     H84176   1.471   2.471   2.012  1.5983 -0.7677 -0.7770
  624MOL0     H84177   1.667   2.278   2.144  2.5240  0.5865 -1.8830
  624MOL0     H84178   1.646   2.454   2.182 -0.9995 -1.3169  1.9092
  624MOL0     H84179   1.704   2.502   1.950 -0.3448  0.1168  1.7537
  624MOL0     H84180   1.699   2.337   1.904  0.2370 -0.7518  0.8062
  624MOL0     H84181   1.900   2.438   2.115  3.4576 -2.4485  0.6431
  624MOL0     H84182   1.864   2.267   2.063  1.6157 -0.5540 -2.8682
  624MOL0     H84183   1.933   2.311   1.853  0.0122 -1.3538  0.6597
  624MOL0     H84184   1.967   2.485   1.910 -4.1863  0.0410  0.6512
  624MOL0     H84185   2.122   2.406   2.042 -1.4016  0.4935 -1.1689
  624MOL0     H84186   2.107   2.232   2.018  0.2766  0.7209  0.8123
  624MOL0     H84187   2.310   2.341   1.898 -0.9152 -0.1120  1.2867
  624MOL0     H84188   2.208   2.446   1.818  0.5844 -0.4511 -1.0713
  624MOL0     H84189   2.150   2.154   1.768 -1.4115  0.3007 -1.6079
  624MOL0     H84190   2.133   2.280   1.655 -0.4610  0.1421  0.0323
  624MOL0     H84191   2.425   2.386   1.645 -2.8603  0.8280  1.9615
  624MOL0     H84192   2.706   2.201   1.543  1.5761  0.4849  0.7977
  624MOL0     H84193   2.710   2.331   1.665 -1.1438  0.6422  1.4220
  624MOL0     H84194   2.777   2.153   1.837  0.6853 -1.1549  0.1249
  624MOL0     H84195   2.750   2.022   1.732  1.1513 -0.2026 -1.4558
  624MOL0     H84196   2.965   2.236   1.693 -0.3413  0.9357 -0.4057
  624MOL0     H84197   2.912   2.117   1.573  0.5299 -0.1582  0.5800
  624MOL0     H84198   3.103   2.030   1.672 -2.9302  1.4198 -2.4079
  624MOL0     H84199   2.973   1.931   1.734 -0.7054 -0.3504 -0.6666
  624MOL0     H84200   3.276   1.955   1.742 -0.3315  0.4373  0.6214
  624MOL0     H84201   3.489   1.936   1.848 -0.7063 -0.7360 -1.5952
  624MOL0     H84202   3.785   2.223   2.099  2.7693  2.2259 -0.2938
  624MOL0     H84203   4.007   2.242   2.135 -1.0418  0.9521 -2.0854
  624MOL0     H84204   4.294   1.891   1.980 -1.2388  0.4539  1.8948
  624MOL0     H84205   4.229   2.025   1.868 -3.5658  3.6548  1.5132
  624MOL0     H84206   4.478   1.997   2.035  1.3732 -0.5495 -1.2763
  624MOL0     H84207   4.468   2.007   1.866 -2.7962 -3.4789 -0.6150
  624MOL0     H84208   4.370   2.258   1.895  2.3035  0.5253 -1.0094
  624MOL0     H84209   4.406   2.239   2.065 -0.5124 -0.2430 -0.1535
  624MOL0     H84210   4.601   2.221   1.850 -0.2196  1.3094 -0.8886
  624MOL0     H84211   4.632   2.199   2.025  0.4442 -1.9992 -3.4030
  624MOL0     H84212   4.543   2.426   2.063 -0.0557 -2.3228  0.1432
  624MOL0     H84213   4.509   2.452   1.892  0.6376 -2.1925 -2.2269
  624MOL0     H84214   4.792   2.389   1.989  1.8281  1.9629 -1.6450
  624MOL0     H84215   4.730   2.440   1.832 -1.6867  2.8102 -0.1039
  624MOL0     H84216   4.685   2.596   2.077 -1.5567 -1.9718 -0.5254
  624MOL0     H84217   4.667   2.658   1.918 -2.4628 -1.3095  1.6994
  624MOL0     H84218   4.877   2.746   2.005 -1.8963 -0.6470  3.9776
  624MOL0     H84219   4.916   2.591   2.072 -2.1570  2.3291  2.3035
  624MOL0     H84220   4.076   1.842   1.980  1.0045  0.5390 -0.3052
  624MOL0     H84221   3.833   1.808   1.982 -0.9291  1.5871 -0.9284
  624MOL0     H84222   3.326   2.116   2.208 -1.6610 -0.9442  0.6111
  624MOL0     H84223   3.115   2.106   2.115 -0.8873 -2.4249 -1.5332
  624MOL0     H84224   1.215   2.386   2.022  0.0157  0.8480  0.0944
  624MOL0     H84225   0.982   2.301   2.074  1.3450 -1.4615 -2.1169
  624MOL0     H84226   0.762   2.008   2.266 -0.7672 -0.9497 -0.0276
  624MOL0     H84227   0.525   1.900   2.256  2.2339 -0.4829  1.0251
  624MOL0     H84228   0.221   2.123   2.371 -1.1956 -0.6415  1.3875
  624MOL0     H84229   0.133   1.978   2.355 -0.0740  1.6058  1.6677
  624MOL0     H84230   0.281   1.900   2.169 -1.3960 -1.2992  1.6657
  624MOL0     H84231   0.336   2.071   2.153 -0.0145  0.2306  0.2847
  624MOL0     H84232   0.118   2.143   2.115  0.5057 -0.2602  0.7162
  624MOL0     H84233   0.027   1.997   2.152 -0.3146  0.2192  1.2051
  624MOL0     H84234   0.197   2.042   1.907  1.0098  1.4985  1.8946
  624MOL0     H84235   0.169   1.885   1.975  0.6072  0.0926 -1.7819
  624MOL0     H84236  -0.187   1.969   1.771 -1.6071  0.1491  2.3427
  624MOL0     H84237   0.394   2.148   2.561  1.9460 -0.5434  1.4621
  624MOL0     H84238   0.626   2.389   2.530 -1.2514 -1.5781 -0.7621
  624MOL0     H84239   0.518   2.310   2.647 -0.9520  1.2710 -0.6764
  624MOL0     H84240   0.697   2.298   2.670  0.5989  0.7210  0.7786
  625MOL0     O84241   7.130   2.434   9.262  0.1689 -0.2215  0.8140
  625MOL0     C84242   7.056   2.470   9.170 -0.4180 -0.0954 -1.3915
  625MOL0     O84243   7.102   2.533   9.062 -0.9782 -0.1466  0.3453
  625MOL0     C84244   7.221   2.597   9.065 -0.0368 -0.1255 -1.2053
  625MOL0     C84245   7.254   2.699   9.162  0.1075  0.9048  0.2694
  625MOL0     C84246   7.387   2.760   9.152  0.7322  0.3264 -0.3755
  625MOL0     C84247   7.475   2.734   9.043 -0.5103 -0.6260 -0.0004
  625MOL0     O84248   7.588   2.803   9.023  0.3637  0.1003 -0.4134
  625MOL0     C84249   7.627   2.909   9.119  0.0137  0.6089 -0.7740
  625MOL0     C84250   7.764   2.939   9.080 -0.4248  0.1135 -0.0053
  625MOL0     C84251   7.827   3.058   9.153  0.4022 -0.2332  0.4339
  625MOL0     C84252   7.938   3.121   9.074  0.7016 -0.3734 -0.2396
  625MOL0     C84253   8.036   3.199   9.169  0.4115  0.2682 -0.3813
  625MOL0     C84254   8.124   3.301   9.108 -0.3034  0.3504  0.0302
  625MOL0     C84255   8.218   3.363   9.211  0.0390 -0.3801  0.3831
  625MOL0     C84256   8.304   3.472   9.146 -1.2358 -0.8749 -0.6671
  625MOL0     N84257   8.408   3.524   9.236  0.2915 -0.7434  0.0210
  625MOL0     C84258   8.503   3.449   9.294  0.5417  0.4288  0.3334
  625MOL0     C84259   8.576   3.540   9.357 -0.5154  0.0522  0.6177
  625MOL0     C84260   8.700   3.529   9.445  1.3404  0.2322  0.3770
  625MOL0     C84261   8.825   3.589   9.389 -0.4813 -0.2849 -0.5518
  625MOL0     C84262   8.949   3.559   9.484  0.1164 -0.4443 -0.5637
  625MOL0     C84263   9.079   3.598   9.426 -0.3733  0.1109  0.1581
  625MOL0     O84264   9.103   3.733   9.442 -0.2213  0.3598 -0.5576
  625MOL0     C84265   9.221   3.784   9.416 -0.4686 -0.5138 -0.2670
  625MOL0     C84266   9.241   3.912   9.457 -0.0813  0.8086 -0.7736
  625MOL0     C84267   9.358   3.981   9.432 -1.0780 -0.1134 -0.4823
  625MOL0     C84268   9.464   3.917   9.358 -0.2241  0.6297  0.0115
  625MOL0     C84269   9.599   3.975   9.328  0.5200  0.2899 -0.5562
  625MOL0     O84270   9.687   3.889   9.266  0.1042  0.4654  0.4780
  625MOL0     C84271   9.810   3.940   9.217  0.4626 -0.1624 -0.7000
  625MOL0     C84272   9.838   3.910   9.084 -0.2960 -0.5946  0.0298
  625MOL0     C84273   9.962   3.955   9.037  0.7042  0.6359 -0.4481
  625MOL0     C84274  10.047   4.018   9.113  0.1465 -0.0452 -0.0718
  625MOL0     O84275  10.160   4.064   9.046  0.2898  0.6978 -0.0513
  625MOL0     C84276  10.241   4.160   9.116 -0.0326  0.4089  0.5452
  625MOL0     C84277  10.345   4.096   9.204 -0.2896  0.1603 -0.2314
  625MOL0     C84278  10.441   4.202   9.249  0.1089 -0.1471 -0.4301
  625MOL0     C84279  10.525   4.147   9.364 -1.1591  0.1446  0.0108
  625MOL0     C84280  10.669   4.201   9.366  0.1606 -0.0500  0.0036
  625MOL0     C84281  10.725   4.175   9.503 -0.2114 -0.0845 -0.3469
  625MOL0     C84282  10.874   4.234   9.517 -0.3707  0.9726  0.0194
  625MOL0     C84283  10.985   4.158   9.449  0.0983 -0.2417  0.1571
  625MOL0    Cl84284  11.021   4.004   9.546  0.5294  0.1270 -0.0754
  625MOL0     C84285  10.020   4.041   9.250  0.7665 -0.2082 -0.8711
  625MOL0     C84286   9.900   3.998   9.303 -0.3667 -0.7814 -0.5512
  625MOL0     O84287   9.624   4.090   9.374 -0.1297  0.3337 -0.4764
  625MOL0     C84288   9.451   3.779   9.320 -0.0935  0.3109 -0.0948
  625MOL0     C84289   9.328   3.722   9.348  0.1763  0.7968  0.8255
  625MOL0     N84290   8.525   3.665   9.342  0.4636  0.2613 -0.2531
  625MOL0     N84291   8.429   3.659   9.261  0.2893 -0.4568  0.3828
  625MOL0     C84292   7.437   2.637   8.959  0.7221 -0.3197  1.0785
  625MOL0     C84293   7.316   2.571   8.972  0.0072 -0.3889  0.3080
  625MOL0     C84294   6.904   2.455   9.183  0.9531 -0.7355 -0.2555
  625MOL0     C84295   6.861   2.366   9.284  0.0574 -0.4310 -0.5865
  625MOL0     C84296   6.722   2.336   9.311  0.1264 -0.3614  0.7639
  625MOL0     C84297   6.624   2.400   9.238 -0.5635 -0.4859 -0.2301
  625MOL0     O84298   6.496   2.364   9.265 -0.3328 -0.8463  0.1419
  625MOL0     C84299   6.392   2.402   9.175  0.0483  0.1067 -0.2712
  625MOL0     C84300   6.266   2.389   9.262 -0.9081  0.1657 -0.2808
  625MOL0     C84301   6.126   2.428   9.193  0.1467  1.0034 -0.2641
  625MOL0     C84302   6.013   2.415   9.286  0.3898  0.3661 -0.0956
  625MOL0     C84303   6.001   2.273   9.332 -0.7547 -0.3517 -1.0281
  625MOL0     C84304   6.004   2.168   9.395  0.1807  0.3802  0.0175
  625MOL0     C84305   6.660   2.494   9.143 -0.1905 -1.0839  0.0536
  625MOL0     C84306   6.797   2.526   9.113 -0.6059  1.0071 -1.2825
  625MOL0     C84307   6.832   2.626   9.002  0.2797 -0.0301 -0.3720
  625MOL0     H84308   7.185   2.737   9.237 -0.9571 -0.5719  0.0749
  625MOL0     H84309   7.403   2.835   9.229  1.1426  0.2595 -0.3936
  625MOL0     H84310   7.565   2.998   9.105 -0.1661  0.5500 -0.3654
  625MOL0     H84311   7.636   2.892   9.226  0.5167  3.0218 -0.3806
  625MOL0     H84312   7.763   2.966   8.974  1.6244  0.5956  0.0464
  625MOL0     H84313   7.828   2.852   9.100 -1.2475 -0.5163 -0.0732
  625MOL0     H84314   7.868   3.018   9.246  1.4904 -0.9712 -0.3417
  625MOL0     H84315   7.754   3.139   9.158  0.7733  0.1532 -0.2518
  625MOL0     H84316   8.002   3.047   9.024  1.3022  0.5508 -0.8863
  625MOL0     H84317   7.906   3.182   8.990 -0.2579 -1.4182 -0.6528
  625MOL0     H84318   7.971   3.261   9.232  0.4154  0.6511 -0.7514
  625MOL0     H84319   8.091   3.123   9.225 -0.4728  1.3128  2.0535
  625MOL0     H84320   8.189   3.256   9.033 -1.2620 -0.6618 -0.2306
  625MOL0     H84321   8.063   3.382   9.065 -1.0970  1.7324  3.4026
  625MOL0     H84322   8.274   3.282   9.259 -0.4174 -1.0061 -0.1185
  625MOL0     H84323   8.164   3.411   9.293 -3.1632 -3.1342  0.1622
  625MOL0     H84324   8.366   3.432   9.064  0.7711  1.0186 -0.1623
  625MOL0     H84325   8.240   3.553   9.110  0.2045  1.3597  1.5089
  625MOL0     H84326   8.510   3.341   9.289  2.2628  0.5824 -1.7762
  625MOL0     H84327   8.670   3.576   9.539 -1.5338  0.4829 -0.5623
  625MOL0     H84328   8.723   3.423   9.461  1.8805 -0.4082 -3.5511
  625MOL0     H84329   8.841   3.550   9.288  0.1095 -2.0920  0.2041
  625MOL0     H84330   8.808   3.696   9.375  0.5153 -0.1058 -0.4721
  625MOL0     H84331   8.961   3.452   9.507  0.2188 -0.0222  1.5717
  625MOL0     H84332   8.948   3.620   9.574 -0.2628  1.0946 -1.5840
  625MOL0     H84333   9.075   3.585   9.318  0.2728 -1.7798  0.3153
  625MOL0     H84334   9.168   3.545   9.461  1.5624  3.2882  0.4103
  625MOL0     H84335   9.159   3.949   9.517 -1.0038  0.4149 -1.7546
  625MOL0     H84336   9.368   4.083   9.468 -1.0666  0.1301 -1.1502
  625MOL0     H84337   9.774   3.858   9.014  1.0261 -0.4562 -1.3341
  625MOL0     H84338   9.981   3.924   8.935  1.0372  2.8961 -1.1414
  625MOL0     H84339  10.296   4.212   9.037 -0.9281 -0.2273 -0.5392
  625MOL0     H84340  10.187   4.240   9.166  0.3519  2.4012 -2.0312
  625MOL0     H84341  10.309   4.033   9.285  0.3677  1.6273  1.2799
  625MOL0     H84342  10.410   4.031   9.145 -0.1859 -1.6487  1.7642
  625MOL0     H84343  10.513   4.237   9.175  2.1488  1.4479  2.1354
  625MOL0     H84344  10.387   4.290   9.286  0.0624  0.1699 -1.2313
  625MOL0     H84345  10.538   4.039   9.351  4.4700  0.7957 -2.5560
  625MOL0     H84346  10.469   4.166   9.456  0.1301  1.1843  0.6140
  625MOL0     H84347  10.664   4.309   9.354  0.4342  0.2422  2.2042
  625MOL0     H84348  10.734   4.151   9.294  0.1570 -1.0795  0.6824
  625MOL0     H84349  10.664   4.218   9.582 -1.5358 -0.5814 -1.0599
  625MOL0     H84350  10.722   4.067   9.519  1.7801 -0.0594  0.5161
  625MOL0     H84351  10.894   4.232   9.625 -0.3023 -2.1316  0.0532
  625MOL0     H84352  10.876   4.336   9.477 -3.9798  0.7878 -1.0515
  625MOL0     H84353  10.957   4.128   9.348  0.8410  0.7179 -0.3615
  625MOL0     H84354  11.080   4.209   9.429  1.7054 -3.2655 -0.5204
  625MOL0     H84355  10.094   4.087   9.315  1.0241 -0.4535 -0.9881
  625MOL0     H84356   9.889   4.008   9.410  3.4530  1.8111 -0.2041
  625MOL0     H84357   9.524   3.712   9.275  0.6404  1.3680 -0.5217
  625MOL0     H84358   9.304   3.623   9.309 -0.6794  1.1059  0.5349
  625MOL0     H84359   7.510   2.629   8.879  0.0979  1.2390  0.2995
  625MOL0     H84360   7.289   2.498   8.896 -1.3054 -1.5510  1.8151
  625MOL0     H84361   6.931   2.297   9.330 -1.0940 -1.7400 -0.7307
  625MOL0     H84362   6.690   2.263   9.385 -0.3552 -1.4888 -0.5225
  625MOL0     H84363   6.403   2.332   9.092  1.4665  0.3911 -0.3496
  625MOL0     H84364   6.389   2.506   9.142  1.9539  0.1236 -0.4990
  625MOL0     H84365   6.279   2.459   9.345  1.2427 -0.6284  0.1023
  625MOL0     H84366   6.262   2.292   9.311 -0.0831  1.2879  2.1369
  625MOL0     H84367   6.100   2.352   9.118 -1.6041  0.2559  1.0350
  625MOL0     H84368   6.130   2.530   9.154 -0.9180  0.6087 -1.5121
  625MOL0     H84369   6.026   2.482   9.371 -3.6151  0.3350  0.7294
  625MOL0     H84370   5.915   2.443   9.244  0.3761  1.2598  0.4952
  625MOL0     H84371   5.993   2.067   9.429 -0.7538  0.3812 -0.2685
  625MOL0     H84372   6.592   2.533   9.069  0.1176 -1.4105 -0.4026
  625MOL0     H84373   6.920   2.689   9.021 -0.0964  0.9247 -1.6646
  625MOL0     H84374   6.844   2.572   8.907  0.3193 -0.5352 -0.0829
  625MOL0     H84375   6.747   2.691   8.981  1.4383  0.9219 -2.5324
  626MOL0     O84376  10.046   7.553   3.056 -0.1069 -0.0932 -0.0531
  626MOL0     C84377   9.964   7.466   3.025  0.1085 -0.3459 -0.5316
  626MOL0     O84378   9.995   7.353   2.956 -0.4604 -0.4001 -0.6684
  626MOL0     C84379  10.122   7.304   2.984  0.0661 -0.7610  0.2714
  626MOL0     C84380  10.185   7.297   3.114  0.2188 -0.3971 -0.5119
  626MOL0     C84381  10.311   7.225   3.129  0.4192  0.2166  0.2056
  626MOL0     C84382  10.380   7.182   3.006  0.0631  0.3821 -0.4166
  626MOL0     O84383  10.507   7.115   3.002 -0.2215  0.1945 -0.2999
  626MOL0     C84384  10.578   7.094   3.121 -0.3552  0.7208 -0.4109
  626MOL0     C84385  10.708   7.029   3.087 -0.3200  0.9317  0.1289
  626MOL0     C84386  10.683   6.880   3.039 -0.2644 -0.5964  0.0468
  626MOL0     C84387  10.825   6.828   3.005  1.3987 -0.4906 -0.7815
  626MOL0     C84388  10.822   6.698   2.935  0.1597 -0.3435  0.4897
  626MOL0     C84389  10.963   6.634   2.945  0.7319 -0.6811 -0.4960
  626MOL0     C84390  10.980   6.537   2.825 -0.1190  0.6095 -0.2451
  626MOL0     C84391  11.121   6.466   2.826  1.1391 -0.0271 -0.7988
  626MOL0     N84392  11.223   6.537   2.762 -0.0131  0.1484  0.4610
  626MOL0     C84393  11.340   6.585   2.818  0.6466 -0.0038 -0.5795
  626MOL0     C84394  11.422   6.601   2.711 -0.1659  0.1278 -0.1260
  626MOL0     C84395  11.565   6.653   2.728 -0.3775 -0.4162 -0.2256
  626MOL0     C84396  11.676   6.546   2.754  0.0776 -0.4009  0.4198
  626MOL0     C84397  11.804   6.619   2.769 -0.0943  0.2943 -0.2800
  626MOL0     C84398  11.924   6.523   2.795  0.0068 -0.0505  1.6131
  626MOL0     O84399  12.049   6.592   2.824  0.3761  0.6708 -0.2212
  626MOL0     C84400  12.159   6.518   2.851 -0.1820  0.1229  1.3795
  626MOL0     C84401  12.194   6.390   2.791 -0.3380  0.1277 -0.7538
  626MOL0     C84402  12.320   6.334   2.843  0.3565 -0.2442 -0.0952
  626MOL0     C84403  12.406   6.405   2.923  0.2219  0.4113  0.0861
  626MOL0     C84404  12.547   6.365   2.929  1.0229 -0.5433  0.0395
  626MOL0     O84405  12.635   6.463   2.975  0.2025 -0.4133 -0.0805
  626MOL0     C84406  12.770   6.444   2.985  0.7823  0.9120  0.6839
  626MOL0     C84407  12.844   6.538   2.910  1.2614  0.0062 -0.1961
  626MOL0     C84408  12.978   6.525   2.896  0.1332  0.6685 -0.6957
  626MOL0     C84409  13.043   6.416   2.946 -0.2879 -0.3593  0.0182
  626MOL0     O84410  13.176   6.397   2.917  0.7226 -0.2630 -0.4849
  626MOL0     C84411  13.252   6.299   2.992  0.2378  0.3792  0.7661
  626MOL0     C84412  13.396   6.330   2.970 -0.2966  0.0935  0.1892
  626MOL0     C84413  13.489   6.230   3.033  0.5146 -0.0244 -0.2449
  626MOL0     C84414  13.635   6.234   3.001 -0.3833 -0.1896 -0.8545
  626MOL0     C84415  13.711   6.167   3.116 -0.7413 -0.5148  0.1689
  626MOL0     C84416  13.863   6.212   3.118  0.7278  0.9194  0.4237
  626MOL0     C84417  13.926   6.122   3.231  0.1051 -0.3607  0.7902
  626MOL0     C84418  14.064   6.177   3.268 -0.3320 -0.0696  0.0731
  626MOL0    Cl84419  14.170   6.205   3.133 -0.4744  0.4221  0.0331
  626MOL0     C84420  12.974   6.326   3.028  0.5680 -0.3222  0.5273
  626MOL0     C84421  12.838   6.335   3.046 -0.2587 -0.1051 -0.0048
  626MOL0     O84422  12.578   6.251   2.895 -0.0553 -0.4142  0.3139
  626MOL0     C84423  12.363   6.528   2.976  0.7250 -0.3184  0.2335
  626MOL0     C84424  12.247   6.583   2.928  0.5533  0.7101  0.2239
  626MOL0     N84425  11.349   6.581   2.596 -0.1974 -0.0416 -0.0164
  626MOL0     N84426  11.233   6.541   2.627 -0.9116 -0.1203  0.1602
  626MOL0     C84427  10.321   7.204   2.881 -0.5356 -0.1693 -0.0362
  626MOL0     C84428  10.196   7.265   2.874  0.1262  0.2074 -0.4423
  626MOL0     C84429   9.817   7.480   3.053  0.5679 -0.5896  0.8218
  626MOL0     C84430   9.726   7.384   3.004 -0.2442  0.3508 -0.6879
  626MOL0     C84431   9.587   7.391   3.026  0.1547 -0.8315  0.0383
  626MOL0     C84432   9.542   7.494   3.102  0.1794 -0.5494  0.4832
  626MOL0     O84433   9.401   7.511   3.127  0.5056  0.1492 -0.6146
  626MOL0     C84434   9.310   7.394   3.100 -0.6045  0.0237  0.2751
  626MOL0     C84435   9.162   7.427   3.126 -0.5875 -0.4649  0.5611
  626MOL0     C84436   9.138   7.400   3.272  0.3187  0.2205  0.3665
  626MOL0     C84437   8.985   7.420   3.303 -0.5567  1.3954 -0.4513
  626MOL0     C84438   8.947   7.548   3.332  0.2992 -1.2025 -0.0853
  626MOL0     C84439   8.920   7.656   3.382 -0.4905 -0.0294 -0.5814
  626MOL0     C84440   9.629   7.593   3.158  0.1111  0.9756 -0.2032
  626MOL0     C84441   9.766   7.589   3.129 -0.1039 -0.5544 -0.1320
  626MOL0     C84442   9.844   7.713   3.174 -0.7629  0.1358 -0.0212
  626MOL0     H84443  10.143   7.337   3.206  1.4462  3.0443 -1.2949
  626MOL0     H84444  10.345   7.203   3.230 -0.6760  1.3698  0.8577
  626MOL0     H84445  10.591   7.180   3.187 -0.5688 -0.1990  0.8841
  626MOL0     H84446  10.520   7.020   3.177 -0.0341  0.8454  0.0910
  626MOL0     H84447  10.772   7.032   3.176 -1.1178 -0.8212  0.7956
  626MOL0     H84448  10.765   7.094   3.020 -0.5810  1.5431  0.4837
  626MOL0     H84449  10.603   6.879   2.965 -2.1152  2.0936  1.8106
  626MOL0     H84450  10.639   6.819   3.118 -3.1849 -2.7394 -2.9952
  626MOL0     H84451  10.873   6.902   2.941  1.6693  0.2325  0.2284
  626MOL0     H84452  10.870   6.828   3.105 -1.9073 -0.4784  0.8410
  626MOL0     H84453  10.742   6.642   2.983 -1.6056  1.2851 -0.4136
  626MOL0     H84454  10.789   6.714   2.832  0.6384  0.0072  0.3870
  626MOL0     H84455  11.039   6.712   2.945 -0.4740  0.7132 -3.9835
  626MOL0     H84456  10.976   6.576   3.037  0.9878  0.7534  0.4028
  626MOL0     H84457  10.970   6.593   2.732 -2.9157 -0.6287 -0.7874
  626MOL0     H84458  10.899   6.464   2.829  0.5050 -0.1350 -0.8199
  626MOL0     H84459  11.150   6.444   2.930 -0.0404  0.5660 -0.3178
  626MOL0     H84460  11.103   6.371   2.774 -3.1927 -0.0796  0.3652
  626MOL0     H84461  11.354   6.603   2.924 -0.8356  4.5572 -0.9505
  626MOL0     H84462  11.581   6.691   2.626 -0.2759  0.9648  0.2866
  626MOL0     H84463  11.577   6.741   2.793  0.9968 -0.6061 -0.1799
  626MOL0     H84464  11.660   6.493   2.849 -1.7095  1.0067  0.9731
  626MOL0     H84465  11.678   6.480   2.667 -0.8157  0.7263 -0.4877
  626MOL0     H84466  11.811   6.695   2.848 -1.7376  0.4412 -0.2322
  626MOL0     H84467  11.815   6.684   2.682 -3.4288  1.1873 -0.1861
  626MOL0     H84468  11.934   6.465   2.703 -2.4788 -0.1478  1.3344
  626MOL0     H84469  11.897   6.465   2.884  0.1388 -1.3440  0.8239
  626MOL0     H84470  12.134   6.339   2.717  1.0946  0.9912 -2.5887
  626MOL0     H84471  12.363   6.238   2.815 -0.0538 -1.2017  2.2835
  626MOL0     H84472  12.787   6.624   2.879 -0.2647 -0.3126  1.5688
  626MOL0     H84473  13.038   6.595   2.839  2.8721 -1.2441 -0.3628
  626MOL0     H84474  13.233   6.310   3.100 -1.6133 -1.3040  0.6731
  626MOL0     H84475  13.232   6.199   2.954 -0.6311  1.5605 -2.1178
  626MOL0     H84476  13.410   6.321   2.862  0.8694  1.1944  0.2122
  626MOL0     H84477  13.417   6.430   3.012  0.0313 -0.3219  1.0550
  626MOL0     H84478  13.475   6.246   3.141  0.9083  0.7883 -0.3100
  626MOL0     H84479  13.454   6.135   2.992  0.9395 -0.5476  0.5569
  626MOL0     H84480  13.670   6.335   2.982 -1.7480  0.2414 -1.2053
  626MOL0     H84481  13.648   6.183   2.905 -1.6013 -0.8513 -0.6881
  626MOL0     H84482  13.711   6.057   3.114 -1.4785 -0.7000  3.4054
  626MOL0     H84483  13.680   6.191   3.218  1.4159 -0.2397  0.8076
  626MOL0     H84484  13.908   6.188   3.022  1.6598  0.6599  0.9130
  626MOL0     H84485  13.859   6.320   3.132 -0.8950  0.9138  0.1853
  626MOL0     H84486  13.935   6.017   3.201  0.7606 -0.0554 -0.1425
  626MOL0     H84487  13.857   6.127   3.315 -0.4526 -0.0459  0.3246
  626MOL0     H84488  14.053   6.273   3.321 -1.1974  0.5098 -1.1096
  626MOL0     H84489  14.115   6.112   3.340  0.6564  1.0317  0.4095
  626MOL0     H84490  13.028   6.238   3.062 -0.7683 -2.0986 -1.6387
  626MOL0     H84491  12.789   6.251   3.096  0.9282  0.2153  1.7741
  626MOL0     H84492  12.425   6.599   3.029  0.4530 -1.6132  2.4109
  626MOL0     H84493  12.218   6.682   2.961  0.7685  0.5036  1.0423
  626MOL0     H84494  10.366   7.172   2.787  1.3814  1.1486  0.3670
  626MOL0     H84495  10.149   7.273   2.777  1.8450  0.9968 -1.2629
  626MOL0     H84496   9.752   7.301   2.939  1.2541 -1.2990  1.8601
  626MOL0     H84497   9.539   7.302   2.986 -0.9894  0.1706 -0.8901
  626MOL0     H84498   9.348   7.309   3.157  1.3282  1.6760  1.5882
  626MOL0     H84499   9.319   7.377   2.992  3.3919 -0.4366  0.5322
  626MOL0     H84500   9.098   7.357   3.070  0.6276  0.3831 -2.0501
  626MOL0     H84501   9.140   7.530   3.096  1.0735 -0.5427 -1.1383
  626MOL0     H84502   9.200   7.464   3.335  3.1546  1.8364 -3.7017
  626MOL0     H84503   9.152   7.293   3.293  1.8870  0.2855 -0.2264
  626MOL0     H84504   8.924   7.385   3.219  1.2303 -1.7341 -0.5807
  626MOL0     H84505   8.959   7.356   3.388  0.4063  0.9195 -0.4948
  626MOL0     H84506   8.886   7.748   3.423  3.0195  1.0724  0.1749
  626MOL0     H84507   9.585   7.674   3.217 -0.3470 -1.3150  2.8336
  626MOL0     H84508   9.770   7.775   3.226 -2.0925 -1.2144 -0.2451
  626MOL0     H84509   9.928   7.679   3.235 -1.5048 -0.5732  0.6247
  626MOL0     H84510   9.891   7.768   3.092  2.5421 -1.2482  0.7941
  627MOL0     O84511  10.281  10.789   2.109  0.6740  0.0224 -0.0186
  627MOL0     C84512  10.279  10.815   2.232 -0.1728  0.2901 -0.0609
  627MOL0     O84513  10.380  10.884   2.300 -0.0330  0.3943  0.6844
  627MOL0     C84514  10.511  10.879   2.256 -0.2416 -0.4473  0.8841
  627MOL0     C84515  10.597  10.786   2.308  0.7661 -0.3827 -0.7305
  627MOL0     C84516  10.734  10.790   2.282  0.7565  0.7260 -0.3156
  627MOL0     C84517  10.785  10.884   2.188 -0.4414 -0.0880 -0.0056
  627MOL0     O84518  10.919  10.875   2.151 -0.1584 -0.1603  0.4485
  627MOL0     C84519  10.941  10.901   2.010  0.2844 -0.2210 -0.0993
  627MOL0     C84520  11.006  11.032   1.968 -0.5214 -0.8379 -0.3353
  627MOL0     C84521  11.065  11.033   1.818  0.2041 -0.5856  0.2347
  627MOL0     C84522  11.089  11.182   1.771 -0.4992  0.9930 -1.4592
  627MOL0     C84523  11.168  11.194   1.639 -0.2424 -0.5525 -0.5499
  627MOL0     C84524  11.102  11.140   1.512  0.3610 -0.2499 -0.4435
  627MOL0     C84525  10.958  11.189   1.490  0.6798 -0.3155 -0.1199
  627MOL0     C84526  10.886  11.153   1.359 -0.2102  0.0195 -0.3803
  627MOL0     N84527  10.965  11.202   1.236  0.5234 -0.2297 -0.2349
  627MOL0     C84528  11.058  11.133   1.160  0.4009 -0.0038  0.3039
  627MOL0     C84529  11.068  11.206   1.041  1.1022  0.0595 -0.0096
  627MOL0     C84530  11.169  11.194   0.936  0.2575 -0.5648 -0.1447
  627MOL0     C84531  11.291  11.279   0.963 -0.5885 -0.2883 -0.4354
  627MOL0     C84532  11.338  11.362   0.841  0.1152  0.3637  0.6175
  627MOL0     C84533  11.434  11.464   0.874  0.2730 -0.5902  0.4281
  627MOL0     O84534  11.483  11.521   0.755  0.6914  0.2586  0.5937
  627MOL0     C84535  11.616  11.547   0.748 -0.6718 -0.0918  0.4553
  627MOL0     C84536  11.693  11.564   0.858 -0.3473  0.1185  0.1273
  627MOL0     C84537  11.827  11.587   0.838  0.5585 -0.0970  0.6544
  627MOL0     C84538  11.887  11.588   0.713  0.0118 -0.0090 -0.6228
  627MOL0     C84539  12.028  11.626   0.694  0.1489 -0.0592 -0.3209
  627MOL0     O84540  12.094  11.688   0.791  0.1347  0.2904  0.2367
  627MOL0     C84541  12.233  11.687   0.798 -0.2896  0.0546 -0.2102
  627MOL0     C84542  12.328  11.599   0.738 -0.0945  0.3745 -0.2741
  627MOL0     C84543  12.467  11.605   0.770  0.0464 -1.0088  0.0771
  627MOL0     C84544  12.509  11.690   0.861  0.6504 -0.2014 -0.2538
  627MOL0     O84545  12.639  11.711   0.898 -0.1769 -0.5204  0.3766
  627MOL0     C84546  12.752  11.632   0.847  0.3629  0.7963 -0.4767
  627MOL0     C84547  12.879  11.675   0.913  0.0585 -0.8466  0.3055
  627MOL0     C84548  12.997  11.601   0.864  0.2874 -0.6552 -0.5739
  627MOL0     C84549  13.120  11.661   0.939 -0.3052 -0.0067 -0.0041
  627MOL0     C84550  13.234  11.599   0.862 -1.2462  0.1868 -0.6026
  627MOL0     C84551  13.374  11.636   0.922  0.6028 -0.4061 -0.1719
  627MOL0     C84552  13.479  11.544   0.881  0.0692  0.1265  0.2726
  627MOL0     C84553  13.616  11.589   0.920  0.3041 -0.5747  0.4780
  627MOL0    Cl84554  13.646  11.760   0.901  0.3001 -0.0310 -0.7710
  627MOL0     C84555  12.411  11.774   0.930  0.2762 -0.1642  0.0471
  627MOL0     C84556  12.275  11.780   0.888  0.2009  0.3575 -0.4574
  627MOL0     O84557  12.078  11.579   0.591  0.2164  0.8202  0.1456
  627MOL0     C84558  11.811  11.559   0.593 -0.6006 -0.0954 -0.6211
  627MOL0     C84559  11.667  11.559   0.611  0.0220  0.7143 -0.0199
  627MOL0     N84560  10.970  11.307   1.050 -0.2868 -1.0784  0.6127
  627MOL0     N84561  10.913  11.308   1.161  0.3203 -0.1975 -0.1739
  627MOL0     C84562  10.697  10.987   2.140 -0.5097 -0.5185 -0.2451
  627MOL0     C84563  10.558  10.979   2.167 -0.0797 -0.4361  0.7408
  627MOL0     C84564  10.144  10.801   2.303  0.1604  0.8178 -0.7990
  627MOL0     C84565  10.027  10.765   2.234  0.3295  0.5903  0.7453
  627MOL0     C84566   9.898  10.756   2.292  0.0721  0.7794 -0.4515
  627MOL0     C84567   9.875  10.783   2.419 -0.6203  0.0363 -0.6818
  627MOL0     O84568   9.752  10.798   2.478 -0.0096 -0.4419 -0.4888
  627MOL0     C84569   9.633  10.813   2.394  0.9546 -0.5285  0.2714
  627MOL0     C84570   9.552  10.680   2.385 -0.0806  0.5740 -1.3036
  627MOL0     C84571   9.497  10.647   2.525  0.5516 -0.1805 -0.6115
  627MOL0     C84572   9.419  10.519   2.529 -0.2876  0.2092  0.2244
  627MOL0     C84573   9.361  10.509   2.663  0.4883 -0.3656 -0.0346
  627MOL0     C84574   9.315  10.500   2.777 -0.2300  0.4444  0.2679
  627MOL0     C84575   9.993  10.809   2.494 -0.3857 -0.0084 -0.4260
  627MOL0     C84576  10.123  10.822   2.443 -0.1711 -0.0766 -0.3861
  627MOL0     C84577  10.235  10.852   2.541  0.4087 -0.1775  0.3098
  627MOL0     H84578  10.563  10.725   2.391  3.3230  0.3974  1.0343
  627MOL0     H84579  10.810  10.716   2.303  1.6971  2.0035  0.8548
  627MOL0     H84580  11.005  10.821   1.971  0.2958  0.6987 -2.1294
  627MOL0     H84581  10.847  10.899   1.954  0.4265 -2.8692 -0.3447
  627MOL0     H84582  11.095  11.055   2.027  0.7422  1.0659 -2.7913
  627MOL0     H84583  10.934  11.114   1.974 -1.9674 -2.0577 -0.3538
  627MOL0     H84584  11.000  10.978   1.750  1.6214 -0.6845 -1.0991
  627MOL0     H84585  11.161  10.981   1.821  0.0362 -0.8882  0.6052
  627MOL0     H84586  10.994  11.237   1.766 -1.2632 -0.2204 -0.7342
  627MOL0     H84587  11.144  11.236   1.849 -2.3940  0.2906  0.4590
  627MOL0     H84588  11.174  11.302   1.624 -0.3587 -0.6889 -1.6250
  627MOL0     H84589  11.267  11.150   1.649 -1.5050 -3.3117  1.2258
  627MOL0     H84590  11.160  11.175   1.426  1.0920 -0.0779  0.1041
  627MOL0     H84591  11.087  11.032   1.521 -2.8375  0.2713  3.9974
  627MOL0     H84592  10.958  11.297   1.506  0.3277 -0.2424 -0.5872
  627MOL0     H84593  10.888  11.154   1.567 -1.0563  4.4465  0.8245
  627MOL0     H84594  10.874  11.045   1.359 -2.5927  0.1978  1.5779
  627MOL0     H84595  10.790  11.206   1.353  1.8286  4.5024  1.5881
  627MOL0     H84596  11.103  11.038   1.186  0.9234  0.6273  1.8036
  627MOL0     H84597  11.189  11.086   0.932  3.2832 -0.2711  2.8952
  627MOL0     H84598  11.110  11.226   0.849  1.6021  0.2390 -0.7924
  627MOL0     H84599  11.283  11.343   1.051  3.7488 -0.4954  0.3405
  627MOL0     H84600  11.373  11.212   0.991  0.1518  0.3046 -1.1362
  627MOL0     H84601  11.246  11.400   0.794 -0.8135 -1.7591  0.6019
  627MOL0     H84602  11.379  11.306   0.756 -2.2673 -1.3599  0.4785
  627MOL0     H84603  11.519  11.415   0.923 -0.6755 -1.2998  1.4094
  627MOL0     H84604  11.377  11.541   0.926 -0.2921 -1.1099  0.5816
  627MOL0     H84605  11.653  11.585   0.956 -1.9618  0.9780 -0.6807
  627MOL0     H84606  11.879  11.601   0.932  1.7958  0.5344 -0.1033
  627MOL0     H84607  12.299  11.518   0.671  0.9887  0.2096 -0.5664
  627MOL0     H84608  12.537  11.532   0.731 -0.8709 -2.5264  1.1559
  627MOL0     H84609  12.727  11.528   0.872 -2.1182  1.3385 -0.4443
  627MOL0     H84610  12.757  11.640   0.738  0.7554 -0.6415 -0.5898
  627MOL0     H84611  12.887  11.775   0.869 -0.0547 -1.8600 -2.2124
  627MOL0     H84612  12.865  11.671   1.021  3.3314  0.0944  0.8523
  627MOL0     H84613  12.995  11.497   0.898 -1.5114  0.0433  1.7382
  627MOL0     H84614  13.002  11.597   0.755  0.4940  1.5219 -0.6964
  627MOL0     H84615  13.112  11.627   1.043 -0.7814 -1.2048 -0.4110
  627MOL0     H84616  13.131  11.769   0.937 -1.5364  0.1712  1.4740
  627MOL0     H84617  13.227  11.630   0.757 -0.1756 -0.0191 -0.7436
  627MOL0     H84618  13.214  11.492   0.866  0.3601 -0.2403 -2.5441
  627MOL0     H84619  13.391  11.740   0.892 -3.7342  0.2691 -0.9427
  627MOL0     H84620  13.365  11.632   1.031  0.0581 -0.3901 -0.2159
  627MOL0     H84621  13.471  11.539   0.772  0.7877 -0.9589  0.2589
  627MOL0     H84622  13.472  11.441   0.916  0.5103 -0.0067 -0.0193
  627MOL0     H84623  13.640  11.551   1.020  0.3661 -0.7232  0.4073
  627MOL0     H84624  13.692  11.544   0.855  1.3036  0.7609  0.6910
  627MOL0     H84625  12.458  11.847   0.996  3.4280 -0.6465 -1.4781
  627MOL0     H84626  12.211  11.857   0.930  1.4641  1.1208  0.1271
  627MOL0     H84627  11.851  11.556   0.492  0.6509  3.2632 -0.3642
  627MOL0     H84628  11.596  11.556   0.529 -0.4550 -0.7809  0.4177
  627MOL0     H84629  10.737  11.069   2.082  1.8285 -1.8699 -0.6784
  627MOL0     H84630  10.493  11.061   2.140  0.3506 -0.3753 -0.1548
  627MOL0     H84631  10.031  10.748   2.127 -2.5456  1.5674  0.3924
  627MOL0     H84632   9.820  10.723   2.225 -0.4245  1.0534 -0.0107
  627MOL0     H84633   9.652  10.843   2.291  0.3024  1.7062  0.7428
  627MOL0     H84634   9.562  10.883   2.441  2.6478  0.2717  1.7534
  627MOL0     H84635   9.616  10.604   2.339 -0.1892  0.6792 -1.6288
  627MOL0     H84636   9.474  10.700   2.311  1.0218  0.2854 -2.5858
  627MOL0     H84637   9.417  10.713   2.560 -0.1736 -1.0304 -0.6242
  627MOL0     H84638   9.567  10.638   2.608 -0.4188 -3.3802 -0.0032
  627MOL0     H84639   9.355  10.520   2.440  0.7501  1.2010 -0.5514
  627MOL0     H84640   9.487  10.435   2.519 -1.4530 -0.5123 -3.0781
  627MOL0     H84641   9.273  10.483   2.874 -1.3784  1.0011 -0.1065
  627MOL0     H84642   9.975  10.822   2.600  0.1941  0.0184 -0.3264
  627MOL0     H84643  10.203  10.871   2.644 -0.4857  0.4921 -0.0754
  627MOL0     H84644  10.304  10.767   2.540  1.4701  0.6556  0.8306
  627MOL0     H84645  10.293  10.937   2.505  0.8007 -0.5720 -0.0016
  628MOL0     O84646   6.281  11.030   2.569  0.0636  0.1643  0.1007
  628MOL0     C84647   6.221  10.971   2.654  0.8094  0.1105 -0.3528
  628MOL0     O84648   6.280  10.877   2.734  0.3719  0.1416 -0.0015
  628MOL0     C84649   6.420  10.888   2.740 -0.0130  0.1641 -0.6363
  628MOL0     C84650   6.501  10.790   2.682 -0.2757 -0.1031  0.3498
  628MOL0     C84651   6.647  10.797   2.698  0.0190 -0.3782  0.5530
  628MOL0     C84652   6.697  10.905   2.762  0.6208  0.9039 -0.6661
  628MOL0     O84653   6.829  10.915   2.781 -0.1437  0.2735 -0.1256
  628MOL0     C84654   6.893  11.022   2.711  0.4795 -0.7096  0.3395
  628MOL0     C84655   7.021  11.064   2.784 -0.4581 -0.0450 -0.6439
  628MOL0     C84656   7.120  11.113   2.681  0.6315 -0.9241 -0.8013
  628MOL0     C84657   7.222  11.205   2.749 -0.4415 -0.0178 -0.1265
  628MOL0     C84658   7.326  11.276   2.656 -0.0959 -0.3380 -0.2768
  628MOL0     C84659   7.282  11.385   2.556  0.6309  0.4390  0.3866
  628MOL0     C84660   7.199  11.498   2.612 -0.0257  0.4541 -0.5617
  628MOL0     C84661   7.147  11.608   2.513 -0.3114 -0.0171 -0.0835
  628MOL0     N84662   7.256  11.654   2.420 -0.0182  0.2337 -0.1940
  628MOL0     C84663   7.268  11.605   2.295  0.2803  0.3016  0.7239
  628MOL0     C84664   7.388  11.651   2.264 -1.5127 -0.5095  0.5082
  628MOL0     C84665   7.452  11.660   2.123 -0.1604 -0.3532  0.8713
  628MOL0     C84666   7.600  11.637   2.113 -0.5976 -0.6103 -0.3475
  628MOL0     C84667   7.659  11.493   2.139 -0.5231  1.0689 -0.9358
  628MOL0     C84668   7.810  11.503   2.146 -1.3148 -0.3840  0.0200
  628MOL0     O84669   7.869  11.557   2.025 -0.0688  0.1423  0.3712
  628MOL0     C84670   8.004  11.543   2.002 -0.3445  0.2717  0.4278
  628MOL0     C84671   8.056  11.612   1.893 -0.0417 -0.0800  0.0290
  628MOL0     C84672   8.190  11.593   1.865 -0.3011 -0.8413  0.6229
  628MOL0     C84673   8.277  11.508   1.940  0.0539  0.2753 -0.3289
  628MOL0     C84674   8.422  11.489   1.919 -0.0861 -0.1267  0.1053
  628MOL0     O84675   8.491  11.439   2.021 -0.1256 -0.2640  0.7624
  628MOL0     C84676   8.629  11.440   2.025  0.3990 -0.2780  0.7484
  628MOL0     C84677   8.694  11.318   2.014 -0.8773 -0.4555  0.6220
  628MOL0     C84678   8.833  11.323   2.026  0.0279  0.3437  0.0971
  628MOL0     C84679   8.900  11.447   2.057 -0.0105  0.5100 -0.0073
  628MOL0     O84680   9.038  11.422   2.075  0.1785  0.5391  0.1081
  628MOL0     C84681   9.062  11.453   2.217 -0.1835 -0.6713  0.5712
  628MOL0     C84682   9.210  11.428   2.251  0.9204 -0.6457 -0.1963
  628MOL0     C84683   9.253  11.278   2.255 -0.0654 -0.1202 -0.0258
  628MOL0     C84684   9.409  11.273   2.257  0.6383 -0.2333 -0.5145
  628MOL0     C84685   9.468  11.134   2.242  0.2473  0.0933 -0.2264
  628MOL0     C84686   9.627  11.134   2.244 -0.0421  0.3473 -0.1140
  628MOL0     C84687   9.673  11.162   2.393  0.0426  0.2990  0.0490
  628MOL0     C84688   9.818  11.154   2.409  0.1922  0.3484  0.0343
  628MOL0    Cl84689   9.915  11.250   2.295  0.4367 -0.3970 -0.1927
  628MOL0     C84690   8.834  11.564   2.055 -0.1130 -0.0970  0.1307
  628MOL0     C84691   8.700  11.562   2.033  1.0132  0.0033  0.7166
  628MOL0     O84692   8.471  11.523   1.811  0.9604 -0.5147 -0.6637
  628MOL0     C84693   8.224  11.444   2.065  0.1304 -0.3699  0.7721
  628MOL0     C84694   8.078  11.468   2.093 -0.3572  0.9817  0.2086
  628MOL0     N84695   7.445  11.721   2.375  0.6493  0.2509  0.3882
  628MOL0     N84696   7.356  11.736   2.458  0.4680 -0.4145 -0.5184
  628MOL0     C84697   6.619  11.005   2.812  0.4869 -0.4980  0.7375
  628MOL0     C84698   6.481  10.995   2.805  0.4799  0.2085  1.0238
  628MOL0     C84699   6.072  10.975   2.655 -0.3977 -0.0188 -0.0037
  628MOL0     C84700   6.006  10.916   2.761 -1.4936  0.6815 -0.0035
  628MOL0     C84701   5.870  10.909   2.781 -0.1567  0.2562 -0.2284
  628MOL0     C84702   5.789  10.987   2.704  0.7889  0.1138  0.6863
  628MOL0     O84703   5.652  10.985   2.740  0.2461  0.3378 -0.1801
  628MOL0     C84704   5.571  11.084   2.689  0.4131 -0.4356 -0.7489
  628MOL0     C84705   5.600  11.224   2.750 -0.3727 -0.3446  0.4935
  628MOL0     C84706   5.525  11.345   2.697 -0.1307 -1.0131  0.8185
  628MOL0     C84707   5.509  11.354   2.550 -0.2555 -0.2032 -0.1668
  628MOL0     C84708   5.630  11.384   2.472  0.4936 -0.1027  0.3899
  628MOL0     C84709   5.734  11.419   2.418  0.1030 -0.0755 -0.4596
  628MOL0     C84710   5.851  11.063   2.606 -0.1472 -0.2305 -0.5703
  628MOL0     C84711   5.982  11.049   2.573  0.3874 -0.3188  0.2569
  628MOL0     C84712   6.036  11.139   2.467 -0.3210 -0.4394 -0.7023
  628MOL0     H84713   6.451  10.708   2.632  1.0320 -2.0307  2.0410
  628MOL0     H84714   6.710  10.721   2.653 -1.3773 -0.5740 -1.1366
  628MOL0     H84715   6.912  10.981   2.612 -0.9917 -0.8463  0.0946
  628MOL0     H84716   6.831  11.110   2.694  1.0279 -0.0601  1.5334
  628MOL0     H84717   7.062  10.988   2.851 -1.5248  1.8132  2.3012
  628MOL0     H84718   6.992  11.148   2.847 -0.1427  0.4548 -1.1596
  628MOL0     H84719   7.058  11.173   2.613  0.6308  0.2288  0.1919
  628MOL0     H84720   7.168  11.032   2.625  2.2960 -1.8079  1.7196
  628MOL0     H84721   7.165  11.282   2.803 -1.3314 -0.6549 -0.1404
  628MOL0     H84722   7.278  11.144   2.822 -0.8990  0.2784  0.4831
  628MOL0     H84723   7.397  11.328   2.720  1.0862 -0.2042 -1.6383
  628MOL0     H84724   7.385  11.201   2.602  0.6667  0.2522 -0.2798
  628MOL0     H84725   7.374  11.422   2.509  0.0365 -1.2887 -2.3533
  628MOL0     H84726   7.226  11.342   2.473  0.4455  2.3552 -0.5179
  628MOL0     H84727   7.266  11.546   2.685 -0.7774  0.7922 -0.0820
  628MOL0     H84728   7.122  11.454   2.676  1.6360 -0.8179  0.6725
  628MOL0     H84729   7.089  11.554   2.437  1.4358  0.2254 -1.6485
  628MOL0     H84730   7.100  11.690   2.568  0.2344 -1.5418  2.8725
  628MOL0     H84731   7.193  11.557   2.233 -1.1678  1.0961  1.8133
  628MOL0     H84732   7.409  11.598   2.044 -0.0127  2.2570 -1.3971
  628MOL0     H84733   7.425  11.761   2.091 -3.5591 -0.4489  2.8827
  628MOL0     H84734   7.626  11.661   2.009 -0.7254 -0.0512 -0.2511
  628MOL0     H84735   7.645  11.713   2.177  0.4748 -1.0255 -0.5971
  628MOL0     H84736   7.640  11.417   2.062  1.1829 -1.8724  1.3656
  628MOL0     H84737   7.622  11.463   2.237 -0.2657  1.0538 -0.8453
  628MOL0     H84738   7.846  11.400   2.151  2.8181  0.8821 -0.0705
  628MOL0     H84739   7.850  11.554   2.234 -0.4751 -0.3203 -0.3929
  628MOL0     H84740   7.994  11.676   1.831  0.7748 -0.3278 -1.0762
  628MOL0     H84741   8.243  11.631   1.779  0.1662 -3.9111 -0.5623
  628MOL0     H84742   8.638  11.226   2.000 -0.1650 -0.5149 -2.4753
  628MOL0     H84743   8.888  11.232   2.005 -0.5028  0.4732 -2.1320
  628MOL0     H84744   9.048  11.559   2.239 -0.2502 -0.2556 -1.2846
  628MOL0     H84745   8.996  11.391   2.276 -0.4854 -1.4600 -0.5562
  628MOL0     H84746   9.267  11.493   2.184  1.2553  3.3777  3.4962
  628MOL0     H84747   9.225  11.456   2.356  1.1893  0.6864 -0.5782
  628MOL0     H84748   9.217  11.222   2.342 -1.1576 -0.2237 -0.5376
  628MOL0     H84749   9.225  11.226   2.163  2.2786  0.8096 -1.3650
  628MOL0     H84750   9.441  11.306   2.356  1.6367 -5.5433  1.2788
  628MOL0     H84751   9.436  11.342   2.177 -0.8484 -1.5727 -2.2622
  628MOL0     H84752   9.440  11.088   2.146 -2.1554  0.2480  0.3327
  628MOL0     H84753   9.433  11.084   2.333 -0.2772  2.3572  0.8905
  628MOL0     H84754   9.657  11.033   2.213 -1.1754  0.1908 -0.7631
  628MOL0     H84755   9.675  11.191   2.163 -1.6227 -1.2936 -2.3440
  628MOL0     H84756   9.627  11.087   2.458  2.5666 -2.1237 -0.7574
  628MOL0     H84757   9.651  11.264   2.426 -0.6583  0.8683 -2.0180
  628MOL0     H84758   9.843  11.178   2.512 -3.2348 -1.1248  1.3640
  628MOL0     H84759   9.855  11.051   2.406  0.5025  0.3615  2.0521
  628MOL0     H84760   8.887  11.657   2.071 -2.0345  0.9743  0.5573
  628MOL0     H84761   8.645  11.655   2.034  2.7267  1.0935 -0.4491
  628MOL0     H84762   8.283  11.389   2.137 -0.8671 -1.9086  0.4488
  628MOL0     H84763   8.039  11.413   2.178 -0.8607 -1.0064 -1.2334
  628MOL0     H84764   6.666  11.084   2.869  0.4457  2.6482 -3.1333
  628MOL0     H84765   6.412  11.073   2.835 -0.4547 -0.0832 -0.2833
  628MOL0     H84766   6.050  10.870   2.849 -1.8638  0.0698 -0.1344
  628MOL0     H84767   5.832  10.853   2.866 -2.1811 -1.3024 -2.0444
  628MOL0     H84768   5.469  11.053   2.714  0.7518 -0.2442  1.0074
  628MOL0     H84769   5.575  11.070   2.581  0.1384 -0.8355 -0.7068
  628MOL0     H84770   5.705  11.252   2.734 -1.8546  4.9309 -2.1735
  628MOL0     H84771   5.590  11.209   2.858 -2.7318 -1.9143  0.1236
  628MOL0     H84772   5.572  11.436   2.736  0.8247 -1.6560  1.2041
  628MOL0     H84773   5.427  11.328   2.742 -1.9724  0.3102 -2.3516
  628MOL0     H84774   5.462  11.263   2.510  1.9650 -1.2653 -0.5503
  628MOL0     H84775   5.443  11.436   2.522  0.3865 -0.0156 -1.2094
  628MOL0     H84776   5.825  11.442   2.366  0.1259 -0.1415 -0.4493
  628MOL0     H84777   5.792  11.122   2.536  0.2752 -0.4499 -1.1122
  628MOL0     H84778   6.106  11.090   2.399 -1.3551 -3.7940  0.4804
  628MOL0     H84779   5.963  11.196   2.408 -0.4802  0.4899  0.3596
  628MOL0     H84780   6.089  11.220   2.519 -1.0038 -0.5006  0.1001
  629MOL0     O84781   9.402  10.782   8.630 -0.5433  0.2761 -0.3566
  629MOL0     C84782   9.348  10.674   8.629 -0.0423  0.5709  0.2838
  629MOL0     O84783   9.414  10.557   8.587  0.0729 -0.2919  0.0236
  629MOL0     C84784   9.550  10.557   8.554  0.5327 -0.5672 -0.4509
  629MOL0     C84785   9.644  10.641   8.627  0.0389 -0.3948  0.9001
  629MOL0     C84786   9.781  10.644   8.583 -0.3681 -0.3708  0.3693
  629MOL0     C84787   9.822  10.571   8.469 -0.2568 -0.2331  0.1771
  629MOL0     O84788   9.951  10.568   8.415  0.6803 -0.2497  0.6493
  629MOL0     C84789  10.045  10.668   8.459  0.0588 -0.3414 -0.5457
  629MOL0     C84790  10.131  10.612   8.572 -0.1246 -0.3548 -0.3792
  629MOL0     C84791  10.233  10.509   8.519 -1.2038 -0.2398 -0.0916
  629MOL0     C84792  10.356  10.500   8.609  0.0592  0.9559  0.0421
  629MOL0     C84793  10.459  10.420   8.523  0.0878 -0.1667 -0.6797
  629MOL0     C84794  10.592  10.417   8.605 -0.1324 -0.2186 -0.0105
  629MOL0     C84795  10.716  10.385   8.525 -0.2709  0.1804  0.7267
  629MOL0     C84796  10.705  10.257   8.442  0.6034  0.2629 -1.0576
  629MOL0     N84797  10.821  10.242   8.366 -0.2804 -0.1551 -0.1899
  629MOL0     C84798  10.829  10.311   8.248 -0.0364 -0.3364  0.2523
  629MOL0     C84799  10.945  10.254   8.195 -0.1284 -0.4472 -0.7218
  629MOL0     C84800  11.005  10.289   8.057 -0.3970  0.0664  1.0384
  629MOL0     C84801  11.101  10.406   8.068  1.0055 -0.6176 -0.5609
  629MOL0     C84802  11.178  10.407   7.931  0.4410 -0.1188  0.5371
  629MOL0     C84803  11.292  10.523   7.944 -0.6183 -0.1714  0.1823
  629MOL0     O84804  11.368  10.510   8.069 -0.4844 -0.0133 -0.3194
  629MOL0     C84805  11.458  10.397   8.064  1.0132 -0.3809  0.1506
  629MOL0     C84806  11.495  10.330   7.953  0.1358  0.1559  0.0960
  629MOL0     C84807  11.590  10.225   7.967  0.0244  0.4390  0.4441
  629MOL0     C84808  11.645  10.182   8.089 -0.3290 -0.3347 -0.1810
  629MOL0     C84809  11.727  10.069   8.103 -0.1266  0.4372  1.3776
  629MOL0     O84810  11.745  10.034   8.232 -0.4146 -0.0663  0.7173
  629MOL0     C84811  11.822   9.923   8.271 -0.3855  0.1980  1.2973
  629MOL0     C84812  11.776   9.805   8.326  0.1401 -0.7038  0.0127
  629MOL0     C84813  11.852   9.716   8.391 -1.1448  0.1136  0.0364
  629MOL0     C84814  11.988   9.731   8.395 -0.3207  0.1158 -1.0696
  629MOL0     O84815  12.059   9.629   8.465 -0.0275 -0.1355  0.1993
  629MOL0     C84816  12.198   9.646   8.494  0.5614  0.2925  0.8758
  629MOL0     C84817  12.240   9.522   8.586 -0.1753  0.7861  0.1610
  629MOL0     C84818  12.389   9.552   8.625  0.1751 -0.1656 -0.0445
  629MOL0     C84819  12.437   9.460   8.736 -0.0114 -1.3105 -0.8204
  629MOL0     C84820  12.370   9.498   8.875  0.5361 -0.6207  0.1852
  629MOL0     C84821  12.463   9.499   8.991 -1.0166  0.6789  0.4123
  629MOL0     C84822  12.553   9.623   9.005  0.1319  1.1736  0.1316
  629MOL0     C84823  12.606   9.617   9.153 -0.5505  0.3968  0.7188
  629MOL0    Cl84824  12.664   9.773   9.222  0.5185  0.2347  0.2217
  629MOL0     C84825  12.042   9.847   8.348 -0.2998  1.1779 -0.5758
  629MOL0     C84826  11.961   9.951   8.288 -0.6696 -1.0753 -0.7149
  629MOL0     O84827  11.770  10.006   8.002  0.7402  0.2185 -0.0758
  629MOL0     C84828  11.598  10.252   8.202  0.6044 -0.6129  0.1059
  629MOL0     C84829  11.510  10.356   8.190  0.9351 -0.5570  0.6081
  629MOL0     N84830  10.994  10.156   8.280  0.4636  0.5046  0.9920
  629MOL0     N84831  10.922  10.156   8.377 -0.0154  0.2112 -0.0283
  629MOL0     C84832   9.728  10.503   8.400  0.0520 -0.7220 -0.9047
  629MOL0     C84833   9.593  10.486   8.444 -0.0614  0.1647 -0.8744
  629MOL0     C84834   9.204  10.678   8.654  0.3688 -0.2342 -0.0269
  629MOL0     C84835   9.144  10.550   8.668 -0.5382  0.1320  0.4208
  629MOL0     C84836   9.004  10.533   8.677  0.1492 -0.3903  0.5102
  629MOL0     C84837   8.922  10.645   8.694 -0.4316  0.0880 -0.3058
  629MOL0     O84838   8.787  10.635   8.724  0.6658  0.1315  0.0137
  629MOL0     C84839   8.715  10.499   8.721 -0.5175 -0.3035  0.0636
  629MOL0     C84840   8.580  10.506   8.787  0.1903 -0.2950 -0.2485
  629MOL0     C84841   8.478  10.591   8.703 -0.3106 -0.1094 -0.5220
  629MOL0     C84842   8.340  10.578   8.755  1.1450  0.1047  0.3088
  629MOL0     C84843   8.269  10.451   8.723  0.3380  0.7669  0.0053
  629MOL0     C84844   8.205  10.346   8.701  0.3601  0.9391 -0.0137
  629MOL0     C84845   8.986  10.774   8.704  0.7519  1.0272 -0.3321
  629MOL0     C84846   9.119  10.793   8.670  0.0216  0.1189 -0.2914
  629MOL0     C84847   9.165  10.938   8.670 -0.6001  0.2659 -1.1829
  629MOL0     H84848   9.612  10.714   8.700 -2.6461  1.5773 -1.9942
  629MOL0     H84849   9.850  10.697   8.647 -0.7209  1.5079 -0.7181
  629MOL0     H84850  10.117  10.700   8.383  0.7661 -0.7207 -0.0436
  629MOL0     H84851   9.997  10.762   8.484 -1.4447 -1.4846  1.0793
  629MOL0     H84852  10.066  10.558   8.642 -0.8740  0.6886 -0.2494
  629MOL0     H84853  10.188  10.685   8.629 -2.4628 -0.0695  1.8074
  629MOL0     H84854  10.263  10.553   8.424 -1.2844 -0.2966 -0.1447
  629MOL0     H84855  10.190  10.411   8.492  2.8596 -1.2336 -4.0389
  629MOL0     H84856  10.409  10.594   8.628  0.2114  1.2444 -1.6457
  629MOL0     H84857  10.313  10.453   8.697 -1.8284 -0.4597 -1.5465
  629MOL0     H84858  10.421  10.321   8.498  1.6022 -1.0398  0.3419
  629MOL0     H84859  10.482  10.476   8.432  2.5103  0.2665  0.1315
  629MOL0     H84860  10.616  10.518   8.638 -3.1038  1.2261 -1.8081
  629MOL0     H84861  10.579  10.345   8.686  0.2291 -2.2592 -1.6547
  629MOL0     H84862  10.806  10.389   8.587 -0.3110  2.0905  0.6989
  629MOL0     H84863  10.734  10.464   8.452 -1.4001  0.6346  0.9301
  629MOL0     H84864  10.699  10.171   8.509  0.9348 -0.2004 -1.6122
  629MOL0     H84865  10.616  10.257   8.377 -0.4273  0.4785  0.3046
  629MOL0     H84866  10.757  10.384   8.215 -1.9927 -1.2874  2.2032
  629MOL0     H84867  11.060  10.202   8.019  1.6561  2.5148 -2.0578
  629MOL0     H84868  10.919  10.303   7.991  0.1034 -0.2691  0.3081
  629MOL0     H84869  11.038  10.494   8.081  2.7899  0.6287  0.0957
  629MOL0     H84870  11.170  10.391   8.152 -0.8233  1.3803  1.4302
  629MOL0     H84871  11.102  10.415   7.852 -1.6157  0.5004  2.4541
  629MOL0     H84872  11.228  10.311   7.924 -0.9639 -0.7546 -2.2057
  629MOL0     H84873  11.232  10.615   7.952 -0.6027  0.0294 -1.7235
  629MOL0     H84874  11.358  10.536   7.859 -0.5189  1.0635  0.4212
  629MOL0     H84875  11.454  10.348   7.854 -0.6042  0.1172  0.3927
  629MOL0     H84876  11.606  10.171   7.874 -4.4447  0.1084 -0.3638
  629MOL0     H84877  11.670   9.790   8.309  0.3989 -1.8527 -0.6828
  629MOL0     H84878  11.803   9.629   8.434 -0.5903  0.1367  0.7390
  629MOL0     H84879  12.255   9.658   8.401 -2.2866  3.2112 -0.6594
  629MOL0     H84880  12.212   9.742   8.545  1.5620  0.7886 -0.2683
  629MOL0     H84881  12.185   9.521   8.680 -0.6052  0.2926 -0.0911
  629MOL0     H84882  12.231   9.425   8.536  0.1973  1.3518 -1.0574
  629MOL0     H84883  12.452   9.512   8.545  0.1640 -0.8793  0.2918
  629MOL0     H84884  12.406   9.657   8.648 -3.3943  0.5134  0.1448
  629MOL0     H84885  12.545   9.462   8.751  0.1280 -1.9510 -1.6161
  629MOL0     H84886  12.410   9.357   8.707  0.1093 -1.7651  0.6277
  629MOL0     H84887  12.290   9.428   8.898 -1.1249  1.7681  2.3064
  629MOL0     H84888  12.329   9.599   8.876 -2.0436 -1.6106  0.8263
  629MOL0     H84889  12.388   9.500   9.071 -1.1672 -0.3531  0.2880
  629MOL0     H84890  12.517   9.405   8.984 -0.6324  0.9299  0.0037
  629MOL0     H84891  12.499   9.714   8.976  2.2498  1.7588 -2.3934
  629MOL0     H84892  12.634   9.617   8.932 -1.0571  4.0161 -1.5884
  629MOL0     H84893  12.527   9.585   9.222  0.2772  0.4903  1.7252
  629MOL0     H84894  12.691   9.550   9.151 -0.1610  0.8758  0.8975
  629MOL0     H84895  12.149   9.859   8.353  0.1454 -1.9538  4.2361
  629MOL0     H84896  11.999  10.046   8.253 -2.1724 -0.9585 -2.1821
  629MOL0     H84897  11.625  10.231   8.305 -0.7989  1.3710  0.9438
  629MOL0     H84898  11.454  10.396   8.274 -1.4456 -3.0381  0.3406
  629MOL0     H84899   9.755  10.441   8.315  1.2767 -1.4837  0.0118
  629MOL0     H84900   9.519  10.426   8.392 -1.0533 -1.2017  1.8740
  629MOL0     H84901   9.207  10.464   8.646  1.5660  1.4530  0.9430
  629MOL0     H84902   8.966  10.432   8.664  0.1389 -0.5348  1.5990
  629MOL0     H84903   8.768  10.409   8.754 -0.5559 -0.4447 -0.2573
  629MOL0     H84904   8.704  10.473   8.616 -0.7492  1.9044 -0.5105
  629MOL0     H84905   8.581  10.534   8.893 -1.7485 -0.1936 -0.2178
  629MOL0     H84906   8.537  10.406   8.794  0.2761 -0.2194  4.3110
  629MOL0     H84907   8.493  10.557   8.600  1.2131  1.7474 -0.9783
  629MOL0     H84908   8.520  10.692   8.714 -0.2668 -0.1620 -0.2151
  629MOL0     H84909   8.337  10.595   8.863 -0.2395  2.4326 -0.0252
  629MOL0     H84910   8.282  10.662   8.715  0.5411 -1.0223 -1.2791
  629MOL0     H84911   8.141  10.261   8.690  0.8028  0.4530  0.9732
  629MOL0     H84912   8.909  10.847   8.725 -0.8421 -1.1801  2.2067
  629MOL0     H84913   9.206  10.968   8.573 -0.7261 -1.0777 -1.6696
  629MOL0     H84914   9.078  11.002   8.689 -1.9101 -1.7953  0.3173
  629MOL0     H84915   9.249  10.949   8.739  0.1877  0.8528 -2.2037
  630MOL0     O84916   6.385   3.226   5.204 -0.3344  0.4320  0.2341
  630MOL0     C84917   6.386   3.132   5.128 -0.8590  0.1699  0.0905
  630MOL0     O84918   6.471   3.021   5.142 -0.1320  0.8168 -0.3057
  630MOL0     C84919   6.566   3.031   5.251  0.5764  1.3982  0.0115
  630MOL0     C84920   6.699   3.022   5.224 -0.3787  0.1281 -0.7335
  630MOL0     C84921   6.801   3.046   5.317 -0.4323  0.2277  0.7329
  630MOL0     C84922   6.760   3.062   5.451  0.0901 -0.5249  0.7107
  630MOL0     O84923   6.850   3.066   5.556  0.6145 -0.5987 -0.3423
  630MOL0     C84924   6.988   3.041   5.549  0.6195 -0.3164 -0.6064
  630MOL0     C84925   7.070   3.164   5.499  0.0329 -0.8923  0.1696
  630MOL0     C84926   7.215   3.139   5.534 -0.1931 -0.3411 -0.6241
  630MOL0     C84927   7.297   3.256   5.488 -0.8523 -1.1997  0.5885
  630MOL0     C84928   7.450   3.231   5.493  0.8395  0.6422 -0.7011
  630MOL0     C84929   7.530   3.354   5.444  0.2188  0.5203  0.8502
  630MOL0     C84930   7.680   3.328   5.442 -0.2066 -0.1240  0.0613
  630MOL0     C84931   7.733   3.227   5.541  0.0002 -0.5148  0.2214
  630MOL0     N84932   7.880   3.219   5.529 -0.2036 -0.4277  0.8016
  630MOL0     C84933   7.971   3.318   5.564 -0.2111  0.2450 -1.0230
  630MOL0     C84934   8.098   3.263   5.558  0.0431 -0.9839  0.3205
  630MOL0     C84935   8.223   3.342   5.588 -0.1856  0.3335  0.9281
  630MOL0     C84936   8.289   3.283   5.720  0.0056  0.5480 -0.6365
  630MOL0     C84937   8.405   3.385   5.762 -0.8135  0.0538  0.5746
  630MOL0     C84938   8.499   3.312   5.869 -0.2295  1.0633  0.5534
  630MOL0     O84939   8.591   3.402   5.916 -0.6161 -0.3449  0.4293
  630MOL0     C84940   8.723   3.393   5.875  0.4397  0.5167  0.2249
  630MOL0     C84941   8.754   3.349   5.749  0.0730 -0.9402  0.3561
  630MOL0     C84942   8.888   3.360   5.708 -0.6140  0.0555  0.2906
  630MOL0     C84943   8.993   3.402   5.790  0.2944  0.2866  0.1922
  630MOL0     C84944   9.127   3.401   5.751  0.0693  0.5541 -0.3165
  630MOL0     O84945   9.153   3.439   5.623  0.6292 -0.1101 -0.8696
  630MOL0     C84946   9.282   3.445   5.586 -0.4367 -0.4514  0.6336
  630MOL0     C84947   9.318   3.364   5.479  0.0165  0.4230 -0.1548
  630MOL0     C84948   9.441   3.374   5.425 -0.2401 -0.0227 -0.4751
  630MOL0     C84949   9.537   3.463   5.473  0.2536 -0.7570 -0.4608
  630MOL0     O84950   9.656   3.487   5.404  0.6489  0.3815  0.2799
  630MOL0     C84951   9.779   3.495   5.479 -0.2552  0.6966 -0.5766
  630MOL0     C84952   9.836   3.356   5.473 -0.2154  1.2229 -0.0258
  630MOL0     C84953   9.978   3.337   5.549 -0.6504  0.0424 -0.3435
  630MOL0     C84954  10.102   3.388   5.469 -0.9458 -0.6038  0.0617
  630MOL0     C84955  10.232   3.385   5.557 -0.4743 -0.1740  0.3932
  630MOL0     C84956  10.349   3.321   5.477  1.0618  0.3141 -0.3958
  630MOL0     C84957  10.453   3.246   5.564  0.4775 -0.0978 -0.1728
  630MOL0     C84958  10.569   3.189   5.482  0.2080 -0.3113 -0.2813
  630MOL0    Cl84959  10.697   3.315   5.440  0.4779 -0.0616 -0.0586
  630MOL0     C84960   9.504   3.545   5.581  1.4109  0.8467  0.5244
  630MOL0     C84961   9.376   3.544   5.638  1.2335  0.2578  0.4973
  630MOL0     O84962   9.211   3.354   5.829 -0.4179 -0.6335 -0.0026
  630MOL0     C84963   8.962   3.443   5.919 -1.4923 -0.1420  0.1691
  630MOL0     C84964   8.827   3.441   5.962 -0.4729  0.3952 -0.4325
  630MOL0     N84965   8.087   3.140   5.512 -0.0650  0.1943 -0.3881
  630MOL0     N84966   7.953   3.120   5.495 -0.5829  0.0392  0.0925
  630MOL0     C84967   6.624   3.065   5.479 -0.4912 -0.1183  0.1222
  630MOL0     C84968   6.525   3.057   5.374 -1.4046  0.4846 -0.4020
  630MOL0     C84969   6.298   3.132   5.010 -0.0950  0.1793  0.1390
  630MOL0     C84970   6.330   3.054   4.899  0.2851  0.4641  0.2680
  630MOL0     C84971   6.251   3.043   4.785 -0.5581  0.0210 -0.1441
  630MOL0     C84972   6.126   3.109   4.781 -0.2030  0.1205 -0.3227
  630MOL0     O84973   6.055   3.111   4.658  0.3084 -0.2561  0.1751
  630MOL0     C84974   5.918   3.145   4.639  0.1272 -0.4024  0.4714
  630MOL0     C84975   5.834   3.075   4.743  0.5412 -0.1337 -0.0380
  630MOL0     C84976   5.686   3.065   4.701 -0.2091  0.5423  0.4441
  630MOL0     C84977   5.590   3.180   4.729  0.0929 -0.1261 -0.4158
  630MOL0     C84978   5.567   3.202   4.874  0.2761 -0.3810 -0.1936
  630MOL0     C84979   5.537   3.214   4.990  0.5766  0.5730 -0.0282
  630MOL0     C84980   6.096   3.195   4.886  0.1171 -0.4469 -0.7122
  630MOL0     C84981   6.173   3.200   5.002  0.5259  0.4231  0.4809
  630MOL0     C84982   6.122   3.282   5.125 -0.6018 -0.4225  0.1442
  630MOL0     H84983   6.719   3.011   5.117 -1.6722  0.1180 -0.9921
  630MOL0     H84984   6.907   3.052   5.294  0.7580  3.9826  5.3895
  630MOL0     H84985   7.014   3.022   5.654 -0.5960  3.7952  0.6698
  630MOL0     H84986   7.003   2.952   5.488 -1.4050 -0.1123 -1.4792
  630MOL0     H84987   7.023   3.256   5.533  0.6181 -0.5815  0.1523
  630MOL0     H84988   7.057   3.167   5.391  0.1592  1.2191  0.1799
  630MOL0     H84989   7.260   3.049   5.490 -0.4234 -0.9647  0.3701
  630MOL0     H84990   7.221   3.132   5.643  0.0442  0.9837 -0.5344
  630MOL0     H84991   7.283   3.283   5.383  1.2256 -0.3155  0.4835
  630MOL0     H84992   7.290   3.351   5.541  6.4179  2.3571 -3.2198
  630MOL0     H84993   7.472   3.224   5.599 -2.4777 -0.9402  0.0186
  630MOL0     H84994   7.468   3.140   5.435  0.7774 -0.5732  1.1179
  630MOL0     H84995   7.503   3.374   5.340 -2.8844  0.4325  1.5452
  630MOL0     H84996   7.510   3.446   5.500  1.9374  2.6506 -1.7904
  630MOL0     H84997   7.739   3.419   5.453  1.5471 -1.0745 -1.0122
  630MOL0     H84998   7.697   3.291   5.340 -2.6076  0.2190 -0.5208
  630MOL0     H84999   7.713   3.258   5.644 -0.9747  0.4080 -0.2230
  630MOL0     H85000   7.694   3.127   5.521  0.1425 -0.2310 -1.6594
  630MOL0     H85001   7.943   3.416   5.602 -1.4889  0.1419 -1.6495
  630MOL0     H85002   8.295   3.332   5.506 -1.5712 -1.2566 -0.1431
  630MOL0     H85003   8.199   3.448   5.598  2.0406  0.8029  2.1612
  630MOL0     H85004   8.217   3.278   5.802  0.9595  2.2537  0.3513
  630MOL0     H85005   8.324   3.182   5.696 -2.4913 -0.5585  0.0804
  630MOL0     H85006   8.377   3.483   5.801  1.5310  3.4664 -5.1030
  630MOL0     H85007   8.475   3.404   5.680  2.2642 -2.0250  2.4906
  630MOL0     H85008   8.542   3.225   5.818 -0.8127  1.6600 -1.0350
  630MOL0     H85009   8.442   3.277   5.955 -1.2991  1.8157  0.1807
  630MOL0     H85010   8.678   3.324   5.676 -1.1753  0.1889  1.2112
  630MOL0     H85011   8.898   3.337   5.602  0.5749  0.3238  0.3340
  630MOL0     H85012   9.240   3.306   5.431 -1.1827  0.3365  1.7822
  630MOL0     H85013   9.466   3.306   5.345  0.3899  1.6935 -1.8189
  630MOL0     H85014   9.845   3.563   5.425  0.0452  0.7962 -0.0876
  630MOL0     H85015   9.760   3.535   5.579 -0.5002 -0.4024 -0.1700
  630MOL0     H85016   9.774   3.282   5.525  0.2209  1.3871  0.7429
  630MOL0     H85017   9.847   3.332   5.367 -0.6180 -2.4581  0.6537
  630MOL0     H85018   9.970   3.384   5.647 -1.1084 -1.6807  0.4834
  630MOL0     H85019  10.007   3.234   5.571  3.0878  0.7718 -1.1162
  630MOL0     H85020  10.076   3.484   5.423 -0.3064 -0.3434  0.2278
  630MOL0     H85021  10.116   3.309   5.394 -4.2845 -2.2320  0.9826
  630MOL0     H85022  10.203   3.323   5.643  0.4476 -1.3393 -0.1089
  630MOL0     H85023  10.262   3.482   5.598  3.0606  0.7748 -3.6963
  630MOL0     H85024  10.307   3.247   5.409  2.4553 -0.1186 -0.8006
  630MOL0     H85025  10.397   3.392   5.409 -0.2090  0.7902 -0.8256
  630MOL0     H85026  10.393   3.170   5.616  1.6447 -1.4954 -0.7974
  630MOL0     H85027  10.503   3.311   5.636  1.9620 -0.9331 -0.4121
  630MOL0     H85028  10.617   3.113   5.545  0.2161 -1.0588 -1.1762
  630MOL0     H85029  10.533   3.142   5.390 -0.3819  1.3026 -0.9077
  630MOL0     H85030   9.572   3.620   5.620  0.1474  0.2597  4.2877
  630MOL0     H85031   9.362   3.608   5.724  1.3326 -0.2252  0.8752
  630MOL0     H85032   9.046   3.470   5.982 -1.0956 -0.3714 -0.2563
  630MOL0     H85033   8.790   3.475   6.058  2.1674 -0.7574  1.0767
  630MOL0     H85034   6.608   3.077   5.586  2.0336 -0.8970  0.6651
  630MOL0     H85035   6.425   3.055   5.417  0.4808  3.1699  5.0285
  630MOL0     H85036   6.420   2.993   4.899  0.6698  0.9934 -1.2228
  630MOL0     H85037   6.280   2.974   4.706  1.0492  0.8733 -0.3278
  630MOL0     H85038   5.887   3.113   4.539 -0.0905  0.5065  0.2427
  630MOL0     H85039   5.899   3.251   4.658 -0.4779 -0.0967 -1.5859
  630MOL0     H85040   5.851   3.119   4.841  1.8171 -1.5938  0.4430
  630MOL0     H85041   5.880   2.976   4.756  2.1860  0.2359 -2.4151
  630MOL0     H85042   5.647   2.969   4.735 -0.0799  0.0921 -0.6677
  630MOL0     H85043   5.689   3.059   4.592 -0.3077  0.9539  0.4176
  630MOL0     H85044   5.645   3.268   4.697 -0.4687  0.3665 -0.0505
  630MOL0     H85045   5.496   3.179   4.672 -0.2620  2.2450  0.0332
  630MOL0     H85046   5.491   3.221   5.087  0.0083 -1.4090 -0.1120
  630MOL0     H85047   6.011   3.262   4.881  0.9751  0.6381 -1.3066
  630MOL0     H85048   6.020   3.318   5.105 -0.0929  0.1206 -1.6457
  630MOL0     H85049   6.133   3.221   5.215  2.9997 -2.3283 -1.4000
  630MOL0     H85050   6.180   3.374   5.134  0.1371 -0.5610 -2.4652
  631MOL0     O85051  10.575  10.772   2.814  0.1092 -0.1216  0.4626
  631MOL0     C85052  10.548  10.694   2.722 -0.1135  0.5701 -0.0203
  631MOL0     O85053  10.630  10.671   2.620  0.5208  0.5319  0.2660
  631MOL0     C85054  10.767  10.695   2.626  0.2892  0.4689  0.0569
  631MOL0     C85055  10.849  10.589   2.655  0.3932  0.2394 -0.9374
  631MOL0     C85056  10.983  10.605   2.686 -0.2811  0.2382  0.6172
  631MOL0     C85057  11.033  10.736   2.686  0.3922 -0.1770 -0.0589
  631MOL0     O85058  11.167  10.766   2.696  0.6384  0.6804 -0.0769
  631MOL0     C85059  11.256  10.669   2.768  0.2386  0.5111 -0.1041
  631MOL0     C85060  11.389  10.740   2.773 -0.2233 -0.2335  0.4461
  631MOL0     C85061  11.506  10.692   2.865  0.0941 -0.9762 -0.2367
  631MOL0     C85062  11.555  10.555   2.843 -1.0942 -0.1110 -0.3285
  631MOL0     C85063  11.674  10.531   2.930  0.8382  0.3761  0.6450
  631MOL0     C85064  11.712  10.379   2.940  1.4946 -0.2295  1.1077
  631MOL0     C85065  11.857  10.379   3.003  0.7321  1.2971 -0.3196
  631MOL0     C85066  11.962  10.423   2.901 -0.2800  0.3297  0.4138
  631MOL0     N85067  12.085  10.354   2.922  0.2076  0.4354  0.6066
  631MOL0     C85068  12.177  10.366   3.019 -1.3442 -0.0049 -0.0310
  631MOL0     C85069  12.266  10.265   2.994  0.0478 -0.2677  0.0280
  631MOL0     C85070  12.388  10.240   3.067 -0.2021 -0.1389  0.2853
  631MOL0     C85071  12.519  10.265   2.993  0.0310  0.3693  0.7336
  631MOL0     C85072  12.642  10.252   3.093  0.4849  0.5687 -0.9851
  631MOL0     C85073  12.733  10.140   3.067  0.2260  0.5000 -0.0645
  631MOL0     O85074  12.835  10.155   2.968 -0.0259  0.0684  0.2356
  631MOL0     C85075  12.933  10.246   2.990  0.2845 -0.3184  0.0886
  631MOL0     C85076  12.978  10.284   3.119 -0.6207  0.2026 -0.8483
  631MOL0     C85077  13.092  10.365   3.147  0.2883 -0.2953  0.5811
  631MOL0     C85078  13.145  10.438   3.041  0.1600 -0.6066  0.4589
  631MOL0     C85079  13.257  10.539   3.062  0.4694  0.1364 -0.0101
  631MOL0     O85080  13.302  10.607   2.958  0.6448  1.0297 -0.0872
  631MOL0     C85081  13.434  10.652   2.958 -0.1505 -0.3050  0.2791
  631MOL0     C85082  13.538  10.588   2.891  0.4465  0.5839  0.0359
  631MOL0     C85083  13.665  10.644   2.885 -0.1168  0.3291  0.0569
  631MOL0     C85084  13.693  10.758   2.954  1.1329  0.5133  1.0287
  631MOL0     O85085  13.817  10.816   2.960  0.5781 -0.1018 -0.0810
  631MOL0     C85086  13.923  10.744   2.900  0.5656  0.0412 -0.3181
  631MOL0     C85087  14.048  10.843   2.896 -0.9963 -0.4744  0.1219
  631MOL0     C85088  14.172  10.754   2.877 -0.2602 -0.4204 -0.2623
  631MOL0     C85089  14.289  10.858   2.868  0.6800  1.0442 -0.2100
  631MOL0     C85090  14.421  10.780   2.844  0.9182  0.3098  0.4673
  631MOL0     C85091  14.523  10.866   2.768 -0.0403 -0.7839  0.2404
  631MOL0     C85092  14.609  10.958   2.868  0.5009  0.9278  0.6957
  631MOL0     C85093  14.739  10.895   2.899 -0.9243  0.0896 -0.4310
  631MOL0    Cl85094  14.713  10.731   2.970 -0.2022  0.2556 -0.1246
  631MOL0     C85095  13.596  10.828   3.029 -0.3593  1.1560  0.1269
  631MOL0     C85096  13.467  10.765   3.032 -0.1155  0.2424  0.2164
  631MOL0     O85097  13.293  10.555   3.180 -0.4022  0.1767  0.2504
  631MOL0     C85098  13.095  10.413   2.911 -0.1816 -0.3931 -0.2464
  631MOL0     C85099  12.998  10.319   2.889 -0.1130 -0.3127  0.5128
  631MOL0     N85100  12.228  10.200   2.882 -0.9270  0.2382 -0.4282
  631MOL0     N85101  12.114  10.249   2.846 -0.7768  0.0868 -0.0768
  631MOL0     C85102  10.954  10.847   2.640 -0.1255  0.2834 -0.0827
  631MOL0     C85103  10.818  10.824   2.617  1.0966  0.0106 -0.3132
  631MOL0     C85104  10.414  10.629   2.736  0.2834 -0.5636  0.5031
  631MOL0     C85105  10.326  10.687   2.828  0.0059  0.6225 -0.5608
  631MOL0     C85106  10.191  10.651   2.844  0.2096 -0.4894 -0.3294
  631MOL0     C85107  10.139  10.548   2.762 -0.0629  0.1233  0.0746
  631MOL0     O85108  10.008  10.526   2.755  0.2819  0.7955  0.5063
  631MOL0     C85109   9.916  10.596   2.843 -0.0827  0.1389  0.7660
  631MOL0     C85110   9.783  10.517   2.850  0.5533  0.3658 -0.3638
  631MOL0     C85111   9.781  10.401   2.951  0.1043 -1.0123  0.2821
  631MOL0     C85112   9.635  10.348   2.971  0.3662  0.3559  0.5860
  631MOL0     C85113   9.639  10.231   3.056  0.3480 -0.0986  0.1883
  631MOL0     C85114   9.618  10.135   3.117  0.0137 -0.0136  0.5660
  631MOL0     C85115  10.228  10.491   2.667 -0.1203  0.2550  0.6276
  631MOL0     C85116  10.357  10.529   2.656  0.0465  0.4792  0.2061
  631MOL0     C85117  10.441  10.475   2.539  0.1742  0.0857 -1.8819
  631MOL0     H85118  10.809  10.492   2.681  2.1246 -0.1898  0.3442
  631MOL0     H85119  11.049  10.521   2.701  0.4217  0.2024 -2.0563
  631MOL0     H85120  11.225  10.644   2.870  2.1121  0.7538  0.5653
  631MOL0     H85121  11.261  10.578   2.707  1.2814  1.3047 -1.2667
  631MOL0     H85122  11.351  10.836   2.809 -1.1412  0.4946 -2.2097
  631MOL0     H85123  11.415  10.738   2.666 -2.8722 -0.2212 -0.2485
  631MOL0     H85124  11.475  10.689   2.970  2.2466  1.1565  0.5766
  631MOL0     H85125  11.586  10.766   2.855  0.2875 -1.5116 -4.8819
  631MOL0     H85126  11.480  10.476   2.852  0.6171 -1.7352  0.3214
  631MOL0     H85127  11.596  10.553   2.742 -3.3194  0.9375 -1.3188
  631MOL0     H85128  11.747  10.595   2.882  0.6116 -1.0776 -1.7870
  631MOL0     H85129  11.654  10.565   3.032  0.5250 -1.9825  1.4401
  631MOL0     H85130  11.651  10.327   3.015 -0.9614  1.6972  0.6057
  631MOL0     H85131  11.704  10.326   2.845  3.7632  0.4340  0.4955
  631MOL0     H85132  11.875  10.278   3.040 -1.4356  1.0980  0.3070
  631MOL0     H85133  11.867  10.448   3.087  1.6000  1.6275 -0.6799
  631MOL0     H85134  11.915  10.404   2.804 -1.4023  2.1810  0.5454
  631MOL0     H85135  11.985  10.529   2.914 -0.0318  0.3077  0.1628
  631MOL0     H85136  12.183  10.450   3.087  0.1302  0.7352 -1.0349
  631MOL0     H85137  12.391  10.311   3.150  0.5013  2.2690 -1.6608
  631MOL0     H85138  12.401  10.145   3.118  3.0752  0.8120  1.4936
  631MOL0     H85139  12.532  10.194   2.911  2.7538  0.0483  1.3306
  631MOL0     H85140  12.526  10.361   2.939  0.9771 -1.8024 -3.4636
  631MOL0     H85141  12.614  10.239   3.198 -0.5619  1.7172 -1.0975
  631MOL0     H85142  12.705  10.342   3.089  1.8863 -0.2873  0.7434
  631MOL0     H85143  12.669  10.057   3.036  0.2822 -0.3427  1.9403
  631MOL0     H85144  12.773  10.107   3.163 -1.5614  0.6363  0.7661
  631MOL0     H85145  12.935  10.236   3.206  0.2374  0.0170 -0.5181
  631MOL0     H85146  13.129  10.373   3.249 -0.0523 -4.0075  1.1550
  631MOL0     H85147  13.515  10.493   2.843 -2.6967  1.6805 -0.8442
  631MOL0     H85148  13.742  10.590   2.832  1.6568  3.9050 -1.3978
  631MOL0     H85149  13.950  10.658   2.961 -2.0742  0.6349  1.8660
  631MOL0     H85150  13.903  10.729   2.793  0.3498  0.8562 -0.3972
  631MOL0     H85151  14.034  10.914   2.814 -2.1250  0.0162  0.7127
  631MOL0     H85152  14.059  10.901   2.989  0.5273 -0.7421  0.1386
  631MOL0     H85153  14.195  10.685   2.959  3.2346  1.6569  0.7188
  631MOL0     H85154  14.165  10.694   2.786 -3.5708  0.9124 -1.0439
  631MOL0     H85155  14.290  10.907   2.966 -3.1318 -1.9313  1.6083
  631MOL0     H85156  14.273  10.924   2.782 -1.4559 -0.1285 -0.7858
  631MOL0     H85157  14.403  10.702   2.770  1.3002  0.5469  0.1272
  631MOL0     H85158  14.459  10.742   2.940 -1.9643  1.3463  2.1709
  631MOL0     H85159  14.586  10.798   2.711 -0.6285 -1.5937  0.5319
  631MOL0     H85160  14.472  10.928   2.694  2.3704  2.7197  1.2646
  631MOL0     H85161  14.554  10.962   2.963 -0.2752 -0.9955  0.3813
  631MOL0     H85162  14.635  11.057   2.829  2.2624 -0.8987 -3.2630
  631MOL0     H85163  14.796  10.889   2.805 -1.8064  1.3547 -1.0686
  631MOL0     H85164  14.815  10.953   2.952  0.5598 -0.5851 -1.7378
  631MOL0     H85165  13.619  10.919   3.083 -0.8309  1.1841  0.2918
  631MOL0     H85166  13.382  10.810   3.084  0.1600  2.5428 -1.1643
  631MOL0     H85167  13.144  10.472   2.834  1.8026 -1.5243  0.0911
  631MOL0     H85168  12.961  10.293   2.791 -2.9551 -1.6008  1.8003
  631MOL0     H85169  10.990  10.945   2.610 -0.0263 -0.0337 -1.0465
  631MOL0     H85170  10.753  10.909   2.600  3.9988  2.8207  1.6205
  631MOL0     H85171  10.367  10.766   2.890  0.9291 -2.1571  2.6905
  631MOL0     H85172  10.134  10.713   2.913  0.8356 -0.6666  0.3576
  631MOL0     H85173   9.903  10.695   2.798  1.0604  0.4186  1.0041
  631MOL0     H85174   9.947  10.599   2.947 -1.3083 -3.6886  1.4043
  631MOL0     H85175   9.754  10.468   2.757  0.7039 -0.1381 -0.1520
  631MOL0     H85176   9.704  10.588   2.877 -0.7574 -1.2004  0.0975
  631MOL0     H85177   9.808  10.435   3.051  0.5037  2.6111 -0.9062
  631MOL0     H85178   9.845  10.318   2.920 -1.9083 -1.6155 -2.6446
  631MOL0     H85179   9.577  10.432   3.011 -0.8450  0.1242 -0.6269
  631MOL0     H85180   9.601  10.312   2.873  1.5178 -1.2555  0.7412
  631MOL0     H85181   9.592  10.050   3.177 -0.3909  0.5300  1.1788
  631MOL0     H85182  10.187  10.424   2.592  0.2201  0.1785  0.5053
  631MOL0     H85183  10.384  10.396   2.489 -1.7687  0.0056  0.2986
  631MOL0     H85184  10.466  10.560   2.474  1.8130  1.5700  0.5280
  631MOL0     H85185  10.530  10.433   2.586 -1.4426 -1.2585  0.1474
  632MOL0     O85186   4.532  10.207   9.204  1.0163 -0.2981 -0.1704
  632MOL0     C85187   4.528  10.095   9.256  0.0238 -0.1447 -0.3202
  632MOL0     O85188   4.640  10.012   9.268 -0.1835  0.2894 -0.2977
  632MOL0     C85189   4.749  10.050   9.188  0.4388 -0.1664  0.2827
  632MOL0     C85190   4.790   9.953   9.095 -0.1629  0.0262 -0.3734
  632MOL0     C85191   4.884   9.984   8.995 -0.4991 -0.2318 -0.1333
  632MOL0     C85192   4.943  10.105   8.993 -0.4890 -0.5726 -0.5259
  632MOL0     O85193   5.034  10.138   8.891 -0.0304  0.4587  0.1384
  632MOL0     C85194   4.966  10.179   8.765 -0.1058 -0.1983  0.0212
  632MOL0     C85195   5.075  10.191   8.662  0.5584  0.0943  0.1466
  632MOL0     C85196   5.182  10.295   8.691  0.2645  0.3405 -0.6461
  632MOL0     C85197   5.265  10.328   8.566  0.1467 -0.5496 -0.2621
  632MOL0     C85198   5.356  10.441   8.611 -0.3586 -0.2086 -0.3674
  632MOL0     C85199   5.446  10.502   8.504 -1.2483  0.3133 -0.2868
  632MOL0     C85200   5.569  10.409   8.474 -0.0851 -0.8924 -0.0475
  632MOL0     C85201   5.661  10.395   8.594  0.4053 -0.7071 -0.5360
  632MOL0     N85202   5.783  10.320   8.541 -0.0240 -0.8912 -0.8263
  632MOL0     C85203   5.804  10.182   8.543 -1.2188  0.1909  0.5278
  632MOL0     C85204   5.927  10.153   8.499 -0.6891  0.0497 -0.0924
  632MOL0     C85205   5.990  10.020   8.484 -0.0317 -0.2425 -0.0356
  632MOL0     C85206   6.149  10.028   8.493  0.2094  0.2788 -0.3573
  632MOL0     C85207   6.198  10.061   8.631  0.2358 -0.2282  0.8082
  632MOL0     C85208   6.348  10.058   8.624 -0.3574  0.2838  0.5420
  632MOL0     O85209   6.402  10.086   8.746 -0.1227  0.5287  0.2539
  632MOL0     C85210   6.536  10.129   8.749  0.7948  0.2361 -0.6184
  632MOL0     C85211   6.559  10.244   8.841  0.1509  0.6016 -0.0422
  632MOL0     C85212   6.683  10.293   8.856 -1.1369  0.0228 -0.5176
  632MOL0     C85213   6.793  10.225   8.789 -0.5177  0.4399  0.4123
  632MOL0     C85214   6.927  10.279   8.808 -0.0074  0.6371  0.8620
  632MOL0     O85215   7.022  10.226   8.734  1.1032 -0.2304  0.7224
  632MOL0     C85216   7.153  10.271   8.724  0.1762 -1.1273  0.4869
  632MOL0     C85217   7.225  10.328   8.835 -0.5597  0.5998  0.5161
  632MOL0     C85218   7.361  10.370   8.820 -0.3127  1.3538 -0.8282
  632MOL0     C85219   7.415  10.366   8.693  0.3716  0.5010 -0.0767
  632MOL0     O85220   7.548  10.392   8.687  0.8357 -0.1302  0.0780
  632MOL0     C85221   7.584  10.492   8.599 -0.3040 -0.2850 -0.0181
  632MOL0     C85222   7.728  10.516   8.647  0.3426 -1.2958 -0.1903
  632MOL0     C85223   7.763  10.658   8.604  0.0911 -0.0500 -0.0131
  632MOL0     C85224   7.910  10.697   8.618 -0.0585 -0.9611 -0.2714
  632MOL0     C85225   7.928  10.840   8.557  0.4394 -0.0309 -0.1007
  632MOL0     C85226   8.071  10.888   8.572 -0.1804  0.4207 -0.5837
  632MOL0     C85227   8.112  11.009   8.495 -0.3099  0.4844  0.3181
  632MOL0     C85228   8.019  11.122   8.508 -0.3172  0.2653 -0.6689
  632MOL0    Cl85229   8.019  11.188   8.676  0.1700  0.1019  0.4231
  632MOL0     C85230   7.341  10.310   8.585  0.3095  0.4400 -0.0973
  632MOL0     C85231   7.219  10.259   8.603  0.7426  0.8997 -0.2341
  632MOL0     O85232   6.935  10.380   8.874  0.1878 -0.5347 -0.4707
  632MOL0     C85233   6.762  10.115   8.707  0.4222  0.6488 -0.3744
  632MOL0     C85234   6.643  10.067   8.685  1.2336  0.6874  0.2908
  632MOL0     N85235   5.979  10.277   8.456  0.6532  0.1195  0.0987
  632MOL0     N85236   5.894  10.377   8.486  0.7393 -0.2708  0.4405
  632MOL0     C85237   4.902  10.200   9.089 -0.4661 -0.5616 -0.4574
  632MOL0     C85238   4.818  10.167   9.195  0.1959 -0.7206 -0.0281
  632MOL0     C85239   4.399  10.035   9.295 -1.1156  0.2969 -0.2632
  632MOL0     C85240   4.392   9.897   9.322  0.1122  0.8390  0.3947
  632MOL0     C85241   4.263   9.843   9.367 -0.2013 -0.5425  0.3544
  632MOL0     C85242   4.156   9.928   9.380 -0.2419  1.3176  0.8820
  632MOL0     O85243   4.048   9.851   9.416 -0.2375 -0.5479  0.4698
  632MOL0     C85244   3.928   9.911   9.400  0.9142 -0.0105 -0.0606
  632MOL0     C85245   3.812   9.832   9.459  0.3323  0.5855  0.6140
  632MOL0     C85246   3.805   9.689   9.397  0.3940  0.3414 -0.0805
  632MOL0     C85247   3.675   9.623   9.432  0.7279  0.7945  0.1273
  632MOL0     C85248   3.624   9.631   9.567  0.3057 -0.9572 -0.1114
  632MOL0     C85249   3.598   9.637   9.683  0.1490  0.0814  0.3076
  632MOL0     C85250   4.165  10.063   9.367  0.2063  0.2849  0.2754
  632MOL0     C85251   4.285  10.119   9.318  0.4096 -0.3124  0.6910
  632MOL0     C85252   4.285  10.265   9.312 -0.2286 -0.4147 -0.9134
  632MOL0     H85253   4.749   9.852   9.095 -3.9403  1.3639 -2.7867
  632MOL0     H85254   4.936   9.910   8.935  1.1857  0.7900  0.0155
  632MOL0     H85255   4.898  10.098   8.740  0.3690 -0.3099 -0.9466
  632MOL0     H85256   4.913  10.271   8.789  1.9053  1.1414 -0.4686
  632MOL0     H85257   5.023  10.216   8.569  1.1449  0.4717 -0.0842
  632MOL0     H85258   5.116  10.091   8.649 -0.7764 -0.3020 -1.3365
  632MOL0     H85259   5.245  10.267   8.777  1.2413 -1.6882 -1.9373
  632MOL0     H85260   5.127  10.385   8.721  1.4896  0.6021  1.0366
  632MOL0     H85261   5.320  10.239   8.535  1.8630  0.5533 -0.5248
  632MOL0     H85262   5.205  10.355   8.479  1.8310 -2.0885 -1.9580
  632MOL0     H85263   5.295  10.519   8.656 -3.0917 -0.7766 -2.7886
  632MOL0     H85264   5.428  10.404   8.685  0.0760  1.1432 -0.0990
  632MOL0     H85265   5.392  10.525   8.412 -0.2504  1.0694 -0.7097
  632MOL0     H85266   5.476  10.597   8.550 -0.4255  0.0504 -0.2685
  632MOL0     H85267   5.626  10.458   8.395 -0.9146 -1.2008 -0.8537
  632MOL0     H85268   5.539  10.311   8.436 -1.2591 -0.1553 -1.1030
  632MOL0     H85269   5.688  10.485   8.649  2.6518 -0.3723 -2.0561
  632MOL0     H85270   5.617  10.337   8.675  1.6401  1.5313  1.8648
  632MOL0     H85271   5.726  10.115   8.577 -1.7617  0.4945 -0.0776
  632MOL0     H85272   5.957   9.966   8.573 -1.9439  0.5460 -0.2355
  632MOL0     H85273   5.954   9.978   8.390  1.6932  1.2830 -1.4543
  632MOL0     H85274   6.188   9.929   8.466  0.7847  0.0142  1.3582
  632MOL0     H85275   6.187  10.104   8.424 -1.0118 -0.9778 -2.5398
  632MOL0     H85276   6.166   9.986   8.704 -0.3792  0.7917  1.6015
  632MOL0     H85277   6.174  10.164   8.655 -1.4693 -0.9823  2.5767
  632MOL0     H85278   6.386  10.133   8.555  1.4262 -0.8427  0.2549
  632MOL0     H85279   6.378   9.963   8.580 -1.6508  0.1632 -0.1223
  632MOL0     H85280   6.473  10.284   8.893 -0.1281  1.2658 -0.9845
  632MOL0     H85281   6.694  10.386   8.911 -5.4034  0.4147  0.0227
  632MOL0     H85282   7.177  10.335   8.932 -0.8416  0.3516  0.3977
  632MOL0     H85283   7.410  10.423   8.901 -1.6216 -1.5755  2.0969
  632MOL0     H85284   7.579  10.466   8.493  1.1820  2.3012 -0.7852
  632MOL0     H85285   7.515  10.576   8.609 -0.9604 -0.5157 -2.0471
  632MOL0     H85286   7.719  10.504   8.756 -4.8198  0.7107 -0.1092
  632MOL0     H85287   7.785  10.442   8.591  1.7229  0.6340 -1.4644
  632MOL0     H85288   7.731  10.671   8.500 -1.3166 -2.5683  0.0271
  632MOL0     H85289   7.699  10.721   8.665  2.3911 -0.0021  2.5350
  632MOL0     H85290   7.981  10.623   8.579 -0.1635 -0.4617 -1.4520
  632MOL0     H85291   7.929  10.709   8.725  2.2086  0.5844 -0.7782
  632MOL0     H85292   7.863  10.911   8.609  0.5269 -2.2906  3.3710
  632MOL0     H85293   7.902  10.841   8.451 -0.0596 -2.2668 -0.0498
  632MOL0     H85294   8.098  10.909   8.676 -1.8963  1.2427 -0.2677
  632MOL0     H85295   8.138  10.812   8.530 -1.8099 -1.7508  0.5323
  632MOL0     H85296   8.107  10.975   8.391  0.4770  2.9436 -0.6024
  632MOL0     H85297   8.213  11.043   8.519  0.6725 -0.6444 -1.8854
  632MOL0     H85298   8.055  11.202   8.441 -1.8487  0.4650 -1.2912
  632MOL0     H85299   7.918  11.094   8.477 -0.8168 -1.5939  2.3223
  632MOL0     H85300   7.391  10.296   8.490  1.3728  0.9346  0.3692
  632MOL0     H85301   7.176  10.198   8.524  3.1757 -1.3865  0.0588
  632MOL0     H85302   6.843  10.066   8.655  0.4830 -0.1223  0.4162
  632MOL0     H85303   6.638   9.983   8.617  0.6257  1.1801 -0.2891
  632MOL0     H85304   4.961  10.291   9.091  0.5227 -1.1945  0.3254
  632MOL0     H85305   4.791  10.248   9.262 -1.2378  0.0021 -1.3982
  632MOL0     H85306   4.477   9.831   9.322  0.3915  1.1048 -1.8908
  632MOL0     H85307   4.245   9.741   9.398 -0.1416 -0.1072  1.8888
  632MOL0     H85308   3.895   9.932   9.298 -2.2855  0.6781  0.9901
  632MOL0     H85309   3.931  10.000   9.465  0.2027 -1.3549  1.8928
  632MOL0     H85310   3.718   9.887   9.453  0.3594  0.7380  1.3892
  632MOL0     H85311   3.829   9.827   9.568  2.5235  2.7144  0.4677
  632MOL0     H85312   3.876   9.618   9.440 -5.0908 -4.4891  2.2821
  632MOL0     H85313   3.816   9.687   9.288  0.0501  0.7368 -0.1268
  632MOL0     H85314   3.594   9.655   9.366 -0.1796  1.4127  1.5107
  632MOL0     H85315   3.689   9.516   9.415  0.1585  0.5575  1.0735
  632MOL0     H85316   3.564   9.642   9.784 -0.8062 -2.7348  0.2121
  632MOL0     H85317   4.076  10.118   9.395 -0.1592 -0.7990  1.3328
  632MOL0     H85318   4.196  10.322   9.341  0.7339  0.5969  0.1703
  632MOL0     H85319   4.368  10.298   9.375 -1.1803  0.6207 -0.1570
  632MOL0     H85320   4.297  10.294   9.208 -0.5741  0.3226 -0.7558
  633MOL0     O85321   2.071   2.852   7.537 -0.2815 -0.0180 -0.8425
  633MOL0     C85322   2.043   2.808   7.647  0.4038  0.3301  0.5300
  633MOL0     O85323   2.139   2.754   7.736 -0.2913 -0.3532 -0.3782
  633MOL0     C85324   2.269   2.785   7.705  0.0376 -0.1381  0.1233
  633MOL0     C85325   2.346   2.863   7.794 -0.2554  1.0825 -0.0784
  633MOL0     C85326   2.490   2.868   7.773 -0.0483  0.2055 -0.3859
  633MOL0     C85327   2.553   2.802   7.665 -0.8774  0.1452  0.6319
  633MOL0     O85328   2.688   2.819   7.656  0.5153 -0.3388 -0.2667
  633MOL0     C85329   2.776   2.743   7.580 -0.4357  0.1409  0.2096
  633MOL0     C85330   2.920   2.799   7.581  0.4429 -0.1131 -0.4567
  633MOL0     C85331   3.023   2.708   7.499  0.0661 -0.2379  0.0029
  633MOL0     C85332   3.171   2.743   7.504 -0.1485  0.0554 -0.7087
  633MOL0     C85333   3.245   2.712   7.638 -0.0175 -0.7088 -0.4740
  633MOL0     C85334   3.392   2.768   7.649 -0.3997  0.2228 -0.6594
  633MOL0     C85335   3.497   2.659   7.634  0.8496  0.1257 -0.6842
  633MOL0     C85336   3.638   2.723   7.630 -0.1189  0.0042  0.5565
  633MOL0     N85337   3.751   2.636   7.592  0.5566 -0.2077  0.3692
  633MOL0     C85338   3.736   2.503   7.560  0.4677 -0.2023 -0.3892
  633MOL0     C85339   3.868   2.472   7.518  1.3430  0.3820  0.4228
  633MOL0     C85340   3.916   2.332   7.498  0.8068  0.2237 -0.8015
  633MOL0     C85341   4.070   2.319   7.489 -0.0535 -1.0343 -0.2561
  633MOL0     C85342   4.101   2.180   7.448 -0.1889  0.3855 -0.5954
  633MOL0     C85343   4.092   2.068   7.565  0.4752 -0.5850  0.2564
  633MOL0     O85344   4.153   2.125   7.679 -0.2536 -0.2748  0.0249
  633MOL0     C85345   4.274   2.068   7.710  0.6237 -0.4279  0.7938
  633MOL0     C85346   4.361   1.994   7.625 -0.3215 -0.9835  0.6896
  633MOL0     C85347   4.492   1.960   7.673  0.4425  0.1771  0.4381
  633MOL0     C85348   4.539   1.990   7.804 -0.0705  0.5431  1.0195
  633MOL0     C85349   4.665   1.933   7.856 -0.2900  0.1887  0.3055
  633MOL0     O85350   4.710   1.975   7.980  0.3307  0.7326 -0.4205
  633MOL0     C85351   4.827   1.915   8.017  0.2973 -0.2242 -0.2675
  633MOL0     C85352   4.833   1.779   8.055  0.1157  1.4436  0.6232
  633MOL0     C85353   4.948   1.723   8.102  0.4724 -0.1171 -0.1876
  633MOL0     C85354   5.061   1.798   8.129  0.0080  0.5901 -0.4400
  633MOL0     O85355   5.176   1.763   8.197 -0.0471  0.2915  0.2605
  633MOL0     C85356   5.166   1.646   8.283 -0.2081 -1.0501  0.5199
  633MOL0     C85357   5.290   1.649   8.373  0.5740  0.7057  1.1068
  633MOL0     C85358   5.413   1.620   8.281  0.3409  0.9611 -0.2582
  633MOL0     C85359   5.538   1.586   8.359  0.2404 -0.4499  0.8029
  633MOL0     C85360   5.661   1.554   8.279  0.1055  0.0690  0.0930
  633MOL0     C85361   5.724   1.680   8.226  0.3986  0.3552  0.1543
  633MOL0     C85362   5.826   1.655   8.126  0.6245 -0.5683  0.2516
  633MOL0     C85363   5.940   1.574   8.183 -0.3418  0.5401 -0.3432
  633MOL0    Cl85364   6.032   1.515   8.051  0.0941  0.2806  0.2244
  633MOL0     C85365   5.059   1.929   8.082 -0.0032  0.6268 -0.3273
  633MOL0     C85366   4.949   1.986   8.033  0.6124 -0.5392 -0.5029
  633MOL0     O85367   4.724   1.845   7.788  0.5505 -0.8157  0.1910
  633MOL0     C85368   4.455   2.064   7.884  0.3283 -0.8844  0.1263
  633MOL0     C85369   4.323   2.102   7.833 -0.1546  0.4690 -0.1405
  633MOL0     N85370   3.945   2.590   7.508  0.5197  0.1869  0.2628
  633MOL0     N85371   3.870   2.685   7.543  0.0887 -0.7477 -0.1339
  633MOL0     C85372   2.479   2.729   7.581 -0.1272 -0.2895  0.3410
  633MOL0     C85373   2.339   2.718   7.607 -0.2696 -1.4622  0.2574
  633MOL0     C85374   1.894   2.799   7.676  0.4253 -0.2646  0.3910
  633MOL0     C85375   1.818   2.905   7.622  0.6933 -0.0639 -0.3812
  633MOL0     C85376   1.680   2.916   7.659 -0.1951  0.0983 -0.7951
  633MOL0     C85377   1.611   2.815   7.736  0.3945 -0.5518 -0.2296
  633MOL0     O85378   1.478   2.823   7.771 -0.6141  0.2542 -0.0644
  633MOL0     C85379   1.411   2.942   7.719 -0.8273  0.3652  0.4153
  633MOL0     C85380   1.267   2.921   7.741  0.1231  1.2309 -0.4316
  633MOL0     C85381   1.229   2.937   7.893  0.6379  0.6968  0.0537
  633MOL0     C85382   1.089   2.888   7.944  0.4149 -0.0619  0.0371
  633MOL0     C85383   0.989   2.989   7.912  0.0047  0.3483  0.3490
  633MOL0     C85384   0.905   3.078   7.881 -0.2416 -0.3390  0.4488
  633MOL0     C85385   1.696   2.711   7.783  0.4695 -0.4427  0.2109
  633MOL0     C85386   1.833   2.705   7.753  0.3012  0.0254 -0.1263
  633MOL0     C85387   1.909   2.596   7.819  0.0471  0.2073 -0.4781
  633MOL0     H85388   2.295   2.905   7.880  1.0348  0.4234  1.0582
  633MOL0     H85389   2.560   2.923   7.836 -0.3943 -0.4598  0.5993
  633MOL0     H85390   2.773   2.637   7.608 -0.5013 -0.6883 -2.6305
  633MOL0     H85391   2.745   2.742   7.475 -1.7367  1.2770  0.5619
  633MOL0     H85392   2.950   2.802   7.687  1.1424  1.9646 -0.6815
  633MOL0     H85393   2.922   2.894   7.528  1.2773 -0.0567 -0.3337
  633MOL0     H85394   3.002   2.712   7.392  3.1039 -0.7878 -0.7097
  633MOL0     H85395   3.016   2.606   7.539 -1.1631  0.3704  1.4696
  633MOL0     H85396   3.220   2.683   7.426 -1.0018 -0.7707 -0.6321
  633MOL0     H85397   3.184   2.849   7.481 -2.7915  0.8719  1.0901
  633MOL0     H85398   3.205   2.764   7.726  2.7636  0.8147  0.0057
  633MOL0     H85399   3.239   2.605   7.659 -3.2460 -0.2767  1.6831
  633MOL0     H85400   3.411   2.836   7.565  3.9139 -1.2496 -1.1061
  633MOL0     H85401   3.402   2.823   7.743 -3.5189 -0.1948  0.0326
  633MOL0     H85402   3.470   2.606   7.542 -0.8725  0.2180 -0.2806
  633MOL0     H85403   3.489   2.589   7.717 -2.2285 -1.0752 -1.8233
  633MOL0     H85404   3.647   2.815   7.572 -2.5814  1.4529  2.3268
  633MOL0     H85405   3.656   2.754   7.733 -3.1151 -4.0949  2.5908
  633MOL0     H85406   3.647   2.444   7.572 -0.3592 -0.1641 -4.8601
  633MOL0     H85407   3.878   2.284   7.588  0.8291  1.8397  0.0892
  633MOL0     H85408   3.868   2.289   7.409 -0.8340 -0.3844  0.3328
  633MOL0     H85409   4.097   2.388   7.408 -3.5959  1.0934  0.1392
  633MOL0     H85410   4.121   2.348   7.582  3.8472 -0.3367 -2.4116
  633MOL0     H85411   4.208   2.176   7.425  0.4907  1.5405  2.0349
  633MOL0     H85412   4.057   2.146   7.354 -1.8805  0.5534  0.1055
  633MOL0     H85413   4.131   1.974   7.525  1.3948 -0.6490  1.2460
  633MOL0     H85414   3.985   2.055   7.584  0.1984  1.1472  0.0240
  633MOL0     H85415   4.335   1.985   7.520 -0.1909 -0.7105  0.6329
  633MOL0     H85416   4.559   1.905   7.607  3.7481  0.2494  3.4154
  633MOL0     H85417   4.741   1.722   8.045  1.2384 -0.2403 -0.8562
  633MOL0     H85418   4.939   1.623   8.143 -2.5314  0.2711  0.3224
  633MOL0     H85419   5.078   1.666   8.345 -1.1058 -0.5679 -0.8523
  633MOL0     H85420   5.168   1.559   8.217 -0.0376  0.6673 -1.9218
  633MOL0     H85421   5.287   1.747   8.421 -0.5563  0.7224  1.0241
  633MOL0     H85422   5.293   1.569   8.448  2.9675 -1.8545 -1.4691
  633MOL0     H85423   5.383   1.543   8.210 -1.7194  2.5355 -1.1911
  633MOL0     H85424   5.423   1.710   8.219 -2.4213  1.1494 -0.5188
  633MOL0     H85425   5.531   1.503   8.429  3.3606 -0.9118  0.7189
  633MOL0     H85426   5.561   1.669   8.427 -0.0633 -0.3971  0.8442
  633MOL0     H85427   5.639   1.479   8.203 -0.6871  0.9475 -0.5738
  633MOL0     H85428   5.738   1.509   8.342 -0.6544 -2.4608 -0.6581
  633MOL0     H85429   5.649   1.738   8.170  0.9012 -1.8324 -3.0349
  633MOL0     H85430   5.767   1.739   8.308  3.3625  1.2059 -1.8766
  633MOL0     H85431   5.874   1.745   8.087  2.1291 -0.7950  1.4813
  633MOL0     H85432   5.774   1.606   8.043  1.3940 -1.2684  0.1619
  633MOL0     H85433   5.999   1.640   8.247  1.0718 -2.1796  1.3198
  633MOL0     H85434   5.908   1.481   8.231  0.3512 -1.1189 -2.8831
  633MOL0     H85435   5.141   1.998   8.096 -0.1967  0.2393  4.0831
  633MOL0     H85436   4.949   2.090   8.002 -2.1600 -0.1030  0.5602
  633MOL0     H85437   4.479   2.103   7.982  0.0132 -2.0547  0.6866
  633MOL0     H85438   4.267   2.150   7.913  0.1383  2.7267 -1.2218
  633MOL0     H85439   2.523   2.671   7.500 -0.9187  0.7820 -0.9020
  633MOL0     H85440   2.289   2.650   7.539  0.1007 -0.0344 -1.5019
  633MOL0     H85441   1.862   2.985   7.563 -0.1928  0.7326  0.0153
  633MOL0     H85442   1.638   3.005   7.614  1.2302  1.5759  0.6717
  633MOL0     H85443   1.422   2.950   7.611 -0.7298 -2.8574  0.0782
  633MOL0     H85444   1.435   3.036   7.770 -0.4586  0.2421  0.4767
  633MOL0     H85445   1.243   2.823   7.699  1.1192  1.4607 -1.5848
  633MOL0     H85446   1.218   2.993   7.674 -0.1618 -0.9470 -2.7003
  633MOL0     H85447   1.230   3.046   7.908 -0.6229  1.3086 -3.4133
  633MOL0     H85448   1.301   2.888   7.959  1.3195 -0.0070 -1.1811
  633MOL0     H85449   1.064   2.796   7.891  1.2085 -0.2832  0.0273
  633MOL0     H85450   1.080   2.868   8.051 -0.8719 -0.5660 -0.1535
  633MOL0     H85451   0.841   3.159   7.853  1.4053  0.1841 -2.1059
  633MOL0     H85452   1.669   2.639   7.859  2.8409 -0.7743  0.8036
  633MOL0     H85453   1.943   2.624   7.919  0.0291 -3.1028  0.5650
  633MOL0     H85454   1.850   2.504   7.816  1.1757 -0.5534  0.1212
  633MOL0     H85455   1.996   2.558   7.765  0.6883  0.0710  0.6317
  634MOL0     O85456   1.176   5.365   1.571  0.2014  0.5517 -0.3185
  634MOL0     C85457   1.219   5.295   1.479 -0.6518 -0.4082  0.3842
  634MOL0     O85458   1.347   5.311   1.424 -0.4722  0.0323  0.2474
  634MOL0     C85459   1.418   5.404   1.492 -0.8548  0.2875 -0.1532
  634MOL0     C85460   1.390   5.540   1.520  0.9105 -0.0886  0.0738
  634MOL0     C85461   1.486   5.628   1.579 -0.6402  0.5017  0.5632
  634MOL0     C85462   1.620   5.576   1.607  0.5539  0.2466 -0.1879
  634MOL0     O85463   1.712   5.649   1.682 -0.5248 -0.7463 -0.7270
  634MOL0     C85464   1.682   5.782   1.719  0.0172  0.7651  0.4667
  634MOL0     C85465   1.793   5.841   1.794  0.0886  0.0123 -0.9116
  634MOL0     C85466   1.928   5.830   1.743 -1.1864 -1.1896  0.3531
  634MOL0     C85467   2.031   5.853   1.849  1.0227 -0.6238  0.9461
  634MOL0     C85468   2.175   5.838   1.804 -0.1070  0.4530 -0.2187
  634MOL0     C85469   2.270   5.801   1.922  0.4500  0.3809  0.1780
  634MOL0     C85470   2.405   5.742   1.860  0.2396 -0.0248 -0.2187
  634MOL0     C85471   2.501   5.700   1.972 -0.2075 -0.5327 -0.3522
  634MOL0     N85472   2.571   5.825   2.026 -0.4380  0.3829  0.2685
  634MOL0     C85473   2.684   5.886   1.972 -0.1895  0.5072  0.0000
  634MOL0     C85474   2.713   5.987   2.058  0.1172  0.9938  0.5143
  634MOL0     C85475   2.819   6.085   2.045 -0.2364  0.1832  0.2205
  634MOL0     C85476   2.968   6.026   2.056  0.1335  0.1554  0.6076
  634MOL0     C85477   2.980   5.925   2.169 -0.2143  0.6477  0.0298
  634MOL0     C85478   2.954   5.995   2.304  0.5896  0.0238  0.5354
  634MOL0     O85479   2.960   5.897   2.412  0.4180 -0.8321  0.3183
  634MOL0     C85480   3.079   5.882   2.478  0.6292 -0.3417  0.5062
  634MOL0     C85481   3.089   5.787   2.576  0.1390 -0.8186 -1.6998
  634MOL0     C85482   3.212   5.758   2.644  0.1982 -0.6939  0.1880
  634MOL0     C85483   3.335   5.816   2.606 -0.0203 -0.2283 -0.0758
  634MOL0     C85484   3.456   5.780   2.677 -0.0458  0.3158  0.2899
  634MOL0     O85485   3.561   5.828   2.615  0.4939  0.4603 -0.2127
  634MOL0     C85486   3.684   5.815   2.663  1.1272  0.5722  0.2496
  634MOL0     C85487   3.726   5.782   2.796  0.3656 -0.0447  0.7126
  634MOL0     C85488   3.863   5.782   2.826  0.6795  0.2221  0.1134
  634MOL0     C85489   3.953   5.796   2.728 -1.5513 -0.9539  0.6582
  634MOL0     O85490   4.084   5.790   2.761 -0.1279  0.1280  0.0392
  634MOL0     C85491   4.177   5.823   2.664 -0.0765 -0.7666 -0.3410
  634MOL0     C85492   4.309   5.788   2.729  0.2362  0.1887  0.3254
  634MOL0     C85493   4.432   5.825   2.643  0.1527  0.2157  0.0481
  634MOL0     C85494   4.569   5.775   2.699  0.5003  0.5075  0.2273
  634MOL0     C85495   4.612   5.854   2.824  0.4371 -0.9326 -0.2418
  634MOL0     C85496   4.736   5.791   2.880  0.8113  0.0643  0.5556
  634MOL0     C85497   4.794   5.892   2.981 -0.0457  1.2271  0.3374
  634MOL0     C85498   4.920   5.829   3.027 -0.7109  0.4262 -0.1985
  634MOL0    Cl85499   5.043   5.819   2.902 -0.1927 -0.6542 -0.0002
  634MOL0     C85500   3.907   5.834   2.603 -1.1563 -0.7891 -0.0010
  634MOL0     C85501   3.772   5.834   2.566 -0.6072 -1.3376  0.0710
  634MOL0     O85502   3.449   5.705   2.774 -0.2552 -0.1002  0.8268
  634MOL0     C85503   3.323   5.911   2.506 -0.2631  0.1803  1.0912
  634MOL0     C85504   3.201   5.936   2.439 -0.2140  0.4308  0.4279
  634MOL0     N85505   2.641   5.971   2.176  0.0101 -0.0811 -0.4990
  634MOL0     N85506   2.570   5.862   2.158 -0.3336  0.1514 -0.0168
  634MOL0     C85507   1.639   5.443   1.592  0.9665 -0.7518  0.0318
  634MOL0     C85508   1.545   5.357   1.533 -0.2703  0.6148  0.0045
  634MOL0     C85509   1.137   5.193   1.415 -0.2799  0.1846  0.8353
  634MOL0     C85510   1.193   5.102   1.325 -0.6521  0.4368  0.0304
  634MOL0     C85511   1.124   4.994   1.264  0.2635 -0.1009  0.6341
  634MOL0     C85512   0.983   4.989   1.271  0.4085 -0.6666 -0.4120
  634MOL0     O85513   0.901   4.891   1.228  0.0688  0.2807  0.2092
  634MOL0     C85514   0.887   4.775   1.317  0.8421 -0.7134  0.2092
  634MOL0     C85515   0.762   4.785   1.402 -0.7340  0.2855 -0.6982
  634MOL0     C85516   0.637   4.823   1.314 -0.1167  0.1198 -0.6234
  634MOL0     C85517   0.506   4.765   1.364  0.6564  0.5013  0.6983
  634MOL0     C85518   0.482   4.808   1.497 -0.1565 -0.1557 -0.6518
  634MOL0     C85519   0.452   4.826   1.610  0.5520  0.1976  0.5054
  634MOL0     C85520   0.927   5.093   1.342  0.5786  0.2576 -0.2659
  634MOL0     C85521   0.999   5.187   1.421 -0.1410 -0.6819  0.2134
  634MOL0     C85522   0.918   5.276   1.518 -1.0832 -0.2441  0.0814
  634MOL0     H85523   1.296   5.583   1.488  0.4887  0.0185  1.4365
  634MOL0     H85524   1.461   5.731   1.601 -0.9805  1.2351 -2.7004
  634MOL0     H85525   1.670   5.845   1.630  0.5130 -0.3922 -0.4554
  634MOL0     H85526   1.591   5.779   1.778 -1.7624 -0.7175 -2.1369
  634MOL0     H85527   1.799   5.778   1.883  0.8357 -0.3870 -1.2361
  634MOL0     H85528   1.779   5.948   1.815  0.0905  0.8328 -4.4890
  634MOL0     H85529   1.942   5.894   1.656  1.0483 -2.5580 -0.3700
  634MOL0     H85530   1.945   5.729   1.705  2.1043  0.0364 -1.8343
  634MOL0     H85531   2.020   5.955   1.888  0.0081 -1.9172  4.4836
  634MOL0     H85532   2.003   5.786   1.931 -1.4504  1.2649  1.7732
  634MOL0     H85533   2.176   5.754   1.734 -1.2223 -2.2010  2.7129
  634MOL0     H85534   2.205   5.922   1.741 -0.8357 -0.3602 -1.7007
  634MOL0     H85535   2.286   5.892   1.980  2.9168  1.5409 -2.1149
  634MOL0     H85536   2.222   5.726   1.986  0.9671 -1.8512 -1.8803
  634MOL0     H85537   2.458   5.811   1.793  0.9147 -0.9710 -0.6883
  634MOL0     H85538   2.374   5.648   1.814 -2.2603  0.1395  1.0034
  634MOL0     H85539   2.450   5.663   2.062  1.4660  2.3330  1.9639
  634MOL0     H85540   2.575   5.627   1.938  1.9144  2.3801 -2.4992
  634MOL0     H85541   2.733   5.863   1.878  0.6496  0.8008  0.3599
  634MOL0     H85542   2.796   6.140   1.954  0.0548  0.6238  0.4118
  634MOL0     H85543   2.802   6.158   2.125 -1.1662 -2.5482  2.7534
  634MOL0     H85544   2.997   5.961   1.973  1.2687 -0.1421  1.2203
  634MOL0     H85545   3.048   6.099   2.070  1.1746 -1.0109  0.9334
  634MOL0     H85546   3.084   5.894   2.158 -0.6541 -1.6145  1.5384
  634MOL0     H85547   2.916   5.839   2.150 -0.9046  1.5401 -1.8663
  634MOL0     H85548   2.860   6.051   2.302  0.5083 -0.0811  1.1008
  634MOL0     H85549   3.025   6.074   2.332  2.6874 -1.1912 -1.0681
  634MOL0     H85550   2.987   5.755   2.595 -0.4119  1.8557  0.5977
  634MOL0     H85551   3.202   5.695   2.732  1.2899 -0.2780  0.6331
  634MOL0     H85552   3.646   5.772   2.868 -1.0670 -1.4086 -0.9989
  634MOL0     H85553   3.891   5.763   2.929  0.4589  0.5512  0.2339
  634MOL0     H85554   4.179   5.760   2.574  1.4361 -2.1564  0.6077
  634MOL0     H85555   4.170   5.930   2.644 -0.5443 -0.9910 -1.4376
  634MOL0     H85556   4.319   5.836   2.828 -2.2666 -0.4525  0.9577
  634MOL0     H85557   4.316   5.681   2.749  2.4583 -0.0175 -1.1829
  634MOL0     H85558   4.423   5.783   2.543  0.5437  2.8768 -1.1845
  634MOL0     H85559   4.435   5.933   2.628  1.4865  0.1887  0.0011
  634MOL0     H85560   4.646   5.799   2.625 -0.8155  2.6620 -0.5293
  634MOL0     H85561   4.575   5.666   2.712  1.0542 -0.1591 -4.0951
  634MOL0     H85562   4.535   5.846   2.901  2.0565 -0.0866  1.5619
  634MOL0     H85563   4.625   5.959   2.795 -0.3775 -0.2985  1.5537
  634MOL0     H85564   4.715   5.691   2.920  0.1436 -0.2149 -0.4393
  634MOL0     H85565   4.814   5.771   2.806  1.3723  1.6502  0.6835
  634MOL0     H85566   4.719   5.909   3.059  0.0735  1.0736  0.4882
  634MOL0     H85567   4.803   5.988   2.931  0.5717  1.4364  0.8394
  634MOL0     H85568   4.953   5.885   3.116  0.7509 -1.2027  0.3554
  634MOL0     H85569   4.899   5.728   3.064  4.1269 -0.7024  0.1433
  634MOL0     H85570   3.970   5.854   2.517  0.0008 -0.5027  0.8984
  634MOL0     H85571   3.731   5.848   2.466 -0.5296 -0.1446  0.1848
  634MOL0     H85572   3.402   5.981   2.480  0.5566 -1.7906 -2.4624
  634MOL0     H85573   3.204   6.014   2.364 -1.1227  1.0159  0.9694
  634MOL0     H85574   1.740   5.410   1.611  2.0504  1.7054 -1.1032
  634MOL0     H85575   1.568   5.251   1.532  1.3148  0.9276 -0.0890
  634MOL0     H85576   1.302   5.105   1.324 -0.5691 -1.4212  0.5012
  634MOL0     H85577   1.183   4.913   1.223  0.9724  0.9580 -0.5229
  634MOL0     H85578   0.970   4.757   1.387  0.9231 -1.5162 -0.0775
  634MOL0     H85579   0.886   4.690   1.248 -0.7475  0.0996 -0.8108
  634MOL0     H85580   0.778   4.847   1.491  1.0113 -0.5977 -0.3501
  634MOL0     H85581   0.730   4.686   1.437  2.3566 -0.1427  1.3423
  634MOL0     H85582   0.649   4.782   1.213  0.3922  0.3193 -0.6422
  634MOL0     H85583   0.631   4.931   1.294  0.1721 -0.5625 -5.6685
  634MOL0     H85584   0.419   4.790   1.303  0.2561 -1.1940  0.4992
  634MOL0     H85585   0.515   4.656   1.356  0.3119  0.2847  2.6268
  634MOL0     H85586   0.426   4.839   1.713 -0.1961 -0.4077  0.4064
  634MOL0     H85587   0.818   5.093   1.346  0.4044  3.2467 -2.0313
  634MOL0     H85588   0.812   5.253   1.526 -0.7587 -2.1366 -0.5836
  634MOL0     H85589   0.968   5.262   1.614 -1.7737 -1.2436  0.3009
  634MOL0     H85590   0.928   5.378   1.477 -1.6389 -0.9173 -1.8220
  635MOL0     O85591   2.887   9.060   4.981  0.5697 -0.3036  0.6084
  635MOL0     C85592   2.893   8.990   4.883  0.3996  0.7993 -0.0329
  635MOL0     O85593   3.000   8.922   4.844  0.1589  0.4928  0.3819
  635MOL0     C85594   3.117   8.982   4.877  0.5264 -0.5741 -0.5391
  635MOL0     C85595   3.163   9.090   4.802 -0.6100  0.9149  0.3276
  635MOL0     C85596   3.277   9.161   4.844 -0.0660  0.6364 -0.3215
  635MOL0     C85597   3.341   9.117   4.968 -0.0296 -0.4216 -0.1246
  635MOL0     O85598   3.453   9.192   4.993  0.1749  0.1522  0.2929
  635MOL0     C85599   3.477   9.217   5.132 -0.3305 -0.0650 -1.4750
  635MOL0     C85600   3.617   9.289   5.147  0.7765 -0.0517  0.0802
  635MOL0     C85601   3.724   9.181   5.132  0.4974  0.0239  0.2961
  635MOL0     C85602   3.863   9.239   5.169  0.1519 -0.4788  0.0097
  635MOL0     C85603   3.974   9.129   5.156 -0.0426 -0.4053 -0.4454
  635MOL0     C85604   4.115   9.190   5.170  0.1807  0.3371 -0.0209
  635MOL0     C85605   4.235   9.098   5.150  0.7843 -0.1840 -0.7948
  635MOL0     C85606   4.271   9.053   5.009 -0.2285 -0.0561  0.2015
  635MOL0     N85607   4.328   9.165   4.936 -0.3743 -0.2942 -0.0724
  635MOL0     C85608   4.462   9.182   4.910 -0.4901  0.6076 -0.8209
  635MOL0     C85609   4.473   9.278   4.821 -0.9075  0.6475  0.1223
  635MOL0     C85610   4.593   9.303   4.742  0.4411  0.2882 -0.2432
  635MOL0     C85611   4.725   9.245   4.799  0.3675  0.4251  0.1183
  635MOL0     C85612   4.843   9.283   4.705 -0.1525  0.4650 -0.0855
  635MOL0     C85613   4.931   9.401   4.760  0.1940 -0.3838  0.1658
  635MOL0     O85614   5.001   9.380   4.889  0.0937 -0.3044  0.6289
  635MOL0     C85615   5.140   9.396   4.885  0.9785  0.6120 -0.7047
  635MOL0     C85616   5.184   9.494   4.966 -0.2087 -0.4065 -0.4391
  635MOL0     C85617   5.320   9.527   4.980 -0.3184 -0.5126 -0.2989
  635MOL0     C85618   5.416   9.461   4.900 -0.3984 -0.8304  0.0528
  635MOL0     C85619   5.559   9.498   4.890 -0.0345  0.1142  0.0359
  635MOL0     O85620   5.632   9.437   4.790  0.3075  0.1049 -0.3784
  635MOL0     C85621   5.766   9.450   4.798 -0.5831  0.1024  0.7042
  635MOL0     C85622   5.825   9.572   4.766 -0.2775  0.3225  0.1334
  635MOL0     C85623   5.964   9.581   4.771 -1.0033  0.1517 -0.1916
  635MOL0     C85624   6.044   9.468   4.804  0.6241 -0.6547  1.8849
  635MOL0     O85625   6.183   9.488   4.807  0.0710  1.0185 -0.4177
  635MOL0     C85626   6.266   9.373   4.817 -0.5070 -0.4672 -0.4254
  635MOL0     C85627   6.415   9.430   4.822  0.1469 -0.0105  0.2036
  635MOL0     C85628   6.510   9.310   4.852 -1.0360 -0.8610  0.8254
  635MOL0     C85629   6.657   9.332   4.800  0.3476 -0.2910  0.6528
  635MOL0     C85630   6.730   9.433   4.872  0.4244 -0.0876 -1.0707
  635MOL0     C85631   6.885   9.432   4.840 -0.0593 -0.5183  0.0581
  635MOL0     C85632   6.918   9.494   4.703  0.3007 -1.0371 -0.1724
  635MOL0     C85633   7.063   9.543   4.700  0.5528 -0.1889  0.5693
  635MOL0    Cl85634   7.184   9.408   4.666  0.0512  0.0320 -0.2140
  635MOL0     C85635   5.975   9.357   4.854  0.7325  0.4046  0.0882
  635MOL0     C85636   5.835   9.348   4.852  0.6871  0.2912 -0.1855
  635MOL0     O85637   5.604   9.584   4.967  0.1642 -0.6895 -0.5890
  635MOL0     C85638   5.368   9.355   4.822  0.1823 -0.0527  0.6697
  635MOL0     C85639   5.234   9.313   4.821 -0.6678 -0.3458  0.2732
  635MOL0     N85640   4.345   9.324   4.789  0.3571 -0.3783 -0.4210
  635MOL0     N85641   4.262   9.267   4.865  0.0020  0.4617  0.9506
  635MOL0     C85642   3.295   9.010   5.046  0.2711  0.0658  0.5720
  635MOL0     C85643   3.174   8.947   4.997 -0.2266  0.0151  0.2273
  635MOL0     C85644   2.771   8.950   4.811  0.3704  0.4594 -0.7675
  635MOL0     C85645   2.788   8.933   4.670  0.5938 -0.5046  0.5910
  635MOL0     C85646   2.682   8.902   4.581 -0.3024 -0.1825  0.0051
  635MOL0     C85647   2.558   8.872   4.638 -0.9455 -0.6976  0.2243
  635MOL0     O85648   2.446   8.844   4.563 -0.4142 -0.2487  0.3743
  635MOL0     C85649   2.449   8.836   4.421  0.1971 -0.2635  0.0198
  635MOL0     C85650   2.308   8.838   4.375 -1.0470  0.0468 -0.8327
  635MOL0     C85651   2.239   8.698   4.372 -1.0449  0.8154  0.4404
  635MOL0     C85652   2.096   8.713   4.324  0.7464  0.6108  0.0217
  635MOL0     C85653   2.008   8.598   4.344 -0.4947  0.3736  0.5849
  635MOL0     C85654   1.924   8.507   4.357 -0.3674  0.3738 -0.9515
  635MOL0     C85655   2.543   8.871   4.780  0.2718  0.3110  0.5740
  635MOL0     C85656   2.640   8.918   4.859 -0.5102 -0.5817  0.8047
  635MOL0     C85657   2.603   8.953   5.008  0.2101  0.1802  0.5313
  635MOL0     H85658   3.115   9.125   4.711  2.5416  0.0590 -1.8258
  635MOL0     H85659   3.334   9.237   4.791  3.2827 -0.3375  1.5650
  635MOL0     H85660   3.389   9.269   5.171 -0.8581 -3.3212  2.2944
  635MOL0     H85661   3.488   9.123   5.187  1.7458  1.0799  0.1790
  635MOL0     H85662   3.608   9.346   5.240 -2.7874  0.1934 -0.2901
  635MOL0     H85663   3.632   9.357   5.063 -1.4948 -1.9142 -2.0006
  635MOL0     H85664   3.735   9.137   5.032  0.6185 -2.1483  1.2048
  635MOL0     H85665   3.698   9.097   5.198 -0.4141 -0.3504 -0.5208
  635MOL0     H85666   3.885   9.328   5.110  2.6830 -1.2588 -0.3824
  635MOL0     H85667   3.861   9.273   5.273 -1.6331 -2.6287  0.7656
  635MOL0     H85668   3.962   9.051   5.232  2.8649  1.6151  2.3457
  635MOL0     H85669   3.952   9.085   5.058 -1.9698  0.8535 -0.6345
  635MOL0     H85670   4.122   9.274   5.101  0.4714 -1.8498 -2.8275
  635MOL0     H85671   4.126   9.240   5.267 -1.5604  0.8831 -0.0608
  635MOL0     H85672   4.204   9.006   5.201 -3.1864 -0.8586 -3.9863
  635MOL0     H85673   4.320   9.134   5.208 -0.6560  1.8419  0.1769
  635MOL0     H85674   4.342   8.969   5.007  0.7877  0.7908 -1.0383
  635MOL0     H85675   4.177   9.027   4.958 -2.1636  5.0277  0.6127
  635MOL0     H85676   4.545   9.130   4.957 -2.0126 -0.1035  1.1864
  635MOL0     H85677   4.581   9.255   4.644  2.3316 -0.1532 -0.3121
  635MOL0     H85678   4.605   9.410   4.728 -1.0366  0.4654 -0.3376
  635MOL0     H85679   4.735   9.275   4.904 -3.2830  2.7324 -0.0322
  635MOL0     H85680   4.716   9.136   4.793 -1.6831  0.5341  0.6308
  635MOL0     H85681   4.818   9.310   4.602 -0.7145  0.5819  0.0783
  635MOL0     H85682   4.911   9.198   4.699  0.9868  1.3856 -0.7440
  635MOL0     H85683   4.864   9.483   4.787  0.2086 -0.1369 -0.5318
  635MOL0     H85684   5.001   9.449   4.691  0.7651  1.7965  2.1284
  635MOL0     H85685   5.104   9.555   5.007  1.3333  0.8521  0.8503
  635MOL0     H85686   5.367   9.595   5.051  2.7275 -2.1236 -0.6106
  635MOL0     H85687   5.776   9.661   4.728  3.7726  1.6325 -2.8629
  635MOL0     H85688   6.022   9.671   4.750 -1.7374  0.5203 -0.7337
  635MOL0     H85689   6.250   9.327   4.915 -0.9658  1.3396  0.3936
  635MOL0     H85690   6.260   9.301   4.735  1.2864 -0.6338 -0.4346
  635MOL0     H85691   6.437   9.479   4.727  0.3886 -0.3053  0.1092
  635MOL0     H85692   6.418   9.513   4.894 -2.7564  0.2409  0.1696
  635MOL0     H85693   6.513   9.298   4.960 -0.7469  2.2054  1.2508
  635MOL0     H85694   6.472   9.215   4.813  0.9931 -1.5096  0.3252
  635MOL0     H85695   6.662   9.338   4.691  0.4864  0.8371  0.7169
  635MOL0     H85696   6.703   9.236   4.828  0.8548  0.0408  0.9661
  635MOL0     H85697   6.717   9.416   4.979  0.6952  0.4392 -0.9510
  635MOL0     H85698   6.689   9.528   4.837  0.5389 -0.2697 -1.7229
  635MOL0     H85699   6.938   9.483   4.921 -0.6687 -1.5859  1.1544
  635MOL0     H85700   6.918   9.328   4.833 -1.7542 -1.1060  0.5224
  635MOL0     H85701   6.856   9.584   4.696  0.0132 -1.2593 -0.5207
  635MOL0     H85702   6.890   9.435   4.615  1.3260 -1.7897 -0.0121
  635MOL0     H85703   7.072   9.615   4.618 -1.2514  0.6097  1.0315
  635MOL0     H85704   7.082   9.603   4.789  1.1327  2.2269 -1.0840
  635MOL0     H85705   6.025   9.267   4.890  0.1267  0.6151  1.5195
  635MOL0     H85706   5.787   9.258   4.889 -1.2610  1.3311 -0.0577
  635MOL0     H85707   5.436   9.291   4.768  0.3755 -0.4672  1.3908
  635MOL0     H85708   5.208   9.237   4.748  1.0265 -0.7801  0.0834
  635MOL0     H85709   3.324   8.982   5.147  0.1455  0.7116  0.7932
  635MOL0     H85710   3.128   8.866   5.054  2.6434 -1.8648  0.1030
  635MOL0     H85711   2.886   8.950   4.628  0.8159 -0.3094  1.1723
  635MOL0     H85712   2.707   8.897   4.476  1.6878  0.0949  0.4235
  635MOL0     H85713   2.500   8.745   4.389 -0.0491  0.0871 -1.4048
  635MOL0     H85714   2.503   8.919   4.374  0.8873 -0.2775  0.7443
  635MOL0     H85715   2.311   8.881   4.274  1.3670  1.7115 -0.1301
  635MOL0     H85716   2.233   8.903   4.421 -0.8605  0.1167 -0.6279
  635MOL0     H85717   2.235   8.655   4.473 -2.3619  3.5104  1.6531
  635MOL0     H85718   2.297   8.636   4.303 -3.5483 -0.3586 -0.7296
  635MOL0     H85719   2.039   8.790   4.376 -2.1660 -1.1988 -0.1999
  635MOL0     H85720   2.103   8.737   4.217  2.3540  1.2206  0.2494
  635MOL0     H85721   1.869   8.423   4.393  0.5170  0.4915  0.7686
  635MOL0     H85722   2.449   8.860   4.833  0.0998  0.7524  0.3680
  635MOL0     H85723   2.498   8.939   5.038  0.0578  1.2253  0.5268
  635MOL0     H85724   2.676   8.914   5.078  0.5969  1.5514  0.9315
  635MOL0     H85725   2.615   9.060   5.029 -0.6202  0.4174 -0.1010
  636MOL0     O85726   1.754   9.859   0.427  0.4899  0.0506 -0.0701
  636MOL0     C85727   1.764   9.850   0.555 -0.2185  0.4989  0.1337
  636MOL0     O85728   1.875   9.857   0.624 -0.2613 -0.0147 -0.5128
  636MOL0     C85729   1.986   9.892   0.561  0.0340  0.1245  0.3502
  636MOL0     C85730   1.993  10.004   0.471 -0.4674  0.7006 -0.1119
  636MOL0     C85731   2.115  10.020   0.397 -0.0775 -0.5085  0.1037
  636MOL0     C85732   2.216   9.927   0.402 -0.4544 -0.1707 -0.0034
  636MOL0     O85733   2.327   9.952   0.323 -0.4435 -0.1048 -0.0916
  636MOL0     C85734   2.446   9.874   0.357 -0.1528 -0.3661  0.1562
  636MOL0     C85735   2.573   9.944   0.305 -0.1795 -0.5054 -0.2272
  636MOL0     C85736   2.565   9.946   0.152  0.1708 -0.0288  0.6449
  636MOL0     C85737   2.694  10.010   0.093 -0.0244 -0.2189  1.0667
  636MOL0     C85738   2.811   9.912   0.103 -0.7986 -0.5452  0.3461
  636MOL0     C85739   2.930   9.962   0.026 -0.0564 -0.7735  0.0415
  636MOL0     C85740   3.060   9.886   0.061  0.6684 -0.1373 -1.2108
  636MOL0     C85741   3.170   9.955  -0.032 -0.1883  0.4664  0.2529
  636MOL0     N85742   3.299   9.884  -0.016 -0.1036 -0.5368  0.9931
  636MOL0     C85743   3.428   9.938  -0.047 -0.5726  0.6778 -0.2941
  636MOL0     C85744   3.508   9.830  -0.013 -0.4608 -0.0007  0.6098
  636MOL0     C85745   3.664   9.836  -0.036  1.3382 -0.0531 -0.8439
  636MOL0     C85746   3.739   9.742   0.059  0.0870 -0.0630  1.1506
  636MOL0     C85747   3.879   9.797   0.081  0.5971 -0.4819  0.7029
  636MOL0     C85748   3.959   9.705   0.173 -0.3225 -0.2489 -0.0079
  636MOL0     O85749   4.094   9.767   0.157  0.0025  0.1419 -0.8495
  636MOL0     C85750   4.204   9.685   0.148 -0.2757 -1.1160  0.7752
  636MOL0     C85751   4.315   9.731   0.074 -0.0278  0.7665  0.8775
  636MOL0     C85752   4.420   9.639   0.055  0.5265 -0.3856  0.0716
  636MOL0     C85753   4.424   9.504   0.111 -0.3048 -0.6040 -0.2897
  636MOL0     C85754   4.537   9.414   0.077 -0.2686  0.1106  0.1274
  636MOL0     O85755   4.545   9.300   0.155 -0.1722  0.2322  0.4811
  636MOL0     C85756   4.644   9.211   0.152 -0.1972 -0.2413 -0.3755
  636MOL0     C85757   4.735   9.184   0.045  0.0974 -0.3462  0.0928
  636MOL0     C85758   4.839   9.095   0.062 -0.4503  0.0492 -0.0828
  636MOL0     C85759   4.857   9.032   0.190 -1.2469  0.0947  0.3704
  636MOL0     O85760   4.953   8.936   0.229  0.3643  0.7511  0.8461
  636MOL0     C85761   5.060   8.928   0.129 -0.3630 -0.0094 -0.9701
  636MOL0     C85762   5.173   8.839   0.192 -0.3913 -0.5852  0.4336
  636MOL0     C85763   5.301   8.822   0.108 -0.1999  0.1568  0.6547
  636MOL0     C85764   5.412   8.736   0.181  0.9747 -0.4302 -0.0655
  636MOL0     C85765   5.540   8.729   0.089 -0.1110  0.3002 -0.3131
  636MOL0     C85766   5.513   8.705  -0.065 -0.0992  0.0111  0.2680
  636MOL0     C85767   5.635   8.732  -0.157  0.1608  0.4263 -0.5371
  636MOL0     C85768   5.770   8.686  -0.114  0.6822  0.3565 -0.2327
  636MOL0    Cl85769   5.786   8.507  -0.144 -0.1020  0.3041 -0.3192
  636MOL0     C85770   4.769   9.062   0.296 -0.2768 -0.0332  0.1228
  636MOL0     C85771   4.658   9.146   0.276 -0.3581  0.5863  0.5167
  636MOL0     O85772   4.618   9.449  -0.009  0.1034  0.2368 -0.5399
  636MOL0     C85773   4.317   9.471   0.195  0.0626  0.5469 -0.0627
  636MOL0     C85774   4.212   9.560   0.212 -0.0143 -0.1160 -0.4920
  636MOL0     N85775   3.430   9.721   0.020 -0.9797  0.1027  0.4864
  636MOL0     N85776   3.307   9.748   0.010  0.3418 -0.5610 -0.5264
  636MOL0     C85777   2.206   9.814   0.495  0.2025 -1.3909  0.2638
  636MOL0     C85778   2.091   9.801   0.575 -0.2322  0.0751  0.0386
  636MOL0     C85779   1.642   9.829   0.635  0.9688  0.2957  0.2946
  636MOL0     C85780   1.518   9.829   0.560 -0.1460 -0.5058 -0.1200
  636MOL0     C85781   1.390   9.815   0.617  0.5651 -0.6515  0.3438
  636MOL0     C85782   1.383   9.808   0.752  0.3979 -0.6232  0.0595
  636MOL0     O85783   1.269   9.815   0.819 -0.0278 -0.1397 -0.4234
  636MOL0     C85784   1.143   9.791   0.747  0.4091 -0.0671  0.1964
  636MOL0     C85785   1.027   9.774   0.842 -0.0636  0.3953  0.1770
  636MOL0     C85786   1.045   9.873   0.963 -0.2295  0.0490 -0.3576
  636MOL0     C85787   0.914   9.868   1.052 -0.1191 -0.4109  0.2157
  636MOL0     C85788   0.804   9.938   0.990  0.0206 -0.8592  0.4579
  636MOL0     C85789   0.727  10.020   0.940  0.0946  0.0411 -0.2313
  636MOL0     C85790   1.496   9.807   0.828 -0.0668  0.8378 -0.0599
  636MOL0     C85791   1.627   9.806   0.774 -0.5442 -1.1900 -0.4993
  636MOL0     C85792   1.740   9.807   0.876  1.1588 -0.3460 -0.0301
  636MOL0     H85793   1.903  10.063   0.463 -0.4026  0.9559  0.9371
  636MOL0     H85794   2.126  10.109   0.336  0.7350 -1.3642 -1.0410
  636MOL0     H85795   2.460   9.859   0.465  1.0571  1.4777  0.2936
  636MOL0     H85796   2.440   9.778   0.305  1.5939 -0.6047  0.3253
  636MOL0     H85797   2.663   9.893   0.338  0.5679 -0.3770 -1.9391
  636MOL0     H85798   2.566  10.047   0.341 -0.6012 -0.4752 -0.3819
  636MOL0     H85799   2.477   9.998   0.113 -0.2850  0.8345  2.7185
  636MOL0     H85800   2.560   9.844   0.113 -1.6433  0.8097 -1.5086
  636MOL0     H85801   2.667  10.025  -0.012  1.0422 -0.2563  0.7747
  636MOL0     H85802   2.720  10.111   0.126 -1.6468  1.5523 -2.4819
  636MOL0     H85803   2.838   9.891   0.207 -0.3621 -1.8691 -0.0263
  636MOL0     H85804   2.792   9.810   0.069 -0.7181 -0.0504 -1.2628
  636MOL0     H85805   2.896   9.957  -0.078 -0.5711 -0.6679  0.1975
  636MOL0     H85806   2.944  10.067   0.050  0.3983 -0.1830 -2.4897
  636MOL0     H85807   3.022   9.785   0.042 -2.7810  0.6224  0.7842
  636MOL0     H85808   3.091   9.913   0.162  1.5372  2.3827 -2.0678
  636MOL0     H85809   3.141   9.960  -0.137 -0.7503  0.9798  0.4234
  636MOL0     H85810   3.184  10.055   0.010  3.0209 -0.4925  1.8078
  636MOL0     H85811   3.466  10.032  -0.086  2.2313 -0.2434 -0.0440
  636MOL0     H85812   3.681   9.799  -0.137  3.1454 -1.0496 -0.2288
  636MOL0     H85813   3.693   9.941  -0.024 -1.6144  0.6835  0.9744
  636MOL0     H85814   3.680   9.732   0.151 -1.2228 -1.7527  0.1776
  636MOL0     H85815   3.743   9.642   0.015 -1.7608  0.3588 -0.1148
  636MOL0     H85816   3.885   9.896   0.127  1.4780  0.2407 -0.8793
  636MOL0     H85817   3.927   9.811  -0.016 -0.1810 -2.9867 -0.1145
  636MOL0     H85818   3.963   9.600   0.141  0.6494 -0.0342 -0.6256
  636MOL0     H85819   3.920   9.700   0.275 -1.5995 -1.5619 -0.5170
  636MOL0     H85820   4.306   9.818   0.011  0.3690 -1.0983 -1.9640
  636MOL0     H85821   4.499   9.675  -0.010 -2.0248  5.8695 -0.2338
  636MOL0     H85822   4.719   9.233  -0.050 -3.2136  1.1871  1.2784
  636MOL0     H85823   4.905   9.068  -0.020 -1.3646 -2.2148 -0.1350
  636MOL0     H85824   5.041   8.879   0.033  1.7343  1.9086 -2.4897
  636MOL0     H85825   5.104   9.025   0.102 -1.3149  1.1697  1.3956
  636MOL0     H85826   5.193   8.866   0.296 -2.1027 -2.2312  1.2501
  636MOL0     H85827   5.126   8.741   0.204 -0.8457 -0.1636  2.4475
  636MOL0     H85828   5.277   8.755   0.025 -0.1155 -1.9098  2.2256
  636MOL0     H85829   5.341   8.917   0.071  1.8394 -1.1636 -0.7388
  636MOL0     H85830   5.372   8.635   0.197 -0.9807  0.3495  0.2383
  636MOL0     H85831   5.434   8.779   0.279 -0.6573  0.3030  0.0070
  636MOL0     H85832   5.613   8.657   0.127  0.6139  1.5611  0.8042
  636MOL0     H85833   5.583   8.830   0.096 -1.1320  0.7142  0.3147
  636MOL0     H85834   5.472   8.605  -0.083  0.6988 -0.5558  1.4746
  636MOL0     H85835   5.437   8.770  -0.109  1.8787  0.5001 -2.7424
  636MOL0     H85836   5.641   8.841  -0.157 -1.1745  0.5238 -1.6179
  636MOL0     H85837   5.622   8.696  -0.260 -0.8857 -1.1797  0.1296
  636MOL0     H85838   5.837   8.747  -0.175  0.5947 -1.5011 -2.3372
  636MOL0     H85839   5.784   8.711  -0.008  1.2364  0.4893 -0.3372
  636MOL0     H85840   4.784   8.999   0.383 -0.1596 -1.7355 -1.0787
  636MOL0     H85841   4.588   9.170   0.355 -1.2229 -0.0288 -0.0360
  636MOL0     H85842   4.295   9.377   0.244 -1.6349  0.1000 -1.5882
  636MOL0     H85843   4.133   9.526   0.279  0.1246  2.0444  0.8689
  636MOL0     H85844   2.291   9.747   0.497  0.8965 -0.6218 -1.1454
  636MOL0     H85845   2.085   9.722   0.650  0.3418 -1.3191 -1.3164
  636MOL0     H85846   1.516   9.857   0.455 -1.0513  2.5883  0.6391
  636MOL0     H85847   1.300   9.811   0.556 -0.9209  1.5580  2.1994
  636MOL0     H85848   1.146   9.704   0.680  2.0025 -0.5739  0.8765
  636MOL0     H85849   1.128   9.878   0.682  3.2248  0.9012  0.6613
  636MOL0     H85850   1.041   9.671   0.874  0.0693  0.7783  1.4245
  636MOL0     H85851   0.930   9.794   0.796 -1.3635  0.0797  2.6033
  636MOL0     H85852   1.068   9.972   0.923 -3.3028  1.3270  0.7328
  636MOL0     H85853   1.123   9.830   1.027  0.5607  1.0636 -0.6070
  636MOL0     H85854   0.892   9.762   1.066  0.3625 -0.6766 -0.8872
  636MOL0     H85855   0.933   9.917   1.148  1.1989 -1.4035  0.4975
  636MOL0     H85856   0.669  10.091   0.885  1.5000  0.7301 -0.8754
  636MOL0     H85857   1.487   9.803   0.936 -1.3097  1.0160 -0.1404
  636MOL0     H85858   1.700   9.786   0.976 -0.7030  0.5467 -0.5457
  636MOL0     H85859   1.808   9.723   0.860 -1.3975 -2.5842  0.1099
  636MOL0     H85860   1.785   9.906   0.876  3.8023 -1.4626  1.2585
  637MOL0     O85861   7.213   8.309   0.004 -0.0873  0.5652  0.3648
  637MOL0     C85862   7.241   8.189  -0.009 -0.5511 -0.2608 -0.2899
  637MOL0     O85863   7.365   8.141  -0.060 -0.0212 -0.2075  0.2450
  637MOL0     C85864   7.488   8.210  -0.059 -0.8577  0.0025 -0.2421
  637MOL0     C85865   7.586   8.156  -0.153  0.4249 -0.6589  0.3782
  637MOL0     C85866   7.710   8.222  -0.159  0.2208  0.1355 -0.4800
  637MOL0     C85867   7.743   8.332  -0.078  0.1912  0.6436  0.6791
  637MOL0     O85868   7.868   8.383  -0.089 -0.4475 -0.4457  0.3096
  637MOL0     C85869   7.909   8.471   0.014 -0.2049 -0.2943 -0.0879
  637MOL0     C85870   8.057   8.504  -0.017  0.1778 -0.7982 -0.0583
  637MOL0     C85871   8.070   8.590  -0.146  0.2773 -0.6422 -0.2445
  637MOL0     C85872   8.189   8.694  -0.130  0.0249  0.0790 -0.2944
  637MOL0     C85873   8.328   8.630  -0.107 -1.0303  0.4247 -0.3907
  637MOL0     C85874   8.421   8.689   0.010 -0.1816  0.5538 -0.2121
  637MOL0     C85875   8.550   8.624   0.007 -0.4367 -0.1813 -0.4599
  637MOL0     C85876   8.620   8.645   0.144  0.5760 -0.4751 -0.0201
  637MOL0     N85877   8.762   8.649   0.119 -0.5061  0.5235  0.3937
  637MOL0     C85878   8.849   8.544   0.143 -0.3770  0.3137  0.1054
  637MOL0     C85879   8.970   8.604   0.121 -0.0985 -0.1050  0.0505
  637MOL0     C85880   9.114   8.543   0.140  0.4282 -0.1049  0.0588
  637MOL0     C85881   9.220   8.646   0.142  0.2980  0.8835 -0.2284
  637MOL0     C85882   9.362   8.596   0.152 -0.2789 -0.7456  0.3474
  637MOL0     C85883   9.421   8.581   0.293 -0.1618 -0.5265 -0.2230
  637MOL0     O85884   9.560   8.548   0.293  0.0114 -0.0872  0.5283
  637MOL0     C85885   9.657   8.648   0.276  0.4151 -0.0696 -0.3949
  637MOL0     C85886   9.625   8.781   0.243  0.7043  0.3011  0.8558
  637MOL0     C85887   9.734   8.870   0.223  0.6352 -0.0258  0.4764
  637MOL0     C85888   9.872   8.824   0.226 -0.4283  0.4811 -0.9382
  637MOL0     C85889   9.983   8.918   0.211 -0.4675  1.3241  0.0472
  637MOL0     O85890  10.109   8.870   0.255  0.4945  0.2442 -0.4207
  637MOL0     C85891  10.226   8.942   0.239 -0.3326  0.4242 -0.4899
  637MOL0     C85892  10.219   9.080   0.268 -0.1979  0.8578  0.0026
  637MOL0     C85893  10.331   9.154   0.266  0.0625  0.3355  0.2846
  637MOL0     C85894  10.459   9.100   0.230  0.1713 -0.0904 -0.2207
  637MOL0     O85895  10.578   9.164   0.224  0.6084  0.2111  0.4351
  637MOL0     C85896  10.601   9.294   0.277  0.1858 -0.2155  0.1797
  637MOL0     C85897  10.573   9.422   0.190 -0.4101 -0.1686 -0.4359
  637MOL0     C85898  10.678   9.441   0.080  0.5000 -0.3977 -0.2543
  637MOL0     C85899  10.635   9.360  -0.052 -0.1212 -0.0798 -0.1156
  637MOL0     C85900  10.738   9.409  -0.164 -0.5378  1.0384 -0.1617
  637MOL0     C85901  10.704   9.333  -0.293 -0.4662  0.2902  0.8200
  637MOL0     C85902  10.814   9.332  -0.397  0.0738 -0.2192 -0.1259
  637MOL0     C85903  10.756   9.249  -0.510 -0.4050 -0.0009  0.6733
  637MOL0    Cl85904  10.854   9.281  -0.653 -0.0757  0.0700 -0.4752
  637MOL0     C85905  10.463   8.961   0.209  0.7280 -0.0814  0.4944
  637MOL0     C85906  10.345   8.878   0.211  0.6258 -0.1590  0.3268
  637MOL0     O85907   9.969   9.019   0.144 -0.2478 -0.3074 -0.1075
  637MOL0     C85908   9.891   8.694   0.265 -0.7824 -0.3319 -0.8794
  637MOL0     C85909   9.786   8.607   0.293 -0.3672 -0.1433 -0.2912
  637MOL0     N85910   8.957   8.739   0.087 -0.5056  0.2668 -0.6051
  637MOL0     N85911   8.829   8.764   0.087  0.5710  0.7016 -1.0021
  637MOL0     C85912   7.647   8.377   0.003  0.2479  0.1358 -0.5447
  637MOL0     C85913   7.523   8.309   0.033  0.8097  0.2070  0.5285
  637MOL0     C85914   7.124   8.091  -0.013 -0.7214 -0.1525  0.4837
  637MOL0     C85915   7.163   7.955  -0.022 -0.8087 -0.9709 -0.4886
  637MOL0     C85916   7.069   7.861  -0.044 -0.4700  0.4995  0.0416
  637MOL0     C85917   6.936   7.890  -0.053  0.1648  0.1250 -0.1045
  637MOL0     O85918   6.846   7.789  -0.060 -0.0562 -0.1221  0.1517
  637MOL0     C85919   6.715   7.798  -0.127  0.5560  0.1849 -0.2968
  637MOL0     C85920   6.677   7.659  -0.172  0.8189  0.0408  0.0307
  637MOL0     C85921   6.740   7.615  -0.304  0.0072  1.2525  0.9732
  637MOL0     C85922   6.756   7.468  -0.302  0.2251  0.3773 -0.6287
  637MOL0     C85923   6.628   7.391  -0.283 -0.2053 -0.8530  0.1391
  637MOL0     C85924   6.510   7.339  -0.275  0.0665  0.0201 -0.7781
  637MOL0     C85925   6.897   8.021  -0.041  0.0817 -0.1185  0.1098
  637MOL0     C85926   6.991   8.127  -0.018  0.5835 -0.2575 -0.2060
  637MOL0     C85927   6.937   8.263  -0.013 -0.6515 -0.3702  0.5536
  637MOL0     H85928   7.556   8.076  -0.220  4.3642 -1.0908 -1.1748
  637MOL0     H85929   7.778   8.181  -0.234  0.5772 -1.7398  0.8016
  637MOL0     H85930   7.856   8.566   0.010  2.6131  1.3412 -1.5577
  637MOL0     H85931   7.880   8.437   0.114 -2.6337  0.1596 -0.5740
  637MOL0     H85932   8.111   8.409  -0.022 -2.1792 -2.2345  0.1490
  637MOL0     H85933   8.102   8.558   0.067  1.9906  1.4257 -2.3003
  637MOL0     H85934   7.984   8.658  -0.153  1.9375  1.7043  0.7452
  637MOL0     H85935   8.080   8.544  -0.244 -1.0945  1.2350 -1.3533
  637MOL0     H85936   8.197   8.753  -0.221 -0.1174 -0.0439 -0.3870
  637MOL0     H85937   8.173   8.763  -0.047  1.0484  1.1436 -0.9495
  637MOL0     H85938   8.325   8.521  -0.095 -1.6906  0.5567  0.8801
  637MOL0     H85939   8.388   8.648  -0.196  1.2244  0.9502  1.1724
  637MOL0     H85940   8.424   8.798  -0.006 -0.5311  0.7072  0.7210
  637MOL0     H85941   8.374   8.665   0.105  3.0009 -0.1827  1.3263
  637MOL0     H85942   8.615   8.654  -0.077 -0.0798 -2.2665 -0.9750
  637MOL0     H85943   8.533   8.521  -0.024 -0.0272 -0.6213  0.7128
  637MOL0     H85944   8.584   8.738   0.189 -1.1845 -0.4314 -1.3917
  637MOL0     H85945   8.599   8.560   0.210  1.5497  2.2223  4.1391
  637MOL0     H85946   8.823   8.443   0.174 -1.4610  0.6682  0.4039
  637MOL0     H85947   9.115   8.483   0.232  0.1177  1.2656  0.9874
  637MOL0     H85948   9.132   8.478   0.054  0.6028  0.6733 -0.5027
  637MOL0     H85949   9.214   8.711   0.054 -0.4915  2.7123  1.1086
  637MOL0     H85950   9.199   8.716   0.223  3.1150 -0.4656  1.8564
  637MOL0     H85951   9.420   8.679   0.110  0.2510  0.5519  3.3630
  637MOL0     H85952   9.382   8.511   0.087 -0.8846 -0.0509 -0.7764
  637MOL0     H85953   9.370   8.502   0.350  1.6461 -0.5053  1.5251
  637MOL0     H85954   9.406   8.676   0.346  1.6052  1.5155 -3.1160
  637MOL0     H85955   9.526   8.822   0.229 -0.0715 -1.6793  0.2624
  637MOL0     H85956   9.711   8.972   0.196 -0.8413 -0.6810 -0.9045
  637MOL0     H85957  10.123   9.123   0.298  1.0514  2.5736  1.8307
  637MOL0     H85958  10.326   9.260   0.291 -0.3421 -0.0573  2.0337
  637MOL0     H85959  10.527   9.306   0.357 -1.0781  0.8209 -1.1001
  637MOL0     H85960  10.704   9.301   0.313  1.9346 -1.2408 -3.9650
  637MOL0     H85961  10.475   9.406   0.144  0.1308 -0.4389 -1.5305
  637MOL0     H85962  10.573   9.511   0.255  0.4535 -0.3400 -0.1948
  637MOL0     H85963  10.673   9.549   0.062  0.5393 -0.0728  1.5543
  637MOL0     H85964  10.778   9.407   0.111  0.3934 -2.0531 -1.5624
  637MOL0     H85965  10.529   9.372  -0.074 -0.3574  0.3303  1.1815
  637MOL0     H85966  10.653   9.253  -0.038 -0.5115 -0.2923 -1.1711
  637MOL0     H85967  10.833   9.384  -0.116 -2.4217 -0.0582  3.3548
  637MOL0     H85968  10.738   9.518  -0.174  0.7350  1.2526  1.7766
  637MOL0     H85969  10.677   9.230  -0.269  0.5214 -0.4319 -0.9845
  637MOL0     H85970  10.615   9.382  -0.333 -1.7544 -1.3539  1.5522
  637MOL0     H85971  10.913   9.294  -0.371  0.1161 -0.4998 -0.7031
  637MOL0     H85972  10.818   9.437  -0.428 -0.8820 -0.5195 -1.3483
  637MOL0     H85973  10.774   9.145  -0.482  0.2117 -0.0663  0.0506
  637MOL0     H85974  10.649   9.270  -0.524 -1.8724 -4.2642  3.6725
  637MOL0     H85975  10.561   8.918   0.198  0.7139 -0.1778  0.7383
  637MOL0     H85976  10.359   8.771   0.194 -2.7929 -0.7364  0.5600
  637MOL0     H85977   9.992   8.660   0.285 -1.2640 -1.7350 -0.7427
  637MOL0     H85978   9.812   8.509   0.334 -0.5842  0.5599  1.6129
  637MOL0     H85979   7.669   8.466   0.062  0.1464 -1.8618  2.7315
  637MOL0     H85980   7.464   8.334   0.120  1.0620  2.8282  0.0440
  637MOL0     H85981   7.264   7.916  -0.011 -0.5307  0.0298  0.7860
  637MOL0     H85982   7.103   7.759  -0.034 -0.1044  0.5913 -0.2322
  637MOL0     H85983   6.719   7.878  -0.201 -0.1970  0.4031 -0.1120
  637MOL0     H85984   6.638   7.829  -0.055 -0.6447 -1.4171 -0.8203
  637MOL0     H85985   6.569   7.657  -0.188  0.5424  1.0271  1.6690
  637MOL0     H85986   6.698   7.589  -0.090 -1.0527 -0.3437  0.2288
  637MOL0     H85987   6.836   7.662  -0.328  1.7788 -1.9367  1.2961
  637MOL0     H85988   6.673   7.641  -0.387  0.5690  1.2855  0.5269
  637MOL0     H85989   6.785   7.430  -0.400 -0.2689 -0.7219 -0.3730
  637MOL0     H85990   6.824   7.445  -0.220 -0.6856 -0.8160 -0.1716
  637MOL0     H85991   6.411   7.298  -0.272  0.7282 -1.6048 -0.1119
  637MOL0     H85992   6.791   8.045  -0.038  0.3519  1.0680  0.8646
  637MOL0     H85993   6.828   8.254  -0.011 -0.6617 -0.1217  1.7750
  637MOL0     H85994   6.971   8.317   0.076  2.4556 -1.3121  0.0703
  637MOL0     H85995   6.976   8.325  -0.094  0.1708  1.0200  1.9496
  638MOL0     O85996  10.837   3.880   0.573 -0.2817 -0.1085 -0.0024
  638MOL0     C85997  10.811   3.800   0.653  0.2865  0.8868 -0.2494
  638MOL0     O85998  10.891   3.697   0.704  0.4394  0.4730 -0.1994
  638MOL0     C85999  11.025   3.677   0.665  0.4123 -0.2077  0.1368
  638MOL0     C86000  11.074   3.547   0.666 -0.2605 -0.0761 -0.6445
  638MOL0     C86001  11.204   3.515   0.621  0.6415 -1.0337 -0.1615
  638MOL0     C86002  11.290   3.616   0.573 -0.4311 -0.0138 -0.0061
  638MOL0     O86003  11.415   3.575   0.526 -0.6508 -0.6959  0.2410
  638MOL0     C86004  11.526   3.663   0.541 -0.1504 -0.5512  0.7664
  638MOL0     C86005  11.634   3.624   0.439  0.7358  0.3216 -1.1923
  638MOL0     C86006  11.732   3.728   0.437 -0.2449 -0.5170 -0.2009
  638MOL0     C86007  11.843   3.690   0.343  0.8961 -0.0827  0.0242
  638MOL0     C86008  11.961   3.783   0.352 -0.3858 -0.1855 -0.3116
  638MOL0     C86009  12.076   3.705   0.288 -0.5074  0.2074  0.0472
  638MOL0     C86010  12.203   3.788   0.291 -0.4652 -0.5410  0.4108
  638MOL0     C86011  12.180   3.925   0.232 -0.6672 -0.2291 -0.0202
  638MOL0     N86012  12.309   3.988   0.236  0.3364 -0.4456  0.2608
  638MOL0     C86013  12.421   3.942   0.167  0.4161 -0.6597 -0.5983
  638MOL0     C86014  12.514   4.041   0.196 -0.6970 -0.3519  0.3745
  638MOL0     C86015  12.650   4.056   0.138 -0.1485  0.2209  0.4934
  638MOL0     C86016  12.753   4.123   0.227 -0.1032 -0.3810  0.0525
  638MOL0     C86017  12.779   4.047   0.354  0.1210  0.5006  0.0130
  638MOL0     C86018  12.898   4.107   0.433  1.0249 -1.0588  0.5773
  638MOL0     O86019  13.010   4.018   0.411 -0.1089  0.0566 -0.4306
  638MOL0     C86020  13.129   4.069   0.373  0.1505  0.1919  0.3383
  638MOL0     C86021  13.181   4.035   0.249 -0.2562  0.2455 -0.5041
  638MOL0     C86022  13.300   4.086   0.205 -1.7201  0.0736  0.7052
  638MOL0     C86023  13.383   4.168   0.289  0.3576  0.2238 -0.0361
  638MOL0     C86024  13.513   4.217   0.248 -0.9060  0.4840 -0.2493
  638MOL0     O86025  13.621   4.203   0.336 -0.1661 -0.1116 -0.1311
  638MOL0     C86026  13.756   4.224   0.305 -0.2567 -0.8801  0.0659
  638MOL0     C86027  13.803   4.327   0.213 -0.5256 -0.8040  0.7841
  638MOL0     C86028  13.942   4.341   0.185 -0.0062 -0.1855  0.2667
  638MOL0     C86029  14.041   4.270   0.245 -0.2524  0.0882 -0.0107
  638MOL0     O86030  14.172   4.297   0.210 -0.2255 -0.5169 -0.4320
  638MOL0     C86031  14.257   4.191   0.239 -0.1367 -0.4470 -0.4006
  638MOL0     C86032  14.396   4.245   0.204 -0.2109 -0.0019 -0.0585
  638MOL0     C86033  14.494   4.168   0.280 -0.1630  0.1285  0.0172
  638MOL0     C86034  14.628   4.196   0.221 -1.3560  0.0221  0.4544
  638MOL0     C86035  14.740   4.120   0.293  0.0665 -0.3388 -0.0406
  638MOL0     C86036  14.874   4.133   0.215  0.1810 -0.2908  0.6357
  638MOL0     C86037  14.999   4.107   0.301  0.1067 -0.5988  0.2038
  638MOL0     C86038  15.109   4.017   0.248  0.4110 -0.2194  0.2472
  638MOL0    Cl86039  15.233   3.992   0.365 -0.9559  0.1986 -0.2088
  638MOL0     C86040  13.997   4.164   0.330 -0.1574 -1.0975 -0.1071
  638MOL0     C86041  13.855   4.152   0.368 -0.1920 -0.4939  1.0767
  638MOL0     O86042  13.527   4.243   0.128  0.1176 -0.0329 -0.1707
  638MOL0     C86043  13.330   4.195   0.420 -0.2268  0.6760  0.4356
  638MOL0     C86044  13.200   4.159   0.453 -0.1905  0.4975 -0.2936
  638MOL0     N86045  12.458   4.142   0.273 -0.6048  0.0074 -0.1595
  638MOL0     N86046  12.338   4.111   0.288  0.0972  0.7598 -0.3568
  638MOL0     C86047  11.245   3.750   0.581  0.5121  0.6974  0.4857
  638MOL0     C86048  11.110   3.775   0.631  0.3106  0.2963  0.7417
  638MOL0     C86049  10.674   3.802   0.716  0.7075 -0.4238 -0.3029
  638MOL0     C86050  10.647   3.743   0.836  0.0078 -0.4794 -0.4164
  638MOL0     C86051  10.521   3.733   0.892 -0.1255 -0.4017  0.0464
  638MOL0     C86052  10.412   3.780   0.818 -0.7308  0.4671 -0.5624
  638MOL0     O86053  10.291   3.780   0.880 -0.3768  0.2706  0.6169
  638MOL0     C86054  10.256   3.905   0.941 -0.1305  0.2485 -0.0557
  638MOL0     C86055  10.107   3.937   0.958 -0.2700  0.7626  0.2299
  638MOL0     C86056  10.031   3.968   0.825  0.0543  0.5269 -0.4693
  638MOL0     C86057   9.881   3.975   0.872 -0.4469 -0.8421 -0.5953
  638MOL0     C86058   9.817   4.025   0.748  0.6527  0.2254  0.1875
  638MOL0     C86059   9.755   4.055   0.648  0.3384  0.8530  0.7170
  638MOL0     C86060  10.431   3.836   0.696 -0.3880  0.2145 -0.1065
  638MOL0     C86061  10.559   3.845   0.639  0.6117  0.4566 -0.0186
  638MOL0     C86062  10.562   3.922   0.511 -0.3844  0.0628 -0.2111
  638MOL0     H86063  11.008   3.467   0.698 -0.5144  0.4589  0.1987
  638MOL0     H86064  11.240   3.413   0.614 -0.7475 -1.4132 -3.2646
  638MOL0     H86065  11.495   3.756   0.494  2.2062  0.9894  2.0755
  638MOL0     H86066  11.560   3.673   0.644 -0.3625 -0.9197  0.8777
  638MOL0     H86067  11.591   3.620   0.339  1.5614  0.9605 -1.5868
  638MOL0     H86068  11.672   3.523   0.459 -2.3307 -0.8251 -0.5659
  638MOL0     H86069  11.766   3.739   0.540  2.0580  1.2068 -1.0738
  638MOL0     H86070  11.686   3.822   0.406  1.1305  0.2030 -0.1017
  638MOL0     H86071  11.876   3.586   0.355 -2.8043 -1.9223 -3.2957
  638MOL0     H86072  11.807   3.694   0.240  1.7758 -1.9520 -0.4088
  638MOL0     H86073  11.947   3.878   0.300  0.5656 -0.4744 -1.1188
  638MOL0     H86074  11.977   3.803   0.458  2.5368 -0.1565 -0.6793
  638MOL0     H86075  12.093   3.610   0.340  0.0665  0.8773  1.1286
  638MOL0     H86076  12.050   3.674   0.186  1.8067  1.0401 -0.8746
  638MOL0     H86077  12.282   3.730   0.241 -1.5436 -0.8967 -0.9323
  638MOL0     H86078  12.242   3.784   0.393 -1.4001 -2.1012  0.7437
  638MOL0     H86079  12.140   3.927   0.130  1.2797  1.3300 -0.8291
  638MOL0     H86080  12.112   3.976   0.300 -0.8562 -1.5411  0.7970
  638MOL0     H86081  12.442   3.854   0.107 -0.8044 -0.1292 -1.8624
  638MOL0     H86082  12.690   3.960   0.106 -0.5485  0.0166  0.5978
  638MOL0     H86083  12.645   4.114   0.045 -3.1743 -2.5270 -1.2562
  638MOL0     H86084  12.852   4.129   0.181 -1.7186  0.5701 -3.6119
  638MOL0     H86085  12.723   4.224   0.259  0.3101 -0.6768  1.4512
  638MOL0     H86086  12.781   3.939   0.337 -2.9706 -0.2206  3.1284
  638MOL0     H86087  12.699   4.069   0.425  0.3302 -0.9720  0.7457
  638MOL0     H86088  12.860   4.116   0.535 -3.6871  1.1334 -1.0644
  638MOL0     H86089  12.905   4.210   0.399 -4.6367 -1.2870 -2.6216
  638MOL0     H86090  13.124   3.973   0.182  1.9219  1.2026 -3.4372
  638MOL0     H86091  13.342   4.070   0.106  0.4791  0.2247  1.5602
  638MOL0     H86092  13.730   4.395   0.171  0.6744  2.3652  3.3876
  638MOL0     H86093  13.965   4.425   0.120  1.3840  1.1424  2.3530
  638MOL0     H86094  14.266   4.173   0.346  4.1403  2.3394 -0.0645
  638MOL0     H86095  14.235   4.102   0.180  0.6233 -1.1606  0.3765
  638MOL0     H86096  14.427   4.236   0.099  1.8593  0.3245  0.4858
  638MOL0     H86097  14.408   4.348   0.237  0.2395 -0.4756  1.3081
  638MOL0     H86098  14.494   4.198   0.385  0.2599  0.4430 -0.0675
  638MOL0     H86099  14.469   4.062   0.271 -2.4089  0.1910  3.4763
  638MOL0     H86100  14.654   4.302   0.225  0.5686 -0.4212  0.7800
  638MOL0     H86101  14.620   4.158   0.119  0.6044 -2.0083  0.9480
  638MOL0     H86102  14.711   4.014   0.295 -2.7387  0.3614  0.4168
  638MOL0     H86103  14.752   4.175   0.386 -1.2094  1.4517 -0.8870
  638MOL0     H86104  14.881   4.060   0.134  0.7514  0.1259  0.2998
  638MOL0     H86105  14.881   4.231   0.167 -1.8597  0.0629  0.9645
  638MOL0     H86106  14.968   4.077   0.402 -0.5547 -0.6815 -0.0194
  638MOL0     H86107  15.043   4.206   0.316 -1.4287  0.0213  0.8595
  638MOL0     H86108  15.071   3.919   0.217  0.6671  0.4874 -2.6258
  638MOL0     H86109  15.157   4.057   0.159  3.2719 -1.9586  0.8929
  638MOL0     H86110  14.070   4.112   0.391 -1.9458 -3.0043  0.4905
  638MOL0     H86111  13.825   4.089   0.451 -3.6668  0.6277  0.8394
  638MOL0     H86112  13.383   4.260   0.489 -0.4244 -1.5674  2.8421
  638MOL0     H86113  13.165   4.191   0.551 -0.7683 -0.4856 -0.1582
  638MOL0     H86114  11.307   3.830   0.542  2.7072 -0.8566  0.5880
  638MOL0     H86115  11.070   3.876   0.621 -1.6942 -0.6606 -3.2313
  638MOL0     H86116  10.732   3.711   0.896  0.2755 -2.6186 -1.8265
  638MOL0     H86117  10.516   3.690   0.992  1.1011 -0.3585  0.1396
  638MOL0     H86118  10.291   3.987   0.877 -0.1298  1.2341  1.1568
  638MOL0     H86119  10.302   3.915   1.040 -1.6845  2.8118  0.5059
  638MOL0     H86120  10.108   4.031   1.013 -1.6126  1.4272 -0.8302
  638MOL0     H86121  10.067   3.850   1.012  2.4933 -0.5490  0.3433
  638MOL0     H86122  10.045   3.890   0.750  2.7071 -1.3599  1.7938
  638MOL0     H86123  10.065   4.057   0.771  1.9222 -0.6046 -1.2286
  638MOL0     H86124   9.850   3.877   0.908  1.4911 -1.3015 -0.0204
  638MOL0     H86125   9.860   4.046   0.952  1.9867 -0.4364 -0.2337
  638MOL0     H86126   9.684   4.085   0.574  1.1334 -2.2075 -1.4726
  638MOL0     H86127  10.355   3.884   0.636  0.1734  0.6179 -0.5034
  638MOL0     H86128  10.631   3.885   0.435 -0.2782 -0.3464  0.0824
  638MOL0     H86129  10.461   3.907   0.470 -0.2343 -1.6377 -0.0329
  638MOL0     H86130  10.582   4.028   0.530  2.2165 -0.2299 -1.0117
  639MOL0     O86131   3.078   1.750  11.157 -0.0646  0.4229 -0.0270
  639MOL0     C86132   3.122   1.836  11.235 -0.3001  0.6098  0.2484
  639MOL0     O86133   3.219   1.804  11.322 -0.4680 -0.2282 -0.5016
  639MOL0     C86134   3.280   1.677  11.321  0.4796  0.0448  0.3804
  639MOL0     C86135   3.293   1.620  11.449 -0.2760  0.8243 -0.5057
  639MOL0     C86136   3.336   1.488  11.468  0.0108 -0.3517 -0.2341
  639MOL0     C86137   3.390   1.417  11.355  0.7678  0.6240 -0.1505
  639MOL0     O86138   3.447   1.296  11.374  0.3947 -0.0015 -0.6078
  639MOL0     C86139   3.464   1.216  11.254 -0.1286  0.3189  0.0410
  639MOL0     C86140   3.515   1.079  11.297  0.7028  0.4337 -0.2778
  639MOL0     C86141   3.652   1.083  11.360 -0.0433  0.3339 -0.2693
  639MOL0     C86142   3.704   0.941  11.370 -0.0121 -0.3424  0.5422
  639MOL0     C86143   3.837   0.947  11.443 -0.8520 -0.5083 -0.7240
  639MOL0     C86144   3.950   1.021  11.378  0.2013 -0.3460 -0.3881
  639MOL0     C86145   4.093   0.990  11.443  0.4168  0.8079  0.8934
  639MOL0     C86146   4.102   1.029  11.593  0.2522  0.4797  0.2318
  639MOL0     N86147   4.241   1.056  11.629 -0.2016  0.4064 -0.1203
  639MOL0     C86148   4.292   1.180  11.654  0.3305  0.2922  0.2025
  639MOL0     C86149   4.422   1.147  11.695  0.5979  0.3623 -0.5221
  639MOL0     C86150   4.510   1.256  11.720  0.3264  0.0855  0.5791
  639MOL0     C86151   4.627   1.259  11.619  0.0586 -0.0341 -0.4373
  639MOL0     C86152   4.712   1.381  11.630 -0.4265 -0.9612  0.3051
  639MOL0     C86153   4.822   1.403  11.519  0.1141  0.9314 -0.4813
  639MOL0     O86154   4.873   1.537  11.546 -0.2249  0.0810 -0.2672
  639MOL0     C86155   4.991   1.571  11.486  0.1188  0.3279  0.6531
  639MOL0     C86156   5.073   1.483  11.407  1.0857 -0.7976  0.7921
  639MOL0     C86157   5.208   1.520  11.372  0.2212 -0.2431 -0.7318
  639MOL0     C86158   5.260   1.642  11.411  0.3355  0.9390 -0.1361
  639MOL0     C86159   5.402   1.676  11.387 -0.0541 -0.7199 -0.3628
  639MOL0     O86160   5.453   1.609  11.285  0.8816  0.2807 -0.8682
  639MOL0     C86161   5.574   1.636  11.228 -0.1642  0.1737  0.3058
  639MOL0     C86162   5.676   1.718  11.279  0.3137  0.1186 -0.1870
  639MOL0     C86163   5.792   1.744  11.206 -0.5350  0.2771 -1.0430
  639MOL0     C86164   5.806   1.685  11.082  0.6195  0.3277  0.3009
  639MOL0     O86165   5.912   1.715  11.004 -0.6641 -0.0479 -0.0877
  639MOL0     C86166   5.996   1.602  10.967  0.0486 -0.3636  0.1711
  639MOL0     C86167   6.127   1.674  10.914  0.1393 -0.1148 -0.1186
  639MOL0     C86168   6.221   1.702  11.030 -0.0587 -0.2771  0.0514
  639MOL0     C86169   6.311   1.822  11.017  0.2779  0.1742 -0.4893
  639MOL0     C86170   6.422   1.808  10.908 -0.3801 -0.8930 -0.2433
  639MOL0     C86171   6.532   1.710  10.952  0.3196 -0.3078  0.2140
  639MOL0     C86172   6.659   1.718  10.867  0.5717  0.1181 -1.1113
  639MOL0     C86173   6.771   1.627  10.921  0.6340  0.2942 -0.3921
  639MOL0    Cl86174   6.928   1.644  10.855 -0.3400 -0.2792 -0.3557
  639MOL0     C86175   5.702   1.598  11.032  1.4512 -0.2100 -0.5547
  639MOL0     C86176   5.588   1.576  11.108 -0.1445 -0.1581  0.2212
  639MOL0     O86177   5.456   1.763  11.451 -0.7464 -0.3683  0.8006
  639MOL0     C86178   5.179   1.722  11.492 -0.3707  0.4324  0.2878
  639MOL0     C86179   5.046   1.694  11.523  0.1548  0.3247 -0.8141
  639MOL0     N86180   4.445   1.008  11.677  0.4164 -0.9310  0.2123
  639MOL0     N86181   4.334   0.956  11.633 -0.1808  0.1310  0.1436
  639MOL0     C86182   3.388   1.478  11.231  0.2178  0.2061  0.2696
  639MOL0     C86183   3.327   1.603  11.214  0.0355  0.7224 -0.4121
  639MOL0     C86184   3.060   1.960  11.233 -0.0384 -0.3324  0.0054
  639MOL0     C86185   2.921   1.966  11.249 -0.0707 -0.5027  0.3005
  639MOL0     C86186   2.852   2.083  11.227 -0.1813 -0.7785  0.0462
  639MOL0     C86187   2.910   2.203  11.193 -0.4681 -0.1870  0.0752
  639MOL0     O86188   2.832   2.314  11.166 -0.2609 -0.2027  0.3854
  639MOL0     C86189   2.885   2.434  11.114 -0.7478  0.1250 -0.2329
  639MOL0     C86190   2.796   2.560  11.134 -0.1681 -0.0730 -1.1255
  639MOL0     C86191   2.730   2.576  11.270 -0.8325  0.2036  0.8845
  639MOL0     C86192   2.646   2.701  11.286 -0.0951  0.0641 -0.8662
  639MOL0     C86193   2.722   2.825  11.308  0.0309  0.5366  0.3740
  639MOL0     C86194   2.791   2.922  11.336 -0.5819  0.0165  0.1859
  639MOL0     C86195   3.051   2.205  11.189 -0.1099 -0.8567 -0.9275
  639MOL0     C86196   3.132   2.082  11.199  0.0089 -0.8025 -0.1253
  639MOL0     C86197   3.284   2.078  11.183  1.3788 -0.0586  0.1880
  639MOL0     H86198   3.257   1.672  11.537  0.7585 -0.3010  0.6310
  639MOL0     H86199   3.331   1.443  11.566 -1.7979  0.7907  0.2479
  639MOL0     H86200   3.370   1.195  11.203 -1.9381  2.7376  2.0855
  639MOL0     H86201   3.541   1.268  11.195  0.3011 -0.8146 -0.4292
  639MOL0     H86202   3.534   1.041  11.197  1.1043  3.0257 -1.2610
  639MOL0     H86203   3.446   1.017  11.354  2.1183 -0.5938  0.3771
  639MOL0     H86204   3.640   1.122  11.461  0.9541 -3.3596  1.4138
  639MOL0     H86205   3.712   1.148  11.296 -0.8925  3.5764  1.9806
  639MOL0     H86206   3.629   0.881  11.422 -2.9944  2.6124 -0.0275
  639MOL0     H86207   3.719   0.905  11.267  0.0992 -1.2356  0.8574
  639MOL0     H86208   3.822   0.990  11.543 -2.3352  0.8397 -1.4900
  639MOL0     H86209   3.854   0.842  11.465 -1.6297 -0.2207  1.5818
  639MOL0     H86210   3.938   1.008  11.270 -0.8072  2.0644 -0.6458
  639MOL0     H86211   3.935   1.126  11.405  0.2485 -0.1275 -1.1891
  639MOL0     H86212   4.168   1.038  11.379  1.7304 -2.1503  0.0766
  639MOL0     H86213   4.117   0.885  11.427 -0.1550  1.0676 -2.5052
  639MOL0     H86214   4.044   1.120  11.609  1.8673  1.4410  0.9401
  639MOL0     H86215   4.045   0.960  11.655  1.5684  1.1369  2.2567
  639MOL0     H86216   4.237   1.274  11.650 -3.3379 -1.5803  1.5943
  639MOL0     H86217   4.466   1.356  11.714  2.3262  0.9652 -1.4456
  639MOL0     H86218   4.547   1.255  11.823  1.5469 -1.8539  0.1875
  639MOL0     H86219   4.687   1.172  11.645  1.4370  0.5329 -1.6250
  639MOL0     H86220   4.583   1.255  11.519 -2.6080  0.4233  0.6194
  639MOL0     H86221   4.758   1.385  11.729 -0.6643  2.8711  0.4208
  639MOL0     H86222   4.635   1.458  11.618 -0.7235 -1.3139 -0.0575
  639MOL0     H86223   4.773   1.400  11.422 -0.6442  1.5782 -0.1282
  639MOL0     H86224   4.900   1.327  11.530 -1.7418 -0.8004  1.6186
  639MOL0     H86225   5.033   1.390  11.365 -2.0850  0.9112 -0.3601
  639MOL0     H86226   5.267   1.451  11.313  1.4292  0.2723 -0.1480
  639MOL0     H86227   5.677   1.772  11.372 -1.2425  1.8569 -1.1169
  639MOL0     H86228   5.863   1.809  11.255 -1.0948 -0.2447  0.5076
  639MOL0     H86229   6.038   1.546  11.051 -1.0918 -2.6794 -0.7103
  639MOL0     H86230   5.939   1.532  10.905  1.0034 -0.7970 -0.2315
  639MOL0     H86231   6.170   1.602  10.843  1.5874  1.3494 -0.7823
  639MOL0     H86232   6.115   1.769  10.861  0.3724 -0.5591 -0.9799
  639MOL0     H86233   6.166   1.700  11.124 -1.3520 -1.8459 -0.6876
  639MOL0     H86234   6.284   1.612  11.035  0.7336  0.2216 -0.6500
  639MOL0     H86235   6.367   1.827  11.111 -1.1850  0.3658  0.4060
  639MOL0     H86236   6.251   1.913  11.005  1.8446  1.1257 -1.4489
  639MOL0     H86237   6.465   1.908  10.900 -0.3719 -0.9254 -0.6507
  639MOL0     H86238   6.382   1.776  10.811  1.1771 -0.4001 -1.0845
  639MOL0     H86239   6.565   1.725  11.056 -0.2074 -2.3067  0.7292
  639MOL0     H86240   6.481   1.614  10.936  1.6583 -0.8529 -1.0187
  639MOL0     H86241   6.696   1.820  10.877 -0.1353  0.2895 -0.0048
  639MOL0     H86242   6.643   1.681  10.766  0.3861  1.5394 -1.6195
  639MOL0     H86243   6.782   1.645  11.028  1.0121 -0.3630 -0.3143
  639MOL0     H86244   6.738   1.523  10.911  1.3974 -0.3911  2.9744
  639MOL0     H86245   5.707   1.541  10.939  0.2193 -0.2680 -0.5992
  639MOL0     H86246   5.511   1.517  11.058 -0.4174  0.6803 -0.3775
  639MOL0     H86247   5.207   1.814  11.542 -0.4721  0.7423 -0.2217
  639MOL0     H86248   4.994   1.772  11.577  2.6715  2.7412 -1.6624
  639MOL0     H86249   3.436   1.439  11.141  0.6841 -0.0162  0.6101
  639MOL0     H86250   3.329   1.649  11.116  0.6873  0.6489 -0.4407
  639MOL0     H86251   2.869   1.871  11.260  0.6789 -1.2796 -2.2621
  639MOL0     H86252   2.746   2.069  11.247  0.2918 -2.3657  1.7542
  639MOL0     H86253   2.893   2.427  11.005 -2.5586  1.9907 -0.5454
  639MOL0     H86254   2.981   2.458  11.162 -0.6992  0.5295 -0.5308
  639MOL0     H86255   2.718   2.546  11.059 -0.9670 -2.0881  0.0178
  639MOL0     H86256   2.856   2.649  11.113  2.5244 -1.7539 -1.0455
  639MOL0     H86257   2.808   2.583  11.346  0.5095  2.2220 -0.5677
  639MOL0     H86258   2.681   2.480  11.286  0.8366 -0.9028 -0.3627
  639MOL0     H86259   2.590   2.714  11.192 -1.1649  1.8384 -0.0439
  639MOL0     H86260   2.568   2.693  11.363 -0.4268  3.1250 -0.7894
  639MOL0     H86261   2.847   3.014  11.338  2.1793 -1.5572  1.0661
  639MOL0     H86262   3.100   2.296  11.156  0.2024 -0.2756  0.9906
  639MOL0     H86263   3.312   2.180  11.155 -0.1108  0.3114 -0.0543
  639MOL0     H86264   3.331   2.044  11.276  0.6480  3.0391  1.8248
  639MOL0     H86265   3.325   2.022  11.098  0.4179 -0.2521 -0.1621
  640MOL0     O86266   1.163   1.187   1.685  0.8141 -0.2059  0.2110
  640MOL0     C86267   1.100   1.126   1.598 -0.5155  0.3447 -0.3213
  640MOL0     O86268   1.155   1.034   1.513  0.1537 -0.1981  0.1960
  640MOL0     C86269   1.290   1.017   1.518 -0.7124  0.5098 -0.6517
  640MOL0     C86270   1.338   0.927   1.616  0.5382 -0.3854  0.2498
  640MOL0     C86271   1.471   0.891   1.620  0.7453 -0.0029  0.6324
  640MOL0     C86272   1.573   0.968   1.549  0.0093 -0.0881 -0.0315
  640MOL0     O86273   1.705   0.951   1.561 -0.0978  0.0831  0.6455
  640MOL0     C86274   1.770   0.897   1.680  0.2247 -0.0741 -0.2566
  640MOL0     C86275   1.887   0.819   1.637 -0.9718 -0.1628 -0.2234
  640MOL0     C86276   1.995   0.897   1.554 -0.4152 -0.3907  0.6071
  640MOL0     C86277   2.084   0.987   1.651 -0.0407 -0.3888 -0.7381
  640MOL0     C86278   2.210   1.032   1.574  0.1303 -0.5223  0.1682
  640MOL0     C86279   2.283   1.151   1.643 -0.6610  0.3320 -0.3430
  640MOL0     C86280   2.388   1.220   1.550 -0.5010  0.3433 -0.2389
  640MOL0     C86281   2.494   1.125   1.480  1.0308 -0.8135  0.2395
  640MOL0     N86282   2.601   1.195   1.403  0.4257 -0.2663 -0.0671
  640MOL0     C86283   2.663   1.316   1.446  0.1222  0.4899  0.5005
  640MOL0     C86284   2.737   1.351   1.338  0.4458  0.7287 -0.1738
  640MOL0     C86285   2.823   1.471   1.317 -0.0514 -0.3929 -0.0233
  640MOL0     C86286   2.977   1.458   1.321 -0.0530  0.2183 -0.0331
  640MOL0     C86287   3.033   1.370   1.214 -0.2747 -0.5187 -0.3944
  640MOL0     C86288   3.186   1.353   1.232 -0.1012  0.3163 -0.5004
  640MOL0     O86289   3.251   1.468   1.271 -0.2286 -0.0113  0.1248
  640MOL0     C86290   3.383   1.466   1.252 -0.3513  0.6679  0.1853
  640MOL0     C86291   3.467   1.352   1.258  0.3782  0.2601  0.0356
  640MOL0     C86292   3.606   1.357   1.256  0.5424  0.2453 -0.4826
  640MOL0     C86293   3.669   1.481   1.236 -0.4060  0.0581 -0.4532
  640MOL0     C86294   3.820   1.484   1.223 -0.1849  0.1217  0.0955
  640MOL0     O86295   3.885   1.368   1.187 -0.4115 -0.0232  0.1960
  640MOL0     C86296   4.023   1.367   1.190 -0.6427  0.3267 -0.7156
  640MOL0     C86297   4.102   1.445   1.276  0.1808  0.1224  0.2288
  640MOL0     C86298   4.245   1.431   1.266 -0.0833 -0.1706  0.3493
  640MOL0     C86299   4.302   1.334   1.192 -0.3422 -0.7649  0.3749
  640MOL0     O86300   4.441   1.320   1.207  0.2196  0.4899  0.0134
  640MOL0     C86301   4.517   1.251   1.105  0.3979  0.3321 -0.1108
  640MOL0     C86302   4.669   1.276   1.121 -0.5184 -0.3777 -0.2856
  640MOL0     C86303   4.730   1.202   1.002  0.4293 -0.1713 -0.0083
  640MOL0     C86304   4.857   1.278   0.962 -0.0252  0.2472 -0.3026
  640MOL0     C86305   4.933   1.223   0.838  0.5998  0.1610  0.5021
  640MOL0     C86306   5.068   1.283   0.842 -0.5275 -0.5218  0.2493
  640MOL0     C86307   5.144   1.274   0.706 -0.0304 -0.1070  0.4532
  640MOL0     C86308   5.272   1.342   0.712 -0.3645 -1.0689 -0.2802
  640MOL0    Cl86309   5.400   1.283   0.828 -0.0175 -0.2352  0.4083
  640MOL0     C86310   4.226   1.259   1.107 -0.4324  0.8282 -0.4805
  640MOL0     C86311   4.082   1.268   1.114  0.3540  0.3503 -0.1064
  640MOL0     O86312   3.870   1.596   1.234  0.2362 -0.4092  0.1210
  640MOL0     C86313   3.590   1.601   1.234 -0.6385 -0.2326 -0.9229
  640MOL0     C86314   3.453   1.588   1.250 -0.3441 -0.0423  0.5080
  640MOL0     N86315   2.699   1.270   1.230 -0.3978  0.0509 -0.3478
  640MOL0     N86316   2.611   1.182   1.267  0.0648 -0.1596  0.7556
  640MOL0     C86317   1.519   1.066   1.451 -0.8749  1.5293  0.1245
  640MOL0     C86318   1.383   1.080   1.440 -0.2723  0.2147  1.4065
  640MOL0     C86319   0.948   1.125   1.616 -0.6993  0.2284 -0.0415
  640MOL0     C86320   0.874   1.060   1.518 -1.0118 -0.2747 -0.0317
  640MOL0     C86321   0.738   1.038   1.532 -0.1772 -1.0971 -0.4159
  640MOL0     C86322   0.675   1.074   1.649 -0.3895  0.2609  0.0720
  640MOL0     O86323   0.542   1.056   1.665  0.0591 -0.0249  0.6628
  640MOL0     C86324   0.459   1.165   1.622  0.3530 -0.4406 -1.0916
  640MOL0     C86325   0.348   1.113   1.521 -0.3582 -0.7231 -1.0162
  640MOL0     C86326   0.244   1.225   1.497 -0.2996 -0.1164  0.0895
  640MOL0     C86327   0.119   1.172   1.427  0.2681 -0.3591 -0.0800
  640MOL0     C86328   0.026   1.283   1.402 -0.2449 -0.2625 -0.3541
  640MOL0     C86329  -0.060   1.362   1.389  0.3799  0.3301 -0.4061
  640MOL0     C86330   0.743   1.142   1.749 -0.8037  0.7346  0.0122
  640MOL0     C86331   0.876   1.173   1.736 -0.7052 -0.2260 -0.3320
  640MOL0     C86332   0.938   1.257   1.846  0.2851 -0.6002  0.4590
  640MOL0     H86333   1.264   0.885   1.683 -1.1756  1.1599 -0.5762
  640MOL0     H86334   1.477   0.812   1.694 -4.3249 -0.5326  0.8137
  640MOL0     H86335   1.801   0.976   1.749 -1.3417  0.3728 -0.0133
  640MOL0     H86336   1.708   0.822   1.729 -0.7742  0.1538 -1.1304
  640MOL0     H86337   1.851   0.728   1.589 -1.6097 -0.9916  1.7184
  640MOL0     H86338   1.934   0.787   1.731  1.3807  0.9987 -0.9119
  640MOL0     H86339   1.945   0.957   1.477  2.4099  2.8530  1.0306
  640MOL0     H86340   2.068   0.836   1.500  0.3190  2.3316 -1.7270
  640MOL0     H86341   2.018   1.065   1.690 -0.3706 -2.2164  2.6990
  640MOL0     H86342   2.108   0.938   1.745  1.0015 -0.1034 -0.8487
  640MOL0     H86343   2.276   0.946   1.561  1.2246  0.5046 -1.3514
  640MOL0     H86344   2.185   1.070   1.475  2.2655 -1.0078 -0.6008
  640MOL0     H86345   2.213   1.230   1.673  1.7980  1.8063  1.9412
  640MOL0     H86346   2.330   1.114   1.734 -1.0584 -0.9701 -0.6509
  640MOL0     H86347   2.441   1.292   1.613  0.8452 -0.8143 -0.0096
  640MOL0     H86348   2.337   1.276   1.472 -0.4349  1.8370  0.7445
  640MOL0     H86349   2.543   1.072   1.562  1.0164 -1.5007 -0.1918
  640MOL0     H86350   2.449   1.053   1.412  1.8188 -3.4979  2.3869
  640MOL0     H86351   2.656   1.377   1.536 -2.3068  1.0251  0.0395
  640MOL0     H86352   2.797   1.504   1.216  0.6341 -2.1351 -0.8104
  640MOL0     H86353   2.796   1.538   1.399 -0.3433 -1.3119  0.6492
  640MOL0     H86354   3.027   1.554   1.308 -0.4885  0.2986 -1.2594
  640MOL0     H86355   3.003   1.421   1.420  2.4882 -0.3686 -0.8424
  640MOL0     H86356   3.029   1.410   1.112  0.7313  1.5753  0.3472
  640MOL0     H86357   2.976   1.276   1.210 -0.4152 -0.5865  1.9988
  640MOL0     H86358   3.231   1.316   1.140  1.9311  1.6376 -0.0936
  640MOL0     H86359   3.187   1.278   1.312 -2.5757  1.1252  0.3944
  640MOL0     H86360   3.431   1.249   1.266  1.9254 -0.3230 -0.0770
  640MOL0     H86361   3.666   1.269   1.240  0.6114  0.5183 -1.8338
  640MOL0     H86362   4.072   1.523   1.345  0.9070 -0.3703  1.1396
  640MOL0     H86363   4.314   1.491   1.325  0.1271 -0.0756  0.0089
  640MOL0     H86364   4.500   1.144   1.113 -0.4746  0.4864  0.1421
  640MOL0     H86365   4.465   1.283   1.014 -3.4547 -1.9860  1.0749
  640MOL0     H86366   4.706   1.379   1.117  2.3880 -1.3478 -1.7921
  640MOL0     H86367   4.701   1.220   1.209  0.8828 -1.7054 -1.5486
  640MOL0     H86368   4.751   1.102   1.041  0.4830  0.8448  2.7586
  640MOL0     H86369   4.663   1.198   0.915  2.3445 -0.9941 -1.5284
  640MOL0     H86370   4.923   1.281   1.050 -1.1605  1.9615  0.5394
  640MOL0     H86371   4.835   1.382   0.938 -3.4445  0.2070  1.9025
  640MOL0     H86372   4.880   1.235   0.743 -0.7907  0.7584  1.3244
  640MOL0     H86373   4.948   1.116   0.859  3.1411  0.4028  0.1225
  640MOL0     H86374   5.062   1.390   0.867  2.1159 -0.5348  1.1729
  640MOL0     H86375   5.126   1.236   0.922  2.0386  1.0743 -0.5431
  640MOL0     H86376   5.075   1.319   0.635 -1.3424 -2.0149  0.4445
  640MOL0     H86377   5.167   1.171   0.677  1.0019  0.6818 -1.7689
  640MOL0     H86378   5.330   1.330   0.620 -0.2186  0.0657 -0.3413
  640MOL0     H86379   5.250   1.445   0.740 -0.7777 -1.2868  0.2267
  640MOL0     H86380   4.268   1.184   1.040  1.9655  1.4931  0.1904
  640MOL0     H86381   4.031   1.210   1.038 -2.1029  1.6455  0.4712
  640MOL0     H86382   3.644   1.695   1.222 -1.1701  0.1744 -0.1980
  640MOL0     H86383   3.400   1.682   1.266  0.0193  0.0208  1.4639
  640MOL0     H86384   1.600   1.092   1.384 -0.3463 -1.0360 -0.3439
  640MOL0     H86385   1.342   1.136   1.357 -2.7004 -4.2522 -0.8030
  640MOL0     H86386   0.924   1.042   1.423 -0.3470  1.6932 -0.0937
  640MOL0     H86387   0.682   0.981   1.459 -1.8937 -2.0537  1.5439
  640MOL0     H86388   0.528   1.238   1.580  1.9884 -2.1650 -1.5317
  640MOL0     H86389   0.404   1.200   1.710  1.7667  0.7809 -0.6439
  640MOL0     H86390   0.304   1.022   1.563  0.8772 -0.7303  0.3469
  640MOL0     H86391   0.389   1.093   1.421  0.1564  0.9600 -1.1760
  640MOL0     H86392   0.291   1.296   1.427 -0.8284 -0.7523 -0.9312
  640MOL0     H86393   0.227   1.272   1.594  0.5320 -2.4640  1.4272
  640MOL0     H86394   0.143   1.127   1.330 -3.3411 -1.2038 -0.7638
  640MOL0     H86395   0.070   1.102   1.495 -0.1710 -0.9074 -0.9296
  640MOL0     H86396  -0.124   1.445   1.367 -0.8427 -0.7652 -1.1472
  640MOL0     H86397   0.690   1.165   1.841  2.2031 -2.9269  3.0180
  640MOL0     H86398   0.993   1.340   1.801 -1.4507  0.8380  0.8722
  640MOL0     H86399   0.864   1.299   1.915 -0.2473  0.7555 -0.8682
  640MOL0     H86400   1.012   1.203   1.906  0.4055  0.2924  1.1471
  641MOL0     O86401  10.301   9.213   8.221 -0.1255 -0.4737  0.1961
  641MOL0     C86402  10.414   9.208   8.257 -0.4634  0.5427  0.5200
  641MOL0     O86403  10.530   9.215   8.179 -0.3743 -0.4703 -0.1166
  641MOL0     C86404  10.531   9.266   8.043  0.8221 -0.5226  0.3207
  641MOL0     C86405  10.640   9.243   7.969  0.2091 -0.6240  0.2079
  641MOL0     C86406  10.648   9.296   7.843  0.2552 -0.0690 -0.2076
  641MOL0     C86407  10.550   9.364   7.782 -0.9359  0.4359  0.0038
  641MOL0     O86408  10.561   9.394   7.648  0.0182 -0.6367 -0.5619
  641MOL0     C86409  10.468   9.331   7.570 -0.4459 -0.0113 -0.3225
  641MOL0     C86410  10.527   9.250   7.455 -0.5232 -0.7265 -0.3097
  641MOL0     C86411  10.624   9.139   7.501  0.2448  0.0403 -0.1621
  641MOL0     C86412  10.666   9.045   7.391  0.2598  0.6146  0.7631
  641MOL0     C86413  10.740   8.918   7.428 -0.1952  0.6824  0.1969
  641MOL0     C86414  10.647   8.809   7.485  0.4496 -0.6581  0.2850
  641MOL0     C86415  10.593   8.709   7.375 -0.7131 -0.1891  0.3545
  641MOL0     C86416  10.479   8.764   7.294 -0.1391 -0.3092  0.8389
  641MOL0     N86417  10.371   8.810   7.380  0.4220  0.2148  0.2512
  641MOL0     C86418  10.294   8.725   7.445  0.8345 -0.0973  0.1033
  641MOL0     C86419  10.200   8.807   7.496 -0.0487 -0.0800 -1.3423
  641MOL0     C86420  10.080   8.754   7.570  0.4061 -0.4695  0.0162
  641MOL0     C86421  10.023   8.861   7.668 -0.2766 -0.3943 -0.1688
  641MOL0     C86422  10.102   8.878   7.803  0.0269 -0.0834 -0.4679
  641MOL0     C86423  10.252   8.875   7.801 -0.2748  0.5925 -0.2264
  641MOL0     O86424  10.298   8.891   7.939  0.1585  0.7770 -0.2709
  641MOL0     C86425  10.431   8.909   7.960  0.4060  0.0360 -0.4815
  641MOL0     C86426  10.530   8.905   7.858  0.2790  0.3548 -1.0629
  641MOL0     C86427  10.667   8.916   7.894  0.6033  0.3099  0.5365
  641MOL0     C86428  10.701   8.923   8.031 -0.2216  0.2779 -0.9460
  641MOL0     C86429  10.847   8.940   8.058 -0.4108 -0.5523  0.2791
  641MOL0     O86430  10.891   8.922   8.180 -0.8112 -1.2777  0.1821
  641MOL0     C86431  11.027   8.920   8.198 -0.0931 -0.1960 -0.6614
  641MOL0     C86432  11.086   9.017   8.284 -0.3498 -0.2735  0.2121
  641MOL0     C86433  11.224   9.030   8.291 -0.0606  0.2444  0.5433
  641MOL0     C86434  11.305   8.940   8.224  0.0099  0.3837  0.6473
  641MOL0     O86435  11.433   8.970   8.250 -0.0985 -0.6423 -0.5359
  641MOL0     C86436  11.512   8.866   8.308 -0.0317 -0.7461 -0.0920
  641MOL0     C86437  11.646   8.930   8.324 -0.1152  0.0187  0.7524
  641MOL0     C86438  11.750   8.845   8.415 -0.2865 -0.6842  0.0766
  641MOL0     C86439  11.810   8.714   8.361  0.5689  0.7398 -0.4051
  641MOL0     C86440  11.875   8.641   8.479 -0.6672 -0.5483 -0.2118
  641MOL0     C86441  11.921   8.493   8.439  0.2900  0.6661  0.1540
  641MOL0     C86442  12.012   8.422   8.542 -0.3178  0.8430 -0.6224
  641MOL0     C86443  12.141   8.484   8.596  0.8746 -0.4533 -0.1228
  641MOL0    Cl86444  12.114   8.617   8.722 -0.3134  0.0473  0.0894
  641MOL0     C86445  11.245   8.831   8.152  1.0905  0.1237 -0.8333
  641MOL0     C86446  11.112   8.829   8.136  0.9013 -0.5169  0.0438
  641MOL0     O86447  10.919   8.984   7.965 -0.2592  0.1313 -0.9718
  641MOL0     C86448  10.606   8.911   8.131 -0.9433  0.2550 -0.3840
  641MOL0     C86449  10.474   8.907   8.093 -0.3741  0.6459  0.1360
  641MOL0     N86450  10.234   8.942   7.461  0.7558 -0.0954 -0.4161
  641MOL0     N86451  10.332   8.939   7.382 -0.2077 -0.1679 -0.2957
  641MOL0     C86452  10.438   9.400   7.857 -0.6203 -0.4746  0.4196
  641MOL0     C86453  10.428   9.352   7.990  0.1291  1.1937  0.6400
  641MOL0     C86454  10.443   9.195   8.394 -0.2844  0.3285  0.6423
  641MOL0     C86455  10.571   9.135   8.418 -0.2388  0.9178  1.0358
  641MOL0     C86456  10.631   9.146   8.541  0.9599  0.0203  0.2362
  641MOL0     C86457  10.565   9.207   8.651 -0.7531 -0.3505  0.6971
  641MOL0     O86458  10.634   9.208   8.769  0.1480 -0.8611 -0.5311
  641MOL0     C86459  10.571   9.261   8.889 -0.2205 -0.1532 -0.4398
  641MOL0     C86460  10.675   9.242   9.011  0.6225 -0.1491  0.1839
  641MOL0     C86461  10.811   9.297   8.988 -0.3426  0.2240  0.0957
  641MOL0     C86462  10.912   9.267   9.097  0.1184  0.7828  0.0291
  641MOL0     C86463  11.050   9.301   9.057  0.5870  0.5101 -0.4909
  641MOL0     C86464  11.164   9.333   9.026  1.0436 -0.0123 -0.9254
  641MOL0     C86465  10.438   9.266   8.623  0.0562 -0.1020 -0.4554
  641MOL0     C86466  10.367   9.257   8.499 -0.0325  0.1355 -0.0922
  641MOL0     C86467  10.228   9.325   8.484 -0.4317  0.0939 -0.0551
  641MOL0     H86468  10.720   9.184   8.014  0.8399  0.4650  0.5574
  641MOL0     H86469  10.739   9.280   7.786  0.3893 -4.7972  0.9572
  641MOL0     H86470  10.393   9.268   7.620  0.1602  0.4307  1.2017
  641MOL0     H86471  10.418   9.419   7.527  3.2194  1.7216 -1.3946
  641MOL0     H86472  10.581   9.326   7.397 -0.1264  1.0998  2.3011
  641MOL0     H86473  10.445   9.226   7.387 -3.1624  2.4075  1.4382
  641MOL0     H86474  10.570   9.086   7.581 -1.4561  2.4048  0.3590
  641MOL0     H86475  10.711   9.196   7.535  0.3503  0.6524 -1.4151
  641MOL0     H86476  10.578   9.019   7.332  0.2065  2.9862 -0.3326
  641MOL0     H86477  10.727   9.108   7.324 -0.0288  3.6237  3.1035
  641MOL0     H86478  10.790   8.889   7.335  2.5811  0.3818  1.6770
  641MOL0     H86479  10.819   8.931   7.501 -0.6263 -1.9740  1.2620
  641MOL0     H86480  10.707   8.756   7.560  0.6544 -0.6698  0.1129
  641MOL0     H86481  10.566   8.856   7.542 -1.8293  0.9864 -3.9146
  641MOL0     H86482  10.556   8.618   7.424  2.5083 -1.3403  0.9272
  641MOL0     H86483  10.683   8.683   7.318 -0.4964  0.6806  0.2877
  641MOL0     H86484  10.516   8.846   7.231 -0.5968 -0.2055  0.7051
  641MOL0     H86485  10.431   8.691   7.228 -0.4082  0.9047 -0.3721
  641MOL0     H86486  10.294   8.617   7.455 -2.0152 -0.0262  1.9816
  641MOL0     H86487   9.999   8.730   7.500 -0.3127 -1.9576  1.2750
  641MOL0     H86488  10.101   8.661   7.624  4.4215 -0.1796 -0.7471
  641MOL0     H86489  10.017   8.959   7.620 -1.8226  1.3928  3.2808
  641MOL0     H86490   9.926   8.813   7.686  0.9268 -3.4361 -1.2507
  641MOL0     H86491  10.058   8.796   7.860 -0.1333  0.0917 -0.3414
  641MOL0     H86492  10.074   8.975   7.845  1.3558  0.3756 -0.5923
  641MOL0     H86493  10.302   8.949   7.738  1.5270 -0.3735 -0.0130
  641MOL0     H86494  10.289   8.777   7.772  0.3285  1.3767 -2.2363
  641MOL0     H86495  10.497   8.917   7.756 -0.6880  2.6959 -0.5329
  641MOL0     H86496  10.734   8.920   7.808 -0.0876 -2.2254 -0.1959
  641MOL0     H86497  11.026   9.088   8.340 -1.3920 -0.5049 -0.5837
  641MOL0     H86498  11.279   9.097   8.356  0.1305 -3.5528  4.7968
  641MOL0     H86499  11.467   8.842   8.405 -0.5450 -0.4294 -0.2444
  641MOL0     H86500  11.516   8.772   8.253  0.0283 -1.7977  1.6196
  641MOL0     H86501  11.688   8.926   8.223 -2.7351  0.2462 -0.4040
  641MOL0     H86502  11.633   9.031   8.363 -0.4012 -0.2014  1.2393
  641MOL0     H86503  11.832   8.913   8.441 -0.9840  0.4654 -0.6138
  641MOL0     H86504  11.703   8.833   8.513 -0.8135 -1.6464 -0.2774
  641MOL0     H86505  11.884   8.734   8.282 -0.1786  0.9486 -1.0631
  641MOL0     H86506  11.734   8.650   8.316  0.8927 -0.8985  1.2736
  641MOL0     H86507  11.806   8.636   8.564 -0.2527  0.2529  0.1876
  641MOL0     H86508  11.961   8.699   8.514 -1.6212  0.4586  0.5559
  641MOL0     H86509  11.835   8.430   8.414  1.5098 -0.6515 -0.8743
  641MOL0     H86510  11.984   8.487   8.350 -1.3944 -1.6540 -1.0076
  641MOL0     H86511  12.049   8.334   8.489 -0.8409 -1.1760  2.1292
  641MOL0     H86512  11.941   8.389   8.618  0.4387 -0.2885 -0.3733
  641MOL0     H86513  12.201   8.406   8.645  1.2437 -0.4700 -0.5961
  641MOL0     H86514  12.204   8.518   8.513  0.0471 -0.7359 -0.8768
  641MOL0     H86515  11.308   8.752   8.113  0.7170  0.3393 -1.9124
  641MOL0     H86516  11.053   8.754   8.084  0.0567 -0.6439  1.1333
  641MOL0     H86517  10.646   8.923   8.231  0.9348  1.8745 -1.2791
  641MOL0     H86518  10.402   8.901   8.175 -0.4944  2.3303  0.1922
  641MOL0     H86519  10.362   9.456   7.803 -0.6850 -4.1850 -3.9231
  641MOL0     H86520  10.343   9.381   8.051  1.0632  2.0056  1.5809
  641MOL0     H86521  10.624   9.082   8.340 -2.3343 -1.3589  1.0264
  641MOL0     H86522  10.731   9.110   8.567  0.1415 -1.9701  0.8036
  641MOL0     H86523  10.485   9.195   8.902  0.8669 -1.4667  0.3019
  641MOL0     H86524  10.527   9.361   8.884 -0.8724 -0.4919 -1.9887
  641MOL0     H86525  10.695   9.135   9.017 -1.8399 -0.8453 -2.1743
  641MOL0     H86526  10.630   9.286   9.100  0.6115  1.5065 -0.5818
  641MOL0     H86527  10.800   9.405   8.977 -1.1259  0.2381  0.9617
  641MOL0     H86528  10.844   9.255   8.892 -2.4974  0.5541 -0.8611
  641MOL0     H86529  10.883   9.320   9.188 -0.4162  3.4315 -1.5763
  641MOL0     H86530  10.903   9.161   9.125 -1.5203  1.1820  1.2068
  641MOL0     H86531  11.262   9.365   8.996  0.2097  1.2778 -2.4169
  641MOL0     H86532  10.388   9.322   8.701  2.2970 -1.2369  1.9359
  641MOL0     H86533  10.214   9.363   8.383 -1.9762 -0.4395 -0.0658
  641MOL0     H86534  10.160   9.241   8.498  1.1760 -1.6219 -1.9412
  641MOL0     H86535  10.216   9.413   8.548 -1.3619 -0.4552  0.5482
  642MOL0     O86536   9.473   9.487  11.208 -0.2420 -0.3797 -0.6936
  642MOL0     C86537   9.464   9.545  11.103 -0.2223 -0.3594 -0.3509
  642MOL0     O86538   9.473   9.681  11.082 -0.7316  0.1587 -0.6243
  642MOL0     C86539   9.509   9.760  11.195  0.3107 -0.0712 -0.4994
  642MOL0     C86540   9.630   9.837  11.182 -0.1406  0.0730  0.2580
  642MOL0     C86541   9.671   9.932  11.281 -0.7318  0.3581  0.1699
  642MOL0     C86542   9.592   9.944  11.393 -0.0375 -0.1955  0.1979
  642MOL0     O86543   9.605  10.041  11.486  0.1012 -0.0867 -0.0259
  642MOL0     C86544   9.735  10.112  11.491  0.2441 -0.2119 -0.8807
  642MOL0     C86545   9.839  10.044  11.583  0.8838  0.6365  0.3888
  642MOL0     C86546   9.957  10.135  11.613 -0.5045  0.1553  0.6847
  642MOL0     C86547  10.060  10.086  11.714 -0.8288 -0.3167  0.2840
  642MOL0     C86548  10.170  10.196  11.719 -0.1938 -0.0630  0.7009
  642MOL0     C86549  10.288  10.160  11.815  0.5297 -0.6700 -0.1869
  642MOL0     C86550  10.372  10.289  11.827 -0.9237 -0.2505  0.3677
  642MOL0     C86551  10.457  10.312  11.702  0.3970 -0.9862 -0.5932
  642MOL0     N86552  10.535  10.434  11.720 -0.8400 -1.2168  0.6676
  642MOL0     C86553  10.672  10.437  11.746 -1.0025 -0.1423  0.3503
  642MOL0     C86554  10.697  10.571  11.768 -0.3861  0.8206  0.9976
  642MOL0     C86555  10.827  10.624  11.816  0.1008 -0.3028  0.6093
  642MOL0     C86556  10.824  10.695  11.953 -1.0857 -0.2020 -0.5632
  642MOL0     C86557  10.923  10.813  11.968 -0.3013  0.2800  0.7133
  642MOL0     C86558  11.078  10.788  11.942  0.2950 -0.1850  0.6156
  642MOL0     O86559  11.123  10.716  12.057  0.0450  0.3065  0.1175
  642MOL0     C86560  11.254  10.677  12.058 -0.2590 -0.7634 -0.4561
  642MOL0     C86561  11.284  10.581  12.160  0.0011  0.2267  0.2260
  642MOL0     C86562  11.409  10.554  12.204  0.3164 -0.4992 -0.1901
  642MOL0     C86563  11.515  10.621  12.137 -0.8919 -0.2843  0.1752
  642MOL0     C86564  11.655  10.602  12.178  0.2528  0.4897 -0.1588
  642MOL0     O86565  11.752  10.656  12.102  0.1930 -0.5979  0.0044
  642MOL0     C86566  11.879  10.678  12.156  0.6639 -0.0568  0.3454
  642MOL0     C86567  11.973  10.702  12.054  0.6088 -0.9220 -0.9973
  642MOL0     C86568  12.108  10.720  12.081  0.2825 -0.5209 -0.2035
  642MOL0     C86569  12.158  10.722  12.206 -0.7208 -0.6586 -0.2497
  642MOL0     O86570  12.284  10.752  12.245  0.2401  0.1244 -0.0929
  642MOL0     C86571  12.378  10.785  12.141  0.1104  0.0800 -0.0144
  642MOL0     C86572  12.518  10.830  12.204 -0.1992  0.1746 -0.3708
  642MOL0     C86573  12.585  10.728  12.295  0.1493 -0.0820 -0.2894
  642MOL0     C86574  12.737  10.739  12.299 -0.1332 -0.2009  0.7881
  642MOL0     C86575  12.797  10.631  12.392 -0.0480  0.1474  0.2435
  642MOL0     C86576  12.951  10.631  12.402 -0.1417  0.4529 -0.1083
  642MOL0     C86577  13.009  10.776  12.430 -0.1771  0.2017 -0.5574
  642MOL0     C86578  13.158  10.770  12.450  0.0950 -0.1445  0.0124
  642MOL0    Cl86579  13.228  10.926  12.519 -0.0465  0.0219 -0.1183
  642MOL0     C86580  12.071  10.687  12.312  0.6412 -0.3849  0.4263
  642MOL0     C86581  11.924  10.674  12.289 -0.0006 -0.7937  0.0981
  642MOL0     O86582  11.678  10.533  12.279 -1.2142  0.1616  0.2931
  642MOL0     C86583  11.491  10.713  12.029  0.0073  0.7930 -0.2161
  642MOL0     C86584  11.361  10.733  11.991  0.4402 -0.0941  0.0918
  642MOL0     N86585  10.578  10.642  11.750  0.3747 -0.0784  0.0210
  642MOL0     N86586  10.481  10.561  11.724  0.4246 -0.2807  0.1252
  642MOL0     C86587   9.485   9.858  11.410  0.0826 -0.1201  0.1164
  642MOL0     C86588   9.447   9.767  11.316 -0.5475  0.9551  0.4552
  642MOL0     C86589   9.408   9.466  10.990 -0.0816 -0.5551  0.3038
  642MOL0     C86590   9.280   9.432  11.001 -0.0965 -0.2618 -0.9093
  642MOL0     C86591   9.216   9.369  10.901  0.2957  0.8232 -0.3689
  642MOL0     C86592   9.289   9.328  10.785 -0.0649  0.8124  0.1807
  642MOL0     O86593   9.243   9.282  10.663  0.1924  0.2306 -0.2204
  642MOL0     C86594   9.113   9.232  10.647  0.5147 -0.0965 -0.2936
  642MOL0     C86595   9.014   9.345  10.610 -0.7785 -0.6580 -0.2211
  642MOL0     C86596   9.066   9.420  10.487 -1.0593 -0.0464  0.5949
  642MOL0     C86597   9.065   9.330  10.361 -0.6633  0.2047  1.5004
  642MOL0     C86598   9.092   9.421  10.238  0.0479  0.1763 -0.4948
  642MOL0     C86599   9.121   9.510  10.164 -0.5891 -0.3788 -0.1892
  642MOL0     C86600   9.427   9.360  10.774  0.9006  0.2197  0.4328
  642MOL0     C86601   9.491   9.430  10.880  0.3383 -0.2177  0.0755
  642MOL0     C86602   9.635   9.466  10.869 -0.3652  0.3931 -0.0718
  642MOL0     H86603   9.680   9.811  11.090  0.1976  0.5128  0.3184
  642MOL0     H86604   9.760   9.991  11.258  0.0305 -0.8025  0.0857
  642MOL0     H86605   9.779  10.138  11.394  1.5332 -2.0162 -0.8264
  642MOL0     H86606   9.729  10.214  11.530 -0.1319 -0.6453  0.2269
  642MOL0     H86607   9.875   9.951  11.539  0.1939  1.4250 -1.9757
  642MOL0     H86608   9.799  10.038  11.685  4.5564 -2.5933  1.8419
  642MOL0     H86609   9.922  10.228  11.660 -0.2094 -1.6213  4.8563
  642MOL0     H86610  10.010  10.162  11.522  1.6168 -0.5021  1.6769
  642MOL0     H86611  10.021  10.066  11.814  0.4391 -1.4873  0.5772
  642MOL0     H86612  10.109   9.998  11.672  0.1058  0.0837  0.5163
  642MOL0     H86613  10.210  10.186  11.617 -0.2349 -2.1431  0.8576
  642MOL0     H86614  10.135  10.300  11.723  1.0823  0.5434 -1.8174
  642MOL0     H86615  10.240  10.126  11.907 -0.7065  1.4937  0.0522
  642MOL0     H86616  10.362  10.089  11.777  0.8465 -0.7463  0.5530
  642MOL0     H86617  10.437  10.288  11.915 -2.2050 -0.9349  1.3399
  642MOL0     H86618  10.304  10.373  11.845 -3.4709 -1.5849 -2.1628
  642MOL0     H86619  10.517  10.225  11.674  3.0071  0.9502 -1.3911
  642MOL0     H86620  10.383  10.335  11.625 -1.5240 -1.0132  1.1518
  642MOL0     H86621  10.734  10.350  11.761  0.7965  0.4946 -2.5033
  642MOL0     H86622  10.895  10.538  11.823  1.1107  0.5504  1.5038
  642MOL0     H86623  10.872  10.686  11.738 -1.3673 -1.2960 -1.0993
  642MOL0     H86624  10.725  10.740  11.964 -2.1710 -1.9431 -2.3901
  642MOL0     H86625  10.836  10.625  12.035 -3.1946  2.1907  1.9774
  642MOL0     H86626  10.909  10.852  12.069 -0.3659 -2.2113  1.7512
  642MOL0     H86627  10.889  10.892  11.901  0.9928  0.5123  0.3001
  642MOL0     H86628  11.132  10.880  11.916 -1.4571  0.7772  0.2401
  642MOL0     H86629  11.099  10.729  11.853 -2.1296  0.0970 -0.2243
  642MOL0     H86630  11.197  10.543  12.213  1.5838 -1.2305  1.9487
  642MOL0     H86631  11.419  10.483  12.286  0.2142 -0.4177 -0.1072
  642MOL0     H86632  11.936  10.690  11.953 -1.8548 -1.3912 -0.1195
  642MOL0     H86633  12.172  10.727  11.993  1.1919  0.7764  0.5275
  642MOL0     H86634  12.402  10.699  12.076  0.2815 -0.3937  0.6659
  642MOL0     H86635  12.337  10.862  12.075 -2.8365  0.6680  2.3109
  642MOL0     H86636  12.582  10.844  12.116 -0.1899  0.4348 -0.3240
  642MOL0     H86637  12.497  10.927  12.250 -0.3086  1.3371 -2.6729
  642MOL0     H86638  12.551  10.747  12.397  1.0896  0.1191 -0.0087
  642MOL0     H86639  12.561  10.627  12.260  0.9663  0.3466 -2.1827
  642MOL0     H86640  12.764  10.836  12.342  1.9061 -0.9600  1.3002
  642MOL0     H86641  12.774  10.721  12.198 -0.3008 -1.0230  0.8673
  642MOL0     H86642  12.756  10.534  12.363 -3.6352  1.4626  0.3567
  642MOL0     H86643  12.750  10.647  12.489 -0.1826  0.1370  0.1808
  642MOL0     H86644  12.973  10.560  12.482  0.6142  1.1171  0.2891
  642MOL0     H86645  12.972  10.597  12.300 -1.3696  0.0558 -0.2480
  642MOL0     H86646  12.952  10.808  12.518 -1.3553 -4.1437  0.5134
  642MOL0     H86647  12.990  10.842  12.345  1.4125  3.4172  1.3616
  642MOL0     H86648  13.187  10.687  12.514  3.9718 -1.1466 -2.6856
  642MOL0     H86649  13.205  10.747  12.354 -0.8060 -0.4215 -0.3769
  642MOL0     H86650  12.105  10.672  12.413  0.3959  2.3653  0.9900
  642MOL0     H86651  11.856  10.664  12.373  1.6561  3.0699  2.1600
  642MOL0     H86652  11.577  10.748  11.973  0.4287  2.2349  1.2561
  642MOL0     H86653  11.338  10.805  11.913  0.5191  0.9152  0.9768
  642MOL0     H86654   9.412   9.863  11.490 -0.7879 -1.5388 -0.5364
  642MOL0     H86655   9.359   9.704  11.325 -0.7307  1.3367  1.4729
  642MOL0     H86656   9.223   9.463  11.088  0.9211  0.7668 -0.5731
  642MOL0     H86657   9.116   9.329  10.906  1.0630 -1.0831  0.5890
  642MOL0     H86658   9.086   9.184  10.741  1.2401 -0.2351 -0.1507
  642MOL0     H86659   9.114   9.151  10.573 -1.1271 -0.6490  0.2537
  642MOL0     H86660   9.008   9.430  10.679 -1.0482  0.3901 -1.4831
  642MOL0     H86661   8.920   9.294  10.589 -0.2240 -1.4999 -0.6998
  642MOL0     H86662   9.162   9.464  10.514 -0.4821 -0.8373 -0.1039
  642MOL0     H86663   8.988   9.493  10.464 -3.5698 -2.9476 -0.9270
  642MOL0     H86664   9.150   9.262  10.351 -1.2452 -0.4397  0.9200
  642MOL0     H86665   8.978   9.266  10.346 -1.0019  1.2805 -1.7401
  642MOL0     H86666   9.155   9.584  10.094 -0.5101 -0.6022 -0.3908
  642MOL0     H86667   9.491   9.330  10.692 -2.4362 -2.0343 -1.5908
  642MOL0     H86668   9.651   9.567  10.832  1.1807 -1.2755 -4.5408
  642MOL0     H86669   9.684   9.456  10.967  0.6178  1.1706 -0.4703
  642MOL0     H86670   9.687   9.401  10.799  1.5897  0.7542  0.9604
  643MOL0     O86671  11.242   7.045   1.443  0.1229 -0.4477  0.4998
  643MOL0     C86672  11.239   7.094   1.557  0.6791 -0.0483  0.0050
  643MOL0     O86673  11.344   7.146   1.637  0.3219  0.1428  0.3254
  643MOL0     C86674  11.471   7.140   1.588  1.2947  0.4632 -0.4297
  643MOL0     C86675  11.515   7.098   1.459 -0.4595 -0.2790  0.4178
  643MOL0     C86676  11.654   7.098   1.416  1.2187 -0.1631  0.3155
  643MOL0     C86677  11.752   7.136   1.507  0.1940  0.8248  0.5798
  643MOL0     O86678  11.880   7.129   1.458  0.2925  0.1385 -0.2915
  643MOL0     C86679  11.993   7.143   1.533 -0.7967 -0.1466 -0.0876
  643MOL0     C86680  12.121   7.084   1.476 -1.1159  0.8224  0.3094
  643MOL0     C86681  12.152   7.107   1.325 -0.2324 -0.2152 -0.6215
  643MOL0     C86682  12.142   7.252   1.290  0.0255  0.1773  0.2700
  643MOL0     C86683  12.212   7.270   1.151 -0.3080 -0.8368 -0.7625
  643MOL0     C86684  12.357   7.242   1.150  0.4902  0.1625  0.0078
  643MOL0     C86685  12.421   7.280   1.015 -1.0172  0.6821 -0.3408
  643MOL0     C86686  12.376   7.219   0.880 -0.2807  0.1282 -0.7095
  643MOL0     N86687  12.381   7.073   0.898  0.4537  0.4778 -0.4980
  643MOL0     C86688  12.273   6.991   0.915  0.4343  0.2781  0.1799
  643MOL0     C86689  12.319   6.868   0.866  0.3747  0.5607  0.0204
  643MOL0     C86690  12.239   6.741   0.869 -0.3288 -0.5618 -0.3423
  643MOL0     C86691  12.259   6.662   0.744  0.5521 -0.5047  0.2377
  643MOL0     C86692  12.192   6.518   0.746  0.5892  0.7417  0.1191
  643MOL0     C86693  12.039   6.541   0.730 -1.2864 -0.3895  0.3566
  643MOL0     O86694  11.966   6.601   0.837 -0.0723  0.3843 -0.3779
  643MOL0     C86695  11.823   6.614   0.833 -0.1386 -0.0420  0.3573
  643MOL0     C86696  11.747   6.640   0.950 -0.4410 -0.8410 -0.8327
  643MOL0     C86697  11.610   6.661   0.953 -0.5174  0.0150  0.1223
  643MOL0     C86698  11.531   6.627   0.842 -0.2079  0.1600 -0.5781
  643MOL0     C86699  11.384   6.610   0.858 -0.3750 -0.7782  0.6283
  643MOL0     O86700  11.328   6.595   0.734 -0.3317 -0.7017  0.0097
  643MOL0     C86701  11.194   6.598   0.724  0.0417 -0.1834  0.9001
  643MOL0     C86702  11.134   6.541   0.611  0.6085 -0.5165  0.1673
  643MOL0     C86703  10.995   6.542   0.592  0.3295  0.2239  0.8247
  643MOL0     C86704  10.913   6.600   0.688  0.4478 -0.9341  0.0497
  643MOL0     O86705  10.775   6.588   0.663  0.1427 -0.1874  0.6114
  643MOL0     C86706  10.681   6.669   0.736  0.5450  0.0687 -0.0086
  643MOL0     C86707  10.553   6.646   0.657 -0.6281 -0.6403 -0.3477
  643MOL0     C86708  10.435   6.728   0.721 -0.4724 -0.0338  0.0469
  643MOL0     C86709  10.299   6.688   0.652  0.4403  1.3300  0.1523
  643MOL0     C86710  10.181   6.781   0.675  0.9378 -0.5859 -0.2354
  643MOL0     C86711  10.044   6.761   0.608 -0.2834  0.2395  0.4063
  643MOL0     C86712   9.934   6.849   0.676  0.4036  0.1901  0.4684
  643MOL0     C86713   9.789   6.817   0.619 -1.1690 -0.1043 -0.6558
  643MOL0    Cl86714   9.781   6.824   0.439  0.4219  0.1411  0.4112
  643MOL0     C86715  10.973   6.667   0.799 -0.3341  0.3546 -0.4892
  643MOL0     C86716  11.114   6.668   0.813 -0.1597 -0.7399  0.1235
  643MOL0     O86717  11.329   6.598   0.967  0.3127  0.0134 -0.3178
  643MOL0     C86718  11.601   6.601   0.718  0.6592 -0.3432 -0.1416
  643MOL0     C86719  11.745   6.596   0.714 -0.6826  0.0002 -0.5608
  643MOL0     N86720  12.457   6.885   0.828 -0.3226 -0.0379 -0.4274
  643MOL0     N86721  12.493   7.006   0.851  0.7068 -0.8186 -0.3067
  643MOL0     C86722  11.706   7.184   1.633 -0.6690  0.6304 -0.5062
  643MOL0     C86723  11.571   7.181   1.672  0.0051 -0.8795  0.1325
  643MOL0     C86724  11.110   7.111   1.621 -0.4426  0.0796  0.2285
  643MOL0     C86725  11.104   7.133   1.764  0.4056  0.1447  0.2482
  643MOL0     C86726  10.988   7.156   1.836  0.0071  0.0503  0.8812
  643MOL0     C86727  10.867   7.159   1.775 -0.1387 -0.5805 -0.1872
  643MOL0     O86728  10.758   7.175   1.858  0.5562  0.5538  0.4128
  643MOL0     C86729  10.682   7.297   1.850  0.2754  0.4247 -0.3773
  643MOL0     C86730  10.578   7.301   1.960  0.0637 -0.1781 -0.3986
  643MOL0     C86731  10.517   7.439   1.970 -0.4278  0.0836  0.4000
  643MOL0     C86732  10.433   7.456   2.103 -0.3962  0.2751  0.3024
  643MOL0     C86733  10.311   7.370   2.107  1.0289 -0.6472  0.3139
  643MOL0     C86734  10.208   7.306   2.120  0.7995  0.0905 -0.4952
  643MOL0     C86735  10.871   7.134   1.639  0.3492  0.2496 -0.2812
  643MOL0     C86736  10.981   7.120   1.559 -0.0140  0.2705  0.3953
  643MOL0     C86737  10.955   7.116   1.410  0.3008  1.1392  0.2602
  643MOL0     H86738  11.454   7.065   1.375 -0.2310 -0.9831  0.5238
  643MOL0     H86739  11.681   7.080   1.312 -0.1342  3.4407 -0.8186
  643MOL0     H86740  12.017   7.250   1.541 -2.9386  0.6618 -2.8970
  643MOL0     H86741  11.970   7.098   1.630  2.1432  1.8571  1.7001
  643MOL0     H86742  12.120   6.975   1.488  0.1717  0.8971  1.3558
  643MOL0     H86743  12.209   7.112   1.535  0.5641 -0.2066 -1.5821
  643MOL0     H86744  12.086   7.050   1.260 -0.7470 -0.5093  0.1420
  643MOL0     H86745  12.252   7.063   1.315 -0.0374  0.1366 -0.2815
  643MOL0     H86746  12.035   7.276   1.289 -0.3794 -1.5342  0.6644
  643MOL0     H86747  12.181   7.321   1.366 -0.1991  0.9185 -0.2781
  643MOL0     H86748  12.159   7.215   1.073 -0.6052 -0.4108 -0.8630
  643MOL0     H86749  12.200   7.378   1.139  0.0345 -0.0365  4.1716
  643MOL0     H86750  12.396   7.297   1.237  2.5842 -2.4636  0.8528
  643MOL0     H86751  12.386   7.139   1.170 -0.2902 -0.2422 -0.9279
  643MOL0     H86752  12.530   7.270   1.016 -1.0085  0.5018 -1.5490
  643MOL0     H86753  12.399   7.387   1.006  1.3111  1.0804 -2.5051
  643MOL0     H86754  12.275   7.250   0.855 -1.7719 -2.7134  1.2705
  643MOL0     H86755  12.443   7.253   0.800 -0.4574  0.4681 -0.7147
  643MOL0     H86756  12.173   7.018   0.948  0.7596 -0.2436  1.6485
  643MOL0     H86757  12.255   6.679   0.958  0.5699 -1.9690 -1.4226
  643MOL0     H86758  12.133   6.768   0.863 -1.0698 -3.2164 -0.9475
  643MOL0     H86759  12.226   6.714   0.654 -1.1587 -2.4127 -0.3168
  643MOL0     H86760  12.366   6.644   0.733  0.7285 -1.3162  2.6246
  643MOL0     H86761  12.210   6.481   0.847 -0.5705  2.1242  0.8778
  643MOL0     H86762  12.227   6.447   0.671  2.0693  1.9598 -0.3978
  643MOL0     H86763  11.983   6.447   0.719  0.2649 -1.3105 -0.1033
  643MOL0     H86764  12.022   6.597   0.638  2.1564 -1.9091 -1.3890
  643MOL0     H86765  11.808   6.656   1.038 -0.9227 -2.3956 -0.1943
  643MOL0     H86766  11.563   6.700   1.042 -1.9802  1.4079 -1.1854
  643MOL0     H86767  11.195   6.488   0.539  0.4367 -0.7835  0.2161
  643MOL0     H86768  10.957   6.485   0.508 -1.6504 -2.5941  3.3893
  643MOL0     H86769  10.661   6.631   0.836 -0.7177 -1.2682 -0.7368
  643MOL0     H86770  10.727   6.768   0.732  1.7628 -0.5013 -0.9783
  643MOL0     H86771  10.578   6.672   0.554  1.9577  3.5606  1.1237
  643MOL0     H86772  10.520   6.542   0.665 -0.5358 -0.6305  0.2566
  643MOL0     H86773  10.426   6.711   0.829  0.5767  2.4847  0.5885
  643MOL0     H86774  10.447   6.835   0.702 -3.0278  0.2428 -0.3825
  643MOL0     H86775  10.270   6.587   0.682  2.5560  0.7923  0.5682
  643MOL0     H86776  10.314   6.693   0.544 -1.6476 -1.5028 -0.3756
  643MOL0     H86777  10.218   6.878   0.641  0.0500  0.4685  1.6296
  643MOL0     H86778  10.163   6.790   0.783  0.4159  1.8825 -0.4835
  643MOL0     H86779  10.039   6.781   0.501 -1.1143 -2.0019 -0.0168
  643MOL0     H86780  10.014   6.658   0.629 -5.6857  1.1216 -1.4116
  643MOL0     H86781   9.953   6.956   0.662  0.0311  0.3771  1.3340
  643MOL0     H86782   9.935   6.833   0.784 -2.8631  3.3187  1.1503
  643MOL0     H86783   9.765   6.721   0.665 -0.3468  0.4605  1.0904
  643MOL0     H86784   9.726   6.900   0.650  0.3326  0.0186  2.5089
  643MOL0     H86785  10.899   6.709   0.866 -0.6024  0.0545 -0.5962
  643MOL0     H86786  11.139   6.730   0.899  2.1489 -1.4746  0.0260
  643MOL0     H86787  11.551   6.566   0.628  0.3713 -1.1138  0.3058
  643MOL0     H86788  11.783   6.571   0.615 -3.4024  0.7312 -1.8787
  643MOL0     H86789  11.782   7.219   1.703 -1.3128 -1.0081  1.1295
  643MOL0     H86790  11.540   7.220   1.769 -0.4579  1.0759 -0.7401
  643MOL0     H86791  11.192   7.132   1.828  0.5180  2.3287  0.1822
  643MOL0     H86792  10.977   7.155   1.944 -0.9204  1.2873  0.8305
  643MOL0     H86793  10.624   7.308   1.758  0.0197  1.3900 -0.1223
  643MOL0     H86794  10.749   7.384   1.857 -1.5074  1.9019 -0.7703
  643MOL0     H86795  10.631   7.283   2.054 -0.7220 -0.3969  0.0103
  643MOL0     H86796  10.504   7.220   1.954 -0.3792  0.0223  1.7737
  643MOL0     H86797  10.453   7.465   1.885 -0.3969  1.0686  0.6632
  643MOL0     H86798  10.601   7.509   1.964 -0.0138 -0.5409 -2.7455
  643MOL0     H86799  10.501   7.422   2.181  2.2478 -2.4734 -2.8963
  643MOL0     H86800  10.393   7.557   2.117  1.2256  0.9758  0.0601
  643MOL0     H86801  10.121   7.243   2.130  1.7828 -1.0902  1.0433
  643MOL0     H86802  10.777   7.110   1.590 -0.1865 -0.0041  0.8126
  643MOL0     H86803  10.931   7.015   1.374  1.1665  0.7767  0.6783
  643MOL0     H86804  10.867   7.179   1.392 -1.2074 -0.7059  0.7503
  643MOL0     H86805  11.030   7.162   1.346  0.4123  0.8469  0.1792
  644MOL0     O86806  10.275   9.706   7.906  0.2303 -0.0825  0.2429
  644MOL0     C86807  10.287   9.751   7.790 -0.2166  0.1812 -0.1147
  644MOL0     O86808  10.183   9.802   7.728 -0.9160 -0.3336  0.1112
  644MOL0     C86809  10.052   9.778   7.778 -0.1669 -0.3717  0.9345
  644MOL0     C86810  10.010   9.658   7.845 -0.0203  0.3745 -0.3369
  644MOL0     C86811   9.875   9.643   7.880  0.4074  0.5732  0.4716
  644MOL0     C86812   9.782   9.744   7.852 -0.2828 -0.3541  0.5463
  644MOL0     O86813   9.650   9.747   7.885  0.1826  0.0714  0.3366
  644MOL0     C86814   9.581   9.624   7.891  0.2291 -0.8356  0.2771
  644MOL0     C86815   9.548   9.567   8.031  0.8737 -0.4754  0.5381
  644MOL0     C86816   9.472   9.674   8.112  0.6874  0.1548 -0.3962
  644MOL0     C86817   9.434   9.625   8.255 -0.3592 -0.3292  0.5724
  644MOL0     C86818   9.434   9.739   8.356  0.5742  0.7916  1.0071
  644MOL0     C86819   9.394   9.688   8.494 -0.4092 -0.1422  0.0640
  644MOL0     C86820   9.431   9.799   8.597  1.8385 -0.3765  0.0105
  644MOL0     C86821   9.538   9.770   8.698  0.0233  0.6454 -0.8341
  644MOL0     N86822   9.667   9.735   8.632  0.5749  0.3510 -0.7520
  644MOL0     C86823   9.745   9.820   8.560 -0.2736 -1.1912  0.2202
  644MOL0     C86824   9.850   9.745   8.512  0.6930  0.1063  0.0473
  644MOL0     C86825   9.959   9.786   8.413 -0.8497  0.6236 -0.0502
  644MOL0     C86826   9.952   9.721   8.272 -1.0549  0.0250 -0.5592
  644MOL0     C86827  10.080   9.742   8.197  0.3793  0.1399 -0.0525
  644MOL0     C86828  10.201   9.658   8.226 -0.0637 -0.3127  0.2815
  644MOL0     O86829  10.268   9.698   8.347 -0.4393  0.4157 -0.4023
  644MOL0     C86830  10.381   9.638   8.392 -0.3749  0.2478  0.6067
  644MOL0     C86831  10.430   9.673   8.517 -0.1123  0.0704  0.4448
  644MOL0     C86832  10.547   9.618   8.568 -0.3385 -0.1856 -0.1164
  644MOL0     C86833  10.628   9.529   8.505 -0.5624 -0.5663 -0.0674
  644MOL0     C86834  10.745   9.472   8.571 -0.6785  0.2315 -0.3661
  644MOL0     O86835  10.831   9.405   8.485 -0.1228  0.4471 -0.4092
  644MOL0     C86836  10.946   9.349   8.524  0.0108  0.0039  0.0994
  644MOL0     C86837  10.951   9.246   8.620 -0.0880  0.7416 -0.2832
  644MOL0     C86838  11.081   9.198   8.666 -0.7369 -1.5330  0.1950
  644MOL0     C86839  11.203   9.250   8.617  1.8174  0.5112  0.4275
  644MOL0     O86840  11.331   9.209   8.654  0.4779  0.5039 -0.1321
  644MOL0     C86841  11.350   9.082   8.731 -0.0053 -1.7681  0.1001
  644MOL0     C86842  11.497   9.046   8.752  0.1918 -0.2169  0.9123
  644MOL0     C86843  11.519   8.939   8.859  1.8390 -0.5421  0.2443
  644MOL0     C86844  11.655   8.957   8.932  0.5983  0.5348  0.1884
  644MOL0     C86845  11.696   8.831   9.010  0.4170 -0.7301  0.2260
  644MOL0     C86846  11.725   8.710   8.922 -0.1103 -0.1091  0.5067
  644MOL0     C86847  11.798   8.596   8.998 -0.1503  0.1653  0.0277
  644MOL0     C86848  11.833   8.481   8.899  0.0018 -0.2557 -0.6196
  644MOL0    Cl86849  11.685   8.379   8.873 -0.5529 -0.0933  0.1631
  644MOL0     C86850  11.193   9.344   8.515 -0.4208 -0.4508  0.2656
  644MOL0     C86851  11.069   9.393   8.472 -0.0818 -0.0693 -0.0196
  644MOL0     O86852  10.753   9.480   8.697 -0.0999  0.2236 -1.1235
  644MOL0     C86853  10.576   9.489   8.378  0.0901  0.0539  0.5025
  644MOL0     C86854  10.451   9.532   8.325 -0.6097  0.2060 -0.2184
  644MOL0     N86855   9.825   9.616   8.560  0.2626  0.9982  0.9870
  644MOL0     N86856   9.718   9.606   8.630 -0.7488 -0.5169 -0.0206
  644MOL0     C86857   9.829   9.862   7.789  1.0488  0.1092  0.4158
  644MOL0     C86858   9.959   9.882   7.759 -0.4220 -0.1714 -0.0370
  644MOL0     C86859  10.424   9.754   7.730 -0.0007 -0.3462 -0.3739
  644MOL0     C86860  10.538   9.706   7.799  0.3874 -0.2020  0.5924
  644MOL0     C86861  10.667   9.701   7.739  0.5941 -0.4832 -0.7744
  644MOL0     C86862  10.682   9.759   7.619  0.2953 -0.2108 -0.1219
  644MOL0     O86863  10.799   9.745   7.548  0.3412 -0.2442  0.4922
  644MOL0     C86864  10.906   9.663   7.587  0.0463  0.6113  0.1264
  644MOL0     C86865  10.865   9.516   7.553 -0.2777  0.0415 -0.1742
  644MOL0     C86866  10.933   9.451   7.433  0.2772  0.9230 -0.0175
  644MOL0     C86867  11.065   9.380   7.457 -0.4463 -0.3685 -0.1660
  644MOL0     C86868  11.172   9.485   7.471  0.3000  0.1296  0.3568
  644MOL0     C86869  11.245   9.580   7.471 -0.2660  0.3356 -0.1200
  644MOL0     C86870  10.576   9.818   7.549 -0.2202 -0.3824  0.4447
  644MOL0     C86871  10.446   9.814   7.598  0.4055  0.3229  0.0815
  644MOL0     C86872  10.340   9.870   7.501  0.6587 -0.1294  0.2996
  644MOL0     H86873  10.083   9.580   7.863 -0.1827  0.1787 -0.5226
  644MOL0     H86874   9.848   9.550   7.929  2.8630  0.8691  2.6115
  644MOL0     H86875   9.485   9.640   7.841 -1.0789 -1.7883  2.3418
  644MOL0     H86876   9.633   9.549   7.830 -1.5143 -1.7796 -0.1128
  644MOL0     H86877   9.643   9.551   8.083  0.5051  0.0414  1.3981
  644MOL0     H86878   9.491   9.475   8.016 -1.7839  1.0674  0.4972
  644MOL0     H86879   9.382   9.702   8.057  0.3205 -2.8791 -1.5470
  644MOL0     H86880   9.536   9.759   8.136  1.1646  0.4198 -2.4752
  644MOL0     H86881   9.332   9.588   8.248 -0.5698  0.2759  0.3959
  644MOL0     H86882   9.504   9.550   8.293  1.8714  0.5070 -1.5800
  644MOL0     H86883   9.528   9.794   8.353  0.0480  1.6979 -1.1268
  644MOL0     H86884   9.357   9.813   8.329 -0.6326 -0.5441  0.6970
  644MOL0     H86885   9.288   9.664   8.502 -0.4292  0.1532  0.7815
  644MOL0     H86886   9.456   9.599   8.508 -1.0323 -0.7910 -1.1132
  644MOL0     H86887   9.338   9.821   8.650 -0.5256  0.9093 -4.2266
  644MOL0     H86888   9.452   9.895   8.547  1.1194 -0.6600 -0.8701
  644MOL0     H86889   9.564   9.860   8.756 -0.0270  1.1564 -1.5907
  644MOL0     H86890   9.501   9.689   8.762 -2.3918  1.3865 -1.1766
  644MOL0     H86891   9.719   9.924   8.546  1.2015 -0.3358  3.1287
  644MOL0     H86892   9.963   9.895   8.402 -0.9254  0.5151 -1.3007
  644MOL0     H86893  10.054   9.762   8.461 -2.8793 -1.3699  3.2848
  644MOL0     H86894   9.927   9.615   8.273 -0.7922 -0.0747  2.2187
  644MOL0     H86895   9.881   9.772   8.206 -2.6893  0.1509  1.2033
  644MOL0     H86896  10.100   9.849   8.207 -1.8855  0.4917  1.7483
  644MOL0     H86897  10.066   9.727   8.090  0.8807 -1.1942  0.0480
  644MOL0     H86898  10.265   9.684   8.141  0.9804  0.8101  1.3697
  644MOL0     H86899  10.162   9.556   8.227 -2.7938  0.6184 -0.1706
  644MOL0     H86900  10.375   9.744   8.578  0.9506  1.1219  0.2002
  644MOL0     H86901  10.581   9.640   8.669 -0.4582 -0.3446 -0.0395
  644MOL0     H86902  10.860   9.221   8.674 -0.0581  3.1294  1.0095
  644MOL0     H86903  11.089   9.118   8.739  0.1008 -1.4987  0.1456
  644MOL0     H86904  11.307   9.104   8.829 -0.5721  0.4196 -0.5910
  644MOL0     H86905  11.285   9.004   8.691  0.3778 -1.5407 -0.9892
  644MOL0     H86906  11.552   9.034   8.659  2.2300  3.2567  1.4699
  644MOL0     H86907  11.527   9.142   8.797 -2.2939  0.3997  1.3932
  644MOL0     H86908  11.436   8.924   8.929 -2.6140  2.6798 -3.6796
  644MOL0     H86909  11.522   8.845   8.802 -0.6651 -0.3909 -0.2712
  644MOL0     H86910  11.644   9.039   9.004  0.6423  2.4154 -1.8133
  644MOL0     H86911  11.733   8.987   8.861 -2.4704  0.5094 -3.5522
  644MOL0     H86912  11.619   8.800   9.082  1.6357 -0.8916  1.5005
  644MOL0     H86913  11.782   8.853   9.074 -0.1221 -2.3457  1.5679
  644MOL0     H86914  11.630   8.663   8.898  0.1268 -1.8790  2.6172
  644MOL0     H86915  11.776   8.728   8.827 -0.1688 -0.2046  0.4583
  644MOL0     H86916  11.730   8.569   9.079 -2.1042 -1.6025 -2.0877
  644MOL0     H86917  11.890   8.629   9.047 -0.2467 -1.3448  1.2978
  644MOL0     H86918  11.876   8.518   8.805 -0.1799 -0.2144 -0.6870
  644MOL0     H86919  11.908   8.416   8.945 -0.0191 -0.5805 -1.0277
  644MOL0     H86920  11.278   9.396   8.473 -0.1664  0.5841  1.9697
  644MOL0     H86921  11.067   9.466   8.393  0.4814 -0.0495 -0.0207
  644MOL0     H86922  10.624   9.416   8.313  0.2248  0.5891  0.0020
  644MOL0     H86923  10.409   9.497   8.231 -0.5788  2.9166 -1.3120
  644MOL0     H86924   9.761   9.946   7.783 -0.1126 -0.7990  0.6110
  644MOL0     H86925   9.984   9.979   7.718 -2.0757  0.3653  0.1509
  644MOL0     H86926  10.525   9.669   7.901  3.2848  0.3125  1.2277
  644MOL0     H86927  10.751   9.661   7.795  0.0934 -0.1686  0.2101
  644MOL0     H86928  10.934   9.686   7.690  0.7766  0.8390 -0.1220
  644MOL0     H86929  10.991   9.676   7.520 -1.6642 -1.6187 -2.6557
  644MOL0     H86930  10.758   9.521   7.528 -0.7363  2.0075  1.8465
  644MOL0     H86931  10.865   9.452   7.642 -0.4917 -3.3530 -2.3955
  644MOL0     H86932  10.936   9.531   7.358 -2.1814  1.5444  0.4481
  644MOL0     H86933  10.866   9.376   7.390  0.9766 -1.0278  2.1342
  644MOL0     H86934  11.049   9.321   7.547 -0.5592  2.8776  2.1023
  644MOL0     H86935  11.084   9.321   7.367 -0.4766 -1.2606  0.4105
  644MOL0     H86936  11.316   9.659   7.477 -0.8307  0.9362 -1.1640
  644MOL0     H86937  10.592   9.867   7.454 -3.4497 -1.4259 -0.7826
  644MOL0     H86938  10.387   9.918   7.414 -2.4599  3.4819  0.3770
  644MOL0     H86939  10.271   9.793   7.463  0.8659 -0.3171  0.2977
  644MOL0     H86940  10.274   9.938   7.554  1.6200  0.1421  1.1867
  645MOL0     O86941   3.911   9.652   6.819 -0.1334 -0.3796  0.3825
  645MOL0     C86942   3.897   9.735   6.912  0.0676  0.2083 -0.4786
  645MOL0     O86943   3.998   9.781   6.997  0.0515 -0.2814  0.1621
  645MOL0     C86944   4.122   9.731   6.966  1.1432 -0.7988 -0.6995
  645MOL0     C86945   4.175   9.612   7.021 -0.7039  0.3608 -0.1821
  645MOL0     C86946   4.306   9.580   6.978  0.6491  0.4372 -0.1216
  645MOL0     C86947   4.374   9.667   6.893  0.1218  0.6278 -0.1000
  645MOL0     O86948   4.498   9.632   6.847 -0.8374 -0.2823  0.5484
  645MOL0     C86949   4.527   9.659   6.718 -0.0845  0.7754  1.0243
  645MOL0     C86950   4.629   9.546   6.679 -0.5775 -0.6799 -0.0084
  645MOL0     C86951   4.761   9.562   6.755  0.5064 -0.0458 -0.0670
  645MOL0     C86952   4.883   9.484   6.701  0.1659 -0.1241 -0.0795
  645MOL0     C86953   5.021   9.498   6.786  1.4179  0.0444  0.5949
  645MOL0     C86954   5.140   9.416   6.741  0.4094  1.1482 -0.0353
  645MOL0     C86955   5.262   9.455   6.827  0.1966 -0.1705 -0.4944
  645MOL0     C86956   5.369   9.346   6.798 -0.2992  0.2284  0.9526
  645MOL0     N86957   5.501   9.360   6.854 -0.5527  0.1250  0.0543
  645MOL0     C86958   5.617   9.308   6.804 -0.2333 -0.2639 -0.2324
  645MOL0     C86959   5.705   9.331   6.906  0.2277  0.5650  0.2469
  645MOL0     C86960   5.859   9.316   6.910 -0.1693  0.4520  0.3637
  645MOL0     C86961   5.930   9.422   7.002 -0.1466  0.0246 -0.1396
  645MOL0     C86962   6.069   9.454   6.958  0.4812  0.6679 -0.3761
  645MOL0     C86963   6.110   9.592   6.983 -0.6461 -0.0609  0.2312
  645MOL0     O86964   6.252   9.598   6.966 -0.6943  0.6410  0.2711
  645MOL0     C86965   6.321   9.687   7.049 -1.3276  0.2545  0.3814
  645MOL0     C86966   6.305   9.825   7.034 -0.1418  0.0133  0.2703
  645MOL0     C86967   6.386   9.918   7.111 -0.4111 -0.7724 -0.5454
  645MOL0     C86968   6.491   9.865   7.191  0.1447 -0.5500 -0.5396
  645MOL0     C86969   6.589   9.952   7.251  0.4220  1.2163 -0.8515
  645MOL0     O86970   6.642   9.908   7.374 -0.1490  0.3494  0.0372
  645MOL0     C86971   6.735   9.987   7.435 -0.6410  0.4813  0.6692
  645MOL0     C86972   6.862   9.970   7.379  0.2322 -0.2153  0.5323
  645MOL0     C86973   6.959  10.063   7.405 -0.2811 -0.5185  0.3043
  645MOL0     C86974   6.941  10.157   7.506  0.5546  0.5754  0.0576
  645MOL0     O86975   7.043  10.250   7.542  0.3767 -0.4536  0.6591
  645MOL0     C86976   7.111  10.225   7.672  0.5342 -0.4948 -0.2013
  645MOL0     C86977   7.195  10.353   7.715 -0.8630 -0.6069 -0.1462
  645MOL0     C86978   7.308  10.381   7.618  0.5179  0.5098  0.3313
  645MOL0     C86979   7.367  10.522   7.628  0.8112  0.3461  0.6124
  645MOL0     C86980   7.428  10.561   7.767  0.0220  0.5149  0.2225
  645MOL0     C86981   7.549  10.463   7.797  0.2330  0.0049  0.2418
  645MOL0     C86982   7.625  10.497   7.926 -0.5043 -0.3215  0.0838
  645MOL0     C86983   7.573  10.626   8.002 -0.0406 -0.6397 -0.6085
  645MOL0    Cl86984   7.677  10.615   8.155 -0.2913  0.1153  0.2015
  645MOL0     C86985   6.818  10.155   7.574  0.9568  0.0829 -0.5179
  645MOL0     C86986   6.710  10.078   7.537  0.0847 -0.4237  0.7648
  645MOL0     O86987   6.615  10.051   7.194 -0.4409 -0.1358  0.1630
  645MOL0     C86988   6.492   9.721   7.215  0.9720  0.7828 -0.5974
  645MOL0     C86989   6.415   9.637   7.139  0.3385  0.8584 -0.4805
  645MOL0     N86990   5.639   9.379   7.018 -0.3981 -0.1977  0.0497
  645MOL0     N86991   5.517   9.393   6.983  0.5307 -0.5268  0.0497
  645MOL0     C86992   4.322   9.785   6.857  0.1524  0.8317  0.3316
  645MOL0     C86993   4.190   9.819   6.886 -0.5943  0.3944 -0.3033
  645MOL0     C86994   3.756   9.773   6.945  1.1090 -0.9746 -0.8751
  645MOL0     C86995   3.672   9.789   6.837  0.5105  0.2445 -0.1326
  645MOL0     C86996   3.545   9.839   6.851  0.0016  0.3376 -0.1950
  645MOL0     C86997   3.501   9.868   6.979 -0.3002 -0.2464 -0.0746
  645MOL0     O86998   3.374   9.923   7.001  0.3183  0.2860 -0.7063
  645MOL0     C86999   3.271   9.865   6.915  0.5885 -0.2511 -0.5400
  645MOL0     C87000   3.135   9.878   6.982  0.1556 -0.0237 -0.3916
  645MOL0     C87001   3.018   9.810   6.903  0.5139 -0.2907  0.1335
  645MOL0     C87002   2.890   9.815   6.986 -0.5818  0.2659  0.3799
  645MOL0     C87003   2.823   9.685   6.968  0.3798 -0.4226  1.4113
  645MOL0     C87004   2.765   9.582   6.929 -0.9915  0.3631  0.3913
  645MOL0     C87005   3.584   9.846   7.095  1.0075  0.1827 -0.7501
  645MOL0     C87006   3.707   9.784   7.082 -0.5749 -0.0161  0.4214
  645MOL0     C87007   3.780   9.750   7.197 -0.8797  0.6131 -1.2805
  645MOL0     H87008   4.122   9.554   7.096  1.6521 -0.5953  0.8496
  645MOL0     H87009   4.358   9.490   7.009 -0.2154 -0.0570 -0.0993
  645MOL0     H87010   4.441   9.642   6.652  0.9399 -1.6251  0.1844
  645MOL0     H87011   4.579   9.754   6.702  0.2016  0.2869 -1.3561
  645MOL0     H87012   4.655   9.559   6.574  0.8112 -3.8967 -0.1782
  645MOL0     H87013   4.579   9.451   6.696 -2.3859  0.2212 -0.0338
  645MOL0     H87014   4.751   9.533   6.860  2.0651  1.6833  0.6149
  645MOL0     H87015   4.794   9.666   6.745  2.7122 -0.4301  2.2856
  645MOL0     H87016   4.849   9.381   6.687 -1.5352  0.7472 -3.4723
  645MOL0     H87017   4.895   9.522   6.599 -0.3731 -1.3007 -0.6039
  645MOL0     H87018   5.048   9.603   6.774 -1.6099  0.6669 -1.8924
  645MOL0     H87019   4.994   9.479   6.890 -1.9455  0.2764 -0.1354
  645MOL0     H87020   5.118   9.309   6.748 -1.4996  1.4063 -1.4401
  645MOL0     H87021   5.159   9.450   6.639  1.1175 -0.9775 -0.6783
  645MOL0     H87022   5.237   9.460   6.934 -0.4887 -2.0611 -0.5348
  645MOL0     H87023   5.304   9.550   6.792 -0.6758  1.4622  2.5369
  645MOL0     H87024   5.324   9.248   6.818  1.8053 -1.1348 -0.5954
  645MOL0     H87025   5.368   9.333   6.689 -0.7122  0.9330  0.8645
  645MOL0     H87026   5.638   9.277   6.703  0.5759  1.6368 -0.7027
  645MOL0     H87027   5.879   9.214   6.944 -3.4007  0.0098  1.3666
  645MOL0     H87028   5.886   9.331   6.805  1.2447 -0.0228  0.6394
  645MOL0     H87029   5.862   9.507   6.990  0.0993  0.1613 -0.5741
  645MOL0     H87030   5.942   9.382   7.104  2.6698 -0.9290 -0.7439
  645MOL0     H87031   6.079   9.444   6.849  2.8845 -2.0934 -0.0405
  645MOL0     H87032   6.143   9.387   7.003  1.6596  3.0800  1.4755
  645MOL0     H87033   6.084   9.624   7.084 -0.1180 -1.1945  0.7481
  645MOL0     H87034   6.066   9.661   6.910  1.5002  0.8807 -0.2526
  645MOL0     H87035   6.226   9.863   6.970 -1.5815  0.4033  2.1835
  645MOL0     H87036   6.369  10.026   7.108 -3.0008 -1.1157 -2.1580
  645MOL0     H87037   6.875   9.900   7.297 -3.3797 -0.9189  0.4136
  645MOL0     H87038   7.051  10.074   7.348  0.0302  0.3290  0.9561
  645MOL0     H87039   7.030  10.215   7.745 -0.2162  4.3565 -0.0115
  645MOL0     H87040   7.174  10.136   7.681  1.5952  0.1740 -0.7485
  645MOL0     H87041   7.139  10.447   7.718 -0.0510 -0.0852 -0.8305
  645MOL0     H87042   7.233  10.337   7.816 -2.5838  0.3192  0.7085
  645MOL0     H87043   7.389  10.307   7.624 -0.0249 -0.0145  1.6789
  645MOL0     H87044   7.260  10.366   7.520  1.1744 -4.4295  0.5033
  645MOL0     H87045   7.298  10.603   7.604 -1.1468 -1.6443 -0.9460
  645MOL0     H87046   7.443  10.525   7.549  1.3611 -3.6368  0.7769
  645MOL0     H87047   7.350  10.553   7.843 -0.1844  0.2081 -0.0249
  645MOL0     H87048   7.459  10.666   7.760  1.8738 -0.0252 -0.4623
  645MOL0     H87049   7.499  10.366   7.810 -1.5335  0.9143  0.5294
  645MOL0     H87050   7.620  10.454   7.714 -2.0903  0.4362 -1.9320
  645MOL0     H87051   7.731  10.505   7.900 -0.5200 -0.9964 -0.1861
  645MOL0     H87052   7.597  10.413   7.991  0.3121 -1.6095 -1.1861
  645MOL0     H87053   7.589  10.720   7.949 -3.4121 -1.5401 -3.6291
  645MOL0     H87054   7.466  10.617   8.024 -0.5604  0.9004 -2.2807
  645MOL0     H87055   6.809  10.230   7.652  3.2707  1.3645 -1.3989
  645MOL0     H87056   6.618  10.082   7.594  0.6008 -1.8508  1.7689
  645MOL0     H87057   6.570   9.686   7.283  2.5305  2.8426 -1.2311
  645MOL0     H87058   6.421   9.528   7.144 -2.0649  0.7432  1.6458
  645MOL0     H87059   4.382   9.855   6.799 -2.9432  2.2596 -1.4000
  645MOL0     H87060   4.133   9.906   6.855  0.3885  1.0790 -0.2355
  645MOL0     H87061   3.702   9.773   6.734  0.7924 -0.4841  0.0510
  645MOL0     H87062   3.482   9.855   6.764  1.1936  0.6061 -1.0466
  645MOL0     H87063   3.285   9.758   6.899 -0.6018 -0.3824 -0.8011
  645MOL0     H87064   3.265   9.923   6.822  1.3972  1.1585  0.2413
  645MOL0     H87065   3.124   9.986   6.995 -1.4960 -0.3071  0.8114
  645MOL0     H87066   3.151   9.827   7.077  3.5712  2.1578  0.3872
  645MOL0     H87067   3.041   9.705   6.883 -0.4881 -0.8427  1.6841
  645MOL0     H87068   3.003   9.853   6.804 -0.4021 -1.0017 -0.0388
  645MOL0     H87069   2.911   9.810   7.094 -1.7861 -2.7060  0.5706
  645MOL0     H87070   2.832   9.902   6.956  0.0012  0.9379  1.1748
  645MOL0     H87071   2.717   9.490   6.900 -0.6069 -0.2390  1.5980
  645MOL0     H87072   3.536   9.874   7.188  0.6793  1.3934 -1.2670
  645MOL0     H87073   3.818   9.844   7.238 -0.2318  0.4142 -1.4124
  645MOL0     H87074   3.716   9.721   7.281 -2.5232  4.2943 -1.0718
  645MOL0     H87075   3.861   9.678   7.177 -2.1935 -1.9919  1.7690
  646MOL0     O87076   6.796  11.155   1.761 -0.2038 -0.1651  0.8537
  646MOL0     C87077   6.869  11.053   1.773  0.5872  0.5432 -0.1427
  646MOL0     O87078   7.006  11.057   1.805 -0.6343  1.1538  0.2043
  646MOL0     C87079   7.066  11.187   1.807  0.0004  0.4952  0.5587
  646MOL0     C87080   7.059  11.279   1.912 -0.1263  0.9185 -0.2615
  646MOL0     C87081   7.129  11.401   1.909 -0.0659 -1.2453  0.2143
  646MOL0     C87082   7.191  11.439   1.785  0.5587 -0.8230 -1.2933
  646MOL0     O87083   7.253  11.564   1.786  0.0119 -0.2470  0.0940
  646MOL0     C87084   7.354  11.589   1.686 -0.0556 -0.0064 -0.0726
  646MOL0     C87085   7.488  11.538   1.729  0.4272  0.0988 -0.5491
  646MOL0     C87086   7.602  11.565   1.624  0.6900 -0.1364 -0.4093
  646MOL0     C87087   7.730  11.493   1.654 -0.4477 -0.7470 -0.9974
  646MOL0     C87088   7.833  11.535   1.551 -0.3515 -1.0630  0.4917
  646MOL0     C87089   7.948  11.429   1.541 -0.3561  0.2520 -0.7401
  646MOL0     C87090   8.040  11.447   1.431 -0.3727 -0.2143  0.7850
  646MOL0     C87091   7.981  11.405   1.294 -0.2458  0.2188 -0.1859
  646MOL0     N87092   8.086  11.392   1.201  0.4038  0.1693  0.3472
  646MOL0     C87093   8.169  11.286   1.192  0.0237 -0.3242 -0.2724
  646MOL0     C87094   8.247  11.315   1.084 -0.6305  0.7156 -0.3581
  646MOL0     C87095   8.348  11.219   1.026  0.5225 -0.5571 -0.4385
  646MOL0     C87096   8.492  11.227   1.088 -0.0653  1.4478  0.3386
  646MOL0     C87097   8.551  11.359   1.117  0.1400 -0.6651 -0.2085
  646MOL0     C87098   8.696  11.361   1.163  0.1501  0.7499  0.9349
  646MOL0     O87099   8.777  11.335   1.048  0.8885 -0.0186  0.1674
  646MOL0     C87100   8.912  11.313   1.069 -0.2177 -0.2978  0.1706
  646MOL0     C87101   8.963  11.211   1.150  0.1035  0.8737  0.9219
  646MOL0     C87102   9.104  11.190   1.151 -0.0329 -0.0676 -0.5928
  646MOL0     C87103   9.188  11.276   1.074  0.1101 -0.1433 -0.6058
  646MOL0     C87104   9.330  11.263   1.078 -0.1867  0.1258 -0.2137
  646MOL0     O87105   9.400  11.350   0.998 -0.3034  0.3715 -0.8785
  646MOL0     C87106   9.536  11.342   0.999  0.2266 -0.1772 -0.1184
  646MOL0     C87107   9.606  11.462   1.016 -0.3571  0.4872  0.0163
  646MOL0     C87108   9.745  11.459   1.009  0.2489 -0.0762  0.0911
  646MOL0     C87109   9.818  11.345   0.980  0.3239  0.8412 -0.6062
  646MOL0     O87110   9.954  11.338   0.954  0.9761 -1.4983 -0.4504
  646MOL0     C87111  10.025  11.452   1.015 -0.1666  0.4393  0.0212
  646MOL0     C87112  10.174  11.422   1.016 -0.3817 -0.0243 -0.2068
  646MOL0     C87113  10.224  11.420   0.869 -0.6318  0.2713  0.2024
  646MOL0     C87114  10.350  11.336   0.857  1.1773  0.5360  0.1371
  646MOL0     C87115  10.471  11.408   0.914  0.1968 -0.0475 -0.3729
  646MOL0     C87116  10.596  11.343   0.866 -0.1414  0.0504  0.4550
  646MOL0     C87117  10.616  11.203   0.941  0.6447 -1.0357  0.1300
  646MOL0     C87118  10.702  11.110   0.857 -0.5201 -0.0954  0.3492
  646MOL0    Cl87119  10.608  11.064   0.723 -0.5406 -0.0464  0.0868
  646MOL0     C87120   9.750  11.220   0.986 -0.1193 -0.7379 -0.4821
  646MOL0     C87121   9.608  11.222   0.989  0.1915 -0.6139 -0.1142
  646MOL0     O87122   9.380  11.170   1.147 -0.3325 -0.6523  0.9012
  646MOL0     C87123   9.128  11.380   0.993 -1.1639  1.2201  0.2537
  646MOL0     C87124   8.991  11.403   0.997 -0.0219  0.2868  0.0380
  646MOL0     N87125   8.220  11.444   1.038  0.9082  0.7832  0.2269
  646MOL0     N87126   8.128  11.494   1.118 -0.8361 -0.0322  0.5296
  646MOL0     C87127   7.186  11.348   1.683  0.2995 -0.6030  0.0182
  646MOL0     C87128   7.122  11.227   1.693  0.7034  0.2559  0.4565
  646MOL0     C87129   6.793  10.921   1.754 -0.4540  0.4544  0.3735
  646MOL0     C87130   6.870  10.810   1.722 -1.0629 -0.2900 -0.1702
  646MOL0     C87131   6.816  10.682   1.707  0.5657 -0.0650  0.9963
  646MOL0     C87132   6.678  10.665   1.725  0.1222  0.7916  0.6263
  646MOL0     O87133   6.635  10.542   1.704 -0.1033 -0.2148 -0.1828
  646MOL0     C87134   6.509  10.512   1.760 -0.3914  0.1831  0.1987
  646MOL0     C87135   6.495  10.363   1.759 -0.9435  0.0408 -1.1633
  646MOL0     C87136   6.389  10.309   1.859  0.7784  0.3045 -0.6613
  646MOL0     C87137   6.249  10.373   1.860 -0.4398  0.0594  0.6934
  646MOL0     C87138   6.166  10.353   1.743 -0.4774  0.7133 -0.1309
  646MOL0     C87139   6.094  10.347   1.645  0.4275  0.7248  0.1537
  646MOL0     C87140   6.603  10.781   1.756  0.0797 -0.0513 -0.9054
  646MOL0     C87141   6.657  10.901   1.789  1.0848 -0.0063  0.0268
  646MOL0     C87142   6.580  11.015   1.858 -0.3601 -0.0026 -0.3312
  646MOL0     H87143   7.008  11.242   2.000  1.4017 -1.1076 -0.1491
  646MOL0     H87144   7.117  11.470   1.992  2.1391  0.1907 -0.5791
  646MOL0     H87145   7.318  11.575   1.583 -0.2000 -0.1857  0.0018
  646MOL0     H87146   7.378  11.695   1.677  0.8012 -0.0633  1.3050
  646MOL0     H87147   7.482  11.430   1.746  0.1867  0.4043  1.5738
  646MOL0     H87148   7.512  11.572   1.830 -4.1220  1.4428  0.2823
  646MOL0     H87149   7.615  11.672   1.611 -1.7662  0.6947  2.7812
  646MOL0     H87150   7.554  11.531   1.532 -1.9386  0.9084  0.5116
  646MOL0     H87151   7.763  11.511   1.757 -2.1857  0.7019 -0.6479
  646MOL0     H87152   7.717  11.385   1.648  2.2987 -1.2079  0.0358
  646MOL0     H87153   7.772  11.538   1.460  1.5938 -1.8748 -0.9028
  646MOL0     H87154   7.867  11.635   1.579 -0.1892 -1.2744  1.0722
  646MOL0     H87155   8.013  11.434   1.628 -3.4796 -0.2704  1.7992
  646MOL0     H87156   7.900  11.331   1.539 -1.8760  0.8441  2.2992
  646MOL0     H87157   8.128  11.386   1.452  0.5044  0.2761 -1.1920
  646MOL0     H87158   8.074  11.551   1.424  0.3581 -0.5197 -4.6261
  646MOL0     H87159   7.942  11.303   1.297 -1.2370  0.5735  2.5168
  646MOL0     H87160   7.904  11.474   1.260  1.0293  0.8144 -2.0255
  646MOL0     H87161   8.155  11.202   1.260  0.1222 -1.4254 -1.5730
  646MOL0     H87162   8.304  11.121   1.041  0.1561 -0.2489  0.5631
  646MOL0     H87163   8.358  11.247   0.920  2.5402 -0.7743 -0.3513
  646MOL0     H87164   8.488  11.165   1.178 -0.9128  0.6034 -0.2566
  646MOL0     H87165   8.552  11.169   1.017 -0.3476  0.7617  0.6529
  646MOL0     H87166   8.484  11.408   1.189 -1.9460 -4.9156  1.0915
  646MOL0     H87167   8.541  11.407   1.019 -1.9568  0.3420  0.4249
  646MOL0     H87168   8.721  11.287   1.240  1.2789 -1.4706 -1.4173
  646MOL0     H87169   8.723  11.458   1.208  0.6225  1.0125  0.1196
  646MOL0     H87170   8.890  11.152   1.205 -0.1566  0.4834  0.1821
  646MOL0     H87171   9.148  11.113   1.214 -0.9187 -0.2503 -0.1833
  646MOL0     H87172   9.556  11.558   1.018  0.8887  1.1720 -0.1556
  646MOL0     H87173   9.790  11.557   1.003 -0.9273  0.4031 -2.2740
  646MOL0     H87174  10.004  11.539   0.952  3.5881  1.9261  0.5979
  646MOL0     H87175   9.990  11.487   1.113 -0.0397  1.8797 -0.4249
  646MOL0     H87176  10.221  11.501   1.076 -0.9193 -0.2111  0.4750
  646MOL0     H87177  10.195  11.330   1.071 -1.1832 -1.2962 -1.9433
  646MOL0     H87178  10.151  11.368   0.807 -0.8518  0.8581 -0.0409
  646MOL0     H87179  10.250  11.519   0.831  2.3427 -1.3126 -2.3068
  646MOL0     H87180  10.363  11.314   0.750 -0.6608 -0.1496  0.0195
  646MOL0     H87181  10.323  11.242   0.906 -1.9469  1.2617  0.0225
  646MOL0     H87182  10.471  11.425   1.022  0.3246 -1.7583 -0.0776
  646MOL0     H87183  10.469  11.510   0.875 -0.3226  0.2633  0.4514
  646MOL0     H87184  10.591  11.324   0.759  0.9759  0.1968  0.3695
  646MOL0     H87185  10.678  11.415   0.877  0.1180 -0.2332  0.4107
  646MOL0     H87186  10.525  11.154   0.976  0.0962 -0.1316  0.0181
  646MOL0     H87187  10.670  11.228   1.034  2.4634 -0.7121 -0.9560
  646MOL0     H87188  10.793  11.155   0.816 -0.7471  1.0908  1.0918
  646MOL0     H87189  10.732  11.019   0.910  0.8742  1.3399  2.1169
  646MOL0     H87190   9.803  11.126   0.975 -1.0274 -1.3053 -0.1585
  646MOL0     H87191   9.560  11.126   1.006  0.3725 -1.3453 -3.0826
  646MOL0     H87192   9.190  11.434   0.923  0.7576 -1.0933  0.0549
  646MOL0     H87193   8.946  11.484   0.940 -0.8298  0.7375  1.2827
  646MOL0     H87194   7.225  11.372   1.585 -0.7243  1.4480  0.0476
  646MOL0     H87195   7.146  11.156   1.615  2.4099  0.6326  0.5974
  646MOL0     H87196   6.974  10.821   1.695 -0.5596  0.5531  1.8729
  646MOL0     H87197   6.880  10.599   1.680  1.2966  0.8794 -0.3151
  646MOL0     H87198   6.427  10.541   1.695  0.4578  0.4189 -0.7898
  646MOL0     H87199   6.493  10.564   1.855 -3.0410  3.0250 -1.6389
  646MOL0     H87200   6.591  10.311   1.768 -0.3468  1.4047  1.1963
  646MOL0     H87201   6.451  10.337   1.662  0.0901 -0.8046 -1.4177
  646MOL0     H87202   6.405  10.317   1.967 -3.7283 -3.5046  0.6490
  646MOL0     H87203   6.375  10.204   1.833 -1.0129  0.4050 -0.2148
  646MOL0     H87204   6.186  10.348   1.946 -0.9359 -0.0386  0.3028
  646MOL0     H87205   6.259  10.481   1.871 -1.3496  0.3683 -1.1624
  646MOL0     H87206   6.035  10.344   1.555  1.2243  1.6721 -0.4130
  646MOL0     H87207   6.497  10.772   1.774 -0.0472  2.1805 -0.2422
  646MOL0     H87208   6.487  10.972   1.897 -1.0229  1.2820 -0.4456
  646MOL0     H87209   6.634  11.057   1.943 -0.7689  3.0613 -1.4557
  646MOL0     H87210   6.563  11.094   1.785  1.1191  0.9112  0.2706
  647MOL0     O87211   0.010  11.192   2.782 -0.5402  0.3899 -0.7747
  647MOL0     C87212  -0.074  11.280   2.769  0.3890  0.4856 -0.1228
  647MOL0     O87213  -0.050  11.405   2.719 -0.3341 -0.3107 -0.0293
  647MOL0     C87214   0.080  11.434   2.677  0.2809 -0.8379 -0.0598
  647MOL0     C87215   0.103  11.470   2.543  0.5716 -0.4297  1.0369
  647MOL0     C87216   0.227  11.512   2.504  0.3576  0.1840 -0.0349
  647MOL0     C87217   0.340  11.512   2.586  0.4697  0.1412 -1.0079
  647MOL0     O87218   0.463  11.565   2.541 -0.8295  0.2113 -0.3782
  647MOL0     C87219   0.578  11.562   2.630  0.3244  0.2758 -0.0367
  647MOL0     C87220   0.638  11.422   2.639 -0.0364 -0.1058 -0.3284
  647MOL0     C87221   0.782  11.433   2.699  1.1911  1.0938  1.3433
  647MOL0     C87222   0.781  11.483   2.836 -0.1486 -0.1274 -0.2067
  647MOL0     C87223   0.929  11.480   2.890  0.2587 -0.2013 -0.6086
  647MOL0     C87224   0.948  11.566   3.017  0.4391 -0.6093 -0.0428
  647MOL0     C87225   1.086  11.580   3.072 -1.1375 -0.2674  0.7422
  647MOL0     C87226   1.193  11.655   2.993 -0.4398 -0.8399  0.2001
  647MOL0     N87227   1.149  11.788   2.949  0.6138 -0.2378  0.3977
  647MOL0     C87228   1.187  11.908   3.004  0.0612 -0.0654  0.5739
  647MOL0     C87229   1.158  12.000   2.914  0.2401  0.3897 -0.2469
  647MOL0     C87230   1.203  12.137   2.933  0.0853 -0.8672 -1.3333
  647MOL0     C87231   1.347  12.140   2.969  0.2440 -0.7409 -0.0187
  647MOL0     C87232   1.439  12.088   2.855  0.8760 -0.2399 -0.1295
  647MOL0     C87233   1.585  12.074   2.908  0.0016  0.4741 -0.1776
  647MOL0     O87234   1.622  12.172   3.007  0.7414 -0.0382  0.3860
  647MOL0     C87235   1.748  12.216   3.018 -0.5833 -0.1480  0.1661
  647MOL0     C87236   1.768  12.337   3.078  0.1165 -0.0301  0.0735
  647MOL0     C87237   1.902  12.382   3.103  0.1191  0.3938  0.1267
  647MOL0     C87238   2.012  12.307   3.081 -0.0870 -0.2201 -0.0061
  647MOL0     C87239   2.155  12.342   3.126  0.5805 -0.2787 -0.2803
  647MOL0     O87240   2.255  12.257   3.102  0.4207 -0.0770  0.3431
  647MOL0     C87241   2.384  12.294   3.119  0.0358  0.5538  0.5432
  647MOL0     C87242   2.474  12.197   3.152 -1.2523 -0.6727 -0.0625
  647MOL0     C87243   2.612  12.230   3.175 -0.2923 -0.3210 -0.4955
  647MOL0     C87244   2.655  12.365   3.171  0.4251  1.2320 -0.3698
  647MOL0     O87245   2.783  12.399   3.188 -0.5057 -0.0747 -0.1853
  647MOL0     C87246   2.896  12.309   3.223 -0.1805 -0.6205 -1.1227
  647MOL0     C87247   3.024  12.397   3.226 -0.7404  0.5146 -0.2360
  647MOL0     C87248   3.143  12.321   3.283  0.2172 -0.0557 -0.1222
  647MOL0     C87249   3.271  12.407   3.254  0.7511  0.4512  0.8201
  647MOL0     C87250   3.387  12.328   3.321 -0.0257  0.0193  0.1079
  647MOL0     C87251   3.511  12.411   3.323 -0.3783  0.2026  0.2838
  647MOL0     C87252   3.623  12.328   3.388 -0.3711  0.2832 -0.0705
  647MOL0     C87253   3.750  12.413   3.417  0.5451  0.4415  0.5788
  647MOL0    Cl87254   3.821  12.445   3.261  0.1077 -0.0838 -0.3489
  647MOL0     C87255   2.565  12.458   3.127  0.2216 -0.5097 -1.1713
  647MOL0     C87256   2.431  12.424   3.102 -0.1134 -0.5038  0.0741
  647MOL0     O87257   2.164  12.430   3.209  0.0344 -0.5990  0.0537
  647MOL0     C87258   1.991  12.184   3.017  0.4192 -0.2566  0.6284
  647MOL0     C87259   1.864  12.143   2.984  0.6540  0.5460 -0.4391
  647MOL0     N87260   1.091  11.941   2.803 -0.4549  0.3613  0.3271
  647MOL0     N87261   1.082  11.815   2.827  0.5997  0.1889 -0.5351
  647MOL0     C87262   0.314  11.482   2.719 -0.3276 -0.4175 -0.6058
  647MOL0     C87263   0.184  11.433   2.764 -1.0048  0.9139  0.3430
  647MOL0     C87264  -0.206  11.251   2.820  0.4638 -0.7540 -0.4024
  647MOL0     C87265  -0.301  11.357   2.796  0.4966 -0.4468 -0.0575
  647MOL0     C87266  -0.435  11.344   2.838 -0.3860  0.0016 -0.7814
  647MOL0     C87267  -0.474  11.231   2.906 -0.2907 -0.3404 -0.0360
  647MOL0     O87268  -0.609  11.219   2.933  0.0057 -0.2896  0.6113
  647MOL0     C87269  -0.661  11.098   2.976  0.9219  0.1002 -0.2389
  647MOL0     C87270  -0.811  11.083   2.943 -0.2791 -0.3429  0.6902
  647MOL0     C87271  -0.904  11.186   3.001 -0.2581 -0.1968 -1.1730
  647MOL0     C87272  -1.043  11.145   2.961  0.2838 -0.1001  0.8063
  647MOL0     C87273  -1.147  11.242   3.002 -0.4163 -0.0801 -0.9281
  647MOL0     C87274  -1.246  11.311   3.026 -0.5623  0.7299 -0.4832
  647MOL0     C87275  -0.381  11.139   2.940 -0.5334 -0.1628 -0.2621
  647MOL0     C87276  -0.250  11.139   2.897 -1.0183 -0.9449  0.8558
  647MOL0     C87277  -0.157  11.021   2.928 -0.5154  0.0505  0.3623
  647MOL0     H87278   0.020  11.478   2.474  1.0767  1.8083  0.6126
  647MOL0     H87279   0.239  11.534   2.398  1.3687  1.2944  0.2864
  647MOL0     H87280   0.645  11.629   2.576 -0.1165  0.3043 -0.5585
  647MOL0     H87281   0.554  11.607   2.726 -0.9411 -0.2325 -0.0960
  647MOL0     H87282   0.648  11.381   2.538 -3.4072 -0.0536 -0.8000
  647MOL0     H87283   0.580  11.349   2.697 -1.0783  1.9437  1.3531
  647MOL0     H87284   0.851  11.489   2.635  0.8459  0.6249  0.5499
  647MOL0     H87285   0.822  11.332   2.696  2.1484  1.4835  0.1522
  647MOL0     H87286   0.738  11.584   2.830 -1.1844 -0.5127  0.5233
  647MOL0     H87287   0.722  11.414   2.896  2.8929 -2.9160 -0.1827
  647MOL0     H87288   0.949  11.376   2.917 -0.8426 -0.3849 -0.4379
  647MOL0     H87289   0.993  11.513   2.808 -0.7638  2.4819 -0.4281
  647MOL0     H87290   0.913  11.668   3.000 -0.3936 -0.7277  0.8875
  647MOL0     H87291   0.885  11.531   3.099 -0.4867 -3.1394 -1.6866
  647MOL0     H87292   1.120  11.476   3.081 -0.0080  0.0697  0.5947
  647MOL0     H87293   1.078  11.632   3.168  0.7877  0.4563  0.5534
  647MOL0     H87294   1.287  11.664   3.048 -0.3156 -1.4534  0.0911
  647MOL0     H87295   1.208  11.589   2.907 -1.5003 -1.2113  0.2848
  647MOL0     H87296   1.238  11.918   3.100  0.8130  4.0488 -0.0487
  647MOL0     H87297   1.196  12.192   2.839 -0.9371  0.8182 -0.3259
  647MOL0     H87298   1.140  12.188   3.006  1.4199 -1.5500  0.3541
  647MOL0     H87299   1.367  12.246   2.990 -2.5480  0.0844 -1.0482
  647MOL0     H87300   1.378  12.085   3.058  2.0670 -2.6104 -1.6963
  647MOL0     H87301   1.443  12.167   2.779 -2.2344  0.8740  0.7190
  647MOL0     H87302   1.404  11.993   2.814  2.7267 -1.1201  0.2218
  647MOL0     H87303   1.642  12.083   2.815  1.9713 -0.5668  0.8558
  647MOL0     H87304   1.597  11.975   2.953  4.8276  1.4369  1.1936
  647MOL0     H87305   1.690  12.405   3.110  0.1378  1.2611 -2.3526
  647MOL0     H87306   1.925  12.475   3.155  3.9647  0.0264 -0.6480
  647MOL0     H87307   2.454  12.091   3.166  0.7995 -1.1795 -0.5555
  647MOL0     H87308   2.680  12.152   3.206 -0.8248 -2.0768 -3.3736
  647MOL0     H87309   2.874  12.265   3.321  0.0140 -1.7067 -1.5585
  647MOL0     H87310   2.909  12.221   3.161 -0.7305 -1.4485 -0.0926
  647MOL0     H87311   3.044  12.426   3.122 -2.0598  1.4155 -0.2640
  647MOL0     H87312   3.003  12.484   3.288  1.1030 -0.5237  1.9651
  647MOL0     H87313   3.121  12.293   3.386 -2.7986  2.6701  0.1004
  647MOL0     H87314   3.148  12.225   3.230  0.6042 -0.5347  0.7612
  647MOL0     H87315   3.263  12.511   3.285 -0.6646  0.5086  0.3473
  647MOL0     H87316   3.288  12.411   3.146  0.2161 -1.3856  0.6230
  647MOL0     H87317   3.415  12.229   3.282  0.2238 -0.3873  1.2783
  647MOL0     H87318   3.369  12.302   3.426  2.0599  1.6087  0.9319
  647MOL0     H87319   3.537  12.426   3.218 -0.8040  1.4144  0.3440
  647MOL0     H87320   3.501  12.505   3.379  2.1116  1.4716 -1.2331
  647MOL0     H87321   3.630  12.240   3.323 -0.9282  0.2064 -0.0290
  647MOL0     H87322   3.594  12.282   3.483  3.6044 -2.8683 -0.0631
  647MOL0     H87323   3.719  12.505   3.467  0.5789 -0.1259  1.6607
  647MOL0     H87324   3.813  12.353   3.483 -1.7621 -3.0311 -0.1269
  647MOL0     H87325   2.601  12.560   3.121  2.0156 -1.0836 -0.7650
  647MOL0     H87326   2.364  12.499   3.062  2.1660  0.7552 -1.5940
  647MOL0     H87327   2.080  12.124   3.003  0.4477  0.0807 -0.7776
  647MOL0     H87328   1.850  12.046   2.936 -0.4730  0.8818 -0.8250
  647MOL0     H87329   0.390  11.479   2.796 -1.0709 -1.6762  0.1079
  647MOL0     H87330   0.166  11.399   2.866  2.0546  1.8466  1.2987
  647MOL0     H87331  -0.278  11.449   2.742 -2.2487 -1.2179 -2.8079
  647MOL0     H87332  -0.515  11.415   2.818 -0.5533 -0.4439 -1.7560
  647MOL0     H87333  -0.651  11.099   3.085  0.7796 -0.3424 -0.2183
  647MOL0     H87334  -0.621  11.006   2.932 -3.2789 -1.4902 -1.2668
  647MOL0     H87335  -0.836  10.980   2.968 -0.3483 -0.5073 -0.0204
  647MOL0     H87336  -0.817  11.073   2.834 -1.8332  1.8321  0.5049
  647MOL0     H87337  -0.881  11.283   2.955  0.6847  0.0594 -0.1866
  647MOL0     H87338  -0.900  11.193   3.110  0.6807  0.9016 -1.2643
  647MOL0     H87339  -1.043  11.138   2.852 -1.9205 -0.0315  0.7671
  647MOL0     H87340  -1.076  11.054   3.011 -4.3111  1.1795  0.5168
  647MOL0     H87341  -1.342  11.353   3.051 -0.3756  0.9802 -0.1841
  647MOL0     H87342  -0.413  11.056   3.002 -0.2496  1.0308  1.5670
  647MOL0     H87343  -0.062  11.047   2.975  0.0168 -0.4195 -0.4239
  647MOL0     H87344  -0.206  10.949   2.995  0.3618  2.1556  3.5099
  647MOL0     H87345  -0.136  10.969   2.834 -0.9391  0.8125 -0.1642
  648MOL0     O87346   7.210   3.851   8.470  0.3222  0.1893  0.0357
  648MOL0     C87347   7.111   3.912   8.487  0.5278  0.8564 -0.1779
  648MOL0     O87348   7.072   4.026   8.427  0.1521  0.2874 -0.1959
  648MOL0     C87349   7.165   4.109   8.356 -0.7152  0.8701  0.3546
  648MOL0     C87350   7.165   4.249   8.370 -0.0918  0.5283  0.2527
  648MOL0     C87351   7.249   4.332   8.301 -0.2231  0.4798 -0.2780
  648MOL0     C87352   7.347   4.283   8.213 -0.3400  0.0656 -0.4885
  648MOL0     O87353   7.442   4.374   8.172 -0.6069 -0.1434  0.1524
  648MOL0     C87354   7.562   4.324   8.105  0.7257  0.1793 -0.3685
  648MOL0     C87355   7.650   4.446   8.094 -0.1169 -0.2724  0.0782
  648MOL0     C87356   7.790   4.415   8.028 -0.2167 -0.7611 -0.3362
  648MOL0     C87357   7.867   4.536   7.962 -0.7521  0.4101 -0.1009
  648MOL0     C87358   7.990   4.489   7.876  0.5348 -0.4849  0.1403
  648MOL0     C87359   8.079   4.598   7.818  0.4318  0.3483  0.2169
  648MOL0     C87360   8.180   4.557   7.713 -0.5914 -0.3711 -0.7526
  648MOL0     C87361   8.282   4.673   7.687  0.5065 -0.2908 -0.3828
  648MOL0     N87362   8.226   4.760   7.580 -0.8821  0.5097 -0.0213
  648MOL0     C87363   8.140   4.867   7.598 -0.1529  0.8689 -0.0399
  648MOL0     C87364   8.107   4.902   7.474  0.8169 -0.0236 -0.2740
  648MOL0     C87365   8.001   5.008   7.438 -0.5752  0.5791 -0.5888
  648MOL0     C87366   8.061   5.127   7.366  0.0686  0.3094 -0.1758
  648MOL0     C87367   8.175   5.194   7.448 -0.1183  0.0935 -0.5719
  648MOL0     C87368   8.186   5.343   7.402 -0.4772  0.4043  0.0975
  648MOL0     O87369   8.276   5.424   7.481 -1.0994 -0.0381 -0.1831
  648MOL0     C87370   8.415   5.409   7.478 -0.0549 -0.4117  0.8040
  648MOL0     C87371   8.493   5.331   7.384 -0.3592  0.0131 -0.8092
  648MOL0     C87372   8.629   5.322   7.400 -0.2644 -0.3465 -0.6756
  648MOL0     C87373   8.697   5.386   7.505 -0.5583 -0.2074  0.2586
  648MOL0     C87374   8.844   5.364   7.534 -0.4974 -0.3624  0.1501
  648MOL0     O87375   8.905   5.427   7.647  0.0645  0.3196  0.1486
  648MOL0     C87376   9.048   5.409   7.658 -0.2469  0.5331 -0.4925
  648MOL0     C87377   9.092   5.379   7.784  0.1825  0.3619 -0.2152
  648MOL0     C87378   9.226   5.389   7.819  0.3346  0.5596 -0.3518
  648MOL0     C87379   9.317   5.406   7.715  0.3680  0.0513 -0.7791
  648MOL0     O87380   9.454   5.421   7.745  1.1142 -0.1731 -0.0261
  648MOL0     C87381   9.492   5.440   7.887  0.3450  0.3980 -0.1507
  648MOL0     C87382   9.641   5.490   7.892 -0.5077  0.1545 -0.1323
  648MOL0     C87383   9.669   5.541   8.035 -0.3236  0.6508 -0.6496
  648MOL0     C87384   9.814   5.599   8.044 -0.3187  0.1912  0.1711
  648MOL0     C87385   9.843   5.672   8.179 -0.5844 -0.0149  0.1094
  648MOL0     C87386   9.738   5.778   8.225  0.0786  0.3367 -0.3060
  648MOL0     C87387   9.798   5.871   8.336 -0.6931 -0.4152 -0.3186
  648MOL0     C87388   9.699   5.972   8.386  0.7414 -0.1803  0.4022
  648MOL0    Cl87389   9.769   6.051   8.531 -0.3820 -0.0340  0.3248
  648MOL0     C87390   9.276   5.429   7.583 -0.0373 -0.3226  0.1515
  648MOL0     C87391   9.145   5.439   7.559  0.7403 -0.1469  0.1193
  648MOL0     O87392   8.907   5.299   7.452 -0.4434 -0.0370 -0.1276
  648MOL0     C87393   8.620   5.475   7.585  0.8799  0.2711  0.7627
  648MOL0     C87394   8.485   5.483   7.570 -0.0081  0.4467  0.2034
  648MOL0     N87395   8.166   4.812   7.391  0.1736  0.5728  1.0893
  648MOL0     N87396   8.246   4.733   7.448 -0.0681 -0.4857 -0.1009
  648MOL0     C87397   7.348   4.142   8.190  0.0075 -0.3832 -0.6751
  648MOL0     C87398   7.259   4.062   8.265 -0.0015 -0.1136  0.2381
  648MOL0     C87399   7.012   3.855   8.576  0.2322  0.9483  0.2871
  648MOL0     C87400   6.876   3.853   8.552  0.5532 -0.1774 -0.3795
  648MOL0     C87401   6.787   3.796   8.645 -0.1570  0.8194 -0.0784
  648MOL0     C87402   6.824   3.744   8.768 -0.4068  0.4141 -0.5239
  648MOL0     O87403   6.736   3.681   8.852  0.3884  0.5106  0.1340
  648MOL0     C87404   6.701   3.547   8.818  1.8260  0.7546  0.8916
  648MOL0     C87405   6.551   3.526   8.825 -0.0484  0.4121 -0.5556
  648MOL0     C87406   6.499   3.515   8.965  0.5292 -0.0700  0.0042
  648MOL0     C87407   6.355   3.463   8.968  0.0383  0.3034 -0.0524
  648MOL0     C87408   6.256   3.564   8.926  0.6233 -0.2813 -0.7435
  648MOL0     C87409   6.171   3.651   8.892  0.5846  0.0044 -0.0846
  648MOL0     C87410   6.962   3.760   8.802  0.3371 -0.3641 -0.1916
  648MOL0     C87411   7.054   3.810   8.702  0.0830  0.2167  0.4900
  648MOL0     C87412   7.194   3.830   8.759 -0.2553  0.1641 -0.1119
  648MOL0     H87413   7.095   4.300   8.435 -0.1721  1.9230 -0.8822
  648MOL0     H87414   7.238   4.440   8.303 -1.9949  0.3237  0.2182
  648MOL0     H87415   7.614   4.255   8.172 -1.4650 -0.0196  1.2217
  648MOL0     H87416   7.547   4.283   8.004 -2.0087 -0.3042  0.1518
  648MOL0     H87417   7.666   4.490   8.193 -2.2200 -1.8692  1.2109
  648MOL0     H87418   7.590   4.515   8.034  0.3859  0.5791  0.5397
  648MOL0     H87419   7.770   4.338   7.952 -1.6716 -0.1503 -0.6144
  648MOL0     H87420   7.865   4.377   8.098  0.7899  1.7069  0.0004
  648MOL0     H87421   7.804   4.591   7.891 -1.1136  0.3512  0.1765
  648MOL0     H87422   7.895   4.613   8.035 -0.7201  1.9120 -1.6109
  648MOL0     H87423   8.064   4.430   7.932  0.4965 -2.0675 -1.4124
  648MOL0     H87424   7.949   4.417   7.805 -1.4315 -0.9946  1.7128
  648MOL0     H87425   8.012   4.671   7.772 -1.8984 -0.9351  1.4313
  648MOL0     H87426   8.124   4.643   7.907 -0.5743  0.5308  0.6434
  648MOL0     H87427   8.135   4.536   7.615  1.6585 -0.3237 -1.8539
  648MOL0     H87428   8.233   4.468   7.749  1.2184  1.7276  2.2520
  648MOL0     H87429   8.284   4.734   7.778 -2.2094 -0.1992 -0.3310
  648MOL0     H87430   8.382   4.636   7.660  0.9323  0.7856 -0.3580
  648MOL0     H87431   8.094   4.909   7.687 -0.5545  1.4279 -0.5047
  648MOL0     H87432   7.925   4.959   7.378 -0.7900 -1.3979  1.1676
  648MOL0     H87433   7.948   5.049   7.524  2.3949  1.0885  1.1632
  648MOL0     H87434   8.095   5.105   7.264  0.0972  0.9615 -0.3104
  648MOL0     H87435   7.990   5.210   7.357  0.0167  0.3172  0.3096
  648MOL0     H87436   8.268   5.137   7.436  0.3789  0.0782  2.4704
  648MOL0     H87437   8.159   5.192   7.557  2.1026 -2.0968 -0.1994
  648MOL0     H87438   8.086   5.388   7.400 -0.3305  0.7338  0.1237
  648MOL0     H87439   8.221   5.350   7.299 -1.0763 -0.4744 -0.1815
  648MOL0     H87440   8.440   5.307   7.293  0.9745  0.1874 -1.6623
  648MOL0     H87441   8.687   5.263   7.330  0.2349  1.7775 -2.1541
  648MOL0     H87442   9.023   5.351   7.863  0.3634 -0.8362 -0.4593
  648MOL0     H87443   9.260   5.371   7.921  2.8347  1.9275 -0.8648
  648MOL0     H87444   9.437   5.518   7.941  0.2149  0.0119  0.2799
  648MOL0     H87445   9.482   5.351   7.950  2.0335  0.2348 -0.0822
  648MOL0     H87446   9.705   5.402   7.878 -1.6128 -0.2935 -2.7908
  648MOL0     H87447   9.645   5.569   7.816  0.6597  0.1191 -0.1372
  648MOL0     H87448   9.598   5.623   8.048  0.8898  1.7478 -0.7690
  648MOL0     H87449   9.665   5.465   8.114  1.7228  0.7822 -0.3802
  648MOL0     H87450   9.839   5.667   7.962 -0.6986  3.8013  2.7774
  648MOL0     H87451   9.884   5.517   8.024 -1.2629 -0.1858 -1.8105
  648MOL0     H87452   9.932   5.734   8.166 -2.2944  2.3405 -1.2460
  648MOL0     H87453   9.851   5.595   8.257 -2.8097  0.6504  1.0880
  648MOL0     H87454   9.712   5.843   8.141  0.6810 -1.5981 -2.0781
  648MOL0     H87455   9.645   5.731   8.259 -0.7686  1.9053 -0.3969
  648MOL0     H87456   9.889   5.921   8.301  2.1063 -2.4740  3.2382
  648MOL0     H87457   9.817   5.808   8.424  0.9339  0.2314 -0.1742
  648MOL0     H87458   9.685   6.057   8.319  5.7269  0.5273 -0.0921
  648MOL0     H87459   9.608   5.923   8.423 -0.5955  1.3044 -0.7890
  648MOL0     H87460   9.341   5.465   7.503  0.7987 -2.1797 -0.0551
  648MOL0     H87461   9.106   5.468   7.462  0.5118 -0.9746 -0.0409
  648MOL0     H87462   8.659   5.548   7.655  1.4573  1.5369 -0.8108
  648MOL0     H87463   8.415   5.542   7.629  1.0074  1.2172  0.6765
  648MOL0     H87464   7.415   4.082   8.129 -0.7206 -1.4158 -0.4744
  648MOL0     H87465   7.269   3.954   8.263  4.9727  0.1093 -0.4063
  648MOL0     H87466   6.832   3.885   8.458 -3.4382  0.1264  1.3835
  648MOL0     H87467   6.680   3.810   8.632 -0.1540  1.0510  0.1507
  648MOL0     H87468   6.756   3.477   8.881 -1.0964 -1.6012  1.0700
  648MOL0     H87469   6.731   3.531   8.714  3.1346  1.0926  1.1982
  648MOL0     H87470   6.518   3.433   8.777  3.3619 -2.0189  1.4402
  648MOL0     H87471   6.511   3.609   8.765 -0.4185  0.9744  0.4509
  648MOL0     H87472   6.511   3.609   9.019  2.3706 -0.3281  0.1400
  648MOL0     H87473   6.557   3.441   9.022  0.6623 -0.6607 -0.8730
  648MOL0     H87474   6.343   3.379   8.899  0.4513 -0.5387  0.8910
  648MOL0     H87475   6.340   3.439   9.073  3.0049  0.0921  0.4142
  648MOL0     H87476   6.088   3.715   8.870  0.8786  1.1177  1.8671
  648MOL0     H87477   6.984   3.735   8.905  2.6291 -0.6356 -0.6891
  648MOL0     H87478   7.215   3.937   8.748  0.3764  0.2305  1.4807
  648MOL0     H87479   7.203   3.804   8.865  1.3224  0.7803 -0.0604
  648MOL0     H87480   7.262   3.766   8.701  1.0983  0.4151  1.1470
  649MOL0     O87481   6.807   5.088   2.939  0.0768 -0.1146  0.3960
  649MOL0     C87482   6.808   5.005   2.845  0.0758 -0.2856 -0.4771
  649MOL0     O87483   6.920   4.926   2.809  0.7015  1.1150  0.4849
  649MOL0     C87484   7.040   4.940   2.869 -0.4515  0.6355  0.7970
  649MOL0     C87485   7.114   4.818   2.885  0.2398 -0.3111  0.2731
  649MOL0     C87486   7.249   4.830   2.924 -0.6716  0.5791 -0.5251
  649MOL0     C87487   7.315   4.953   2.946 -1.0003 -0.0255  0.1434
  649MOL0     O87488   7.443   4.955   2.990 -0.2909  0.0940  0.2292
  649MOL0     C87489   7.509   5.085   3.007 -0.2174  1.2652 -0.8449
  649MOL0     C87490   7.650   5.050   3.047  0.2536  0.1873 -0.6868
  649MOL0     C87491   7.740   5.175   3.065 -0.8041 -0.2499 -0.4904
  649MOL0     C87492   7.842   5.156   3.175  0.2581 -0.3927  0.1481
  649MOL0     C87493   7.929   5.277   3.208 -0.8388 -0.1865  1.0656
  649MOL0     C87494   8.032   5.297   3.103  0.3523  0.4402 -0.5048
  649MOL0     C87495   8.108   5.423   3.139 -0.4860 -0.0700  0.8229
  649MOL0     C87496   8.209   5.444   3.021 -0.2536 -0.1242 -0.0213
  649MOL0     N87497   8.322   5.351   3.033  0.1036  0.6381 -0.3644
  649MOL0     C87498   8.443   5.361   3.105 -0.8088 -1.1021 -0.4136
  649MOL0     C87499   8.517   5.252   3.079  0.6305  0.1891  0.3845
  649MOL0     C87500   8.657   5.220   3.128  0.2017  0.3997  0.2573
  649MOL0     C87501   8.728   5.150   3.016  0.4097 -0.0307  0.7991
  649MOL0     C87502   8.879   5.128   3.059 -0.4814 -0.0750 -0.4573
  649MOL0     C87503   8.950   5.264   3.067  0.7295 -0.7890  0.3725
  649MOL0     O87504   9.088   5.252   3.100 -0.4304  0.1778 -0.1756
  649MOL0     C87505   9.176   5.218   2.995 -0.0007 -0.7393 -0.2996
  649MOL0     C87506   9.140   5.163   2.865 -0.3277 -0.7769 -0.2588
  649MOL0     C87507   9.225   5.152   2.759 -0.0136 -0.1169  0.5147
  649MOL0     C87508   9.360   5.198   2.776  0.8090 -1.0315  0.7290
  649MOL0     C87509   9.458   5.187   2.667 -0.3596  0.1544 -0.0089
  649MOL0     O87510   9.593   5.185   2.706 -1.1129  0.2157 -0.2481
  649MOL0     C87511   9.689   5.128   2.619  0.1461  0.1834 -1.0187
  649MOL0     C87512   9.817   5.163   2.664 -0.1547 -0.5583 -0.4873
  649MOL0     C87513   9.933   5.116   2.597  0.8152  0.9379  0.4545
  649MOL0     C87514   9.920   5.045   2.477  0.0716 -0.4821  0.1266
  649MOL0     O87515  10.039   5.003   2.427  0.8337  0.0145  0.0309
  649MOL0     C87516  10.019   4.983   2.283  0.1736 -1.3366  0.5920
  649MOL0     C87517  10.147   4.946   2.212  0.3164 -0.7496  0.8243
  649MOL0     C87518  10.148   4.916   2.063 -0.1501 -0.0583  0.0071
  649MOL0     C87519  10.285   4.871   2.026  0.2561 -0.2261  0.1813
  649MOL0     C87520  10.298   4.879   1.873 -0.0613  0.3973 -0.2045
  649MOL0     C87521  10.439   4.827   1.828  0.0756 -0.1069  0.5000
  649MOL0     C87522  10.490   4.887   1.689  0.5785  0.3524 -0.2848
  649MOL0     C87523  10.589   4.800   1.618 -0.3117  0.0230  0.0979
  649MOL0    Cl87524  10.509   4.636   1.595  0.0649 -0.7797  0.0695
  649MOL0     C87525   9.789   4.997   2.441 -0.7217 -0.2787 -0.1083
  649MOL0     C87526   9.673   5.050   2.506 -0.9289  0.4255 -0.5054
  649MOL0     O87527   9.422   5.168   2.553  0.5015 -0.4713  0.0530
  649MOL0     C87528   9.390   5.245   2.904 -0.6399 -0.2470 -0.0789
  649MOL0     C87529   9.305   5.267   3.008 -0.1741  0.0027 -0.1936
  649MOL0     N87530   8.441   5.172   2.990 -0.1894 -0.1813  0.1142
  649MOL0     N87531   8.324   5.229   2.968 -0.7205  0.7292 -1.2786
  649MOL0     C87532   7.242   5.070   2.930  0.9965  0.2591  0.1097
  649MOL0     C87533   7.110   5.067   2.890  0.3316  0.6685  0.0275
  649MOL0     C87534   6.693   4.982   2.757 -1.2355  0.0087 -0.4922
  649MOL0     C87535   6.718   4.970   2.618 -0.3722 -0.7041  0.8286
  649MOL0     C87536   6.609   4.944   2.535 -0.2286  0.4724 -0.1519
  649MOL0     C87537   6.484   4.942   2.590 -0.2358 -1.0169  0.0094
  649MOL0     O87538   6.375   4.915   2.514 -0.8769 -0.7411  0.3307
  649MOL0     C87539   6.380   4.977   2.380  0.4201 -0.3826 -0.2962
  649MOL0     C87540   6.241   4.994   2.336 -1.3853  0.3292 -0.0103
  649MOL0     C87541   6.161   5.094   2.427 -0.9834  0.4544 -0.7044
  649MOL0     C87542   6.017   5.107   2.408  0.2693  0.1861  0.0921
  649MOL0     C87543   5.942   4.987   2.449  0.5207  0.1611 -0.5437
  649MOL0     C87544   5.878   4.881   2.466  0.5201  0.1947  0.2797
  649MOL0     C87545   6.462   4.950   2.724  1.0358 -0.2947 -0.1583
  649MOL0     C87546   6.563   4.970   2.810 -1.5058 -1.0997  0.4460
  649MOL0     C87547   6.537   4.977   2.963  0.0439 -0.0012 -0.2545
  649MOL0     H87548   7.066   4.722   2.864  1.0636 -0.6448 -0.1443
  649MOL0     H87549   7.309   4.741   2.944 -2.3828  0.0218  2.7432
  649MOL0     H87550   7.518   5.140   2.913  1.2606  0.9469 -0.9173
  649MOL0     H87551   7.465   5.142   3.089  1.2329 -0.6382  1.4176
  649MOL0     H87552   7.699   4.984   2.975  0.4167  1.4425 -1.7630
  649MOL0     H87553   7.642   4.997   3.143  0.4613  1.0690 -0.1724
  649MOL0     H87554   7.675   5.258   3.095  1.3667  0.6271  2.0744
  649MOL0     H87555   7.790   5.197   2.970  1.7859 -2.0972  0.3582
  649MOL0     H87556   7.792   5.131   3.269 -2.0916 -0.1485 -0.9718
  649MOL0     H87557   7.901   5.066   3.157  1.5096  0.4385 -0.0558
  649MOL0     H87558   7.860   5.362   3.213  1.9359  2.4091 -0.7834
  649MOL0     H87559   7.986   5.257   3.299 -1.3373 -1.7924  1.0459
  649MOL0     H87560   8.097   5.210   3.094  2.5716  1.7760  1.3114
  649MOL0     H87561   7.980   5.321   3.010  1.5429 -2.5537 -2.0733
  649MOL0     H87562   8.164   5.418   3.233 -0.4203  1.3730  0.8803
  649MOL0     H87563   8.046   5.512   3.154  0.9279  1.1716 -0.4889
  649MOL0     H87564   8.161   5.436   2.923 -0.5749  1.9083 -0.0784
  649MOL0     H87565   8.239   5.549   3.020 -0.2169 -0.1237 -1.8237
  649MOL0     H87566   8.475   5.443   3.168 -0.7121 -2.7853  1.8414
  649MOL0     H87567   8.704   5.316   3.154 -0.1950  0.1579  2.0098
  649MOL0     H87568   8.643   5.157   3.217  0.5015 -1.9492 -1.2800
  649MOL0     H87569   8.678   5.059   2.981 -1.5836  0.3421  2.4689
  649MOL0     H87570   8.726   5.214   2.927  1.9650  1.4452  1.7690
  649MOL0     H87571   8.928   5.069   2.982  2.7003  2.6756 -0.7640
  649MOL0     H87572   8.900   5.074   3.152  3.8444 -2.0427 -2.3279
  649MOL0     H87573   8.902   5.329   3.141  1.4792  0.2766 -0.0501
  649MOL0     H87574   8.935   5.313   2.970  1.0647 -2.5660 -0.6087
  649MOL0     H87575   9.036   5.148   2.838 -0.1870 -2.1425 -0.1309
  649MOL0     H87576   9.196   5.108   2.665 -2.9316  2.7620 -0.1026
  649MOL0     H87577   9.837   5.227   2.750 -1.2439 -2.2724  1.1038
  649MOL0     H87578  10.034   5.139   2.630 -0.0124  1.3588  2.8914
  649MOL0     H87579   9.948   4.902   2.261 -0.3185 -1.2368  1.7187
  649MOL0     H87580   9.987   5.083   2.253  2.4130 -0.3354  1.3756
  649MOL0     H87581  10.222   5.020   2.239  0.4828 -0.8394  0.6138
  649MOL0     H87582  10.189   4.858   2.262  0.0403 -0.1860  2.0786
  649MOL0     H87583  10.074   4.838   2.044  0.4399 -0.8949  0.9927
  649MOL0     H87584  10.122   5.001   1.999  2.0036 -0.0292 -0.9186
  649MOL0     H87585  10.295   4.767   2.058 -0.8703 -0.2908  0.3703
  649MOL0     H87586  10.357   4.934   2.079 -1.1759  0.2969  1.5636
  649MOL0     H87587  10.283   4.982   1.840 -0.1442 -0.0924 -1.7690
  649MOL0     H87588  10.226   4.811   1.827 -2.1877  0.9495  2.0930
  649MOL0     H87589  10.515   4.849   1.903 -0.0240  1.3123  0.2113
  649MOL0     H87590  10.439   4.717   1.834  1.7991 -0.0836  1.3743
  649MOL0     H87591  10.516   4.993   1.695 -2.7397  1.3207 -0.9402
  649MOL0     H87592  10.406   4.890   1.619  1.5245  0.6923 -1.4474
  649MOL0     H87593  10.613   4.841   1.520  0.4027 -0.4661  0.0579
  649MOL0     H87594  10.682   4.802   1.676 -0.6359  0.1969  0.6228
  649MOL0     H87595   9.790   4.934   2.352 -0.5380  0.6489 -0.7815
  649MOL0     H87596   9.579   5.009   2.472 -0.7628 -3.4360  2.8198
  649MOL0     H87597   9.493   5.272   2.925 -1.1797  1.8299  0.1271
  649MOL0     H87598   9.328   5.322   3.098 -0.4095 -2.1734  1.2808
  649MOL0     H87599   7.282   5.171   2.934  2.6034 -0.3664  0.6141
  649MOL0     H87600   7.053   5.157   2.866 -1.0629 -0.3837 -0.7313
  649MOL0     H87601   6.816   4.980   2.573  0.6307 -1.2107  2.8139
  649MOL0     H87602   6.628   4.922   2.430  1.9155 -0.0176  0.2883
  649MOL0     H87603   6.431   4.911   2.310  1.0941 -0.6881  0.4531
  649MOL0     H87604   6.434   5.072   2.383 -1.4303  0.7761 -1.6233
  649MOL0     H87605   6.188   4.899   2.349  0.1809 -0.4374  1.1038
  649MOL0     H87606   6.239   5.036   2.236 -2.0475 -0.5085 -0.3696
  649MOL0     H87607   6.200   5.194   2.407  0.4555  0.1561  0.4009
  649MOL0     H87608   6.171   5.075   2.535  0.9743 -1.5897 -1.1647
  649MOL0     H87609   5.984   5.191   2.471  1.4024  1.8780 -1.5006
  649MOL0     H87610   5.993   5.130   2.304  1.2011  0.2131 -0.1220
  649MOL0     H87611   5.820   4.794   2.487  0.7880 -0.6770 -2.2897
  649MOL0     H87612   6.364   4.938   2.769  1.8361 -1.5896  1.3623
  649MOL0     H87613   6.440   4.933   2.987  0.4114 -0.5572  0.2297
  649MOL0     H87614   6.613   4.928   3.023 -0.1512  0.9474  0.8084
  649MOL0     H87615   6.539   5.083   2.990  2.3832 -0.4728  1.7512
  650MOL0     O87616   1.670   9.398  10.936  0.2301  0.4317 -0.0697
  650MOL0     C87617   1.609   9.295  10.970 -0.5312 -0.3226 -0.0698
  650MOL0     O87618   1.669   9.197  11.046  0.1619  0.2574 -0.2592
  650MOL0     C87619   1.800   9.208  11.072 -0.2540 -0.2946  0.5662
  650MOL0     C87620   1.846   9.276  11.185  0.4714  0.8178 -0.6148
  650MOL0     C87621   1.971   9.259  11.237 -0.1397  0.4075  0.0758
  650MOL0     C87622   2.071   9.180  11.180 -1.1271 -0.1757 -0.1019
  650MOL0     O87623   2.196   9.209  11.222  0.2529  0.1486 -0.2071
  650MOL0     C87624   2.312   9.186  11.142 -0.5674  0.1774 -0.1952
  650MOL0     C87625   2.408   9.111  11.229 -0.2575 -0.2862  0.4580
  650MOL0     C87626   2.545   9.081  11.157 -0.3056  0.2900 -0.6546
  650MOL0     C87627   2.523   8.978  11.038 -0.5682 -0.1151 -0.3328
  650MOL0     C87628   2.652   8.922  10.984  0.4786  0.6478 -0.1557
  650MOL0     C87629   2.631   8.841  10.861  0.0525 -0.8051  0.2831
  650MOL0     C87630   2.757   8.777  10.803 -0.9412 -0.3626 -1.1502
  650MOL0     C87631   2.857   8.870  10.747  0.4851  0.4435  0.6104
  650MOL0     N87632   2.971   8.792  10.678  0.2394 -0.2261  0.4155
  650MOL0     C87633   3.096   8.778  10.726  0.0658  0.2648 -0.5937
  650MOL0     C87634   3.174   8.713  10.638  0.7801 -0.9043  0.6776
  650MOL0     C87635   3.314   8.673  10.647  0.2681 -0.0492 -1.1744
  650MOL0     C87636   3.394   8.749  10.541 -0.1510  0.9846 -0.0422
  650MOL0     C87637   3.386   8.896  10.561 -0.0024  0.4028 -0.7393
  650MOL0     C87638   3.382   8.971  10.433 -0.9070 -0.0140 -0.9002
  650MOL0     O87639   3.488   8.929  10.338  0.3448 -0.6157 -0.5389
  650MOL0     C87640   3.614   8.978  10.347  0.0425  0.3038 -0.3768
  650MOL0     C87641   3.712   8.900  10.285 -0.3712  0.3900 -0.5955
  650MOL0     C87642   3.842   8.960  10.263 -0.4583 -0.2174  0.2047
  650MOL0     C87643   3.883   9.081  10.326  0.3963  0.1361 -0.2204
  650MOL0     C87644   4.022   9.147  10.312  1.0638  0.1342  0.1657
  650MOL0     O87645   4.109   9.077  10.236 -0.3649  0.4584 -0.3499
  650MOL0     C87646   4.233   9.133  10.213  0.8562 -1.0056  0.2540
  650MOL0     C87647   4.241   9.237  10.114 -0.8123 -0.0640 -0.4006
  650MOL0     C87648   4.366   9.288  10.069 -0.3159  0.5213  0.2251
  650MOL0     C87649   4.478   9.231  10.126 -0.1469  0.6242 -0.2305
  650MOL0     O87650   4.600   9.277  10.083 -0.1487  0.1328  0.0677
  650MOL0     C87651   4.644   9.408  10.140  0.2634  1.0813  0.8172
  650MOL0     C87652   4.704   9.503  10.032 -0.1631  0.4429  0.5769
  650MOL0     C87653   4.645   9.639  10.045  0.9809 -0.3222  0.2599
  650MOL0     C87654   4.496   9.646   9.987  0.4512 -0.3868 -0.7927
  650MOL0     C87655   4.459   9.795   9.965 -0.1584 -0.5792 -0.2382
  650MOL0     C87656   4.456   9.866  10.105 -0.6909 -0.2334  0.3435
  650MOL0     C87657   4.398  10.012  10.087  0.2787  0.0081  0.3327
  650MOL0     C87658   4.457  10.129  10.175  0.2185  0.0345 -0.2417
  650MOL0    Cl87659   4.435  10.096  10.358  0.3148 -0.1182  0.3378
  650MOL0     C87660   4.472   9.131  10.227  0.7061 -0.2196 -0.1967
  650MOL0     C87661   4.348   9.081  10.261  0.3491  0.2033 -0.2993
  650MOL0     O87662   4.033   9.255  10.360 -0.2166  0.1511  0.1755
  650MOL0     C87663   3.782   9.145  10.407  0.5634 -0.8872  0.3209
  650MOL0     C87664   3.650   9.100  10.408 -0.1743  0.2540  0.2308
  650MOL0     N87665   3.097   8.685  10.528 -0.4759 -0.3866 -0.6731
  650MOL0     N87666   2.977   8.730  10.552 -1.0194  0.4251 -0.1102
  650MOL0     C87667   2.028   9.099  11.067  0.7421  0.3438  0.2079
  650MOL0     C87668   1.893   9.116  11.021  0.5403 -0.4447 -0.2315
  650MOL0     C87669   1.466   9.287  10.944  0.0239  0.3815  0.6380
  650MOL0     C87670   1.412   9.154  10.928  0.6742 -0.5791 -0.0861
  650MOL0     C87671   1.282   9.120  10.887 -0.1467 -0.2881  0.2338
  650MOL0     C87672   1.186   9.220  10.884 -0.3905 -0.0611  0.5169
  650MOL0     O87673   1.060   9.190  10.845 -0.1010 -0.3426 -1.0449
  650MOL0     C87674   0.960   9.291  10.858 -0.0769  0.0757  0.9875
  650MOL0     C87675   0.931   9.324  11.002 -0.0755  0.1935 -0.2317
  650MOL0     C87676   0.841   9.214  11.064 -0.4797  0.7572  0.7588
  650MOL0     C87677   0.907   9.133  11.177 -0.0652 -0.3098  0.0929
  650MOL0     C87678   0.823   9.026  11.229  0.8626  0.4413  0.0130
  650MOL0     C87679   0.764   8.934  11.269 -0.3871 -0.4884 -0.6331
  650MOL0     C87680   1.235   9.354  10.905 -0.1719 -0.7635  1.1614
  650MOL0     C87681   1.371   9.390  10.930  0.0943  0.1700 -0.9253
  650MOL0     C87682   1.403   9.533  10.933 -1.2528 -0.3607 -0.0271
  650MOL0     H87683   1.785   9.353  11.232  0.4753  1.1277 -1.1185
  650MOL0     H87684   2.010   9.334  11.305 -2.1089  1.3060  0.2809
  650MOL0     H87685   2.284   9.120  11.059 -2.2920 -0.2862  0.6926
  650MOL0     H87686   2.356   9.280  11.109 -0.1092  0.4631  1.1371
  650MOL0     H87687   2.366   9.016  11.262  1.6552 -1.8302 -1.2365
  650MOL0     H87688   2.423   9.168  11.321  3.4291 -1.1174  0.5286
  650MOL0     H87689   2.609   9.034  11.231  1.1133  2.0941 -0.6518
  650MOL0     H87690   2.595   9.174  11.127 -1.1565  1.7992  2.1758
  650MOL0     H87691   2.465   8.890  11.066  2.2867 -1.7967  0.6662
  650MOL0     H87692   2.458   9.026  10.964 -4.0498 -2.7477  0.7677
  650MOL0     H87693   2.724   9.000  10.959  2.4339 -0.8840  0.4750
  650MOL0     H87694   2.700   8.862  11.062  0.5297 -1.2073 -1.5386
  650MOL0     H87695   2.557   8.763  10.882  1.4190 -2.1692  0.1571
  650MOL0     H87696   2.580   8.901  10.784  2.7154  1.2724 -0.0119
  650MOL0     H87697   2.722   8.693  10.744 -2.2755 -2.9389  2.8888
  650MOL0     H87698   2.796   8.723  10.890  2.7514 -0.5920 -2.7422
  650MOL0     H87699   2.812   8.933  10.670  4.0608  0.4434 -1.7450
  650MOL0     H87700   2.896   8.930  10.829  2.0901  1.7915 -1.0431
  650MOL0     H87701   3.138   8.815  10.819  2.5423  2.7016 -2.5163
  650MOL0     H87702   3.364   8.697  10.742  0.5348  3.1505 -2.0078
  650MOL0     H87703   3.319   8.565  10.630  1.3443 -0.0495 -0.9359
  650MOL0     H87704   3.498   8.718  10.555 -0.6239 -0.6733  0.0147
  650MOL0     H87705   3.364   8.719  10.440 -0.7259 -0.2127  0.4612
  650MOL0     H87706   3.476   8.923  10.617 -2.3175  0.0767  3.6338
  650MOL0     H87707   3.296   8.927  10.616 -1.3219 -1.0198 -2.0059
  650MOL0     H87708   3.393   9.076  10.463  0.2227 -1.0146  2.7121
  650MOL0     H87709   3.285   8.964  10.382 -0.4226 -0.2342 -1.8070
  650MOL0     H87710   3.685   8.803  10.246  0.2294  0.6290 -1.6738
  650MOL0     H87711   3.910   8.908  10.195  0.5830 -0.8819  1.7001
  650MOL0     H87712   4.161   9.267  10.046  0.0599 -0.4908 -1.6472
  650MOL0     H87713   4.374   9.368   9.996  1.8918 -2.3627 -3.0143
  650MOL0     H87714   4.555   9.454  10.183 -0.0380 -0.7773  2.2756
  650MOL0     H87715   4.716   9.382  10.219  0.8649 -2.6136 -0.7909
  650MOL0     H87716   4.813   9.506  10.033 -0.0861  2.6474 -2.2069
  650MOL0     H87717   4.676   9.459   9.935  0.0213  0.9640  0.2849
  650MOL0     H87718   4.656   9.671  10.149  1.0193  0.6144 -0.0215
  650MOL0     H87719   4.714   9.710   9.998 -0.0899  1.4582  1.2645
  650MOL0     H87720   4.432   9.602  10.064  4.6235  1.1920  4.1692
  650MOL0     H87721   4.493   9.601   9.888 -0.4474 -0.5740 -0.6849
  650MOL0     H87722   4.361   9.803   9.917  0.0273 -1.8441 -0.8561
  650MOL0     H87723   4.530   9.852   9.904 -1.1862  2.3100  1.0958
  650MOL0     H87724   4.385   9.813  10.168 -0.9712 -0.8428 -0.4686
  650MOL0     H87725   4.558   9.869  10.145 -1.0045 -2.4187  1.4604
  650MOL0     H87726   4.290  10.012  10.103  0.1493  1.0211 -0.4690
  650MOL0     H87727   4.405  10.044   9.982  3.8468 -1.1688  0.0744
  650MOL0     H87728   4.563  10.135  10.151 -0.1642  0.3523 -2.0065
  650MOL0     H87729   4.406  10.222  10.151 -0.2105  0.5674  2.3783
  650MOL0     H87730   4.562   9.087  10.269 -1.1055 -2.0420  2.0257
  650MOL0     H87731   4.336   9.004  10.337  0.1950  2.3993  2.0146
  650MOL0     H87732   3.813   9.236  10.457  1.0563  1.3290 -3.5852
  650MOL0     H87733   3.576   9.159  10.463 -0.0236  0.7247 -0.0682
  650MOL0     H87734   2.093   9.024  11.023 -1.2878  1.2851 -5.1422
  650MOL0     H87735   1.851   9.054  10.943 -4.4970 -0.7766  2.3051
  650MOL0     H87736   1.473   9.064  10.936  1.2267 -0.1475  0.6713
  650MOL0     H87737   1.246   9.021  10.865 -1.8058  0.0916  1.0914
  650MOL0     H87738   0.873   9.248  10.807  1.7267 -2.4107 -0.1850
  650MOL0     H87739   0.982   9.385  10.806 -0.5481  0.9707  2.3649
  650MOL0     H87740   0.879   9.418  11.024  0.6691  0.0567  2.4809
  650MOL0     H87741   1.027   9.329  11.054 -1.4645  1.0343  2.4246
  650MOL0     H87742   0.812   9.142  10.987  0.8407  0.1150  0.8251
  650MOL0     H87743   0.743   9.251  11.093 -0.9874 -0.0025  0.0649
  650MOL0     H87744   0.994   9.079  11.138  1.5964  1.8059  0.6777
  650MOL0     H87745   0.935   9.200  11.259 -2.3295  0.8694 -0.0250
  650MOL0     H87746   0.717   8.854  11.323  2.6893 -1.6753  0.4519
  650MOL0     H87747   1.173   9.442  10.907  0.5910 -0.1708 -0.1991
  650MOL0     H87748   1.395   9.573  11.035 -1.7337 -2.8182  0.9717
  650MOL0     H87749   1.498   9.553  10.883  0.4283 -1.9035  2.3261
  650MOL0     H87750   1.325   9.585  10.877 -2.9113  1.3099  3.5249
  651MOL0     O87751   2.011   9.899   4.987 -0.2060  0.0435  0.3148
  651MOL0     C87752   2.091   9.805   4.966 -0.1864  0.2804  0.8657
  651MOL0     O87753   2.057   9.689   4.912  0.2797 -0.7530 -0.5567
  651MOL0     C87754   1.926   9.657   4.888 -0.8544  0.0644  0.1179
  651MOL0     C87755   1.840   9.739   4.802  0.4638 -0.4691 -0.0099
  651MOL0     C87756   1.719   9.685   4.746  0.7101 -0.5471  0.4380
  651MOL0     C87757   1.664   9.564   4.790 -0.2216  0.6616  0.0897
  651MOL0     O87758   1.540   9.516   4.765  0.0830  0.2923  0.2421
  651MOL0     C87759   1.469   9.547   4.640  0.0411 -0.1555  0.4458
  651MOL0     C87760   1.390   9.422   4.587  0.4748 -0.4676 -0.1612
  651MOL0     C87761   1.331   9.439   4.449  0.6108 -0.6760  0.8310
  651MOL0     C87762   1.313   9.308   4.374 -0.2188  0.5381 -0.2261
  651MOL0     C87763   1.210   9.311   4.258 -0.1891  0.3998  0.2115
  651MOL0     C87764   1.202   9.174   4.180  0.2284 -0.5627 -0.4137
  651MOL0     C87765   1.169   9.059   4.285  0.4264  0.4545  0.0416
  651MOL0     C87766   1.129   8.934   4.204 -0.8360 -0.6128 -0.9128
  651MOL0     N87767   0.979   8.932   4.198 -0.3709  0.6064  0.3207
  651MOL0     C87768   0.909   8.987   4.099 -0.2271 -0.4445  0.0482
  651MOL0     C87769   0.780   8.958   4.137 -0.7802  0.8156  0.4559
  651MOL0     C87770   0.656   8.967   4.052 -0.7072  0.1189 -0.9479
  651MOL0     C87771   0.683   9.015   3.914 -0.7564 -0.3405 -0.2104
  651MOL0     C87772   0.694   9.165   3.915 -0.1535 -0.5825  0.7320
  651MOL0     C87773   0.759   9.217   3.778  0.0101 -0.5529 -1.0815
  651MOL0     O87774   0.886   9.154   3.755  0.5719  0.1549 -0.6512
  651MOL0     C87775   0.997   9.222   3.794  0.7351  0.4589 -1.0400
  651MOL0     C87776   1.113   9.148   3.802 -0.1420 -0.3161 -0.1878
  651MOL0     C87777   1.235   9.208   3.841 -0.3344 -0.3519  0.0243
  651MOL0     C87778   1.239   9.338   3.902 -0.1402  0.0022  0.3427
  651MOL0     C87779   1.367   9.388   3.959  0.2143  0.3290 -0.1722
  651MOL0     O87780   1.474   9.308   3.957 -0.0881 -0.5580  0.1990
  651MOL0     C87781   1.591   9.363   3.993  0.0089 -0.3289  0.1989
  651MOL0     C87782   1.661   9.412   3.879  0.2505  0.5040 -0.4536
  651MOL0     C87783   1.785   9.460   3.893 -0.1822 -0.0594  0.2380
  651MOL0     C87784   1.853   9.468   4.025  0.2133  0.3545  0.6318
  651MOL0     O87785   1.971   9.526   4.056  1.2099  0.2972 -0.2010
  651MOL0     C87786   2.055   9.580   3.956 -0.1959  0.4292 -0.0253
  651MOL0     C87787   2.156   9.665   4.028  0.6026  0.4942 -0.7755
  651MOL0     C87788   2.265   9.702   3.920  0.1307 -0.1885 -1.3043
  651MOL0     C87789   2.396   9.716   3.988 -0.5383 -0.2163 -0.4232
  651MOL0     C87790   2.516   9.751   3.906 -0.1316 -0.2124  0.2116
  651MOL0     C87791   2.636   9.782   3.992 -0.2751  0.3205 -0.4760
  651MOL0     C87792   2.753   9.734   3.918 -0.0309 -0.2233  0.4594
  651MOL0     C87793   2.880   9.784   4.002  0.3276 -1.2331  0.5224
  651MOL0    Cl87794   2.892   9.713   4.158  0.4587 -0.1579  0.1787
  651MOL0     C87795   1.772   9.422   4.136  0.6836 -0.3124 -0.8302
  651MOL0     C87796   1.647   9.366   4.122  0.2922 -0.2983  0.0911
  651MOL0     O87797   1.367   9.503   4.014  0.8406 -0.4844  0.1276
  651MOL0     C87798   1.121   9.411   3.906 -0.2983  0.1740 -0.1764
  651MOL0     C87799   1.010   9.359   3.846  0.0017  0.7419  0.0522
  651MOL0     N87800   0.768   8.890   4.257 -0.2714  0.7020 -0.4583
  651MOL0     N87801   0.896   8.879   4.300 -0.3461 -0.4090  0.2809
  651MOL0     C87802   1.740   9.498   4.893  0.0060 -0.3419  0.3350
  651MOL0     C87803   1.867   9.543   4.933 -0.3082 -0.5365  0.0343
  651MOL0     C87804   2.230   9.819   5.034  0.4185 -0.3296 -0.1501
  651MOL0     C87805   2.274   9.713   5.103 -0.1216  0.7295  0.6294
  651MOL0     C87806   2.396   9.711   5.167 -0.3439 -0.3771 -0.5469
  651MOL0     C87807   2.477   9.831   5.166  0.7587  0.4501  0.2972
  651MOL0     O87808   2.599   9.852   5.230 -0.0606  0.0746  0.2210
  651MOL0     C87809   2.665   9.733   5.282  0.1962 -0.1772  0.1094
  651MOL0     C87810   2.811   9.769   5.302 -0.0907 -0.0441  0.7799
  651MOL0     C87811   2.825   9.833   5.446 -0.2768  0.5687  0.1224
  651MOL0     C87812   2.967   9.891   5.460  0.5834 -0.0735 -1.0383
  651MOL0     C87813   3.002   9.910   5.606  0.2746  0.4806  0.4180
  651MOL0     C87814   3.035   9.899   5.725 -0.8876 -0.1580  0.4120
  651MOL0     C87815   2.422   9.941   5.095 -0.0190  0.5046 -0.3216
  651MOL0     C87816   2.313   9.927   5.017 -0.0508 -0.1452  0.6460
  651MOL0     C87817   2.285  10.040   4.923  0.4409 -1.2927 -0.0311
  651MOL0     H87818   1.885   9.825   4.754 -1.0388  0.4244  0.0932
  651MOL0     H87819   1.681   9.747   4.665  3.1252  1.3318  0.6341
  651MOL0     H87820   1.402   9.631   4.661  1.9234  2.1337 -1.9176
  651MOL0     H87821   1.538   9.577   4.560  0.4900 -1.3247  0.3801
  651MOL0     H87822   1.300   9.418   4.650  0.1465 -1.9017 -0.6792
  651MOL0     H87823   1.432   9.323   4.605 -0.8305 -1.3667 -1.8049
  651MOL0     H87824   1.390   9.502   4.382  1.9104 -2.2267  0.4421
  651MOL0     H87825   1.232   9.485   4.446  1.0951  0.3751  0.3569
  651MOL0     H87826   1.413   9.274   4.345  0.6678  2.0900  0.8154
  651MOL0     H87827   1.266   9.239   4.445  0.3276 -1.6165 -1.8458
  651MOL0     H87828   1.114   9.327   4.307  0.4988 -2.0034  2.5764
  651MOL0     H87829   1.245   9.390   4.191 -1.2172  1.5195  0.9636
  651MOL0     H87830   1.125   9.197   4.106  1.0610  1.5937 -0.6802
  651MOL0     H87831   1.295   9.151   4.128  1.1945 -1.5087  1.6052
  651MOL0     H87832   1.080   9.080   4.344 -0.7176  0.1246 -1.5099
  651MOL0     H87833   1.259   9.040   4.344  0.3336 -1.3678 -0.3618
  651MOL0     H87834   1.173   8.928   4.104  1.6980 -1.4857  0.1522
  651MOL0     H87835   1.176   8.850   4.256  0.1294 -0.2318 -1.1457
  651MOL0     H87836   0.949   9.037   4.012 -0.2991  0.8836  0.7578
  651MOL0     H87837   0.605   8.870   4.052 -1.7929  0.6765 -0.7634
  651MOL0     H87838   0.584   9.037   4.095 -0.7846 -1.6828  2.1261
  651MOL0     H87839   0.775   8.965   3.879  1.2275  0.7576  2.9427
  651MOL0     H87840   0.599   8.987   3.850  0.0524 -1.1013 -0.9725
  651MOL0     H87841   0.762   9.205   3.991  2.7716  1.7068 -2.7309
  651MOL0     H87842   0.593   9.202   3.934 -0.2778 -1.3581  1.6410
  651MOL0     H87843   0.761   9.326   3.781 -2.5412 -0.4607  1.4699
  651MOL0     H87844   0.694   9.183   3.697  0.3398 -3.0637 -0.3840
  651MOL0     H87845   1.105   9.054   3.748  0.1847 -0.8476  0.6620
  651MOL0     H87846   1.323   9.147   3.821  1.0019  1.1761  0.9394
  651MOL0     H87847   1.622   9.406   3.778 -2.5530 -0.2889  0.5590
  651MOL0     H87848   1.838   9.489   3.802 -2.6547  0.0481 -1.2565
  651MOL0     H87849   2.101   9.497   3.903  1.4339 -0.2837  2.3506
  651MOL0     H87850   2.006   9.641   3.879 -1.9217 -2.6799 -1.5993
  651MOL0     H87851   2.111   9.756   4.066 -1.1930 -1.6589  2.7193
  651MOL0     H87852   2.190   9.598   4.107 -2.2754  0.8451  0.8735
  651MOL0     H87853   2.280   9.625   3.844  1.7863  0.4093 -1.6290
  651MOL0     H87854   2.251   9.785   3.851 -0.0072 -1.6580 -3.1123
  651MOL0     H87855   2.424   9.625   4.041 -0.7142  0.9490  1.7832
  651MOL0     H87856   2.386   9.793   4.065 -2.0009 -1.7879  1.0427
  651MOL0     H87857   2.495   9.842   3.849  1.6754  0.4610  0.5431
  651MOL0     H87858   2.533   9.668   3.838 -2.4846 -0.5080 -0.0658
  651MOL0     H87859   2.640   9.890   4.005 -1.6194  0.0916  2.7432
  651MOL0     H87860   2.626   9.741   4.093 -1.9743 -1.8161 -1.4186
  651MOL0     H87861   2.764   9.774   3.816 -0.5777  2.6124  1.4150
  651MOL0     H87862   2.750   9.625   3.914  0.2392 -0.2071 -0.4600
  651MOL0     H87863   2.976   9.759   3.956  0.6308 -1.6201  1.3345
  651MOL0     H87864   2.881   9.893   3.998 -0.1023 -1.2579 -1.7693
  651MOL0     H87865   1.821   9.427   4.233  0.6535  1.7949 -0.8876
  651MOL0     H87866   1.589   9.337   4.209 -3.3158  0.1002 -1.9874
  651MOL0     H87867   1.114   9.499   3.969 -2.2590 -1.0228  1.4159
  651MOL0     H87868   0.918   9.415   3.860 -0.0325  0.8732 -0.6534
  651MOL0     H87869   1.707   9.406   4.940 -0.3752 -0.7720 -0.7504
  651MOL0     H87870   1.931   9.472   4.985 -1.2014 -0.5167  1.2122
  651MOL0     H87871   2.207   9.628   5.104  0.4569  0.1945  3.4203
  651MOL0     H87872   2.429   9.616   5.210  0.4122  0.6082  1.1528
  651MOL0     H87873   2.662   9.648   5.213  2.0711 -0.6272  0.5189
  651MOL0     H87874   2.635   9.701   5.382 -0.4364  2.5014  0.8657
  651MOL0     H87875   2.847   9.840   5.227 -0.7820 -0.7423 -0.2362
  651MOL0     H87876   2.870   9.677   5.291  1.8540  1.1467  0.7263
  651MOL0     H87877   2.800   9.753   5.516 -1.2182 -0.0593 -0.9096
  651MOL0     H87878   2.747   9.907   5.466 -1.8621 -1.4672  2.0283
  651MOL0     H87879   3.038   9.821   5.415  1.0150 -0.7789  0.6559
  651MOL0     H87880   2.970   9.991   5.416  0.9567  1.6079  2.4510
  651MOL0     H87881   3.061   9.890   5.829 -0.1799  1.4885  0.4067
  651MOL0     H87882   2.485  10.029   5.086  1.0811 -0.0613  1.3835
  651MOL0     H87883   2.181  10.073   4.918  0.5547 -0.4105  2.2474
  651MOL0     H87884   2.334  10.133   4.954 -0.7265 -0.2932 -1.0573
  651MOL0     H87885   2.315  10.015   4.821 -0.2353 -0.0590 -0.5634
  652MOL0     O87886   9.228   6.450   4.807 -0.1535 -0.2377  0.6371
  652MOL0     C87887   9.240   6.506   4.914  0.3844  0.1047  0.5145
  652MOL0     O87888   9.327   6.467   5.009 -0.4848 -0.1571  0.0459
  652MOL0     C87889   9.403   6.349   4.987  0.5485 -0.3284 -0.3259
  652MOL0     C87890   9.387   6.234   5.067  0.4149  0.5226 -0.4649
  652MOL0     C87891   9.457   6.119   5.050 -0.7714  0.1350  1.3005
  652MOL0     C87892   9.563   6.125   4.962 -0.0373 -0.1129  0.6273
  652MOL0     O87893   9.640   6.015   4.961 -0.0481 -0.1759 -0.9448
  652MOL0     C87894   9.739   5.992   4.859  0.2171 -0.2605  0.4555
  652MOL0     C87895   9.813   5.864   4.897  0.4703  0.2452 -0.0864
  652MOL0     C87896   9.907   5.820   4.782 -0.2787 -1.0148  0.8023
  652MOL0     C87897   9.836   5.783   4.656 -0.9973  0.2947  0.5033
  652MOL0     C87898   9.941   5.741   4.546 -0.5634 -0.0845  0.2586
  652MOL0     C87899   9.886   5.688   4.414 -0.0834  0.8550 -0.7458
  652MOL0     C87900   9.992   5.687   4.301 -0.5111 -0.1716  0.1216
  652MOL0     C87901   9.933   5.621   4.174  0.6933 -0.0558 -0.5396
  652MOL0     N87902  10.012   5.634   4.057 -0.2982  0.0286 -0.8080
  652MOL0     C87903  10.146   5.610   4.042 -0.2758 -0.4318 -0.1735
  652MOL0     C87904  10.163   5.613   3.907  0.2964 -0.0518 -0.0549
  652MOL0     C87905  10.295   5.601   3.840  0.3497 -0.1514  0.1246
  652MOL0     C87906  10.324   5.451   3.818 -0.3932  0.0224 -0.1635
  652MOL0     C87907  10.457   5.428   3.745  0.2866 -0.6009 -0.0010
  652MOL0     C87908  10.435   5.461   3.598 -0.2651  0.7780  0.5870
  652MOL0     O87909  10.348   5.362   3.533  0.8363 -0.3666 -0.0193
  652MOL0     C87910  10.362   5.342   3.393  0.4323  0.1102  0.0836
  652MOL0     C87911  10.428   5.435   3.315 -0.1110  1.1258  0.1185
  652MOL0     C87912  10.445   5.398   3.179 -1.2566  0.0037  0.4632
  652MOL0     C87913  10.414   5.272   3.123 -1.2182 -1.4465  0.6895
  652MOL0     C87914  10.449   5.247   2.979 -0.0295  0.1465  0.7583
  652MOL0     O87915  10.372   5.150   2.913 -0.4300 -0.6573  0.1726
  652MOL0     C87916  10.413   5.109   2.782  0.1769  0.0283 -0.8066
  652MOL0     C87917  10.536   5.134   2.713 -1.3785 -0.9330  0.0492
  652MOL0     C87918  10.566   5.084   2.583 -0.6805 -0.7097  0.1846
  652MOL0     C87919  10.463   5.015   2.517  0.0897 -0.0065 -0.8399
  652MOL0     O87920  10.470   4.984   2.383  0.2627  0.0918 -0.1495
  652MOL0     C87921  10.602   4.980   2.325  0.2037 -0.2506 -1.3551
  652MOL0     C87922  10.609   4.895   2.199 -1.0895  0.5142  0.0421
  652MOL0     C87923  10.753   4.846   2.166  0.1778 -0.1973  0.0181
  652MOL0     C87924  10.853   4.974   2.137 -0.1885  0.1875 -0.8177
  652MOL0     C87925  10.980   4.916   2.074 -0.3412 -0.6361 -0.7722
  652MOL0     C87926  11.100   5.013   2.066  0.4680  0.1835  0.4072
  652MOL0     C87927  11.198   4.955   1.957 -0.1515  0.0350  0.1535
  652MOL0     C87928  11.281   5.067   1.882  0.2541  0.4850 -0.4476
  652MOL0    Cl87929  11.399   4.994   1.773 -0.5010 -0.3014 -0.3271
  652MOL0     C87930  10.340   5.000   2.580 -1.2581 -0.6287 -0.5674
  652MOL0     C87931  10.313   5.049   2.710  0.7580 -0.3994 -0.0287
  652MOL0     O87932  10.535   5.320   2.931 -0.2590  0.1453 -0.2276
  652MOL0     C87933  10.344   5.181   3.207 -0.2785 -0.5150  0.3174
  652MOL0     C87934  10.316   5.221   3.339 -0.4356 -0.8520  0.7410
  652MOL0     N87935  10.037   5.636   3.853  0.3854 -0.4528 -0.2538
  652MOL0     N87936   9.949   5.663   3.942 -0.5230  0.3393  0.3627
  652MOL0     C87937   9.582   6.237   4.881 -0.1843 -0.5052 -0.3904
  652MOL0     C87938   9.499   6.351   4.887 -0.7391  0.3969  0.0883
  652MOL0     C87939   9.152   6.624   4.943 -0.3962  0.0011 -0.5525
  652MOL0     C87940   9.162   6.685   5.073 -0.6815  0.2133  0.4899
  652MOL0     C87941   9.078   6.779   5.130  0.2939 -0.5394  0.1234
  652MOL0     C87942   8.977   6.829   5.044  0.0718 -0.2477 -0.2228
  652MOL0     O87943   8.898   6.939   5.074 -0.2567  0.1072  1.3790
  652MOL0     C87944   8.828   6.949   5.200  0.8763 -0.0778  0.0926
  652MOL0     C87945   8.780   7.081   5.238 -0.3956 -0.4111 -0.2281
  652MOL0     C87946   8.687   7.081   5.358 -0.7311  0.4072  0.0914
  652MOL0     C87947   8.620   7.206   5.373  0.5490 -0.5818 -0.1604
  652MOL0     C87948   8.558   7.216   5.508 -1.0040 -0.2361 -0.0760
  652MOL0     C87949   8.516   7.224   5.623 -0.7755  0.3726  0.5246
  652MOL0     C87950   8.963   6.775   4.915 -0.4862  0.1621 -0.1750
  652MOL0     C87951   9.048   6.674   4.859  0.3918  0.3691  0.5060
  652MOL0     C87952   9.002   6.619   4.726 -0.7077 -0.1123  0.5948
  652MOL0     H87953   9.297   6.241   5.127 -1.9195  0.7486 -3.7150
  652MOL0     H87954   9.437   6.027   5.104 -3.4607 -1.3399 -1.8399
  652MOL0     H87955   9.695   5.981   4.759 -0.6572 -3.8761  1.0784
  652MOL0     H87956   9.807   6.077   4.854  1.0667 -0.8382  1.8099
  652MOL0     H87957   9.743   5.783   4.920 -1.2499  1.5868 -0.4051
  652MOL0     H87958   9.885   5.883   4.977  1.0256 -2.2343  0.0674
  652MOL0     H87959   9.967   5.734   4.814 -1.8982 -2.0502  1.1474
  652MOL0     H87960   9.975   5.904   4.765 -1.0470 -0.6243 -0.5374
  652MOL0     H87961   9.773   5.696   4.677 -1.3441  0.4615  0.1726
  652MOL0     H87962   9.773   5.866   4.622 -1.7397 -0.1390  0.8109
  652MOL0     H87963  10.007   5.826   4.523 -0.2463  0.5983  3.3134
  652MOL0     H87964   9.990   5.651   4.583 -0.1397 -0.3823 -0.9728
  652MOL0     H87965   9.848   5.588   4.441 -1.7094  1.9231  1.2391
  652MOL0     H87966   9.801   5.746   4.377 -2.2004 -2.0175 -0.7352
  652MOL0     H87967  10.070   5.620   4.340  0.5135 -0.0646 -1.6366
  652MOL0     H87968  10.030   5.788   4.283  1.6840 -0.7026  1.3165
  652MOL0     H87969   9.918   5.515   4.196 -1.3014  0.5169  1.1811
  652MOL0     H87970   9.836   5.667   4.152  0.7461  1.0461  1.2846
  652MOL0     H87971  10.224   5.589   4.115  0.8247 -0.4509 -1.3242
  652MOL0     H87972  10.304   5.663   3.750  0.3882 -1.4561 -0.8000
  652MOL0     H87973  10.371   5.632   3.912 -1.0282  0.0530  1.5524
  652MOL0     H87974  10.340   5.400   3.913  2.7196 -0.6025 -0.8795
  652MOL0     H87975  10.241   5.396   3.773  2.0642 -2.8392 -1.6425
  652MOL0     H87976  10.491   5.325   3.759  2.3127  0.1786  1.4179
  652MOL0     H87977  10.532   5.494   3.788  1.3929 -2.9136  1.8665
  652MOL0     H87978  10.532   5.460   3.548 -0.5568 -1.0055 -0.0033
  652MOL0     H87979  10.380   5.555   3.589  0.1732  1.2728  2.5948
  652MOL0     H87980  10.470   5.529   3.347  1.3131  0.2242  0.9854
  652MOL0     H87981  10.496   5.477   3.125 -0.2012  0.1440  1.6133
  652MOL0     H87982  10.625   5.176   2.759 -1.8691  0.3431 -0.1152
  652MOL0     H87983  10.665   5.094   2.541  0.3714 -2.3177  2.1385
  652MOL0     H87984  10.637   5.082   2.307  0.3943  0.3267  1.6774
  652MOL0     H87985  10.671   4.929   2.394  0.5723  0.4397 -1.2060
  652MOL0     H87986  10.554   4.802   2.212  1.1302 -0.4822  4.1454
  652MOL0     H87987  10.570   4.957   2.118  0.0098  2.0222  0.5995
  652MOL0     H87988  10.792   4.794   2.254  0.5404 -0.0559 -0.0568
  652MOL0     H87989  10.742   4.776   2.083  0.0556  0.7644 -0.7812
  652MOL0     H87990  10.883   5.031   2.226 -0.1860 -2.3757  0.9387
  652MOL0     H87991  10.797   5.036   2.068  0.5389 -0.7603 -2.3160
  652MOL0     H87992  10.951   4.892   1.971 -0.2225 -0.2073 -0.9100
  652MOL0     H87993  11.018   4.834   2.135  0.8804  1.0378  0.8345
  652MOL0     H87994  11.068   5.114   2.039 -0.5906 -0.2375  0.0238
  652MOL0     H87995  11.148   5.021   2.163 -0.3381  0.4277  0.7944
  652MOL0     H87996  11.156   4.887   1.883 -0.7663  0.7608 -0.1843
  652MOL0     H87997  11.267   4.894   2.015 -2.3208 -1.5732  1.1830
  652MOL0     H87998  11.216   5.135   1.828  1.0492  0.8621 -0.9504
  652MOL0     H87999  11.333   5.128   1.957  0.2444 -0.9632  0.7851
  652MOL0     H88000  10.266   4.964   2.509 -0.2995 -0.5965 -1.6077
  652MOL0     H88001  10.212   5.036   2.750  0.7579  2.7802  1.3267
  652MOL0     H88002  10.321   5.084   3.164 -0.3244 -0.2492 -0.2645
  652MOL0     H88003  10.267   5.158   3.413  0.3084 -1.1197  1.0119
  652MOL0     H88004   9.671   6.242   4.818  0.1090 -0.8256 -0.0089
  652MOL0     H88005   9.515   6.434   4.818 -0.1429 -2.1087 -3.0640
  652MOL0     H88006   9.228   6.647   5.151 -1.7945  1.2802  2.0153
  652MOL0     H88007   9.076   6.812   5.234  2.2530 -0.0444  0.0374
  652MOL0     H88008   8.891   6.915   5.282 -0.6177 -2.8146  0.2221
  652MOL0     H88009   8.741   6.882   5.200  0.1140  0.8826 -0.6659
  652MOL0     H88010   8.728   7.133   5.157  1.7344  2.1634 -0.1103
  652MOL0     H88011   8.862   7.152   5.254 -0.7563 -0.2560  1.0078
  652MOL0     H88012   8.756   7.078   5.442  0.8604  1.7849 -1.1133
  652MOL0     H88013   8.621   6.993   5.368 -0.4467  0.0705 -0.8519
  652MOL0     H88014   8.694   7.285   5.360 -0.3760  0.2392 -0.5553
  652MOL0     H88015   8.540   7.224   5.301 -1.5637  3.3736  2.7439
  652MOL0     H88016   8.484   7.231   5.725 -0.6763 -0.7909  0.6498
  652MOL0     H88017   8.887   6.820   4.853  0.9994  1.3566 -1.2046
  652MOL0     H88018   8.929   6.689   4.684  2.6856  2.9370 -0.7710
  652MOL0     H88019   9.084   6.601   4.656 -0.1556 -2.4662  1.7314
  652MOL0     H88020   8.952   6.524   4.748 -2.4107  0.9573  1.5743
  653MOL0     O88021   5.065   9.658   3.068 -0.2830  0.8835 -0.2020
  653MOL0     C88022   5.067   9.763   2.998 -0.9392  0.0502 -0.8148
  653MOL0     O88023   5.178   9.807   2.937 -0.0849 -0.4464  0.6146
  653MOL0     C88024   5.294   9.736   2.959  0.1892 -0.0109 -0.8161
  653MOL0     C88025   5.347   9.644   2.867 -0.1879 -0.7335  0.1142
  653MOL0     C88026   5.463   9.570   2.904  0.1325 -0.1994 -0.3986
  653MOL0     C88027   5.525   9.582   3.031  0.2108  0.8277  0.1273
  653MOL0     O88028   5.643   9.519   3.044  0.0158  0.3423  0.1044
  653MOL0     C88029   5.710   9.528   3.170 -0.7103 -0.5957 -0.2039
  653MOL0     C88030   5.823   9.421   3.177  0.1359  0.0365  0.0533
  653MOL0     C88031   5.930   9.455   3.061  0.2242  0.1669 -0.3709
  653MOL0     C88032   6.054   9.366   3.080 -0.4995  0.3735 -1.0321
  653MOL0     C88033   6.164   9.413   2.985 -0.6715 -0.8626  0.0674
  653MOL0     C88034   6.277   9.310   2.995 -0.1304 -0.3913  0.2774
  653MOL0     C88035   6.406   9.347   2.918 -1.1902 -0.5082 -0.4588
  653MOL0     C88036   6.484   9.225   2.888 -0.2972  0.4475 -0.5340
  653MOL0     N88037   6.610   9.248   2.812 -0.0121 -0.0475 -0.1816
  653MOL0     C88038   6.707   9.321   2.861  0.0460 -0.1489 -0.1944
  653MOL0     C88039   6.815   9.301   2.775  0.9258 -1.0362  0.1181
  653MOL0     C88040   6.958   9.355   2.783 -0.0095 -0.6594  0.1004
  653MOL0     C88041   7.020   9.334   2.917  0.0842  0.1714 -0.4816
  653MOL0     C88042   7.090   9.205   2.945  0.5955  0.7848  1.1000
  653MOL0     C88043   7.207   9.197   3.036  0.9498 -1.2326  0.1478
  653MOL0     O88044   7.248   9.063   3.036  0.3921 -0.4878  0.2001
  653MOL0     C88045   7.338   9.020   2.941 -0.0831  0.1244 -0.6763
  653MOL0     C88046   7.389   8.893   2.971  0.1825 -0.5121 -0.2285
  653MOL0     C88047   7.471   8.822   2.891  0.0112  0.3763  0.2681
  653MOL0     C88048   7.515   8.885   2.772  0.7773  0.3920 -0.2433
  653MOL0     C88049   7.601   8.816   2.675 -0.0562  0.6301  0.2272
  653MOL0     O88050   7.637   8.687   2.701  0.2770 -0.5008 -0.0426
  653MOL0     C88051   7.705   8.610   2.610 -0.5018 -0.9012 -0.8894
  653MOL0     C88052   7.660   8.488   2.560 -0.5980 -0.4282 -0.2439
  653MOL0     C88053   7.729   8.420   2.460  0.1156 -0.5017  0.0528
  653MOL0     C88054   7.858   8.464   2.416  1.1965  0.0623  0.4871
  653MOL0     O88055   7.933   8.400   2.318  0.4449 -0.0614 -0.2447
  653MOL0     C88056   7.897   8.261   2.298 -0.0922  0.0121  0.2788
  653MOL0     C88057   7.968   8.206   2.176  0.5264  0.0418  0.4390
  653MOL0     C88058   8.121   8.226   2.190 -0.5715 -0.2599 -0.4221
  653MOL0     C88059   8.202   8.100   2.150  0.0972 -0.4607  0.8343
  653MOL0     C88060   8.348   8.108   2.184 -0.2429  0.5813  0.4381
  653MOL0     C88061   8.439   7.996   2.129  0.6456  0.4200 -0.4626
  653MOL0     C88062   8.586   8.004   2.165  0.8724 -0.0703  0.0051
  653MOL0     C88063   8.681   7.926   2.079  0.3358 -0.1467  0.2713
  653MOL0    Cl88064   8.693   7.984   1.907  0.2932  0.3316 -0.0636
  653MOL0     C88065   7.903   8.582   2.474  0.9881 -0.3408  0.8676
  653MOL0     C88066   7.834   8.658   2.568 -0.1543  0.3779 -0.7042
  653MOL0     O88067   7.642   8.877   2.574 -0.3721  0.4365 -0.5736
  653MOL0     C88068   7.471   9.017   2.743 -0.3911 -0.7912  1.1244
  653MOL0     C88069   7.385   9.086   2.822  0.6827 -0.7142  0.1521
  653MOL0     N88070   6.770   9.221   2.671  0.2492 -0.5117 -0.6623
  653MOL0     N88071   6.644   9.182   2.695 -0.7305  1.1759  0.0334
  653MOL0     C88072   5.468   9.677   3.121 -0.3399 -0.2034  0.3795
  653MOL0     C88073   5.358   9.755   3.081  1.6106 -0.7719 -0.0766
  653MOL0     C88074   4.948   9.848   2.980  0.3370 -0.3891  0.5074
  653MOL0     C88075   4.941   9.932   2.869 -0.4609 -0.0517  0.0888
  653MOL0     C88076   4.837  10.019   2.844  0.2618  0.0825 -0.6618
  653MOL0     C88077   4.729  10.036   2.943 -0.1324  0.9855  0.2874
  653MOL0     O88078   4.612  10.108   2.940  0.1403 -0.2279  0.5538
  653MOL0     C88079   4.554  10.152   2.815  0.2614  0.0843  0.1072
  653MOL0     C88080   4.427  10.235   2.832  0.0233 -0.0502  0.3908
  653MOL0     C88081   4.318  10.168   2.923 -0.4016 -0.1227 -0.5965
  653MOL0     C88082   4.192  10.244   2.903  0.1760 -0.0609 -0.3304
  653MOL0     C88083   4.089  10.191   2.999 -0.2885 -0.1584 -0.0298
  653MOL0     C88084   4.003  10.150   3.073 -0.2365 -0.3864  0.4527
  653MOL0     C88085   4.739   9.956   3.061 -0.5567  0.8092  0.4959
  653MOL0     C88086   4.849   9.867   3.073 -0.2578  0.3498  0.5107
  653MOL0     C88087   4.845   9.803   3.215  0.1379  0.0063  0.4397
  653MOL0     H88088   5.307   9.649   2.767 -0.0773  2.2280  0.1456
  653MOL0     H88089   5.503   9.494   2.837  1.6899 -0.0822  0.3526
  653MOL0     H88090   5.756   9.626   3.187 -1.5685  0.3710 -2.8784
  653MOL0     H88091   5.639   9.504   3.250 -2.4619 -0.8516 -1.7617
  653MOL0     H88092   5.779   9.322   3.162 -0.2546 -0.5695  4.1224
  653MOL0     H88093   5.860   9.419   3.280 -0.2541 -1.0535  0.1822
  653MOL0     H88094   5.957   9.561   3.058 -1.1619  0.5627  0.3744
  653MOL0     H88095   5.878   9.440   2.966 -2.6313 -0.1831  1.1547
  653MOL0     H88096   6.098   9.375   3.180  1.1251  0.0432 -1.6941
  653MOL0     H88097   6.031   9.259   3.069 -0.2187  0.3122 -1.0288
  653MOL0     H88098   6.124   9.433   2.885  0.2442 -1.2508 -0.3844
  653MOL0     H88099   6.195   9.509   3.026 -0.8444 -1.2004  1.0142
  653MOL0     H88100   6.294   9.269   3.095  0.0018  0.1407  0.4737
  653MOL0     H88101   6.232   9.221   2.950 -1.2362  0.8634 -1.1969
  653MOL0     H88102   6.466   9.414   2.979  0.2268 -1.4032 -0.8295
  653MOL0     H88103   6.383   9.399   2.824  1.9867  0.7736 -0.6226
  653MOL0     H88104   6.505   9.176   2.984 -1.5157  1.0383  0.0505
  653MOL0     H88105   6.419   9.159   2.831 -0.3555 -0.5545  0.6451
  653MOL0     H88106   6.715   9.370   2.958  1.7981 -1.6385  0.4539
  653MOL0     H88107   7.017   9.307   2.704  1.4933 -3.4563  2.7360
  653MOL0     H88108   6.959   9.464   2.772  0.9791 -0.4738  1.8128
  653MOL0     H88109   7.098   9.409   2.934  1.4088 -1.6598  2.2899
  653MOL0     H88110   6.944   9.363   2.990  2.3815  1.7190  1.4381
  653MOL0     H88111   7.115   9.163   2.847 -1.6886 -1.6589  1.4531
  653MOL0     H88112   7.002   9.149   2.977 -1.4425  1.4450 -2.8008
  653MOL0     H88113   7.172   9.231   3.134 -2.4211  0.8815 -1.5536
  653MOL0     H88114   7.292   9.262   3.015  1.4433 -0.6545  3.3598
  653MOL0     H88115   7.363   8.850   3.067  0.2711 -3.6014 -1.4690
  653MOL0     H88116   7.489   8.716   2.906  0.6109  0.4273 -0.1018
  653MOL0     H88117   7.564   8.453   2.598 -0.0286 -2.8027 -0.8289
  653MOL0     H88118   7.679   8.343   2.403  2.7718 -1.7688 -0.7101
  653MOL0     H88119   7.914   8.202   2.389  1.4470  0.2629  0.1888
  653MOL0     H88120   7.791   8.261   2.273 -0.0020  1.6760 -0.1908
  653MOL0     H88121   7.951   8.098   2.165  0.5489 -0.0983  1.6048
  653MOL0     H88122   7.915   8.260   2.098 -1.9732 -3.4447 -0.5500
  653MOL0     H88123   8.148   8.310   2.124 -0.7443  1.3717  1.4676
  653MOL0     H88124   8.156   8.246   2.292  2.5195  0.0556 -1.4402
  653MOL0     H88125   8.197   8.086   2.041  0.6493  0.0791  0.7340
  653MOL0     H88126   8.164   8.007   2.193  3.8957 -2.7434 -0.2810
  653MOL0     H88127   8.366   8.105   2.292  0.6494 -0.1401  0.2795
  653MOL0     H88128   8.396   8.202   2.154 -1.7830  0.8931 -1.1887
  653MOL0     H88129   8.399   7.902   2.168 -1.1461  2.0673  1.9402
  653MOL0     H88130   8.428   8.003   2.020  1.5097  0.9739 -0.5209
  653MOL0     H88131   8.599   7.967   2.267  3.3657 -0.6246 -0.4285
  653MOL0     H88132   8.610   8.111   2.163  2.1566 -0.3178 -2.5208
  653MOL0     H88133   8.783   7.940   2.114 -0.8554  2.7633  3.0616
  653MOL0     H88134   8.658   7.820   2.090 -0.8550  0.1616  0.8986
  653MOL0     H88135   7.989   8.629   2.427 -1.3299  2.2128 -1.1752
  653MOL0     H88136   7.878   8.754   2.594  1.3559 -1.0113  2.2803
  653MOL0     H88137   7.527   9.065   2.663 -0.3012  0.3820  1.8670
  653MOL0     H88138   7.368   9.191   2.799 -2.4684 -1.2644 -0.4971
  653MOL0     H88139   5.515   9.717   3.211 -0.1419  3.0370 -1.0418
  653MOL0     H88140   5.319   9.838   3.140 -0.1075 -0.6970 -1.2294
  653MOL0     H88141   5.022   9.930   2.796 -0.7246 -1.3308 -0.1921
  653MOL0     H88142   4.821  10.073   2.752  1.6125 -0.7996 -1.4343
  653MOL0     H88143   4.528  10.063   2.757  1.3705 -0.0320 -0.2294
  653MOL0     H88144   4.622  10.211   2.753  0.5436 -0.4008 -0.0483
  653MOL0     H88145   4.377  10.245   2.736 -1.3021 -0.1996  1.0469
  653MOL0     H88146   4.446  10.336   2.870 -0.7640 -0.3035  1.5252
  653MOL0     H88147   4.354  10.181   3.025  1.8879 -3.0173 -0.8937
  653MOL0     H88148   4.307  10.061   2.904 -0.9702 -0.6611  2.3580
  653MOL0     H88149   4.202  10.351   2.920 -1.7431  0.4182 -1.8792
  653MOL0     H88150   4.153  10.220   2.804 -1.2835  0.5098  0.0787
  653MOL0     H88151   3.918  10.125   3.133 -0.6470 -0.9940 -0.3684
  653MOL0     H88152   4.665   9.974   3.138 -2.4980  2.7934 -1.6951
  653MOL0     H88153   4.825   9.697   3.194  0.3100  0.3399 -1.6640
  653MOL0     H88154   4.937   9.824   3.270 -1.2747  2.6055  1.9844
  653MOL0     H88155   4.772   9.845   3.284 -0.6358  0.2925 -0.5299
  654MOL0     O88156   7.760  10.939   6.087  0.5881  0.3526 -0.0032
  654MOL0     C88157   7.837  11.031   6.116 -0.0364 -0.3843  0.8220
  654MOL0     O88158   7.967  11.039   6.071  0.6818 -0.6475 -0.3798
  654MOL0     C88159   8.039  10.933   6.005 -0.8545 -0.5323  0.0751
  654MOL0     C88160   8.001  10.801   5.980  0.0795 -0.1212  0.2211
  654MOL0     C88161   8.085  10.708   5.912  0.6044 -0.2165  0.1948
  654MOL0     C88162   8.208  10.753   5.859 -0.0081  0.1873  0.3245
  654MOL0     O88163   8.287  10.670   5.782 -0.7620  0.1140 -0.2583
  654MOL0     C88164   8.397  10.719   5.701  0.1174  0.3316 -0.2115
  654MOL0     C88165   8.435  10.609   5.610  0.4562  0.3236  0.2779
  654MOL0     C88166   8.518  10.492   5.675  0.2314 -0.0341  0.3098
  654MOL0     C88167   8.653  10.540   5.724 -0.1816 -0.2515  1.1188
  654MOL0     C88168   8.743  10.425   5.782 -0.3141 -0.2105  0.5888
  654MOL0     C88169   8.890  10.476   5.802  0.2220  0.3283 -0.4636
  654MOL0     C88170   8.894  10.585   5.916  0.2412 -0.2696 -0.1870
  654MOL0     C88171   8.888  10.503   6.043  0.6088  0.5662  0.2578
  654MOL0     N88172   8.999  10.524   6.142  0.9202 -0.7940  0.2058
  654MOL0     C88173   9.101  10.440   6.157 -0.0953 -0.4635  0.3896
  654MOL0     C88174   9.191  10.502   6.237  0.6676 -0.2029 -0.0043
  654MOL0     C88175   9.331  10.455   6.262  0.7832 -0.2555 -0.4884
  654MOL0     C88176   9.427  10.494   6.152  0.9928  0.5082 -0.2997
  654MOL0     C88177   9.454  10.638   6.144 -0.2087 -0.7111 -0.8248
  654MOL0     C88178   9.577  10.669   6.054  0.0627  0.7966  0.0106
  654MOL0     O88179   9.699  10.652   6.136  0.4299 -0.0781  0.4815
  654MOL0     C88180   9.813  10.677   6.072  0.4574 -0.7326 -0.4770
  654MOL0     C88181   9.841  10.721   5.937 -0.3400 -0.5372 -0.4480
  654MOL0     C88182   9.975  10.750   5.894 -0.9265 -0.1590 -0.0395
  654MOL0     C88183  10.082  10.729   5.986  0.6368  0.1150  0.1677
  654MOL0     C88184  10.225  10.758   5.953 -0.4692 -0.0753  0.5782
  654MOL0     O88185  10.258  10.746   5.817 -0.1854 -0.2406 -0.6328
  654MOL0     C88186  10.391  10.754   5.773 -0.5697  0.1185 -0.0512
  654MOL0     C88187  10.500  10.692   5.837  0.7739 -0.6838  0.1309
  654MOL0     C88188  10.632  10.696   5.787  0.0698 -0.8930  0.0303
  654MOL0     C88189  10.654  10.764   5.666  0.2843 -0.3294  0.2489
  654MOL0     O88190  10.782  10.764   5.622  0.3440 -0.2792 -0.1511
  654MOL0     C88191  10.814  10.874   5.536  0.6273  0.2657 -0.1480
  654MOL0     C88192  10.958  10.888   5.520  0.6122  0.6346 -0.4135
  654MOL0     C88193  11.011  10.949   5.643 -0.8712  0.5478 -0.3403
  654MOL0     C88194  11.167  10.927   5.642 -0.7628  0.0183  0.1797
  654MOL0     C88195  11.217  10.992   5.766 -0.2926  0.1968 -0.1648
  654MOL0     C88196  11.367  10.976   5.767  0.3101 -0.2495 -0.3284
  654MOL0     C88197  11.414  10.830   5.766 -0.0432 -0.3975  0.4366
  654MOL0     C88198  11.567  10.830   5.770  0.5501 -0.4350  0.1514
  654MOL0    Cl88199  11.619  10.654   5.750 -0.2313 -0.2376  0.1304
  654MOL0     C88200  10.545  10.826   5.599 -0.4511  0.0479 -0.6402
  654MOL0     C88201  10.416  10.820   5.651  0.6960  0.8158 -0.1543
  654MOL0     O88202  10.305  10.785   6.043  0.2355 -0.3982  0.3896
  654MOL0     C88203  10.058  10.679   6.114  1.3331  0.1272  1.0176
  654MOL0     C88204   9.922  10.651   6.156  0.9711  0.3553  0.6915
  654MOL0     N88205   9.139  10.627   6.267 -0.3553 -0.2316 -0.3004
  654MOL0     N88206   9.022  10.641   6.212 -0.3301 -0.6179  0.1734
  654MOL0     C88207   8.243  10.884   5.892 -0.1084  0.3218  0.2381
  654MOL0     C88208   8.172  10.967   5.977  0.4114 -0.4816  0.1600
  654MOL0     C88209   7.772  11.152   6.183 -0.9917  0.5747 -0.6985
  654MOL0     C88210   7.636  11.162   6.186 -0.7362  0.3071  0.4241
  654MOL0     C88211   7.561  11.248   6.262 -0.2974  0.8551  0.2018
  654MOL0     C88212   7.633  11.359   6.320  0.6208 -0.5363 -0.0354
  654MOL0     O88213   7.568  11.477   6.362  0.3238 -0.2823  0.0557
  654MOL0     C88214   7.501  11.463   6.487 -0.2269 -0.1565 -0.7666
  654MOL0     C88215   7.355  11.407   6.476 -0.0534 -0.5786  0.2446
  654MOL0     C88216   7.276  11.489   6.380  0.0834 -0.6899 -0.1008
  654MOL0     C88217   7.125  11.459   6.392 -0.6255 -0.3579 -0.3254
  654MOL0     C88218   7.043  11.585   6.383  0.3498 -0.6966 -0.7424
  654MOL0     C88219   6.992  11.698   6.384  0.9856  0.3181 -0.4401
  654MOL0     C88220   7.774  11.357   6.318 -1.1028 -0.2132 -0.3392
  654MOL0     C88221   7.844  11.259   6.252  0.3130  0.2788  0.0795
  654MOL0     C88222   7.995  11.269   6.253 -0.3864  0.1820  0.5363
  654MOL0     H88223   7.907  10.767   6.022  0.5597 -1.5464  0.1608
  654MOL0     H88224   8.050  10.607   5.893  0.1209 -0.1377  0.6223
  654MOL0     H88225   8.355  10.805   5.649 -1.5108  0.9603  1.9747
  654MOL0     H88226   8.487  10.745   5.757  0.1415  1.6468 -0.8225
  654MOL0     H88227   8.488  10.661   5.529  2.2922 -0.9231  0.6158
  654MOL0     H88228   8.341  10.575   5.565  1.2559 -0.2031 -1.0481
  654MOL0     H88229   8.509  10.413   5.600  1.9359 -0.2459  0.2896
  654MOL0     H88230   8.465  10.464   5.767  0.4978 -0.6020  0.2933
  654MOL0     H88231   8.693  10.583   5.631 -0.7366  0.2577  1.1038
  654MOL0     H88232   8.643  10.617   5.801 -1.2766 -0.3404  1.0781
  654MOL0     H88233   8.708  10.403   5.884  3.2772  1.4661  2.3691
  654MOL0     H88234   8.745  10.341   5.712 -1.6147  0.5397 -0.3853
  654MOL0     H88235   8.956  10.398   5.840 -1.7898 -0.5285  1.4642
  654MOL0     H88236   8.934  10.522   5.713 -0.4200 -1.1143 -1.5554
  654MOL0     H88237   8.819  10.663   5.900 -0.7381 -0.7068  1.9873
  654MOL0     H88238   8.992  10.631   5.896  0.2209 -0.3987 -0.6058
  654MOL0     H88239   8.793  10.534   6.086 -1.3106 -3.5041 -0.5596
  654MOL0     H88240   8.871  10.397   6.021 -3.6271  1.6114 -2.9351
  654MOL0     H88241   9.118  10.342   6.113  1.1305 -0.6607  1.2416
  654MOL0     H88242   9.372  10.497   6.355 -0.4430  1.9040 -0.8726
  654MOL0     H88243   9.336  10.347   6.279 -2.7565 -0.3678  0.7337
  654MOL0     H88244   9.520  10.440   6.170  0.3333 -0.7763 -0.6331
  654MOL0     H88245   9.391  10.452   6.057 -0.5633 -1.1713  0.9772
  654MOL0     H88246   9.467  10.676   6.246  0.8155  0.7539 -1.4589
  654MOL0     H88247   9.372  10.695   6.099 -0.5001  0.1388  0.7202
  654MOL0     H88248   9.572  10.772   6.018  3.2233 -0.0519 -3.5776
  654MOL0     H88249   9.585  10.609   5.962  2.7730 -0.9631  1.2768
  654MOL0     H88250   9.758  10.738   5.871 -0.7922 -0.8495  0.0335
  654MOL0     H88251  10.000  10.788   5.795 -1.7624 -0.5414 -0.4022
  654MOL0     H88252  10.477  10.625   5.919 -3.4418 -0.0231 -0.3152
  654MOL0     H88253  10.718  10.650   5.836 -0.7333 -0.1986  2.1923
  654MOL0     H88254  10.782  10.841   5.437  1.2640 -2.3670  0.4442
  654MOL0     H88255  10.781  10.976   5.557  0.7900  0.6295 -1.5639
  654MOL0     H88256  11.000  10.789   5.500 -0.9133 -0.1366  0.0748
  654MOL0     H88257  10.975  10.956   5.437  0.6152 -0.7367 -1.5747
  654MOL0     H88258  10.989  11.056   5.645  0.6544  0.9482 -2.1199
  654MOL0     H88259  10.953  10.907   5.725 -0.5523 -0.5220 -0.6524
  654MOL0     H88260  11.208  10.980   5.556  1.4893 -1.8290  0.0155
  654MOL0     H88261  11.208  10.827   5.628  0.4334  0.4888  0.1919
  654MOL0     H88262  11.178  10.944   5.856  3.3908  2.3199  2.8752
  654MOL0     H88263  11.184  11.096   5.762  1.0187  0.5880 -1.9191
  654MOL0     H88264  11.413  11.031   5.685 -1.4057 -2.1121 -2.6940
  654MOL0     H88265  11.396  11.020   5.863 -1.4461 -1.9095  1.0548
  654MOL0     H88266  11.393  10.768   5.678 -2.9238  0.3095  0.5131
  654MOL0     H88267  11.375  10.776   5.852  0.2141 -0.1310  0.7225
  654MOL0     H88268  11.612  10.885   5.687  1.1096 -0.6559  0.3066
  654MOL0     H88269  11.613  10.867   5.862  0.0011  1.4479 -0.2821
  654MOL0     H88270  10.552  10.884   5.508 -0.2758  0.3465 -0.4376
  654MOL0     H88271  10.331  10.870   5.605  2.0319  2.6868 -0.7006
  654MOL0     H88272  10.137  10.652   6.183  2.0547 -1.5536 -0.3978
  654MOL0     H88273   9.905  10.620   6.258  2.4864 -2.7075  0.1436
  654MOL0     H88274   8.337  10.923   5.851  0.7827 -1.2068  0.7642
  654MOL0     H88275   8.218  11.061   6.007  0.5607 -0.0437 -1.3321
  654MOL0     H88276   7.578  11.093   6.124 -0.5092  1.8723 -1.6227
  654MOL0     H88277   7.452  11.252   6.262 -0.4096  1.0019  3.4219
  654MOL0     H88278   7.485  11.562   6.530 -0.8667 -1.0328  1.1111
  654MOL0     H88279   7.566  11.401   6.549 -0.3864 -0.1900 -0.6325
  654MOL0     H88280   7.304  11.409   6.573 -1.6581 -1.1275 -0.5445
  654MOL0     H88281   7.350  11.304   6.439 -3.1996 -1.5262  2.7987
  654MOL0     H88282   7.298  11.469   6.274 -1.9108 -1.8124 -0.3698
  654MOL0     H88283   7.298  11.593   6.405  4.0609 -0.6293 -2.9075
  654MOL0     H88284   7.100  11.387   6.314 -2.5852  0.9878 -1.0015
  654MOL0     H88285   7.110  11.414   6.491  0.5748 -3.4133 -1.3965
  654MOL0     H88286   6.957  11.798   6.392  2.4399  0.8892 -0.9152
  654MOL0     H88287   7.835  11.439   6.355  0.2142 -0.5968 -1.5632
  654MOL0     H88288   8.032  11.365   6.289  1.1778  0.3184 -1.2860
  654MOL0     H88289   8.034  11.181   6.306  0.0484 -0.7116 -1.1808
  654MOL0     H88290   8.036  11.260   6.152 -1.0229  2.9202 -0.0318
  655MOL0     O88291   1.420   3.308   3.134  0.2138 -0.7794 -0.3090
  655MOL0     C88292   1.361   3.404   3.185  0.0381  0.1615  0.6621
  655MOL0     O88293   1.418   3.526   3.216 -0.1471  0.7138  0.5710
  655MOL0     C88294   1.548   3.533   3.250 -0.8642  0.0146 -0.0438
  655MOL0     C88295   1.622   3.651   3.225  0.6290  0.1003  0.3010
  655MOL0     C88296   1.748   3.661   3.265  0.4213 -0.4215  0.2863
  655MOL0     C88297   1.815   3.548   3.303  0.2639 -1.2545  0.7902
  655MOL0     O88298   1.938   3.546   3.332 -0.0932 -0.9395 -0.5421
  655MOL0     C88299   1.974   3.527   3.475 -0.7215 -0.1747  0.0896
  655MOL0     C88300   2.122   3.486   3.486 -0.4281 -0.5234  0.2329
  655MOL0     C88301   2.132   3.343   3.435  0.3029  0.5730  0.7243
  655MOL0     C88302   2.274   3.285   3.462  0.6606 -0.1986 -0.3601
  655MOL0     C88303   2.377   3.363   3.387 -0.6638 -0.1140  0.5990
  655MOL0     C88304   2.512   3.305   3.429  0.3416  0.6837 -0.1758
  655MOL0     C88305   2.611   3.387   3.348 -0.3101  1.1375 -0.3791
  655MOL0     C88306   2.755   3.327   3.366  0.7197  0.0991 -0.3226
  655MOL0     N88307   2.778   3.188   3.319  0.6478  0.4035 -0.6550
  655MOL0     C88308   2.811   3.093   3.401 -0.7824 -0.7361 -0.4919
  655MOL0     C88309   2.827   2.985   3.322  0.1896 -0.1013  0.0691
  655MOL0     C88310   2.869   2.849   3.375 -0.1516  0.7014 -0.1496
  655MOL0     C88311   3.014   2.843   3.426  0.3167 -0.2416  0.4609
  655MOL0     C88312   3.105   2.871   3.306 -0.1468 -0.6390 -0.6648
  655MOL0     C88313   3.247   2.863   3.349 -0.1395 -0.2109 -0.5361
  655MOL0     O88314   3.316   2.990   3.319  0.0820  0.2991 -0.6197
  655MOL0     C88315   3.450   3.001   3.338 -0.0710  0.9172 -0.0994
  655MOL0     C88316   3.534   2.911   3.401 -0.5102  0.7321 -0.6545
  655MOL0     C88317   3.667   2.946   3.433 -0.1408  0.5759  0.4716
  655MOL0     C88318   3.720   3.067   3.397  0.3621 -0.2174  0.6766
  655MOL0     C88319   3.865   3.113   3.424 -0.0431  0.2274  0.4541
  655MOL0     O88320   3.933   3.044   3.517  0.0868 -0.5485 -0.0427
  655MOL0     C88321   4.077   3.039   3.525  0.1041  0.5249  1.0235
  655MOL0     C88322   4.150   3.050   3.412  0.2528  1.1755  0.1484
  655MOL0     C88323   4.285   3.025   3.423 -0.8442 -0.8131  0.1315
  655MOL0     C88324   4.352   2.997   3.549 -0.5448  0.7192  0.2073
  655MOL0     O88325   4.487   2.972   3.539  0.3062  0.3068  0.6707
  655MOL0     C88326   4.552   2.922   3.658  0.0922  0.0418 -0.8049
  655MOL0     C88327   4.642   3.033   3.718 -0.8973 -0.1544 -0.2643
  655MOL0     C88328   4.728   2.976   3.835  0.3107  0.9724  0.4458
  655MOL0     C88329   4.838   3.077   3.869 -0.1444 -0.3914 -0.7166
  655MOL0     C88330   4.953   3.012   3.950  0.1602  0.6642  0.4960
  655MOL0     C88331   5.052   2.947   3.850 -0.7842 -0.2117 -0.0502
  655MOL0     C88332   5.161   2.872   3.920 -0.6272 -0.1992  0.8776
  655MOL0     C88333   5.131   2.782   4.030 -0.2715  0.1467 -0.1272
  655MOL0    Cl88334   5.252   2.747   4.159  0.0628  0.0592 -0.5147
  655MOL0     C88335   4.283   3.009   3.663  0.0108 -0.1613  0.5324
  655MOL0     C88336   4.135   3.017   3.653 -0.3317  0.3509 -0.1516
  655MOL0     O88337   3.907   3.217   3.368 -0.6962  0.2322  0.0574
  655MOL0     C88338   3.639   3.159   3.337  0.1770 -0.6660  0.3272
  655MOL0     C88339   3.505   3.125   3.306 -0.5124  0.2477 -0.5431
  655MOL0     N88340   2.805   3.018   3.195 -0.0047 -0.3396 -0.0773
  655MOL0     N88341   2.777   3.141   3.191  0.0425  0.4115  0.2498
  655MOL0     C88342   1.750   3.421   3.322  0.1498  0.3710 -0.4840
  655MOL0     C88343   1.618   3.424   3.300  0.3870  0.9789  0.6754
  655MOL0     C88344   1.220   3.389   3.191  0.0127 -0.4935  0.3752
  655MOL0     C88345   1.152   3.290   3.109  0.0952 -0.5532 -0.8933
  655MOL0     C88346   1.013   3.282   3.109  0.2759  0.4880  1.0892
  655MOL0     C88347   0.927   3.367   3.190 -0.0832  0.6125  0.1933
  655MOL0     O88348   0.795   3.387   3.188 -0.0837  1.1229  0.3931
  655MOL0     C88349   0.706   3.289   3.135  0.0276  0.6393  0.0152
  655MOL0     C88350   0.559   3.320   3.171  0.1589 -0.1024 -1.0690
  655MOL0     C88351   0.540   3.354   3.320 -0.0678  0.2175  0.4295
  655MOL0     C88352   0.385   3.349   3.364 -1.3898  1.0722  0.3993
  655MOL0     C88353   0.307   3.445   3.298 -1.0490  0.6560 -0.5061
  655MOL0     C88354   0.236   3.527   3.242 -0.0984 -0.0341 -0.5158
  655MOL0     C88355   0.999   3.463   3.268  1.2637  0.6491  0.1510
  655MOL0     C88356   1.142   3.468   3.272  0.4036 -0.3372 -0.2385
  655MOL0     C88357   1.202   3.559   3.380 -0.2796  0.9336  0.4733
  655MOL0     H88358   1.569   3.731   3.174  2.3487  0.3939 -1.1129
  655MOL0     H88359   1.795   3.758   3.253  0.5791 -0.5772 -0.4114
  655MOL0     H88360   1.960   3.626   3.519  0.2612  0.2041 -0.4211
  655MOL0     H88361   1.915   3.460   3.537  1.0238  0.8310  3.0330
  655MOL0     H88362   2.156   3.489   3.590  2.4745  1.7753 -0.6411
  655MOL0     H88363   2.178   3.561   3.429 -0.1170  0.0015  1.2195
  655MOL0     H88364   2.115   3.345   3.327 -0.8046 -2.1304  0.7696
  655MOL0     H88365   2.055   3.279   3.479 -0.3145 -0.0527 -1.1761
  655MOL0     H88366   2.301   3.294   3.567  1.3750  0.0936 -0.5620
  655MOL0     H88367   2.270   3.178   3.442  2.5667 -1.2553  3.7737
  655MOL0     H88368   2.364   3.354   3.278  2.4772  3.0233 -0.2378
  655MOL0     H88369   2.377   3.471   3.405  0.2564  0.0581 -0.3147
  655MOL0     H88370   2.530   3.328   3.535  1.6472  1.2330 -0.4969
  655MOL0     H88371   2.515   3.199   3.405 -1.9125  1.0389 -2.3496
  655MOL0     H88372   2.606   3.491   3.381 -2.5598  0.7681  0.6670
  655MOL0     H88373   2.584   3.372   3.244 -2.5183  1.3634  0.1190
  655MOL0     H88374   2.812   3.403   3.312  0.7883  0.5073  0.3131
  655MOL0     H88375   2.799   3.331   3.467  0.6024  0.3707 -0.2805
  655MOL0     H88376   2.829   3.089   3.508 -1.1575  5.1079  0.0794
  655MOL0     H88377   2.800   2.819   3.455 -0.8895  1.3124 -0.5462
  655MOL0     H88378   2.857   2.776   3.295  2.5307 -0.5706  0.5163
  655MOL0     H88379   3.031   2.904   3.515 -0.4019 -0.1066  0.5131
  655MOL0     H88380   3.037   2.740   3.456 -1.2941 -0.1500  2.1865
  655MOL0     H88381   3.093   2.972   3.266 -1.6804 -0.1733  0.8220
  655MOL0     H88382   3.094   2.793   3.230  1.4530 -1.6400  0.0922
  655MOL0     H88383   3.300   2.787   3.290  0.6300 -0.3671  0.3347
  655MOL0     H88384   3.247   2.835   3.455  2.6025 -1.8561 -0.8524
  655MOL0     H88385   3.510   2.806   3.416  4.0928 -0.5691 -0.9525
  655MOL0     H88386   3.742   2.883   3.479 -0.1175 -0.9332 -1.5166
  655MOL0     H88387   4.112   3.063   3.311  0.3381 -0.6188 -0.1564
  655MOL0     H88388   4.346   2.998   3.337 -0.6117 -2.5574  0.8011
  655MOL0     H88389   4.487   2.875   3.732  0.2252 -0.4473 -0.9877
  655MOL0     H88390   4.613   2.840   3.616 -0.5764  0.3650 -2.4817
  655MOL0     H88391   4.702   3.078   3.639  1.4515  0.2321  1.6201
  655MOL0     H88392   4.575   3.110   3.760 -0.5462 -1.6322  3.4070
  655MOL0     H88393   4.670   2.961   3.926 -1.2775 -0.9164 -0.7879
  655MOL0     H88394   4.775   2.882   3.803  1.7088  1.5927  0.6238
  655MOL0     H88395   4.787   3.157   3.923  0.5311 -0.1116 -0.4725
  655MOL0     H88396   4.879   3.123   3.779 -1.2068 -0.7174 -1.3851
  655MOL0     H88397   4.903   2.934   4.009  0.9992  1.3004  2.0957
  655MOL0     H88398   5.002   3.081   4.018 -0.9185 -0.4411  2.4792
  655MOL0     H88399   4.999   2.868   3.795  0.9546 -1.0042 -0.6740
  655MOL0     H88400   5.096   3.011   3.773  0.7657 -0.4147  0.6285
  655MOL0     H88401   5.231   2.950   3.952 -1.2240  0.9976 -0.6037
  655MOL0     H88402   5.219   2.821   3.844 -3.3023 -0.3670 -1.2081
  655MOL0     H88403   5.056   2.823   4.099 -0.5451 -1.7625  0.7747
  655MOL0     H88404   5.098   2.684   3.995  0.6484 -1.1664  2.4298
  655MOL0     H88405   4.322   2.988   3.762  0.9295 -0.1604  0.1819
  655MOL0     H88406   4.070   3.015   3.740  0.0435 -0.2218  0.1240
  655MOL0     H88407   3.675   3.260   3.322  1.5812 -1.1106  0.5401
  655MOL0     H88408   3.443   3.209   3.274  0.6633  1.5776  0.5193
  655MOL0     H88409   1.798   3.334   3.366  0.8269 -0.0233 -1.9616
  655MOL0     H88410   1.566   3.331   3.319  1.2213  0.3340 -0.1313
  655MOL0     H88411   1.197   3.219   3.040 -0.5052  0.2790 -2.1864
  655MOL0     H88412   0.949   3.214   3.051 -1.0180 -1.4441  4.4972
  655MOL0     H88413   0.727   3.187   3.168 -2.2506  0.7899  2.1984
  655MOL0     H88414   0.725   3.275   3.028  2.3896 -0.1952  0.4746
  655MOL0     H88415   0.510   3.224   3.152  1.0545 -0.9337  0.6503
  655MOL0     H88416   0.510   3.403   3.117 -0.2801 -0.6047 -1.4534
  655MOL0     H88417   0.583   3.450   3.350  1.8171 -0.5296  0.2839
  655MOL0     H88418   0.590   3.274   3.375 -0.6864 -1.2707 -1.0703
  655MOL0     H88419   0.339   3.253   3.339 -1.1741  1.0337  0.1418
  655MOL0     H88420   0.387   3.361   3.473  0.3641  2.2902  0.2640
  655MOL0     H88421   0.173   3.596   3.191  1.3828  0.1394 -2.2230
  655MOL0     H88422   0.941   3.543   3.313 -0.1024  0.3116 -0.9433
  655MOL0     H88423   1.295   3.530   3.429 -1.9099 -0.3946  3.0220
  655MOL0     H88424   1.209   3.660   3.339  5.5566  0.3713 -0.6944
  655MOL0     H88425   1.126   3.564   3.458 -3.0522  2.0746 -2.0758
  656MOL0     O88426   5.120   3.760  11.168  0.0890  0.0010 -0.8604
  656MOL0     C88427   5.146   3.661  11.104 -0.7823 -0.0197 -0.0200
  656MOL0     O88428   5.250   3.659  11.013 -0.2960  0.1862 -0.3217
  656MOL0     C88429   5.345   3.752  11.023 -0.0739  0.1665 -0.7404
  656MOL0     C88430   5.479   3.712  11.043  0.5314  0.4769  0.3857
  656MOL0     C88431   5.588   3.798  11.050  0.2436 -0.1464 -0.2576
  656MOL0     C88432   5.559   3.935  11.028 -0.3941 -0.1281 -1.0425
  656MOL0     O88433   5.647   4.040  11.034 -1.0326  1.5474  0.7294
  656MOL0     C88434   5.784   3.997  11.061 -0.0026  0.2410 -0.5309
  656MOL0     C88435   5.872   4.120  11.099  0.4943  0.1710 -0.0984
  656MOL0     C88436   6.013   4.081  11.157  0.3862 -0.3826  0.1175
  656MOL0     C88437   6.084   4.214  11.171  0.1099 -0.3753 -0.3235
  656MOL0     C88438   6.231   4.196  11.224  0.4629 -0.5115 -0.0941
  656MOL0     C88439   6.237   4.127  11.358 -0.8984 -0.6158  0.0653
  656MOL0     C88440   6.381   4.121  11.423  0.0841  0.0063 -0.3288
  656MOL0     C88441   6.401   4.026  11.541 -0.0032  0.4612  0.1001
  656MOL0     N88442   6.458   3.901  11.491  0.3538  1.0816 -0.2654
  656MOL0     C88443   6.585   3.885  11.454 -0.3245  1.0629  0.5274
  656MOL0     C88444   6.593   3.759  11.399 -0.0892 -1.0274  1.0078
  656MOL0     C88445   6.715   3.691  11.343  0.0964 -0.1331  0.9094
  656MOL0     C88446   6.848   3.696  11.435  0.2392 -0.1358  0.2446
  656MOL0     C88447   6.941   3.604  11.354 -0.4447  0.5162 -0.2985
  656MOL0     C88448   7.079   3.592  11.420 -0.2321 -0.8229 -0.6446
  656MOL0     O88449   7.149   3.723  11.431  0.3920  1.2118  0.1953
  656MOL0     C88450   7.283   3.717  11.459 -0.0436 -0.0190 -0.5597
  656MOL0     C88451   7.365   3.794  11.378 -0.0892  0.1840 -0.1509
  656MOL0     C88452   7.505   3.778  11.379 -0.1074  0.7325  0.2517
  656MOL0     C88453   7.562   3.688  11.480 -0.3471 -0.2404  0.2137
  656MOL0     C88454   7.713   3.680  11.491 -0.0021 -0.0791 -0.9417
  656MOL0     O88455   7.758   3.558  11.536 -0.6811  0.7772  0.4303
  656MOL0     C88456   7.890   3.517  11.511  1.0076 -0.1456 -0.5800
  656MOL0     C88457   7.922   3.482  11.375 -0.2094  0.0951  0.1564
  656MOL0     C88458   8.030   3.405  11.334  0.6985  0.3949  0.8345
  656MOL0     C88459   8.127   3.372  11.425  0.1227  0.3923  0.0643
  656MOL0     O88460   8.242   3.296  11.410 -0.1851 -0.5976  0.4212
  656MOL0     C88461   8.296   3.295  11.276 -0.0392  0.1773  0.8627
  656MOL0     C88462   8.440   3.229  11.268  0.8956  1.1853  0.6230
  656MOL0     C88463   8.532   3.305  11.361  0.1079 -0.8604 -0.2412
  656MOL0     C88464   8.662   3.230  11.341 -0.3847 -0.9142 -0.7256
  656MOL0     C88465   8.773   3.295  11.433  0.9831 -0.8468 -0.0049
  656MOL0     C88466   8.896   3.209  11.419  0.7803  0.3247 -0.1965
  656MOL0     C88467   9.005   3.258  11.512 -0.9192 -0.0506 -0.3829
  656MOL0     C88468   9.098   3.137  11.530 -0.2009  0.5571  0.3976
  656MOL0    Cl88469   9.216   3.184  11.646  0.2609 -0.2335 -0.0212
  656MOL0     C88470   8.104   3.408  11.555  0.6594 -0.2999  1.3588
  656MOL0     C88471   7.984   3.469  11.597 -0.5573 -0.6550 -1.3393
  656MOL0     O88472   7.781   3.757  11.422  0.5463  0.4617 -0.6525
  656MOL0     C88473   7.474   3.614  11.558  0.2445  0.1165  1.3147
  656MOL0     C88474   7.339   3.628  11.552 -0.5879  0.3244 -0.2024
  656MOL0     N88475   6.463   3.704  11.409 -1.0130  0.3228 -0.3021
  656MOL0     N88476   6.386   3.798  11.459  0.1538  1.0450  0.4000
  656MOL0     C88477   5.427   3.977  11.008 -0.2312  0.5883  0.5901
  656MOL0     C88478   5.324   3.888  11.005 -0.8697  1.0342 -0.2307
  656MOL0     C88479   5.048   3.549  11.100 -0.3460  0.8472  0.2720
  656MOL0     C88480   5.022   3.492  10.976 -0.3112  0.1949  1.0857
  656MOL0     C88481   4.928   3.397  10.953  0.0309 -0.6471 -0.0511
  656MOL0     C88482   4.855   3.347  11.061  0.3260 -0.1498  0.2498
  656MOL0     O88483   4.765   3.246  11.059  0.1105 -0.0622  0.1812
  656MOL0     C88484   4.748   3.160  10.940 -0.5553 -0.4719 -0.3250
  656MOL0     C88485   4.677   3.034  10.992 -0.4709  0.9753  0.1798
  656MOL0     C88486   4.548   3.056  11.068  0.0018 -0.7054  0.4367
  656MOL0     C88487   4.484   2.929  11.106 -0.6977 -0.1451  0.3143
  656MOL0     C88488   4.477   2.917  11.254  0.0601 -0.4988  0.0316
  656MOL0     C88489   4.488   2.911  11.376  0.8556 -0.0510 -0.4880
  656MOL0     C88490   4.876   3.409  11.192  0.2565 -0.6597 -0.2712
  656MOL0     C88491   4.964   3.517  11.209  0.7314  1.2989  0.3522
  656MOL0     C88492   4.984   3.570  11.351 -0.3387  1.3903 -0.0714
  656MOL0     H88493   5.483   3.604  11.042  1.7430  0.4212  2.6152
  656MOL0     H88494   5.682   3.745  11.043 -1.0256 -2.4425 -1.0732
  656MOL0     H88495   5.789   3.925  11.143 -3.4962 -1.5654 -1.6949
  656MOL0     H88496   5.838   3.958  10.974 -1.2229  0.0371 -1.2167
  656MOL0     H88497   5.821   4.183  11.172 -0.4189  0.1218 -0.6855
  656MOL0     H88498   5.880   4.180  11.008  0.1889  2.0654  1.0736
  656MOL0     H88499   6.057   4.018  11.079 -0.4849  1.9272 -2.3997
  656MOL0     H88500   6.005   4.025  11.250 -3.2792  0.1091  0.2544
  656MOL0     H88501   6.080   4.269  11.077 -0.6542  2.7597  1.3999
  656MOL0     H88502   6.025   4.278  11.237 -0.5115 -2.0579  0.8356
  656MOL0     H88503   6.283   4.137  11.148  0.2100 -0.9703  0.0893
  656MOL0     H88504   6.280   4.294  11.223 -1.8211  0.6978 -0.8340
  656MOL0     H88505   6.171   4.186  11.423 -0.3874 -0.9715  0.9207
  656MOL0     H88506   6.207   4.023  11.341  1.3228 -1.1022 -1.2466
  656MOL0     H88507   6.404   4.221  11.460  0.2147 -0.0082 -0.3672
  656MOL0     H88508   6.445   4.081  11.343  0.2651 -1.8661  0.7042
  656MOL0     H88509   6.469   4.077  11.611  0.6413  0.5620 -0.5859
  656MOL0     H88510   6.303   4.008  11.587 -0.1179  1.2318  0.1777
  656MOL0     H88511   6.660   3.962  11.437  3.7051 -1.7804  3.3464
  656MOL0     H88512   6.694   3.587  11.316  3.2745 -0.5247 -0.4582
  656MOL0     H88513   6.736   3.745  11.250 -1.3218  0.4685  0.9149
  656MOL0     H88514   6.878   3.800  11.449 -0.8880  0.7072 -2.8309
  656MOL0     H88515   6.834   3.662  11.539  2.5838  0.7150  0.8845
  656MOL0     H88516   6.950   3.642  11.252 -2.1481 -1.4182 -1.2485
  656MOL0     H88517   6.908   3.500  11.355  1.6485 -0.2794 -2.5123
  656MOL0     H88518   7.136   3.520  11.361 -0.9948 -1.6617 -0.3806
  656MOL0     H88519   7.061   3.557  11.522  0.2708  1.8245  0.4461
  656MOL0     H88520   7.309   3.854  11.307 -0.5723 -2.0830 -1.7721
  656MOL0     H88521   7.567   3.820  11.301  0.9575  0.7261  1.0622
  656MOL0     H88522   7.835   3.510  11.317 -0.9069 -0.6416  0.8169
  656MOL0     H88523   8.038   3.376  11.229  0.4804  0.4123  0.8132
  656MOL0     H88524   8.224   3.227  11.230  2.4439 -1.8741 -0.3039
  656MOL0     H88525   8.286   3.395  11.233  0.4520  1.0612  2.6918
  656MOL0     H88526   8.420   3.125  11.294  0.3434  0.8385 -1.0713
  656MOL0     H88527   8.478   3.233  11.166  0.6661 -0.3626  0.4667
  656MOL0     H88528   8.537   3.408  11.324 -0.0402  0.1618  2.3651
  656MOL0     H88529   8.494   3.309  11.464 -0.3697 -0.4055 -0.4318
  656MOL0     H88530   8.687   3.223  11.235 -2.8919  1.1219 -1.5421
  656MOL0     H88531   8.658   3.130  11.384 -1.6612 -0.5917 -0.0635
  656MOL0     H88532   8.745   3.302  11.538  0.1163 -1.5186 -0.1776
  656MOL0     H88533   8.788   3.397  11.397 -1.0723  0.0996  1.6631
  656MOL0     H88534   8.868   3.109  11.454 -0.2497  1.4037  2.2907
  656MOL0     H88535   8.928   3.197  11.315  4.8950 -1.7370  1.1211
  656MOL0     H88536   8.965   3.304  11.602 -0.0892 -0.7571  0.3648
  656MOL0     H88537   9.058   3.331  11.449 -0.2963 -1.1406 -1.1585
  656MOL0     H88538   9.039   3.060  11.580  1.4583 -1.7378 -1.0035
  656MOL0     H88539   9.144   3.095  11.441  0.3209 -0.2292  1.0231
  656MOL0     H88540   8.176   3.369  11.627  2.4732 -1.7859 -1.0849
  656MOL0     H88541   7.967   3.474  11.704  0.9622  1.5670 -1.1404
  656MOL0     H88542   7.516   3.551  11.636 -1.1175 -2.1738  0.3139
  656MOL0     H88543   7.286   3.562  11.620 -0.7886 -1.0435 -1.6329
  656MOL0     H88544   5.400   4.081  10.995  0.8228  0.7137 -0.9449
  656MOL0     H88545   5.226   3.930  10.981 -1.2204  2.3151  2.9203
  656MOL0     H88546   5.083   3.511  10.888 -1.2647 -2.2114 -0.1674
  656MOL0     H88547   4.915   3.356  10.854  2.7603 -0.6192 -0.4934
  656MOL0     H88548   4.844   3.142  10.889 -0.0578 -0.1877  0.4945
  656MOL0     H88549   4.688   3.218  10.869  2.9479  0.0308 -3.1753
  656MOL0     H88550   4.745   2.967  11.046 -3.0551 -1.0491  1.0887
  656MOL0     H88551   4.654   2.972  10.906 -0.1931 -0.6901  1.2725
  656MOL0     H88552   4.484   3.115  11.002  1.0454 -2.0834 -1.9092
  656MOL0     H88553   4.572   3.121  11.153 -1.0833  1.6407 -0.9351
  656MOL0     H88554   4.386   2.943  11.059  0.7605  1.0406 -2.6152
  656MOL0     H88555   4.528   2.840  11.060 -1.4965  0.3874 -1.5985
  656MOL0     H88556   4.505   2.909  11.482  2.5422 -0.1826 -0.7369
  656MOL0     H88557   4.817   3.375  11.277 -0.4106  1.5298  0.2046
  656MOL0     H88558   4.963   3.677  11.351  0.5013  1.5617 -0.0028
  656MOL0     H88559   4.917   3.519  11.421 -0.0770  0.2485 -0.6237
  656MOL0     H88560   5.087   3.556  11.387 -1.4096 -1.8164  2.1914
  657MOL0     O88561   3.278   8.707   6.665 -0.1819  0.4866 -0.3083
  657MOL0     C88562   3.244   8.600   6.622  0.3122 -0.0450 -0.3829
  657MOL0     O88563   3.321   8.488   6.620 -0.0607  0.3213  0.3597
  657MOL0     C88564   3.428   8.478   6.699 -0.1793  0.3658 -1.3914
  657MOL0     C88565   3.439   8.514   6.833  0.4580 -0.4228 -0.8082
  657MOL0     C88566   3.559   8.478   6.897 -0.2038 -0.1782 -0.1060
  657MOL0     C88567   3.668   8.428   6.824  0.6177 -0.5425  0.0475
  657MOL0     O88568   3.781   8.414   6.904 -0.3056 -0.3276 -0.7954
  657MOL0     C88569   3.900   8.360   6.847  0.0262 -0.4611  0.0148
  657MOL0     C88570   3.989   8.319   6.963 -0.3473 -0.5750  0.8758
  657MOL0     C88571   4.010   8.438   7.057  0.2052 -0.8578 -0.1416
  657MOL0     C88572   3.911   8.439   7.179 -0.0984 -0.3508  0.0539
  657MOL0     C88573   3.948   8.564   7.263 -0.5394  0.5802 -0.4753
  657MOL0     C88574   4.001   8.527   7.403  0.1184  0.1322 -0.3783
  657MOL0     C88575   4.127   8.453   7.402 -0.5145  0.3428  0.2119
  657MOL0     C88576   4.196   8.446   7.538 -0.4530  0.7249 -0.0207
  657MOL0     N88577   4.140   8.359   7.640 -0.7509 -0.3049  0.0127
  657MOL0     C88578   4.155   8.221   7.642 -0.2092  0.2523 -0.3201
  657MOL0     C88579   4.098   8.178   7.759  0.0422 -0.0399 -0.2443
  657MOL0     C88580   4.063   8.036   7.793  0.4063 -0.9860 -0.0307
  657MOL0     C88581   4.188   7.960   7.824  0.1491 -0.7495  0.1751
  657MOL0     C88582   4.151   7.818   7.864  0.3265 -0.3241 -0.8795
  657MOL0     C88583   4.274   7.732   7.877  0.8350 -0.3101 -0.2532
  657MOL0     O88584   4.363   7.766   7.981  0.7731 -0.1543 -0.4403
  657MOL0     C88585   4.474   7.846   7.957 -0.4984 -0.1664 -0.1089
  657MOL0     C88586   4.530   7.892   7.837 -0.7264  0.3159 -0.7721
  657MOL0     C88587   4.643   7.974   7.832  0.4226 -0.0467 -0.7180
  657MOL0     C88588   4.709   8.004   7.952 -0.9139 -0.0421  0.3589
  657MOL0     C88589   4.850   8.069   7.944  0.5547 -0.2304 -0.3760
  657MOL0     O88590   4.892   8.115   8.064 -0.0373  0.3418 -0.2213
  657MOL0     C88591   5.014   8.177   8.055 -0.7529  0.2282  0.9186
  657MOL0     C88592   5.140   8.114   8.065  0.6743 -0.6187 -0.4417
  657MOL0     C88593   5.263   8.182   8.042 -0.0361  0.9020 -0.0252
  657MOL0     C88594   5.267   8.317   8.022 -0.0073  0.1978  0.7475
  657MOL0     O88595   5.382   8.386   7.989  0.6282  0.7767  0.1348
  657MOL0     C88596   5.485   8.313   7.920  0.3385 -0.8812 -0.2368
  657MOL0     C88597   5.588   8.409   7.838  0.5048 -0.2967  0.5132
  657MOL0     C88598   5.646   8.538   7.908 -0.5993  0.2379  0.2402
  657MOL0     C88599   5.720   8.620   7.798  0.4522 -0.1216 -0.4602
  657MOL0     C88600   5.785   8.740   7.874 -0.0244  0.1146 -0.0945
  657MOL0     C88601   5.880   8.819   7.778 -0.1426 -0.2749  0.1702
  657MOL0     C88602   5.950   8.944   7.842 -0.7107  0.0443  0.6307
  657MOL0     C88603   5.843   9.045   7.885 -0.7365 -0.7731 -0.1309
  657MOL0    Cl88604   5.909   9.191   7.947 -0.1225 -0.0059 -0.3597
  657MOL0     C88605   5.139   8.382   8.019  0.5803  0.2542 -0.6741
  657MOL0     C88606   5.016   8.310   8.025 -0.4868 -0.9459  0.1439
  657MOL0     O88607   4.908   8.071   7.839 -0.4505 -0.1736  0.5072
  657MOL0     C88608   4.654   7.974   8.074  0.2119  0.2745  0.3699
  657MOL0     C88609   4.533   7.897   8.077  0.4057  0.0444 -0.1441
  657MOL0     N88610   4.055   8.288   7.824  0.0871 -0.0361  0.8497
  657MOL0     N88611   4.075   8.399   7.758 -0.7084 -0.3832  0.6726
  657MOL0     C88612   3.660   8.397   6.687 -0.3753  0.2706  0.4394
  657MOL0     C88613   3.533   8.414   6.633 -0.8630 -0.0378  0.7511
  657MOL0     C88614   3.104   8.596   6.567 -0.1520  0.2810  0.0041
  657MOL0     C88615   3.066   8.464   6.528  0.6544 -0.2206  0.0862
  657MOL0     C88616   2.935   8.446   6.472  0.5326  0.1542 -0.8045
  657MOL0     C88617   2.844   8.552   6.456  0.6393  0.2161  0.5702
  657MOL0     O88618   2.719   8.531   6.405  0.2029  0.8216  0.1318
  657MOL0     C88619   2.688   8.586   6.281  0.2117  0.2964 -0.2223
  657MOL0     C88620   2.581   8.498   6.215  0.3774  0.4459  0.7154
  657MOL0     C88621   2.618   8.352   6.187  0.4874  0.2106 -0.9276
  657MOL0     C88622   2.733   8.328   6.082 -0.1224  0.2155 -0.7125
  657MOL0     C88623   2.668   8.342   5.953  0.0081  0.6422 -0.1670
  657MOL0     C88624   2.625   8.343   5.839 -0.4817 -0.0972 -0.0498
  657MOL0     C88625   2.887   8.678   6.495 -0.5126 -0.3643  0.1927
  657MOL0     C88626   3.010   8.701   6.554 -0.5744 -0.3766  0.1618
  657MOL0     C88627   3.037   8.843   6.594 -0.2635 -0.6481  0.9310
  657MOL0     H88628   3.368   8.583   6.878  1.7798  1.1336 -1.0128
  657MOL0     H88629   3.559   8.500   7.003 -2.5313 -0.5139  0.0270
  657MOL0     H88630   3.878   8.280   6.777  0.0321 -0.2330 -0.2508
  657MOL0     H88631   3.957   8.440   6.799 -0.2447 -1.1014 -1.4344
  657MOL0     H88632   4.082   8.285   6.915  1.3190  3.0727  1.2085
  657MOL0     H88633   3.946   8.234   7.016  0.4041 -2.4564 -1.3364
  657MOL0     H88634   4.013   8.540   7.018  1.0652 -0.4689  0.8868
  657MOL0     H88635   4.113   8.424   7.092  1.6997  1.7900 -3.0440
  657MOL0     H88636   3.811   8.454   7.140  0.1022 -0.9218 -0.6944
  657MOL0     H88637   3.916   8.342   7.229 -1.7490  0.0233  1.0209
  657MOL0     H88638   4.019   8.634   7.216  2.8649 -2.4128 -0.2278
  657MOL0     H88639   3.858   8.623   7.279 -0.6825  0.3836 -0.5642
  657MOL0     H88640   4.009   8.621   7.458 -1.3358 -0.4587  0.9202
  657MOL0     H88641   3.936   8.455   7.454  1.2709 -0.5076  0.2118
  657MOL0     H88642   4.200   8.506   7.341 -0.7763  0.5644  0.0902
  657MOL0     H88643   4.105   8.354   7.360 -2.3838  0.8317 -0.0379
  657MOL0     H88644   4.298   8.415   7.516 -0.5039 -0.6613  1.5369
  657MOL0     H88645   4.203   8.549   7.575 -0.5991  0.4736  0.7304
  657MOL0     H88646   4.189   8.159   7.560 -2.0671 -0.0333 -0.9235
  657MOL0     H88647   3.983   8.034   7.868 -0.1773  0.2457 -0.5908
  657MOL0     H88648   4.010   8.005   7.702 -1.2310 -0.0298  0.5520
  657MOL0     H88649   4.247   7.972   7.733  0.4677  4.0115  0.7487
  657MOL0     H88650   4.246   8.003   7.907  1.1802  0.2081 -1.0051
  657MOL0     H88651   4.082   7.770   7.794 -0.3594 -2.0420  0.8990
  657MOL0     H88652   4.105   7.824   7.963  0.8360 -1.7894 -0.5251
  657MOL0     H88653   4.327   7.721   7.782 -1.1379  2.1144 -1.7674
  657MOL0     H88654   4.227   7.635   7.894  1.3425 -1.0324 -2.5994
  657MOL0     H88655   4.469   7.864   7.751  1.6119  2.3775 -3.3060
  657MOL0     H88656   4.687   8.015   7.742  2.0331 -2.2193 -1.0076
  657MOL0     H88657   5.142   8.008   8.091  2.0411 -0.1636  1.6216
  657MOL0     H88658   5.348   8.117   8.027 -0.5227 -0.7561  3.4583
  657MOL0     H88659   5.544   8.266   7.999 -0.3240 -0.1373  0.7245
  657MOL0     H88660   5.439   8.243   7.849  0.9602 -1.8142  0.2631
  657MOL0     H88661   5.660   8.347   7.785 -0.8887 -2.9074  1.4992
  657MOL0     H88662   5.532   8.452   7.754  0.3436 -1.6589 -0.1121
  657MOL0     H88663   5.565   8.597   7.952 -3.3769  0.0800 -4.0082
  657MOL0     H88664   5.715   8.509   7.987 -0.4823 -2.5413 -0.7529
  657MOL0     H88665   5.653   8.665   7.724  1.7697  2.0123 -0.4250
  657MOL0     H88666   5.795   8.556   7.750 -0.7818 -2.9490  1.1199
  657MOL0     H88667   5.842   8.705   7.960 -0.2806 -0.2705 -0.0782
  657MOL0     H88668   5.708   8.810   7.907  1.1449  0.5878  1.7429
  657MOL0     H88669   5.957   8.747   7.751 -0.0258  0.4003 -1.3697
  657MOL0     H88670   5.830   8.849   7.685  0.2097  0.2753  0.1523
  657MOL0     H88671   6.029   8.991   7.783  0.7733  1.2157  3.3797
  657MOL0     H88672   5.998   8.910   7.934 -0.6202 -0.2797  0.4654
  657MOL0     H88673   5.782   9.069   7.798  1.4104 -0.6047 -1.6808
  657MOL0     H88674   5.775   9.004   7.960 -1.7960 -0.0262 -0.6506
  657MOL0     H88675   5.140   8.487   7.992 -0.1322  0.0589 -1.5243
  657MOL0     H88676   4.918   8.352   8.001 -2.8072 -4.6942  2.0809
  657MOL0     H88677   4.689   8.004   8.172 -1.7598 -0.2082  1.2714
  657MOL0     H88678   4.505   7.866   8.177  0.9763  1.4160  0.4761
  657MOL0     H88679   3.731   8.337   6.630 -0.0942  2.9441 -2.2898
  657MOL0     H88680   3.523   8.357   6.541  0.5352  1.7468 -0.5554
  657MOL0     H88681   3.133   8.378   6.526 -1.6049 -2.0505 -1.6652
  657MOL0     H88682   2.896   8.347   6.452 -0.8417  0.6189 -0.5010
  657MOL0     H88683   2.777   8.598   6.218  0.9925 -1.6959  0.4146
  657MOL0     H88684   2.645   8.684   6.301 -1.5855 -0.7628  1.4721
  657MOL0     H88685   2.555   8.547   6.120 -0.0910 -1.8657 -0.4280
  657MOL0     H88686   2.489   8.505   6.273 -1.5070  2.6075 -2.2305
  657MOL0     H88687   2.529   8.296   6.158  1.3253 -1.2741 -0.7545
  657MOL0     H88688   2.643   8.301   6.281 -2.6809 -1.2679 -0.7559
  657MOL0     H88689   2.813   8.403   6.081  1.1276 -1.0684 -0.5366
  657MOL0     H88690   2.778   8.229   6.093  1.0097  0.9415  1.8564
  657MOL0     H88691   2.597   8.363   5.737 -3.2456 -2.5115  0.0991
  657MOL0     H88692   2.812   8.757   6.489 -0.0631 -0.0282 -2.1967
  657MOL0     H88693   3.137   8.878   6.565 -1.6518  1.0674 -2.4418
  657MOL0     H88694   2.960   8.902   6.543 -1.4733 -2.8161  0.1180
  657MOL0     H88695   3.022   8.850   6.702  0.3043 -1.2529  1.0565
  658MOL0     O88696   1.264   7.352   0.508 -0.3711  0.3648 -0.4870
  658MOL0     C88697   1.195   7.253   0.495  0.6831 -0.1095  0.4889
  658MOL0     O88698   1.249   7.134   0.450  0.0958  0.8152 -0.4596
  658MOL0     C88699   1.384   7.120   0.441 -0.4049  0.4039  1.0251
  658MOL0     C88700   1.471   7.104   0.544  1.1654 -0.3153  0.8097
  658MOL0     C88701   1.606   7.114   0.531 -0.3840 -0.4554  0.3750
  658MOL0     C88702   1.666   7.140   0.405 -0.1123  0.1265  0.5354
  658MOL0     O88703   1.795   7.160   0.377 -0.1790 -0.2622 -0.1686
  658MOL0     C88704   1.858   7.257   0.457 -0.7205  0.3256 -0.0291
  658MOL0     C88705   1.954   7.342   0.364 -0.1754  0.1830  0.1393
  658MOL0     C88706   2.104   7.302   0.368  0.6317 -0.1621  0.1080
  658MOL0     C88707   2.170   7.408   0.280 -0.2986 -0.0271 -0.2663
  658MOL0     C88708   2.322   7.385   0.270  0.4335  0.0050 -0.4249
  658MOL0     C88709   2.389   7.485   0.175 -0.1303  0.3446  0.4038
  658MOL0     C88710   2.436   7.609   0.251  0.5578 -1.1947 -0.3607
  658MOL0     C88711   2.492   7.711   0.145  0.0398 -1.1779  0.2834
  658MOL0     N88712   2.625   7.747   0.157  0.1251  0.1316  0.5040
  658MOL0     C88713   2.718   7.654   0.118  0.0495 -0.3402  0.0728
  658MOL0     C88714   2.834   7.722   0.139  0.3701 -0.0752  0.6476
  658MOL0     C88715   2.972   7.656   0.111  0.5122 -0.3776  0.4350
  658MOL0     C88716   3.089   7.722   0.167 -0.1426  0.0357 -0.0481
  658MOL0     C88717   3.232   7.662   0.122  0.9272  0.0725  0.4744
  658MOL0     C88718   3.342   7.772   0.105  0.2715  0.1309 -0.6219
  658MOL0     O88719   3.464   7.692   0.122  0.1338 -0.0076  0.3871
  658MOL0     C88720   3.580   7.767   0.142 -0.2657  0.2380  0.4711
  658MOL0     C88721   3.700   7.694   0.166  0.3791  0.2304 -0.0606
  658MOL0     C88722   3.818   7.762   0.196 -0.0446  0.6694  0.2460
  658MOL0     C88723   3.820   7.904   0.207 -1.0435 -0.9103 -0.6901
  658MOL0     C88724   3.934   7.972   0.255 -0.4671  0.1793 -0.5452
  658MOL0     O88725   3.930   8.107   0.263  0.3865  0.2020 -0.2684
  658MOL0     C88726   4.038   8.173   0.317  0.2155 -0.0591  0.1871
  658MOL0     C88727   4.146   8.213   0.231  0.3663 -0.7285 -1.2201
  658MOL0     C88728   4.254   8.292   0.286  0.5789 -0.2006  0.5607
  658MOL0     C88729   4.260   8.324   0.427 -0.0413 -0.5672 -0.6235
  658MOL0     O88730   4.365   8.405   0.475  0.4933  0.6132 -0.1366
  658MOL0     C88731   4.498   8.381   0.429  0.0310  0.4753  0.6477
  658MOL0     C88732   4.603   8.409   0.539 -0.4736 -0.4298 -0.0518
  658MOL0     C88733   4.737   8.429   0.471 -0.3232 -0.0621 -0.5317
  658MOL0     C88734   4.841   8.450   0.586 -0.9111  0.4525  0.5673
  658MOL0     C88735   4.974   8.501   0.519 -0.3306  0.3570  0.3061
  658MOL0     C88736   5.097   8.475   0.618  0.7435 -0.2155 -0.1088
  658MOL0     C88737   5.222   8.534   0.553 -0.6239 -0.4907 -0.0276
  658MOL0     C88738   5.332   8.529   0.648  0.3970  0.5481 -0.1424
  658MOL0    Cl88739   5.489   8.599   0.588 -0.1763 -0.6509  0.0569
  658MOL0     C88740   4.152   8.275   0.504  0.4284  0.4247  0.3759
  658MOL0     C88741   4.043   8.210   0.454  0.1981 -0.5255  1.3988
  658MOL0     O88742   4.025   7.903   0.295 -0.0071 -0.0900 -0.3452
  658MOL0     C88743   3.703   7.973   0.174  0.5971  0.4728  0.1872
  658MOL0     C88744   3.587   7.910   0.140 -0.8544  0.1129 -0.6157
  658MOL0     N88745   2.803   7.856   0.185  1.1472  0.9814 -0.4054
  658MOL0     N88746   2.677   7.864   0.186  0.5652 -0.2472  0.2006
  658MOL0     C88747   1.578   7.136   0.294 -0.6102  0.1716  0.4652
  658MOL0     C88748   1.442   7.133   0.311  1.3176 -1.5141  0.4185
  658MOL0     C88749   1.052   7.233   0.528 -0.2604  0.5860  0.5403
  658MOL0     C88750   1.006   7.105   0.538  0.9341  1.2002 -0.1605
  658MOL0     C88751   0.871   7.081   0.575 -0.1958  0.2017 -0.2969
  658MOL0     C88752   0.786   7.182   0.621 -0.0335 -1.1709 -0.6354
  658MOL0     O88753   0.655   7.164   0.665  0.1110  0.4136  0.5692
  658MOL0     C88754   0.611   7.029   0.701 -0.3154 -0.1399  0.7835
  658MOL0     C88755   0.522   7.034   0.826 -0.1662 -0.1330 -0.6433
  658MOL0     C88756   0.383   7.105   0.826 -1.2858  0.0313 -0.9869
  658MOL0     C88757   0.299   7.054   0.710 -0.0541  0.1700 -0.0687
  658MOL0     C88758   0.164   7.118   0.710  0.6797 -0.1878  0.7818
  658MOL0     C88759   0.058   7.166   0.697 -0.4252  0.2558 -0.4513
  658MOL0     C88760   0.842   7.313   0.620 -0.0588 -0.3968  0.9975
  658MOL0     C88761   0.971   7.344   0.559 -0.4466  0.1016  0.0964
  658MOL0     C88762   1.006   7.491   0.533  0.8058 -0.3532  0.0867
  658MOL0     H88763   1.420   7.085   0.638 -0.9384  0.5476 -0.1010
  658MOL0     H88764   1.669   7.105   0.619  1.5453 -0.4047 -0.9408
  658MOL0     H88765   1.787   7.326   0.502  0.2000  0.4244  1.3478
  658MOL0     H88766   1.923   7.216   0.536 -0.0557  3.7204  1.3804
  658MOL0     H88767   1.948   7.446   0.398 -0.3254 -0.4736  2.2903
  658MOL0     H88768   1.906   7.331   0.266 -4.0276  0.1508  1.8453
  658MOL0     H88769   2.112   7.201   0.327 -0.6215 -1.2587  2.3730
  658MOL0     H88770   2.135   7.305   0.472  1.5565 -0.7662 -0.1368
  658MOL0     H88771   2.129   7.407   0.179  1.7693  1.5787 -1.2026
  658MOL0     H88772   2.155   7.507   0.324  1.6716  0.5961 -0.9052
  658MOL0     H88773   2.372   7.407   0.365 -0.5713 -1.1528  0.4119
  658MOL0     H88774   2.332   7.281   0.239  0.3371 -0.3566  0.6860
  658MOL0     H88775   2.480   7.431   0.147  0.5957 -0.2552  3.5850
  658MOL0     H88776   2.321   7.503   0.091  2.1409 -0.3733 -1.7014
  658MOL0     H88777   2.514   7.588   0.324  0.1461  2.9517  1.5227
  658MOL0     H88778   2.348   7.648   0.302 -1.6228  0.4767 -4.8237
  658MOL0     H88779   2.477   7.676   0.042 -0.5379 -1.6589  0.5272
  658MOL0     H88780   2.426   7.799   0.144  0.5380 -0.7778 -1.0834
  658MOL0     H88781   2.700   7.556   0.073  0.3534  0.1661 -1.1939
  658MOL0     H88782   2.968   7.550   0.140  2.2312  0.3894  4.0890
  658MOL0     H88783   2.997   7.674   0.006 -1.7566  0.0227 -0.0915
  658MOL0     H88784   3.089   7.824   0.129 -1.8291 -0.0393 -0.3189
  658MOL0     H88785   3.094   7.719   0.277 -0.4474  0.2396 -0.0293
  658MOL0     H88786   3.223   7.614   0.024  2.9901 -0.6561  0.5881
  658MOL0     H88787   3.274   7.589   0.192  4.7538  1.9146  0.3477
  658MOL0     H88788   3.327   7.844   0.186  0.2250 -1.0021  0.4048
  658MOL0     H88789   3.332   7.825   0.010 -1.3341  0.8694 -0.0714
  658MOL0     H88790   3.686   7.586   0.165 -2.6207  0.5307  0.2560
  658MOL0     H88791   3.900   7.700   0.231 -0.8549 -0.3106  0.4341
  658MOL0     H88792   4.141   8.185   0.126  0.1944  1.0766 -1.7136
  658MOL0     H88793   4.323   8.320   0.207 -1.2091 -1.1420 -1.4627
  658MOL0     H88794   4.505   8.275   0.404  1.8720  1.0210 -1.4148
  658MOL0     H88795   4.512   8.450   0.345  0.7709  0.0859  0.4389
  658MOL0     H88796   4.586   8.506   0.588  1.8346  0.2407 -0.4390
  658MOL0     H88797   4.607   8.335   0.618  3.6179  0.9086  1.2165
  658MOL0     H88798   4.763   8.344   0.408 -0.1320  0.3021 -0.9527
  658MOL0     H88799   4.740   8.520   0.410 -1.4099  2.6328  3.0554
  658MOL0     H88800   4.856   8.353   0.633  0.8129  0.6400  0.4616
  658MOL0     H88801   4.807   8.519   0.664 -0.5342  2.9833 -1.3577
  658MOL0     H88802   4.961   8.606   0.492  2.5612  0.6753 -0.1526
  658MOL0     H88803   4.996   8.443   0.429 -0.6490 -0.0192  0.4640
  658MOL0     H88804   5.066   8.521   0.712  3.2208  0.0783  0.6339
  658MOL0     H88805   5.114   8.369   0.638 -2.0025 -0.6668  0.1632
  658MOL0     H88806   5.214   8.642   0.539 -1.9530 -0.7141 -1.1798
  658MOL0     H88807   5.253   8.477   0.465  1.4781  0.8406 -0.2207
  658MOL0     H88808   5.316   8.568   0.750  2.3146 -1.3508  0.9636
  658MOL0     H88809   5.346   8.424   0.674 -2.8947  0.4139  1.6869
  658MOL0     H88810   4.141   8.298   0.610 -0.5529 -0.0874  0.3965
  658MOL0     H88811   3.958   8.187   0.518 -0.6601  1.9040  1.2256
  658MOL0     H88812   3.703   8.081   0.164  0.6462  0.3834 -0.9498
  658MOL0     H88813   3.494   7.963   0.122 -1.5311 -0.5192  0.7942
  658MOL0     H88814   1.624   7.157   0.198 -0.6000  0.5696  0.5574
  658MOL0     H88815   1.371   7.138   0.229  0.9182 -0.5949  0.8086
  658MOL0     H88816   1.063   7.014   0.522  2.1992  1.7193  1.1175
  658MOL0     H88817   0.845   6.976   0.568 -1.4757  0.6175 -3.1304
  658MOL0     H88818   0.697   6.966   0.727 -1.0982 -1.9285 -0.7009
  658MOL0     H88819   0.552   6.986   0.619 -0.7621 -2.3103  2.1644
  658MOL0     H88820   0.586   7.074   0.906  0.3038 -1.4433 -0.3375
  658MOL0     H88821   0.502   6.931   0.855  0.7388 -0.7925 -2.2625
  658MOL0     H88822   0.401   7.213   0.820 -1.2186  0.2156  1.3315
  658MOL0     H88823   0.332   7.090   0.922 -1.0416 -3.9028 -1.3322
  658MOL0     H88824   0.348   7.074   0.614  0.2895  2.1401  0.4693
  658MOL0     H88825   0.292   6.945   0.717  1.2522  0.0519 -0.1891
  658MOL0     H88826  -0.039   7.212   0.696 -0.7601 -0.4346 -0.6092
  658MOL0     H88827   0.775   7.387   0.663  0.8931  0.0819  1.6833
  658MOL0     H88828   0.909   7.541   0.525  0.3359 -1.0768  1.0127
  658MOL0     H88829   1.074   7.529   0.610 -1.8785  1.9854  1.4974
  658MOL0     H88830   1.058   7.494   0.437  0.4556  0.4610 -0.0844
  659MOL0     O88831   1.185   7.239   9.757 -0.0452 -0.0688  0.3602
  659MOL0     C88832   1.133   7.159   9.825  0.3842  0.1759 -0.9090
  659MOL0     O88833   1.199   7.083   9.916 -0.2643 -0.1865  0.2543
  659MOL0     C88834   1.338   7.086   9.934 -0.1000  0.2042 -0.1378
  659MOL0     C88835   1.415   7.029   9.836  0.6172  0.2141 -0.0214
  659MOL0     C88836   1.550   7.001   9.857  0.1238 -0.0275 -0.5946
  659MOL0     C88837   1.609   7.039   9.981 -0.1807  0.7654 -0.2057
  659MOL0     O88838   1.750   7.032   9.986  0.7864 -0.1561  0.0482
  659MOL0     C88839   1.812   7.064  10.106  0.2822  0.0871 -0.3124
  659MOL0     C88840   1.962   7.031  10.083 -0.1913  0.1143 -0.9435
  659MOL0     C88841   2.039   7.131   9.996  0.5472  0.8144  0.7349
  659MOL0     C88842   2.182   7.150  10.038 -0.1706  0.1870  0.7929
  659MOL0     C88843   2.263   7.247   9.945  0.3779 -0.0033 -0.3378
  659MOL0     C88844   2.412   7.230   9.964  0.6722  0.1441  0.4086
  659MOL0     C88845   2.490   7.325   9.874  0.0680  0.0502  0.1575
  659MOL0     C88846   2.641   7.320   9.898 -1.3337 -0.1279  0.6333
  659MOL0     N88847   2.722   7.390   9.794  0.1073  0.5514  0.8997
  659MOL0     C88848   2.855   7.372   9.767  0.0505 -0.2195 -0.5393
  659MOL0     C88849   2.899   7.472   9.696  0.0895 -0.1262  0.5698
  659MOL0     C88850   3.034   7.492   9.627  0.4093 -0.6103 -0.3745
  659MOL0     C88851   3.158   7.463   9.727  0.0815  0.2788  1.0372
  659MOL0     C88852   3.283   7.432   9.642 -0.4755  0.3404 -0.5452
  659MOL0     C88853   3.405   7.426   9.734  0.3380  0.3744 -0.7248
  659MOL0     O88854   3.520   7.386   9.651 -0.2456  0.2184  0.1999
  659MOL0     C88855   3.648   7.373   9.701 -0.3074  0.9098 -0.6576
  659MOL0     C88856   3.766   7.414   9.636  1.2784  0.4044  0.8059
  659MOL0     C88857   3.895   7.405   9.687  0.0176  0.5988 -0.0877
  659MOL0     C88858   3.919   7.347   9.810  0.8969  0.1775  0.1224
  659MOL0     C88859   4.046   7.316   9.858 -0.2954  0.3932  0.1284
  659MOL0     O88860   4.146   7.359   9.780  0.6967  0.0207  0.3604
  659MOL0     C88861   4.278   7.344   9.815  0.0024  1.1821  0.7719
  659MOL0     C88862   4.365   7.300   9.719  0.8761 -0.2655  0.3482
  659MOL0     C88863   4.504   7.290   9.732  0.0448 -0.7043  0.1453
  659MOL0     C88864   4.560   7.298   9.860 -0.9830  0.1664  0.0907
  659MOL0     O88865   4.703   7.278   9.865 -0.3009 -0.3017  0.8385
  659MOL0     C88866   4.763   7.240   9.991 -0.0152  0.4470  0.0047
  659MOL0     C88867   4.799   7.371  10.064 -0.6114 -0.2684  0.4884
  659MOL0     C88868   4.872   7.339  10.198 -0.1380 -0.3116  0.0458
  659MOL0     C88869   4.892   7.463  10.275 -0.4378  0.6582 -0.4111
  659MOL0     C88870   4.931   7.423  10.420 -0.3099  0.0965 -0.1575
  659MOL0     C88871   4.965   7.554  10.493  0.5394  0.4174 -0.5378
  659MOL0     C88872   4.967   7.524  10.640  0.4365  0.4666 -0.1722
  659MOL0     C88873   5.048   7.631  10.707 -0.4455  0.6360 -0.2746
  659MOL0    Cl88874   5.219   7.586  10.681  0.1655  0.3594  0.3173
  659MOL0     C88875   4.467   7.316   9.965 -0.1385 -0.5605  0.2951
  659MOL0     C88876   4.336   7.345   9.941  0.2310 -0.6013 -0.3477
  659MOL0     O88877   4.059   7.250   9.958 -0.0220 -1.0365  0.2237
  659MOL0     C88878   3.802   7.296   9.876 -0.6296  0.4184  0.3702
  659MOL0     C88879   3.672   7.311   9.826  0.3563 -0.1856 -0.2455
  659MOL0     N88880   2.798   7.565   9.694  0.3637 -0.3357 -0.0999
  659MOL0     N88881   2.692   7.513   9.746 -0.0887  0.2256  0.1279
  659MOL0     C88882   1.527   7.092  10.080 -0.1327 -0.0030  0.1700
  659MOL0     C88883   1.395   7.119  10.060  0.4333  1.0188 -0.1499
  659MOL0     C88884   0.989   7.135   9.814  0.4258  0.2774 -0.6077
  659MOL0     C88885   0.935   7.007   9.829  0.5655  0.7110 -0.2254
  659MOL0     C88886   0.800   6.974   9.815 -0.3839  0.6088  0.4005
  659MOL0     C88887   0.703   7.068   9.783 -0.1954  0.1542 -0.2313
  659MOL0     O88888   0.572   7.029   9.766  0.1196 -0.2633 -0.5929
  659MOL0     C88889   0.536   7.018   9.634 -0.4519  0.1900 -0.1191
  659MOL0     C88890   0.417   6.919   9.626 -1.0444  0.2583 -0.4944
  659MOL0     C88891   0.451   6.780   9.667 -0.0093  0.6821  0.5121
  659MOL0     C88892   0.334   6.677   9.669  0.6742 -0.0399 -0.3461
  659MOL0     C88893   0.233   6.691   9.776  0.3774  0.6749  0.5361
  659MOL0     C88894   0.151   6.683   9.856  0.8153 -0.5177 -0.2767
  659MOL0     C88895   0.746   7.197   9.760 -0.7787 -0.0405  0.7922
  659MOL0     C88896   0.889   7.236   9.771 -0.1853 -0.0744  0.3765
  659MOL0     C88897   0.934   7.376   9.744  0.2828  0.1775 -0.1415
  659MOL0     H88898   1.371   7.012   9.738  0.2928  3.5195 -0.5678
  659MOL0     H88899   1.611   6.975   9.771  0.2618 -0.1781 -0.4522
  659MOL0     H88900   1.812   7.165  10.147  0.7429 -0.3289  0.7244
  659MOL0     H88901   1.778   6.993  10.182 -0.4044 -1.7765 -2.2574
  659MOL0     H88902   1.969   6.927  10.048  1.5181 -0.2656  0.3856
  659MOL0     H88903   2.015   7.031  10.179  0.2619  2.0851 -1.1580
  659MOL0     H88904   1.977   7.221   9.992 -0.1246  0.3125 -0.7928
  659MOL0     H88905   2.041   7.093   9.894  1.8657  0.9133  0.7075
  659MOL0     H88906   2.180   7.197  10.137 -0.8916  0.3650  0.7008
  659MOL0     H88907   2.221   7.048  10.042  0.7526  0.5568  3.3389
  659MOL0     H88908   2.236   7.218   9.843 -1.6172  0.1861  0.0888
  659MOL0     H88909   2.236   7.351   9.968 -2.2137 -0.9564  1.4446
  659MOL0     H88910   2.439   7.241  10.070  0.1613 -1.2857  0.7229
  659MOL0     H88911   2.437   7.126   9.938  2.4042  0.3909  0.9444
  659MOL0     H88912   2.453   7.425   9.896 -1.8565 -0.8962  1.5772
  659MOL0     H88913   2.466   7.291   9.773 -0.4257 -2.6675  1.1037
  659MOL0     H88914   2.669   7.367   9.993 -0.1538 -1.1373  0.8185
  659MOL0     H88915   2.665   7.213   9.899 -3.2685 -0.6697 -1.9655
  659MOL0     H88916   2.905   7.281   9.800 -0.0618 -1.1746 -2.8099
  659MOL0     H88917   3.035   7.421   9.544  1.6773  0.6140 -1.4575
  659MOL0     H88918   3.038   7.596   9.593  0.8666 -0.6697 -0.4972
  659MOL0     H88919   3.170   7.552   9.790  2.8676 -0.2142  1.3141
  659MOL0     H88920   3.134   7.381   9.795 -2.4148 -0.0586 -0.1323
  659MOL0     H88921   3.300   7.511   9.569 -1.8333  4.3663  3.0395
  659MOL0     H88922   3.261   7.334   9.599 -0.4030 -1.5065  3.1839
  659MOL0     H88923   3.372   7.359   9.813 -0.1194  1.0348 -0.3488
  659MOL0     H88924   3.441   7.521   9.776  0.8789  0.1288 -0.6209
  659MOL0     H88925   3.762   7.465   9.539  0.9345 -2.9299 -1.0823
  659MOL0     H88926   3.980   7.439   9.630 -0.4105  2.1401  0.1568
  659MOL0     H88927   4.306   7.262   9.636  0.4961 -1.6371  1.2016
  659MOL0     H88928   4.563   7.265   9.644  0.3806 -1.4010  0.5570
  659MOL0     H88929   4.688   7.191  10.053 -1.7380  2.3022 -0.5177
  659MOL0     H88930   4.850   7.175   9.977 -0.6235  0.1557 -3.1893
  659MOL0     H88931   4.867   7.428  10.000 -2.5647  0.6679 -0.8880
  659MOL0     H88932   4.710   7.431  10.087 -0.6983 -0.7010  1.3321
  659MOL0     H88933   4.818   7.268  10.261  1.6248  1.2766  3.6877
  659MOL0     H88934   4.975   7.306  10.181  0.8229  3.1417 -1.7861
  659MOL0     H88935   4.803   7.527  10.278 -1.5605 -0.8916  1.0641
  659MOL0     H88936   4.973   7.519  10.229 -0.5206  1.6087  0.5595
  659MOL0     H88937   5.021   7.361  10.423  0.1542  0.6145 -1.9448
  659MOL0     H88938   4.847   7.374  10.470  0.5449  0.8635  2.1632
  659MOL0     H88939   5.068   7.581  10.465  1.5540 -0.8368  1.6459
  659MOL0     H88940   4.888   7.628  10.470 -0.8258  0.1390  2.5823
  659MOL0     H88941   5.021   7.429  10.652  0.5086  0.3786 -1.1347
  659MOL0     H88942   4.864   7.510  10.675  0.2993  1.6448 -0.0939
  659MOL0     H88943   5.020   7.730  10.669 -2.1957  0.8118  1.3408
  659MOL0     H88944   5.032   7.619  10.814 -2.2667 -1.4592 -0.7034
  659MOL0     H88945   4.496   7.313  10.069 -4.5819  0.3695  1.7521
  659MOL0     H88946   4.266   7.355  10.023 -1.1932 -0.2193 -1.5540
  659MOL0     H88947   3.809   7.229   9.961  1.9884 -2.1909 -1.6830
  659MOL0     H88948   3.585   7.277   9.881 -1.7531 -0.5497 -3.5116
  659MOL0     H88949   1.561   7.126  10.177 -1.0438  2.3646 -0.2612
  659MOL0     H88950   1.336   7.162  10.140  0.2993 -0.4971  0.5894
  659MOL0     H88951   1.004   6.927   9.854 -2.5289 -2.3099 -0.7168
  659MOL0     H88952   0.775   6.872   9.844 -0.3584  0.8746  1.4010
  659MOL0     H88953   0.618   6.978   9.574 -1.9478 -1.0582 -1.4106
  659MOL0     H88954   0.509   7.119   9.602 -0.4679  0.4300  0.6230
  659MOL0     H88955   0.394   6.902   9.520  0.8971  0.6782 -1.0211
  659MOL0     H88956   0.328   6.960   9.675 -0.6823 -0.6690  0.9958
  659MOL0     H88957   0.499   6.775   9.765  0.5091 -0.4693  0.2164
  659MOL0     H88958   0.530   6.753   9.595 -1.3624  1.0130 -1.1654
  659MOL0     H88959   0.283   6.665   9.573 -0.5547 -0.3899  0.3206
  659MOL0     H88960   0.392   6.586   9.683 -1.3517 -1.5601 -1.3245
  659MOL0     H88961   0.078   6.678   9.935 -2.0414 -1.1423 -2.7708
  659MOL0     H88962   0.673   7.259   9.710 -1.6443 -1.8963 -0.3257
  659MOL0     H88963   1.003   7.408   9.823  1.4687 -0.2875 -0.9443
  659MOL0     H88964   0.988   7.372   9.649 -1.1344  1.4981 -1.0420
  659MOL0     H88965   0.854   7.450   9.745 -0.5782 -0.6696 -1.8569
  660MOL0     O88966   9.980   1.212   1.414 -0.1848 -0.1885  0.1205
  660MOL0     C88967   9.957   1.096   1.446 -0.0571 -0.0375 -0.7180
  660MOL0     O88968   9.846   1.051   1.506 -0.4333 -0.0215 -0.2672
  660MOL0     C88969   9.724   1.117   1.501 -0.5692 -0.3899 -0.9912
  660MOL0     C88970   9.672   1.156   1.385 -0.3047  0.5381 -0.6221
  660MOL0     C88971   9.537   1.207   1.389 -0.9167  0.3474  0.3439
  660MOL0     C88972   9.460   1.226   1.506  0.3431  0.9562 -0.1908
  660MOL0     O88973   9.332   1.283   1.500  0.3683  0.4823  0.2549
  660MOL0     C88974   9.253   1.293   1.626 -0.9892  0.3999  0.7029
  660MOL0     C88975   9.115   1.295   1.564 -0.4271  0.3665  0.0329
  660MOL0     C88976   9.082   1.416   1.474 -0.2694 -0.3022  1.0450
  660MOL0     C88977   8.926   1.443   1.467  0.8378  0.6233  0.3986
  660MOL0     C88978   8.865   1.571   1.400 -0.5288  0.6107 -0.0001
  660MOL0     C88979   8.934   1.603   1.264  0.1507 -0.2396 -0.8579
  660MOL0     C88980   8.882   1.735   1.216  0.1737 -0.2654  0.0089
  660MOL0     C88981   8.965   1.775   1.091  0.1850  0.3947 -0.6975
  660MOL0     N88982   9.097   1.840   1.113  0.0747  0.2850  0.2336
  660MOL0     C88983   9.220   1.787   1.152  0.1244  0.0475  0.0331
  660MOL0     C88984   9.307   1.894   1.147 -0.1909  0.7684 -0.4188
  660MOL0     C88985   9.443   1.891   1.207 -0.6862  0.1236 -0.2923
  660MOL0     C88986   9.433   1.888   1.362  0.4073  0.5443 -0.1725
  660MOL0     C88987   9.544   1.978   1.418  0.3557  0.0478  0.7075
  660MOL0     C88988   9.687   1.922   1.395  0.1807  0.4664 -0.2752
  660MOL0     O88989   9.699   1.779   1.421  0.5236  0.7358  1.0001
  660MOL0     C88990   9.815   1.721   1.381 -0.1289 -0.1596 -2.0105
  660MOL0     C88991   9.808   1.588   1.333  0.1206  0.0294 -0.4796
  660MOL0     C88992   9.924   1.521   1.294  0.0260  1.0196  0.6908
  660MOL0     C88993  10.053   1.586   1.291 -0.7208  0.2515 -0.0509
  660MOL0     C88994  10.180   1.521   1.246 -0.0600 -0.6432 -0.1450
  660MOL0     O88995  10.290   1.609   1.231  0.2461 -0.7307 -0.0312
  660MOL0     C88996  10.410   1.563   1.180  0.7937 -0.4214 -0.4669
  660MOL0     C88997  10.473   1.644   1.080 -0.5403 -0.3613  0.1738
  660MOL0     C88998  10.595   1.606   1.028  0.2688 -0.0296  0.9539
  660MOL0     C88999  10.662   1.492   1.068  0.2117 -0.2522 -0.7218
  660MOL0     O89000  10.787   1.467   1.030 -0.1338  0.2221  0.4746
  660MOL0     C89001  10.794   1.385   0.913 -0.1652 -0.2505  0.4025
  660MOL0     C89002  10.886   1.260   0.950  1.1172 -0.8463  0.3006
  660MOL0     C89003  11.032   1.292   1.003  0.7475 -0.4409 -0.2683
  660MOL0     C89004  11.115   1.391   0.922 -0.1675  0.3576  0.3143
  660MOL0     C89005  11.257   1.398   0.987 -0.7727 -0.2201  0.1165
  660MOL0     C89006  11.363   1.468   0.892 -0.7653 -0.4057 -0.5542
  660MOL0     C89007  11.510   1.459   0.945 -0.1142  0.1195  0.6509
  660MOL0     C89008  11.539   1.569   1.050  0.4935  0.0779 -1.0879
  660MOL0    Cl89009  11.551   1.725   0.972  0.1429  0.0771 -0.3592
  660MOL0     C89010  10.606   1.410   1.168 -0.1784 -0.7121  0.2470
  660MOL0     C89011  10.483   1.451   1.228  0.0252 -0.7440 -1.0167
  660MOL0     O89012  10.179   1.400   1.223  0.0830  0.0459 -0.2530
  660MOL0     C89013  10.056   1.716   1.343 -0.1923 -0.2069  0.5511
  660MOL0     C89014   9.940   1.779   1.385  0.2748  0.1216 -0.5761
  660MOL0     N89015   9.238   2.012   1.103 -0.5144  0.4352  0.4008
  660MOL0     N89016   9.111   1.978   1.099 -0.1071  1.1873 -0.2549
  660MOL0     C89017   9.530   1.190   1.624  0.6370  0.1409 -1.1366
  660MOL0     C89018   9.657   1.141   1.621  0.1580 -0.8268 -0.4002
  660MOL0     C89019  10.049   0.984   1.418  0.0249  0.3930  0.9651
  660MOL0     C89020  10.010   0.848   1.448 -0.6504  0.3482 -0.4181
  660MOL0     C89021  10.101   0.745   1.424 -0.1003 -0.6127  0.3401
  660MOL0     C89022  10.224   0.765   1.363  0.4817  0.9913  0.1901
  660MOL0     O89023  10.302   0.656   1.352  0.0205  0.0921  0.5577
  660MOL0     C89024  10.271   0.556   1.248  0.1359  0.2829 -1.0408
  660MOL0     C89025  10.343   0.427   1.277  0.0956  0.0020 -0.1575
  660MOL0     C89026  10.303   0.385   1.425  0.8583 -0.4855  0.3321
  660MOL0     C89027  10.316   0.238   1.437 -0.1808 -0.5060  0.0444
  660MOL0     C89028  10.453   0.196   1.405 -0.7974  0.1909  0.7548
  660MOL0     C89029  10.567   0.166   1.368 -0.7035 -0.5415  0.1846
  660MOL0     C89030  10.264   0.892   1.335 -0.3366  0.1425 -0.5227
  660MOL0     C89031  10.181   1.004   1.364 -0.1253  0.3872 -0.3085
  660MOL0     C89032  10.243   1.141   1.337 -1.0395 -0.2523 -0.1682
  660MOL0     H89033   9.733   1.148   1.296  1.1101  0.7629  0.2948
  660MOL0     H89034   9.496   1.235   1.293 -2.1661 -0.8615  0.5082
  660MOL0     H89035   9.273   1.203   1.684  3.0082 -0.2372 -1.3205
  660MOL0     H89036   9.264   1.385   1.684  0.4605  1.6106 -1.3467
  660MOL0     H89037   9.046   1.306   1.648 -0.5695 -0.0923 -0.0226
  660MOL0     H89038   9.100   1.201   1.511  1.7549 -1.7306  2.7667
  660MOL0     H89039   9.117   1.421   1.371 -1.6293 -2.7127  0.3699
  660MOL0     H89040   9.128   1.498   1.529  1.6992  1.3650 -2.7144
  660MOL0     H89041   8.875   1.366   1.408  1.1159  0.5747  0.2188
  660MOL0     H89042   8.885   1.427   1.567  0.2386  2.2116  0.4330
  660MOL0     H89043   8.758   1.556   1.385 -0.5106 -0.4811  0.8215
  660MOL0     H89044   8.885   1.649   1.474 -1.2307  0.2571  0.5716
  660MOL0     H89045   9.041   1.597   1.285  0.1253 -2.3033 -1.1361
  660MOL0     H89046   8.909   1.527   1.189 -0.4903  1.5707 -2.5611
  660MOL0     H89047   8.893   1.807   1.297  4.4332 -0.2307 -0.3509
  660MOL0     H89048   8.778   1.721   1.188 -0.6867 -0.1516  2.8524
  660MOL0     H89049   8.988   1.679   1.043  0.2316  0.6909 -1.2830
  660MOL0     H89050   8.889   1.825   1.030 -1.8052  1.2893  2.3311
  660MOL0     H89051   9.224   1.687   1.194  0.1119  0.4702  1.0623
  660MOL0     H89052   9.489   1.802   1.163 -2.9470 -1.6478  0.7131
  660MOL0     H89053   9.494   1.984   1.181  0.0292  0.2376  1.3536
  660MOL0     H89054   9.339   1.929   1.402 -0.2461  0.4430 -1.5484
  660MOL0     H89055   9.445   1.785   1.399  0.6910  0.4237 -0.5897
  660MOL0     H89056   9.528   1.997   1.524  1.0232 -2.8752  1.4341
  660MOL0     H89057   9.540   2.074   1.367  2.0592 -0.7301 -1.0025
  660MOL0     H89058   9.760   1.978   1.453 -1.1217  1.2991  0.6282
  660MOL0     H89059   9.712   1.944   1.291  1.2638 -2.9815 -0.8576
  660MOL0     H89060   9.715   1.532   1.325 -0.6273  1.4018 -2.1714
  660MOL0     H89061   9.912   1.414   1.282  0.0282  1.2157 -1.6382
  660MOL0     H89062  10.417   1.730   1.045  0.3695 -0.4886 -1.7105
  660MOL0     H89063  10.644   1.654   0.944 -0.8629 -1.1028 -0.3645
  660MOL0     H89064  10.696   1.348   0.880 -0.8267 -0.8275  2.7790
  660MOL0     H89065  10.835   1.443   0.831 -3.1673  0.7712 -0.5128
  660MOL0     H89066  10.837   1.211   1.034 -0.7703 -0.1389 -0.3219
  660MOL0     H89067  10.897   1.200   0.859 -1.7286 -0.2314 -0.5814
  660MOL0     H89068  11.024   1.350   1.095  0.6491  0.2333 -0.7031
  660MOL0     H89069  11.087   1.201   1.030 -0.8149 -2.0350 -2.1490
  660MOL0     H89070  11.066   1.488   0.913 -1.6200 -0.4541 -1.0131
  660MOL0     H89071  11.113   1.349   0.821 -3.2626  0.4431  0.2473
  660MOL0     H89072  11.300   1.299   1.007  2.0196  0.3810 -2.3005
  660MOL0     H89073  11.262   1.451   1.083 -2.4474 -2.3334  1.4770
  660MOL0     H89074  11.360   1.412   0.798  3.6443 -4.9086  1.5431
  660MOL0     H89075  11.338   1.574   0.888  2.6651  0.5153 -0.2646
  660MOL0     H89076  11.580   1.482   0.864 -0.9611 -3.7009 -1.3982
  660MOL0     H89077  11.534   1.359   0.982  0.6928  0.7221  1.8119
  660MOL0     H89078  11.456   1.574   1.121 -1.9494 -0.3287 -3.7473
  660MOL0     H89079  11.630   1.541   1.103 -1.5396  0.0522  2.7644
  660MOL0     H89080  10.653   1.321   1.207  0.3047 -0.2642  0.7047
  660MOL0     H89081  10.453   1.390   1.312 -0.8798 -0.7515 -1.3411
  660MOL0     H89082  10.152   1.767   1.345  0.8711 -2.1107  2.6330
  660MOL0     H89083   9.940   1.876   1.434  3.4450 -1.2095  2.5610
  660MOL0     H89084   9.480   1.202   1.719 -4.4565  0.3533 -3.4668
  660MOL0     H89085   9.716   1.108   1.706  0.7768 -2.0712 -1.2747
  660MOL0     H89086   9.911   0.833   1.491 -0.2847  0.9228  0.6565
  660MOL0     H89087  10.078   0.640   1.440 -1.0446 -1.2481 -4.0151
  660MOL0     H89088  10.297   0.595   1.149  0.6788 -1.7815 -1.7646
  660MOL0     H89089  10.165   0.531   1.251 -0.2847  1.9318  1.2753
  660MOL0     H89090  10.451   0.438   1.270  0.2009 -0.8007  0.1625
  660MOL0     H89091  10.319   0.343   1.212 -0.6621  1.1107 -1.3762
  660MOL0     H89092  10.202   0.413   1.456  0.3843  2.1731 -2.9892
  660MOL0     H89093  10.375   0.428   1.495 -0.5786  3.5498 -0.4031
  660MOL0     H89094  10.284   0.228   1.541 -1.4903  0.0502 -0.2819
  660MOL0     H89095  10.238   0.181   1.384 -0.2636  0.2960 -0.7131
  660MOL0     H89096  10.668   0.154   1.336 -0.8934 -3.5522  0.4532
  660MOL0     H89097  10.365   0.900   1.297  0.2336  1.7146  1.1550
  660MOL0     H89098  10.349   1.133   1.363 -1.7095 -2.1693  2.4018
  660MOL0     H89099  10.246   1.160   1.229 -1.4933 -0.8136 -0.2871
  660MOL0     H89100  10.204   1.230   1.387  0.7543  0.1657  0.5618
  661MOL0     O89101  10.725  10.527   8.029 -0.2515 -0.2999  0.3503
  661MOL0     C89102  10.620  10.493   7.985 -0.2383  0.1588 -0.1035
  661MOL0     O89103  10.603  10.401   7.882 -0.1346  0.0887 -0.4189
  661MOL0     C89104  10.710  10.348   7.815 -0.2910 -0.0942  0.0844
  661MOL0     C89105  10.816  10.417   7.754  1.0162 -0.2109  1.1022
  661MOL0     C89106  10.907  10.357   7.670 -0.8306  0.2217 -0.0640
  661MOL0     C89107  10.895  10.217   7.649 -0.1166 -0.0557 -0.2009
  661MOL0     O89108  10.983  10.164   7.560 -1.0900 -0.2627 -0.4560
  661MOL0     C89109  11.061  10.047   7.594 -0.2094  0.2994 -0.3755
  661MOL0     C89110  11.182  10.090   7.683  0.6533 -0.0377 -0.5327
  661MOL0     C89111  11.299   9.990   7.676  0.1316  0.5146 -0.6435
  661MOL0     C89112  11.272   9.851   7.752  0.1376  0.0847  0.9987
  661MOL0     C89113  11.213   9.861   7.888 -0.6080 -0.8575  0.1159
  661MOL0     C89114  11.314   9.913   7.991  1.1954  0.5423  0.3436
  661MOL0     C89115  11.239   9.937   8.126 -0.5440 -0.3896 -0.1783
  661MOL0     C89116  11.187   9.815   8.201 -0.6474  0.4668  0.4644
  661MOL0     N89117  11.302   9.730   8.242 -0.0981 -0.9770  0.1398
  661MOL0     C89118  11.336   9.624   8.170  0.1331 -0.2614  0.6140
  661MOL0     C89119  11.416   9.556   8.257  0.6550  0.2519 -0.8586
  661MOL0     C89120  11.467   9.423   8.229 -0.2567  0.0259 -0.4217
  661MOL0     C89121  11.615   9.420   8.272 -0.2094 -0.5072  0.7353
  661MOL0     C89122  11.641   9.369   8.416 -0.0173  0.4988 -0.0122
  661MOL0     C89123  11.787   9.333   8.459  0.0268  0.0606 -0.1361
  661MOL0     O89124  11.794   9.329   8.598  0.4254  0.3620  0.0188
  661MOL0     C89125  11.893   9.255   8.658  0.4149 -1.2418  0.2047
  661MOL0     C89126  12.000   9.195   8.583 -0.3359  0.3060 -0.4620
  661MOL0     C89127  12.098   9.127   8.646 -0.3184  0.6299  1.2317
  661MOL0     C89128  12.094   9.114   8.784 -0.8705  0.1693  0.0094
  661MOL0     C89129  12.208   9.048   8.861  0.5944  0.0851  0.0610
  661MOL0     O89130  12.219   9.068   8.993  0.2813 -0.0085 -0.4170
  661MOL0     C89131  12.334   9.037   9.060 -0.1516  0.0869 -0.1873
  661MOL0     C89132  12.461   9.088   9.017  0.2766 -0.5491 -0.3201
  661MOL0     C89133  12.566   9.079   9.111  0.1390  0.3769  0.5858
  661MOL0     C89134  12.547   9.014   9.244  0.0509 -0.2051  1.1076
  661MOL0     O89135  12.646   8.994   9.338 -0.0956 -0.7664  0.1306
  661MOL0     C89136  12.772   8.972   9.294 -0.4658  0.1647  0.1155
  661MOL0     C89137  12.870   9.087   9.339 -0.1380  0.0887  0.3665
  661MOL0     C89138  13.015   9.056   9.291  0.2067 -0.0032 -0.6309
  661MOL0     C89139  13.105   9.176   9.306 -0.4849 -0.6977 -0.2532
  661MOL0     C89140  13.255   9.151   9.269 -0.1152 -0.2820  0.4705
  661MOL0     C89141  13.352   9.263   9.292 -0.7954  0.1963 -0.2375
  661MOL0     C89142  13.476   9.229   9.210  0.5203 -0.0373 -0.6733
  661MOL0     C89143  13.574   9.334   9.244  0.2299  0.8041 -0.4988
  661MOL0    Cl89144  13.653   9.312   9.403  0.0841  0.1429 -0.9361
  661MOL0     C89145  12.424   8.966   9.271 -0.0236  0.5306 -0.3240
  661MOL0     C89146  12.310   8.970   9.180 -0.2926 -0.1937  0.5707
  661MOL0     O89147  12.271   8.963   8.799 -0.1849  0.4637 -0.3717
  661MOL0     C89148  11.995   9.172   8.857  0.3834 -0.4158 -0.6298
  661MOL0     C89149  11.890   9.248   8.798  0.4535 -0.1805 -0.4826
  661MOL0     N89150  11.426   9.625   8.378 -0.1252 -0.2315 -0.4294
  661MOL0     N89151  11.354   9.728   8.368 -0.1793 -0.0034  0.2404
  661MOL0     C89152  10.787  10.150   7.704 -0.1446  0.2922 -0.2007
  661MOL0     C89153  10.696  10.215   7.783  0.4904  0.2063 -0.2970
  661MOL0     C89154  10.502  10.563   8.032 -0.1289  0.8433 -0.0634
  661MOL0     C89155  10.381  10.550   7.962  0.7519  0.4995 -0.2390
  661MOL0     C89156  10.265  10.615   8.000 -0.9803 -0.0656  0.3273
  661MOL0     C89157  10.267  10.699   8.098  0.2750 -0.4549 -0.5261
  661MOL0     O89158  10.160  10.774   8.146  0.2062 -0.1535  0.2916
  661MOL0     C89159  10.019  10.750   8.113 -0.5833  0.0100  0.2655
  661MOL0     C89160   9.939  10.857   8.182 -0.0928 -0.7379  0.9201
  661MOL0     C89161   9.788  10.812   8.175 -0.6168 -0.6641 -0.3384
  661MOL0     C89162   9.700  10.876   8.293 -0.8701  0.1148  0.9531
  661MOL0     C89163   9.693  11.024   8.276  0.3017  0.5610 -0.2731
  661MOL0     C89164   9.675  11.139   8.257  0.1765  0.1782 -0.4287
  661MOL0     C89165  10.386  10.733   8.161  0.7562 -0.3246 -0.6696
  661MOL0     C89166  10.502  10.654   8.140  0.2080 -0.4492 -0.6150
  661MOL0     C89167  10.612  10.689   8.233  0.4780 -0.0381  0.0110
  661MOL0     H89168  10.821  10.523   7.777  1.7143 -0.3111  1.4468
  661MOL0     H89169  10.988  10.409   7.620 -0.7682  0.8108  0.6350
  661MOL0     H89170  11.001   9.968   7.641 -2.8497 -0.4683 -4.4991
  661MOL0     H89171  11.106  10.012   7.501  0.9318  0.6565  0.0238
  661MOL0     H89172  11.151  10.096   7.787 -2.7698 -0.4974 -1.3966
  661MOL0     H89173  11.218  10.189   7.656 -1.2221  1.2922  1.5680
  661MOL0     H89174  11.383  10.030   7.733  0.7788 -3.0568  1.2151
  661MOL0     H89175  11.334   9.974   7.574  0.7767 -1.8818 -0.1147
  661MOL0     H89176  11.203   9.785   7.699 -0.3306  1.4311 -0.1248
  661MOL0     H89177  11.371   9.804   7.751 -0.7687 -1.9454 -0.2806
  661MOL0     H89178  11.127   9.929   7.882  0.6840  1.4107  3.8282
  661MOL0     H89179  11.186   9.758   7.912  0.1383 -1.5473 -1.7918
  661MOL0     H89180  11.391   9.836   8.004 -0.4046 -0.9595  1.3312
  661MOL0     H89181  11.367   9.999   7.949  2.3690 -2.0886 -4.1788
  661MOL0     H89182  11.157  10.004   8.100 -0.2314 -0.2686 -0.8761
  661MOL0     H89183  11.311   9.994   8.186 -0.5201 -0.6921  0.0849
  661MOL0     H89184  11.137   9.850   8.292  0.5663 -0.2441  1.4396
  661MOL0     H89185  11.118   9.760   8.138  1.4758  1.0630 -2.5987
  661MOL0     H89186  11.309   9.603   8.067  1.9607 -0.1930  0.0886
  661MOL0     H89187  11.405   9.350   8.284  1.9847 -0.6216  1.3820
  661MOL0     H89188  11.448   9.408   8.122  0.3619  0.5003 -0.6025
  661MOL0     H89189  11.677   9.355   8.209  1.2926  1.6794 -0.1810
  661MOL0     H89190  11.647   9.522   8.248 -0.5860 -0.8112 -1.1956
  661MOL0     H89191  11.581   9.280   8.434  0.4954  0.3060  0.8218
  661MOL0     H89192  11.601   9.440   8.489 -1.3720 -2.7361  2.6673
  661MOL0     H89193  11.862   9.399   8.415 -2.9948  1.9459 -2.9712
  661MOL0     H89194  11.797   9.237   8.406 -1.6650  0.6196 -1.5956
  661MOL0     H89195  11.992   9.186   8.475 -0.0114 -0.3303 -0.4364
  661MOL0     H89196  12.174   9.077   8.587 -1.5896  0.6771 -0.5335
  661MOL0     H89197  12.468   9.159   8.936  0.5260  0.4438  0.5522
  661MOL0     H89198  12.662   9.126   9.096  1.1589 -2.0836 -1.1910
  661MOL0     H89199  12.815   8.880   9.334  0.9084 -0.7850 -3.2447
  661MOL0     H89200  12.784   8.965   9.186 -1.1798  1.8570 -0.1067
  661MOL0     H89201  12.827   9.179   9.296  0.9333  0.1484 -0.6222
  661MOL0     H89202  12.861   9.090   9.448 -1.6402  0.4813  0.2627
  661MOL0     H89203  13.067   8.973   9.339  2.2426  1.2860 -0.5202
  661MOL0     H89204  13.012   9.033   9.184 -0.1103 -2.4220 -0.1438
  661MOL0     H89205  13.098   9.219   9.406  1.1771  1.4439 -0.9725
  661MOL0     H89206  13.059   9.255   9.246 -4.0866 -2.2325  0.2438
  661MOL0     H89207  13.258   9.137   9.160 -0.1893 -0.2410  0.4643
  661MOL0     H89208  13.277   9.057   9.319 -1.6121  0.1997  2.1340
  661MOL0     H89209  13.303   9.356   9.262  0.7555  1.0236 -0.3121
  661MOL0     H89210  13.378   9.264   9.399 -1.1020 -0.2184 -0.1550
  661MOL0     H89211  13.440   9.229   9.107  0.5896 -1.4153 -0.7079
  661MOL0     H89212  13.518   9.133   9.240  0.6623  0.6964  1.7587
  661MOL0     H89213  13.651   9.323   9.168 -0.1506 -3.4251 -0.5207
  661MOL0     H89214  13.531   9.434   9.241  0.2820  0.8124 -1.0252
  661MOL0     H89215  12.393   8.909   9.358  1.9978  0.4944  0.4119
  661MOL0     H89216  12.214   8.922   9.196  0.1800 -0.9279  1.3616
  661MOL0     H89217  11.998   9.164   8.966 -0.5036 -0.3569 -0.5920
  661MOL0     H89218  11.816   9.301   8.858  2.9824  1.8425  1.0476
  661MOL0     H89219  10.783  10.043   7.687  0.2265 -0.0096  1.4039
  661MOL0     H89220  10.607  10.162   7.814  1.0558 -2.0534 -2.2061
  661MOL0     H89221  10.374  10.482   7.878  1.8553  0.5037 -0.3495
  661MOL0     H89222  10.167  10.593   7.958 -0.0677  0.9993 -2.5900
  661MOL0     H89223   9.982  10.653   8.148 -0.2418  0.0382  0.7167
  661MOL0     H89224   9.992  10.755   8.007  2.3791  1.0117 -0.5462
  661MOL0     H89225   9.959  10.950   8.128  0.6701 -1.5654 -0.2743
  661MOL0     H89226   9.980  10.866   8.283  0.2609  1.3828  0.6316
  661MOL0     H89227   9.769  10.705   8.179 -1.6435 -0.5981 -2.2883
  661MOL0     H89228   9.756  10.829   8.071  0.7791 -1.6311 -0.9547
  661MOL0     H89229   9.600  10.831   8.286 -0.5230 -0.4594 -3.0101
  661MOL0     H89230   9.757  10.839   8.378  1.6058  0.7374 -0.3556
  661MOL0     H89231   9.657  11.245   8.256 -1.8230 -0.0498  1.5513
  661MOL0     H89232  10.375  10.803   8.243  0.8402 -0.4740 -0.5296
  661MOL0     H89233  10.571  10.754   8.310  2.4112  2.0237 -0.5874
  661MOL0     H89234  10.675  10.606   8.267  2.7410  1.8400  0.6888
  661MOL0     H89235  10.682  10.752   8.177 -0.3723 -1.5787 -3.0155
  662MOL0     O89236   7.025   6.637   9.522 -0.2065  0.5372  0.3792
  662MOL0     C89237   7.010   6.536   9.598 -0.0373 -1.0342  0.1803
  662MOL0     O89238   7.100   6.499   9.690  0.3478  0.2971  0.2134
  662MOL0     C89239   7.178   6.597   9.750 -0.5124  0.1196  0.7634
  662MOL0     C89240   7.321   6.585   9.748  0.0791 -0.7625 -0.3416
  662MOL0     C89241   7.403   6.669   9.814  0.7459 -0.6168 -0.7585
  662MOL0     C89242   7.343   6.780   9.881  0.4904 -0.4274 -0.0531
  662MOL0     O89243   7.417   6.891   9.915 -0.0546 -0.1027  0.4810
  662MOL0     C89244   7.555   6.878   9.922 -0.7315 -0.1727 -0.1539
  662MOL0     C89245   7.616   7.017   9.959  0.4311 -0.2763 -0.4769
  662MOL0     C89246   7.547   7.074  10.090  0.4625 -0.1417  1.0784
  662MOL0     C89247   7.629   7.199  10.136  0.1366 -0.0169  0.0907
  662MOL0     C89248   7.570   7.271  10.262  0.2829 -0.2104  0.2887
  662MOL0     C89249   7.594   7.423  10.263 -0.1723  0.3688  0.0803
  662MOL0     C89250   7.580   7.483  10.406  0.4761  0.3857  0.3195
  662MOL0     C89251   7.599   7.631  10.391 -0.9513 -0.4316 -0.2417
  662MOL0     N89252   7.564   7.705  10.509  0.1321 -0.5150 -0.5232
  662MOL0     C89253   7.652   7.762  10.592 -0.1478 -0.5890  0.3144
  662MOL0     C89254   7.574   7.852  10.662 -0.1056 -0.5126  0.0612
  662MOL0     C89255   7.608   7.947  10.766 -0.3771 -0.1932  0.1288
  662MOL0     C89256   7.758   7.975  10.780 -0.2174  1.0250  0.2827
  662MOL0     C89257   7.842   7.871  10.861 -0.4533 -0.2634  0.2237
  662MOL0     C89258   7.985   7.910  10.875 -0.4273  0.1565  0.0386
  662MOL0     O89259   7.993   8.036  10.946  0.2320 -0.4597  0.3373
  662MOL0     C89260   8.118   8.096  10.951  0.4950 -0.8050 -0.3708
  662MOL0     C89261   8.118   8.234  10.945 -0.4508  0.7662  0.0935
  662MOL0     C89262   8.233   8.312  10.944 -0.2184 -0.1923  0.1242
  662MOL0     C89263   8.355   8.235  10.954  0.1826  0.4090  0.3364
  662MOL0     C89264   8.483   8.317  10.942 -0.0274  0.4799 -0.5198
  662MOL0     O89265   8.601   8.242  10.948  0.2912 -0.1407 -0.0647
  662MOL0     C89266   8.711   8.313  10.949 -0.0484 -0.6901 -0.0462
  662MOL0     C89267   8.797   8.323  10.833 -0.0948  0.2026  0.4048
  662MOL0     C89268   8.916   8.397  10.829 -0.0517 -0.2155 -0.1857
  662MOL0     C89269   8.959   8.456  10.948 -0.2916 -0.1160  0.6433
  662MOL0     O89270   9.081   8.514  10.932  0.3662 -0.2678  0.1357
  662MOL0     C89271   9.151   8.571  11.041 -0.2699 -0.2581 -0.3778
  662MOL0     C89272   9.299   8.574  11.001 -0.0597 -0.4898  0.4025
  662MOL0     C89273   9.386   8.645  11.092 -0.1757  0.6200 -0.1574
  662MOL0     C89274   9.523   8.649  11.032  0.0733  0.3220  0.5600
  662MOL0     C89275   9.635   8.686  11.137  0.2921  0.0781 -0.5205
  662MOL0     C89276   9.772   8.695  11.080  0.0484  1.0314 -0.2909
  662MOL0     C89277   9.869   8.715  11.192 -0.2085 -0.3425  1.1275
  662MOL0     C89278  10.016   8.729  11.141 -0.8773 -0.4791 -0.7962
  662MOL0    Cl89279  10.133   8.710  11.277  0.4369  0.2898 -0.0257
  662MOL0     C89280   8.881   8.445  11.067  0.0250  0.2644 -0.4638
  662MOL0     C89281   8.756   8.378  11.068  0.2577 -0.2099 -0.9619
  662MOL0     O89282   8.473   8.433  10.951 -0.2293 -1.0708  0.1390
  662MOL0     C89283   8.353   8.098  10.965 -0.6283 -0.1245  0.2166
  662MOL0     C89284   8.235   8.028  10.975 -0.7171  0.1430 -0.0622
  662MOL0     N89285   7.438   7.829  10.630  0.3599  0.7094  0.7036
  662MOL0     N89286   7.432   7.736  10.536 -0.6156  0.4512 -0.2302
  662MOL0     C89287   7.208   6.796   9.885  0.4189 -0.0783 -0.2862
  662MOL0     C89288   7.129   6.703   9.819  0.3326 -1.1983 -0.1777
  662MOL0     C89289   6.879   6.462   9.595  0.8610 -0.4371  0.0165
  662MOL0     C89290   6.828   6.432   9.464 -0.4187 -0.6065  0.2442
  662MOL0     C89291   6.706   6.364   9.444 -0.7102  0.6172 -0.2354
  662MOL0     C89292   6.633   6.316   9.551  1.2802  0.1077  0.1152
  662MOL0     O89293   6.515   6.255   9.518  0.1542  0.2185  0.2874
  662MOL0     C89294   6.438   6.177   9.617 -0.0579 -0.5349  0.2119
  662MOL0     C89295   6.325   6.108   9.539  0.3498 -0.2035  0.5946
  662MOL0     C89296   6.187   6.158   9.583  0.0104 -0.3364 -0.2541
  662MOL0     C89297   6.075   6.082   9.509 -0.2646 -0.3229  0.0355
  662MOL0     C89298   6.042   5.943   9.524 -0.7183  0.5985 -0.0264
  662MOL0     C89299   6.006   5.826   9.524 -0.4887  0.7202  0.8541
  662MOL0     C89300   6.688   6.336   9.680 -0.1323  0.4006  0.2295
  662MOL0     C89301   6.800   6.419   9.704 -0.3855 -0.3056 -0.3584
  662MOL0     C89302   6.830   6.439   9.855 -0.1651  0.4416  0.2525
  662MOL0     H89303   7.348   6.494   9.695 -2.0538 -2.6934  1.6746
  662MOL0     H89304   7.510   6.651   9.817  1.0896  1.2833  1.3173
  662MOL0     H89305   7.586   6.801   9.994  1.1525 -1.6280 -2.3692
  662MOL0     H89306   7.595   6.843   9.826 -0.6218  1.5528 -0.7597
  662MOL0     H89307   7.597   7.077   9.869 -2.0318 -1.8607 -1.1401
  662MOL0     H89308   7.723   7.023   9.977  0.1091  0.8969  1.3054
  662MOL0     H89309   7.547   7.001  10.171 -0.5146 -0.3533  0.8966
  662MOL0     H89310   7.447   7.107  10.058  0.6194 -1.7049 -1.2742
  662MOL0     H89311   7.723   7.159  10.175 -1.1180 -0.8730  2.3984
  662MOL0     H89312   7.644   7.270  10.054  0.8490  1.0380  1.0995
  662MOL0     H89313   7.462   7.253  10.266  0.0725  0.3679 -1.6132
  662MOL0     H89314   7.610   7.228  10.354  3.0703  2.2483  0.3662
  662MOL0     H89315   7.694   7.443  10.224 -0.4401  1.9426  0.1661
  662MOL0     H89316   7.530   7.472  10.190  0.0391 -0.5880 -0.7744
  662MOL0     H89317   7.651   7.433  10.473 -0.1022  1.0753  1.4750
  662MOL0     H89318   7.476   7.476  10.436  0.2007 -0.1492 -0.7329
  662MOL0     H89319   7.704   7.655  10.375 -1.1547  1.5615  1.0147
  662MOL0     H89320   7.537   7.675  10.313 -2.1324  0.4736  1.1569
  662MOL0     H89321   7.760   7.750  10.595 -0.0973 -0.7283 -1.4447
  662MOL0     H89322   7.557   8.042  10.748 -0.0421  0.2161  1.2735
  662MOL0     H89323   7.575   7.904  10.861  0.6677 -3.4067 -0.8254
  662MOL0     H89324   7.804   7.989  10.682  0.2613 -0.6887  0.2361
  662MOL0     H89325   7.771   8.067  10.837  1.9521  0.5127  0.6825
  662MOL0     H89326   7.827   7.771  10.819  0.1882 -0.0907 -0.4367
  662MOL0     H89327   7.799   7.865  10.962  2.1133 -0.0578  1.4166
  662MOL0     H89328   8.036   7.924  10.779 -2.6468  0.8744 -1.1209
  662MOL0     H89329   8.036   7.833  10.933  1.6110  1.7556  0.4715
  662MOL0     H89330   8.023   8.285  10.944 -0.0403  1.7219  2.5757
  662MOL0     H89331   8.231   8.420  10.931  2.0050 -0.2693 -1.4288
  662MOL0     H89332   8.766   8.276  10.740  1.1199 -0.1660  0.1667
  662MOL0     H89333   8.985   8.400  10.746 -1.9162  0.8058 -1.7929
  662MOL0     H89334   9.117   8.674  11.057  2.3190  0.4540  1.1049
  662MOL0     H89335   9.144   8.519  11.137 -1.9853  1.5167  0.5283
  662MOL0     H89336   9.333   8.472  10.981  0.1462  0.1155 -2.8929
  662MOL0     H89337   9.315   8.616  10.901 -1.3751 -0.5791  0.1428
  662MOL0     H89338   9.335   8.742  11.102  0.8988  1.3148 -1.1727
  662MOL0     H89339   9.370   8.586  11.183 -0.7399  0.5839 -0.2786
  662MOL0     H89340   9.528   8.724  10.952  2.1107 -0.4741 -0.1263
  662MOL0     H89341   9.561   8.554  10.994 -0.3583 -0.0560  1.0617
  662MOL0     H89342   9.634   8.615  11.220 -4.1105  0.3382 -0.1521
  662MOL0     H89343   9.616   8.783  11.182  1.2302  0.1169 -0.1893
  662MOL0     H89344   9.800   8.609  11.019  0.3000 -0.1461  1.4397
  662MOL0     H89345   9.774   8.783  11.015 -1.1014  1.2352 -0.0722
  662MOL0     H89346   9.863   8.638  11.269  0.2045 -1.4809  0.0501
  662MOL0     H89347   9.854   8.815  11.235  0.8321 -0.0696  0.9033
  662MOL0     H89348  10.035   8.653  11.064 -0.1079 -0.4523 -0.6394
  662MOL0     H89349  10.019   8.829  11.096 -3.4318  0.7461  1.5009
  662MOL0     H89350   8.917   8.495  11.156 -0.7338  2.1244 -1.1484
  662MOL0     H89351   8.699   8.379  11.160 -0.3209  2.1009 -1.2907
  662MOL0     H89352   8.447   8.047  10.946 -1.9288 -1.7319 -2.5724
  662MOL0     H89353   8.243   7.920  10.974  0.5098  0.2258 -1.7408
  662MOL0     H89354   7.176   6.883   9.940  0.7274 -0.1458  0.0037
  662MOL0     H89355   7.024   6.727   9.833  1.3374  1.8806  4.4178
  662MOL0     H89356   6.879   6.470   9.376  3.0562  0.5868  2.5846
  662MOL0     H89357   6.664   6.346   9.346  1.2660  1.6263 -1.3259
  662MOL0     H89358   6.395   6.251   9.684 -1.3328  0.9611 -2.1199
  662MOL0     H89359   6.507   6.108   9.667  2.3331  1.2866 -0.4273
  662MOL0     H89360   6.328   6.002   9.565  2.9995  0.1853  2.3195
  662MOL0     H89361   6.333   6.124   9.431 -1.9127  1.5476  0.6189
  662MOL0     H89362   6.178   6.266   9.570 -0.0717 -0.2557  0.4511
  662MOL0     H89363   6.183   6.133   9.689  3.0996  1.4413  0.4173
  662MOL0     H89364   5.984   6.143   9.509  0.2943  0.5349  0.2844
  662MOL0     H89365   6.113   6.082   9.406 -0.2837 -1.3691  0.0187
  662MOL0     H89366   5.990   5.720   9.521 -1.1642  0.8203  0.9181
  662MOL0     H89367   6.629   6.300   9.764 -2.4870 -0.5281 -1.6940
  662MOL0     H89368   6.937   6.436   9.878 -0.3335 -1.3051  0.9539
  662MOL0     H89369   6.784   6.530   9.895 -2.4319 -0.3720 -0.3640
  662MOL0     H89370   6.786   6.365   9.922 -0.7831  0.8668  0.3197
  663MOL0     O89371   5.266   9.527  10.406 -0.0264  0.4088  0.0406
  663MOL0     C89372   5.331   9.463  10.324  0.2067 -0.2510  0.1568
  663MOL0     O89373   5.466   9.484  10.301  0.2127  0.6321  0.7013
  663MOL0     C89374   5.530   9.594  10.350  0.3269  0.1817  0.3079
  663MOL0     C89375   5.474   9.724  10.343 -0.8048 -0.3301 -0.1812
  663MOL0     C89376   5.552   9.830  10.394  0.4654 -0.8557  0.2243
  663MOL0     C89377   5.688   9.811  10.438 -0.0420 -0.2268  1.6643
  663MOL0     O89378   5.759   9.917  10.490 -0.3667 -0.1301  0.4232
  663MOL0     C89379   5.762  10.044  10.415 -0.1380 -0.2116 -0.7371
  663MOL0     C89380   5.907  10.084  10.383 -0.4982  0.6674 -0.3829
  663MOL0     C89381   6.003  10.073  10.508  0.3962 -0.3208 -0.1268
  663MOL0     C89382   6.140  10.124  10.469  0.3606 -0.2152  0.0780
  663MOL0     C89383   6.233  10.140  10.591  0.1466  0.6251 -0.5604
  663MOL0     C89384   6.309  10.012  10.634 -0.0045  0.5746  0.6373
  663MOL0     C89385   6.404   9.962  10.523 -0.1190  0.1619 -0.5764
  663MOL0     C89386   6.393   9.807  10.498 -0.2829 -0.4659  0.3187
  663MOL0     N89387   6.437   9.715  10.602  0.2364  0.0782 -0.3968
  663MOL0     C89388   6.568   9.672  10.609 -0.5066  1.3088 -0.3674
  663MOL0     C89389   6.572   9.584  10.717  0.0562  0.7190  0.0315
  663MOL0     C89390   6.678   9.492  10.777  0.6155 -0.1893 -0.1138
  663MOL0     C89391   6.818   9.541  10.772  0.0972 -0.3379 -0.2831
  663MOL0     C89392   6.913   9.433  10.818  0.3003 -0.8388  0.1085
  663MOL0     C89393   7.053   9.451  10.759 -0.5097 -0.0769  0.7409
  663MOL0     O89394   7.114   9.579  10.801  0.0065 -0.4808  0.8747
  663MOL0     C89395   7.238   9.615  10.765  0.0758  0.0435 -0.0090
  663MOL0     C89396   7.316   9.546  10.675 -0.0171  0.0555 -0.2795
  663MOL0     C89397   7.448   9.591  10.643  0.2438 -0.8709  0.4111
  663MOL0     C89398   7.493   9.710  10.706 -0.0120 -0.1648 -0.0817
  663MOL0     C89399   7.634   9.754  10.688  0.7066  0.4188  0.3352
  663MOL0     O89400   7.692   9.740  10.568 -0.0884 -0.6222  0.5412
  663MOL0     C89401   7.816   9.791  10.552 -1.0640 -0.3093  1.0379
  663MOL0     C89402   7.921   9.703  10.527 -0.1484 -0.0716 -0.1272
  663MOL0     C89403   8.047   9.753  10.521 -0.2896  0.0990 -0.6403
  663MOL0     C89404   8.083   9.888  10.544 -0.0781 -0.6052 -0.8310
  663MOL0     O89405   8.213   9.943  10.538 -0.9001  0.1591  0.4316
  663MOL0     C89406   8.284   9.965  10.660 -0.3759  0.0983 -0.3563
  663MOL0     C89407   8.401  10.064  10.634  0.5323 -0.2690 -0.5400
  663MOL0     C89408   8.526  10.008  10.564  0.1714  0.0469  0.6219
  663MOL0     C89409   8.557   9.861  10.588 -0.2879 -0.1599 -0.2216
  663MOL0     C89410   8.598   9.843  10.733 -0.4114 -0.6020 -1.0392
  663MOL0     C89411   8.646   9.701  10.754 -0.6480  0.7168 -0.3102
  663MOL0     C89412   8.755   9.687  10.864 -1.1047 -0.4536 -0.1634
  663MOL0     C89413   8.824   9.548  10.869 -0.7905  0.2341 -0.2120
  663MOL0    Cl89414   8.930   9.503  11.001 -0.0512 -0.2617 -0.4482
  663MOL0     C89415   7.974   9.975  10.580  0.6453  0.2073  0.2540
  663MOL0     C89416   7.841   9.922  10.577 -0.0269 -0.5780 -0.5909
  663MOL0     O89417   7.679   9.801  10.786  0.8152  0.7450  0.2849
  663MOL0     C89418   7.405   9.776  10.795 -0.0283 -0.7200 -0.0032
  663MOL0     C89419   7.279   9.729  10.828  0.2691 -0.1440  0.2063
  663MOL0     N89420   6.438   9.572  10.762 -0.2361  0.5384 -0.3335
  663MOL0     N89421   6.359   9.640  10.687  0.4321 -0.5649 -0.0247
  663MOL0     C89422   5.746   9.682  10.439 -0.1220  0.3623  0.3067
  663MOL0     C89423   5.664   9.575  10.400 -0.1744 -0.0756 -0.1766
  663MOL0     C89424   5.264   9.338  10.256  1.4544 -0.1932  0.7322
  663MOL0     C89425   5.351   9.262  10.185 -0.0095  0.0501  0.3895
  663MOL0     C89426   5.312   9.154  10.113  0.0628  0.1543  1.0188
  663MOL0     C89427   5.173   9.112  10.130 -0.4628 -0.1253  0.1050
  663MOL0     O89428   5.139   8.996  10.061  0.1857  0.0869 -0.4217
  663MOL0     C89429   5.022   8.918  10.091 -0.3719  0.0517  0.2753
  663MOL0     C89430   4.996   8.825   9.978  0.4343  0.2578 -0.8338
  663MOL0     C89431   4.944   8.896   9.857 -0.1797 -0.2557  0.7135
  663MOL0     C89432   4.910   8.802   9.739 -0.1481  0.9630  1.0658
  663MOL0     C89433   5.025   8.729   9.689  0.3154 -0.3331  0.5889
  663MOL0     C89434   5.129   8.689   9.648  0.6390 -0.3841  0.4022
  663MOL0     C89435   5.084   9.187  10.202 -0.0076 -0.4911 -0.1092
  663MOL0     C89436   5.133   9.298  10.271 -0.2997  0.0780 -0.3523
  663MOL0     C89437   5.032   9.372  10.351 -0.0396  0.2725 -0.3411
  663MOL0     H89438   5.374   9.733  10.302 -2.9656 -3.4782  3.6302
  663MOL0     H89439   5.505   9.928  10.405 -0.3588 -1.1547 -0.5173
  663MOL0     H89440   5.696  10.039  10.329 -1.0290  0.5303 -0.1150
  663MOL0     H89441   5.713  10.116  10.481  0.6878  1.1914 -1.6061
  663MOL0     H89442   5.905  10.187  10.346  1.4937  0.3564 -1.5121
  663MOL0     H89443   5.948  10.018  10.306  2.3988  2.7377 -0.7853
  663MOL0     H89444   6.015   9.971  10.546  1.7313  0.5501  1.9179
  663MOL0     H89445   5.971  10.142  10.586  2.2948 -0.0436  0.4549
  663MOL0     H89446   6.174  10.062  10.385  3.3459  0.0561  1.0029
  663MOL0     H89447   6.121  10.221  10.422 -1.4661 -1.6668 -2.4837
  663MOL0     H89448   6.306  10.213  10.556 -1.3978  1.1712 -2.8613
  663MOL0     H89449   6.186  10.191  10.676 -0.2671 -0.9737  0.2137
  663MOL0     H89450   6.359  10.032  10.729  0.3993  1.7388  0.2031
  663MOL0     H89451   6.233   9.936  10.654  1.4409 -0.5775  1.9622
  663MOL0     H89452   6.509   9.974  10.552 -0.7806  1.3163  1.5501
  663MOL0     H89453   6.399  10.009  10.424  2.0628 -1.4806 -1.5545
  663MOL0     H89454   6.286   9.790  10.484 -0.1103 -1.6660  0.4031
  663MOL0     H89455   6.448   9.773  10.409  0.9511  3.9651 -0.8632
  663MOL0     H89456   6.642   9.706  10.538  0.0604  1.6540  0.3756
  663MOL0     H89457   6.648   9.474  10.881  1.1985 -2.9869 -0.3384
  663MOL0     H89458   6.669   9.393  10.731  0.1885  0.5407 -1.6491
  663MOL0     H89459   6.849   9.582  10.675  0.1157 -0.7016 -0.4323
  663MOL0     H89460   6.821   9.625  10.843 -1.7411 -2.3052  2.3066
  663MOL0     H89461   6.888   9.334  10.778  1.1623 -0.8119 -0.5308
  663MOL0     H89462   6.904   9.417  10.926  0.0734  0.3112  0.2625
  663MOL0     H89463   7.038   9.467  10.652  1.2498 -0.9626  0.3372
  663MOL0     H89464   7.123   9.370  10.779  1.4984  1.1382 -0.9082
  663MOL0     H89465   7.289   9.450  10.633 -1.4869 -0.1198  0.9600
  663MOL0     H89466   7.522   9.551  10.574  1.1020 -1.0382  1.4026
  663MOL0     H89467   7.908   9.595  10.521  1.4108 -0.3689  1.0017
  663MOL0     H89468   8.125   9.683  10.493  0.3853  0.5203  0.1571
  663MOL0     H89469   8.217  10.016  10.731 -0.6365 -0.8320  0.0851
  663MOL0     H89470   8.322   9.872  10.704 -0.2784  0.3298  0.0489
  663MOL0     H89471   8.361  10.152  10.583  1.2062 -0.0040 -0.6343
  663MOL0     H89472   8.437  10.093  10.733  0.7069  6.6403 -2.1327
  663MOL0     H89473   8.526  10.017  10.455  0.8221 -0.5499  0.5631
  663MOL0     H89474   8.611  10.075  10.582  0.1767  1.2477 -3.1395
  663MOL0     H89475   8.632   9.834  10.514 -0.4677 -0.2706 -0.3659
  663MOL0     H89476   8.465   9.806  10.566 -0.2104 -1.1600  1.7180
  663MOL0     H89477   8.522   9.858  10.809  1.8661  0.6477  1.1485
  663MOL0     H89478   8.677   9.918  10.743 -1.2038  0.6787 -3.4921
  663MOL0     H89479   8.569   9.633  10.793 -0.6382  0.3684 -0.8820
  663MOL0     H89480   8.690   9.660  10.662  1.8872 -1.5777  1.7483
  663MOL0     H89481   8.713   9.711  10.962  3.5513 -0.7861  2.2079
  663MOL0     H89482   8.838   9.757  10.847 -0.9467 -0.1614  1.6183
  663MOL0     H89483   8.748   9.469  10.864 -1.6386  1.0686 -1.0238
  663MOL0     H89484   8.887   9.538  10.780 -0.6198 -1.4874  0.0700
  663MOL0     H89485   7.998  10.080  10.597  1.6802  0.0425 -0.0971
  663MOL0     H89486   7.758   9.983  10.611  0.5381  1.0418 -1.9848
  663MOL0     H89487   7.436   9.870  10.840  0.2973  0.2823 -2.1890
  663MOL0     H89488   7.216   9.786  10.896  1.6381  1.3308  0.3190
  663MOL0     H89489   5.845   9.665  10.480 -1.2816 -2.9727  2.1677
  663MOL0     H89490   5.711   9.479  10.418  1.2130  0.2976 -1.5464
  663MOL0     H89491   5.454   9.293  10.171  0.0127 -0.6791 -1.2848
  663MOL0     H89492   5.388   9.093  10.066 -2.8310 -2.7300 -0.3109
  663MOL0     H89493   4.942   8.993  10.092  0.6001  1.1124  1.4104
  663MOL0     H89494   5.029   8.871  10.189 -0.5623  0.6184  0.5683
  663MOL0     H89495   4.920   8.756  10.016  2.3722  0.2082  3.5026
  663MOL0     H89496   5.090   8.771   9.963  0.8714  1.2449 -1.7497
  663MOL0     H89497   5.002   8.977   9.812  1.5011 -2.1529 -0.6764
  663MOL0     H89498   4.852   8.948   9.887  0.3183  1.3768 -0.4336
  663MOL0     H89499   4.843   8.725   9.778 -1.5254  0.5542 -1.8763
  663MOL0     H89500   4.858   8.845   9.653 -1.4493 -2.7925 -0.2345
  663MOL0     H89501   5.227   8.654   9.621  0.6349 -0.0619 -0.0267
  663MOL0     H89502   4.981   9.154  10.204 -0.1442 -0.0232  1.4045
  663MOL0     H89503   5.024   9.481  10.340 -2.5223  0.2199  0.3477
  663MOL0     H89504   4.931   9.332  10.342  0.3539 -0.8931  0.1800
  663MOL0     H89505   5.051   9.352  10.457 -1.5571 -3.0717 -0.5891
  664MOL0     O89506   8.954   7.477   8.103  0.2464 -0.1398 -0.6660
  664MOL0     C89507   9.043   7.401   8.059  0.2988  0.7956 -0.2090
  664MOL0     O89508   9.161   7.437   8.007  0.0269  0.1492 -0.9560
  664MOL0     C89509   9.207   7.565   7.989  0.0771  0.0730  0.5665
  664MOL0     C89510   9.344   7.576   8.002 -0.2649  0.2251  0.6225
  664MOL0     C89511   9.412   7.700   7.982  0.5998 -0.5075  0.1539
  664MOL0     C89512   9.333   7.820   7.966 -0.1053 -0.0210 -0.7881
  664MOL0     O89513   9.377   7.949   7.971  0.0829 -0.3067  0.1343
  664MOL0     C89514   9.524   7.977   7.960 -0.3620 -0.7324 -0.0772
  664MOL0     C89515   9.575   7.952   7.816  0.8998 -0.3856  0.1709
  664MOL0     C89516   9.702   8.032   7.780 -0.6729 -0.4662  0.1597
  664MOL0     C89517   9.755   7.998   7.636 -0.7281 -0.1165  0.2898
  664MOL0     C89518   9.868   8.104   7.597 -0.0962 -0.1181  0.8651
  664MOL0     C89519   9.952   8.075   7.463 -0.6311 -1.2180 -0.3289
  664MOL0     C89520  10.069   8.175   7.443  0.1319 -1.2255 -0.3904
  664MOL0     C89521  10.120   8.165   7.300 -0.0213 -0.0958 -0.6280
  664MOL0     N89522  10.236   8.244   7.271 -0.0289 -0.6481  0.3665
  664MOL0     C89523  10.362   8.193   7.236 -0.1998 -0.1995 -0.4634
  664MOL0     C89524  10.448   8.301   7.243  0.7389 -0.5353 -0.7770
  664MOL0     C89525  10.593   8.293   7.211 -1.1960  0.5990  0.8592
  664MOL0     C89526  10.638   8.342   7.072  0.2359 -0.7347 -0.1611
  664MOL0     C89527  10.609   8.495   7.044  0.3298  0.6128  0.7327
  664MOL0     C89528  10.622   8.516   6.890  0.0423  0.1574  0.3022
  664MOL0     O89529  10.607   8.654   6.857 -0.1227  0.0363 -0.2133
  664MOL0     C89530  10.692   8.738   6.910 -0.2193 -1.0083 -0.4134
  664MOL0     C89531  10.825   8.698   6.927  0.0571  0.0912 -0.2409
  664MOL0     C89532  10.907   8.773   7.007 -0.0264  0.0030  0.4312
  664MOL0     C89533  10.865   8.903   7.058 -0.1375 -0.0652  1.0011
  664MOL0     C89534  10.970   8.985   7.132  0.1437 -0.1849 -0.3944
  664MOL0     O89535  11.075   8.917   7.195  0.1016 -0.7576 -0.5262
  664MOL0     C89536  11.173   9.009   7.237  0.3859  0.3534  0.5155
  664MOL0     C89537  11.182   9.030   7.377  0.0653 -0.1882 -0.6372
  664MOL0     C89538  11.275   9.112   7.434  0.2049 -0.1181  0.5731
  664MOL0     C89539  11.368   9.171   7.354 -0.1411  0.7199 -0.6631
  664MOL0     O89540  11.467   9.251   7.399  0.7851  0.0440 -0.3544
  664MOL0     C89541  11.514   9.360   7.324  0.0512 -0.4016 -0.6817
  664MOL0     C89542  11.595   9.446   7.408 -0.5647 -0.1234 -0.0284
  664MOL0     C89543  11.688   9.544   7.323 -0.3889 -0.6934 -0.5030
  664MOL0     C89544  11.834   9.494   7.320 -0.0080 -0.4379 -0.4101
  664MOL0     C89545  11.911   9.534   7.451 -0.7899  0.1422  0.2316
  664MOL0     C89546  12.065   9.527   7.445 -0.5405 -0.0884  0.4229
  664MOL0     C89547  12.132   9.555   7.583  0.0641  0.0598 -0.7928
  664MOL0     C89548  12.288   9.565   7.589 -0.4849  0.1633 -0.2671
  664MOL0    Cl89549  12.326   9.723   7.513 -0.3292  0.4534  0.0569
  664MOL0     C89550  11.364   9.151   7.215  0.5477 -1.2684  0.3976
  664MOL0     C89551  11.260   9.073   7.155  0.0098 -1.2398 -0.1040
  664MOL0     O89552  10.957   9.106   7.129  0.4865 -0.3916 -0.2864
  664MOL0     C89553  10.726   8.947   7.045 -0.1846 -0.2133 -0.4244
  664MOL0     C89554  10.650   8.859   6.968 -0.6256 -0.0805  0.3302
  664MOL0     N89555  10.370   8.412   7.271 -0.3763  0.1904 -0.4201
  664MOL0     N89556  10.244   8.383   7.285 -0.2755  0.2888 -0.1909
  664MOL0     C89557   9.195   7.809   7.964 -0.5117 -0.7339  0.3579
  664MOL0     C89558   9.132   7.682   7.971  0.5144  0.1605 -0.2827
  664MOL0     C89559   9.008   7.254   8.055  0.0578 -0.0988 -0.2622
  664MOL0     C89560   8.876   7.216   8.059  0.9937  0.3017  0.4671
  664MOL0     C89561   8.839   7.083   8.038 -0.3548  0.1189 -0.5516
  664MOL0     C89562   8.929   6.975   8.017  0.7747  1.2031 -0.3077
  664MOL0     O89563   8.890   6.844   7.995  1.1135 -0.4946  0.6860
  664MOL0     C89564   8.761   6.800   8.030 -0.6135 -0.1987  0.0239
  664MOL0     C89565   8.674   6.785   7.901  0.1453 -0.6618 -0.2385
  664MOL0     C89566   8.516   6.782   7.935  0.4525  0.7449  0.7939
  664MOL0     C89567   8.434   6.877   7.847 -0.0950 -0.0239 -0.1286
  664MOL0     C89568   8.288   6.869   7.865  0.4503 -0.1870  1.2812
  664MOL0     C89569   8.174   6.845   7.884  0.1337 -0.9048 -1.2722
  664MOL0     C89570   9.060   7.006   8.003 -0.3547  0.0709 -0.3393
  664MOL0     C89571   9.100   7.148   8.027 -0.1176 -0.5955 -0.7486
  664MOL0     C89572   9.250   7.168   8.026  1.0167 -0.0080 -0.1874
  664MOL0     H89573   9.400   7.486   8.027 -2.7897 -1.7734 -0.4755
  664MOL0     H89574   9.520   7.710   7.977  0.8131 -2.2459  0.6823
  664MOL0     H89575   9.555   8.080   7.975  2.1345 -1.4184 -0.0544
  664MOL0     H89576   9.592   7.919   8.023 -0.2765 -0.2519  0.2789
  664MOL0     H89577   9.498   7.988   7.747  1.6830 -0.4914 -0.7697
  664MOL0     H89578   9.593   7.846   7.795 -0.9494 -0.3058 -2.2125
  664MOL0     H89579   9.777   8.021   7.859 -0.5690 -0.0073  0.1276
  664MOL0     H89580   9.676   8.138   7.774  0.9691 -0.1318 -3.3936
  664MOL0     H89581   9.806   7.902   7.643 -0.3123 -0.1102 -1.9701
  664MOL0     H89582   9.678   7.986   7.559 -0.4413  1.0705 -0.2157
  664MOL0     H89583   9.818   8.198   7.573  0.1162 -0.4423 -1.0461
  664MOL0     H89584   9.935   8.123   7.681  0.5864  2.1117 -0.1061
  664MOL0     H89585   9.995   7.975   7.477 -0.6339 -0.8628  3.1774
  664MOL0     H89586   9.896   8.079   7.370  2.1727 -0.5173 -2.1233
  664MOL0     H89587  10.148   8.158   7.516  0.5812  1.8687  0.0039
  664MOL0     H89588  10.038   8.279   7.456  0.1441 -1.3692  0.8419
  664MOL0     H89589  10.144   8.058   7.291 -2.2395 -1.0580  2.7494
  664MOL0     H89590  10.036   8.194   7.236 -1.7154 -0.9767  1.0590
  664MOL0     H89591  10.400   8.092   7.227  2.0505  0.6905 -1.7255
  664MOL0     H89592  10.636   8.364   7.283  0.2674  0.6538 -0.0389
  664MOL0     H89593  10.636   8.193   7.221 -0.1454  0.7404 -1.6176
  664MOL0     H89594  10.744   8.330   7.046  0.9293  2.1049  0.9445
  664MOL0     H89595  10.577   8.282   7.005  0.2915 -0.9822  0.0062
  664MOL0     H89596  10.678   8.559   7.100  0.0933  0.6362  0.9982
  664MOL0     H89597  10.510   8.534   7.071  0.5805  1.6303  0.2477
  664MOL0     H89598  10.546   8.456   6.839 -0.9526  0.0988  1.8031
  664MOL0     H89599  10.719   8.480   6.853 -1.6083 -3.8651 -0.6301
  664MOL0     H89600  10.875   8.623   6.867 -0.1620 -1.0732  1.0045
  664MOL0     H89601  11.010   8.740   7.015 -0.8591 -2.9003  0.5150
  664MOL0     H89602  11.100   8.983   7.430  0.5243  0.1133  0.3567
  664MOL0     H89603  11.277   9.133   7.541  0.0602  0.7166  0.4247
  664MOL0     H89604  11.561   9.324   7.232  0.6037  0.0937 -0.6021
  664MOL0     H89605  11.425   9.417   7.297  0.2988  1.9419  2.7179
  664MOL0     H89606  11.526   9.503   7.471  0.6404  1.1628  0.1746
  664MOL0     H89607  11.662   9.389   7.473 -0.6858 -0.4034 -0.1441
  664MOL0     H89608  11.669   9.545   7.216  2.3188  0.3014 -1.0690
  664MOL0     H89609  11.677   9.648   7.354  0.9364 -0.4926 -0.6405
  664MOL0     H89610  11.890   9.535   7.236  1.1750 -3.1921 -1.0713
  664MOL0     H89611  11.826   9.386   7.305 -0.7856 -0.3323 -0.7869
  664MOL0     H89612  11.877   9.473   7.536  1.1013 -1.7259 -0.2538
  664MOL0     H89613  11.885   9.639   7.467  0.6093  0.7130 -1.0351
  664MOL0     H89614  12.088   9.428   7.407 -0.4242 -0.4846  1.4979
  664MOL0     H89615  12.103   9.598   7.371  0.3679  0.2690  1.2107
  664MOL0     H89616  12.107   9.470   7.649 -1.4388 -1.4697 -3.1938
  664MOL0     H89617  12.089   9.646   7.626  0.1788 -1.3583  2.6737
  664MOL0     H89618  12.321   9.551   7.692 -1.3145  0.2646  0.0187
  664MOL0     H89619  12.336   9.482   7.536  1.0082 -0.8938  2.5364
  664MOL0     H89620  11.441   9.192   7.149 -0.9185 -0.1122 -0.6774
  664MOL0     H89621  11.253   9.075   7.046  1.0424  0.2455 -0.1805
  664MOL0     H89622  10.689   9.041   7.084 -0.5825 -0.1286 -0.9967
  664MOL0     H89623  10.541   8.863   6.971 -0.7151  1.1985 -2.2317
  664MOL0     H89624   9.137   7.900   7.951  0.9562 -0.1098 -2.8687
  664MOL0     H89625   9.024   7.676   7.980  0.6469 -0.1367  1.6862
  664MOL0     H89626   8.796   7.286   8.080  0.6770 -0.2484  1.1506
  664MOL0     H89627   8.731   7.067   8.038  0.0759 -4.4461 -2.5747
  664MOL0     H89628   8.719   6.871   8.101 -0.9936  0.7041 -1.0646
  664MOL0     H89629   8.770   6.697   8.065  2.8481 -1.0097 -2.6649
  664MOL0     H89630   8.696   6.690   7.851  0.1336  0.0151 -1.5722
  664MOL0     H89631   8.692   6.869   7.833 -0.2068  0.8841  1.4967
  664MOL0     H89632   8.499   6.805   8.040  3.5887  1.2277  1.3081
  664MOL0     H89633   8.491   6.677   7.917  1.0547  0.6357  0.5454
  664MOL0     H89634   8.475   6.969   7.891  0.7112  0.7000 -2.2732
  664MOL0     H89635   8.459   6.870   7.741  1.8119 -3.1409  0.4065
  664MOL0     H89636   8.070   6.836   7.909  0.2911  2.8958  1.6470
  664MOL0     H89637   9.133   6.933   7.970 -1.8308 -1.2477 -0.8068
  664MOL0     H89638   9.306   7.080   8.059 -0.9324 -1.0926  0.4088
  664MOL0     H89639   9.286   7.190   7.925 -0.8816 -1.3847 -1.2337
  664MOL0     H89640   9.278   7.248   8.094  1.2257 -0.9570  0.8754
  665MOL0     O89641   4.617   4.542   1.577  0.0039  0.2260 -0.0263
  665MOL0     C89642   4.512   4.604   1.595 -0.0808 -1.0750 -0.2693
  665MOL0     O89643   4.495   4.738   1.569 -0.2316  0.2169  0.0588
  665MOL0     C89644   4.594   4.823   1.532 -1.1216  0.0228  0.3039
  665MOL0     C89645   4.715   4.829   1.602 -0.5117  0.5205 -0.7570
  665MOL0     C89646   4.806   4.923   1.564 -0.3083  0.1627 -0.4651
  665MOL0     C89647   4.792   5.010   1.460 -1.0777 -0.3750 -0.2411
  665MOL0     O89648   4.887   5.107   1.419 -0.1278 -0.0220  0.0137
  665MOL0     C89649   4.959   5.157   1.532 -0.0964  0.0866 -0.5590
  665MOL0     C89650   5.047   5.272   1.494 -0.1272 -0.3654 -0.1638
  665MOL0     C89651   5.129   5.326   1.614  0.4055  0.6030 -0.5236
  665MOL0     C89652   5.195   5.459   1.580 -0.2866  0.2632  0.5772
  665MOL0     C89653   5.262   5.525   1.696  0.4149 -0.4899 -0.9979
  665MOL0     C89654   5.328   5.656   1.652  0.0009  0.8137  0.2780
  665MOL0     C89655   5.423   5.696   1.767  0.3055 -0.4835 -0.4019
  665MOL0     C89656   5.521   5.804   1.718  0.5687 -0.2263  0.3639
  665MOL0     N89657   5.648   5.801   1.800  1.0665 -0.6884 -0.2810
  665MOL0     C89658   5.767   5.856   1.763  0.5140 -0.6832 -1.4448
  665MOL0     C89659   5.859   5.819   1.860 -0.2675  0.1073 -0.7994
  665MOL0     C89660   6.000   5.855   1.866 -0.7737  0.3229 -0.4634
  665MOL0     C89661   6.076   5.853   1.725 -0.1938  0.1600 -0.2627
  665MOL0     C89662   6.226   5.856   1.745 -0.4301 -0.2126  0.1733
  665MOL0     C89663   6.290   5.865   1.602 -0.9338 -0.6163 -0.9539
  665MOL0     O89664   6.252   5.738   1.531 -0.0241 -0.2060 -0.3558
  665MOL0     C89665   6.326   5.621   1.554 -0.0128 -0.5530 -0.1654
  665MOL0     C89666   6.288   5.500   1.478 -0.1939 -0.4969  0.3876
  665MOL0     C89667   6.371   5.389   1.494 -0.4679 -0.0502 -0.0995
  665MOL0     C89668   6.474   5.386   1.579  0.2407  0.4739  0.1580
  665MOL0     C89669   6.552   5.273   1.615 -0.8910 -0.2888  0.5253
  665MOL0     O89670   6.670   5.289   1.688  0.1688 -0.1513  0.3710
  665MOL0     C89671   6.759   5.185   1.707  0.3021  0.3542 -0.1821
  665MOL0     C89672   6.844   5.209   1.817 -0.3054  0.5850  0.0923
  665MOL0     C89673   6.951   5.131   1.859 -0.3736 -0.1886  0.1880
  665MOL0     C89674   6.977   5.021   1.779 -0.0741  0.0013 -0.1312
  665MOL0     O89675   7.080   4.931   1.794 -0.1164 -0.4677  0.0832
  665MOL0     C89676   7.195   4.977   1.865 -0.4858 -0.6578  0.6617
  665MOL0     C89677   7.182   4.966   2.019  0.8667 -1.1429  0.0884
  665MOL0     C89678   7.272   5.067   2.088 -0.0224 -0.5267 -0.1793
  665MOL0     C89679   7.392   4.995   2.141  1.1246  0.9041 -0.2854
  665MOL0     C89680   7.504   5.095   2.183  0.2943 -0.8602  0.1082
  665MOL0     C89681   7.637   5.075   2.117 -0.2537  0.7241  0.5309
  665MOL0     C89682   7.724   5.179   2.163 -0.0178  0.2590  0.3623
  665MOL0     C89683   7.854   5.160   2.086  0.1963 -0.2926 -0.7499
  665MOL0    Cl89684   7.985   5.286   2.123  0.2552  0.0623  0.2774
  665MOL0     C89685   6.885   4.985   1.672 -0.1405 -0.3251 -1.1059
  665MOL0     C89686   6.781   5.070   1.635 -0.4265  0.3760  0.2702
  665MOL0     O89687   6.496   5.163   1.598 -0.7044  0.4977  0.2917
  665MOL0     C89688   6.509   5.498   1.648  0.0331  0.3194 -0.1644
  665MOL0     C89689   6.425   5.607   1.649 -0.5909 -1.0238  0.2406
  665MOL0     N89690   5.784   5.762   1.960  0.1472 -0.5308 -0.0767
  665MOL0     N89691   5.666   5.752   1.921  0.4897  0.0798 -0.1464
  665MOL0     C89692   4.677   4.993   1.377  0.2766  0.8960 -0.4556
  665MOL0     C89693   4.586   4.895   1.415  0.7895  0.6878 -0.1054
  665MOL0     C89694   4.387   4.535   1.633 -0.1468 -0.2005 -0.6822
  665MOL0     C89695   4.267   4.612   1.658 -0.1613 -0.2484 -0.3791
  665MOL0     C89696   4.151   4.547   1.705  0.6172 -0.2762 -0.4930
  665MOL0     C89697   4.134   4.406   1.703  0.5034 -0.0618  0.3641
  665MOL0     O89698   4.007   4.347   1.715 -0.1198 -0.0348 -0.7158
  665MOL0     C89699   3.882   4.414   1.712 -0.4181 -0.5898  0.0741
  665MOL0     C89700   3.847   4.490   1.841 -1.0984  0.3667 -0.1808
  665MOL0     C89701   3.733   4.582   1.809 -0.1738 -0.4204 -0.0309
  665MOL0     C89702   3.705   4.681   1.923 -0.8519  1.0684  0.1238
  665MOL0     C89703   3.635   4.613   2.028  0.1855 -0.2199  0.3301
  665MOL0     C89704   3.578   4.538   2.107  1.1199 -0.0781  0.0481
  665MOL0     C89705   4.249   4.329   1.678 -0.1568 -0.3151 -0.7324
  665MOL0     C89706   4.375   4.394   1.651 -0.4595  0.4290  0.0850
  665MOL0     C89707   4.488   4.296   1.623  0.1355 -0.6453  0.2098
  665MOL0     H89708   4.747   4.772   1.689 -1.5273  2.7280  1.1856
  665MOL0     H89709   4.904   4.921   1.610 -0.5717  1.7488  0.2373
  665MOL0     H89710   4.885   5.188   1.607  0.2885 -0.6801  0.1582
  665MOL0     H89711   5.025   5.084   1.581 -0.9369 -0.8025 -0.7267
  665MOL0     H89712   4.980   5.350   1.456  1.5719  1.4664  0.3846
  665MOL0     H89713   5.120   5.250   1.415 -1.8107 -0.3538 -1.7928
  665MOL0     H89714   5.206   5.254   1.643 -1.4969 -2.0271 -1.6188
  665MOL0     H89715   5.070   5.337   1.706  0.1823 -2.0567 -0.2515
  665MOL0     H89716   5.272   5.447   1.503 -0.6550 -1.3182  0.4238
  665MOL0     H89717   5.124   5.531   1.538  0.5553  1.3519  0.9766
  665MOL0     H89718   5.188   5.555   1.771  1.4768  0.4877 -0.3028
  665MOL0     H89719   5.340   5.457   1.732 -0.4642  0.0971  2.2697
  665MOL0     H89720   5.383   5.645   1.559 -2.4212  0.4805 -1.2126
  665MOL0     H89721   5.253   5.730   1.623  0.6741  0.5452 -2.4098
  665MOL0     H89722   5.482   5.609   1.796 -1.8330 -1.3114  1.8589
  665MOL0     H89723   5.365   5.743   1.847  1.1577  0.4104 -0.2887
  665MOL0     H89724   5.541   5.785   1.612 -2.6130 -2.9255  0.0769
  665MOL0     H89725   5.467   5.899   1.728  2.7557  1.2853 -1.2864
  665MOL0     H89726   5.788   5.920   1.678  0.3812  0.6006 -0.5315
  665MOL0     H89727   6.008   5.958   1.901  0.3914 -0.2045  0.8765
  665MOL0     H89728   6.045   5.798   1.947 -0.1328 -0.5122 -1.3800
  665MOL0     H89729   6.041   5.770   1.664 -1.8127  2.5758 -2.8416
  665MOL0     H89730   6.050   5.943   1.670  1.9291  1.2360  0.3909
  665MOL0     H89731   6.265   5.762   1.784  3.0294  0.5275 -1.1616
  665MOL0     H89732   6.275   5.935   1.802  0.7866 -0.3906 -0.5784
  665MOL0     H89733   6.399   5.877   1.603 -0.7963 -0.7484 -4.1845
  665MOL0     H89734   6.248   5.956   1.560  2.2976  1.3904 -0.1866
  665MOL0     H89735   6.210   5.510   1.404 -0.7537  0.0713  1.0382
  665MOL0     H89736   6.347   5.304   1.431 -1.6911  1.0589 -1.1947
  665MOL0     H89737   6.829   5.308   1.859  2.8080  1.9992 -1.7114
  665MOL0     H89738   7.008   5.163   1.946 -1.3182  0.9201  0.4159
  665MOL0     H89739   7.281   4.920   1.828 -0.6169 -1.2894  1.3075
  665MOL0     H89740   7.211   5.081   1.834 -4.8181 -0.0095 -0.0415
  665MOL0     H89741   7.083   4.991   2.058  1.5653  1.2468  0.5113
  665MOL0     H89742   7.196   4.860   2.041  2.9311 -1.3277 -1.7367
  665MOL0     H89743   7.297   5.157   2.031 -0.4387  0.8404  1.7107
  665MOL0     H89744   7.217   5.104   2.175  1.9243 -0.4456  1.0838
  665MOL0     H89745   7.431   4.938   2.056  1.9839 -2.4977  2.1749
  665MOL0     H89746   7.369   4.929   2.224  4.4178  0.2163  0.2300
  665MOL0     H89747   7.507   5.088   2.292 -1.4300 -2.5424  0.0881
  665MOL0     H89748   7.463   5.194   2.161  0.0023 -1.3567 -1.7410
  665MOL0     H89749   7.666   4.973   2.142 -0.6370  0.6100  0.5182
  665MOL0     H89750   7.629   5.089   2.008  0.7330 -1.1186  0.1957
  665MOL0     H89751   7.746   5.169   2.270 -1.0232 -2.0370  0.3969
  665MOL0     H89752   7.679   5.272   2.128  0.4108 -0.0440 -1.0549
  665MOL0     H89753   7.899   5.064   2.112  1.0713  0.2091 -0.3505
  665MOL0     H89754   7.831   5.170   1.979 -0.7684 -1.7526 -0.7127
  665MOL0     H89755   6.895   4.891   1.619  1.5023 -0.5157 -0.5285
  665MOL0     H89756   6.706   5.047   1.560 -2.3697  0.3676  2.1147
  665MOL0     H89757   6.603   5.509   1.701  0.7257 -2.7444 -0.5717
  665MOL0     H89758   6.448   5.691   1.713 -2.8582  0.1835 -0.4287
  665MOL0     H89759   4.647   5.057   1.295 -2.2660 -0.4066 -0.6595
  665MOL0     H89760   4.504   4.883   1.344  1.1966  0.4101 -0.5340
  665MOL0     H89761   4.277   4.720   1.648 -0.2514  0.4376  4.4920
  665MOL0     H89762   4.067   4.607   1.740  2.0286  0.5392  1.7510
  665MOL0     H89763   3.800   4.345   1.692 -3.0498  2.1332  0.6289
  665MOL0     H89764   3.876   4.482   1.626  0.9488  0.4997  0.7946
  665MOL0     H89765   3.935   4.546   1.873 -0.3939 -2.1581  2.6614
  665MOL0     H89766   3.811   4.426   1.921 -1.9443 -0.6478 -1.3317
  665MOL0     H89767   3.651   4.520   1.771  0.0874 -0.1054 -1.1621
  665MOL0     H89768   3.760   4.641   1.720 -0.0661 -0.5722 -0.0999
  665MOL0     H89769   3.792   4.726   1.971 -1.8499  1.4180  1.6713
  665MOL0     H89770   3.638   4.759   1.885 -1.7113 -0.2377 -1.1950
  665MOL0     H89771   3.530   4.467   2.171  1.2885  0.5710  0.9093
  665MOL0     H89772   4.260   4.221   1.683  1.5674 -0.3501 -3.3031
  665MOL0     H89773   4.569   4.304   1.696 -0.0923  1.6748  0.2936
  665MOL0     H89774   4.463   4.190   1.624  1.0242 -0.8937  2.4157
  665MOL0     H89775   4.536   4.323   1.528  2.1603 -0.3948  1.2494
  666MOL0     O89776   7.305  10.148   7.051 -0.0158 -0.9068  0.0333
  666MOL0     C89777   7.261  10.049   7.117  0.4835  0.1488  0.7452
  666MOL0     O89778   7.326   9.998   7.229 -0.2140 -0.1353  0.3137
  666MOL0     C89779   7.426  10.075   7.272  0.8929  0.4040  0.6161
  666MOL0     C89780   7.559  10.024   7.266  0.1707  0.9803 -0.5160
  666MOL0     C89781   7.660  10.104   7.326  0.0977  0.5073 -0.3017
  666MOL0     C89782   7.632  10.235   7.368  0.5206  0.0195  0.1778
  666MOL0     O89783   7.720  10.332   7.405 -0.0019 -0.3742  0.2045
  666MOL0     C89784   7.853  10.295   7.418 -1.1302  0.2793 -0.1926
  666MOL0     C89785   7.938  10.399   7.504  0.5067  0.0285  0.1439
  666MOL0     C89786   7.908  10.555   7.477  0.5141 -0.3330 -0.6019
  666MOL0     C89787   8.014  10.656   7.520 -0.1910 -0.4194  0.2802
  666MOL0     C89788   8.139  10.637   7.423  0.2260 -0.9585  0.2803
  666MOL0     C89789   8.199  10.783   7.432 -0.2250 -0.1481  0.6248
  666MOL0     C89790   8.337  10.795   7.361 -0.0006 -0.2233 -0.7210
  666MOL0     C89791   8.318  10.789   7.204  0.3687  0.4946 -1.0059
  666MOL0     N89792   8.440  10.817   7.129  0.1359  0.3691  0.2642
  666MOL0     C89793   8.452  10.792   6.995 -0.0134 -0.7563 -0.1387
  666MOL0     C89794   8.584  10.823   6.969 -0.2399 -0.5797 -0.6692
  666MOL0     C89795   8.648  10.791   6.837 -0.3154 -1.2849  0.6690
  666MOL0     C89796   8.760  10.881   6.791  0.1736 -0.4565  0.6579
  666MOL0     C89797   8.884  10.859   6.873  0.1392  0.0357  0.0547
  666MOL0     C89798   9.000  10.942   6.814 -0.1080  0.8700 -0.0787
  666MOL0     O89799   9.009  10.913   6.674 -0.2921 -0.0762 -0.0366
  666MOL0     C89800   9.113  10.968   6.598 -0.3480  0.0753  0.0627
  666MOL0     C89801   9.150  10.890   6.488 -0.8451  0.3353  0.2353
  666MOL0     C89802   9.268  10.914   6.411  0.3530  0.4327 -0.0202
  666MOL0     C89803   9.341  11.030   6.445  0.1226  0.1614  0.3438
  666MOL0     C89804   9.457  11.076   6.367 -0.0780  0.8570 -0.0301
  666MOL0     O89805   9.471  11.001   6.248 -0.9754  0.0098 -0.3397
  666MOL0     C89806   9.568  11.045   6.168 -0.0157 -0.2635  0.2107
  666MOL0     C89807   9.531  11.138   6.072 -0.1202 -0.3613  0.5645
  666MOL0     C89808   9.623  11.176   5.973 -0.5131 -0.2399 -0.3712
  666MOL0     C89809   9.755  11.137   5.974  0.2408 -0.1673 -0.0839
  666MOL0     O89810   9.847  11.181   5.879 -0.1300 -1.5930  0.4318
  666MOL0     C89811   9.982  11.145   5.882  0.3499  0.4520  0.0846
  666MOL0     C89812  10.071  11.248   5.825  0.0263 -0.4285 -0.0863
  666MOL0     C89813  10.202  11.198   5.779 -0.0973  0.6119 -0.1518
  666MOL0     C89814  10.310  11.191   5.882 -1.0231  1.3000 -0.1600
  666MOL0     C89815  10.445  11.150   5.822  0.3188 -0.5776 -0.1331
  666MOL0     C89816  10.547  11.133   5.928  0.2416  0.3979  0.0606
  666MOL0     C89817  10.683  11.079   5.878  0.5014 -0.4266  1.0456
  666MOL0     C89818  10.768  11.052   5.989  0.0487  0.3449 -0.3780
  666MOL0    Cl89819  10.938  11.052   5.948  0.1098 -0.1131 -0.3714
  666MOL0     C89820   9.787  11.040   6.069  0.3804  0.1549 -0.2018
  666MOL0     C89821   9.702  10.995   6.169  0.9450 -1.1335 -0.2351
  666MOL0     O89822   9.514  11.182   6.396 -0.3740 -0.2938  0.3074
  666MOL0     C89823   9.303  11.104   6.563 -0.3399 -0.7247 -0.2774
  666MOL0     C89824   9.191  11.074   6.640 -0.1412  0.6757 -0.2263
  666MOL0     N89825   8.646  10.866   7.083 -0.0909 -0.0637 -0.3628
  666MOL0     N89826   8.560  10.862   7.177 -0.7916 -0.2358  0.3413
  666MOL0     C89827   7.502  10.282   7.366  0.1717 -0.4598 -0.0347
  666MOL0     C89828   7.406  10.202   7.318 -0.5723  0.1783  0.8876
  666MOL0     C89829   7.134   9.981   7.081  0.2610  0.4307  1.2773
  666MOL0     C89830   7.112   9.846   7.111  0.1959  0.6983 -0.4238
  666MOL0     C89831   6.996   9.774   7.073  0.2313  0.5756  1.0022
  666MOL0     C89832   6.891   9.836   6.994  0.3276 -0.1310 -0.5874
  666MOL0     O89833   6.773   9.766   6.953  0.1730  0.1333  0.6784
  666MOL0     C89834   6.667   9.824   6.870 -0.5233 -0.2710  0.1361
  666MOL0     C89835   6.586   9.722   6.794  0.2277 -0.3061  0.1671
  666MOL0     C89836   6.483   9.794   6.705 -0.3819  0.3145  0.5548
  666MOL0     C89837   6.388   9.691   6.654 -0.0209  0.3373 -0.0897
  666MOL0     C89838   6.267   9.767   6.614 -0.1422  0.9971  0.8893
  666MOL0     C89839   6.171   9.822   6.583 -0.2947 -0.8217  1.0712
  666MOL0     C89840   6.915   9.964   6.962 -0.3924  0.3817  0.4490
  666MOL0     C89841   7.036  10.033   6.988 -0.2477  0.3766 -0.4452
  666MOL0     C89842   7.052  10.177   6.933  0.8599 -0.1591  0.3978
  666MOL0     H89843   7.585   9.926   7.229  0.9839  1.8502 -2.3485
  666MOL0     H89844   7.758  10.060   7.339 -0.5167 -0.2275  2.6790
  666MOL0     H89845   7.868  10.203   7.475 -0.2122  1.7982  2.1456
  666MOL0     H89846   7.897  10.282   7.319  1.8452 -0.1585  1.0858
  666MOL0     H89847   8.040  10.377   7.471  0.3716 -1.3931  0.5829
  666MOL0     H89848   7.927  10.381   7.611 -0.2893  0.4974  0.1425
  666MOL0     H89849   7.816  10.589   7.528  1.8620  3.0143 -0.1535
  666MOL0     H89850   7.896  10.568   7.369  0.4202 -0.4680 -0.6081
  666MOL0     H89851   7.972  10.757   7.520 -1.0104 -0.7289  1.7208
  666MOL0     H89852   8.052  10.627   7.618  2.4815  2.3656  0.2285
  666MOL0     H89853   8.213  10.572   7.471 -2.3775 -1.1157  4.6478
  666MOL0     H89854   8.125  10.607   7.319 -0.8941  0.6709 -0.0929
  666MOL0     H89855   8.133  10.851   7.377  2.8601  1.9716 -0.7092
  666MOL0     H89856   8.210  10.819   7.535  2.5703 -1.9731  1.0782
  666MOL0     H89857   8.417  10.726   7.387  1.3214  1.2831 -0.6064
  666MOL0     H89858   8.382  10.894   7.379  1.3258 -0.2424 -3.4358
  666MOL0     H89859   8.269  10.694   7.179 -1.2424  1.1618 -0.5036
  666MOL0     H89860   8.239  10.862   7.189 -2.3470 -2.3252 -1.4320
  666MOL0     H89861   8.376  10.755   6.927 -0.2691 -0.2554 -0.1315
  666MOL0     H89862   8.681  10.688   6.828 -0.3694 -1.1364 -2.1549
  666MOL0     H89863   8.577  10.801   6.753  0.9575  1.1703 -0.2340
  666MOL0     H89864   8.787  10.866   6.686  0.4623  2.8706  0.1240
  666MOL0     H89865   8.748  10.989   6.809  4.3547  0.4144 -0.5864
  666MOL0     H89866   8.899  10.751   6.879 -4.3184 -0.7196  1.0115
  666MOL0     H89867   8.883  10.897   6.976  5.0617 -0.8343  0.6667
  666MOL0     H89868   9.099  10.930   6.861  2.0496  1.2671 -4.0417
  666MOL0     H89869   8.977  11.048   6.827 -2.4280  0.4929 -0.7494
  666MOL0     H89870   9.085  10.804   6.477  0.2891 -0.3924 -1.1798
  666MOL0     H89871   9.301  10.873   6.316 -0.0385  2.9296 -1.3220
  666MOL0     H89872   9.426  11.165   6.080 -0.3543 -1.5540  1.8788
  666MOL0     H89873   9.588  11.248   5.900  0.3316  2.9633  2.1706
  666MOL0     H89874  10.021  11.096   5.972 -0.9137  0.6533  0.7722
  666MOL0     H89875   9.972  11.062   5.811  1.4014  0.8407 -0.5322
  666MOL0     H89876  10.020  11.290   5.737  0.0650  1.3227  0.6917
  666MOL0     H89877  10.059  11.326   5.901 -4.4817 -1.1637  0.2383
  666MOL0     H89878  10.192  11.105   5.722 -0.2319  0.1752  0.5687
  666MOL0     H89879  10.237  11.261   5.697 -0.3581 -1.2778 -1.7570
  666MOL0     H89880  10.288  11.121   5.963  0.5774  0.9240 -0.0298
  666MOL0     H89881  10.336  11.288   5.924 -1.8024  0.3965  2.6038
  666MOL0     H89882  10.487  11.215   5.745 -3.0548  1.3375 -0.5445
  666MOL0     H89883  10.426  11.052   5.777 -1.7655 -0.5032  0.4764
  666MOL0     H89884  10.575  11.227   5.978  0.3825  1.2658 -1.5950
  666MOL0     H89885  10.516  11.069   6.011  0.0596  3.1215  2.2790
  666MOL0     H89886  10.735  11.154   5.818 -0.4152 -0.1332  0.6012
  666MOL0     H89887  10.662  10.985   5.826  0.1858 -0.1595  0.6802
  666MOL0     H89888  10.754  11.127   6.067  2.3652 -1.0529  1.5348
  666MOL0     H89889  10.752  10.952   6.030  3.4696 -0.9665 -1.8434
  666MOL0     H89890   9.882  10.988   6.072 -0.5384 -1.6391 -0.4888
  666MOL0     H89891   9.724  10.936   6.257 -2.8410 -1.0603  0.9646
  666MOL0     H89892   9.354  11.195   6.593  0.6933 -1.6430  0.8681
  666MOL0     H89893   9.161  11.130   6.728 -1.0026  1.2770 -0.8847
  666MOL0     H89894   7.479  10.381   7.406 -0.7268 -0.4680 -0.5012
  666MOL0     H89895   7.306  10.246   7.317 -0.3140  0.8184 -1.2521
  666MOL0     H89896   7.179   9.798   7.182  0.1368  1.6535  0.3062
  666MOL0     H89897   6.995   9.674   7.115  1.7633  1.1198  2.4613
  666MOL0     H89898   6.710   9.890   6.793  2.5147 -1.4153  0.7196
  666MOL0     H89899   6.600   9.883   6.933  2.0451  2.6714  0.3013
  666MOL0     H89900   6.545   9.645   6.860 -1.2653 -0.0487 -0.4378
  666MOL0     H89901   6.661   9.675   6.730  0.0740 -0.0912 -0.1709
  666MOL0     H89902   6.531   9.847   6.622 -0.8829 -0.1895 -0.0699
  666MOL0     H89903   6.430   9.870   6.762 -0.5163  1.1312 -0.6144
  666MOL0     H89904   6.434   9.640   6.570 -0.5378  0.1519 -0.2682
  666MOL0     H89905   6.367   9.621   6.736 -0.1394  0.4576 -0.0162
  666MOL0     H89906   6.093   9.884   6.545 -0.0785 -1.6942 -0.9537
  666MOL0     H89907   6.848  10.020   6.896  0.0606  0.2222 -0.1498
  666MOL0     H89908   7.073  10.243   7.018  0.4059  0.2611  0.1918
  666MOL0     H89909   7.133  10.183   6.859  1.3533 -2.3591  0.7070
  666MOL0     H89910   6.958  10.224   6.902  1.1085 -0.6857 -1.2747
  667MOL0     O89911   9.643   2.799   3.736 -0.4831  0.4411 -0.0028
  667MOL0     C89912   9.596   2.694   3.781  0.2878  0.4795  0.0078
  667MOL0     O89913   9.468   2.650   3.761  0.5306 -0.0079 -0.0786
  667MOL0     C89914   9.376   2.708   3.676  0.1897 -0.3733  0.1246
  667MOL0     C89915   9.399   2.735   3.542 -0.1186  0.3275 -0.3999
  667MOL0     C89916   9.303   2.794   3.461  0.5343 -0.1694 -0.0018
  667MOL0     C89917   9.178   2.828   3.515  0.3974  0.5619  0.4055
  667MOL0     O89918   9.077   2.885   3.446  0.3926  0.6924 -0.5828
  667MOL0     C89919   9.121   2.953   3.328 -0.0973  0.8925  0.4580
  667MOL0     C89920   9.008   3.049   3.281  0.1741  0.4967 -0.4552
  667MOL0     C89921   8.896   2.968   3.209 -0.2975  0.3429 -1.0114
  667MOL0     C89922   8.787   3.059   3.150 -0.7018 -0.3150  0.1859
  667MOL0     C89923   8.690   2.973   3.075 -0.0245 -1.3067  0.5101
  667MOL0     C89924   8.751   2.956   2.936  0.2644 -0.1298 -0.0872
  667MOL0     C89925   8.638   2.919   2.833  0.2979 -0.3180  0.5653
  667MOL0     C89926   8.686   2.879   2.690  0.1858 -0.5340  0.3827
  667MOL0     N89927   8.801   2.969   2.641 -0.6067  0.0205  0.0754
  667MOL0     C89928   8.782   3.082   2.560 -0.6028 -0.3694  0.9626
  667MOL0     C89929   8.905   3.112   2.513 -0.8859  0.6988  1.2051
  667MOL0     C89930   8.949   3.222   2.416 -0.3745 -0.7844 -0.7651
  667MOL0     C89931   8.925   3.364   2.467 -0.0502 -0.1661  1.2123
  667MOL0     C89932   9.027   3.401   2.588  1.1863  0.1900  0.3753
  667MOL0     C89933   9.012   3.541   2.647  0.4345  0.1928 -0.2804
  667MOL0     O89934   9.066   3.556   2.774  0.5755  0.0862 -0.1608
  667MOL0     C89935   9.093   3.685   2.799 -0.0333  1.1562  0.6247
  667MOL0     C89936   9.207   3.708   2.869  0.9958 -0.5179  0.6549
  667MOL0     C89937   9.243   3.837   2.912 -0.5633  0.1537 -0.7200
  667MOL0     C89938   9.159   3.941   2.874  0.6862  0.0580 -0.4577
  667MOL0     C89939   9.193   4.079   2.917  0.5536 -0.0438 -0.0289
  667MOL0     O89940   9.313   4.090   2.977 -0.1040  0.7280 -0.5019
  667MOL0     C89941   9.372   4.208   3.013 -0.0623  0.6623 -0.5398
  667MOL0     C89942   9.503   4.185   3.057 -0.1772  0.1049 -0.2774
  667MOL0     C89943   9.591   4.290   3.087  0.0946  0.3406 -0.6548
  667MOL0     C89944   9.553   4.418   3.073 -0.9717 -0.3087 -0.5160
  667MOL0     O89945   9.617   4.530   3.106  0.8305 -0.5404  0.7286
  667MOL0     C89946   9.757   4.528   3.111  0.0324  0.4855 -0.4377
  667MOL0     C89947   9.792   4.535   3.254 -0.5614 -0.0580 -0.4364
  667MOL0     C89948   9.945   4.562   3.254 -0.0167 -0.4495 -0.0598
  667MOL0     C89949  10.017   4.482   3.356  0.5431  0.1587  0.0398
  667MOL0     C89950  10.166   4.483   3.335 -0.5640  0.6436 -0.4249
  667MOL0     C89951  10.237   4.411   3.456 -0.2305 -0.6612  0.3074
  667MOL0     C89952  10.398   4.405   3.457 -0.3610 -0.1092  0.5704
  667MOL0     C89953  10.457   4.340   3.335 -0.1040 -0.1406 -0.6620
  667MOL0    Cl89954  10.633   4.358   3.345  0.1438 -0.8622 -0.1711
  667MOL0     C89955   9.425   4.451   3.024 -0.5134  0.3392  0.2334
  667MOL0     C89956   9.333   4.348   2.991  0.2864 -0.1574 -0.0424
  667MOL0     O89957   9.114   4.176   2.896 -0.2353 -0.7381  1.1587
  667MOL0     C89958   9.047   3.922   2.789  0.0422  0.4168  0.3686
  667MOL0     C89959   9.009   3.788   2.754  0.1036 -0.0062  0.7686
  667MOL0     N89960   8.990   3.011   2.548 -0.0759  0.4504 -0.1992
  667MOL0     N89961   8.930   2.931   2.629 -0.2658  0.8109 -0.0604
  667MOL0     C89962   9.143   2.790   3.642 -0.4357  0.4655  0.9420
  667MOL0     C89963   9.244   2.727   3.720 -0.5847  0.5338  0.3429
  667MOL0     C89964   9.679   2.603   3.854  0.1616  0.8897 -1.1851
  667MOL0     C89965   9.617   2.494   3.924  0.4249 -0.6167  0.7419
  667MOL0     C89966   9.687   2.385   3.985  0.1332  0.2128 -0.9234
  667MOL0     C89967   9.822   2.404   4.004 -0.1340  0.4469 -0.6638
  667MOL0     O89968   9.877   2.309   4.079 -0.4310  0.1534  0.5358
  667MOL0     C89969  10.010   2.304   4.106 -0.7533 -0.0431  0.2163
  667MOL0     C89970  10.090   2.243   3.988 -0.4444 -0.4118 -0.3443
  667MOL0     C89971  10.245   2.233   4.013  0.1953 -0.3859  0.5042
  667MOL0     C89972  10.318   2.351   4.083 -0.5061 -0.4250 -0.1874
  667MOL0     C89973  10.277   2.473   4.007  0.2915  0.3501  0.4278
  667MOL0     C89974  10.256   2.571   3.945  0.0645 -0.1688  0.8496
  667MOL0     C89975   9.882   2.521   3.953 -0.4643  0.5474  0.6361
  667MOL0     C89976   9.817   2.618   3.875  0.3568  0.2619  0.8515
  667MOL0     C89977   9.899   2.732   3.825 -0.0632 -0.1391  0.0562
  667MOL0     H89978   9.499   2.723   3.502 -0.4449  2.4252 -2.0642
  667MOL0     H89979   9.338   2.812   3.361 -0.4709 -1.3734 -0.6009
  667MOL0     H89980   9.204   3.022   3.348 -0.2871  1.5357 -0.8372
  667MOL0     H89981   9.151   2.889   3.245  1.6225  3.2100 -0.8320
  667MOL0     H89982   9.057   3.123   3.217  2.5707  0.1549  0.8954
  667MOL0     H89983   8.972   3.102   3.370 -2.4801 -1.4260 -0.2445
  667MOL0     H89984   8.840   2.894   3.267 -1.3033 -0.7362 -3.2119
  667MOL0     H89985   8.951   2.919   3.128 -2.4482 -1.7687 -1.3274
  667MOL0     H89986   8.736   3.109   3.234  0.0607 -2.2300  1.8779
  667MOL0     H89987   8.837   3.129   3.082 -0.0611  0.5633  1.5009
  667MOL0     H89988   8.670   2.880   3.130  1.7532 -2.7671 -1.1559
  667MOL0     H89989   8.591   3.019   3.066 -0.1286 -1.6666 -0.2140
  667MOL0     H89990   8.793   3.053   2.906 -0.5665 -0.3678 -2.2431
  667MOL0     H89991   8.831   2.881   2.931  0.3012 -0.0851 -0.1764
  667MOL0     H89992   8.555   2.990   2.830 -2.0778 -2.9618 -1.7806
  667MOL0     H89993   8.582   2.828   2.857 -2.1649  1.2604  1.1030
  667MOL0     H89994   8.729   2.779   2.698  0.1219 -0.4796  1.6895
  667MOL0     H89995   8.598   2.880   2.625 -0.1825 -0.5914  0.8719
  667MOL0     H89996   8.693   3.142   2.542  1.8393  3.0144 -1.0819
  667MOL0     H89997   9.052   3.214   2.380 -0.5936  1.2591 -2.0314
  667MOL0     H89998   8.892   3.224   2.323  0.9980 -0.5229 -1.6225
  667MOL0     H89999   8.940   3.437   2.387  0.3249  0.0903  1.5134
  667MOL0     H90000   8.823   3.379   2.503  0.1973  3.3446  0.7870
  667MOL0     H90001   9.126   3.377   2.549  0.4501 -0.0927 -1.4331
  667MOL0     H90002   9.011   3.329   2.669 -1.2252 -0.2127 -0.3702
  667MOL0     H90003   8.907   3.574   2.648  1.2512  3.6099  3.9872
  667MOL0     H90004   9.059   3.607   2.573 -2.5421  0.3423 -2.2209
  667MOL0     H90005   9.258   3.618   2.899  1.0174 -0.5057  0.6556
  667MOL0     H90006   9.331   3.842   2.975 -0.3259  1.8993 -1.1351
  667MOL0     H90007   9.534   4.081   3.058  1.1696  0.4937  0.1688
  667MOL0     H90008   9.688   4.268   3.130 -1.8864 -3.3760  2.5469
  667MOL0     H90009   9.802   4.435   3.075 -1.2346 -0.8322  1.2433
  667MOL0     H90010   9.802   4.609   3.052 -2.2411  0.8931 -1.7452
  667MOL0     H90011   9.740   4.618   3.303 -3.5067 -0.1630 -3.0386
  667MOL0     H90012   9.759   4.444   3.306 -0.2260 -0.4899 -0.9791
  667MOL0     H90013   9.993   4.541   3.159  1.0449 -2.2035  0.8169
  667MOL0     H90014   9.960   4.667   3.281  0.7204  0.0568 -2.2325
  667MOL0     H90015   9.978   4.380   3.355  2.6106 -0.6792 -0.7378
  667MOL0     H90016   9.999   4.532   3.452 -0.4941 -2.6228  1.3764
  667MOL0     H90017  10.202   4.584   3.317 -2.9615  1.1205 -3.3859
  667MOL0     H90018  10.190   4.439   3.237 -2.8255 -0.6465 -0.4704
  667MOL0     H90019  10.207   4.463   3.547 -0.7211  1.6074 -1.0498
  667MOL0     H90020  10.199   4.308   3.456  1.9252 -1.5298 -1.2979
  667MOL0     H90021  10.422   4.362   3.554  0.3903  4.3079  2.5699
  667MOL0     H90022  10.433   4.508   3.446 -0.7326 -0.1182 -0.9592
  667MOL0     H90023  10.440   4.233   3.343 -0.8827 -0.0380 -0.8208
  667MOL0     H90024  10.418   4.369   3.237  2.2870  0.5031 -1.4977
  667MOL0     H90025   9.399   4.555   3.008 -0.6334  0.3610  0.5607
  667MOL0     H90026   9.240   4.374   2.942  1.7511  0.6468 -2.5585
  667MOL0     H90027   8.987   4.010   2.768 -1.4624 -0.8006 -0.6846
  667MOL0     H90028   8.917   3.769   2.700 -1.8026  0.1030  3.7491
  667MOL0     H90029   9.051   2.809   3.697  0.3899  1.0430  2.1661
  667MOL0     H90030   9.221   2.688   3.819  1.1155  2.2591  1.4897
  667MOL0     H90031   9.508   2.487   3.926  0.3010 -0.4496 -1.9352
  667MOL0     H90032   9.638   2.298   4.030 -0.2893 -1.1987 -3.8809
  667MOL0     H90033  10.017   2.241   4.196 -3.5804  0.2918  0.7695
  667MOL0     H90034  10.057   2.399   4.135 -0.2512 -0.8244  2.1027
  667MOL0     H90035  10.075   2.305   3.899 -0.4491  1.2212  0.7358
  667MOL0     H90036  10.058   2.141   3.967 -1.6180  0.3234 -2.3085
  667MOL0     H90037  10.299   2.201   3.923  2.8861 -0.3592  1.9931
  667MOL0     H90038  10.262   2.155   4.087 -0.2702 -0.3079  0.6940
  667MOL0     H90039  10.298   2.354   4.190  1.7206 -1.1249  0.3100
  667MOL0     H90040  10.425   2.333   4.065 -1.0153 -1.3415 -2.6318
  667MOL0     H90041  10.229   2.654   3.883 -2.0712  0.9557  3.1086
  667MOL0     H90042   9.988   2.529   3.976 -0.7411  0.7966  1.9381
  667MOL0     H90043  10.007   2.718   3.839  0.2398 -0.9421 -2.4747
  667MOL0     H90044   9.875   2.729   3.718  0.1679 -0.3228  0.0068
  667MOL0     H90045   9.873   2.825   3.876 -0.1212 -0.0008 -0.2211
  668MOL0     O90046   8.378   2.162   6.729 -0.1660  0.0551 -0.0421
  668MOL0     C90047   8.288   2.241   6.704  0.1461  0.2610  0.1229
  668MOL0     O90048   8.299   2.368   6.649 -0.5250 -0.0474 -1.4087
  668MOL0     C90049   8.430   2.404   6.625 -0.3555 -0.9290  0.3548
  668MOL0     C90050   8.511   2.468   6.721  0.8878  0.4931  0.4622
  668MOL0     C90051   8.637   2.518   6.698  0.5582 -0.1038  0.3805
  668MOL0     C90052   8.686   2.496   6.566  0.6510  0.0478  0.0234
  668MOL0     O90053   8.815   2.534   6.529  0.0166 -0.2759  0.4157
  668MOL0     C90054   8.897   2.603   6.630 -0.9559  0.4945 -0.5355
  668MOL0     C90055   9.031   2.630   6.558  0.8833 -0.8570 -0.3206
  668MOL0     C90056   9.107   2.498   6.529  0.8329 -0.4216 -0.0898
  668MOL0     C90057   9.200   2.530   6.416  0.3190  0.1560 -0.1446
  668MOL0     C90058   9.301   2.406   6.403  0.0179 -1.3715 -0.1870
  668MOL0     C90059   9.388   2.416   6.279  0.4400  0.0088  0.9258
  668MOL0     C90060   9.493   2.304   6.256 -0.0772 -0.0589 -1.4034
  668MOL0     C90061   9.590   2.331   6.145  0.4413 -0.5619 -0.0158
  668MOL0     N90062   9.526   2.342   6.013 -0.1565  0.3223  0.2755
  668MOL0     C90063   9.430   2.429   5.953 -0.8729 -0.1263 -0.3387
  668MOL0     C90064   9.392   2.385   5.830  0.7253  0.9037 -0.4010
  668MOL0     C90065   9.290   2.441   5.731 -0.1518  0.2205  0.5244
  668MOL0     C90066   9.369   2.536   5.634 -0.0165 -0.4086  0.3662
  668MOL0     C90067   9.443   2.464   5.523 -0.7917  0.4026 -0.1532
  668MOL0     C90068   9.494   2.561   5.409  0.3305  0.6618  0.4785
  668MOL0     O90069   9.575   2.471   5.333  0.1279  0.5995  0.0645
  668MOL0     C90070   9.708   2.467   5.368  0.1519 -0.0116  0.6879
  668MOL0     C90071   9.767   2.531   5.482 -0.3018  0.2036  0.2389
  668MOL0     C90072   9.901   2.495   5.516  0.0886 -0.9366  0.3149
  668MOL0     C90073   9.980   2.413   5.438  0.3950 -0.0146 -0.5532
  668MOL0     C90074  10.120   2.401   5.466 -0.7098  0.0747  0.1547
  668MOL0     O90075  10.196   2.323   5.390  0.3639  0.0353 -0.2342
  668MOL0     C90076  10.337   2.338   5.405 -0.3826 -0.1257 -0.2808
  668MOL0     C90077  10.406   2.461   5.384  0.1004  0.5375  0.2734
  668MOL0     C90078  10.545   2.470   5.414  0.1796  1.4429 -0.2438
  668MOL0     C90079  10.618   2.346   5.433 -0.6075  0.4094 -0.7153
  668MOL0     O90080  10.755   2.347   5.450  0.2482 -0.4436 -0.3648
  668MOL0     C90081  10.839   2.463   5.458 -0.5267  0.1247 -0.1996
  668MOL0     C90082  10.955   2.416   5.559  0.1321  0.7269  0.1338
  668MOL0     C90083  11.055   2.519   5.599 -0.5028  0.4309 -0.0294
  668MOL0     C90084  11.048   2.555   5.751  1.0074  0.5544  0.4706
  668MOL0     C90085  11.187   2.566   5.814  0.0533  0.3186 -0.2043
  668MOL0     C90086  11.247   2.708   5.774  0.3436  0.3223  0.3234
  668MOL0     C90087  11.381   2.731   5.840 -0.4717 -0.6819  0.3945
  668MOL0     C90088  11.464   2.857   5.784 -0.5869 -0.1911 -0.4065
  668MOL0    Cl90089  11.591   2.900   5.901 -0.3606  0.0748 -0.2150
  668MOL0     C90090  10.551   2.224   5.427  0.7000  0.3123  0.2023
  668MOL0     C90091  10.411   2.220   5.421  0.2558 -0.6699 -0.7095
  668MOL0     O90092  10.167   2.462   5.562 -0.3848 -0.4797 -1.2679
  668MOL0     C90093   9.920   2.360   5.320 -0.6535  0.5743 -0.2114
  668MOL0     C90094   9.784   2.374   5.289  0.4794  0.1332 -0.3079
  668MOL0     N90095   9.480   2.283   5.812  0.3473 -0.2176  0.3951
  668MOL0     N90096   9.552   2.254   5.911  0.0071 -0.3977  0.8721
  668MOL0     C90097   8.609   2.426   6.465  0.1627 -0.3643  0.4595
  668MOL0     C90098   8.476   2.397   6.494  0.2073 -0.4013  0.6634
  668MOL0     C90099   8.150   2.221   6.755  0.0205  0.4391 -0.1399
  668MOL0     C90100   8.065   2.331   6.778  0.0661  0.5127  0.5729
  668MOL0     C90101   7.936   2.308   6.801  1.6107 -0.4871  0.0601
  668MOL0     C90102   7.886   2.184   6.838  0.4229  0.0188 -0.3428
  668MOL0     O90103   7.766   2.156   6.895 -0.0124 -0.5238 -0.2058
  668MOL0     C90104   7.670   2.259   6.911  0.4261 -0.1475  0.1166
  668MOL0     C90105   7.543   2.184   6.968  0.1028 -0.6966  0.5174
  668MOL0     C90106   7.544   2.144   7.125 -0.0274 -0.9542  0.2601
  668MOL0     C90107   7.420   2.062   7.151  0.5155 -0.4756  0.1164
  668MOL0     C90108   7.292   2.134   7.123  1.0133 -0.1479 -0.1341
  668MOL0     C90109   7.195   2.207   7.105 -0.0564 -0.3609  0.8798
  668MOL0     C90110   7.971   2.075   6.822 -0.1292 -0.3604 -0.4220
  668MOL0     C90111   8.096   2.087   6.767 -0.3144 -0.6417  0.3016
  668MOL0     C90112   8.177   1.960   6.743 -0.9447 -0.3261 -0.0203
  668MOL0     H90113   8.450   2.491   6.807 -2.9205  0.3440 -1.9417
  668MOL0     H90114   8.702   2.562   6.773  0.3207  0.1105  0.4609
  668MOL0     H90115   8.863   2.694   6.680 -1.4414 -0.4124  0.8174
  668MOL0     H90116   8.925   2.537   6.712 -1.0130 -2.5470 -2.7984
  668MOL0     H90117   9.097   2.686   6.624  3.4177 -2.3457 -1.4273
  668MOL0     H90118   9.013   2.695   6.472 -0.3799 -0.3782  0.2856
  668MOL0     H90119   9.040   2.420   6.493  2.2022 -0.6408 -2.3780
  668MOL0     H90120   9.156   2.453   6.616 -1.5876  0.1172  1.6462
  668MOL0     H90121   9.148   2.534   6.319 -0.1831 -1.5092  0.0284
  668MOL0     H90122   9.258   2.620   6.438  3.1169 -0.7627 -3.0113
  668MOL0     H90123   9.378   2.403   6.480 -0.8486 -3.5261  0.6975
  668MOL0     H90124   9.262   2.303   6.405 -1.1474 -0.9349  1.6327
  668MOL0     H90125   9.322   2.420   6.192 -0.4707 -0.9241  1.5496
  668MOL0     H90126   9.446   2.509   6.282 -1.3285  1.1182  1.9952
  668MOL0     H90127   9.440   2.212   6.229 -0.5508 -0.7433  1.4902
  668MOL0     H90128   9.553   2.291   6.346 -2.2451 -0.3412  0.0885
  668MOL0     H90129   9.637   2.429   6.159 -1.3783  0.8684 -2.8868
  668MOL0     H90130   9.674   2.261   6.147  2.3369  1.6033  0.6043
  668MOL0     H90131   9.377   2.507   6.006 -0.0119  1.5561 -1.8477
  668MOL0     H90132   9.240   2.358   5.680  1.6933  1.0284 -2.8259
  668MOL0     H90133   9.209   2.495   5.781  1.5315  1.2216  2.2735
  668MOL0     H90134   9.292   2.604   5.597 -0.5600 -0.0517  2.0497
  668MOL0     H90135   9.433   2.605   5.689 -2.0631  0.7099  1.4521
  668MOL0     H90136   9.375   2.384   5.493  0.8899 -0.2438 -2.5983
  668MOL0     H90137   9.530   2.425   5.576  1.2778  5.2829  0.5914
  668MOL0     H90138   9.549   2.649   5.443 -1.3560  1.8477  0.2414
  668MOL0     H90139   9.406   2.589   5.350  2.1385  0.4018 -2.5640
  668MOL0     H90140   9.717   2.610   5.538 -1.3049 -0.2901  0.0600
  668MOL0     H90141   9.941   2.547   5.602  0.4911 -2.8714  1.3489
  668MOL0     H90142  10.335   2.541   5.361 -3.2269 -2.3132 -0.2385
  668MOL0     H90143  10.606   2.559   5.408  0.7069  1.0594 -0.6731
  668MOL0     H90144  10.880   2.490   5.360 -1.5259  0.1833 -0.6186
  668MOL0     H90145  10.790   2.548   5.508 -2.0824 -0.7673 -0.1418
  668MOL0     H90146  10.898   2.376   5.644  0.1266  1.5524  0.5309
  668MOL0     H90147  11.001   2.339   5.496  1.8169  2.2470 -0.5460
  668MOL0     H90148  11.150   2.467   5.582 -1.4964 -1.4457 -0.1279
  668MOL0     H90149  11.055   2.612   5.541  2.8141  0.6639  0.1849
  668MOL0     H90150  10.995   2.479   5.810  0.4973  0.2636 -0.3469
  668MOL0     H90151  11.002   2.654   5.760  0.0420  0.7527 -4.3287
  668MOL0     H90152  11.254   2.493   5.767 -0.9954 -0.4775 -0.5120
  668MOL0     H90153  11.183   2.546   5.922 -1.5297  1.8462  0.0747
  668MOL0     H90154  11.259   2.722   5.666 -0.4049  0.0053  0.1912
  668MOL0     H90155  11.181   2.789   5.806 -0.1681  0.2041 -0.4031
  668MOL0     H90156  11.433   2.637   5.820  2.1795  0.8538 -0.3031
  668MOL0     H90157  11.352   2.738   5.946 -1.2974 -1.3874  0.2327
  668MOL0     H90158  11.512   2.849   5.687 -1.2271  0.0594 -0.7505
  668MOL0     H90159  11.392   2.939   5.779 -1.5810 -1.0411 -0.4858
  668MOL0     H90160  10.606   2.130   5.423  0.4683  0.1094  1.3430
  668MOL0     H90161  10.353   2.129   5.421  1.2201 -1.3128  0.2363
  668MOL0     H90162   9.984   2.291   5.265  0.9868  0.2082  2.0239
  668MOL0     H90163   9.736   2.316   5.211  3.4091 -1.5122 -1.0201
  668MOL0     H90164   8.652   2.412   6.366  0.0295  0.6510  0.2457
  668MOL0     H90165   8.418   2.364   6.409  1.9551  3.6856 -2.4775
  668MOL0     H90166   8.101   2.433   6.768 -1.4697  1.0660  0.3707
  668MOL0     H90167   7.873   2.395   6.818  1.3415 -1.1607  3.1106
  668MOL0     H90168   7.646   2.304   6.814  1.7822  1.0934  0.3268
  668MOL0     H90169   7.693   2.341   6.978  1.6640 -1.6554  1.6097
  668MOL0     H90170   7.520   2.095   6.910 -0.9323 -1.2688  1.7622
  668MOL0     H90171   7.461   2.256   6.961  1.3745  0.7303 -0.3639
  668MOL0     H90172   7.537   2.238   7.181  2.5549 -0.1634 -0.6064
  668MOL0     H90173   7.633   2.101   7.171  2.6482  1.2688 -2.4185
  668MOL0     H90174   7.426   1.977   7.082 -1.2850 -0.0950 -0.5609
  668MOL0     H90175   7.423   2.032   7.256  0.1663 -2.2012 -0.3328
  668MOL0     H90176   7.100   2.258   7.103 -1.7856 -3.2852 -2.4351
  668MOL0     H90177   7.942   1.970   6.826  4.3766 -1.8038 -0.5010
  668MOL0     H90178   8.109   1.878   6.721 -1.3379 -0.0162  0.0235
  668MOL0     H90179   8.253   1.968   6.665 -1.6974  1.0577 -0.6425
  668MOL0     H90180   8.235   1.934   6.832 -1.5002 -0.3767  0.3312
  669MOL0     O90181   3.193   5.289   4.126  0.2685 -0.6397  0.0469
  669MOL0     C90182   3.105   5.345   4.062  0.2774  0.8842  0.3848
  669MOL0     O90183   3.101   5.368   3.927 -0.1214  0.5239 -0.3874
  669MOL0     C90184   3.209   5.339   3.845 -0.4180  0.4277 -0.4495
  669MOL0     C90185   3.199   5.274   3.720  0.1832 -0.4402  0.2452
  669MOL0     C90186   3.316   5.246   3.647 -0.3856  0.1301 -0.0254
  669MOL0     C90187   3.447   5.282   3.689  0.2412  0.9025 -0.5844
  669MOL0     O90188   3.547   5.241   3.612  0.1961  0.3407  0.0989
  669MOL0     C90189   3.680   5.288   3.640 -0.4245  0.7693  0.5092
  669MOL0     C90190   3.776   5.216   3.548 -0.2516 -0.5052 -0.2320
  669MOL0     C90191   3.901   5.164   3.623 -0.9450 -0.8758 -0.0218
  669MOL0     C90192   3.988   5.279   3.679  0.3361  0.6462  0.1078
  669MOL0     C90193   4.127   5.216   3.709 -0.0847  0.1620 -0.2850
  669MOL0     C90194   4.199   5.314   3.793 -0.8914  0.6939 -0.1483
  669MOL0     C90195   4.343   5.251   3.838  0.4305  0.1756  0.3960
  669MOL0     C90196   4.418   5.351   3.922 -0.6391 -0.3888  0.0082
  669MOL0     N90197   4.565   5.305   3.924 -0.5408 -0.8535  0.2393
  669MOL0     C90198   4.601   5.187   3.988 -0.3687  0.2371  0.7979
  669MOL0     C90199   4.741   5.181   3.984  0.9908 -0.3434  0.6664
  669MOL0     C90200   4.829   5.082   4.045  0.1016 -0.3411  0.3300
  669MOL0     C90201   4.823   4.953   3.946  0.0991 -0.3792 -0.2521
  669MOL0     C90202   4.875   4.996   3.807  0.4282  0.5103  0.4816
  669MOL0     C90203   5.023   5.008   3.797  0.3638 -1.0799 -0.0845
  669MOL0     O90204   5.088   4.897   3.855 -0.1370  0.0484 -0.5686
  669MOL0     C90205   5.229   4.891   3.890 -0.2337 -0.2177  0.8341
  669MOL0     C90206   5.317   5.004   3.872  1.5592 -0.5608  0.7045
  669MOL0     C90207   5.448   4.996   3.906 -0.3208  0.1369 -0.2096
  669MOL0     C90208   5.509   4.881   3.942 -0.3592 -0.7290  1.0372
  669MOL0     C90209   5.661   4.882   3.980 -0.4791 -0.6224  0.3693
  669MOL0     O90210   5.735   4.996   3.969 -0.7410  0.3096  0.0700
  669MOL0     C90211   5.839   5.015   4.051  0.0233 -0.7895 -0.7295
  669MOL0     C90212   5.835   5.005   4.194 -0.3814 -0.1658  0.6036
  669MOL0     C90213   5.955   5.041   4.261  0.1647  0.6263  0.2733
  669MOL0     C90214   6.070   5.081   4.198  0.4268 -0.3442  0.5122
  669MOL0     O90215   6.178   5.117   4.279  0.1899 -0.0715  0.1650
  669MOL0     C90216   6.302   5.153   4.213 -0.5563 -0.4052 -0.8300
  669MOL0     C90217   6.406   5.154   4.326  0.2444 -0.2537  0.3153
  669MOL0     C90218   6.377   5.242   4.453  0.0511  0.0779 -0.1269
  669MOL0     C90219   6.472   5.203   4.566 -0.1406  0.4091  0.7358
  669MOL0     C90220   6.442   5.263   4.696  0.1540 -0.5011  0.0393
  669MOL0     C90221   6.301   5.226   4.762  0.0218 -0.0049  0.1063
  669MOL0     C90222   6.264   5.075   4.745  0.2826  0.2287 -0.2648
  669MOL0     C90223   6.184   5.006   4.862 -0.3860 -0.2017 -0.8167
  669MOL0    Cl90224   6.019   5.067   4.887  0.1299 -0.1898  0.0782
  669MOL0     C90225   6.067   5.092   4.055 -0.3053 -0.2302 -0.9582
  669MOL0     C90226   5.951   5.063   3.991 -0.3534  0.8886 -0.1473
  669MOL0     O90227   5.685   4.785   4.052 -0.7722  0.1099  0.2048
  669MOL0     C90228   5.431   4.763   3.954  0.2894  0.5914  0.2663
  669MOL0     C90229   5.292   4.770   3.928 -0.6473 -0.5272 -0.4769
  669MOL0     N90230   4.778   5.283   3.903  0.1755 -0.6547 -0.9103
  669MOL0     N90231   4.683   5.361   3.880 -0.8086  0.6695  0.0849
  669MOL0     C90232   3.460   5.344   3.816  0.5629  0.4010 -0.5891
  669MOL0     C90233   3.344   5.355   3.889 -0.0413 -0.2094 -0.7670
  669MOL0     C90234   2.984   5.373   4.133 -0.5608 -0.0675  1.2002
  669MOL0     C90235   2.879   5.423   4.063  0.6279 -0.1060  0.4726
  669MOL0     C90236   2.750   5.456   4.109 -0.1291 -0.3345 -1.1008
  669MOL0     C90237   2.724   5.439   4.243  0.3338 -0.3941 -1.5251
  669MOL0     O90238   2.609   5.482   4.314  0.5430 -0.7470  0.4822
  669MOL0     C90239   2.522   5.583   4.264 -0.4521  0.8148 -0.4632
  669MOL0     C90240   2.409   5.523   4.177 -0.0317 -0.1419 -1.1610
  669MOL0     C90241   2.318   5.425   4.261 -0.9132 -0.3551  1.1676
  669MOL0     C90242   2.182   5.416   4.209  0.0961  0.7628 -0.4227
  669MOL0     C90243   2.101   5.529   4.256  0.7395  0.6625 -0.4843
  669MOL0     C90244   2.045   5.621   4.299  0.8784  0.4766  0.0428
  669MOL0     C90245   2.824   5.378   4.321 -0.3023 -1.3062  0.4301
  669MOL0     C90246   2.950   5.343   4.270 -0.3517 -0.1110 -0.0335
  669MOL0     C90247   3.061   5.276   4.363  0.2711 -0.9122  0.7052
  669MOL0     H90248   3.100   5.257   3.678 -0.6100 -0.3871  2.0241
  669MOL0     H90249   3.302   5.199   3.549 -1.5661  2.6786 -1.1678
  669MOL0     H90250   3.686   5.397   3.629  0.1726  0.6795 -0.1212
  669MOL0     H90251   3.709   5.262   3.742 -2.5165 -2.6796  0.3849
  669MOL0     H90252   3.805   5.281   3.465  0.5863  0.4092  0.7609
  669MOL0     H90253   3.726   5.126   3.510 -1.6187  0.0428  0.2003
  669MOL0     H90254   3.952   5.106   3.546 -1.1691 -0.7948 -0.2319
  669MOL0     H90255   3.874   5.099   3.708  0.4589 -1.4895 -0.0244
  669MOL0     H90256   3.994   5.366   3.612 -1.7249  1.4560  0.8709
  669MOL0     H90257   3.942   5.315   3.772 -0.9175  2.6068 -1.1862
  669MOL0     H90258   4.124   5.119   3.759 -0.3813 -0.4172 -1.3945
  669MOL0     H90259   4.186   5.205   3.618 -0.3230  2.0838 -0.7218
  669MOL0     H90260   4.209   5.402   3.729  1.4377 -0.2411 -1.2025
  669MOL0     H90261   4.135   5.341   3.878 -3.4724 -0.4098 -1.6112
  669MOL0     H90262   4.405   5.229   3.750 -1.0562 -0.0265 -0.6349
  669MOL0     H90263   4.330   5.157   3.891  3.2482 -0.0053  0.9390
  669MOL0     H90264   4.402   5.449   3.877 -3.7514 -0.4657  0.6994
  669MOL0     H90265   4.379   5.348   4.024  2.1260 -0.1980  1.1378
  669MOL0     H90266   4.537   5.118   4.043 -1.7322  1.9379  1.4497
  669MOL0     H90267   4.930   5.122   4.051 -0.5721  1.3437  0.8871
  669MOL0     H90268   4.802   5.057   4.149 -0.6006 -0.4740  0.1254
  669MOL0     H90269   4.884   4.876   3.995 -0.6458 -0.3067  0.8089
  669MOL0     H90270   4.721   4.915   3.947 -0.1540  0.1662 -1.9736
  669MOL0     H90271   4.831   5.092   3.780  0.6316  1.1324  2.1943
  669MOL0     H90272   4.864   4.925   3.726  0.0512 -0.0902  1.0520
  669MOL0     H90273   5.056   5.096   3.853 -1.1070 -0.0066 -0.8240
  669MOL0     H90274   5.061   5.022   3.695  2.6405 -4.0422  0.2328
  669MOL0     H90275   5.274   5.085   3.815  0.3578 -2.0539 -0.6140
  669MOL0     H90276   5.505   5.089   3.902 -0.7282  0.3861 -0.2369
  669MOL0     H90277   5.743   4.977   4.244 -2.0707  1.4882 -1.3990
  669MOL0     H90278   5.957   5.052   4.369 -0.3963  0.2848  0.3216
  669MOL0     H90279   6.329   5.071   4.146  1.9834 -0.9975  0.7692
  669MOL0     H90280   6.282   5.247   4.162 -0.0666 -0.5787 -1.3512
  669MOL0     H90281   6.416   5.050   4.359  0.8911 -0.2910  0.0162
  669MOL0     H90282   6.493   5.199   4.279  0.4324  0.3178  1.1910
  669MOL0     H90283   6.389   5.348   4.430  2.1510 -0.5918 -2.7116
  669MOL0     H90284   6.279   5.218   4.497  1.5929 -2.8345  2.0700
  669MOL0     H90285   6.573   5.230   4.534  0.1360  1.0233  2.0318
  669MOL0     H90286   6.474   5.094   4.571 -2.2856  0.0377 -2.9093
  669MOL0     H90287   6.436   5.372   4.695 -0.2999 -0.5207 -0.1487
  669MOL0     H90288   6.516   5.232   4.769  3.0305  2.1941 -1.5004
  669MOL0     H90289   6.301   5.257   4.867 -1.7477  0.6361 -0.0572
  669MOL0     H90290   6.232   5.290   4.707  1.4341  0.6481 -0.9710
  669MOL0     H90291   6.359   5.021   4.733 -0.8943 -2.0291  0.0861
  669MOL0     H90292   6.213   5.063   4.649  0.9751 -2.1914 -0.3831
  669MOL0     H90293   6.189   4.897   4.851 -1.6940 -0.1272 -2.6136
  669MOL0     H90294   6.245   5.033   4.949  0.8134 -1.4478 -1.2343
  669MOL0     H90295   6.163   5.110   4.007  0.5929  0.7690  1.1116
  669MOL0     H90296   5.953   5.051   3.883  0.4028  0.7559 -0.1251
  669MOL0     H90297   5.469   4.665   3.977 -0.8715 -0.7957 -3.1246
  669MOL0     H90298   5.234   4.678   3.930 -2.6082  0.5981 -2.2483
  669MOL0     H90299   3.560   5.362   3.854  0.3409  4.0358 -1.3110
  669MOL0     H90300   3.356   5.404   3.985 -2.3940  2.0166 -1.5007
  669MOL0     H90301   2.888   5.461   3.962  1.8901  0.1527  0.6692
  669MOL0     H90302   2.672   5.503   4.050 -0.0544  1.8568  0.4290
  669MOL0     H90303   2.577   5.650   4.197  2.5635 -1.9705 -1.0052
  669MOL0     H90304   2.479   5.643   4.344 -0.6061 -1.1547  0.9850
  669MOL0     H90305   2.451   5.473   4.089  1.0433  2.3307 -2.1285
  669MOL0     H90306   2.356   5.611   4.140  2.7187  1.9320 -0.4772
  669MOL0     H90307   2.323   5.462   4.364  1.3980  2.0135  0.3293
  669MOL0     H90308   2.366   5.327   4.260  1.8014  0.7199  5.0625
  669MOL0     H90309   2.184   5.413   4.099  0.9216  1.4947 -0.4385
  669MOL0     H90310   2.137   5.325   4.250  2.7290  1.1847  4.0875
  669MOL0     H90311   2.003   5.707   4.348  1.2273  1.6624 -1.6621
  669MOL0     H90312   2.800   5.353   4.424 -2.9270 -2.1360 -0.3023
  669MOL0     H90313   3.025   5.269   4.466  0.9165 -1.0675  0.9266
  669MOL0     H90314   3.084   5.175   4.329  2.5285 -0.2695  0.1877
  669MOL0     H90315   3.148   5.337   4.390 -1.1740  1.2620  0.7303
  670MOL0     O90316   1.934   8.934   4.860  0.7693  0.0613 -0.3042
  670MOL0     C90317   1.832   8.932   4.786  0.4477  0.3822 -0.5503
  670MOL0     O90318   1.793   9.037   4.713  0.2631  1.1986  0.3005
  670MOL0     C90319   1.886   9.129   4.660 -0.8152  1.2546 -0.8666
  670MOL0     C90320   1.849   9.265   4.655 -0.0232  0.6096  0.2573
  670MOL0     C90321   1.939   9.371   4.613 -0.0320 -0.4431 -0.3434
  670MOL0     C90322   2.069   9.337   4.593 -0.6545  0.1462  0.6218
  670MOL0     O90323   2.162   9.442   4.572  0.0836  0.3464 -0.0884
  670MOL0     C90324   2.259   9.459   4.674 -0.8946 -0.9125  0.3664
  670MOL0     C90325   2.361   9.576   4.650 -0.6650 -0.4116 -0.4432
  670MOL0     C90326   2.467   9.570   4.768  0.1547 -0.6875  0.9651
  670MOL0     C90327   2.575   9.681   4.758  0.0853 -0.2419 -0.1093
  670MOL0     C90328   2.695   9.656   4.856 -0.1126  0.3193 -0.0314
  670MOL0     C90329   2.817   9.756   4.831  0.5286  0.0535 -0.4159
  670MOL0     C90330   2.783   9.905   4.873  0.9292 -0.6503  0.9797
  670MOL0     C90331   2.907  10.000   4.878  0.9487 -0.2189  0.2994
  670MOL0     N90332   2.993   9.989   4.990 -0.6729 -0.1601 -0.0551
  670MOL0     C90333   3.126   9.956   4.981  0.0535 -0.0533 -0.1183
  670MOL0     C90334   3.179   9.987   5.106  0.2059  0.1962 -0.1260
  670MOL0     C90335   3.320   9.981   5.161  0.3372 -0.0685  0.1818
  670MOL0     C90336   3.382   9.845   5.141 -0.5868 -0.0003 -0.0105
  670MOL0     C90337   3.311   9.729   5.210 -0.4007 -0.4705  0.1140
  670MOL0     C90338   3.387   9.589   5.183 -0.1094 -0.6287  0.6302
  670MOL0     O90339   3.403   9.554   5.042 -0.3987  0.1244  0.2861
  670MOL0     C90340   3.289   9.508   4.979  0.4175 -0.9897  1.5727
  670MOL0     C90341   3.174   9.459   5.039  0.5618 -0.1160 -0.0009
  670MOL0     C90342   3.060   9.422   4.965 -0.8151  0.2826 -0.5578
  670MOL0     C90343   3.062   9.440   4.826 -0.5081  1.0592 -0.0296
  670MOL0     C90344   2.942   9.392   4.755  0.7619 -0.2148 -0.4151
  670MOL0     O90345   2.932   9.407   4.620 -0.1552  1.0205 -0.9001
  670MOL0     C90346   2.824   9.365   4.539 -0.0415 -0.3323  0.0585
  670MOL0     C90347   2.748   9.252   4.565  1.0367 -0.4743 -0.1053
  670MOL0     C90348   2.621   9.235   4.497 -0.2118 -0.4728  0.3160
  670MOL0     C90349   2.577   9.324   4.401  0.7524 -1.3466  0.3156
  670MOL0     O90350   2.451   9.303   4.343 -0.1800  0.9231 -0.5500
  670MOL0     C90351   2.392   9.391   4.248 -0.2094 -0.3267  0.0967
  670MOL0     C90352   2.302   9.310   4.152 -0.3402  0.5271  0.0484
  670MOL0     C90353   2.199   9.222   4.220 -0.8070  0.2739  0.1261
  670MOL0     C90354   2.110   9.175   4.110 -0.0470 -0.6006 -0.1231
  670MOL0     C90355   1.979   9.121   4.170  0.5391  1.0584 -0.0475
  670MOL0     C90356   1.904   9.011   4.084  0.4246  0.7273 -0.6769
  670MOL0     C90357   1.797   8.939   4.162 -1.3069 -0.2286  0.3905
  670MOL0     C90358   1.679   9.037   4.191 -0.4383 -0.2051  0.3988
  670MOL0    Cl90359   1.528   8.945   4.238 -0.1779  0.0842 -0.1602
  670MOL0     C90360   2.661   9.432   4.374 -0.3063 -0.4493  0.1652
  670MOL0     C90361   2.783   9.450   4.440  0.3252  0.0424 -0.1606
  670MOL0     O90362   2.857   9.334   4.829  0.1516 -0.2829  0.4108
  670MOL0     C90363   3.168   9.511   4.761 -0.2282  0.2921 -0.2264
  670MOL0     C90364   3.280   9.551   4.842  0.6928 -0.6560  0.4360
  670MOL0     N90365   3.079  10.040   5.187  0.4490  0.5701 -0.0021
  670MOL0     N90366   2.980  10.051   5.111 -0.0564  0.3746 -0.2370
  670MOL0     C90367   2.111   9.200   4.608  0.1275  1.0264 -0.0003
  670MOL0     C90368   2.018   9.094   4.639  0.4043 -0.0781  0.7364
  670MOL0     C90369   1.743   8.814   4.810  0.4421  0.3540 -0.5756
  670MOL0     C90370   1.722   8.765   4.938  0.2484  0.5869 -0.1875
  670MOL0     C90371   1.646   8.648   4.965 -1.0152 -0.1020 -0.7301
  670MOL0     C90372   1.585   8.576   4.853 -0.4496 -0.6809  0.4643
  670MOL0     O90373   1.511   8.462   4.853 -0.1427 -0.0278 -0.1752
  670MOL0     C90374   1.503   8.386   4.976  0.2019  0.0916 -0.0137
  670MOL0     C90375   1.382   8.288   4.983  0.0507  0.5648 -0.4745
  670MOL0     C90376   1.249   8.362   4.986  0.0145 -0.5277  0.0264
  670MOL0     C90377   1.137   8.255   4.982 -0.3902 -0.4874 -0.2504
  670MOL0     C90378   1.017   8.318   4.937 -0.0091  0.5470  1.1567
  670MOL0     C90379   0.918   8.365   4.891 -0.3221 -0.3434 -0.4234
  670MOL0     C90380   1.592   8.638   4.726 -0.7008 -0.2367 -0.1177
  670MOL0     C90381   1.677   8.747   4.709 -0.3685  0.0822 -0.8753
  670MOL0     C90382   1.700   8.792   4.568  0.0586  0.3667  0.2523
  670MOL0     H90383   1.753   9.280   4.702  1.1847 -1.0828  3.5761
  670MOL0     H90384   1.908   9.473   4.594 -1.3144 -0.8445 -0.5499
  670MOL0     H90385   2.196   9.474   4.762 -1.3857 -3.3144  0.4791
  670MOL0     H90386   2.323   9.371   4.688  3.6089  2.2530  1.9951
  670MOL0     H90387   2.314   9.675   4.645  0.3566  0.1529  0.6071
  670MOL0     H90388   2.425   9.559   4.563 -0.4831 -0.7397 -0.2469
  670MOL0     H90389   2.514   9.471   4.761  1.3959 -0.0706  0.3101
  670MOL0     H90390   2.416   9.587   4.863 -0.9245  1.1191  0.1030
  670MOL0     H90391   2.606   9.694   4.654 -2.8003 -4.5144 -1.7834
  670MOL0     H90392   2.534   9.780   4.781 -0.7469 -0.3067 -1.2129
  670MOL0     H90393   2.672   9.672   4.961 -0.1983  0.5366 -0.0842
  670MOL0     H90394   2.743   9.558   4.843 -1.0911 -0.1366 -0.3091
  670MOL0     H90395   2.903   9.719   4.888 -0.2035  1.0417  1.4475
  670MOL0     H90396   2.840   9.766   4.725  1.6458 -2.5357 -0.4766
  670MOL0     H90397   2.736   9.904   4.972 -0.1602 -2.0470  0.4758
  670MOL0     H90398   2.715   9.953   4.802  0.0861 -0.7668  1.6903
  670MOL0     H90399   2.961   9.994   4.784  0.6308 -1.6362  0.1814
  670MOL0     H90400   2.868  10.102   4.886  0.7267 -0.1650 -1.2277
  670MOL0     H90401   3.198   9.921   4.907  1.4048 -2.1304  2.0406
  670MOL0     H90402   3.369  10.063   5.109 -0.0020  0.2836  0.4193
  670MOL0     H90403   3.320  10.006   5.268  2.4987 -1.8885  0.7006
  670MOL0     H90404   3.399   9.828   5.034 -0.2331 -2.6015  0.3815
  670MOL0     H90405   3.476   9.877   5.188 -0.4948  0.0421 -0.2211
  670MOL0     H90406   3.206   9.725   5.183 -0.6143 -1.9084  1.0441
  670MOL0     H90407   3.307   9.755   5.316 -0.8462  0.2941 -0.0851
  670MOL0     H90408   3.337   9.517   5.249 -0.4314  1.3806  2.7122
  670MOL0     H90409   3.491   9.598   5.216 -0.4903  1.7362  1.3910
  670MOL0     H90410   3.170   9.456   5.147 -1.0061  1.7666  0.0354
  670MOL0     H90411   2.976   9.384   5.022 -0.7027 -0.5582 -0.9381
  670MOL0     H90412   2.761   9.188   4.652  0.1084  1.5786  1.6259
  670MOL0     H90413   2.564   9.145   4.520 -1.0437 -0.6670 -2.1859
  670MOL0     H90414   2.327   9.462   4.299  0.2693  0.3694 -0.2342
  670MOL0     H90415   2.472   9.435   4.187  0.4108 -1.2101  0.2455
  670MOL0     H90416   2.252   9.384   4.090  0.0193 -0.2220 -1.1764
  670MOL0     H90417   2.359   9.249   4.081 -4.0631  0.1239 -2.9146
  670MOL0     H90418   2.238   9.130   4.264 -3.4842 -1.8443 -1.6164
  670MOL0     H90419   2.142   9.287   4.288 -0.6410 -0.4049  0.9382
  670MOL0     H90420   2.166   9.103   4.049  2.9426  1.4406 -0.0335
  670MOL0     H90421   2.081   9.251   4.037  3.3803 -0.2496 -1.3151
  670MOL0     H90422   1.907   9.203   4.176 -1.4767 -0.6582  0.1560
  670MOL0     H90423   2.000   9.074   4.267  1.3831  1.0774 -0.2098
  670MOL0     H90424   1.872   9.057   3.990 -0.4985  2.2632  0.3533
  670MOL0     H90425   1.985   8.938   4.071  1.5777  1.9219 -0.4058
  670MOL0     H90426   1.838   8.907   4.259  0.6362 -0.1886 -0.3799
  670MOL0     H90427   1.775   8.852   4.100  2.7720 -0.9326 -0.3731
  670MOL0     H90428   1.707   9.108   4.270  0.7265  1.7176 -1.6253
  670MOL0     H90429   1.643   9.090   4.103 -2.8873  0.0740  1.4998
  670MOL0     H90430   2.634   9.513   4.308  3.1955 -0.2923 -1.2846
  670MOL0     H90431   2.838   9.540   4.414 -0.1124  1.3922  3.1878
  670MOL0     H90432   3.167   9.525   4.654 -3.4213  0.9628 -0.2153
  670MOL0     H90433   3.358   9.614   4.802 -1.5515  1.2910 -1.1691
  670MOL0     H90434   2.213   9.168   4.590 -0.5130 -0.3600 -1.4872
  670MOL0     H90435   2.053   8.991   4.648  2.7723  0.7813  2.7990
  670MOL0     H90436   1.751   8.825   5.023 -1.4235 -0.9489  1.5774
  670MOL0     H90437   1.638   8.603   5.064 -2.8957 -2.4229 -1.8404
  670MOL0     H90438   1.493   8.461   5.055 -0.0937  1.4641 -1.3054
  670MOL0     H90439   1.591   8.323   4.989 -1.2878 -2.5207 -1.5910
  670MOL0     H90440   1.377   8.215   5.065 -1.5199  0.9038 -0.2458
  670MOL0     H90441   1.380   8.218   4.899 -0.3817 -1.3120  1.0028
  670MOL0     H90442   1.238   8.437   4.906 -0.6829 -0.3925  0.2443
  670MOL0     H90443   1.235   8.423   5.075 -3.4106 -0.5004 -0.3978
  670MOL0     H90444   1.166   8.173   4.915  0.3546  0.8957 -1.6819
  670MOL0     H90445   1.114   8.216   5.082  0.2739  1.1172  0.5684
  670MOL0     H90446   0.837   8.384   4.825 -2.4402 -0.2858  2.0313
  670MOL0     H90447   1.535   8.593   4.645  1.2810 -0.7105 -1.3147
  670MOL0     H90448   1.652   8.891   4.562  0.4041  0.5512  0.4900
  670MOL0     H90449   1.803   8.815   4.539 -1.0541  3.9381 -1.5827
  670MOL0     H90450   1.667   8.714   4.499  0.6851 -2.7477  3.2626
  671MOL0     O90451  11.179   4.472   2.988  0.0524 -0.1878  0.0077
  671MOL0     C90452  11.191   4.567   3.068  0.3749 -0.0235 -0.0728
  671MOL0     O90453  11.306   4.647   3.073 -0.0359  0.5295 -0.1343
  671MOL0     C90454  11.426   4.611   3.012  0.6392 -0.4392 -0.3624
  671MOL0     C90455  11.508   4.713   2.984 -0.1483 -0.0406  1.0238
  671MOL0     C90456  11.622   4.685   2.914 -0.2888 -0.3278 -0.2752
  671MOL0     C90457  11.664   4.557   2.863 -0.4661  0.5451 -0.0680
  671MOL0     O90458  11.786   4.545   2.795 -0.2034  0.0113  0.1214
  671MOL0     C90459  11.859   4.420   2.797 -0.2434 -0.4834  0.3812
  671MOL0     C90460  11.885   4.366   2.935 -0.2526  0.0330 -1.1423
  671MOL0     C90461  11.944   4.225   2.926 -0.9144  0.6482  0.3684
  671MOL0     C90462  11.974   4.157   3.063 -0.8193  0.0200  0.0475
  671MOL0     C90463  12.029   4.009   3.053  0.1198  0.0473 -0.5163
  671MOL0     C90464  11.936   3.897   2.999  0.0679 -0.4447  0.0863
  671MOL0     C90465  11.990   3.756   3.019 -0.0151 -0.4619 -0.1421
  671MOL0     C90466  11.879   3.654   3.012 -0.0812 -0.0937 -0.3749
  671MOL0     N90467  11.829   3.657   2.874 -1.1427 -0.1173 -0.0627
  671MOL0     C90468  11.874   3.565   2.789 -0.5224 -0.2261 -0.1350
  671MOL0     C90469  11.783   3.571   2.692 -0.3305 -0.5426 -0.2940
  671MOL0     C90470  11.784   3.486   2.569  0.9083  0.6179 -0.0734
  671MOL0     C90471  11.919   3.450   2.511  0.3013  0.1548 -0.3720
  671MOL0     C90472  11.971   3.564   2.429  0.5318 -0.2753 -0.5731
  671MOL0     C90473  12.117   3.569   2.394 -0.1764  0.0161 -0.0474
  671MOL0     O90474  12.147   3.444   2.325  0.3411  0.5972 -0.2397
  671MOL0     C90475  12.278   3.395   2.318  0.6314  0.5120 -0.2721
  671MOL0     C90476  12.395   3.467   2.304  0.6184  0.3478  0.0763
  671MOL0     C90477  12.523   3.413   2.308  0.0888 -0.4847 -0.6393
  671MOL0     C90478  12.531   3.273   2.331 -0.0132 -0.0142 -0.0587
  671MOL0     C90479  12.657   3.204   2.317 -0.6432 -0.1726 -0.3835
  671MOL0     O90480  12.761   3.283   2.263  0.3637 -0.3747  0.3894
  671MOL0     C90481  12.892   3.243   2.278  0.8167  0.5963 -0.6320
  671MOL0     C90482  12.947   3.120   2.242 -0.2128 -0.5924 -0.3921
  671MOL0     C90483  13.092   3.098   2.240  0.2693  0.2360  0.2388
  671MOL0     C90484  13.163   3.199   2.300 -1.0080 -0.3225  0.3803
  671MOL0     O90485  13.300   3.204   2.311 -0.8358  0.2838 -0.0750
  671MOL0     C90486  13.381   3.109   2.237 -0.0562 -0.2209  0.2852
  671MOL0     C90487  13.511   3.167   2.246 -0.7531 -0.9237  0.3016
  671MOL0     C90488  13.606   3.108   2.148 -0.4347  0.2528  0.7334
  671MOL0     C90489  13.758   3.129   2.169 -0.1468 -0.4206 -0.2152
  671MOL0     C90490  13.839   3.064   2.055  1.2473 -0.5808  0.1141
  671MOL0     C90491  13.983   3.049   2.096 -1.0149 -0.0659  0.6095
  671MOL0     C90492  14.055   2.970   1.989  0.0686 -0.1685  0.6569
  671MOL0     C90493  14.082   3.060   1.868 -0.1294 -0.5867  0.5916
  671MOL0    Cl90494  14.118   2.968   1.718  0.0410  0.3844 -0.1856
  671MOL0     C90495  13.102   3.315   2.342 -0.5134  0.5643  0.7683
  671MOL0     C90496  12.968   3.337   2.332 -0.0558  0.5038 -0.9697
  671MOL0     O90497  12.673   3.095   2.369  0.1684  0.2148 -0.2562
  671MOL0     C90498  12.416   3.199   2.360  0.6353 -0.2889  0.1004
  671MOL0     C90499  12.289   3.259   2.350 -0.3670 -0.1640 -0.7717
  671MOL0     N90500  11.684   3.656   2.719  0.0339 -0.1654 -0.3137
  671MOL0     N90501  11.709   3.709   2.837  0.4070  0.0842  0.0853
  671MOL0     C90502  11.569   4.461   2.896 -0.0119 -0.2215 -0.1474
  671MOL0     C90503  11.452   4.482   2.969 -0.4555 -0.5146  0.2165
  671MOL0     C90504  11.085   4.601   3.174 -0.7672  0.4689  0.6939
  671MOL0     C90505  11.136   4.676   3.282  0.2145  0.2189 -1.0224
  671MOL0     C90506  11.043   4.724   3.371 -0.1176 -0.3116 -0.6546
  671MOL0     C90507  10.904   4.694   3.363 -0.4400 -0.2395  0.1429
  671MOL0     O90508  10.822   4.762   3.453 -0.4115 -0.2593 -0.1100
  671MOL0     C90509  10.692   4.802   3.402  0.1561  0.0956  0.0934
  671MOL0     C90510  10.637   4.925   3.472  0.7660  0.1098  0.1826
  671MOL0     C90511  10.736   5.037   3.454  0.3924  0.2392  0.1304
  671MOL0     C90512  10.660   5.168   3.478  0.9557 -1.0185  0.5483
  671MOL0     C90513  10.766   5.268   3.510  0.3597  0.2613 -0.0707
  671MOL0     C90514  10.830   5.375   3.520  0.3518 -0.3018  0.0021
  671MOL0     C90515  10.863   4.606   3.266 -0.3303 -0.1077 -0.5226
  671MOL0     C90516  10.948   4.559   3.163 -0.3546 -0.0375  0.2982
  671MOL0     C90517  10.885   4.489   3.053 -0.0389 -0.0981  0.4413
  671MOL0     H90518  11.487   4.814   3.015 -2.4998  0.3695 -1.5421
  671MOL0     H90519  11.670   4.779   2.891 -0.1121 -0.4125 -0.2592
  671MOL0     H90520  11.818   4.344   2.730  1.4746 -0.3656 -0.8545
  671MOL0     H90521  11.960   4.434   2.759 -0.3436 -2.2696 -0.6245
  671MOL0     H90522  11.789   4.350   2.986  0.2772 -2.5709 -0.8029
  671MOL0     H90523  11.950   4.435   2.990 -0.8744  1.1670 -1.8029
  671MOL0     H90524  12.031   4.233   2.862  0.4538  1.0106  2.1860
  671MOL0     H90525  11.873   4.168   2.865 -1.7597 -1.8695  3.4233
  671MOL0     H90526  12.046   4.216   3.120  1.0734  0.3146 -2.5095
  671MOL0     H90527  11.886   4.152   3.128  0.0194 -0.1049  1.2091
  671MOL0     H90528  12.113   4.020   2.983  1.4399  2.1785  1.2704
  671MOL0     H90529  12.071   3.977   3.149 -1.9645 -2.4031 -0.3097
  671MOL0     H90530  11.844   3.905   3.056 -0.5466  0.2442 -0.9679
  671MOL0     H90531  11.914   3.917   2.894 -0.4456 -1.0663  0.0734
  671MOL0     H90532  12.042   3.742   3.115 -1.5362 -0.5254  0.7007
  671MOL0     H90533  12.058   3.733   2.936  1.4556 -0.4527  1.0184
  671MOL0     H90534  11.912   3.550   3.023 -1.2241 -0.3484  0.9347
  671MOL0     H90535  11.793   3.672   3.077 -0.4414  2.0387 -1.3563
  671MOL0     H90536  11.953   3.491   2.791  2.4043  2.6831 -0.1202
  671MOL0     H90537  11.722   3.397   2.587 -0.9008  2.2760  2.5065
  671MOL0     H90538  11.725   3.538   2.493  0.9973  0.7243 -0.0692
  671MOL0     H90539  11.986   3.418   2.592  0.8401 -1.2358 -1.3359
  671MOL0     H90540  11.904   3.365   2.445 -0.2300 -1.8528  2.1703
  671MOL0     H90541  11.953   3.653   2.491  0.0674 -1.7916  1.5880
  671MOL0     H90542  11.897   3.583   2.351 -0.1094 -0.0417  0.0700
  671MOL0     H90543  12.170   3.577   2.489  1.0882 -0.1304 -0.7157
  671MOL0     H90544  12.134   3.661   2.337  0.6177 -0.2824 -0.3072
  671MOL0     H90545  12.376   3.571   2.282  0.1319  1.2838  4.1371
  671MOL0     H90546  12.608   3.478   2.288 -0.2297 -0.9741 -4.1631
  671MOL0     H90547  12.881   3.037   2.216  0.0267 -1.2448  1.0201
  671MOL0     H90548  13.144   3.012   2.200 -1.2285  0.7991 -3.2558
  671MOL0     H90549  13.369   3.004   2.266 -2.8353 -0.1421 -0.2875
  671MOL0     H90550  13.352   3.103   2.132 -1.0436 -3.4050  0.6261
  671MOL0     H90551  13.506   3.275   2.227  0.4519 -0.8851  0.1129
  671MOL0     H90552  13.540   3.145   2.349  2.1176  0.3140 -0.1542
  671MOL0     H90553  13.588   3.001   2.164  2.2246 -0.2438  0.7115
  671MOL0     H90554  13.585   3.132   2.043  5.2831  1.4842 -0.4471
  671MOL0     H90555  13.799   3.094   2.264 -0.3633 -0.9370 -0.3106
  671MOL0     H90556  13.780   3.236   2.157 -1.4948 -0.2702 -1.7774
  671MOL0     H90557  13.815   3.123   1.966 -0.0563 -0.2259  0.6714
  671MOL0     H90558  13.795   2.964   2.049  2.4220 -1.0441 -1.6884
  671MOL0     H90559  14.029   3.145   2.121 -1.4135 -0.1321  1.6462
  671MOL0     H90560  13.995   2.983   2.182 -2.1778 -2.5706 -1.0355
  671MOL0     H90561  14.001   2.879   1.960  1.2511 -1.0570  1.2115
  671MOL0     H90562  14.155   2.945   2.024 -0.0690 -1.6555  0.0534
  671MOL0     H90563  13.994   3.118   1.838 -0.4151 -0.4982  1.5752
  671MOL0     H90564  14.167   3.125   1.890 -0.8384 -0.9664  5.5124
  671MOL0     H90565  13.169   3.391   2.379  1.5292 -0.5407 -0.5025
  671MOL0     H90566  12.937   3.433   2.372  0.4038  0.4477 -0.4807
  671MOL0     H90567  12.411   3.092   2.376 -3.2377 -0.3785 -0.6941
  671MOL0     H90568  12.200   3.198   2.366 -1.4962  1.4827 -0.4108
  671MOL0     H90569  11.573   4.356   2.867 -0.3153  0.5572 -3.3284
  671MOL0     H90570  11.392   4.392   2.982 -0.2219 -1.4559 -3.7754
  671MOL0     H90571  11.243   4.693   3.284  0.9404 -3.3124 -1.9978
  671MOL0     H90572  11.072   4.797   3.446 -1.4752  0.8421 -1.2244
  671MOL0     H90573  10.620   4.720   3.413  0.3719 -0.2494 -0.9513
  671MOL0     H90574  10.695   4.825   3.296  0.5974  1.6212  0.4212
  671MOL0     H90575  10.623   4.901   3.577  1.9837  1.1729  0.6223
  671MOL0     H90576  10.542   4.949   3.424  0.8476  0.9630  0.4378
  671MOL0     H90577  10.766   5.013   3.352 -3.4402 -5.3225 -0.1238
  671MOL0     H90578  10.830   5.021   3.509  0.6046 -0.4044 -0.4073
  671MOL0     H90579  10.606   5.205   3.391  0.1606 -2.1104  0.5563
  671MOL0     H90580  10.588   5.166   3.560  1.9360 -0.1433  1.4602
  671MOL0     H90581  10.874   5.471   3.506  0.0388 -0.1111  0.3004
  671MOL0     H90582  10.763   4.567   3.275 -1.0714  1.3524 -1.8778
  671MOL0     H90583  10.938   4.514   2.960  0.5824  3.6567  1.6614
  671MOL0     H90584  10.898   4.381   3.062  0.2617 -0.1089 -0.0357
  671MOL0     H90585  10.785   4.525   3.027 -0.5924 -0.4946  1.9453
  672MOL0     O90586   8.810   5.982   8.794 -0.1523 -0.0714  0.1693
  672MOL0     C90587   8.739   6.084   8.801  0.1646  0.9998  1.0148
  672MOL0     O90588   8.766   6.202   8.750  0.3429 -0.3849  0.6732
  672MOL0     C90589   8.894   6.235   8.702 -0.3385  0.7662 -0.5476
  672MOL0     C90590   9.017   6.183   8.761  0.6388 -0.5525  0.1439
  672MOL0     C90591   9.142   6.225   8.708 -0.2717  0.2159 -0.6790
  672MOL0     C90592   9.149   6.317   8.603  0.7825 -0.3919 -0.5876
  672MOL0     O90593   9.271   6.342   8.551  0.0904 -0.1564 -0.3832
  672MOL0     C90594   9.310   6.482   8.553 -0.5700 -0.2421 -0.0395
  672MOL0     C90595   9.377   6.531   8.421 -0.4787 -0.2457 -0.8881
  672MOL0     C90596   9.279   6.566   8.312  0.5077  0.5379  0.2030
  672MOL0     C90597   9.350   6.614   8.182 -0.2706  0.4325 -0.5329
  672MOL0     C90598   9.264   6.688   8.089 -0.0710  0.3387 -0.7641
  672MOL0     C90599   9.230   6.594   7.970  0.5139 -0.3734  0.2295
  672MOL0     C90600   9.337   6.555   7.874 -0.0652 -0.4474 -0.1340
  672MOL0     C90601   9.284   6.503   7.739  0.6003  0.2015 -0.3411
  672MOL0     N90602   9.375   6.423   7.658 -0.6141  0.8352 -0.0826
  672MOL0     C90603   9.509   6.400   7.681 -0.4144 -0.4220 -0.0704
  672MOL0     C90604   9.551   6.315   7.582  1.2137  0.1257  1.2168
  672MOL0     C90605   9.680   6.248   7.567 -0.4585 -0.3181 -0.5932
  672MOL0     C90606   9.767   6.362   7.503  0.0250 -0.3946  0.5177
  672MOL0     C90607   9.890   6.403   7.594  0.5959  0.1764  0.6381
  672MOL0     C90608  10.017   6.454   7.520  0.6155  0.2604 -0.1238
  672MOL0     O90609   9.989   6.578   7.458  0.3506 -0.4866  0.0996
  672MOL0     C90610  10.105   6.640   7.411  0.7370  0.2526  0.1367
  672MOL0     C90611  10.202   6.583   7.326  0.6866 -0.8376 -0.6145
  672MOL0     C90612  10.306   6.660   7.279 -0.0457 -0.1128  0.6521
  672MOL0     C90613  10.331   6.790   7.316 -0.3484 -0.1792 -0.1882
  672MOL0     C90614  10.452   6.862   7.282  0.8370 -0.4094 -0.0969
  672MOL0     O90615  10.476   6.991   7.330  1.1283  0.2606  0.2281
  672MOL0     C90616  10.599   7.051   7.331 -0.6204  0.6146  1.3339
  672MOL0     C90617  10.611   7.183   7.298  0.3110  0.0705 -0.3786
  672MOL0     C90618  10.739   7.248   7.278 -0.7973  0.3401 -0.2821
  672MOL0     C90619  10.861   7.176   7.303  0.4791 -0.2407  0.2606
  672MOL0     O90620  10.986   7.238   7.296 -0.3493 -0.1363  0.2153
  672MOL0     C90621  11.010   7.354   7.205 -0.2891  0.9367  0.0690
  672MOL0     C90622  11.167   7.381   7.196  0.9286 -0.9294  0.2747
  672MOL0     C90623  11.246   7.257   7.159  0.0939 -0.2263 -1.0634
  672MOL0     C90624  11.395   7.274   7.156  0.2677 -0.0650 -0.2867
  672MOL0     C90625  11.452   7.362   7.049 -0.3362  0.1074 -0.8043
  672MOL0     C90626  11.609   7.365   7.059 -0.6297  0.6154  0.0296
  672MOL0     C90627  11.675   7.463   6.955  0.0558 -0.7813  0.4977
  672MOL0     C90628  11.723   7.395   6.823  0.0643  0.2943  0.6662
  672MOL0    Cl90629  11.781   7.513   6.695  0.1770  0.1942 -0.1872
  672MOL0     C90630  10.848   7.039   7.334 -0.2449 -0.8436  0.2623
  672MOL0     C90631  10.723   6.982   7.343 -0.3463  0.0107  0.6611
  672MOL0     O90632  10.528   6.799   7.207 -0.2218  0.3152  0.1013
  672MOL0     C90633  10.226   6.847   7.391 -0.0648 -0.5332 -0.4149
  672MOL0     C90634  10.117   6.780   7.434  0.4835  1.1253  0.1287
  672MOL0     N90635   9.438   6.290   7.503 -0.1270 -0.1635 -0.2032
  672MOL0     N90636   9.336   6.368   7.535 -0.0017 -0.3949 -0.2699
  672MOL0     C90637   9.032   6.372   8.552 -0.0524  0.3061  0.3119
  672MOL0     C90638   8.908   6.330   8.607 -1.0080 -0.2298 -0.2253
  672MOL0     C90639   8.613   6.074   8.877 -0.8240 -0.1940 -0.2769
  672MOL0     C90640   8.537   5.963   8.861  0.1934 -0.1028  0.0656
  672MOL0     C90641   8.414   5.936   8.924  0.3607 -0.3952 -1.1971
  672MOL0     C90642   8.365   6.033   9.009 -0.0920  0.5231 -0.5841
  672MOL0     O90643   8.243   6.002   9.060  0.1351  0.0964 -0.5023
  672MOL0     C90644   8.189   6.084   9.166  0.5841 -0.0764 -0.0372
  672MOL0     C90645   8.107   6.206   9.114  0.4700  0.2189 -0.4896
  672MOL0     C90646   7.983   6.153   9.039 -0.5339 -1.1452  0.3530
  672MOL0     C90647   7.924   6.271   8.966 -0.4124 -0.4954  0.8607
  672MOL0     C90648   7.822   6.217   8.875  1.0457  0.3037 -0.3994
  672MOL0     C90649   7.736   6.185   8.801 -0.0322 -0.2572 -0.0891
  672MOL0     C90650   8.442   6.146   9.037 -0.5324 -0.7490 -0.2658
  672MOL0     C90651   8.565   6.167   8.972  0.3736  0.2830 -0.4386
  672MOL0     C90652   8.633   6.293   9.017 -0.6386  0.0079  0.1884
  672MOL0     H90653   9.009   6.107   8.837  0.3199 -1.3973 -0.7092
  672MOL0     H90654   9.229   6.176   8.750 -3.1390 -2.5726  2.6532
  672MOL0     H90655   9.221   6.543   8.565 -0.0288  0.6495 -0.4828
  672MOL0     H90656   9.370   6.509   8.641 -0.1188 -0.5473 -0.2471
  672MOL0     H90657   9.451   6.456   8.393  0.9250  0.3758  0.9352
  672MOL0     H90658   9.439   6.619   8.441 -0.3530 -0.8626  1.9750
  672MOL0     H90659   9.215   6.643   8.357  2.0530  0.7675  2.1000
  672MOL0     H90660   9.214   6.483   8.283  2.2776 -1.8046  2.4795
  672MOL0     H90661   9.437   6.678   8.201  0.3277 -0.9831  2.0253
  672MOL0     H90662   9.405   6.526   8.146  1.0910  1.1402 -0.2474
  672MOL0     H90663   9.173   6.730   8.132  0.7084  2.3610 -1.0014
  672MOL0     H90664   9.316   6.775   8.049 -1.0576  1.3236  0.0284
  672MOL0     H90665   9.194   6.498   8.007 -0.3006 -1.0820 -2.1734
  672MOL0     H90666   9.151   6.647   7.917  2.4755  1.8103 -0.6931
  672MOL0     H90667   9.392   6.475   7.924 -1.6401  0.0937  2.7314
  672MOL0     H90668   9.409   6.637   7.861  0.4106 -0.4556  1.9749
  672MOL0     H90669   9.200   6.435   7.757  1.3602 -1.1293 -1.5960
  672MOL0     H90670   9.242   6.587   7.683  1.4300  0.7222 -0.2011
  672MOL0     H90671   9.566   6.447   7.761 -1.4246 -0.2817  0.5968
  672MOL0     H90672   9.714   6.210   7.663 -1.7295 -2.7332 -1.0285
  672MOL0     H90673   9.672   6.171   7.490 -0.4114 -1.8591  0.9033
  672MOL0     H90674   9.791   6.321   7.404 -0.5601  0.2788  0.0873
  672MOL0     H90675   9.712   6.451   7.473  0.0486 -0.4431  0.3321
  672MOL0     H90676   9.924   6.319   7.656 -0.5619  1.4574  3.1337
  672MOL0     H90677   9.843   6.474   7.662  0.1264 -0.2702  0.7877
  672MOL0     H90678  10.051   6.373   7.454 -1.9233  0.5071 -1.8920
  672MOL0     H90679  10.085   6.477   7.602  0.3359  0.1152  0.1463
  672MOL0     H90680  10.178   6.481   7.296  0.1315 -0.9069  0.0316
  672MOL0     H90681  10.366   6.590   7.221 -0.8688 -1.6930  1.6387
  672MOL0     H90682  10.524   7.245   7.277  0.5250  0.7422  0.6588
  672MOL0     H90683  10.743   7.354   7.256  1.0470  0.4274  0.2761
  672MOL0     H90684  10.954   7.345   7.111 -1.4041  3.4095  0.4371
  672MOL0     H90685  10.973   7.446   7.250 -1.8978  0.3605 -0.0330
  672MOL0     H90686  11.186   7.465   7.128  1.1469 -0.0697  1.3765
  672MOL0     H90687  11.213   7.421   7.286  3.4495  0.6125 -1.5876
  672MOL0     H90688  11.228   7.188   7.242  2.4194 -1.5088 -1.5301
  672MOL0     H90689  11.203   7.214   7.068 -1.0382 -2.2961  0.3732
  672MOL0     H90690  11.439   7.174   7.142  1.0532  0.4685 -1.7993
  672MOL0     H90691  11.431   7.308   7.253 -0.8035 -1.2972  0.5906
  672MOL0     H90692  11.413   7.464   7.048 -2.6126 -0.6609 -3.3010
  672MOL0     H90693  11.422   7.320   6.952 -2.4724 -0.9673  0.2572
  672MOL0     H90694  11.644   7.403   7.155  0.2421  1.1773 -0.5083
  672MOL0     H90695  11.645   7.262   7.054  1.2942  1.2442  0.1712
  672MOL0     H90696  11.762   7.502   7.009  1.1131 -3.1410  0.6241
  672MOL0     H90697  11.626   7.556   6.928  0.4704 -0.5097  0.6686
  672MOL0     H90698  11.801   7.322   6.847 -0.1926  0.5742  2.5041
  672MOL0     H90699  11.644   7.331   6.781  0.7285 -1.2000  1.6163
  672MOL0     H90700  10.940   6.982   7.348 -0.7752 -1.6940  0.3787
  672MOL0     H90701  10.728   6.885   7.393 -1.0472 -0.0953  0.5355
  672MOL0     H90702  10.238   6.943   7.441 -1.0803 -1.7981  2.4680
  672MOL0     H90703  10.048   6.828   7.503  0.6188 -0.0999  1.1324
  672MOL0     H90704   9.036   6.445   8.472 -0.9995  1.2534  1.1052
  672MOL0     H90705   8.814   6.375   8.577 -0.4318  0.2742 -1.3316
  672MOL0     H90706   8.576   5.876   8.809  0.4597  1.4364 -2.4742
  672MOL0     H90707   8.355   5.846   8.905 -1.2911  0.4343 -0.2961
  672MOL0     H90708   8.264   6.123   9.236 -0.4779 -0.6772  1.4722
  672MOL0     H90709   8.125   6.021   9.228 -0.1843  0.4485 -0.2911
  672MOL0     H90710   8.175   6.259   9.046  1.7642 -0.9094 -0.1122
  672MOL0     H90711   8.083   6.276   9.195 -1.9919 -0.9859 -0.0827
  672MOL0     H90712   7.908   6.114   9.108  1.9114 -1.4293  3.0334
  672MOL0     H90713   8.014   6.073   8.971 -0.3811 -0.7540 -0.0470
  672MOL0     H90714   7.876   6.342   9.033 -0.2814  1.9358 -1.4675
  672MOL0     H90715   8.004   6.320   8.911 -0.8393 -0.0425  0.6418
  672MOL0     H90716   7.654   6.157   8.738  2.0762 -1.5245 -2.4456
  672MOL0     H90717   8.412   6.212   9.118 -0.7547  0.4155 -1.2767
  672MOL0     H90718   8.612   6.297   9.125  1.9690  1.1562  0.7445
  672MOL0     H90719   8.742   6.295   9.002 -0.7112 -1.4745 -0.6747
  672MOL0     H90720   8.578   6.378   8.976  1.2715  0.9730 -0.4900
  673MOL0     O90721   8.312   8.894   5.343 -0.3203 -0.1827 -0.4086
  673MOL0     C90722   8.232   8.989   5.364  0.3515 -0.6803  0.5646
  673MOL0     O90723   8.253   9.121   5.327 -0.9343 -0.2611  0.0517
  673MOL0     C90724   8.363   9.172   5.257 -0.2243 -0.0183 -0.4282
  673MOL0     C90725   8.362   9.310   5.254  0.8048  0.3679 -0.3997
  673MOL0     C90726   8.462   9.383   5.198 -0.5792 -0.2466  0.3570
  673MOL0     C90727   8.579   9.313   5.141 -0.5660  0.1755  0.5866
  673MOL0     O90728   8.685   9.380   5.082  0.2891  0.3627  0.2231
  673MOL0     C90729   8.712   9.515   5.116  0.1841  0.4035 -0.1616
  673MOL0     C90730   8.838   9.553   5.046 -0.3943 -0.4395  0.7230
  673MOL0     C90731   8.859   9.702   5.074  0.9028 -0.7396 -0.2338
  673MOL0     C90732   8.951   9.740   5.191 -0.6204  0.2589  0.1246
  673MOL0     C90733   8.974   9.893   5.185  0.5724  0.4567 -0.0429
  673MOL0     C90734   9.094   9.926   5.278  0.4204 -0.3604  0.2503
  673MOL0     C90735   9.087  10.070   5.334 -0.2576  0.5359  0.6421
  673MOL0     C90736   9.193  10.085   5.446  0.1717 -0.5953 -0.2966
  673MOL0     N90737   9.132  10.067   5.578 -0.1997  0.1052  0.6018
  673MOL0     C90738   9.123   9.945   5.644 -0.3508 -0.0390 -0.0243
  673MOL0     C90739   9.057   9.971   5.761  0.8332  0.1551  0.3066
  673MOL0     C90740   9.038   9.862   5.866 -0.9978 -0.7575  0.2662
  673MOL0     C90741   9.183   9.831   5.926  0.8862  0.0616 -0.1779
  673MOL0     C90742   9.208   9.887   6.070 -0.3730 -0.6316 -0.6893
  673MOL0     C90743   9.352   9.866   6.120 -0.4879 -0.2742  0.0990
  673MOL0     O90744   9.375   9.727   6.162  0.6571  0.1601 -1.2617
  673MOL0     C90745   9.482   9.712   6.246 -0.3950  0.1550 -0.0818
  673MOL0     C90746   9.485   9.596   6.328  0.1313  0.2532 -0.4823
  673MOL0     C90747   9.599   9.568   6.411 -0.3137 -0.6895  0.8312
  673MOL0     C90748   9.715   9.653   6.408  0.0783 -0.1163  0.6551
  673MOL0     C90749   9.840   9.632   6.487 -0.2703  0.6420  0.5532
  673MOL0     O90750   9.931   9.728   6.465  0.3488  0.1153 -0.2897
  673MOL0     C90751  10.061   9.743   6.508  0.0192  0.2208  0.0437
  673MOL0     C90752  10.143   9.646   6.563  0.2784 -0.1968 -0.5987
  673MOL0     C90753  10.270   9.669   6.614 -0.7058  0.3868  0.6047
  673MOL0     C90754  10.321   9.804   6.625  0.6935  0.4599 -0.7503
  673MOL0     O90755  10.451   9.844   6.656 -0.0021 -0.1356 -0.3527
  673MOL0     C90756  10.543   9.747   6.709 -0.3778 -0.4270 -0.0487
  673MOL0     C90757  10.523   9.718   6.863  0.1713 -0.2367 -0.0258
  673MOL0     C90758  10.655   9.731   6.944 -0.4955  0.7507  0.1371
  673MOL0     C90759  10.742   9.597   6.922 -0.4535  0.2541 -0.0014
  673MOL0     C90760  10.859   9.595   7.023 -0.7779  0.1771  0.0167
  673MOL0     C90761  10.938   9.463   7.017  0.9581 -0.6350 -0.0482
  673MOL0     C90762  11.017   9.442   6.891  0.5075 -0.2085  0.2666
  673MOL0     C90763  11.107   9.328   6.904 -0.5016 -0.3701  0.3419
  673MOL0    Cl90764  11.210   9.307   6.759 -0.1752  0.1106  0.2920
  673MOL0     C90765  10.241   9.898   6.564  0.4203 -0.1025  1.1011
  673MOL0     C90766  10.118   9.870   6.501  0.3352  0.1217 -0.1904
  673MOL0     O90767   9.857   9.532   6.550  0.0206  0.4388 -0.4299
  673MOL0     C90768   9.705   9.776   6.327  0.8393 -0.1662  1.1576
  673MOL0     C90769   9.585   9.806   6.257 -0.6532 -0.8455 -0.0216
  673MOL0     N90770   9.029  10.108   5.770  0.1308  0.2860  1.0074
  673MOL0     N90771   9.076  10.167   5.652  0.3638 -0.2735 -0.1679
  673MOL0     C90772   8.573   9.172   5.131  0.3855 -0.1168 -0.0599
  673MOL0     C90773   8.467   9.105   5.198  0.0697 -0.4724  0.4925
  673MOL0     C90774   8.104   8.958   5.436 -0.8279 -0.7940 -0.1303
  673MOL0     C90775   8.020   9.067   5.461  0.1501 -0.8805 -0.1431
  673MOL0     C90776   7.890   9.041   5.510 -1.4814 -0.2132 -0.4913
  673MOL0     C90777   7.846   8.912   5.548  0.3531  0.6703  0.2923
  673MOL0     O90778   7.726   8.883   5.608  0.5383  0.5694  0.4661
  673MOL0     C90779   7.663   8.748   5.606 -0.5528  0.5332 -0.2702
  673MOL0     C90780   7.519   8.760   5.664 -0.4040 -0.0398  0.0236
  673MOL0     C90781   7.401   8.751   5.567 -0.5028  0.0324  0.4194
  673MOL0     C90782   7.370   8.605   5.513 -0.9297  0.2857  0.3293
  673MOL0     C90783   7.308   8.525   5.623  0.3564 -0.8803 -0.3860
  673MOL0     C90784   7.255   8.465   5.716 -0.2042  0.1114 -1.3455
  673MOL0     C90785   7.938   8.813   5.540  0.1871 -0.0795 -0.0694
  673MOL0     C90786   8.059   8.830   5.476  0.2604  0.0108  0.2372
  673MOL0     C90787   8.135   8.699   5.454  0.9446 -0.2439  0.5031
  673MOL0     H90788   8.288   9.366   5.311 -0.0435 -0.2756 -0.8441
  673MOL0     H90789   8.450   9.490   5.188 -1.9454 -0.5230 -1.4397
  673MOL0     H90790   8.624   9.569   5.081 -1.7258 -2.4270 -0.0669
  673MOL0     H90791   8.713   9.526   5.225 -2.0839 -2.1789  0.2219
  673MOL0     H90792   8.828   9.531   4.939  0.9437  0.2044  0.4501
  673MOL0     H90793   8.930   9.503   5.075  1.0798  1.9266  0.3160
  673MOL0     H90794   8.767   9.754   5.102  1.4275  0.0986 -0.0297
  673MOL0     H90795   8.891   9.755   4.984  0.1033  0.3914  0.1277
  673MOL0     H90796   8.915   9.722   5.293 -3.6756  3.7460 -0.1302
  673MOL0     H90797   9.044   9.683   5.179 -0.3831  0.6828 -0.0796
  673MOL0     H90798   9.004   9.931   5.087  1.8972 -0.2531  0.0671
  673MOL0     H90799   8.884   9.942   5.222 -1.1227 -0.7592 -2.3420
  673MOL0     H90800   9.099   9.858   5.363  1.4401 -0.5886  0.0322
  673MOL0     H90801   9.186   9.928   5.218  0.9780  0.0284  1.0956
  673MOL0     H90802   8.988  10.095   5.373 -1.1894 -0.4722 -0.9383
  673MOL0     H90803   9.118  10.135   5.252 -0.1759  0.6087  0.7302
  673MOL0     H90804   9.276  10.013   5.448  1.4096  0.6875  3.1304
  673MOL0     H90805   9.241  10.183   5.446  0.6146 -0.7007  2.8364
  673MOL0     H90806   9.179   9.856   5.617  1.1427  1.3896 -2.0120
  673MOL0     H90807   8.977   9.898   5.949  1.1037 -2.0608  2.5385
  673MOL0     H90808   8.997   9.773   5.819  2.4785 -2.9769  1.0586
  673MOL0     H90809   9.187   9.721   5.930  0.5729  0.0830  2.0641
  673MOL0     H90810   9.271   9.857   5.866  1.4195  3.0591  1.6954
  673MOL0     H90811   9.135   9.842   6.137 -0.9232 -0.4367 -1.1504
  673MOL0     H90812   9.189   9.995   6.068 -0.3401 -0.5477  1.7148
  673MOL0     H90813   9.356   9.932   6.208  2.3189  2.8820 -2.1278
  673MOL0     H90814   9.416   9.898   6.037  0.1745  0.1555  0.7670
  673MOL0     H90815   9.406   9.522   6.320  0.5773 -0.2139 -0.6235
  673MOL0     H90816   9.595   9.480   6.475  0.8613 -1.2045  0.2299
  673MOL0     H90817  10.109   9.543   6.558  4.1447 -1.6524 -0.3087
  673MOL0     H90818  10.328   9.580   6.636  0.7457  1.4909  1.4918
  673MOL0     H90819  10.544   9.650   6.659  0.3691  0.8842 -2.8186
  673MOL0     H90820  10.641   9.796   6.701  1.4519 -3.9016 -0.6785
  673MOL0     H90821  10.447   9.771   6.920  1.5302 -1.1570  2.8371
  673MOL0     H90822  10.497   9.612   6.873  0.4577 -0.0671  5.2006
  673MOL0     H90823  10.720   9.814   6.913  0.8836  0.5930  2.4265
  673MOL0     H90824  10.638   9.734   7.052  1.7494 -1.7114  0.6488
  673MOL0     H90825  10.778   9.591   6.819 -0.2324  1.4710 -0.0102
  673MOL0     H90826  10.676   9.512   6.943 -0.7461  0.2956 -0.7294
  673MOL0     H90827  10.814   9.618   7.120 -1.2242  0.2762 -0.2081
  673MOL0     H90828  10.928   9.678   7.008  1.1634 -1.5855 -1.3574
  673MOL0     H90829  10.997   9.452   7.109 -0.3439  3.6744  1.6082
  673MOL0     H90830  10.869   9.378   7.023  0.6431 -0.4129 -0.4801
  673MOL0     H90831  11.062   9.540   6.870 -2.3335  0.6204 -2.6480
  673MOL0     H90832  10.958   9.409   6.805  1.4748 -1.9032  0.2109
  673MOL0     H90833  11.161   9.344   6.999  0.0874  1.8022 -0.3051
  673MOL0     H90834  11.031   9.251   6.919 -1.6344  0.5314 -0.6442
  673MOL0     H90835  10.252  10.006   6.561 -2.4381  0.2493 -0.7567
  673MOL0     H90836  10.057   9.944   6.452 -1.3388 -1.1036 -0.0787
  673MOL0     H90837   9.788   9.844   6.309  0.5837 -0.5170 -1.7409
  673MOL0     H90838   9.592   9.901   6.205 -1.8311 -0.1839  0.9851
  673MOL0     H90839   8.658   9.122   5.086  0.9715  0.6203  0.2008
  673MOL0     H90840   8.476   8.997   5.193  0.7009 -0.3865 -3.4510
  673MOL0     H90841   8.038   9.171   5.437  1.0521 -1.4366 -2.1238
  673MOL0     H90842   7.837   9.135   5.524  0.6437  1.6711 -3.7103
  673MOL0     H90843   7.722   8.676   5.664 -0.7146  0.5055 -0.1374
  673MOL0     H90844   7.653   8.701   5.508  0.4561 -0.7833  0.2286
  673MOL0     H90845   7.509   8.856   5.715 -1.1238 -0.0947  0.0026
  673MOL0     H90846   7.505   8.681   5.738  0.2380 -0.7867 -0.6275
  673MOL0     H90847   7.431   8.791   5.470 -2.3189 -0.8843 -0.5628
  673MOL0     H90848   7.306   8.798   5.594 -1.3079 -2.1007  1.5412
  673MOL0     H90849   7.301   8.604   5.428 -0.7051  0.8721  0.1302
  673MOL0     H90850   7.461   8.561   5.470 -1.1525 -2.0836  2.1025
  673MOL0     H90851   7.206   8.420   5.801 -0.3200  0.5323 -1.1863
  673MOL0     H90852   7.927   8.708   5.566  2.3912 -0.3660 -0.1534
  673MOL0     H90853   8.190   8.694   5.359  2.6263 -1.7215  1.5072
  673MOL0     H90854   8.209   8.699   5.534 -0.6394  2.0298  2.0783
  673MOL0     H90855   8.070   8.613   5.469 -0.2953  0.5385 -0.1729
  674MOL0     O90856  10.778   0.210   8.819 -0.5674  0.1936  0.4190
  674MOL0     C90857  10.717   0.122   8.752  0.0897 -0.6719  0.8372
  674MOL0     O90858  10.779   0.010   8.706 -0.0512  0.7911 -0.0706
  674MOL0     C90859  10.908  -0.012   8.739  0.3090 -1.3328  0.4107
  674MOL0     C90860  10.979  -0.082   8.640  0.5916 -0.2505 -0.4689
  674MOL0     C90861  11.115  -0.118   8.664 -0.2878 -0.3552  0.4276
  674MOL0     C90862  11.179  -0.099   8.786  0.9527 -0.0587  0.1519
  674MOL0     O90863  11.311  -0.139   8.800  0.5996 -0.3006  0.2163
  674MOL0     C90864  11.390  -0.081   8.908 -0.1973  1.0301  0.0018
  674MOL0     C90865  11.535  -0.116   8.902 -0.7518  0.0482  0.3463
  674MOL0     C90866  11.561  -0.264   8.905  0.8253  0.0530 -0.1699
  674MOL0     C90867  11.705  -0.300   8.888 -0.6714 -0.0951 -0.3199
  674MOL0     C90868  11.733  -0.447   8.932 -0.1613  0.0028 -0.4709
  674MOL0     C90869  11.872  -0.479   8.882 -0.5460 -0.1092 -0.0925
  674MOL0     C90870  11.920  -0.622   8.931  0.5636  0.3404 -0.4023
  674MOL0     C90871  12.045  -0.672   8.863 -0.3220  0.2604  0.0498
  674MOL0     N90872  12.070  -0.804   8.917 -0.0525 -0.0677  0.2304
  674MOL0     C90873  12.151  -0.828   9.022 -0.0631 -0.1851 -0.3844
  674MOL0     C90874  12.177  -0.967   9.009  0.8184 -0.0196 -0.7874
  674MOL0     C90875  12.295  -1.036   9.065  0.2490  0.0529  0.2806
  674MOL0     C90876  12.337  -1.143   8.957 -0.0053 -0.5868 -0.1228
  674MOL0     C90877  12.464  -1.211   8.985 -0.6402  0.5664 -0.3989
  674MOL0     C90878  12.508  -1.307   8.875  1.0607 -0.0257  0.0731
  674MOL0     O90879  12.588  -1.250   8.777 -0.5431  0.5641  0.3377
  674MOL0     C90880  12.717  -1.238   8.811  0.0695  0.4947  0.0559
  674MOL0     C90881  12.786  -1.202   8.701 -0.8539 -0.1753  0.1913
  674MOL0     C90882  12.930  -1.193   8.704  0.4212 -0.2007  0.1610
  674MOL0     C90883  13.006  -1.203   8.817 -0.1447 -0.2579  0.3554
  674MOL0     C90884  13.154  -1.180   8.818  1.0521 -0.0851 -0.6914
  674MOL0     O90885  13.227  -1.201   8.936 -0.0188  0.3279  0.6964
  674MOL0     C90886  13.360  -1.218   8.911 -0.4674 -0.7968 -1.0258
  674MOL0     C90887  13.422  -1.315   8.827 -0.0916 -0.1630  0.0698
  674MOL0     C90888  13.562  -1.309   8.804  0.1504 -0.0293  0.9387
  674MOL0     C90889  13.641  -1.207   8.858  0.2210 -0.3623  0.0457
  674MOL0     O90890  13.771  -1.187   8.811  0.9361  0.4148 -0.7193
  674MOL0     C90891  13.846  -1.071   8.863 -0.2145  0.3626 -0.4553
  674MOL0     C90892  13.990  -1.074   8.790 -0.0624  0.6415 -0.1169
  674MOL0     C90893  14.065  -0.941   8.814 -0.5131 -0.7851  0.0262
  674MOL0     C90894  14.205  -0.947   8.745 -0.3862  0.1450  0.6298
  674MOL0     C90895  14.286  -0.811   8.749 -0.1955 -0.3489  0.5875
  674MOL0     C90896  14.417  -0.822   8.829 -0.4369 -0.1604  0.4610
  674MOL0     C90897  14.496  -0.689   8.844  0.5685  0.6700 -0.0578
  674MOL0     C90898  14.494  -0.615   8.708  0.4157 -0.1607  0.4771
  674MOL0    Cl90899  14.580  -0.714   8.580  0.1810 -0.0138 -0.0055
  674MOL0     C90900  13.586  -1.121   8.960 -0.0842 -0.4729  0.6362
  674MOL0     C90901  13.445  -1.127   8.973  1.0930  0.2907 -0.5986
  674MOL0     O90902  13.194  -1.149   8.707 -0.3207  0.3246 -0.4531
  674MOL0     C90903  12.930  -1.220   8.935 -0.1195 -0.4790 -1.2538
  674MOL0     C90904  12.790  -1.250   8.934  0.3232 -0.5337  0.0002
  674MOL0     N90905  12.098  -1.015   8.909 -0.5338 -0.3485 -0.2436
  674MOL0     N90906  12.032  -0.917   8.855  0.3398 -1.0556 -0.6393
  674MOL0     C90907  11.101  -0.030   8.880 -0.1950 -0.5597  0.0020
  674MOL0     C90908  10.969  -0.002   8.858  1.8818  0.5264 -0.1900
  674MOL0     C90909  10.571   0.141   8.713 -0.8790 -0.0804 -0.0514
  674MOL0     C90910  10.509   0.045   8.624 -0.6961  0.5491  0.2666
  674MOL0     C90911  10.375   0.065   8.591  0.2862  0.5782  0.4183
  674MOL0     C90912  10.305   0.183   8.612 -0.3731  0.9430  0.2884
  674MOL0     O90913  10.176   0.178   8.566 -0.6954  0.6921 -0.1154
  674MOL0     C90914  10.101   0.294   8.578  0.2474 -0.2475  0.4744
  674MOL0     C90915  10.128   0.398   8.479  0.8352  0.1406  0.4745
  674MOL0     C90916  10.085   0.346   8.338 -0.8575  0.2338 -0.0406
  674MOL0     C90917  10.117   0.461   8.244  0.4788 -0.8930 -0.9912
  674MOL0     C90918  10.117   0.415   8.109  0.0414 -0.0122  0.5411
  674MOL0     C90919  10.116   0.374   7.991  0.5245 -0.4199  0.3010
  674MOL0     C90920  10.368   0.282   8.684 -0.8727  0.0939  0.6152
  674MOL0     C90921  10.505   0.267   8.721  0.6608 -0.1066  0.4710
  674MOL0     C90922  10.555   0.390   8.785 -0.0874  0.3360 -0.1324
  674MOL0     H90923  10.936  -0.121   8.548 -2.5496  1.5970  0.0461
  674MOL0     H90924  11.177  -0.157   8.584 -0.8908 -0.6964  0.1193
  674MOL0     H90925  11.388   0.028   8.897  1.6041  0.9402 -1.9530
  674MOL0     H90926  11.350  -0.116   9.003 -3.4139  2.0901 -0.8539
  674MOL0     H90927  11.580  -0.062   8.986 -1.1253  3.9762 -1.7593
  674MOL0     H90928  11.577  -0.078   8.808  0.4008  0.2317  0.9124
  674MOL0     H90929  11.499  -0.322   8.836 -3.1530 -1.7147  4.2847
  674MOL0     H90930  11.514  -0.298   8.998  0.8194 -1.8356 -0.8272
  674MOL0     H90931  11.728  -0.280   8.783 -2.9632  2.1903 -0.5120
  674MOL0     H90932  11.775  -0.238   8.946  0.0712 -2.3951  1.3793
  674MOL0     H90933  11.723  -0.452   9.041 -0.0188  0.4885 -0.4334
  674MOL0     H90934  11.655  -0.499   8.876  0.6609  0.4535 -2.0753
  674MOL0     H90935  11.859  -0.478   8.774 -2.3194 -1.7647  0.0350
  674MOL0     H90936  11.950  -0.409   8.915  0.8802 -1.1165 -1.2270
  674MOL0     H90937  11.853  -0.703   8.899  1.1217 -0.1297 -0.3928
  674MOL0     H90938  11.934  -0.605   9.038  1.0982  5.4708 -1.0419
  674MOL0     H90939  12.030  -0.669   8.755 -0.9067 -0.2701  0.1087
  674MOL0     H90940  12.127  -0.605   8.891  0.2377  0.7397 -2.4841
  674MOL0     H90941  12.193  -0.769   9.102 -3.1927 -0.7838  1.8785
  674MOL0     H90942  12.371  -0.959   9.079  1.6171 -0.1533 -4.4397
  674MOL0     H90943  12.261  -1.065   9.165 -1.5991  0.8334 -0.0734
  674MOL0     H90944  12.265  -1.226   8.957  0.6180 -1.1742 -1.5866
  674MOL0     H90945  12.336  -1.091   8.861  0.6605 -1.2878 -0.5238
  674MOL0     H90946  12.469  -1.270   9.077  1.1174 -0.4571 -1.0800
  674MOL0     H90947  12.534  -1.129   8.970 -0.8866  0.5173 -2.0596
  674MOL0     H90948  12.415  -1.338   8.827 -1.5667  2.0914  3.3122
  674MOL0     H90949  12.557  -1.393   8.921  2.4100  2.0143  2.6954
  674MOL0     H90950  12.736  -1.185   8.607 -1.1115  0.6990  0.4819
  674MOL0     H90951  12.965  -1.167   8.605  1.2568  2.5363  1.0858
  674MOL0     H90952  13.361  -1.393   8.783 -0.0593 -0.8248  1.1682
  674MOL0     H90953  13.598  -1.387   8.738 -0.8826  0.1445  0.1467
  674MOL0     H90954  13.795  -0.975   8.855  0.6491  0.7684 -1.3130
  674MOL0     H90955  13.876  -1.099   8.965 -1.2506 -2.2676 -0.7870
  674MOL0     H90956  14.053  -1.152   8.834  0.7177  0.1326 -2.0576
  674MOL0     H90957  13.973  -1.088   8.683 -0.0402  2.2297 -0.3516
  674MOL0     H90958  14.018  -0.847   8.783  3.8633  1.9622  0.9109
  674MOL0     H90959  14.082  -0.937   8.922 -1.0540 -0.9271  0.1206
  674MOL0     H90960  14.193  -0.973   8.639  1.5874 -1.6681  0.7655
  674MOL0     H90961  14.260  -1.033   8.786  0.7260 -0.1114 -1.2683
  674MOL0     H90962  14.233  -0.724   8.789  0.2277  0.8147 -1.2149
  674MOL0     H90963  14.305  -0.800   8.641  2.5844 -0.1132  1.0181
  674MOL0     H90964  14.390  -0.864   8.927 -1.2191  1.0353  0.7778
  674MOL0     H90965  14.480  -0.890   8.770  1.5549  3.2787 -1.7022
  674MOL0     H90966  14.600  -0.712   8.868  1.8417  2.7907 -2.8453
  674MOL0     H90967  14.446  -0.623   8.915 -3.1068  0.7589 -2.4487
  674MOL0     H90968  14.392  -0.601   8.671 -0.0656 -3.0580  0.4208
  674MOL0     H90969  14.537  -0.515   8.713  1.2013 -0.3306 -1.8422
  674MOL0     H90970  13.642  -1.046   9.014 -1.0673  0.5941  0.2042
  674MOL0     H90971  13.400  -1.065   9.050 -1.1830 -1.3852 -0.4892
  674MOL0     H90972  12.980  -1.230   9.031 -1.4732 -1.2798 -0.6085
  674MOL0     H90973  12.740  -1.274   9.027 -3.6143 -1.0971 -2.0685
  674MOL0     H90974  11.146  -0.019   8.978  1.4932  0.9851 -0.8928
  674MOL0     H90975  10.916   0.042   8.942 -1.1291 -0.6923 -1.2846
  674MOL0     H90976  10.557  -0.045   8.585  0.2413  1.8603 -1.7344
  674MOL0     H90977  10.318  -0.002   8.527 -2.0421  0.6255  2.2777
  674MOL0     H90978  10.118   0.338   8.677  2.2926 -0.2420  0.1618
  674MOL0     H90979   9.994   0.273   8.569  0.5312 -1.1727 -1.2386
  674MOL0     H90980  10.227   0.446   8.480  0.2344  1.5026 -1.1176
  674MOL0     H90981  10.063   0.480   8.513 -0.9462 -1.2952  0.6633
  674MOL0     H90982   9.983   0.307   8.338 -0.5792 -0.5188  0.7916
  674MOL0     H90983  10.150   0.267   8.298  0.8124  0.8112  1.3887
  674MOL0     H90984  10.039   0.537   8.250  2.3061  1.3523 -3.7026
  674MOL0     H90985  10.211   0.513   8.263 -0.9803  2.2097 -1.5528
  674MOL0     H90986  10.104   0.345   7.889  1.0180 -0.5312  0.2715
  674MOL0     H90987  10.311   0.372   8.706 -0.1542  0.6086  0.3855
  674MOL0     H90988  10.576   0.369   8.890  1.5946 -0.8561 -0.6530
  674MOL0     H90989  10.645   0.431   8.737 -0.7032  2.0736  0.1130
  674MOL0     H90990  10.474   0.463   8.779 -2.0857 -1.6793  0.8014
  675MOL0     O90991   1.979   7.330   6.346 -0.3156  0.3882  0.0515
  675MOL0     C90992   1.939   7.343   6.462 -0.5759 -0.8422  0.2696
  675MOL0     O90993   2.003   7.410   6.557 -0.0911  0.4386 -0.2456
  675MOL0     C90994   2.126   7.469   6.537 -0.3900 -0.8160  1.0933
  675MOL0     C90995   2.248   7.407   6.581  0.0180  0.1205 -0.2224
  675MOL0     C90996   2.377   7.455   6.540 -0.8688  0.6455 -0.1207
  675MOL0     C90997   2.387   7.583   6.495  0.1369  0.5917 -0.7526
  675MOL0     O90998   2.503   7.648   6.459 -0.4851  0.3015  0.9707
  675MOL0     C90999   2.626   7.596   6.515  0.5537  0.4912  0.1890
  675MOL0     C91000   2.739   7.692   6.485 -0.2312 -0.4406  0.0892
  675MOL0     C91001   2.850   7.697   6.599 -0.3255  0.6559 -0.3413
  675MOL0     C91002   2.961   7.787   6.564 -0.6449 -0.0038 -0.2362
  675MOL0     C91003   3.087   7.777   6.655 -1.5980 -0.2699  1.6514
  675MOL0     C91004   3.201   7.869   6.600 -1.0228 -0.3683 -0.1177
  675MOL0     C91005   3.173   8.018   6.628  0.3467  0.3948  0.5725
  675MOL0     C91006   3.299   8.091   6.575 -0.0787 -0.0659 -0.0946
  675MOL0     N91007   3.401   8.085   6.677 -0.2555  0.3816  0.1608
  675MOL0     C91008   3.409   8.133   6.802 -0.4190 -0.1711  0.1985
  675MOL0     C91009   3.496   8.053   6.867  0.7029 -0.6487 -0.3831
  675MOL0     C91010   3.541   8.084   7.014 -0.1984  0.5816  0.3247
  675MOL0     C91011   3.446   8.017   7.116  1.0603  1.0951  0.2435
  675MOL0     C91012   3.450   7.861   7.120  0.4998 -0.5650 -0.2013
  675MOL0     C91013   3.335   7.814   7.208  0.3977 -1.0424 -0.5325
  675MOL0     O91014   3.207   7.859   7.156  0.2798 -0.4838  0.1406
  675MOL0     C91015   3.097   7.794   7.215 -0.1364 -0.4662  0.0363
  675MOL0     C91016   3.107   7.736   7.337  0.0490  0.0763 -0.1747
  675MOL0     C91017   2.993   7.671   7.392 -0.9576  0.8419  0.0906
  675MOL0     C91018   2.869   7.673   7.329  0.0055 -0.1195  0.1456
  675MOL0     C91019   2.752   7.598   7.391 -0.6994  0.0097 -0.4460
  675MOL0     O91020   2.628   7.636   7.343  0.9107  0.2449 -0.3485
  675MOL0     C91021   2.508   7.581   7.383  0.2986 -1.0554  0.0928
  675MOL0     C91022   2.394   7.655   7.407 -0.3765 -0.4975  0.5280
  675MOL0     C91023   2.268   7.592   7.439 -0.1960 -0.4643 -0.4401
  675MOL0     C91024   2.244   7.451   7.434 -0.6898 -1.0978 -0.0084
  675MOL0     O91025   2.122   7.391   7.437 -0.3795  0.3248 -0.4233
  675MOL0     C91026   2.020   7.448   7.358  0.9471  0.0664  0.1070
  675MOL0     C91027   1.879   7.411   7.412 -0.7631 -1.2211 -0.6515
  675MOL0     C91028   1.761   7.441   7.325  0.0481  1.0018  0.1623
  675MOL0     C91029   1.625   7.439   7.405 -0.4664 -0.5345 -2.3319
  675MOL0     C91030   1.515   7.449   7.314  0.8295  0.6669 -0.0562
  675MOL0     C91031   1.372   7.473   7.376  0.4768 -0.6189 -0.1443
  675MOL0     C91032   1.362   7.613   7.443  0.6388 -0.7227  0.2630
  675MOL0     C91033   1.397   7.735   7.355  0.1321  0.2301  0.2765
  675MOL0    Cl91034   1.286   7.736   7.224  0.6386 -0.3270 -0.1528
  675MOL0     C91035   2.360   7.371   7.411 -0.0187 -0.8131  0.3192
  675MOL0     C91036   2.487   7.434   7.385  0.4300 -0.0223 -0.6179
  675MOL0     O91037   2.779   7.506   7.471 -0.3894  0.1028  0.7446
  675MOL0     C91038   2.864   7.731   7.204  0.2625  0.1900 -0.4548
  675MOL0     C91039   2.971   7.797   7.151  0.6487  0.2128  0.5358
  675MOL0     N91040   3.563   7.978   6.770  0.3038  0.8896  0.0145
  675MOL0     N91041   3.496   7.989   6.664  0.5834  0.5110 -0.4260
  675MOL0     C91042   2.278   7.653   6.454 -0.3152 -0.0281 -0.1844
  675MOL0     C91043   2.149   7.597   6.476 -0.9532 -0.4557  0.5002
  675MOL0     C91044   1.794   7.318   6.478  0.1375  0.7418 -0.2986
  675MOL0     C91045   1.721   7.388   6.569 -0.4921  0.2326 -0.1487
  675MOL0     C91046   1.578   7.380   6.568  0.3244 -0.6498  0.7934
  675MOL0     C91047   1.514   7.302   6.482 -0.2775 -0.1635 -0.0947
  675MOL0     O91048   1.381   7.319   6.476 -0.3023 -0.4400 -0.0454
  675MOL0     C91049   1.294   7.280   6.368  0.1227 -0.6521 -0.1524
  675MOL0     C91050   1.152   7.307   6.397  0.1206  0.0749  0.7055
  675MOL0     C91051   1.103   7.220   6.508 -0.0682 -0.6754 -0.3789
  675MOL0     C91052   0.954   7.208   6.501 -0.0517  0.5290  0.5836
  675MOL0     C91053   0.881   7.326   6.546 -0.1744 -0.3996  0.0735
  675MOL0     C91054   0.838   7.430   6.598  0.2053 -0.1792 -0.6720
  675MOL0     C91055   1.589   7.216   6.403  0.0619  0.1901  0.2036
  675MOL0     C91056   1.726   7.212   6.406  0.4324 -0.2767 -0.8480
  675MOL0     C91057   1.792   7.109   6.322  0.1052  0.0385  0.0761
  675MOL0     H91058   2.241   7.316   6.640  2.1302  0.0159 -0.0331
  675MOL0     H91059   2.465   7.396   6.564 -1.0489  0.2952 -0.3057
  675MOL0     H91060   2.606   7.585   6.622 -0.2229  0.8016  0.0767
  675MOL0     H91061   2.644   7.497   6.471 -1.4722  1.4460 -3.0428
  675MOL0     H91062   2.690   7.787   6.463 -1.1917 -0.9024  0.2010
  675MOL0     H91063   2.790   7.665   6.393  0.1921  1.4250 -0.2623
  675MOL0     H91064   2.904   7.604   6.612 -0.9872 -0.1304 -2.6231
  675MOL0     H91065   2.805   7.738   6.690 -4.4771  0.6333 -2.1334
  675MOL0     H91066   2.993   7.760   6.463  0.2483 -0.3612  0.1374
  675MOL0     H91067   2.921   7.889   6.572 -1.0132 -0.2092  0.5849
  675MOL0     H91068   3.071   7.811   6.758  0.6275  1.6812  1.4466
  675MOL0     H91069   3.120   7.672   6.654 -0.1189  0.1642  1.9627
  675MOL0     H91070   3.295   7.836   6.643  0.1933  2.3563 -0.4674
  675MOL0     H91071   3.210   7.854   6.492 -2.6810 -0.1279 -0.3193
  675MOL0     H91072   3.151   8.054   6.729 -3.6875  1.6234 -0.5705
  675MOL0     H91073   3.088   8.054   6.570 -0.7502 -2.7654  0.0154
  675MOL0     H91074   3.328   8.055   6.476 -1.7013  0.0893 -0.6485
  675MOL0     H91075   3.273   8.195   6.556  0.1053  0.3058  1.5369
  675MOL0     H91076   3.352   8.214   6.847 -0.8608 -0.4614  0.1645
  675MOL0     H91077   3.641   8.051   7.044 -0.6109  1.4342  2.8822
  675MOL0     H91078   3.549   8.192   7.030  0.7027  0.1617  3.3924
  675MOL0     H91079   3.464   8.044   7.220  2.1227 -3.9237  1.6089
  675MOL0     H91080   3.346   8.056   7.092 -0.2137 -1.7467  0.4661
  675MOL0     H91081   3.549   7.833   7.158  1.4747  0.8712 -1.5882
  675MOL0     H91082   3.442   7.828   7.016  2.4041  4.4269 -2.2114
  675MOL0     H91083   3.346   7.870   7.301 -1.2549  0.8779 -1.4201
  675MOL0     H91084   3.344   7.706   7.226 -1.6200 -0.8189  2.3329
  675MOL0     H91085   3.194   7.741   7.402  0.9557  0.9715 -1.4096
  675MOL0     H91086   3.007   7.623   7.489 -2.1756 -0.6046 -0.4036
  675MOL0     H91087   2.395   7.763   7.391 -1.1192 -0.9253 -3.4495
  675MOL0     H91088   2.189   7.666   7.446  0.4602  0.0775  4.0651
  675MOL0     H91089   2.020   7.558   7.358 -1.6286  0.1507 -1.5534
  675MOL0     H91090   2.027   7.420   7.252 -1.3582  1.0121 -0.3594
  675MOL0     H91091   1.886   7.306   7.444 -2.0500 -1.4863 -1.1813
  675MOL0     H91092   1.870   7.463   7.507 -1.8481  0.8027 -1.7997
  675MOL0     H91093   1.768   7.544   7.289 -0.2061  0.6537 -0.9040
  675MOL0     H91094   1.761   7.359   7.253  0.3540  0.4026  0.8273
  675MOL0     H91095   1.618   7.523   7.474 -0.3083 -0.0861 -2.8606
  675MOL0     H91096   1.624   7.350   7.470  0.4576  0.6765 -0.5694
  675MOL0     H91097   1.510   7.364   7.246  1.2416 -0.0903  0.8380
  675MOL0     H91098   1.531   7.527   7.240 -0.4160 -0.0632 -1.1588
  675MOL0     H91099   1.290   7.469   7.304  0.2714 -0.5492  0.0834
  675MOL0     H91100   1.341   7.398   7.450 -2.0110 -0.8009 -1.2659
  675MOL0     H91101   1.418   7.630   7.535 -1.4780  1.5553  1.2331
  675MOL0     H91102   1.262   7.632   7.481  0.0519  0.0893 -1.5555
  675MOL0     H91103   1.386   7.828   7.410  0.5958 -1.2970  3.1696
  675MOL0     H91104   1.501   7.731   7.320  0.6853 -0.5677  1.9031
  675MOL0     H91105   2.354   7.263   7.411  1.7694 -0.9371 -0.6236
  675MOL0     H91106   2.573   7.368   7.376  0.1571 -0.2895 -1.3820
  675MOL0     H91107   2.772   7.743   7.148  1.2177  4.3957 -1.4553
  675MOL0     H91108   2.960   7.843   7.053 -0.6383  2.2663  1.5585
  675MOL0     H91109   2.287   7.750   6.408 -1.0685 -0.1234 -0.5482
  675MOL0     H91110   2.064   7.656   6.442 -0.5884 -0.1490  0.0954
  675MOL0     H91111   1.764   7.460   6.639 -3.5181  3.8051 -1.5940
  675MOL0     H91112   1.525   7.428   6.649 -0.9650 -0.6477 -0.0323
  675MOL0     H91113   1.302   7.174   6.342 -1.3618 -0.1683 -2.9944
  675MOL0     H91114   1.318   7.332   6.275  0.2072 -1.5648 -0.6599
  675MOL0     H91115   1.097   7.286   6.304  0.6158 -0.7676  0.5914
  675MOL0     H91116   1.147   7.407   6.441  1.1516 -0.9730  3.4352
  675MOL0     H91117   1.139   7.259   6.603 -2.1790  2.0570 -0.5640
  675MOL0     H91118   1.142   7.120   6.487  3.3416  0.4524 -0.0354
  675MOL0     H91119   0.920   7.170   6.405  1.0675 -1.9176  1.0812
  675MOL0     H91120   0.930   7.134   6.578 -2.7739  0.5740 -0.1289
  675MOL0     H91121   0.791   7.517   6.638 -0.6198  0.5360 -3.0242
  675MOL0     H91122   1.534   7.141   6.348  2.3718 -3.1182  2.0873
  675MOL0     H91123   1.747   7.010   6.328  3.0252 -1.3166  2.0233
  675MOL0     H91124   1.804   7.149   6.221 -1.0446  1.0490  0.3195
  675MOL0     H91125   1.894   7.093   6.359 -0.0561  0.2335  0.6133
  676MOL0     O91126   4.572   5.366   4.784 -0.5605 -0.7878  0.5236
  676MOL0     C91127   4.569   5.274   4.708  0.5401  0.3672  0.0754
  676MOL0     O91128   4.679   5.200   4.657  0.5669  0.4361  0.1133
  676MOL0     C91129   4.808   5.226   4.695  0.0366 -0.9406 -0.2071
  676MOL0     C91130   4.895   5.111   4.688 -0.5758 -0.2069  0.6490
  676MOL0     C91131   5.029   5.110   4.724 -0.0690  0.6668 -0.5805
  676MOL0     C91132   5.086   5.230   4.751 -0.1267 -0.2051 -1.1631
  676MOL0     O91133   5.224   5.226   4.740 -0.2288  0.6003  0.3135
  676MOL0     C91134   5.298   5.319   4.821 -0.3946 -0.0976 -0.3528
  676MOL0     C91135   5.409   5.348   4.724  0.1893  0.2226 -0.0887
  676MOL0     C91136   5.508   5.450   4.786  0.1024  0.1424  0.1106
  676MOL0     C91137   5.623   5.476   4.679  0.5565  0.0164  0.0592
  676MOL0     C91138   5.705   5.603   4.705 -0.6825  0.4061 -0.6501
  676MOL0     C91139   5.784   5.601   4.842 -1.1268  0.9680  0.3290
  676MOL0     C91140   5.863   5.468   4.863 -0.8374  0.2777 -0.4586
  676MOL0     C91141   5.947   5.486   4.988  0.2029 -0.8156  0.1477
  676MOL0     N91142   6.059   5.585   4.986  0.0506 -0.4111 -0.4903
  676MOL0     C91143   6.063   5.704   5.048 -0.0755  0.1949  0.2911
  676MOL0     C91144   6.186   5.745   5.029 -0.1754  0.2750  0.5639
  676MOL0     C91145   6.234   5.858   5.105 -0.4683 -0.0560 -0.5189
  676MOL0     C91146   6.368   5.910   5.065  0.2233  0.6049  0.3500
  676MOL0     C91147   6.393   6.042   5.135 -0.1415  0.5999  0.2299
  676MOL0     C91148   6.522   6.094   5.097  0.1891  0.3667  0.0383
  676MOL0     O91149   6.637   6.017   5.148 -0.4438  0.3752  0.0622
  676MOL0     C91150   6.763   6.070   5.137  0.3725 -0.9480  0.4814
  676MOL0     C91151   6.793   6.173   5.048  0.0603  0.3548  0.4396
  676MOL0     C91152   6.924   6.218   5.031  1.2287  0.5082  0.1168
  676MOL0     C91153   7.034   6.153   5.092 -0.5828  0.3362 -0.3005
  676MOL0     C91154   7.179   6.191   5.070  0.2402 -0.3236 -0.4820
  676MOL0     O91155   7.277   6.107   5.129  0.7787  0.4445  0.1250
  676MOL0     C91156   7.405   6.139   5.096 -0.1483  0.3264 -0.7112
  676MOL0     C91157   7.488   6.034   5.069 -0.8070 -0.0663  0.3656
  676MOL0     C91158   7.626   6.055   5.068  0.6722 -0.4271  0.3460
  676MOL0     C91159   7.684   6.176   5.076 -0.3343 -0.6975 -1.1769
  676MOL0     O91160   7.821   6.170   5.062 -0.8507  0.3401  0.2743
  676MOL0     C91161   7.890   6.270   4.992 -0.6500 -1.2011 -0.2917
  676MOL0     C91162   7.958   6.368   5.092  0.1018 -0.0643  0.3171
  676MOL0     C91163   7.993   6.501   5.026  0.1730 -0.4147 -0.2602
  676MOL0     C91164   8.086   6.586   5.102 -0.5804 -0.0784 -0.0727
  676MOL0     C91165   8.130   6.712   5.027  0.1087 -0.6095 -0.0505
  676MOL0     C91166   8.199   6.817   5.105 -0.1993 -0.7170 -0.4043
  676MOL0     C91167   8.344   6.779   5.142 -0.0067  0.1777 -0.2493
  676MOL0     C91168   8.423   6.903   5.173 -0.2596 -0.7755 -0.7521
  676MOL0    Cl91169   8.344   6.990   5.312  0.2809 -0.0714  0.1110
  676MOL0     C91170   7.602   6.284   5.108 -0.6868 -0.0822 -0.8550
  676MOL0     C91171   7.464   6.266   5.126 -0.1482  0.2882 -0.2242
  676MOL0     O91172   7.198   6.288   4.998  0.2103 -0.2158  0.1884
  676MOL0     C91173   7.006   6.034   5.167 -0.0952  0.0396 -0.9084
  676MOL0     C91174   6.875   5.998   5.193  0.7212 -0.2720 -0.6611
  676MOL0     N91175   6.257   5.656   4.959 -0.2268  0.2440 -0.2867
  676MOL0     N91176   6.180   5.559   4.932  0.0067  0.2517  0.0401
  676MOL0     C91177   5.002   5.345   4.770  0.7542 -0.3734 -0.4942
  676MOL0     C91178   4.863   5.346   4.745  0.1814 -0.1527 -0.5139
  676MOL0     C91179   4.436   5.242   4.658 -0.6731  0.0165  0.8302
  676MOL0     C91180   4.336   5.351   4.649 -0.2132 -0.2243 -1.0129
  676MOL0     C91181   4.212   5.330   4.596  0.2621  0.3069  0.3883
  676MOL0     C91182   4.177   5.205   4.537  0.0641 -0.5055 -0.8505
  676MOL0     O91183   4.067   5.178   4.460  0.0096  0.2140 -0.2478
  676MOL0     C91184   3.986   5.282   4.405  0.2547  0.0149  0.2121
  676MOL0     C91185   4.054   5.370   4.305  0.2603  0.3825 -0.4149
  676MOL0     C91186   4.048   5.325   4.155  0.0261  0.3990  0.2548
  676MOL0     C91187   4.070   5.178   4.126  0.1116 -0.5450 -0.7521
  676MOL0     C91188   4.210   5.150   4.164  0.5331  0.0258 -0.9371
  676MOL0     C91189   4.321   5.146   4.205  0.0553 -0.0983  0.4338
  676MOL0     C91190   4.275   5.103   4.548  0.4004  0.0014 -0.8672
  676MOL0     C91191   4.402   5.114   4.605  0.3808  0.6359  0.4435
  676MOL0     C91192   4.477   4.987   4.613 -0.8105  0.3712  0.0038
  676MOL0     H91193   4.846   5.018   4.661  2.3513 -1.7064  0.1391
  676MOL0     H91194   5.087   5.020   4.706 -0.0452  0.8610 -1.5391
  676MOL0     H91195   5.245   5.412   4.844 -2.6774 -0.8337 -2.1728
  676MOL0     H91196   5.324   5.276   4.918 -3.3581 -0.1185  0.5303
  676MOL0     H91197   5.386   5.378   4.622  2.5126 -3.7726 -2.0212
  676MOL0     H91198   5.461   5.252   4.715 -2.3114 -1.5609  2.5701
  676MOL0     H91199   5.553   5.410   4.877  0.4112  1.3689  0.5077
  676MOL0     H91200   5.456   5.542   4.812 -1.3171 -1.1372  2.0877
  676MOL0     H91201   5.684   5.385   4.669  3.0640  1.4175  1.6219
  676MOL0     H91202   5.579   5.503   4.583  0.8367 -0.9296 -0.3513
  676MOL0     H91203   5.784   5.610   4.630  0.0180 -1.0659 -0.0896
  676MOL0     H91204   5.635   5.687   4.706 -3.0017 -1.4064 -0.9142
  676MOL0     H91205   5.859   5.679   4.829 -0.6539  0.1605 -2.5939
  676MOL0     H91206   5.704   5.627   4.912  1.7439  1.4594  3.6516
  676MOL0     H91207   5.922   5.427   4.780  1.1446 -1.7904  1.8302
  676MOL0     H91208   5.783   5.394   4.872 -2.2185  1.4895 -2.1146
  676MOL0     H91209   5.889   5.507   5.078 -0.7528 -1.4203 -0.3127
  676MOL0     H91210   5.979   5.382   4.993  2.0557 -0.3442 -0.8849
  676MOL0     H91211   5.990   5.758   5.106 -0.0581  0.2607  0.2521
  676MOL0     H91212   6.170   5.944   5.081 -0.5545 -0.5374 -2.1774
  676MOL0     H91213   6.232   5.836   5.212 -1.9959  0.8986 -0.3140
  676MOL0     H91214   6.451   5.841   5.088 -0.1987  0.0229  0.1575
  676MOL0     H91215   6.366   5.925   4.956 -1.7941  1.7944  0.5109
  676MOL0     H91216   6.386   6.015   5.241 -1.3587 -2.2332 -0.4767
  676MOL0     H91217   6.313   6.109   5.100 -1.2699 -0.0039  1.5315
  676MOL0     H91218   6.528   6.200   5.123 -0.9719  0.6779 -0.8746
  676MOL0     H91219   6.526   6.094   4.988 -3.0763  0.5022 -0.1820
  676MOL0     H91220   6.713   6.213   4.987  0.8670  1.0400 -0.2049
  676MOL0     H91221   6.937   6.301   4.962 -0.4941 -1.4088 -2.7097
  676MOL0     H91222   7.464   5.929   5.078 -0.8469 -0.1192 -0.3301
  676MOL0     H91223   7.691   5.969   5.054  1.4883  0.1585  0.4548
  676MOL0     H91224   7.977   6.231   4.937  0.1842  0.6405 -0.3719
  676MOL0     H91225   7.828   6.324   4.920 -0.1043 -0.7899 -0.4630
  676MOL0     H91226   7.905   6.384   5.186 -0.5779 -0.1877 -0.0448
  676MOL0     H91227   8.049   6.316   5.125 -1.4335 -0.9342  3.5396
  676MOL0     H91228   8.027   6.495   4.922 -2.4485 -0.1557 -1.2088
  676MOL0     H91229   7.894   6.547   5.021 -0.0859 -1.0074 -0.6689
  676MOL0     H91230   8.165   6.528   5.151 -0.7721  0.2879  0.6868
  676MOL0     H91231   8.020   6.626   5.180 -1.9202  1.2357 -1.8089
  676MOL0     H91232   8.037   6.751   4.984  1.1500 -0.1773 -2.0369
  676MOL0     H91233   8.191   6.698   4.937 -0.3790  3.8076 -1.3254
  676MOL0     H91234   8.212   6.912   5.052  0.4795  0.1915  1.3126
  676MOL0     H91235   8.138   6.834   5.193 -0.4386 -1.3460 -0.4402
  676MOL0     H91236   8.385   6.720   5.060  0.6728  0.7200 -0.3087
  676MOL0     H91237   8.346   6.716   5.231  1.4087  0.8113  0.2075
  676MOL0     H91238   8.523   6.866   5.198 -1.4822 -3.1094  1.0937
  676MOL0     H91239   8.436   6.976   5.093  0.3048 -1.2263 -1.0840
  676MOL0     H91240   7.634   6.387   5.122 -0.3585 -0.3417  0.5058
  676MOL0     H91241   7.402   6.346   5.166 -0.6293 -0.4722  0.5617
  676MOL0     H91242   7.088   5.986   5.219 -1.7177 -0.1737  1.6610
  676MOL0     H91243   6.858   5.910   5.254  1.2681  0.8219  1.1316
  676MOL0     H91244   5.055   5.434   4.805  1.4837  0.1562 -2.7135
  676MOL0     H91245   4.808   5.438   4.765  0.0120 -0.2154 -0.6860
  676MOL0     H91246   4.353   5.452   4.685  0.2872 -0.7592  0.3103
  676MOL0     H91247   4.139   5.410   4.601  2.5878  2.6150 -0.1565
  676MOL0     H91248   3.935   5.334   4.486 -0.6815  0.8371 -0.8819
  676MOL0     H91249   3.914   5.221   4.349  1.3740 -1.3371  0.1654
  676MOL0     H91250   4.160   5.367   4.331 -0.0623  0.6496  1.0114
  676MOL0     H91251   4.004   5.467   4.315 -4.1874 -1.7816  0.5069
  676MOL0     H91252   4.118   5.387   4.100  1.0905  0.4061  1.5521
  676MOL0     H91253   3.954   5.353   4.106 -0.1580  1.2779  1.0742
  676MOL0     H91254   4.008   5.120   4.195 -0.6613  3.2476  2.0623
  676MOL0     H91255   4.050   5.157   4.020  2.1319  2.0532 -1.7662
  676MOL0     H91256   4.424   5.152   4.234 -0.2856  0.0349  1.6559
  676MOL0     H91257   4.255   5.002   4.515  1.9265 -1.8552  3.2607
  676MOL0     H91258   4.523   4.960   4.518  0.4264  1.8626  0.1526
  676MOL0     H91259   4.564   4.992   4.679 -0.3156  1.4748 -0.7230
  676MOL0     H91260   4.407   4.908   4.643  1.1932 -2.1583 -1.6103
  677MOL0     O91261   7.486   2.012   5.326 -0.2644  0.7510  0.2596
  677MOL0     C91262   7.408   2.014   5.235  0.4441 -0.0138  0.2782
  677MOL0     O91263   7.424   1.945   5.116  0.0109  0.3404 -0.0471
  677MOL0     C91264   7.535   1.867   5.097 -0.3544 -0.1350  0.5779
  677MOL0     C91265   7.552   1.735   5.139  0.3328  0.4468  0.2449
  677MOL0     C91266   7.672   1.671   5.117 -0.5441 -0.3283 -0.5436
  677MOL0     C91267   7.781   1.731   5.057 -0.1801 -0.0844  0.0808
  677MOL0     O91268   7.912   1.685   5.049  0.7551 -0.6033 -0.4047
  677MOL0     C91269   7.936   1.533   5.051  0.0241  0.6591 -0.3808
  677MOL0     C91270   8.089   1.504   5.052  0.4123  0.5751 -0.6591
  677MOL0     C91271   8.165   1.537   4.923 -0.9800 -0.2027 -0.0101
  677MOL0     C91272   8.157   1.434   4.804  0.1802  0.4239  0.1446
  677MOL0     C91273   8.219   1.485   4.673 -0.4493  0.1566 -0.3192
  677MOL0     C91274   8.370   1.512   4.675  0.6706 -0.1320 -0.1195
  677MOL0     C91275   8.398   1.579   4.533  1.1693  0.8005 -0.6598
  677MOL0     C91276   8.546   1.610   4.517 -0.4109 -0.6784 -0.0163
  677MOL0     N91277   8.576   1.650   4.375 -0.3445  0.1536 -0.2383
  677MOL0     C91278   8.678   1.740   4.336 -0.6273  0.5659 -0.3812
  677MOL0     C91279   8.664   1.759   4.198  0.3622 -0.0134 -0.8207
  677MOL0     C91280   8.741   1.857   4.117  0.4682 -0.3502  0.2807
  677MOL0     C91281   8.818   1.789   4.009 -0.9119  0.6267  0.8300
  677MOL0     C91282   8.944   1.714   4.079  0.1916 -0.3059  0.0587
  677MOL0     C91283   9.044   1.676   3.968 -0.3165  0.0534 -0.7269
  677MOL0     O91284   9.137   1.589   4.026 -0.1752 -0.2816  1.0156
  677MOL0     C91285   9.230   1.532   3.934 -0.3587 -0.5103 -0.1009
  677MOL0     C91286   9.222   1.538   3.792 -1.3344 -0.2208  0.6014
  677MOL0     C91287   9.335   1.493   3.717 -0.9876 -0.0439  0.2190
  677MOL0     C91288   9.449   1.447   3.790  0.1124 -0.2387 -0.1588
  677MOL0     C91289   9.576   1.416   3.720 -0.3693 -0.3965 -0.3218
  677MOL0     O91290   9.688   1.421   3.793  0.5033 -0.0824  0.0900
  677MOL0     C91291   9.793   1.349   3.739 -0.2658  0.1503  0.0480
  677MOL0     C91292   9.830   1.219   3.781  0.1428 -0.2877 -0.4312
  677MOL0     C91293   9.944   1.157   3.723  0.0865 -0.7900  0.1733
  677MOL0     C91294  10.026   1.222   3.629  0.7323 -0.8127  0.7007
  677MOL0     O91295  10.131   1.154   3.574  0.8748  0.5054 -0.8084
  677MOL0     C91296  10.201   1.203   3.462  0.2013  0.6384 -0.0598
  677MOL0     C91297  10.314   1.110   3.414  0.8128  0.1607 -0.4856
  677MOL0     C91298  10.357   1.137   3.266 -0.0831  0.6758 -0.1643
  677MOL0     C91299  10.484   1.053   3.247  0.7355 -1.0044 -0.1877
  677MOL0     C91300  10.537   1.053   3.100 -0.9045  0.2586 -0.6355
  677MOL0     C91301  10.655   0.965   3.087  0.7072  0.1377  0.1666
  677MOL0     C91302  10.776   1.020   3.169  0.3929  0.1872 -0.3026
  677MOL0     C91303  10.910   0.978   3.108  0.4217 -0.3642 -0.7243
  677MOL0    Cl91304  10.917   0.805   3.091  0.0258  0.2577  0.0719
  677MOL0     C91305   9.981   1.345   3.580 -1.3974  0.8759  0.1427
  677MOL0     C91306   9.870   1.408   3.632  0.5761  0.6666  0.6423
  677MOL0     O91307   9.564   1.380   3.605 -0.0623 -0.5464  0.5462
  677MOL0     C91308   9.448   1.425   3.931 -0.2556 -0.5964 -0.3949
  677MOL0     C91309   9.337   1.477   3.997 -0.1803  0.3782  0.5668
  677MOL0     N91310   8.557   1.673   4.162  0.6333 -0.8686  0.3291
  677MOL0     N91311   8.509   1.612   4.262 -0.1511 -1.0268 -0.6869
  677MOL0     C91312   7.766   1.861   5.011  0.1178  0.9318  0.1220
  677MOL0     C91313   7.644   1.926   5.029  0.3566  0.2528 -0.3891
  677MOL0     C91314   7.278   2.092   5.244 -0.4726  0.1285 -0.3190
  677MOL0     C91315   7.191   2.092   5.135  0.0586  0.0359 -0.1758
  677MOL0     C91316   7.069   2.157   5.125 -0.4471  1.1757 -0.7847
  677MOL0     C91317   7.017   2.220   5.230 -0.6115  0.3828 -0.0945
  677MOL0     O91318   6.904   2.280   5.208  0.7186  0.5705  1.0460
  677MOL0     C91319   6.837   2.342   5.318 -0.2463  0.0653  0.2692
  677MOL0     C91320   6.698   2.367   5.271 -0.5077 -0.2469 -0.0340
  677MOL0     C91321   6.614   2.250   5.238  0.2302 -0.1356 -0.2161
  677MOL0     C91322   6.482   2.283   5.169 -0.8657 -0.2320 -0.0151
  677MOL0     C91323   6.421   2.160   5.107 -0.2324 -1.0990 -0.7673
  677MOL0     C91324   6.361   2.072   5.051  0.6214  0.2434  0.0183
  677MOL0     C91325   7.101   2.219   5.343  0.5334 -0.2791  0.1726
  677MOL0     C91326   7.231   2.163   5.354 -0.6385 -1.2309  0.5972
  677MOL0     C91327   7.296   2.185   5.487 -0.8355 -0.8070 -0.4836
  677MOL0     H91328   7.479   1.679   5.196  1.0677 -1.6950 -0.7854
  677MOL0     H91329   7.676   1.574   5.166  1.1179  0.6513  1.4671
  677MOL0     H91330   7.889   1.487   5.139 -0.6863 -1.1088 -1.6256
  677MOL0     H91331   7.888   1.490   4.962 -0.9076  1.5678 -0.3440
  677MOL0     H91332   8.097   1.399   5.084  1.5242  1.0649  0.7502
  677MOL0     H91333   8.128   1.565   5.133 -0.3198  1.1839 -0.7567
  677MOL0     H91334   8.270   1.547   4.952 -0.8249  0.2552 -0.7192
  677MOL0     H91335   8.138   1.637   4.888 -0.6809  0.7296  2.2066
  677MOL0     H91336   8.195   1.337   4.837 -3.2886 -2.4534 -3.3461
  677MOL0     H91337   8.056   1.404   4.775  0.3917 -1.5803  1.3304
  677MOL0     H91338   8.203   1.406   4.599 -0.4927 -2.2092  2.0774
  677MOL0     H91339   8.160   1.572   4.643  2.1932  2.7169  1.4179
  677MOL0     H91340   8.385   1.586   4.754  0.9848 -0.0905 -0.2178
  677MOL0     H91341   8.435   1.426   4.689 -2.3140 -2.6559 -0.5092
  677MOL0     H91342   8.347   1.676   4.521 -0.1856  0.2851  0.6158
  677MOL0     H91343   8.358   1.517   4.453  0.0804 -1.0481  1.2125
  677MOL0     H91344   8.574   1.696   4.578  1.6714 -0.4806 -1.1911
  677MOL0     H91345   8.603   1.520   4.543 -1.2298 -1.2201 -0.0305
  677MOL0     H91346   8.752   1.787   4.400 -0.9350 -0.5884  0.8730
  677MOL0     H91347   8.663   1.911   4.063 -2.9774 -1.0769  4.0514
  677MOL0     H91348   8.810   1.925   4.168 -0.5500  1.0470 -0.1398
  677MOL0     H91349   8.755   1.725   3.946  1.5354  0.8342 -2.0662
  677MOL0     H91350   8.862   1.859   3.938 -1.1964 -0.8094 -0.8491
  677MOL0     H91351   8.914   1.625   4.135 -0.3901 -0.9545 -1.2343
  677MOL0     H91352   8.979   1.782   4.156 -1.9449 -0.0770  0.8991
  677MOL0     H91353   9.087   1.769   3.930 -1.5018  1.4832  1.2421
  677MOL0     H91354   8.984   1.626   3.891 -2.0646  1.6248 -0.4448
  677MOL0     H91355   9.139   1.580   3.737 -0.1522  1.3614 -0.0341
  677MOL0     H91356   9.328   1.491   3.609 -0.2113  0.4291  0.1487
  677MOL0     H91357   9.777   1.165   3.859  0.3004  2.3207  1.6186
  677MOL0     H91358   9.968   1.057   3.760 -2.7018 -0.1146  4.4380
  677MOL0     H91359  10.129   1.232   3.385  1.3711  2.4567 -0.5230
  677MOL0     H91360  10.243   1.301   3.485 -0.3247  0.3741  2.2080
  677MOL0     H91361  10.388   1.131   3.492 -0.1579  2.3491 -0.0599
  677MOL0     H91362  10.271   1.011   3.430  0.1492  0.3894 -0.8429
  677MOL0     H91363  10.276   1.108   3.198 -1.3834 -0.4855  1.7740
  677MOL0     H91364  10.383   1.239   3.237 -0.4650  0.0962 -2.8376
  677MOL0     H91365  10.471   0.946   3.268  0.3328 -1.5748 -2.9632
  677MOL0     H91366  10.565   1.087   3.313 -2.3365  2.9422  2.0242
  677MOL0     H91367  10.560   1.156   3.071  1.5317 -0.2585 -0.7260
  677MOL0     H91368  10.454   1.024   3.034 -0.6662 -1.0254 -0.4054
  677MOL0     H91369  10.631   0.861   3.111 -1.3058  0.5176 -0.0323
  677MOL0     H91370  10.679   0.964   2.980 -1.0202  2.9076 -0.3285
  677MOL0     H91371  10.769   0.975   3.269 -3.9516 -1.5234 -1.1271
  677MOL0     H91372  10.770   1.129   3.168 -1.2040  0.1353 -0.9638
  677MOL0     H91373  10.916   1.028   3.011  0.6496  0.5602 -0.2508
  677MOL0     H91374  10.999   1.003   3.167  0.2780  1.1916 -1.1242
  677MOL0     H91375  10.042   1.403   3.512  0.4828 -2.2320 -0.9959
  677MOL0     H91376   9.835   1.499   3.584 -0.3783 -1.1704 -2.4104
  677MOL0     H91377   9.530   1.375   3.981  0.0720  2.1603  2.1217
  677MOL0     H91378   9.340   1.468   4.105  0.1030  0.4825  0.5695
  677MOL0     H91379   7.854   1.899   4.960 -0.3255  1.8022 -0.0105
  677MOL0     H91380   7.639   2.030   4.999 -0.3541  0.4879  0.4855
  677MOL0     H91381   7.213   2.025   5.052 -1.6796 -3.2988  1.8191
  677MOL0     H91382   7.001   2.160   5.041 -0.1915 -2.6929 -1.3278
  677MOL0     H91383   6.887   2.431   5.357 -1.1841  0.2064  1.2115
  677MOL0     H91384   6.830   2.257   5.387  1.4806  0.3801  0.8798
  677MOL0     H91385   6.691   2.436   5.187 -1.6359 -1.3434 -0.8688
  677MOL0     H91386   6.651   2.422   5.353 -0.9285  1.4891 -1.3698
  677MOL0     H91387   6.590   2.199   5.332  1.2992 -1.9986 -0.9137
  677MOL0     H91388   6.670   2.180   5.175  1.2685  0.9483 -0.5419
  677MOL0     H91389   6.432   2.327   5.256  0.6950  2.0310 -0.1834
  677MOL0     H91390   6.499   2.356   5.090 -2.6086 -0.8165 -0.9837
  677MOL0     H91391   6.306   1.999   4.995  0.5510  1.9502 -2.3063
  677MOL0     H91392   7.058   2.257   5.435 -1.0453 -3.8506  1.1159
  677MOL0     H91393   7.237   2.136   5.564  0.0514 -1.0503  0.0568
  677MOL0     H91394   7.398   2.144   5.486  0.1104  1.4269 -1.1974
  677MOL0     H91395   7.302   2.290   5.516 -1.2598 -0.6895 -0.8173
  678MOL0     O91396   1.880   6.822   3.159  0.5783 -0.2962 -0.1966
  678MOL0     C91397   1.820   6.818   3.054  0.2951 -0.4329  0.5315
  678MOL0     O91398   1.877   6.815   2.932  0.1561  0.1181 -0.1976
  678MOL0     C91399   2.008   6.793   2.921 -0.5225  0.1488 -0.3816
  678MOL0     C91400   2.109   6.874   2.967  0.3098 -0.9080  0.4387
  678MOL0     C91401   2.241   6.837   2.967  0.2208 -0.4842 -0.1347
  678MOL0     C91402   2.289   6.719   2.910  0.7125  0.5864 -0.2621
  678MOL0     O91403   2.412   6.687   2.921 -0.6248  0.5462  0.3968
  678MOL0     C91404   2.471   6.685   3.051  0.4891  0.1143  0.0139
  678MOL0     C91405   2.611   6.735   3.036 -0.0199 -0.2680  1.0791
  678MOL0     C91406   2.694   6.646   2.935 -0.0901 -0.1819  0.5392
  678MOL0     C91407   2.830   6.701   2.910 -0.1850 -0.3879  0.4768
  678MOL0     C91408   2.895   6.601   2.813 -0.1784 -0.1680 -0.3898
  678MOL0     C91409   3.040   6.643   2.809  0.5040  0.5940 -0.1047
  678MOL0     C91410   3.133   6.538   2.737  0.6440  0.1936  0.1185
  678MOL0     C91411   3.215   6.608   2.623 -0.1527  0.8439  0.1683
  678MOL0     N91412   3.360   6.577   2.625 -0.3408  1.1000  0.5407
  678MOL0     C91413   3.462   6.633   2.705 -0.3414 -0.5778  0.3109
  678MOL0     C91414   3.568   6.551   2.668 -0.2688 -0.3417 -0.4296
  678MOL0     C91415   3.721   6.572   2.696 -0.7845 -0.5524  0.1440
  678MOL0     C91416   3.807   6.519   2.581  0.2785 -0.1973  0.3248
  678MOL0     C91417   3.958   6.552   2.599  0.3842  1.1531  0.1474
  678MOL0     C91418   4.028   6.481   2.486 -0.1280  0.0808 -0.1484
  678MOL0     O91419   4.162   6.531   2.481  0.3111 -0.0258  0.1632
  678MOL0     C91420   4.233   6.496   2.364  0.9166  0.2703 -0.3088
  678MOL0     C91421   4.363   6.549   2.354  0.0793  0.4419  0.1712
  678MOL0     C91422   4.449   6.518   2.249  0.7389 -0.0373 -0.6730
  678MOL0     C91423   4.407   6.434   2.148  0.6493 -0.4205 -0.7621
  678MOL0     C91424   4.496   6.394   2.043 -0.1981  0.5317  0.1082
  678MOL0     O91425   4.443   6.301   1.961 -0.7543 -0.1716 -0.3225
  678MOL0     C91426   4.515   6.221   1.870 -0.4767  0.4989 -0.1336
  678MOL0     C91427   4.497   6.083   1.870 -0.2040 -0.4246 -0.7144
  678MOL0     C91428   4.556   5.992   1.775 -0.4989 -0.0571  0.0451
  678MOL0     C91429   4.648   6.050   1.682 -0.2593  0.2637 -0.1544
  678MOL0     O91430   4.703   5.982   1.577 -0.5705 -0.0972  0.5787
  678MOL0     C91431   4.679   5.844   1.563 -0.6415 -0.2208 -0.8593
  678MOL0     C91432   4.763   5.787   1.453 -0.3266 -0.3653 -0.1712
  678MOL0     C91433   4.910   5.794   1.489 -0.5004  0.0457  0.2761
  678MOL0     C91434   4.972   5.917   1.431  0.0901  0.1905  0.3631
  678MOL0     C91435   5.121   5.908   1.460  0.7372 -0.4169  0.2315
  678MOL0     C91436   5.204   5.997   1.359 -0.5526 -0.4009 -0.3012
  678MOL0     C91437   5.349   5.968   1.388 -0.5274 -0.1828  0.0787
  678MOL0     C91438   5.427   6.087   1.441  0.2260  0.0216 -0.2796
  678MOL0    Cl91439   5.605   6.043   1.450 -0.0765  0.5709 -0.0610
  678MOL0     C91440   4.668   6.191   1.688 -0.2505 -0.8633  0.1220
  678MOL0     C91441   4.607   6.272   1.781 -0.0669 -0.6955  0.1795
  678MOL0     O91442   4.610   6.446   2.041  0.3631  0.0041  0.3574
  678MOL0     C91443   4.275   6.388   2.155 -0.2116  0.7285  0.3446
  678MOL0     C91444   4.188   6.417   2.261  0.1333  0.2952  0.1777
  678MOL0     N91445   3.522   6.446   2.589 -0.4773  0.3783 -0.4472
  678MOL0     N91446   3.396   6.466   2.559 -0.8752 -0.1957  0.4292
  678MOL0     C91447   2.186   6.634   2.857 -0.2733  0.5597 -0.4337
  678MOL0     C91448   2.050   6.671   2.862 -0.4863 -0.3321  0.3798
  678MOL0     C91449   1.675   6.831   3.068  0.6922 -0.3286 -0.9436
  678MOL0     C91450   1.607   6.909   2.970 -0.1766 -0.1890 -0.2365
  678MOL0     C91451   1.467   6.940   2.989 -0.5643  0.3294 -0.0099
  678MOL0     C91452   1.391   6.879   3.087  0.2566  0.2845 -0.2143
  678MOL0     O91453   1.252   6.894   3.111 -1.1035 -0.0261  0.2530
  678MOL0     C91454   1.177   6.950   2.996  0.4937 -0.1618 -0.2081
  678MOL0     C91455   1.168   7.108   2.994  0.0058  0.5724 -0.1590
  678MOL0     C91456   1.130   7.167   3.131 -0.8976 -0.2245 -0.1883
  678MOL0     C91457   0.998   7.234   3.131 -1.5439  0.3438  0.5391
  678MOL0     C91458   0.897   7.127   3.106  0.3468  0.1953  0.4408
  678MOL0     C91459   0.815   7.036   3.083 -0.2645  0.7930 -0.1780
  678MOL0     C91460   1.464   6.794   3.177 -0.9520 -1.1732 -0.0620
  678MOL0     C91461   1.603   6.776   3.175  0.3790  0.3762  0.0908
  678MOL0     C91462   1.650   6.671   3.278  0.1707  0.0304 -0.6776
  678MOL0     H91463   2.071   6.968   3.007  0.3715 -1.8101  2.8169
  678MOL0     H91464   2.306   6.910   3.015 -1.2845  1.0198 -0.2918
  678MOL0     H91465   2.416   6.752   3.117 -0.6532 -1.6538  0.9528
  678MOL0     H91466   2.476   6.584   3.092 -1.5069 -0.3743 -0.8326
  678MOL0     H91467   2.663   6.748   3.131 -1.9976  0.9987  2.0531
  678MOL0     H91468   2.597   6.837   2.999  0.1583  0.3395  2.6125
  678MOL0     H91469   2.647   6.628   2.838 -1.2089 -0.0042  1.0358
  678MOL0     H91470   2.701   6.545   2.977  1.6199 -0.5447 -0.5389
  678MOL0     H91471   2.821   6.802   2.870 -1.0564 -1.0221 -1.0166
  678MOL0     H91472   2.894   6.721   2.996  0.1014  0.4333  0.0820
  678MOL0     H91473   2.895   6.502   2.859  2.7920 -0.2083 -0.3134
  678MOL0     H91474   2.851   6.584   2.714 -0.4602 -1.2038 -0.0903
  678MOL0     H91475   3.044   6.741   2.760  1.6269  0.0923 -1.0665
  678MOL0     H91476   3.075   6.651   2.913 -0.0285 -3.5968  0.5636
  678MOL0     H91477   3.064   6.463   2.696 -1.9698  2.9400 -0.8613
  678MOL0     H91478   3.208   6.493   2.803  1.6749  1.7930  0.0845
  678MOL0     H91479   3.162   6.576   2.533  0.8377  1.4674 -0.6560
  678MOL0     H91480   3.212   6.717   2.616  0.7403  0.8443 -0.2394
  678MOL0     H91481   3.457   6.722   2.767 -3.2449 -2.2744  2.7802
  678MOL0     H91482   3.748   6.677   2.712  1.0392 -1.0912  0.8637
  678MOL0     H91483   3.752   6.519   2.787  1.1912  0.7102  0.2733
  678MOL0     H91484   3.796   6.412   2.564 -1.4901  0.2205 -1.7028
  678MOL0     H91485   3.762   6.560   2.490  1.1399 -0.1496 -0.0815
  678MOL0     H91486   3.998   6.525   2.698 -1.9909 -1.7671  0.4279
  678MOL0     H91487   3.974   6.661   2.597  0.5599  1.1482  0.8348
  678MOL0     H91488   3.989   6.512   2.388  0.2852  2.2477  0.3216
  678MOL0     H91489   4.029   6.372   2.494  1.2451  0.1857  1.8501
  678MOL0     H91490   4.394   6.620   2.429  2.5203 -0.5027  0.1651
  678MOL0     H91491   4.544   6.563   2.273  0.7841 -2.1522  4.5972
  678MOL0     H91492   4.418   6.047   1.935  0.5791  0.5299  0.8142
  678MOL0     H91493   4.533   5.887   1.792 -0.2806 -0.3334 -1.2714
  678MOL0     H91494   4.693   5.788   1.656  0.8667 -2.1052 -2.1508
  678MOL0     H91495   4.576   5.825   1.533 -1.0637 -2.4358  1.6408
  678MOL0     H91496   4.743   5.679   1.448 -2.0224 -0.2267  2.2086
  678MOL0     H91497   4.748   5.837   1.357 -3.2737 -1.0856 -0.1871
  678MOL0     H91498   4.924   5.783   1.597 -3.0962  0.4304  0.7231
  678MOL0     H91499   4.953   5.705   1.444 -2.6941 -0.3430 -1.2117
  678MOL0     H91500   4.919   5.996   1.486  0.0469 -0.6127  1.4915
  678MOL0     H91501   4.958   5.936   1.324 -1.5492  1.6399  0.7837
  678MOL0     H91502   5.160   5.807   1.442 -0.7967 -1.4577  2.3373
  678MOL0     H91503   5.138   5.935   1.564 -0.9723  0.0123  0.4314
  678MOL0     H91504   5.170   5.990   1.255 -0.7635  3.7664 -0.6730
  678MOL0     H91505   5.182   6.103   1.375 -1.1097 -0.2724 -1.7626
  678MOL0     H91506   5.396   5.937   1.294 -0.9279 -1.0243  0.1471
  678MOL0     H91507   5.359   5.889   1.463  1.1341 -1.0323 -0.9595
  678MOL0     H91508   5.423   6.171   1.371  3.2341  0.3429 -0.2012
  678MOL0     H91509   5.398   6.122   1.541  0.4357  0.1019 -0.2453
  678MOL0     H91510   4.733   6.235   1.613  1.3342 -0.2127  1.7997
  678MOL0     H91511   4.616   6.380   1.782 -1.4528 -0.5517 -0.0586
  678MOL0     H91512   4.233   6.329   2.074  0.7618  0.7488 -0.1854
  678MOL0     H91513   4.091   6.368   2.262  0.3051 -0.0571 -0.1102
  678MOL0     H91514   2.213   6.542   2.806  0.6179  0.1961  0.6533
  678MOL0     H91515   1.981   6.618   2.797 -0.3098  0.3236 -0.3626
  678MOL0     H91516   1.663   6.949   2.886 -0.6945 -0.7924 -0.8768
  678MOL0     H91517   1.423   7.005   2.914  1.2701 -0.7554 -2.1685
  678MOL0     H91518   1.078   6.905   3.006  1.5040 -3.0723 -1.9823
  678MOL0     H91519   1.204   6.908   2.898 -0.8954  1.1385 -1.1964
  678MOL0     H91520   1.097   7.140   2.918 -2.1525 -0.6612  1.2020
  678MOL0     H91521   1.267   7.144   2.966  0.4444 -2.2894 -2.7487
  678MOL0     H91522   1.193   7.252   3.161 -0.7391  0.2764 -1.8582
  678MOL0     H91523   1.144   7.094   3.212  1.6153  2.2138  1.8017
  678MOL0     H91524   0.980   7.289   3.224 -0.7265  1.6527 -0.0522
  678MOL0     H91525   1.000   7.302   3.045 -1.6296 -0.8530 -0.4266
  678MOL0     H91526   0.757   6.949   3.061 -0.0717 -0.3871  3.3240
  678MOL0     H91527   1.408   6.741   3.253  0.1174 -0.6254  1.1448
  678MOL0     H91528   1.669   6.577   3.226 -1.5996 -1.1953  0.7534
  678MOL0     H91529   1.729   6.702   3.347 -0.0071 -0.0737 -0.4252
  678MOL0     H91530   1.570   6.650   3.350  1.0721  1.9410  1.0038
  679MOL0     O91531   8.276   8.285   8.922 -0.0986 -0.2792  0.3036
  679MOL0     C91532   8.249   8.397   8.883 -0.0345  0.0043 -0.5201
  679MOL0     O91533   8.344   8.494   8.845  0.2458  0.2614 -0.2294
  679MOL0     C91534   8.479   8.457   8.837  0.1433  0.7589  0.8770
  679MOL0     C91535   8.519   8.342   8.768 -0.2329 -0.5574 -0.6473
  679MOL0     C91536   8.655   8.317   8.733 -0.3949  1.1263 -0.2079
  679MOL0     C91537   8.749   8.411   8.777 -0.1739 -0.1366  0.7162
  679MOL0     O91538   8.882   8.413   8.745 -0.5224  0.4328  0.2799
  679MOL0     C91539   8.933   8.281   8.723 -0.8504  0.1888  0.3486
  679MOL0     C91540   9.086   8.293   8.738  0.6973  0.2971  1.3299
  679MOL0     C91541   9.147   8.375   8.624  0.2579  0.0572  0.1481
  679MOL0     C91542   9.300   8.358   8.631 -0.5319 -0.5264 -0.5549
  679MOL0     C91543   9.381   8.454   8.552 -0.2452  0.1543  0.1168
  679MOL0     C91544   9.530   8.443   8.570 -0.6690 -0.6049  1.5498
  679MOL0     C91545   9.598   8.553   8.482  0.1007  0.7142 -0.2478
  679MOL0     C91546   9.561   8.553   8.332 -0.2603  0.0921 -0.5912
  679MOL0     N91547   9.654   8.460   8.266 -1.0115  0.2026 -0.2362
  679MOL0     C91548   9.788   8.471   8.233 -0.4460 -0.5589  0.5674
  679MOL0     C91549   9.823   8.364   8.153 -0.2121 -0.0789  0.1910
  679MOL0     C91550   9.956   8.331   8.087  0.5956 -0.9122 -0.4157
  679MOL0     C91551   9.930   8.361   7.940 -0.1994  0.3676  0.1028
  679MOL0     C91552  10.060   8.313   7.867 -1.2039 -0.0811 -0.5384
  679MOL0     C91553  10.157   8.426   7.847 -0.3078 -0.9230 -0.0467
  679MOL0     O91554  10.283   8.378   7.787  0.1357 -0.0505 -0.9744
  679MOL0     C91555  10.392   8.452   7.796 -0.2692  0.0875  0.1184
  679MOL0     C91556  10.425   8.539   7.898  0.3652 -0.1108 -0.3391
  679MOL0     C91557  10.548   8.596   7.909 -0.1137 -0.3982 -0.1534
  679MOL0     C91558  10.642   8.560   7.815 -0.3538  0.8031 -0.4152
  679MOL0     C91559  10.781   8.600   7.819  0.0947 -0.0654 -0.1648
  679MOL0     O91560  10.851   8.606   7.707  0.7189 -0.1904  0.6686
  679MOL0     C91561  10.987   8.633   7.715  0.4429 -1.8392 -0.0753
  679MOL0     C91562  11.010   8.773   7.736  0.1849  0.1566  0.3810
  679MOL0     C91563  11.137   8.815   7.769  0.1707 -0.2545 -0.9341
  679MOL0     C91564  11.245   8.729   7.772 -0.6703 -0.8161  0.1310
  679MOL0     O91565  11.368   8.762   7.814 -0.2060 -0.2761  0.3133
  679MOL0     C91566  11.449   8.846   7.738  1.0716 -0.1191 -0.4529
  679MOL0     C91567  11.592   8.785   7.708 -0.1309  0.3854  0.2412
  679MOL0     C91568  11.668   8.808   7.838  0.4325  0.0224 -0.7866
  679MOL0     C91569  11.794   8.720   7.857 -0.3973 -0.4891 -0.7324
  679MOL0     C91570  11.916   8.789   7.803 -0.1028 -0.1253  0.1967
  679MOL0     C91571  12.050   8.709   7.824 -0.3302 -0.5594  0.2565
  679MOL0     C91572  12.156   8.738   7.716 -0.1706 -0.1244 -0.1343
  679MOL0     C91573  12.255   8.628   7.698 -0.3494  0.1317  0.2199
  679MOL0    Cl91574  12.185   8.485   7.631  0.3901 -0.0186  0.3554
  679MOL0     C91575  11.221   8.594   7.741  0.0886  0.5984 -0.0271
  679MOL0     C91576  11.097   8.542   7.718  0.0388  0.1250 -0.8372
  679MOL0     O91577  10.831   8.611   7.932  0.7982 -0.0310  0.1462
  679MOL0     C91578  10.618   8.470   7.715  0.0679  0.0119  0.4451
  679MOL0     C91579  10.490   8.425   7.702  0.0780  0.7350  0.2655
  679MOL0     N91580   9.709   8.285   8.155 -0.4940 -0.6931 -0.2388
  679MOL0     N91581   9.609   8.341   8.224 -0.7668  0.8981 -0.5872
  679MOL0     C91582   8.711   8.527   8.841 -0.4327 -0.0079 -0.7165
  679MOL0     C91583   8.574   8.552   8.866 -0.0156 -0.6041  0.2191
  679MOL0     C91584   8.113   8.448   8.860 -0.0314 -0.0541 -0.6556
  679MOL0     C91585   8.101   8.585   8.859 -0.1858  0.1382 -0.7795
  679MOL0     C91586   7.979   8.651   8.821 -0.4748 -0.2370  1.0685
  679MOL0     C91587   7.863   8.572   8.788  0.3008 -0.1161  0.3243
  679MOL0     O91588   7.743   8.625   8.754  0.5884 -0.2564  0.3584
  679MOL0     C91589   7.730   8.753   8.708  0.1528 -0.3862  1.0867
  679MOL0     C91590   7.586   8.765   8.663 -0.4067 -0.6556  0.1825
  679MOL0     C91591   7.484   8.814   8.773 -1.0397  0.4237  0.5902
  679MOL0     C91592   7.345   8.812   8.702 -0.0325  0.7825  0.1161
  679MOL0     C91593   7.239   8.844   8.801 -0.2130  0.0945 -0.6736
  679MOL0     C91594   7.159   8.877   8.892  0.2695  0.3822  0.2795
  679MOL0     C91595   7.876   8.432   8.801 -0.3716  0.0272  1.6998
  679MOL0     C91596   7.995   8.364   8.842 -0.6136 -0.0147  0.4062
  679MOL0     C91597   7.980   8.221   8.860  0.3139  0.7237  0.3684
  679MOL0     H91598   8.444   8.278   8.722 -0.8872 -1.5392  1.6333
  679MOL0     H91599   8.687   8.228   8.680 -0.5848  0.9984 -0.1110
  679MOL0     H91600   8.902   8.225   8.812 -0.4742  0.9903  1.0114
  679MOL0     H91601   8.908   8.233   8.628  0.5496 -0.4459  0.2774
  679MOL0     H91602   9.122   8.191   8.723 -0.0740  0.0371  1.1957
  679MOL0     H91603   9.119   8.337   8.833  1.2498 -0.7488  1.6378
  679MOL0     H91604   9.127   8.477   8.657  4.0295  0.5829  1.2525
  679MOL0     H91605   9.102   8.358   8.526 -1.5765  3.1019  0.3348
  679MOL0     H91606   9.331   8.383   8.733  2.8434  1.1552 -1.8185
  679MOL0     H91607   9.334   8.254   8.626  3.6991  0.5918  0.5903
  679MOL0     H91608   9.355   8.439   8.447  0.1104  0.1907  0.0238
  679MOL0     H91609   9.365   8.559   8.580  2.0956  0.6952 -0.3971
  679MOL0     H91610   9.557   8.462   8.674  0.0838 -0.4652  1.3324
  679MOL0     H91611   9.561   8.342   8.542 -0.6586 -0.4675  1.0593
  679MOL0     H91612   9.706   8.541   8.484 -0.1524 -2.0859  0.5824
  679MOL0     H91613   9.584   8.652   8.526  2.8685  1.5179 -0.9803
  679MOL0     H91614   9.463   8.526   8.292 -1.7951  0.9073  2.3119
  679MOL0     H91615   9.588   8.654   8.300 -1.2430  0.1146 -1.3883
  679MOL0     H91616   9.854   8.553   8.259  1.7717 -3.1163  3.7195
  679MOL0     H91617  10.034   8.401   8.119 -1.2699  0.8154  0.5528
  679MOL0     H91618   9.980   8.226   8.107 -0.6592 -0.6655  2.9926
  679MOL0     H91619   9.844   8.307   7.899 -0.2686 -2.6869  3.7934
  679MOL0     H91620   9.908   8.468   7.933  0.0792  0.5697  1.9931
  679MOL0     H91621  10.031   8.275   7.768  1.4460 -1.1016 -1.0037
  679MOL0     H91622  10.116   8.231   7.914 -0.0876  0.0757 -1.5379
  679MOL0     H91623  10.177   8.476   7.942  4.5594 -1.0961 -0.7364
  679MOL0     H91624  10.113   8.493   7.772 -0.7528 -1.4669 -0.2731
  679MOL0     H91625  10.360   8.563   7.981  1.9304 -0.5337  1.0463
  679MOL0     H91626  10.580   8.668   7.984  2.1080  0.5311 -1.8712
  679MOL0     H91627  10.937   8.852   7.721  0.3772  0.1109 -0.8931
  679MOL0     H91628  11.148   8.918   7.802 -2.6681 -0.4249  0.9876
  679MOL0     H91629  11.387   8.872   7.651 -0.9140  1.2044  1.2567
  679MOL0     H91630  11.459   8.942   7.788 -0.1518  0.9464 -2.1577
  679MOL0     H91631  11.593   8.678   7.688  3.4180 -0.0317  1.8862
  679MOL0     H91632  11.629   8.831   7.616 -0.3859 -0.8457 -0.5052
  679MOL0     H91633  11.700   8.913   7.841  1.2193 -0.2356  1.2693
  679MOL0     H91634  11.608   8.784   7.927  1.6910 -0.3253 -0.0110
  679MOL0     H91635  11.763   8.629   7.804 -2.3392 -0.6008  0.4915
  679MOL0     H91636  11.807   8.689   7.961  3.0645 -4.7274 -2.0814
  679MOL0     H91637  11.925   8.884   7.858  0.2060  0.5069 -0.9187
  679MOL0     H91638  11.909   8.801   7.695  1.6194 -2.1985 -0.2102
  679MOL0     H91639  12.100   8.718   7.921 -0.1785 -1.3762  0.2650
  679MOL0     H91640  12.029   8.602   7.816  1.6479 -0.8884 -1.4526
  679MOL0     H91641  12.215   8.827   7.743 -2.7608  1.8343 -0.5233
  679MOL0     H91642  12.108   8.763   7.621 -0.1664 -1.4648 -0.5006
  679MOL0     H91643  12.337   8.669   7.638 -0.8653  2.7981  1.1707
  679MOL0     H91644  12.295   8.602   7.796  0.4045 -2.2181 -0.6550
  679MOL0     H91645  11.304   8.524   7.740 -0.8774 -0.6729  1.9622
  679MOL0     H91646  11.076   8.436   7.704 -0.3755 -0.2838  2.2354
  679MOL0     H91647  10.699   8.439   7.650  1.3156  2.4689  0.7063
  679MOL0     H91648  10.459   8.373   7.611  2.2491 -1.9312  0.9260
  679MOL0     H91649   8.791   8.595   8.870  0.6249 -1.0773 -1.0281
  679MOL0     H91650   8.538   8.640   8.918  1.8403  0.0784  0.4327
  679MOL0     H91651   8.187   8.648   8.877  0.0403  0.3693 -2.5107
  679MOL0     H91652   7.983   8.759   8.810  1.4790 -0.5146 -2.1052
  679MOL0     H91653   7.804   8.783   8.633  1.5692 -2.1501  1.6859
  679MOL0     H91654   7.740   8.823   8.791 -0.9178  1.6781 -0.4374
  679MOL0     H91655   7.563   8.668   8.620  0.3335  0.0495 -1.9121
  679MOL0     H91656   7.584   8.839   8.583  1.8545 -2.2224 -1.4435
  679MOL0     H91657   7.502   8.920   8.790 -1.3304  1.1480 -2.8817
  679MOL0     H91658   7.484   8.757   8.866  1.6942 -2.6100 -1.0697
  679MOL0     H91659   7.337   8.885   8.621  0.9952  1.8232  0.9247
  679MOL0     H91660   7.335   8.714   8.654  1.0289  0.5991  0.2553
  679MOL0     H91661   7.072   8.891   8.953 -0.5889  1.2881 -1.1188
  679MOL0     H91662   7.790   8.375   8.767 -1.1966  0.8534  2.3409
  679MOL0     H91663   7.878   8.190   8.836 -1.0896  5.3563 -0.6197
  679MOL0     H91664   8.047   8.178   8.785  1.8420  2.2185  0.8230
  679MOL0     H91665   8.004   8.192   8.963 -2.1984 -2.5870  0.1983
  680MOL0     O91666   8.552   0.634   8.798 -0.1930 -0.1077  0.0637
  680MOL0     C91667   8.618   0.660   8.897 -1.3505  0.1395  0.1672
  680MOL0     O91668   8.758   0.672   8.903 -0.1035 -0.9444 -1.2595
  680MOL0     C91669   8.819   0.693   8.787 -0.2776  0.2574 -0.2545
  680MOL0     C91670   8.833   0.587   8.700 -0.0310 -0.4882  0.0016
  680MOL0     C91671   8.900   0.604   8.580 -0.1750 -0.1759  0.2981
  680MOL0     C91672   8.963   0.725   8.544 -0.0035 -0.1794 -0.3230
  680MOL0     O91673   9.039   0.727   8.434  0.0962 -0.4415 -0.2084
  680MOL0     C91674   9.144   0.807   8.437 -0.9669 -0.0955  0.2352
  680MOL0     C91675   9.218   0.792   8.301 -0.1006 -1.0537 -0.8864
  680MOL0     C91676   9.354   0.869   8.309 -0.0627  0.4319  0.0164
  680MOL0     C91677   9.446   0.858   8.187 -0.1234  0.0891  0.5237
  680MOL0     C91678   9.394   0.952   8.079 -0.2028 -1.0229 -0.8197
  680MOL0     C91679   9.460   0.937   7.943 -0.4512  0.4924  0.4506
  680MOL0     C91680   9.383   1.002   7.832  0.5104  0.3951 -0.9206
  680MOL0     C91681   9.450   0.986   7.690  0.3326 -0.0909  0.0581
  680MOL0     N91682   9.591   1.028   7.695  0.7921 -0.3014  0.0989
  680MOL0     C91683   9.631   1.160   7.709  0.7030  0.5217  0.1142
  680MOL0     C91684   9.759   1.150   7.726 -0.5237  0.4751  0.9632
  680MOL0     C91685   9.838   1.272   7.768  0.7217 -1.0520  0.4991
  680MOL0     C91686   9.939   1.319   7.658  0.2555 -0.2782 -0.0349
  680MOL0     C91687   9.876   1.369   7.536  0.2429  0.1822 -0.1356
  680MOL0     C91688   9.972   1.405   7.431 -0.3755 -0.1215  0.7811
  680MOL0     O91689  10.056   1.520   7.469 -0.8127 -0.4901  0.0789
  680MOL0     C91690  10.196   1.512   7.456 -0.6011 -0.5171  0.5285
  680MOL0     C91691  10.257   1.456   7.340 -0.1321  0.0348 -0.3087
  680MOL0     C91692  10.396   1.458   7.331 -0.2072 -0.7705 -0.1538
  680MOL0     C91693  10.479   1.502   7.434  0.7934 -0.4576 -0.2650
  680MOL0     C91694  10.628   1.498   7.432  0.3867 -0.4084  0.0344
  680MOL0     O91695  10.695   1.520   7.546 -0.1623 -0.3775  0.2698
  680MOL0     C91696  10.827   1.474   7.545 -0.0563 -0.8587 -0.5169
  680MOL0     C91697  10.869   1.386   7.644  0.1519  0.6511 -0.8803
  680MOL0     C91698  11.009   1.350   7.654  0.6593 -0.3999  0.2770
  680MOL0     C91699  11.096   1.402   7.561  0.4400 -0.6075 -0.0939
  680MOL0     O91700  11.221   1.371   7.563 -0.6435 -0.5673 -0.1817
  680MOL0     C91701  11.292   1.377   7.685 -0.1063 -0.6433 -0.0425
  680MOL0     C91702  11.448   1.359   7.665 -0.9871 -0.1251  0.2114
  680MOL0     C91703  11.511   1.487   7.605 -0.4586 -0.0634  0.2901
  680MOL0     C91704  11.660   1.485   7.591  0.1429  0.1603  0.5289
  680MOL0     C91705  11.702   1.570   7.471  0.4611 -0.1105 -0.4713
  680MOL0     C91706  11.849   1.539   7.440  0.6247  0.2128 -0.3995
  680MOL0     C91707  11.960   1.591   7.532  0.9051  0.0582  0.1741
  680MOL0     C91708  11.985   1.743   7.506  0.4759 -0.5475  0.1060
  680MOL0    Cl91709  12.145   1.809   7.537 -0.0816 -0.4488  0.3012
  680MOL0     C91710  11.053   1.489   7.464 -0.1592 -0.1204  0.8591
  680MOL0     C91711  10.916   1.526   7.451 -0.8294 -0.5778 -0.4352
  680MOL0     O91712  10.667   1.444   7.331  0.3475  0.8118  0.5569
  680MOL0     C91713  10.409   1.564   7.541 -0.9681  1.1452  0.1011
  680MOL0     C91714  10.273   1.562   7.557  0.0107 -0.5020  0.0284
  680MOL0     N91715   9.805   1.021   7.711 -0.7314  0.5861  0.5093
  680MOL0     N91716   9.699   0.946   7.688 -0.8102 -0.1842  0.1747
  680MOL0     C91717   8.949   0.830   8.639  0.3754 -0.5396  0.1179
  680MOL0     C91718   8.876   0.816   8.757 -0.0657 -0.6993 -0.1015
  680MOL0     C91719   8.541   0.677   9.021 -0.8229  0.0864 -0.1769
  680MOL0     C91720   8.403   0.638   9.020 -0.1734 -0.4954 -0.3161
  680MOL0     C91721   8.331   0.637   9.137  1.0155 -0.4037 -0.0965
  680MOL0     C91722   8.387   0.682   9.254  0.0272 -0.4223  0.0674
  680MOL0     O91723   8.299   0.687   9.362  0.4343 -0.0132  1.0119
  680MOL0     C91724   8.328   0.784   9.466 -0.5128 -0.7447  0.6279
  680MOL0     C91725   8.200   0.800   9.544  0.2295  0.0629 -0.5698
  680MOL0     C91726   8.067   0.861   9.486 -0.2089  0.2547  0.1194
  680MOL0     C91727   7.960   0.869   9.590  0.0863  0.3830  0.0269
  680MOL0     C91728   7.927   0.735   9.648 -1.5710 -0.9665  0.7655
  680MOL0     C91729   7.918   0.621   9.680  0.2550 -0.3493  0.0961
  680MOL0     C91730   8.517   0.730   9.255 -0.4644  0.5875 -0.2800
  680MOL0     C91731   8.602   0.716   9.143  0.0725 -0.0644 -0.2027
  680MOL0     C91732   8.748   0.757   9.164  0.5488 -0.1359  0.1680
  680MOL0     H91733   8.776   0.499   8.728  2.3015 -1.8676  0.6696
  680MOL0     H91734   8.920   0.516   8.521 -1.6212 -1.0869  1.1028
  680MOL0     H91735   9.126   0.911   8.467  1.7666  0.6873 -0.5034
  680MOL0     H91736   9.215   0.771   8.512  1.7810 -0.4079 -2.3296
  680MOL0     H91737   9.163   0.826   8.214 -2.5330  1.6203  1.4691
  680MOL0     H91738   9.238   0.687   8.276  0.1060 -1.4148  0.6726
  680MOL0     H91739   9.410   0.825   8.391  1.1216  0.5958 -0.6826
  680MOL0     H91740   9.346   0.976   8.334  1.0270  0.0156  2.3738
  680MOL0     H91741   9.551   0.870   8.213 -1.1909  3.5645  4.3291
  680MOL0     H91742   9.430   0.761   8.138 -3.5593  0.9433 -0.3535
  680MOL0     H91743   9.288   0.937   8.057 -0.4926 -1.0810  0.5528
  680MOL0     H91744   9.389   1.054   8.118 -1.6531 -1.2658 -0.3194
  680MOL0     H91745   9.554   0.986   7.968 -0.9104  0.7490  1.7383
  680MOL0     H91746   9.474   0.829   7.932  1.3804  0.2734  3.6685
  680MOL0     H91747   9.366   1.107   7.857 -4.0735 -0.7168  2.0737
  680MOL0     H91748   9.290   0.946   7.813  2.7949 -3.4893 -1.8623
  680MOL0     H91749   9.455   0.879   7.668  1.0501  0.3055 -1.9968
  680MOL0     H91750   9.399   1.039   7.609  1.9923  1.2322 -0.1895
  680MOL0     H91751   9.564   1.245   7.707 -0.4874 -0.3533  0.8198
  680MOL0     H91752   9.773   1.358   7.787  2.2442  0.3169 -0.2830
  680MOL0     H91753   9.902   1.250   7.854  0.9823  1.6317  1.0830
  680MOL0     H91754  10.004   1.397   7.699  1.5499 -1.6517  0.6317
  680MOL0     H91755  10.001   1.234   7.630  2.3013  1.3759 -0.8017
  680MOL0     H91756   9.830   1.465   7.562  1.7725  1.1340 -0.7802
  680MOL0     H91757   9.803   1.299   7.495 -1.2051  0.3063  2.0591
  680MOL0     H91758   9.921   1.432   7.339  0.0034 -2.0535 -0.0328
  680MOL0     H91759  10.034   1.317   7.410  0.7597  0.9852 -0.7262
  680MOL0     H91760  10.195   1.411   7.263 -0.3621 -0.5655  0.2121
  680MOL0     H91761  10.430   1.415   7.236  0.0347 -2.0266  0.4726
  680MOL0     H91762  10.787   1.341   7.700  0.1471  1.8827  0.1346
  680MOL0     H91763  11.039   1.273   7.724  1.5494 -0.0497  0.3060
  680MOL0     H91764  11.274   1.473   7.735  0.3181  0.3159 -1.6653
  680MOL0     H91765  11.267   1.287   7.741  0.8184 -2.4653 -2.3834
  680MOL0     H91766  11.499   1.350   7.761 -0.2483 -2.8049 -0.3690
  680MOL0     H91767  11.480   1.266   7.618  1.0972  0.1193  1.0393
  680MOL0     H91768  11.461   1.492   7.508 -2.4574 -0.7878  1.2318
  680MOL0     H91769  11.481   1.574   7.665  1.1681 -0.4243  1.7376
  680MOL0     H91770  11.689   1.380   7.579  1.0464  0.4175  0.4545
  680MOL0     H91771  11.706   1.518   7.684  0.8218  0.4760  0.0894
  680MOL0     H91772  11.689   1.674   7.502 -3.6047 -0.3130 -1.0102
  680MOL0     H91773  11.640   1.544   7.385 -0.6004  2.3771 -0.5325
  680MOL0     H91774  11.852   1.430   7.442  0.2190  0.1691  2.3577
  680MOL0     H91775  11.875   1.565   7.337  3.7133 -2.7727 -0.5438
  680MOL0     H91776  12.043   1.528   7.498  0.3028  1.1749 -3.8532
  680MOL0     H91777  11.944   1.584   7.640  1.3832  1.9010  0.3924
  680MOL0     H91778  11.973   1.756   7.399 -0.4936 -2.1154 -0.0127
  680MOL0     H91779  11.906   1.797   7.559 -0.5424 -1.8127 -0.0516
  680MOL0     H91780  11.111   1.523   7.378 -0.4847 -0.2331  0.5939
  680MOL0     H91781  10.878   1.591   7.372  1.1814 -1.2168 -2.0220
  680MOL0     H91782  10.466   1.607   7.622  1.1376 -1.0809 -0.0903
  680MOL0     H91783  10.228   1.620   7.638  2.1521  1.7514 -0.2630
  680MOL0     H91784   9.000   0.923   8.616 -2.1763  0.3797 -2.4421
  680MOL0     H91785   8.877   0.896   8.830  0.0610  2.0186 -2.8910
  680MOL0     H91786   8.371   0.603   8.923  1.9319  0.1427 -1.2945
  680MOL0     H91787   8.223   0.626   9.139  1.2463 -3.4156  0.2565
  680MOL0     H91788   8.359   0.877   9.417 -1.5911 -0.6877  0.0121
  680MOL0     H91789   8.414   0.755   9.527 -0.4687 -2.5113 -0.2240
  680MOL0     H91790   8.228   0.866   9.626 -0.7377 -2.0057  1.5389
  680MOL0     H91791   8.181   0.703   9.590  0.3680 -0.0660 -0.7804
  680MOL0     H91792   8.035   0.790   9.409 -1.7378  0.3980  0.6005
  680MOL0     H91793   8.087   0.961   9.447  0.6802  0.8612  2.0174
  680MOL0     H91794   7.991   0.935   9.672  1.5852 -0.3652  0.0932
  680MOL0     H91795   7.874   0.910   9.536  0.5807 -0.7652 -1.6994
  680MOL0     H91796   7.905   0.525   9.727 -0.5454  0.2155  1.0645
  680MOL0     H91797   8.561   0.750   9.352 -0.4367  0.6338 -0.3024
  680MOL0     H91798   8.770   0.796   9.264 -1.6370 -1.3169  1.1738
  680MOL0     H91799   8.812   0.668   9.157  0.2461 -0.4363  1.0741
  680MOL0     H91800   8.767   0.833   9.088 -0.8201 -0.1667 -0.2361
  681MOL0     O91801   8.740   8.018   7.242  0.3003  0.1999  0.1913
  681MOL0     C91802   8.624   8.053   7.220 -0.0261  0.2643  0.1191
  681MOL0     O91803   8.559   8.024   7.102  0.2272  0.0348  0.2895
  681MOL0     C91804   8.636   7.993   6.999  0.9386  0.4861  0.6454
  681MOL0     C91805   8.726   8.083   6.939  0.8371 -1.0472 -0.6137
  681MOL0     C91806   8.808   8.045   6.838  0.2335 -0.1375  0.0084
  681MOL0     C91807   8.801   7.915   6.786  0.1505  0.3985 -0.1735
  681MOL0     O91808   8.879   7.869   6.684  0.0271  0.3560 -0.1763
  681MOL0     C91809   9.006   7.926   6.655 -0.3711  0.2912 -0.1790
  681MOL0     C91810   9.092   7.858   6.545  0.0801  0.2961  0.3991
  681MOL0     C91811   9.025   7.872   6.405  0.1302  0.2956  0.0972
  681MOL0     C91812   9.030   7.743   6.322 -0.4518 -0.0499 -1.2991
  681MOL0     C91813   8.992   7.782   6.178 -0.0766 -0.2558  0.1665
  681MOL0     C91814   8.997   7.658   6.082  0.9457  0.2602 -0.1619
  681MOL0     C91815   9.119   7.575   6.077 -0.2746 -0.0570  0.0654
  681MOL0     C91816   9.103   7.439   6.006 -1.0876  0.1810  0.5959
  681MOL0     N91817   9.227   7.388   5.943  0.1013 -0.6957 -0.2588
  681MOL0     C91818   9.347   7.400   6.001 -0.3372  0.3139 -0.8510
  681MOL0     C91819   9.424   7.394   5.892 -0.5777  0.7057 -0.6268
  681MOL0     C91820   9.573   7.429   5.907  0.4604 -0.2176  0.3182
  681MOL0     C91821   9.667   7.303   5.888  0.7086  0.4053 -1.4679
  681MOL0     C91822   9.815   7.342   5.899  0.6679 -0.1509 -0.6578
  681MOL0     C91823   9.860   7.416   5.769  0.3120  0.5444  0.2567
  681MOL0     O91824   9.907   7.328   5.663  0.1523 -0.5414 -0.2870
  681MOL0     C91825  10.035   7.281   5.677  0.5428  0.0466  1.1247
  681MOL0     C91826  10.124   7.307   5.782  0.0972  0.5463 -0.0916
  681MOL0     C91827  10.260   7.263   5.769 -0.4339  0.5576 -0.4280
  681MOL0     C91828  10.303   7.181   5.657 -0.8646 -0.0379 -0.2433
  681MOL0     C91829  10.450   7.171   5.642 -0.2129  0.0217 -0.5257
  681MOL0     O91830  10.522   7.271   5.702  0.1848  0.3411  0.2934
  681MOL0     C91831  10.655   7.246   5.697 -0.8716 -0.1313 -0.8659
  681MOL0     C91832  10.714   7.219   5.818  0.0544  0.5919 -0.2836
  681MOL0     C91833  10.852   7.208   5.830 -0.3630  0.5538  0.1880
  681MOL0     C91834  10.932   7.224   5.714 -0.0234  0.1300  0.0236
  681MOL0     O91835  11.070   7.212   5.730 -0.1047  0.3373  0.0351
  681MOL0     C91836  11.163   7.214   5.614  0.3742  0.8800  0.5060
  681MOL0     C91837  11.301   7.173   5.657 -0.5941  0.0650 -0.7875
  681MOL0     C91838  11.404   7.203   5.550 -0.3936  0.3216  0.0883
  681MOL0     C91839  11.528   7.118   5.583 -0.6134 -0.4338 -0.0764
  681MOL0     C91840  11.642   7.138   5.486 -0.3722  0.1631  0.3242
  681MOL0     C91841  11.754   7.035   5.503  0.0028 -0.0127  0.3380
  681MOL0     C91842  11.838   7.033   5.376  0.7213  0.5117 -0.3139
  681MOL0     C91843  11.947   6.922   5.384  0.2723 -0.0571 -0.0204
  681MOL0    Cl91844  12.057   6.946   5.243 -0.3046 -0.0228  0.1807
  681MOL0     C91845  10.869   7.245   5.588 -0.4679  0.1788  0.3606
  681MOL0     C91846  10.731   7.256   5.578  0.4827 -0.3240 -0.0293
  681MOL0     O91847  10.503   7.084   5.565 -0.1206  0.4802  0.3305
  681MOL0     C91848  10.210   7.143   5.555  0.4758 -1.1469  0.5594
  681MOL0     C91849  10.075   7.195   5.564  0.0554 -0.1743  1.2746
  681MOL0     N91850   9.359   7.351   5.783 -0.6836  0.0036  0.6302
  681MOL0     N91851   9.239   7.359   5.809  0.4038  0.1449  0.0513
  681MOL0     C91852   8.709   7.821   6.841  0.3574  0.0108  0.0818
  681MOL0     C91853   8.626   7.860   6.943  0.1557 -0.6252 -0.1550
  681MOL0     C91854   8.539   8.112   7.327 -0.0854 -0.7662 -0.2854
  681MOL0     C91855   8.407   8.148   7.297 -0.7490 -0.2663 -0.1921
  681MOL0     C91856   8.314   8.198   7.394 -0.4551  0.0165  1.0052
  681MOL0     C91857   8.358   8.207   7.526  0.0238 -0.6438 -0.1329
  681MOL0     O91858   8.271   8.256   7.634 -0.4187  0.6831  0.5433
  681MOL0     C91859   8.148   8.314   7.602  0.2029 -0.0271 -0.2501
  681MOL0     C91860   8.071   8.332   7.737 -0.1598 -0.1939  0.1860
  681MOL0     C91861   7.948   8.426   7.733  0.0062  0.3705 -0.0668
  681MOL0     C91862   7.875   8.441   7.864  1.2226  0.1918 -0.3065
  681MOL0     C91863   7.965   8.464   7.977  0.0167  0.0863  0.1948
  681MOL0     C91864   8.048   8.491   8.065  0.0099 -0.1715  0.4845
  681MOL0     C91865   8.485   8.162   7.559  0.6928  0.3771  0.1792
  681MOL0     C91866   8.581   8.130   7.462 -0.3657  1.2814 -0.1665
  681MOL0     C91867   8.727   8.102   7.507 -0.9158 -0.5614  0.4065
  681MOL0     H91868   8.729   8.185   6.974 -1.2657  0.1371 -3.5512
  681MOL0     H91869   8.883   8.118   6.809  1.4049 -0.8649  1.0652
  681MOL0     H91870   8.972   8.022   6.617 -0.5138  0.9586  1.5580
  681MOL0     H91871   9.065   7.938   6.747 -2.5291  0.7700  1.2206
  681MOL0     H91872   9.108   7.752   6.569  1.3831  0.5303  0.6285
  681MOL0     H91873   9.186   7.914   6.543 -0.1954  0.7674  0.6221
  681MOL0     H91874   9.080   7.954   6.357  1.3068 -0.6101 -0.1517
  681MOL0     H91875   8.918   7.891   6.421  0.5232  3.7053 -0.5660
  681MOL0     H91876   9.133   7.707   6.329 -0.3839  0.4090  2.9787
  681MOL0     H91877   8.964   7.664   6.358  0.2963 -1.1553 -2.3053
  681MOL0     H91878   8.886   7.808   6.175 -0.7423 -2.7453 -1.9947
  681MOL0     H91879   9.056   7.862   6.141  0.7225  0.1065  2.2074
  681MOL0     H91880   8.917   7.596   6.122 -1.6292  1.8721 -2.4859
  681MOL0     H91881   8.971   7.690   5.981 -0.1625 -2.2565 -0.7401
  681MOL0     H91882   9.146   7.554   6.181 -0.0423 -0.5322 -0.0904
  681MOL0     H91883   9.192   7.623   6.011 -0.5368 -3.1301 -2.7604
  681MOL0     H91884   9.073   7.364   6.079  1.0427 -0.5694  0.7651
  681MOL0     H91885   9.031   7.435   5.923  0.9312 -0.6557 -1.2217
  681MOL0     H91886   9.363   7.430   6.104  1.0885 -0.5323 -0.8014
  681MOL0     H91887   9.588   7.503   5.828 -0.9341  0.7129  0.8794
  681MOL0     H91888   9.588   7.475   6.005 -2.0423 -0.2809  0.8065
  681MOL0     H91889   9.645   7.237   5.972  1.8721  0.0543 -1.4163
  681MOL0     H91890   9.652   7.249   5.794 -3.7180 -0.2990 -0.5600
  681MOL0     H91891   9.867   7.247   5.917 -2.3884 -2.1093 -1.4050
  681MOL0     H91892   9.812   7.407   5.987 -1.5214  1.0511 -1.5497
  681MOL0     H91893   9.939   7.488   5.792  0.1451  0.8256 -0.0391
  681MOL0     H91894   9.779   7.480   5.734 -0.1405 -0.5197 -0.7324
  681MOL0     H91895  10.089   7.370   5.863 -1.4274  0.7817 -0.8972
  681MOL0     H91896  10.332   7.289   5.846  0.6217  1.2203 -1.5958
  681MOL0     H91897  10.654   7.215   5.908  0.5735  1.7820  0.1386
  681MOL0     H91898  10.898   7.183   5.924  2.4657 -3.2788 -1.9469
  681MOL0     H91899  11.130   7.153   5.529  0.7153  1.5001 -0.0866
  681MOL0     H91900  11.160   7.316   5.574  0.5526  0.4281 -0.7266
  681MOL0     H91901  11.321   7.224   5.752 -0.2001 -0.4662 -0.5743
  681MOL0     H91902  11.294   7.066   5.679 -0.9180 -0.1192 -1.7599
  681MOL0     H91903  11.353   7.165   5.461 -2.6503 -1.0955  1.8437
  681MOL0     H91904  11.421   7.310   5.538  0.9098  0.2351  0.9911
  681MOL0     H91905  11.512   7.010   5.595  2.6321 -0.7788  2.6647
  681MOL0     H91906  11.555   7.142   5.686  2.0692  2.3063 -1.2584
  681MOL0     H91907  11.689   7.237   5.498  3.8950 -1.6040 -0.0535
  681MOL0     H91908  11.607   7.135   5.383 -0.9958 -1.0174  0.5502
  681MOL0     H91909  11.824   7.069   5.580  1.2191 -1.0499 -0.2812
  681MOL0     H91910  11.711   6.940   5.535  0.0157  0.2053  1.0232
  681MOL0     H91911  11.885   7.131   5.363 -2.1108  1.7930 -2.0621
  681MOL0     H91912  11.770   7.026   5.290 -0.0720 -0.2180  0.3449
  681MOL0     H91913  11.993   6.921   5.483 -0.0202 -1.5907  0.1236
  681MOL0     H91914  11.906   6.823   5.364  0.1712 -0.1732  0.7454
  681MOL0     H91915  10.920   7.238   5.493  1.7317 -0.0482  1.4841
  681MOL0     H91916  10.694   7.258   5.476 -1.2120 -0.5732  0.5375
  681MOL0     H91917  10.241   7.082   5.471  0.2479 -0.5631  0.0484
  681MOL0     H91918  10.009   7.175   5.481 -0.3903  0.6698  1.4134
  681MOL0     H91919   8.699   7.723   6.794  0.4337  0.2605 -0.4630
  681MOL0     H91920   8.555   7.786   6.976  1.7015 -2.3717 -0.5708
  681MOL0     H91921   8.364   8.138   7.197  0.7580  0.7252 -0.9792
  681MOL0     H91922   8.214   8.221   7.360 -0.1247 -0.7195 -0.5686
  681MOL0     H91923   8.089   8.256   7.529 -0.0305  0.4766 -0.4668
  681MOL0     H91924   8.172   8.413   7.564  1.2752 -0.9733 -2.1988
  681MOL0     H91925   8.136   8.361   7.820 -0.6296  1.5756 -0.0360
  681MOL0     H91926   8.038   8.230   7.761  0.2035 -0.3060  0.2104
  681MOL0     H91927   7.874   8.388   7.661  0.5472  0.7150 -0.8215
  681MOL0     H91928   7.981   8.524   7.696  2.6689 -0.3733  0.1195
  681MOL0     H91929   7.807   8.526   7.855 -1.1876 -1.4267  1.5471
  681MOL0     H91930   7.814   8.357   7.895  0.7894  1.1792  1.6666
  681MOL0     H91931   8.125   8.502   8.138 -0.1510  3.1500  0.2859
  681MOL0     H91932   8.513   8.160   7.664 -1.2571 -2.5904  0.7752
  681MOL0     H91933   8.733   8.128   7.613 -1.5035 -1.9468  0.8057
  681MOL0     H91934   8.750   7.996   7.502  0.5761 -0.2158 -0.8087
  681MOL0     H91935   8.804   8.158   7.453 -0.7582 -1.9659 -0.8984
  682MOL0     O91936   8.101   4.115   4.481  0.2128  0.0548 -0.1244
  682MOL0     C91937   8.050   4.017   4.534 -0.0959 -0.0299 -0.4942
  682MOL0     O91938   8.130   3.911   4.579 -0.3420  0.0231 -0.0607
  682MOL0     C91939   8.247   3.880   4.513  0.0294 -0.0763  0.4217
  682MOL0     C91940   8.368   3.882   4.588  0.5540  0.4968 -0.1225
  682MOL0     C91941   8.489   3.846   4.525  0.8692 -0.6444 -0.1206
  682MOL0     C91942   8.493   3.799   4.394 -0.5454 -0.4221  0.4643
  682MOL0     O91943   8.606   3.774   4.316  0.0061  0.9719 -0.3992
  682MOL0     C91944   8.645   3.889   4.252 -0.9200 -0.1559 -0.2564
  682MOL0     C91945   8.759   3.863   4.159  0.0742  0.5161  0.0535
  682MOL0     C91946   8.896   3.844   4.234 -0.5927  0.2810 -0.4021
  682MOL0     C91947   9.014   3.794   4.139  0.3681  0.3754 -0.1886
  682MOL0     C91948   9.146   3.772   4.209 -0.1483 -0.5741 -0.3920
  682MOL0     C91949   9.202   3.903   4.268  0.2516  0.4037  0.2662
  682MOL0     C91950   9.352   3.906   4.303 -0.1154 -0.0579  0.3667
  682MOL0     C91951   9.369   4.026   4.398 -1.1534 -0.0633  0.2389
  682MOL0     N91952   9.499   4.029   4.455  0.0815  0.4292 -0.3093
  682MOL0     C91953   9.592   4.117   4.420 -0.5700 -0.3832  0.4304
  682MOL0     C91954   9.700   4.090   4.503  0.5420  0.3933  0.2182
  682MOL0     C91955   9.830   4.153   4.524 -0.4776  0.0456  0.4797
  682MOL0     C91956   9.933   4.115   4.413 -0.0018 -0.0258  0.1446
  682MOL0     C91957  10.060   4.200   4.435 -0.4054 -0.5156  0.3626
  682MOL0     C91958  10.176   4.187   4.323  0.0159 -0.4213 -0.6659
  682MOL0     O91959  10.212   4.055   4.292  0.2231  0.4642  0.3943
  682MOL0     C91960  10.322   4.020   4.224  0.1658  0.2887  0.3879
  682MOL0     C91961  10.338   3.893   4.162 -0.4010 -0.7134 -0.3573
  682MOL0     C91962  10.451   3.861   4.079 -0.7882  0.8719 -0.9164
  682MOL0     C91963  10.554   3.955   4.062 -0.1256 -0.0139  0.2037
  682MOL0     C91964  10.665   3.915   3.983  0.0978 -0.6798  0.2782
  682MOL0     O91965  10.737   4.017   3.927  0.4981  0.1701 -0.1199
  682MOL0     C91966  10.854   4.002   3.869 -0.8523  0.5476  0.0008
  682MOL0     C91967  10.870   3.924   3.754 -0.1755 -0.3965 -0.6163
  682MOL0     C91968  10.994   3.901   3.691  1.0588 -0.4915 -0.2302
  682MOL0     C91969  11.107   3.967   3.742  0.4429 -0.1364 -0.1436
  682MOL0     O91970  11.220   3.952   3.662 -0.5498  0.8693  0.0599
  682MOL0     C91971  11.345   4.002   3.713 -0.0013 -0.2785  0.1654
  682MOL0     C91972  11.451   3.923   3.629 -0.5119 -0.2734 -0.9092
  682MOL0     C91973  11.466   3.786   3.684 -0.2996 -0.5373  0.0727
  682MOL0     C91974  11.616   3.734   3.654  0.4910 -1.1420  0.4490
  682MOL0     C91975  11.637   3.589   3.708  0.4888 -0.0811  0.8184
  682MOL0     C91976  11.780   3.563   3.760 -0.0839  0.3565  0.1620
  682MOL0     C91977  11.830   3.417   3.779 -0.7354 -0.0798  0.1457
  682MOL0     C91978  11.968   3.439   3.855 -0.3308  0.2836 -0.6487
  682MOL0    Cl91979  12.100   3.508   3.749  0.0328 -0.2185 -0.0733
  682MOL0     C91980  11.095   4.029   3.868 -0.1952  0.7679  0.6565
  682MOL0     C91981  10.968   4.055   3.928  0.4012  0.1612 -0.0966
  682MOL0     O91982  10.693   3.799   3.971  0.1539 -0.5542 -0.1073
  682MOL0     C91983  10.542   4.075   4.133  0.3366  0.6878 -0.3815
  682MOL0     C91984  10.424   4.112   4.200 -0.2154  0.0190 -0.8625
  682MOL0     N91985   9.660   3.996   4.594  0.6465 -0.0963 -0.3036
  682MOL0     N91986   9.538   3.970   4.570  0.1887  0.2590 -0.2372
  682MOL0     C91987   8.373   3.789   4.329 -0.1212  0.1024 -1.4895
  682MOL0     C91988   8.253   3.831   4.385 -0.5642  0.3613  0.0022
  682MOL0     C91989   7.906   4.020   4.567 -0.1880  0.0682  0.3225
  682MOL0     C91990   7.855   3.932   4.669  0.2470  0.6169 -0.6630
  682MOL0     C91991   7.725   3.942   4.710  0.0374 -0.0654 -0.6272
  682MOL0     C91992   7.633   4.030   4.661  0.6634 -0.0175 -0.9547
  682MOL0     O91993   7.509   4.026   4.724  0.2951 -0.3382  0.4230
  682MOL0     C91994   7.439   4.153   4.736 -0.6203 -0.1483  0.0213
  682MOL0     C91995   7.313   4.147   4.656  0.2406 -0.0524  0.1829
  682MOL0     C91996   7.207   4.242   4.701 -0.2393  1.1152  0.1599
  682MOL0     C91997   7.083   4.201   4.611  0.2018  0.0169  0.7317
  682MOL0     C91998   7.089   4.243   4.468  0.2928 -0.4270  0.2594
  682MOL0     C91999   7.100   4.260   4.347 -0.2111 -0.5166  0.4452
  682MOL0     C92000   7.673   4.113   4.554  0.1027  0.0302  0.3483
  682MOL0     C92001   7.811   4.105   4.505  0.4756  0.1451 -0.8350
  682MOL0     C92002   7.834   4.185   4.381 -0.0268 -0.4155 -0.4372
  682MOL0     H92003   8.357   3.911   4.692 -0.1337 -1.4517  0.4013
  682MOL0     H92004   8.577   3.870   4.584 -2.3037  1.7199  4.3030
  682MOL0     H92005   8.562   3.940   4.201 -1.0014  1.7287  1.6224
  682MOL0     H92006   8.694   3.958   4.321  2.2508 -0.5233 -1.9752
  682MOL0     H92007   8.767   3.958   4.106  4.0190 -0.2520 -1.0719
  682MOL0     H92008   8.730   3.778   4.096 -1.9995  0.1284  1.4344
  682MOL0     H92009   8.883   3.771   4.314  0.6224  1.2662  0.7498
  682MOL0     H92010   8.923   3.942   4.274 -0.3438  0.8038 -1.7850
  682MOL0     H92011   8.984   3.702   4.087  1.2132 -2.3880  3.6883
  682MOL0     H92012   9.032   3.870   4.063  2.0382  0.5740  0.3585
  682MOL0     H92013   9.145   3.697   4.288 -2.0759  1.3000  1.4998
  682MOL0     H92014   9.214   3.730   4.135 -1.0466 -1.7830 -0.5604
  682MOL0     H92015   9.179   3.981   4.195 -0.5671 -0.2091 -0.1380
  682MOL0     H92016   9.140   3.940   4.350 -1.1329  1.3718 -1.1535
  682MOL0     H92017   9.410   3.918   4.211  0.4703 -0.6624  0.6405
  682MOL0     H92018   9.380   3.813   4.355  1.4603  0.4103  0.4180
  682MOL0     H92019   9.362   4.112   4.330  0.5145  0.0319  0.1585
  682MOL0     H92020   9.298   4.022   4.481 -1.4333 -0.4942 -0.0171
  682MOL0     H92021   9.581   4.201   4.352  0.6808 -1.2839 -0.9357
  682MOL0     H92022   9.828   4.262   4.521  0.4438  0.0667  0.1457
  682MOL0     H92023   9.871   4.130   4.623 -0.0778 -0.5983  0.1708
  682MOL0     H92024   9.946   4.007   4.425  1.2945  0.1194  0.1656
  682MOL0     H92025   9.879   4.140   4.321 -0.0170  1.8011  0.6178
  682MOL0     H92026  10.115   4.181   4.528  0.5756 -0.0521 -0.1056
  682MOL0     H92027  10.030   4.306   4.433 -3.1597 -1.1950  1.0357
  682MOL0     H92028  10.251   4.241   4.382 -2.0602  1.7530  0.1142
  682MOL0     H92029  10.146   4.249   4.237 -0.7485 -0.5709 -0.5133
  682MOL0     H92030  10.262   3.816   4.159 -1.7497  0.3710  2.5519
  682MOL0     H92031  10.459   3.769   4.022 -1.2263  0.1725  0.1083
  682MOL0     H92032  10.781   3.874   3.717 -1.3406  1.4433 -0.4366
  682MOL0     H92033  10.992   3.836   3.604  1.0908 -1.7694  0.7024
  682MOL0     H92034  11.360   4.110   3.696  2.6195 -0.4527  0.9580
  682MOL0     H92035  11.364   3.982   3.819 -1.0873  0.0879  0.4460
  682MOL0     H92036  11.426   3.925   3.523  2.1022 -1.5125 -1.6126
  682MOL0     H92037  11.546   3.976   3.642  1.8569 -4.5492  1.2842
  682MOL0     H92038  11.460   3.780   3.793  2.0419 -0.6234  0.2601
  682MOL0     H92039  11.397   3.715   3.637  0.8126 -1.9228  0.4533
  682MOL0     H92040  11.673   3.800   3.719 -0.0511 -0.0361 -0.1660
  682MOL0     H92041  11.645   3.743   3.549 -1.3473 -3.6980 -0.3785
  682MOL0     H92042  11.617   3.524   3.622 -0.8510  3.5498 -1.8816
  682MOL0     H92043  11.573   3.566   3.794  0.9061  1.4834  1.5867
  682MOL0     H92044  11.844   3.616   3.688 -0.3612  0.2491 -0.1670
  682MOL0     H92045  11.787   3.626   3.849 -3.4347  2.7889 -1.0625
  682MOL0     H92046  11.867   3.354   3.697 -1.8236 -0.2748 -0.2046
  682MOL0     H92047  11.755   3.358   3.832 -2.7451  1.4979 -0.8104
  682MOL0     H92048  11.958   3.490   3.951  0.3507  0.1819 -0.5244
  682MOL0     H92049  11.998   3.337   3.883 -1.3511  0.0419 -0.3744
  682MOL0     H92050  11.180   4.062   3.927  0.9283 -2.2270  0.9201
  682MOL0     H92051  10.968   4.115   4.019  0.3271  0.0076  0.0060
  682MOL0     H92052  10.626   4.145   4.128 -0.7084  1.9404 -0.9918
  682MOL0     H92053  10.425   4.209   4.249  0.3544 -1.5344  2.4564
  682MOL0     H92054   8.375   3.752   4.227 -0.0401  1.1525 -1.8713
  682MOL0     H92055   8.155   3.837   4.339 -0.9411 -0.4112  0.6784
  682MOL0     H92056   7.912   3.849   4.709  1.2613  1.9004  0.6472
  682MOL0     H92057   7.690   3.875   4.789  0.0253 -0.9089 -1.3375
  682MOL0     H92058   7.502   4.239   4.711  1.3810 -1.7604 -0.7789
  682MOL0     H92059   7.420   4.160   4.843  2.7976 -0.1327  0.7416
  682MOL0     H92060   7.269   4.047   4.664 -0.9080  0.5414  1.7340
  682MOL0     H92061   7.341   4.159   4.550  2.0094  1.3929  0.7478
  682MOL0     H92062   7.233   4.347   4.687  2.2822  0.5105 -0.1488
  682MOL0     H92063   7.177   4.236   4.806 -4.4614  2.6095 -0.7703
  682MOL0     H92064   7.084   4.093   4.597  1.3057  0.0821  0.1513
  682MOL0     H92065   6.993   4.235   4.663  1.3827  1.7169  1.7608
  682MOL0     H92066   7.118   4.263   4.242  2.0200  0.7726  0.7855
  682MOL0     H92067   7.598   4.173   4.505 -0.9569 -3.2165 -2.3617
  682MOL0     H92068   7.923   4.246   4.399 -0.0162 -0.8722  1.1505
  682MOL0     H92069   7.865   4.124   4.295 -1.3967 -0.5330 -0.8688
  682MOL0     H92070   7.746   4.242   4.349  0.2039  2.6128  3.6147
  683MOL0     O92071   8.708  10.535   2.930  0.5110 -0.2130  0.6384
  683MOL0     C92072   8.629  10.485   2.842 -0.6309  0.7874 -0.6377
  683MOL0     O92073   8.673  10.411   2.735  0.7432  0.2001 -0.6007
  683MOL0     C92074   8.795  10.355   2.738  0.1976  0.1827  0.2355
  683MOL0     C92075   8.797  10.240   2.819  0.1722  0.4291  0.8428
  683MOL0     C92076   8.911  10.165   2.827  0.3702 -0.0773  0.4677
  683MOL0     C92077   9.022  10.206   2.759 -0.3800  0.6714  0.7373
  683MOL0     O92078   9.137  10.136   2.757 -0.0980 -0.0988  0.2629
  683MOL0     C92079   9.184  10.071   2.881  0.2979 -0.1615  0.4003
  683MOL0     C92080   9.242  10.170   2.984 -0.6512 -0.7504 -0.4369
  683MOL0     C92081   9.155  10.267   3.055  0.6095  0.4096 -0.0958
  683MOL0     C92082   9.247  10.356   3.141  0.1998  0.7733 -0.1139
  683MOL0     C92083   9.165  10.452   3.230 -0.8379  0.6593 -0.1525
  683MOL0     C92084   9.090  10.560   3.156  0.0252 -0.1026  0.6006
  683MOL0     C92085   9.018  10.659   3.245 -0.6678  0.3640  0.2721
  683MOL0     C92086   8.879  10.691   3.188 -1.1320 -0.1138 -0.2742
  683MOL0     N92087   8.822  10.810   3.260  0.1676  0.9041 -1.0430
  683MOL0     C92088   8.825  10.942   3.216 -0.0827 -0.6615 -0.2783
  683MOL0     C92089   8.726  11.001   3.292  0.1817  0.4036  0.2998
  683MOL0     C92090   8.678  11.139   3.265 -0.2521  0.8161 -0.6348
  683MOL0     C92091   8.531  11.152   3.220  0.2189  0.1511  0.2710
  683MOL0     C92092   8.446  11.170   3.347  0.2006 -0.3960 -0.6823
  683MOL0     C92093   8.307  11.207   3.304  1.3226 -0.7638 -0.0154
  683MOL0     O92094   8.237  11.268   3.413  0.5361 -0.2458  0.5742
  683MOL0     C92095   8.121  11.334   3.365 -0.6635  0.4040 -0.4000
  683MOL0     C92096   8.048  11.309   3.250 -0.3619 -0.2143  0.4603
  683MOL0     C92097   7.946  11.397   3.219 -1.0304 -0.0356 -1.0715
  683MOL0     C92098   7.909  11.501   3.309  0.7891  0.9468  0.2920
  683MOL0     C92099   7.793  11.583   3.274 -0.3881  0.8897  0.0870
  683MOL0     O92100   7.750  11.687   3.356  0.2762  0.3241  0.6461
  683MOL0     C92101   7.627  11.741   3.325  0.8078  0.2133 -0.2792
  683MOL0     C92102   7.510  11.706   3.396 -0.2454 -0.2009 -0.9976
  683MOL0     C92103   7.376  11.756   3.373 -0.6548 -0.0224  0.2887
  683MOL0     C92104   7.369  11.861   3.275  0.5586 -0.2204 -0.2639
  683MOL0     O92105   7.252  11.931   3.237 -0.1396  0.1311 -0.3158
  683MOL0     C92106   7.135  11.887   3.309 -0.4830 -0.5165 -0.4444
  683MOL0     C92107   6.998  11.949   3.254  0.3252 -0.3567 -0.5008
  683MOL0     C92108   6.875  11.880   3.315 -0.6021 -0.2817 -0.3331
  683MOL0     C92109   6.867  11.720   3.312 -0.5729 -0.6739  0.2348
  683MOL0     C92110   6.727  11.675   3.272 -0.2249 -0.6143 -0.7019
  683MOL0     C92111   6.729  11.524   3.282  1.0459  0.4613  0.0514
  683MOL0     C92112   6.610  11.460   3.216  0.0107 -0.3085  0.1393
  683MOL0     C92113   6.611  11.305   3.216  0.3102 -0.0450  0.0148
  683MOL0    Cl92114   6.495  11.241   3.087  0.2531 -0.2277 -0.0404
  683MOL0     C92115   7.483  11.898   3.206  0.7073 -0.2632 -0.0925
  683MOL0     C92116   7.609  11.833   3.220  0.1911 -0.8034  0.2645
  683MOL0     O92117   7.739  11.556   3.162 -0.1437 -0.2239 -0.2078
  683MOL0     C92118   7.976  11.510   3.428 -1.0698  0.3330 -0.4063
  683MOL0     C92119   8.089  11.435   3.464  1.1154  0.5581 -0.0776
  683MOL0     N92120   8.675  10.911   3.380  0.4595 -0.6845  0.1804
  683MOL0     N92121   8.729  10.798   3.357 -0.0990 -0.7908 -0.2206
  683MOL0     C92122   9.022  10.328   2.690  0.2027 -0.4409 -0.5304
  683MOL0     C92123   8.907  10.410   2.686  0.3543  0.1659  0.1116
  683MOL0     C92124   8.484  10.528   2.848  0.4839 -0.5240  0.0671
  683MOL0     C92125   8.401  10.481   2.747 -0.6791 -0.1778 -0.7240
  683MOL0     C92126   8.261  10.493   2.748 -0.3138 -0.0468 -0.0412
  683MOL0     C92127   8.204  10.566   2.853 -1.3372  0.8154  0.5303
  683MOL0     O92128   8.072  10.600   2.854  0.8341 -0.1986 -0.3227
  683MOL0     C92129   7.987  10.496   2.807  0.4683  0.3237 -0.0071
  683MOL0     C92130   7.870  10.478   2.900  0.3909 -0.0466 -0.8822
  683MOL0     C92131   7.742  10.563   2.873 -0.5473  0.2275 -0.5586
  683MOL0     C92132   7.634  10.531   2.974  0.6333  0.4839 -0.5022
  683MOL0     C92133   7.665  10.597   3.096 -0.1186  0.3570 -1.0164
  683MOL0     C92134   7.684  10.662   3.196 -0.0726  0.8015 -0.1416
  683MOL0     C92135   8.287  10.627   2.953  0.0808 -0.4873  0.6369
  683MOL0     C92136   8.430  10.610   2.951  0.5557  0.8146  0.2772
  683MOL0     C92137   8.504  10.671   3.064  0.7777  0.3462  0.1259
  683MOL0     H92138   8.702  10.207   2.861 -0.1801 -0.7342 -0.7439
  683MOL0     H92139   8.899  10.083   2.897 -1.1365 -2.1390 -2.0357
  683MOL0     H92140   9.109  10.010   2.933  1.6716  0.5827  3.5337
  683MOL0     H92141   9.265  10.006   2.845  0.2840  1.4880 -2.9370
  683MOL0     H92142   9.322  10.227   2.934 -2.3724  2.4763  0.1857
  683MOL0     H92143   9.281  10.099   3.057  1.9497 -0.1815 -1.1696
  683MOL0     H92144   9.073  10.220   3.111 -1.5407  2.1837 -1.5881
  683MOL0     H92145   9.107  10.336   2.985 -0.7454 -0.0207  0.3632
  683MOL0     H92146   9.307  10.294   3.207  1.3242  0.8007 -1.0821
  683MOL0     H92147   9.324  10.400   3.078 -0.0192  2.0817  0.4812
  683MOL0     H92148   9.099  10.403   3.302  1.2942 -0.2231  1.3066
  683MOL0     H92149   9.250  10.496   3.283  2.3126 -2.4849 -2.1102
  683MOL0     H92150   9.161  10.617   3.095 -2.5138  0.1825 -2.3247
  683MOL0     H92151   9.024  10.526   3.075 -0.7363  1.6993  0.4156
  683MOL0     H92152   9.070  10.754   3.258  3.7315 -1.8761  0.9252
  683MOL0     H92153   8.997  10.617   3.344 -0.9552 -0.4771 -0.1363
  683MOL0     H92154   8.883  10.736   3.088 -2.9967  2.0232  0.5191
  683MOL0     H92155   8.812  10.605   3.191 -0.2947 -0.7387  1.5201
  683MOL0     H92156   8.872  10.980   3.126 -0.7437  1.1579  0.1062
  683MOL0     H92157   8.692  11.201   3.354 -1.0542  1.4211 -0.9225
  683MOL0     H92158   8.738  11.179   3.182 -1.6535  1.4232 -1.3820
  683MOL0     H92159   8.508  11.238   3.157  0.4274 -0.8793 -1.2668
  683MOL0     H92160   8.492  11.069   3.159  0.2340  2.4802 -3.1854
  683MOL0     H92161   8.485  11.247   3.414 -0.2770  1.0446 -2.0025
  683MOL0     H92162   8.443  11.075   3.402  1.6582 -0.2410 -0.2921
  683MOL0     H92163   8.249  11.121   3.267 -1.9385  0.1258  2.5094
  683MOL0     H92164   8.319  11.277   3.221  0.7485  2.5594  2.5083
  683MOL0     H92165   8.069  11.231   3.178  2.6555  0.3033  0.6495
  683MOL0     H92166   7.893  11.383   3.126 -0.8243 -0.3314 -1.1446
  683MOL0     H92167   7.527  11.634   3.476  0.7825  1.3833  0.2647
  683MOL0     H92168   7.292  11.719   3.431  1.6026 -2.8592  1.9997
  683MOL0     H92169   7.117  11.779   3.302  0.9709 -0.9034  1.0897
  683MOL0     H92170   7.153  11.910   3.415  3.0712  0.6810 -1.1700
  683MOL0     H92171   6.995  12.054   3.285 -1.0859 -0.8578  1.2126
  683MOL0     H92172   6.986  11.937   3.146 -2.8789 -0.7287 -0.2233
  683MOL0     H92173   6.868  11.915   3.418 -1.0272  3.9552 -1.6298
  683MOL0     H92174   6.794  11.922   3.254  2.1844  0.7618 -3.6428
  683MOL0     H92175   6.893  11.677   3.409  0.5053 -1.9724 -0.5930
  683MOL0     H92176   6.937  11.687   3.235 -1.1381 -1.3442  0.0017
  683MOL0     H92177   6.706  11.709   3.170 -0.4308 -0.1824 -0.5172
  683MOL0     H92178   6.647  11.716   3.334 -1.0064 -1.1993 -1.2988
  683MOL0     H92179   6.825  11.488   3.243  2.7829  0.8739  3.4885
  683MOL0     H92180   6.725  11.503   3.390  0.0977  1.2920  0.1829
  683MOL0     H92181   6.607  11.494   3.112 -1.0562 -0.4248  0.1198
  683MOL0     H92182   6.518  11.493   3.265 -0.2179 -0.7516  0.0066
  683MOL0     H92183   6.711  11.265   3.198  0.4954  1.0513 -1.7287
  683MOL0     H92184   6.580  11.275   3.316 -1.3885 -0.6332 -0.6448
  683MOL0     H92185   7.477  11.988   3.145  0.1563 -1.1448 -1.3897
  683MOL0     H92186   7.697  11.871   3.169 -1.3267  1.6087 -0.7530
  683MOL0     H92187   7.950  11.581   3.505  4.4836  2.2814  0.1070
  683MOL0     H92188   8.146  11.457   3.553  0.7451 -1.9179  0.8593
  683MOL0     H92189   9.111  10.355   2.633  1.6563 -0.3579  1.6763
  683MOL0     H92190   8.900  10.504   2.631 -4.2543  0.1143  0.2388
  683MOL0     H92191   8.444  10.414   2.674 -0.0739 -1.8228  1.0597
  683MOL0     H92192   8.205  10.448   2.666  0.9044 -1.6654 -0.0365
  683MOL0     H92193   8.036  10.400   2.824  0.7077  0.2434 -1.0733
  683MOL0     H92194   7.961  10.504   2.701 -0.4186  1.2202  0.2593
  683MOL0     H92195   7.903  10.509   3.000  2.7062 -2.0076 -0.9378
  683MOL0     H92196   7.843  10.372   2.901 -2.0615  0.4826  1.6969
  683MOL0     H92197   7.708  10.541   2.772  0.6180  3.0786 -1.6598
  683MOL0     H92198   7.756  10.672   2.878 -1.1683  0.3801 -1.9581
  683MOL0     H92199   7.544  10.571   2.928  1.6053  1.9167 -1.2436
  683MOL0     H92200   7.628  10.422   2.977  1.5947  0.3622 -1.9154
  683MOL0     H92201   7.690  10.723   3.284  0.6990  2.4987 -1.3130
  683MOL0     H92202   8.242  10.691   3.027 -0.8807 -1.8460  1.2714
  683MOL0     H92203   8.445  10.744   3.118  0.1155  2.1607 -2.8000
  683MOL0     H92204   8.550  10.597   3.130 -0.1710  0.4327  0.8928
  683MOL0     H92205   8.581  10.735   3.019  1.5761 -2.1346 -2.4230
  684MOL0     O92206  10.487   4.892   3.771  0.4115  0.1236  0.2783
  684MOL0     C92207  10.494   4.998   3.826  0.0930  0.4793  0.3965
  684MOL0     O92208  10.605   5.078   3.835  0.4360 -0.0552  0.0533
  684MOL0     C92209  10.734   5.024   3.830  0.5846  0.1012  0.6803
  684MOL0     C92210  10.836   5.112   3.822 -0.6203 -0.2469  0.0412
  684MOL0     C92211  10.973   5.078   3.791 -0.2442 -0.3849  0.4453
  684MOL0     C92212  11.010   4.942   3.802  0.5803  0.6489 -0.0070
  684MOL0     O92213  11.141   4.914   3.774  0.0548 -0.5563 -0.1851
  684MOL0     C92214  11.173   4.780   3.767  0.2366  0.3927  0.0383
  684MOL0     C92215  11.322   4.773   3.726  0.6774 -0.2878  0.4729
  684MOL0     C92216  11.360   4.852   3.599  0.1510  0.4358  0.0231
  684MOL0     C92217  11.489   4.789   3.537 -0.3161 -0.2123 -1.0329
  684MOL0     C92218  11.503   4.855   3.398 -0.8686  0.4032 -0.1241
  684MOL0     C92219  11.640   4.827   3.331 -0.7503 -0.5883  0.6849
  684MOL0     C92220  11.666   4.687   3.316 -0.3029 -0.0446 -0.4018
  684MOL0     C92221  11.787   4.654   3.225 -0.2355 -0.8897 -0.5395
  684MOL0     N92222  11.916   4.641   3.282 -0.3712  0.4907  0.2393
  684MOL0     C92223  11.944   4.579   3.400 -0.1055  0.5063 -0.3132
  684MOL0     C92224  12.079   4.578   3.405 -0.1384  0.1190  0.3604
  684MOL0     C92225  12.167   4.521   3.515  0.5315 -0.5303  0.7420
  684MOL0     C92226  12.154   4.371   3.552 -0.2646  0.3827  1.2328
  684MOL0     C92227  12.253   4.323   3.666  0.5186  0.0553 -0.1288
  684MOL0     C92228  12.397   4.358   3.632 -0.1030 -0.3168 -0.9729
  684MOL0     O92229  12.479   4.316   3.742  0.2081 -0.2837 -0.3700
  684MOL0     C92230  12.605   4.365   3.755 -0.4026  0.4833  0.4972
  684MOL0     C92231  12.642   4.486   3.704  0.2153  0.3918  0.3810
  684MOL0     C92232  12.767   4.543   3.725 -0.2877 -0.0580  0.4640
  684MOL0     C92233  12.870   4.472   3.789 -1.0192  0.0120 -0.4525
  684MOL0     C92234  13.015   4.518   3.803  0.7015 -0.8322 -0.0103
  684MOL0     O92235  13.073   4.504   3.925 -0.6396 -0.7686 -0.3437
  684MOL0     C92236  13.207   4.516   3.922  0.6429  0.0355  0.2420
  684MOL0     C92237  13.290   4.404   3.903 -0.8459 -0.5772 -0.2545
  684MOL0     C92238  13.431   4.404   3.927  0.4624 -0.8524  0.3450
  684MOL0     C92239  13.485   4.523   3.973 -1.1198 -0.2178  0.3284
  684MOL0     O92240  13.620   4.535   3.990  0.7456 -0.0381 -0.3474
  684MOL0     C92241  13.686   4.625   3.900  0.0632  0.0099 -1.0038
  684MOL0     C92242  13.836   4.626   3.920  0.6583  0.1873  0.4573
  684MOL0     C92243  13.907   4.500   3.889  0.2969  0.5414 -0.0171
  684MOL0     C92244  14.045   4.507   3.954 -0.5197  0.6223 -0.2724
  684MOL0     C92245  14.145   4.427   3.876 -0.1002  0.4623  0.5514
  684MOL0     C92246  14.286   4.460   3.930 -0.0790 -0.1235 -0.5300
  684MOL0     C92247  14.366   4.335   3.916 -0.4143  0.6060  0.6840
  684MOL0     C92248  14.456   4.311   4.035 -0.4710 -0.1090  0.4428
  684MOL0    Cl92249  14.538   4.141   4.035 -0.2322 -0.3981 -0.3428
  684MOL0     C92250  13.406   4.633   3.994 -0.1298  0.0226 -0.9805
  684MOL0     C92251  13.268   4.621   3.976 -0.0394 -0.6933 -0.1125
  684MOL0     O92252  13.066   4.568   3.704 -0.7041 -0.5858 -0.5469
  684MOL0     C92253  12.831   4.352   3.854  0.1643  0.0234 -0.1540
  684MOL0     C92254  12.699   4.293   3.833  0.5349 -0.5853  0.6054
  684MOL0     N92255  12.139   4.645   3.296 -0.2718  0.4734 -0.1839
  684MOL0     N92256  12.038   4.669   3.221  0.2878 -0.4546  0.4171
  684MOL0     C92257  10.903   4.849   3.827 -0.0820 -0.1075  0.0559
  684MOL0     C92258  10.770   4.893   3.841 -0.2263  0.0343  0.5265
  684MOL0     C92259  10.372   5.051   3.887  0.5984  0.0789 -0.6003
  684MOL0     C92260  10.260   5.080   3.805 -0.1662  0.6573  0.4153
  684MOL0     C92261  10.157   5.148   3.866 -0.0204 -0.0128 -0.0429
  684MOL0     C92262  10.154   5.187   4.002 -0.4753  0.6872 -0.1930
  684MOL0     O92263  10.045   5.250   4.061 -0.0959 -0.2200  0.4666
  684MOL0     C92264   9.949   5.150   4.109  0.1921 -0.1871 -0.0661
  684MOL0     C92265   9.812   5.214   4.136 -0.8803 -0.5118 -0.4855
  684MOL0     C92266   9.744   5.266   4.014  0.7365 -0.0749  0.0525
  684MOL0     C92267   9.619   5.348   4.043  0.5455  0.9603  0.2809
  684MOL0     C92268   9.529   5.265   4.137 -0.4102  0.1762 -0.1798
  684MOL0     C92269   9.460   5.210   4.220  0.1330  0.1555 -0.0128
  684MOL0     C92270  10.261   5.153   4.079 -0.0501 -0.5455 -0.6629
  684MOL0     C92271  10.371   5.093   4.025  0.0327  0.2262 -0.0082
  684MOL0     C92272  10.484   5.053   4.124 -0.7346  0.7686  0.2544
  684MOL0     H92273  10.821   5.218   3.806 -0.0049 -0.2389 -0.5054
  684MOL0     H92274  11.047   5.151   3.760 -0.9861 -0.3268 -1.2602
  684MOL0     H92275  11.151   4.726   3.860 -2.3489 -2.0061 -1.7832
  684MOL0     H92276  11.110   4.736   3.689  1.5589 -2.1801  0.2896
  684MOL0     H92277  11.337   4.666   3.708  1.7145 -0.0240 -0.3530
  684MOL0     H92278  11.381   4.801   3.813  1.4679  1.8297 -0.6683
  684MOL0     H92279  11.379   4.955   3.630 -1.0099  1.7152 -3.0916
  684MOL0     H92280  11.288   4.864   3.517 -0.0894  2.0594  0.4468
  684MOL0     H92281  11.574   4.815   3.600  0.0705  0.0705 -1.6571
  684MOL0     H92282  11.488   4.680   3.531 -0.1450 -0.1967 -1.3727
  684MOL0     H92283  11.428   4.818   3.327 -0.0239 -0.7520 -0.4458
  684MOL0     H92284  11.481   4.962   3.405 -1.8064  0.3790 -2.0396
  684MOL0     H92285  11.635   4.867   3.229 -1.9540  0.0542  0.9790
  684MOL0     H92286  11.720   4.883   3.381 -1.9736 -0.5232  2.6856
  684MOL0     H92287  11.581   4.637   3.269  0.2818 -2.2097  0.7423
  684MOL0     H92288  11.682   4.646   3.416 -3.3736  2.9959  1.5613
  684MOL0     H92289  11.745   4.576   3.162 -3.5556  1.1009 -1.0188
  684MOL0     H92290  11.798   4.732   3.149  0.2321 -0.7653 -0.3454
  684MOL0     H92291  11.879   4.553   3.483 -0.4114  0.6161 -0.5217
  684MOL0     H92292  12.265   4.539   3.471  0.3200 -2.2162 -0.5187
  684MOL0     H92293  12.154   4.572   3.611  1.0053 -0.2908  0.6809
  684MOL0     H92294  12.052   4.354   3.587 -0.5598  0.5913  0.5087
  684MOL0     H92295  12.168   4.314   3.460  0.5201  1.9864  0.3090
  684MOL0     H92296  12.241   4.215   3.660  2.6384 -0.1553 -2.1297
  684MOL0     H92297  12.222   4.372   3.759 -1.4483  1.6373 -1.5299
  684MOL0     H92298  12.404   4.467   3.628 -2.6738  0.2028  2.8688
  684MOL0     H92299  12.418   4.313   3.534  0.5816 -2.8322  0.2391
  684MOL0     H92300  12.577   4.553   3.649  0.4797 -0.0942 -0.5323
  684MOL0     H92301  12.790   4.639   3.680 -0.7856  0.3885  1.1456
  684MOL0     H92302  13.241   4.311   3.876 -1.8644 -0.3217  0.6372
  684MOL0     H92303  13.504   4.325   3.912  0.8919 -0.7094  1.5555
  684MOL0     H92304  13.671   4.603   3.794 -1.1623  0.0709 -0.8558
  684MOL0     H92305  13.652   4.728   3.916  1.6787  0.4919 -0.4906
  684MOL0     H92306  13.881   4.694   3.847  0.6722 -0.3044 -0.0002
  684MOL0     H92307  13.857   4.669   4.018 -0.2997  2.3673 -0.2331
  684MOL0     H92308  13.857   4.410   3.928  1.9407 -0.1931  0.4694
  684MOL0     H92309  13.923   4.481   3.782 -1.9010  1.6006 -0.6027
  684MOL0     H92310  14.048   4.473   4.058 -1.4475  2.2310  0.3248
  684MOL0     H92311  14.081   4.610   3.953  3.3599 -0.5830  0.3737
  684MOL0     H92312  14.143   4.453   3.769  0.1757  1.7808  0.8439
  684MOL0     H92313  14.119   4.321   3.874 -1.2206  0.7256 -0.6820
  684MOL0     H92314  14.329   4.545   3.877 -2.9529  1.0485 -1.2060
  684MOL0     H92315  14.281   4.488   4.035 -0.5460 -1.5888 -0.1365
  684MOL0     H92316  14.431   4.354   3.830 -1.3780  2.6115  0.3483
  684MOL0     H92317  14.314   4.240   3.901 -0.7170  0.5423  1.9870
  684MOL0     H92318  14.531   4.390   4.045 -1.4780  1.0874 -0.9309
  684MOL0     H92319  14.388   4.310   4.121 -0.0277 -0.5963  0.7873
  684MOL0     H92320  13.449   4.731   4.014  1.2761 -0.7819  0.1249
  684MOL0     H92321  13.201   4.705   3.994  0.7373  0.3620 -1.9181
  684MOL0     H92322  12.901   4.295   3.914 -0.5935 -0.0112  0.7300
  684MOL0     H92323  12.677   4.202   3.888  1.9618 -1.5690 -0.3801
  684MOL0     H92324  10.922   4.742   3.838  0.8044  0.0496  0.1437
  684MOL0     H92325  10.690   4.821   3.856 -2.3524  2.0980 -0.2951
  684MOL0     H92326  10.266   5.058   3.699 -2.6169 -2.0739  0.6807
  684MOL0     H92327  10.075   5.186   3.804  1.0938 -2.1911 -3.1016
  684MOL0     H92328   9.983   5.126   4.210 -0.3504 -2.7259 -0.4211
  684MOL0     H92329   9.948   5.063   4.043 -0.1241  0.6998 -1.2798
  684MOL0     H92330   9.840   5.299   4.198  0.9139  1.0012 -3.1372
  684MOL0     H92331   9.749   5.150   4.197 -2.5958  1.6708  0.1466
  684MOL0     H92332   9.738   5.187   3.938  0.1479  0.3561 -0.3606
  684MOL0     H92333   9.807   5.344   3.972  0.8693 -0.6737 -0.8931
  684MOL0     H92334   9.612   5.449   4.085 -0.6610  1.6629 -1.4818
  684MOL0     H92335   9.572   5.358   3.945  1.9723  0.3730 -0.5074
  684MOL0     H92336   9.396   5.154   4.285  0.4550  0.5279  0.6440
  684MOL0     H92337  10.250   5.157   4.187  2.1507 -2.0709 -0.3276
  684MOL0     H92338  10.575   5.105   4.092 -1.9130  2.3990 -0.6154
  684MOL0     H92339  10.458   5.078   4.227 -0.5603 -0.1168  0.5237
  684MOL0     H92340  10.496   4.944   4.117 -1.0788  0.7255  0.3478
  685MOL0     O92341   3.697   1.427   7.074 -0.0964  0.1352 -0.3905
  685MOL0     C92342   3.701   1.478   6.967 -0.1992  0.0808 -1.8569
  685MOL0     O92343   3.817   1.501   6.904 -0.3855 -0.0034  0.0085
  685MOL0     C92344   3.934   1.435   6.933 -0.7034 -0.3116  0.2270
  685MOL0     C92345   3.991   1.422   7.056  0.5769  0.0850 -0.0505
  685MOL0     C92346   4.113   1.352   7.074 -0.5153  0.5518 -0.7011
  685MOL0     C92347   4.166   1.285   6.962  1.1988 -0.3328  0.2355
  685MOL0     O92348   4.263   1.199   6.992 -0.3583  0.5029  0.1902
  685MOL0     C92349   4.370   1.205   6.896 -0.2736  0.3584  0.4753
  685MOL0     C92350   4.481   1.108   6.925  0.9701  0.0615 -0.2532
  685MOL0     C92351   4.537   1.135   7.061  0.1574 -0.7161  0.0280
  685MOL0     C92352   4.637   1.033   7.113 -0.0096  0.6287  0.3775
  685MOL0     C92353   4.766   1.048   7.041 -0.3121  0.0329  0.0072
  685MOL0     C92354   4.840   1.177   7.081 -0.2260 -0.1702 -0.3690
  685MOL0     C92355   4.981   1.168   7.024 -0.0701  0.0242  0.3305
  685MOL0     C92356   5.068   1.275   7.083 -0.8761  0.4847  0.1483
  685MOL0     N92357   5.215   1.268   7.023 -0.0584 -0.3916  0.0682
  685MOL0     C92358   5.321   1.342   7.071 -0.6048 -0.7060  0.4968
  685MOL0     C92359   5.432   1.297   7.000 -0.2420 -0.1546 -0.4090
  685MOL0     C92360   5.567   1.349   6.998  0.4574 -0.2572 -0.6303
  685MOL0     C92361   5.666   1.247   6.930 -0.1151  0.5970  0.2038
  685MOL0     C92362   5.697   1.134   7.025 -0.5919  1.1003  0.3479
  685MOL0     C92363   5.779   1.028   6.962  0.6135  0.4777 -0.3532
  685MOL0     O92364   5.809   0.933   7.069  0.0111  0.2004 -0.1934
  685MOL0     C92365   5.914   0.852   7.052  0.3541  0.8821  0.0259
  685MOL0     C92366   6.030   0.894   6.985  0.9744 -0.5445  0.2992
  685MOL0     C92367   6.142   0.809   6.993  0.5112 -0.3845  0.6398
  685MOL0     C92368   6.139   0.679   7.047 -0.6808 -0.0291 -0.0188
  685MOL0     C92369   6.255   0.588   7.037 -0.2207  0.0002 -0.3846
  685MOL0     O92370   6.387   0.639   7.042  0.3055 -0.1804  0.1997
  685MOL0     C92371   6.501   0.562   7.055 -0.8161 -0.1032  0.6612
  685MOL0     C92372   6.512   0.425   7.101  1.0454  0.1150  0.6608
  685MOL0     C92373   6.636   0.369   7.123  0.2696 -0.1927  0.3382
  685MOL0     C92374   6.761   0.443   7.103 -0.4084  0.2117  0.2753
  685MOL0     O92375   6.885   0.395   7.131  0.6681  0.0657 -0.0113
  685MOL0     C92376   6.894   0.252   7.138 -0.3815 -0.1189 -0.2025
  685MOL0     C92377   7.035   0.200   7.111  0.2758  0.5572 -1.0787
  685MOL0     C92378   7.129   0.223   7.230  0.3234 -0.3775 -0.1167
  685MOL0     C92379   7.259   0.184   7.175  0.0311  0.5543 -0.6898
  685MOL0     C92380   7.365   0.171   7.289 -1.0893 -0.3236  0.0576
  685MOL0     C92381   7.499   0.124   7.230 -0.2408 -0.5211 -0.0318
  685MOL0     C92382   7.618   0.127   7.329  0.0653 -0.6763 -1.0151
  685MOL0     C92383   7.735   0.029   7.301 -0.1066 -0.3451  0.9161
  685MOL0    Cl92384   7.772   0.057   7.124 -0.2375  0.0005  0.0963
  685MOL0     C92385   6.742   0.574   7.064 -0.2165  0.3173 -0.1607
  685MOL0     C92386   6.619   0.635   7.043 -0.2587  0.1551  0.7093
  685MOL0     O92387   6.225   0.466   7.024 -0.1395 -0.2844  0.7260
  685MOL0     C92388   6.015   0.637   7.101 -0.6830 -0.0163  0.6300
  685MOL0     C92389   5.906   0.726   7.109 -0.2863  0.1338  1.1823
  685MOL0     N92390   5.382   1.197   6.916 -0.3744  0.5030  0.6164
  685MOL0     N92391   5.257   1.176   6.937 -0.0971 -0.2320  0.2349
  685MOL0     C92392   4.104   1.298   6.833 -0.1220 -1.3333  0.4319
  685MOL0     C92393   3.994   1.384   6.819 -0.1986 -0.3178  1.3512
  685MOL0     C92394   3.577   1.505   6.886 -0.2601 -1.5461 -0.0425
  685MOL0     C92395   3.596   1.506   6.745  0.4878 -0.1454 -0.1007
  685MOL0     C92396   3.486   1.522   6.657  0.0596 -0.3520 -0.4106
  685MOL0     C92397   3.356   1.544   6.704 -0.6467 -0.4227 -0.7184
  685MOL0     O92398   3.257   1.549   6.612  0.6576 -0.3536 -0.1242
  685MOL0     C92399   3.134   1.608   6.650 -0.4200 -0.1070 -0.6159
  685MOL0     C92400   3.046   1.603   6.526 -0.0681  0.3358  0.0486
  685MOL0     C92401   2.894   1.618   6.539 -0.0925 -0.7075 -0.1869
  685MOL0     C92402   2.828   1.633   6.406  0.6573  0.0241 -0.4498
  685MOL0     C92403   2.845   1.499   6.338  0.1497  0.4134  0.9506
  685MOL0     C92404   2.855   1.382   6.298  0.8704 -0.0063 -0.4478
  685MOL0     C92405   3.341   1.555   6.844 -0.4750 -0.0570  0.4981
  685MOL0     C92406   3.450   1.550   6.930 -0.8244 -0.2358 -0.9206
  685MOL0     C92407   3.437   1.590   7.070  0.1846 -0.6969 -0.3715
  685MOL0     H92408   3.948   1.459   7.149 -1.2046  0.3792 -0.9511
  685MOL0     H92409   4.152   1.334   7.174 -2.4205  0.7467  0.1253
  685MOL0     H92410   4.328   1.168   6.802  0.3153 -2.3626  1.1862
  685MOL0     H92411   4.407   1.307   6.886 -2.4445  1.1658  0.2073
  685MOL0     H92412   4.558   1.118   6.848  2.3236 -1.1975  0.8975
  685MOL0     H92413   4.448   1.004   6.924  0.5697  0.1398  1.3932
  685MOL0     H92414   4.454   1.134   7.133 -2.1235 -3.0091 -2.4275
  685MOL0     H92415   4.574   1.238   7.055 -1.7733 -0.0490 -1.8719
  685MOL0     H92416   4.639   1.035   7.223 -1.4756  1.7533  0.4122
  685MOL0     H92417   4.596   0.936   7.083 -0.5780  0.5573  1.3375
  685MOL0     H92418   4.830   0.971   7.086  1.1188  2.4090  2.4162
  685MOL0     H92419   4.752   1.041   6.933 -4.8817 -2.3619  0.5184
  685MOL0     H92420   4.788   1.262   7.035 -0.6948 -0.2742 -0.0402
  685MOL0     H92421   4.837   1.200   7.188 -2.1198 -0.9055 -0.2275
  685MOL0     H92422   4.971   1.175   6.915 -1.8866 -1.6060  0.3353
  685MOL0     H92423   5.035   1.076   7.045  0.2857 -0.2627 -1.6188
  685MOL0     H92424   5.014   1.367   7.061  0.8621  1.3751 -0.6205
  685MOL0     H92425   5.073   1.277   7.192  2.0979  0.8428  0.0930
  685MOL0     H92426   5.313   1.419   7.147  0.9452 -1.4392  1.4322
  685MOL0     H92427   5.576   1.444   6.945  1.0070 -0.5486 -1.0641
  685MOL0     H92428   5.589   1.365   7.104 -0.0202  1.4421 -0.7649
  685MOL0     H92429   5.617   1.208   6.841 -0.9481 -0.5255  1.1116
  685MOL0     H92430   5.764   1.288   6.906  1.6422 -3.4007 -0.1875
  685MOL0     H92431   5.600   1.095   7.058 -0.5079  0.1655 -0.4643
  685MOL0     H92432   5.757   1.173   7.108 -0.0808  0.5258  0.2616
  685MOL0     H92433   5.873   1.074   6.931  1.4162 -1.5929 -1.1894
  685MOL0     H92434   5.724   0.987   6.877  0.7090  2.6439 -1.5333
  685MOL0     H92435   6.048   0.994   6.945  0.4311 -0.2237  0.8448
  685MOL0     H92436   6.236   0.847   6.955 -0.0746  1.6578  1.0924
  685MOL0     H92437   6.417   0.379   7.129  0.3390 -0.1130 -1.9109
  685MOL0     H92438   6.634   0.264   7.151  1.3345  0.1286  1.7518
  685MOL0     H92439   6.864   0.213   7.235 -0.7073  1.3777  0.3337
  685MOL0     H92440   6.834   0.203   7.060  1.2388  3.3415 -4.0307
  685MOL0     H92441   7.034   0.092   7.094  2.5956  0.7005 -2.5519
  685MOL0     H92442   7.084   0.234   7.019  2.7928 -3.1372 -1.2940
  685MOL0     H92443   7.129   0.329   7.257 -1.5547 -0.5807  0.8146
  685MOL0     H92444   7.116   0.171   7.325  2.1375  1.3731  1.1695
  685MOL0     H92445   7.296   0.254   7.099 -1.2637  1.7305 -0.2912
  685MOL0     H92446   7.256   0.085   7.130 -3.6767 -0.1311  0.6760
  685MOL0     H92447   7.333   0.089   7.355 -1.4202  0.7502  1.2719
  685MOL0     H92448   7.374   0.262   7.349  2.0063 -1.4699  1.5518
  685MOL0     H92449   7.482   0.023   7.192  0.9736 -1.4205  1.6650
  685MOL0     H92450   7.521   0.191   7.147 -0.0775 -1.3552 -0.6741
  685MOL0     H92451   7.580   0.118   7.431  0.5654 -0.0962 -0.7750
  685MOL0     H92452   7.667   0.224   7.331 -0.2087 -0.3564 -4.0464
  685MOL0     H92453   7.825   0.046   7.361  1.8607 -4.1929 -0.5749
  685MOL0     H92454   7.699  -0.074   7.308 -2.5533  0.4159  0.4282
  685MOL0     H92455   6.832   0.631   7.040  1.0811 -1.8098 -0.5991
  685MOL0     H92456   6.600   0.741   7.026  0.0655  0.0011 -0.8395
  685MOL0     H92457   5.996   0.535   7.133 -2.0226  0.1381  0.3918
  685MOL0     H92458   5.811   0.700   7.154 -1.4220  2.5793  0.3258
  685MOL0     H92459   4.149   1.243   6.751  1.2922 -1.2274  1.1018
  685MOL0     H92460   3.949   1.403   6.722  0.4615  1.8694  1.4417
  685MOL0     H92461   3.695   1.492   6.705 -0.1732 -0.4283 -1.6986
  685MOL0     H92462   3.508   1.492   6.555  0.1310 -2.0631  0.0866
  685MOL0     H92463   3.146   1.711   6.684 -0.8022 -0.3173  0.1757
  685MOL0     H92464   3.076   1.555   6.726  1.3040 -0.6696  0.3606
  685MOL0     H92465   3.074   1.516   6.465  0.1693 -0.2313  0.9418
  685MOL0     H92466   3.083   1.689   6.470 -1.8641  0.2861 -1.2816
  685MOL0     H92467   2.874   1.712   6.592  1.4823 -0.4611  0.0409
  685MOL0     H92468   2.861   1.534   6.600 -0.5095  0.7471  1.6977
  685MOL0     H92469   2.721   1.649   6.423  0.9071 -0.2124  1.5833
  685MOL0     H92470   2.867   1.713   6.343 -0.5825 -0.0973 -1.4250
  685MOL0     H92471   2.867   1.286   6.252  1.2059  0.3546 -1.1210
  685MOL0     H92472   3.241   1.571   6.882 -0.8582 -1.0102 -0.0569
  685MOL0     H92473   3.404   1.498   7.119 -1.5237 -0.9945 -1.9689
  685MOL0     H92474   3.526   1.643   7.105 -1.1142  0.1776  1.7434
  685MOL0     H92475   3.362   1.668   7.081  1.4354  0.5304 -0.3008
  686MOL0     O92476   4.555   4.235   7.056 -0.0739 -0.1767 -0.5666
  686MOL0     C92477   4.529   4.264   6.938 -0.3528 -0.3544  0.6549
  686MOL0     O92478   4.616   4.237   6.831  0.1763 -0.3886 -0.3137
  686MOL0     C92479   4.742   4.211   6.857 -0.2409  0.6346 -0.9481
  686MOL0     C92480   4.829   4.241   6.967 -0.2154 -0.5831  0.4906
  686MOL0     C92481   4.969   4.197   6.959 -0.2007 -0.5949 -0.0461
  686MOL0     C92482   5.026   4.135   6.852 -0.7540 -0.0298  0.7522
  686MOL0     O92483   5.158   4.099   6.835  0.1805  0.8656  0.0928
  686MOL0     C92484   5.225   4.066   6.957  0.2304 -0.4834  0.4639
  686MOL0     C92485   5.355   4.020   6.913 -1.0431  0.6149 -0.8430
  686MOL0     C92486   5.438   4.130   6.851  0.4663 -0.3594 -0.8078
  686MOL0     C92487   5.584   4.102   6.856 -0.2956  0.0051 -0.4343
  686MOL0     C92488   5.677   4.229   6.825 -0.1091  0.5350 -0.2252
  686MOL0     C92489   5.831   4.192   6.803 -0.6890 -0.1970  0.3627
  686MOL0     C92490   5.921   4.297   6.748 -0.3303 -0.1543 -0.3474
  686MOL0     C92491   5.882   4.330   6.605  0.2383 -0.3341  0.2080
  686MOL0     N92492   5.976   4.425   6.541 -0.0863  0.1477 -0.6719
  686MOL0     C92493   6.000   4.557   6.573 -0.7304  0.1607  0.4572
  686MOL0     C92494   6.109   4.585   6.500 -0.4807 -0.2916  0.0996
  686MOL0     C92495   6.168   4.719   6.484 -0.3707 -0.4432  0.7774
  686MOL0     C92496   6.318   4.713   6.466 -0.9166 -0.3753  0.2814
  686MOL0     C92497   6.387   4.838   6.506  0.9485  0.7651 -0.8125
  686MOL0     C92498   6.535   4.833   6.497 -0.3555 -0.2279  0.0409
  686MOL0     O92499   6.570   4.854   6.358  0.5930 -0.4340  0.2236
  686MOL0     C92500   6.696   4.866   6.314 -0.1321 -0.0247  0.4094
  686MOL0     C92501   6.720   4.920   6.186  0.0420  0.5868  0.0947
  686MOL0     C92502   6.848   4.954   6.148  0.4911 -0.0225  0.0148
  686MOL0     C92503   6.956   4.922   6.223  0.0702 -0.4538  0.2198
  686MOL0     C92504   7.104   4.935   6.184 -0.2321 -0.1827  0.4592
  686MOL0     O92505   7.197   4.909   6.287  0.3995 -0.0542  0.1049
  686MOL0     C92506   7.332   4.938   6.279 -0.1503  0.4931 -0.0446
  686MOL0     C92507   7.422   4.875   6.370  0.8679  0.2960  0.0922
  686MOL0     C92508   7.557   4.901   6.381  0.5014  0.0663 -0.8814
  686MOL0     C92509   7.608   4.991   6.298 -0.6698 -0.0385  0.6392
  686MOL0     O92510   7.743   5.012   6.301 -0.3264  0.0486  0.1689
  686MOL0     C92511   7.805   5.097   6.199  0.1215 -0.7362  0.5356
  686MOL0     C92512   7.958   5.072   6.203  0.5862 -0.3420  0.1471
  686MOL0     C92513   8.003   5.129   6.334  0.0201 -1.3805 -0.2830
  686MOL0     C92514   8.159   5.138   6.338  0.6943 -0.5423  0.0314
  686MOL0     C92515   8.214   5.016   6.419 -0.0155  0.2505 -0.0668
  686MOL0     C92516   8.371   5.038   6.433 -0.9553  1.0720 -0.6828
  686MOL0     C92517   8.422   4.953   6.556 -0.7224 -0.5617 -0.0265
  686MOL0     C92518   8.576   4.966   6.551 -0.1997  0.2684 -1.1951
  686MOL0    Cl92519   8.643   4.944   6.717 -0.1969 -0.4707  0.1946
  686MOL0     C92520   7.524   5.067   6.207 -0.4395  0.3138  0.4572
  686MOL0     C92521   7.388   5.037   6.202 -0.1022  0.5443  0.2892
  686MOL0     O92522   7.132   4.962   6.071  0.4117  0.7363 -0.0981
  686MOL0     C92523   6.936   4.848   6.344 -0.5547  0.5312  0.8125
  686MOL0     C92524   6.806   4.824   6.387 -0.3386  0.3302 -0.3458
  686MOL0     N92525   6.147   4.475   6.423  0.6599 -0.8309  0.3320
  686MOL0     N92526   6.064   4.379   6.446 -0.2324 -0.5558 -0.1135
  686MOL0     C92527   4.941   4.111   6.742  0.4930  0.4973 -0.0622
  686MOL0     C92528   4.806   4.147   6.743  0.2991 -0.6481 -0.0647
  686MOL0     C92529   4.406   4.329   6.911 -0.3849 -0.0636  0.1509
  686MOL0     C92530   4.369   4.351   6.771 -0.9033 -0.0186  0.4058
  686MOL0     C92531   4.249   4.411   6.737 -0.0874  0.2820 -0.4234
  686MOL0     C92532   4.155   4.439   6.835  0.6582  0.6174  0.1282
  686MOL0     O92533   4.036   4.504   6.785 -0.0117  0.3199 -0.2499
  686MOL0     C92534   3.911   4.452   6.844 -0.2379  0.3564 -0.4721
  686MOL0     C92535   3.860   4.313   6.781  0.0118 -0.0163 -0.1659
  686MOL0     C92536   3.833   4.350   6.633 -0.4255 -0.3572  0.3071
  686MOL0     C92537   3.751   4.230   6.573  0.2244 -0.3518 -0.7889
  686MOL0     C92538   3.615   4.251   6.608  0.4554  0.6039 -0.6592
  686MOL0     C92539   3.501   4.255   6.623  0.2924 -0.7369 -0.8668
  686MOL0     C92540   4.185   4.410   6.967  0.6117 -0.0364  0.5116
  686MOL0     C92541   4.310   4.369   7.014  0.2043 -0.1028  0.5260
  686MOL0     C92542   4.324   4.386   7.168 -0.8035  0.5699 -1.0683
  686MOL0     H92543   4.787   4.289   7.055 -1.0061 -1.8240  0.8142
  686MOL0     H92544   5.031   4.228   7.043 -0.7901 -0.2550  0.2680
  686MOL0     H92545   5.238   4.154   7.021 -0.0894  1.4253 -1.9879
  686MOL0     H92546   5.159   3.996   7.011 -2.7110 -0.3869 -2.6637
  686MOL0     H92547   5.356   3.929   6.852  0.3203  0.1205 -0.1103
  686MOL0     H92548   5.402   3.992   7.008  0.3511 -0.6546 -1.8680
  686MOL0     H92549   5.410   4.228   6.890 -0.2493 -0.9355  0.1711
  686MOL0     H92550   5.406   4.139   6.747 -3.0387  1.8057  0.2673
  686MOL0     H92551   5.615   4.069   6.956 -0.4513  0.0480 -0.3713
  686MOL0     H92552   5.622   4.020   6.796  0.3313 -0.6255  0.7742
  686MOL0     H92553   5.635   4.270   6.732 -0.9378 -1.8274 -0.9680
  686MOL0     H92554   5.669   4.306   6.903 -0.1279  2.0820 -1.6933
  686MOL0     H92555   5.873   4.149   6.895  0.3495 -1.0942 -0.5028
  686MOL0     H92556   5.837   4.114   6.727  0.6904  1.3643 -1.2038
  686MOL0     H92557   6.024   4.263   6.762 -0.3232  0.4961  1.6555
  686MOL0     H92558   5.902   4.389   6.806 -0.4689  1.1667 -2.4001
  686MOL0     H92559   5.888   4.241   6.542 -0.3004  1.5075 -2.5869
  686MOL0     H92560   5.781   4.372   6.601  0.9015  1.2446 -0.8208
  686MOL0     H92561   5.947   4.629   6.635  0.8818  2.2419 -0.4412
  686MOL0     H92562   6.125   4.770   6.397 -2.0777  1.9505  2.8774
  686MOL0     H92563   6.146   4.774   6.576 -2.7810  0.1105 -0.0501
  686MOL0     H92564   6.355   4.632   6.529 -0.3927 -0.5840 -0.2776
  686MOL0     H92565   6.348   4.677   6.367  0.6105 -3.2216  1.6634
  686MOL0     H92566   6.367   4.857   6.612 -1.0362 -1.0110 -0.7961
  686MOL0     H92567   6.334   4.916   6.450 -0.7594  0.7258  0.6640
  686MOL0     H92568   6.564   4.738   6.542  3.8052  0.4310 -0.8445
  686MOL0     H92569   6.592   4.900   6.561  2.4989 -0.0437 -2.4610
  686MOL0     H92570   6.639   4.944   6.118 -1.1709  1.2301  1.6961
  686MOL0     H92571   6.866   5.009   6.056 -1.4649 -1.0240 -1.0238
  686MOL0     H92572   7.380   4.785   6.412  0.9752  0.2440  0.0862
  686MOL0     H92573   7.614   4.839   6.449 -1.4406 -0.0030  0.7707
  686MOL0     H92574   7.770   5.084   6.096  3.5622 -1.0034 -0.7291
  686MOL0     H92575   7.796   5.205   6.216  4.7349 -0.1430  0.3772
  686MOL0     H92576   7.980   4.966   6.193  0.8706 -0.1082 -2.5445
  686MOL0     H92577   8.018   5.114   6.122 -0.9623  2.5456  0.3543
  686MOL0     H92578   7.960   5.226   6.359  0.6323 -1.4919  1.3301
  686MOL0     H92579   7.972   5.066   6.418 -0.4132 -0.6484  0.1201
  686MOL0     H92580   8.191   5.221   6.401  0.0337  1.2649 -1.8707
  686MOL0     H92581   8.205   5.146   6.239  2.2512 -2.5835  0.5119
  686MOL0     H92582   8.195   4.917   6.376 -1.0082  0.5467 -0.3195
  686MOL0     H92583   8.178   5.019   6.522  3.1832 -0.4221  1.2051
  686MOL0     H92584   8.420   5.007   6.341 -0.7535  2.2169 -0.9806
  686MOL0     H92585   8.381   5.147   6.440 -1.6412  1.0518  1.6819
  686MOL0     H92586   8.394   4.847   6.551  4.0441 -2.0630 -4.2024
  686MOL0     H92587   8.392   4.999   6.650  0.1637 -0.3771  0.1771
  686MOL0     H92588   8.616   4.893   6.480 -0.0909  0.3634 -1.2309
  686MOL0     H92589   8.606   5.065   6.517  0.8553  1.0128  1.5938
  686MOL0     H92590   7.562   5.146   6.143  1.0763 -0.6954  0.0591
  686MOL0     H92591   7.325   5.091   6.132  1.2028  1.4752 -0.1998
  686MOL0     H92592   7.026   4.812   6.393  1.7871  0.7309 -2.9973
  686MOL0     H92593   6.794   4.776   6.484  0.3996  0.8475  0.0198
  686MOL0     H92594   4.975   4.052   6.658 -2.7758 -0.4581 -0.8755
  686MOL0     H92595   4.738   4.132   6.660  0.4959 -0.6144 -0.2338
  686MOL0     H92596   4.438   4.330   6.690 -0.5505 -1.4014  1.0237
  686MOL0     H92597   4.215   4.440   6.638 -3.4777  1.7630  1.0154
  686MOL0     H92598   3.827   4.520   6.828 -0.5792  0.5286  1.7682
  686MOL0     H92599   3.920   4.446   6.953  0.5785 -0.1737 -0.5628
  686MOL0     H92600   3.773   4.268   6.829  0.9102 -0.8230  0.7589
  686MOL0     H92601   3.944   4.243   6.789 -0.4276 -0.4758  0.5607
  686MOL0     H92602   3.929   4.361   6.581 -0.0463  0.2764  1.1144
  686MOL0     H92603   3.779   4.445   6.626 -0.7197 -0.4264  1.4777
  686MOL0     H92604   3.745   4.224   6.464  0.4145 -1.3607 -0.7513
  686MOL0     H92605   3.799   4.143   6.619 -1.1374 -1.1870 -0.9079
  686MOL0     H92606   3.399   4.271   6.651  0.6998  0.5626 -0.0346
  686MOL0     H92607   4.110   4.437   7.041  0.4563  1.3146 -0.1202
  686MOL0     H92608   4.389   4.470   7.194  0.4801 -0.6406 -0.2411
  686MOL0     H92609   4.232   4.401   7.225  1.5733  2.3829  2.6505
  686MOL0     H92610   4.370   4.292   7.200 -5.4485 -0.6661  3.1774
  687MOL0     O92611   8.513   4.767   3.784  0.5403  1.1385  0.1892
  687MOL0     C92612   8.458   4.837   3.862 -0.0247 -0.2014  0.5986
  687MOL0     O92613   8.526   4.928   3.932 -0.1652  0.0949  0.0129
  687MOL0     C92614   8.650   4.897   3.983  0.0737 -0.1655 -0.9855
  687MOL0     C92615   8.710   5.002   4.049 -0.4919 -0.6275 -0.3180
  687MOL0     C92616   8.823   4.977   4.132  0.0403 -1.0461  0.5898
  687MOL0     C92617   8.876   4.845   4.139  0.4535  0.1431 -0.6331
  687MOL0     O92618   8.990   4.809   4.206 -0.0877 -0.3187  0.2135
  687MOL0     C92619   9.011   4.857   4.342 -0.1543  0.9321 -0.3819
  687MOL0     C92620   9.153   4.908   4.364  0.4843  0.2037  0.0224
  687MOL0     C92621   9.257   4.808   4.333  0.2233 -0.3026  0.3174
  687MOL0     C92622   9.294   4.795   4.183  0.8428 -0.9416  0.0805
  687MOL0     C92623   9.377   4.669   4.153 -0.7264  0.1239  0.4338
  687MOL0     C92624   9.509   4.667   4.218  0.1456  0.1082  0.3429
  687MOL0     C92625   9.595   4.559   4.153 -0.2858  0.4226  0.3371
  687MOL0     C92626   9.725   4.528   4.234 -0.7297 -0.0207 -0.3320
  687MOL0     N92627   9.830   4.633   4.233 -0.5816 -0.3179  0.0209
  687MOL0     C92628   9.946   4.637   4.152 -1.0305  0.2651  1.1242
  687MOL0     C92629   9.996   4.767   4.170  0.3255  0.1885  0.2287
  687MOL0     C92630  10.111   4.823   4.097  0.1471 -0.1419  0.2546
  687MOL0     C92631  10.241   4.742   4.093 -0.1048  0.0137 -0.1009
  687MOL0     C92632  10.267   4.645   4.208  0.3719 -0.1636  0.2861
  687MOL0     C92633  10.407   4.589   4.211 -1.5590 -0.2944 -0.6857
  687MOL0     O92634  10.514   4.676   4.170  0.3060  0.4122 -0.0811
  687MOL0     C92635  10.639   4.631   4.159  0.4808  0.4942 -0.6056
  687MOL0     C92636  10.669   4.485   4.140  0.3130 -0.1506 -0.8161
  687MOL0     C92637  10.803   4.442   4.108 -0.3835 -0.0414 -0.7522
  687MOL0     C92638  10.907   4.543   4.092  0.4834  0.1114  0.5283
  687MOL0     C92639  11.054   4.502   4.063  0.7712  0.1781  0.0347
  687MOL0     O92640  11.086   4.372   4.032  0.6767  0.5797  0.0433
  687MOL0     C92641  11.210   4.345   3.999  0.7060  0.5722  0.1327
  687MOL0     C92642  11.261   4.385   3.872  0.1237 -0.2428 -0.2484
  687MOL0     C92643  11.396   4.354   3.830  0.1763  0.1424 -0.6173
  687MOL0     C92644  11.472   4.274   3.925 -0.2754  1.0701  0.4379
  687MOL0     O92645  11.599   4.246   3.889  1.1711  0.7773  0.3235
  687MOL0     C92646  11.667   4.131   3.928 -0.4827 -0.4994 -0.9406
  687MOL0     C92647  11.784   4.109   3.833  0.2964  0.2776 -0.1543
  687MOL0     C92648  11.891   4.020   3.876  0.3821  0.0369  0.2588
  687MOL0     C92649  11.990   3.981   3.760 -0.2526 -0.3548  0.6331
  687MOL0     C92650  12.109   3.892   3.801  0.6031 -0.5868 -0.2298
  687MOL0     C92651  12.236   3.982   3.848 -0.4690  1.1101  0.6886
  687MOL0     C92652  12.350   3.881   3.890 -0.5126 -0.2776  0.2901
  687MOL0     C92653  12.483   3.949   3.925  1.1857 -0.3283 -0.4793
  687MOL0    Cl92654  12.474   4.092   4.027  0.3233  0.3512  0.0604
  687MOL0     C92655  11.419   4.242   4.054 -0.0457  0.5881 -0.4086
  687MOL0     C92656  11.289   4.280   4.089 -0.6714 -0.0541 -0.2877
  687MOL0     O92657  11.135   4.592   4.061  0.2520 -0.7380 -0.0450
  687MOL0     C92658  10.871   4.680   4.113  0.0020 -0.3531 -0.2990
  687MOL0     C92659  10.741   4.720   4.148 -0.3622  0.2763  0.1161
  687MOL0     N92660   9.930   4.825   4.275  0.0258  0.3678  0.1739
  687MOL0     N92661   9.828   4.751   4.300  0.1589  0.2194 -1.0557
  687MOL0     C92662   8.816   4.747   4.064  0.3116  0.3565 -0.3029
  687MOL0     C92663   8.706   4.771   3.991 -0.3889  0.0911  0.6821
  687MOL0     C92664   8.305   4.844   3.877 -0.3029 -0.6246 -1.0792
  687MOL0     C92665   8.253   4.909   3.988 -0.1489 -0.1533 -0.7050
  687MOL0     C92666   8.119   4.938   3.995  0.3104 -0.4819  0.7354
  687MOL0     C92667   8.024   4.891   3.892 -0.1054 -0.0528  0.2276
  687MOL0     O92668   7.889   4.917   3.904  0.5318 -0.2455  0.1854
  687MOL0     C92669   7.802   4.923   3.789 -0.6295 -0.6007  0.1727
  687MOL0     C92670   7.732   4.781   3.779  1.4214  0.0252  0.1136
  687MOL0     C92671   7.610   4.745   3.875 -0.9771  0.0398  0.1668
  687MOL0     C92672   7.484   4.772   3.789 -0.2385  0.7666  0.3702
  687MOL0     C92673   7.460   4.915   3.783  0.5677 -0.8891 -0.2702
  687MOL0     C92674   7.432   5.035   3.777 -0.2767  0.8302  0.1280
  687MOL0     C92675   8.076   4.821   3.788  0.4934 -0.3680 -0.1567
  687MOL0     C92676   8.215   4.790   3.786  0.7121 -0.3198 -0.4707
  687MOL0     C92677   8.260   4.716   3.664  0.2955  0.1885 -1.0084
  687MOL0     H92678   8.665   5.100   4.046 -0.7373 -0.7547 -0.8567
  687MOL0     H92679   8.873   5.056   4.187  0.1204 -2.0337  1.9682
  687MOL0     H92680   8.939   4.934   4.369  1.5805  3.6123 -2.7974
  687MOL0     H92681   8.994   4.773   4.411  0.7249  1.9360  1.1128
  687MOL0     H92682   9.176   4.940   4.467 -2.6557 -1.0552  1.2277
  687MOL0     H92683   9.160   4.995   4.298 -0.0662 -1.5659 -2.4911
  687MOL0     H92684   9.218   4.711   4.363  0.5646  0.0128  1.8659
  687MOL0     H92685   9.348   4.833   4.388  0.2855 -1.1472  0.6135
  687MOL0     H92686   9.223   4.793   4.101  3.0154 -0.6519 -1.9175
  687MOL0     H92687   9.348   4.885   4.153 -0.8431 -1.3305 -4.9077
  687MOL0     H92688   9.318   4.578   4.172 -2.0859  0.6982 -0.8501
  687MOL0     H92689   9.396   4.657   4.046 -2.3139 -2.4183  0.3569
  687MOL0     H92690   9.559   4.762   4.194  0.4768 -0.7849 -2.9753
  687MOL0     H92691   9.498   4.651   4.326  3.3746  0.2590  0.8211
  687MOL0     H92692   9.628   4.599   4.057  0.2980 -1.9097 -0.5053
  687MOL0     H92693   9.551   4.460   4.137 -0.2739  0.3488  0.7440
  687MOL0     H92694   9.694   4.507   4.337 -0.1172 -2.2590 -0.5517
  687MOL0     H92695   9.768   4.437   4.192  1.0078 -0.4738  2.2217
  687MOL0     H92696   9.993   4.564   4.087 -1.2213 -0.0056  1.2917
  687MOL0     H92697  10.088   4.842   3.992  1.4136 -3.4354 -0.7444
  687MOL0     H92698  10.133   4.921   4.142 -3.7557  0.8101  0.4680
  687MOL0     H92699  10.246   4.689   3.997 -1.2175 -0.1712 -0.0635
  687MOL0     H92700  10.322   4.816   4.091  0.9675 -1.1195 -0.1650
  687MOL0     H92701  10.199   4.560   4.205 -0.3903  0.3084 -4.2839
  687MOL0     H92702  10.260   4.703   4.300 -0.2137 -1.1454  0.8703
  687MOL0     H92703  10.390   4.506   4.142  0.0021  0.2213 -1.7691
  687MOL0     H92704  10.435   4.546   4.308  0.0971 -3.9769 -2.5791
  687MOL0     H92705  10.593   4.409   4.127 -0.4513  0.4265  0.1405
  687MOL0     H92706  10.815   4.334   4.099  2.5582 -0.0131  1.2910
  687MOL0     H92707  11.196   4.450   3.814  0.9116  1.6897  0.9054
  687MOL0     H92708  11.446   4.386   3.739  4.0328 -0.5811  1.0646
  687MOL0     H92709  11.703   4.157   4.028 -2.1077 -0.2758 -0.3997
  687MOL0     H92710  11.604   4.041   3.929 -1.2922  0.0670 -0.3729
  687MOL0     H92711  11.752   4.088   3.731  0.7471 -0.5167 -0.1424
  687MOL0     H92712  11.835   4.203   3.808 -0.5403  0.1104 -2.7465
  687MOL0     H92713  11.952   4.072   3.951 -1.9402 -0.4268  2.6404
  687MOL0     H92714  11.852   3.931   3.926 -1.2390  1.0023  0.7965
  687MOL0     H92715  12.033   4.067   3.708  1.7579 -0.1753  2.4716
  687MOL0     H92716  11.926   3.922   3.695 -0.6848 -2.5078  2.8513
  687MOL0     H92717  12.133   3.835   3.711 -0.3571  0.7931 -1.4094
  687MOL0     H92718  12.066   3.818   3.868 -1.2650 -1.3612 -2.1726
  687MOL0     H92719  12.269   4.035   3.759  0.1256  0.0959  0.2951
  687MOL0     H92720  12.212   4.058   3.923  0.5887  0.8177  1.3553
  687MOL0     H92721  12.376   3.810   3.810  0.8700  1.1801 -0.6056
  687MOL0     H92722  12.308   3.833   3.979  0.5731 -1.1743  0.3523
  687MOL0     H92723  12.547   3.875   3.973 -0.3490  0.0179  2.3553
  687MOL0     H92724  12.531   3.983   3.833  0.5613 -0.7051 -0.9604
  687MOL0     H92725  11.490   4.191   4.119 -0.2732 -0.2717 -0.8122
  687MOL0     H92726  11.255   4.268   4.191  0.9381  1.8858  0.5529
  687MOL0     H92727  10.947   4.757   4.109  0.3191 -0.6429  0.0648
  687MOL0     H92728  10.710   4.824   4.155  1.0027  0.7360 -0.2688
  687MOL0     H92729   8.868   4.652   4.056 -0.3005  0.0439 -0.6948
  687MOL0     H92730   8.668   4.686   3.935 -0.2027 -1.6085  2.9664
  687MOL0     H92731   8.312   4.940   4.073 -1.2655 -1.3838  0.5667
  687MOL0     H92732   8.081   5.000   4.075  0.0382  0.6758 -0.2722
  687MOL0     H92733   7.843   4.944   3.690 -0.9928  0.8749  0.3227
  687MOL0     H92734   7.732   5.006   3.795 -0.1461 -0.2824  2.1553
  687MOL0     H92735   7.804   4.702   3.801  3.3517  1.7064  0.0558
  687MOL0     H92736   7.698   4.771   3.675 -0.4557  1.2752  0.5457
  687MOL0     H92737   7.609   4.812   3.962  3.3694  1.8738 -0.9161
  687MOL0     H92738   7.624   4.640   3.903  3.6093  0.7672  1.5856
  687MOL0     H92739   7.497   4.721   3.692 -2.1189  0.0265  0.4580
  687MOL0     H92740   7.403   4.724   3.843  0.5881 -1.0886  0.0429
  687MOL0     H92741   7.397   5.133   3.754  1.2936  1.7051  1.2243
  687MOL0     H92742   8.002   4.800   3.711  0.3020  0.3031 -0.1624
  687MOL0     H92743   8.181   4.677   3.599 -0.5750  1.6630 -0.8883
  687MOL0     H92744   8.306   4.794   3.604  1.2002  0.8363  0.4829
  687MOL0     H92745   8.326   4.630   3.680 -1.4690 -1.3712 -1.6310
  688MOL0     O92746   1.774  10.287   2.036  0.2597  0.3763  0.3769
  688MOL0     C92747   1.786  10.166   2.056  0.4847 -0.6420  0.5418
  688MOL0     O92748   1.910  10.107   2.084 -0.4408  0.0037  0.0140
  688MOL0     C92749   2.020  10.181   2.113 -0.3934 -0.3760  0.7069
  688MOL0     C92750   2.022  10.295   2.192  0.1466 -0.3761  0.3758
  688MOL0     C92751   2.147  10.359   2.232  1.2102 -0.5182  0.8738
  688MOL0     C92752   2.274  10.314   2.193 -0.1826 -0.4369  0.4656
  688MOL0     O92753   2.374  10.392   2.229 -0.6923 -0.2664 -0.4372
  688MOL0     C92754   2.502  10.356   2.170  1.5415  0.1140  0.2292
  688MOL0     C92755   2.620  10.422   2.253 -0.0589  0.9316  0.1217
  688MOL0     C92756   2.762  10.406   2.197 -0.4775  0.6624 -0.2995
  688MOL0     C92757   2.877  10.482   2.279  0.4450  0.5391  0.1745
  688MOL0     C92758   3.011  10.491   2.199 -0.0018 -0.1429  0.3318
  688MOL0     C92759   3.099  10.598   2.252  0.0893 -0.1972 -0.2217
  688MOL0     C92760   3.157  10.559   2.385  0.4709  0.7464 -0.0339
  688MOL0     C92761   3.268  10.655   2.438  0.6909 -0.6677  0.8708
  688MOL0     N92762   3.384  10.653   2.345 -0.8357 -0.0399  0.0101
  688MOL0     C92763   3.480  10.554   2.339  0.4913 -0.9733 -0.1915
  688MOL0     C92764   3.572  10.584   2.246  0.0693  0.3219  0.8145
  688MOL0     C92765   3.699  10.509   2.240 -0.6426  0.4177 -0.0879
  688MOL0     C92766   3.792  10.567   2.134 -0.6065 -0.3582 -0.3241
  688MOL0     C92767   3.919  10.475   2.105  0.3364 -0.1422 -0.3734
  688MOL0     C92768   4.007  10.555   2.019  0.7027 -0.7163  1.0463
  688MOL0     O92769   4.132  10.494   2.001  0.5409 -0.4962  0.0130
  688MOL0     C92770   4.217  10.551   1.908 -0.0614 -0.3605  0.5162
  688MOL0     C92771   4.346  10.499   1.909 -0.6284  0.9300  0.3114
  688MOL0     C92772   4.443  10.548   1.818  1.1644 -0.6523 -0.0683
  688MOL0     C92773   4.413  10.654   1.725  0.3130 -0.7995 -0.5185
  688MOL0     C92774   4.529  10.690   1.640  1.2583 -0.5995  0.4475
  688MOL0     O92775   4.632  10.612   1.646 -0.3672  0.3726 -0.6729
  688MOL0     C92776   4.749  10.634   1.581 -0.4867 -0.9897 -0.2500
  688MOL0     C92777   4.821  10.520   1.554  0.0813  0.6263  0.0127
  688MOL0     C92778   4.948  10.525   1.492  0.4490 -1.0302  0.6284
  688MOL0     C92779   5.015  10.649   1.476  0.6920  0.3723  0.1437
  688MOL0     O92780   5.142  10.649   1.427 -0.2847  0.1119 -0.4043
  688MOL0     C92781   5.252  10.697   1.508  0.4276  0.3678  0.6778
  688MOL0     C92782   5.335  10.792   1.435 -0.6668 -0.3082  0.3683
  688MOL0     C92783   5.484  10.787   1.474  0.2532 -0.3462  0.6341
  688MOL0     C92784   5.584  10.709   1.385  0.1242  0.8075  0.3460
  688MOL0     C92785   5.724  10.698   1.429 -0.5978 -0.0515 -0.7496
  688MOL0     C92786   5.795  10.601   1.344 -0.1789 -0.3196  0.8332
  688MOL0     C92787   5.949  10.601   1.373 -0.0172 -0.3002  0.1778
  688MOL0     C92788   6.015  10.500   1.284  0.7091  0.8929  0.0269
  688MOL0    Cl92789   5.959  10.322   1.287 -0.1347  0.1024  0.1753
  688MOL0     C92790   4.943  10.762   1.503 -0.6834 -0.4731 -0.0674
  688MOL0     C92791   4.807  10.758   1.546 -1.0521  0.9048  0.2012
  688MOL0     O92792   4.509  10.797   1.583 -0.7947  0.4441  0.5880
  688MOL0     C92793   4.278  10.709   1.719  0.2116  0.3081  1.1137
  688MOL0     C92794   4.177  10.656   1.812  0.4151  0.2286  0.4892
  688MOL0     N92795   3.524  10.696   2.186  0.6033 -1.0384  0.5888
  688MOL0     N92796   3.416  10.737   2.244 -0.0093 -0.3560  0.3548
  688MOL0     C92797   2.268  10.195   2.115 -0.3522  0.4628  0.5335
  688MOL0     C92798   2.144  10.128   2.087  0.2663 -0.2633 -0.3652
  688MOL0     C92799   1.677  10.066   2.013 -1.1931  0.4979 -0.2715
  688MOL0     C92800   1.723   9.942   1.956 -0.2345 -0.5013 -0.1394
  688MOL0     C92801   1.617   9.851   1.932 -0.4130 -0.8220  0.3844
  688MOL0     C92802   1.487   9.863   1.962  0.5275 -0.5571  0.5406
  688MOL0     O92803   1.404   9.754   1.934  0.0262  0.3165 -0.0113
  688MOL0     C92804   1.271   9.767   1.984 -0.2808  0.2413 -0.0217
  688MOL0     C92805   1.222   9.623   2.014 -0.6142  0.1738 -0.7410
  688MOL0     C92806   1.072   9.620   2.052  0.6538 -0.1083  0.3648
  688MOL0     C92807   1.052   9.490   2.125 -0.0570  0.0053 -1.3548
  688MOL0     C92808   0.915   9.460   2.169 -0.3849 -0.2754  0.7464
  688MOL0     C92809   0.812   9.436   2.217  0.0577  0.2806  0.0376
  688MOL0     C92810   1.444   9.992   2.006  0.0205  0.2713  0.1537
  688MOL0     C92811   1.542  10.096   2.026 -0.1839 -0.0228 -0.8825
  688MOL0     C92812   1.500  10.223   2.084 -0.4291 -0.0830  0.2119
  688MOL0     H92813   1.928  10.338   2.224  1.0635  0.0680  2.6274
  688MOL0     H92814   2.127  10.449   2.289 -0.1579 -0.8525  0.9639
  688MOL0     H92815   2.515  10.247   2.167 -0.8061 -0.2199  0.2769
  688MOL0     H92816   2.509  10.388   2.066  3.4201 -1.0309 -0.0428
  688MOL0     H92817   2.614  10.375   2.352 -2.4588 -3.0867 -1.6570
  688MOL0     H92818   2.607  10.528   2.273  0.8277  0.6068  2.9237
  688MOL0     H92819   2.772  10.453   2.099 -0.2092 -0.0808 -0.6325
  688MOL0     H92820   2.783  10.299   2.186  0.3303  0.6104  1.3976
  688MOL0     H92821   2.842  10.586   2.287  0.1794  0.5516 -0.9604
  688MOL0     H92822   2.884  10.445   2.382 -3.6822  0.5917  0.6506
  688MOL0     H92823   3.070  10.399   2.202  2.5312  1.3186 -0.9597
  688MOL0     H92824   2.990  10.512   2.094  1.3730 -1.1038 -0.1722
  688MOL0     H92825   3.176  10.605   2.174 -0.6547  1.5304 -0.8360
  688MOL0     H92826   3.053  10.696   2.247 -0.1675 -0.3786 -1.6814
  688MOL0     H92827   3.201  10.459   2.374  4.0823  2.3100 -1.0778
  688MOL0     H92828   3.079  10.558   2.461  0.7984 -0.5379  0.3177
  688MOL0     H92829   3.222  10.754   2.446 -4.3594 -2.6940  0.3794
  688MOL0     H92830   3.293  10.632   2.542 -1.3130 -0.7541  1.3739
  688MOL0     H92831   3.483  10.465   2.402  2.3027 -1.1333 -0.4453
  688MOL0     H92832   3.759  10.526   2.329 -2.2401  1.1873  0.8780
  688MOL0     H92833   3.680  10.402   2.229  1.0177  0.1052 -0.0926
  688MOL0     H92834   3.740  10.589   2.040  1.1772 -0.3319 -1.3550
  688MOL0     H92835   3.828  10.663   2.172  0.0510 -0.6368 -0.2383
  688MOL0     H92836   3.892  10.378   2.062 -0.3822 -0.1550  0.0770
  688MOL0     H92837   3.982  10.467   2.194  2.9922 -1.3353 -2.2330
  688MOL0     H92838   4.019  10.656   2.060  2.3266 -0.8672  1.0140
  688MOL0     H92839   3.961  10.567   1.921 -0.4809  0.5437  1.7167
  688MOL0     H92840   4.364  10.420   1.981 -0.7789 -0.9468 -1.5893
  688MOL0     H92841   4.538  10.495   1.811  0.8409 -1.2002 -0.4597
  688MOL0     H92842   4.780  10.421   1.571 -1.9682  1.5320  0.5646
  688MOL0     H92843   4.990  10.428   1.464 -3.4537 -2.2688 -1.7707
  688MOL0     H92844   5.209  10.746   1.596 -0.1635 -0.1883  0.7116
  688MOL0     H92845   5.302  10.604   1.537 -0.6503 -0.6757 -0.6471
  688MOL0     H92846   5.316  10.785   1.327 -0.7434 -0.1669  0.3723
  688MOL0     H92847   5.296  10.891   1.458  0.9358  0.9222 -1.8610
  688MOL0     H92848   5.521  10.889   1.481  0.5817 -0.4123 -0.0923
  688MOL0     H92849   5.497  10.749   1.576 -0.0804 -0.8049  0.5092
  688MOL0     H92850   5.581  10.757   1.287 -2.1506  1.4419  0.6657
  688MOL0     H92851   5.537  10.612   1.369  0.6644  0.8261 -1.5850
  688MOL0     H92852   5.732  10.674   1.535 -0.1688 -0.2927 -0.8332
  688MOL0     H92853   5.765  10.798   1.410 -2.6796  1.2727  1.2154
  688MOL0     H92854   5.755  10.501   1.362  0.5397 -1.2349 -2.1117
  688MOL0     H92855   5.779  10.629   1.239  0.3288  1.1645  1.1328
  688MOL0     H92856   5.964  10.576   1.479 -0.6466  0.5960  0.4905
  688MOL0     H92857   5.990  10.702   1.362 -1.5923  0.4179  0.6507
  688MOL0     H92858   6.004  10.539   1.183 -1.8594  2.5518  0.8611
  688MOL0     H92859   6.121  10.494   1.307  0.8900 -1.8747 -1.1165
  688MOL0     H92860   4.989  10.861   1.505 -0.2543 -0.6813  0.6180
  688MOL0     H92861   4.754  10.853   1.552  0.5904  1.9742 -1.2006
  688MOL0     H92862   4.248  10.785   1.647 -2.3741 -1.3837  0.2585
  688MOL0     H92863   4.080  10.705   1.809  1.2988  2.0375 -2.3963
  688MOL0     H92864   2.353  10.139   2.077 -3.0326 -3.1918 -0.6881
  688MOL0     H92865   2.157  10.030   2.042  0.7440 -1.7143  2.6608
  688MOL0     H92866   1.830   9.930   1.940  0.3489 -0.9567  3.2630
  688MOL0     H92867   1.653   9.760   1.884  0.8010 -1.0659  1.7144
  688MOL0     H92868   1.221   9.813   1.898  0.9515 -0.1230 -0.9658
  688MOL0     H92869   1.256   9.826   2.075 -1.0511 -1.7514  1.1994
  688MOL0     H92870   1.295   9.591   2.089  0.9702  0.3143 -2.1732
  688MOL0     H92871   1.244   9.566   1.923  2.1586 -2.3058  1.2982
  688MOL0     H92872   1.004   9.625   1.966  0.7182 -0.7383  0.2723
  688MOL0     H92873   1.046   9.695   2.127 -0.6857 -0.4494  0.2764
  688MOL0     H92874   1.101   9.405   2.078 -2.2333 -0.3848 -3.0782
  688MOL0     H92875   1.105   9.498   2.221 -0.9961  1.0841 -0.8969
  688MOL0     H92876   0.715   9.418   2.260 -0.0679 -1.2405 -0.7980
  688MOL0     H92877   1.338  10.014   2.015  0.2021  0.9780  0.6356
  688MOL0     H92878   1.400  10.225   2.128 -0.6304  1.0413 -0.2617
  688MOL0     H92879   1.562  10.254   2.169 -1.2885  0.0645  0.7985
  688MOL0     H92880   1.502  10.292   1.999  1.8851 -1.4353 -0.9442
  689MOL0     O92881   8.564   8.911   7.990  0.8533  0.2446  0.2933
  689MOL0     C92882   8.487   8.965   7.916 -0.1836  0.1351  1.2149
  689MOL0     O92883   8.533   9.027   7.804 -0.3558  0.2436  0.3811
  689MOL0     C92884   8.669   9.031   7.770  0.4934  0.6482  0.4998
  689MOL0     C92885   8.765   9.107   7.838 -0.7046  0.7306 -1.0689
  689MOL0     C92886   8.904   9.105   7.808  0.4176 -0.1231  0.2698
  689MOL0     C92887   8.944   9.035   7.690  0.4263  0.4463 -0.9612
  689MOL0     O92888   9.076   9.021   7.657 -0.1557 -0.1380  0.0581
  689MOL0     C92889   9.104   9.049   7.511 -0.7385 -0.5384 -0.9604
  689MOL0     C92890   9.170   8.927   7.439 -0.2833 -0.0449  0.3634
  689MOL0     C92891   9.168   8.948   7.284 -0.1338  0.1987  0.1737
  689MOL0     C92892   9.314   8.962   7.239  0.1564 -0.0887 -0.4870
  689MOL0     C92893   9.323   8.934   7.085  0.3328 -0.4611  0.2604
  689MOL0     C92894   9.447   8.982   7.013  1.2096 -0.5296 -0.3847
  689MOL0     C92895   9.441   8.971   6.860  1.0455  0.0705 -0.0476
  689MOL0     C92896   9.570   9.036   6.804  0.0911  0.4483  0.5137
  689MOL0     N92897   9.569   9.020   6.656  0.2819 -0.0133 -0.5458
  689MOL0     C92898   9.638   9.105   6.571  0.2294 -0.0180 -0.9351
  689MOL0     C92899   9.620   9.054   6.445 -0.1100 -0.5306 -0.7360
  689MOL0     C92900   9.650   9.115   6.317  0.0342 -0.2299  0.1918
  689MOL0     C92901   9.740   9.028   6.235  0.0935 -0.4331 -0.2718
  689MOL0     C92902   9.774   9.069   6.090  0.4073 -0.4590 -0.3381
  689MOL0     C92903   9.844   8.959   6.004 -0.1067  0.0546  0.1672
  689MOL0     O92904   9.977   8.933   6.051  0.5503  0.3914  0.6843
  689MOL0     C92905  10.071   8.888   5.970 -0.2453 -1.1280  0.0238
  689MOL0     C92906  10.056   8.818   5.846  0.3686  0.3390  0.1380
  689MOL0     C92907  10.161   8.769   5.774 -0.1469  0.0327 -0.3310
  689MOL0     C92908  10.294   8.777   5.820  1.3865  0.0724  0.3030
  689MOL0     C92909  10.396   8.714   5.743 -0.1700  0.5551 -0.0582
  689MOL0     O92910  10.365   8.652   5.633 -0.8028  0.0790  0.6294
  689MOL0     C92911  10.471   8.596   5.564  0.8680  0.2368 -0.0418
  689MOL0     C92912  10.554   8.678   5.490  0.0040  0.0422 -0.3768
  689MOL0     C92913  10.650   8.614   5.411  1.0226  0.0077 -0.7722
  689MOL0     C92914  10.669   8.479   5.407 -0.3326 -0.2133 -0.0586
  689MOL0     O92915  10.766   8.436   5.316 -0.7324 -0.8200 -0.6100
  689MOL0     C92916  10.743   8.319   5.239 -0.8375  0.1363  0.5341
  689MOL0     C92917  10.817   8.338   5.106 -0.3894  0.2635  0.4463
  689MOL0     C92918  10.835   8.203   5.034 -0.0800  0.3228  0.1219
  689MOL0     C92919  10.913   8.213   4.909  0.7755 -0.7382 -0.2683
  689MOL0     C92920  10.970   8.079   4.859  0.2114  0.3594  0.1301
  689MOL0     C92921  11.036   8.102   4.730  0.5743  0.3464 -1.3807
  689MOL0     C92922  11.054   7.968   4.659 -0.0420  0.7355  0.0176
  689MOL0     C92923  11.082   7.979   4.511  0.5006  0.4433 -0.3858
  689MOL0    Cl92924  11.101   7.813   4.429 -0.3123  0.1958 -0.0112
  689MOL0     C92925  10.593   8.399   5.492 -0.0153  0.3665 -0.3638
  689MOL0     C92926  10.489   8.457   5.570  0.2514  0.1143  0.6712
  689MOL0     O92927  10.505   8.721   5.792 -0.3800 -0.3537  0.1335
  689MOL0     C92928  10.307   8.854   5.938 -0.7337  0.2186 -0.8199
  689MOL0     C92929  10.202   8.917   6.000 -0.4471  0.3334 -0.2387
  689MOL0     N92930   9.534   8.948   6.459  0.2788 -0.4843  0.3334
  689MOL0     N92931   9.514   8.919   6.582  0.2219 -0.1403  0.0049
  689MOL0     C92932   8.844   8.958   7.619  0.8348  0.9306 -0.2433
  689MOL0     C92933   8.709   8.958   7.654  0.1595  0.2775  0.2226
  689MOL0     C92934   8.342   8.943   7.932 -0.2575  0.7794  0.1417
  689MOL0     C92935   8.264   8.999   7.829  0.1075  0.5829  0.5239
  689MOL0     C92936   8.128   8.991   7.833 -0.8992 -0.0205 -0.5696
  689MOL0     C92937   8.062   8.907   7.934  0.8766 -0.4043  0.4646
  689MOL0     O92938   7.931   8.874   7.922  0.1228 -0.4669  0.5874
  689MOL0     C92939   7.850   8.945   8.016  0.2183 -0.1384 -1.2991
  689MOL0     C92940   7.751   8.842   8.070  0.2193  0.5374 -0.2516
  689MOL0     C92941   7.619   8.847   7.989 -0.6581 -0.3605 -1.4903
  689MOL0     C92942   7.533   8.730   8.026  0.5545 -0.2469  0.1670
  689MOL0     C92943   7.414   8.745   7.942 -0.7086  0.3893 -0.2218
  689MOL0     C92944   7.314   8.753   7.880 -0.1574  0.4036  0.2603
  689MOL0     C92945   8.139   8.840   8.025  0.2284 -0.6931 -0.1916
  689MOL0     C92946   8.277   8.866   8.038 -0.0056 -0.3476  0.8035
  689MOL0     C92947   8.351   8.784   8.138 -0.9173  0.4583 -0.3136
  689MOL0     H92948   8.723   9.160   7.923 -3.7911 -1.4262 -1.1026
  689MOL0     H92949   8.968   9.173   7.863 -0.9246 -0.2879  2.1214
  689MOL0     H92950   9.030   9.092   7.443 -0.8157  1.2062  0.1434
  689MOL0     H92951   9.173   9.134   7.506 -0.0050 -1.1725 -2.1158
  689MOL0     H92952   9.118   8.833   7.459  0.8834 -0.0834  4.1859
  689MOL0     H92953   9.275   8.919   7.471  0.0223  1.8517 -0.0427
  689MOL0     H92954   9.119   9.042   7.257  1.6067  1.3230  0.7383
  689MOL0     H92955   9.116   8.865   7.236 -3.2546  2.6570 -1.0766
  689MOL0     H92956   9.347   9.065   7.258  0.3392 -0.2555  0.1304
  689MOL0     H92957   9.377   8.887   7.286  0.7656 -0.2683 -1.5596
  689MOL0     H92958   9.339   8.825   7.084 -0.3486 -0.5631 -0.0218
  689MOL0     H92959   9.243   8.979   7.027  1.6079  1.6610  0.0371
  689MOL0     H92960   9.450   9.091   7.015 -0.1033 -0.1980 -4.7120
  689MOL0     H92961   9.544   8.946   7.048  0.0932 -1.5364  1.8501
  689MOL0     H92962   9.357   9.034   6.830  2.0527  0.7210 -1.5784
  689MOL0     H92963   9.432   8.867   6.828 -1.5256  0.3292 -0.3629
  689MOL0     H92964   9.563   9.144   6.823 -0.8893  0.3753  0.5899
  689MOL0     H92965   9.657   8.986   6.848 -1.9478 -0.6961  3.5732
  689MOL0     H92966   9.699   9.194   6.586 -2.3415  2.4550 -3.7435
  689MOL0     H92967   9.562   9.133   6.254  1.8665 -0.7637 -2.7032
  689MOL0     H92968   9.692   9.213   6.342 -0.9552  0.7661 -1.7687
  689MOL0     H92969   9.835   9.020   6.288 -0.0475 -2.2747 -0.2350
  689MOL0     H92970   9.707   8.924   6.234  0.6603 -0.7599  3.1407
  689MOL0     H92971   9.826   9.166   6.086 -1.4154  0.5333 -1.0801
  689MOL0     H92972   9.678   9.068   6.039 -0.5780 -1.9310  1.4243
  689MOL0     H92973   9.852   8.992   5.900 -1.3195  2.0215  0.6386
  689MOL0     H92974   9.783   8.869   6.004  0.2737 -0.2166 -1.0389
  689MOL0     H92975   9.954   8.805   5.812  1.2414  0.4783 -2.8410
  689MOL0     H92976  10.128   8.731   5.679  2.5008 -0.5595 -1.0920
  689MOL0     H92977  10.531   8.783   5.478  1.7547  0.3418 -1.4772
  689MOL0     H92978  10.715   8.665   5.339  1.4993 -2.1582 -1.9546
  689MOL0     H92979  10.783   8.232   5.293 -0.1916  0.1385  0.0708
  689MOL0     H92980  10.638   8.294   5.222 -1.0052  0.4267  1.1191
  689MOL0     H92981  10.758   8.403   5.041  2.9638 -0.6482 -4.0180
  689MOL0     H92982  10.915   8.374   5.140 -1.2761 -0.1017  3.7570
  689MOL0     H92983  10.895   8.161   5.115  1.9483  2.6792 -0.0306
  689MOL0     H92984  10.743   8.150   5.008  1.0690 -0.8161 -1.8524
  689MOL0     H92985  10.985   8.293   4.927 -2.4101  2.4119 -0.2167
  689MOL0     H92986  10.852   8.258   4.830  1.4599 -1.7046 -1.3682
  689MOL0     H92987  10.896   7.999   4.850  0.6213 -0.3187  2.3579
  689MOL0     H92988  11.035   8.044   4.939 -0.3599 -0.9199  0.0471
  689MOL0     H92989  10.979   8.177   4.675  0.2774  1.3652  0.2458
  689MOL0     H92990  11.132   8.149   4.753  0.7088 -0.0124 -1.1946
  689MOL0     H92991  10.967   7.903   4.675  0.7518 -0.6826 -1.2472
  689MOL0     H92992  11.143   7.916   4.695  1.0075  1.8653 -0.8667
  689MOL0     H92993  10.987   8.014   4.469 -1.0963 -2.9382  0.0314
  689MOL0     H92994  11.168   8.046   4.504  0.0668  1.3058  1.7524
  689MOL0     H92995  10.608   8.292   5.485 -0.0405 -0.0079  3.3313
  689MOL0     H92996  10.421   8.405   5.637 -3.6067  0.3784 -2.6473
  689MOL0     H92997  10.401   8.841   5.990 -2.6976  0.3611  3.1642
  689MOL0     H92998  10.219   8.983   6.085 -1.4449  1.0715 -0.5937
  689MOL0     H92999   8.883   8.912   7.529 -1.4793 -1.8892  0.0612
  689MOL0     H93000   8.631   8.908   7.598 -1.8116  1.8984  1.3518
  689MOL0     H93001   8.303   9.057   7.746  0.1957 -0.7756 -0.4201
  689MOL0     H93002   8.075   9.019   7.742  0.8640  2.7362 -0.8556
  689MOL0     H93003   7.794   9.021   7.962 -2.0030 -0.9425 -0.2441
  689MOL0     H93004   7.901   8.989   8.103  1.7588  0.7950 -2.6130
  689MOL0     H93005   7.727   8.848   8.177 -1.7663 -0.3311 -0.6000
  689MOL0     H93006   7.799   8.746   8.051  2.5736  1.9385 -1.8137
  689MOL0     H93007   7.637   8.840   7.881 -1.0603 -0.0326 -1.5782
  689MOL0     H93008   7.575   8.942   8.019  1.5103  0.6922 -1.5070
  689MOL0     H93009   7.580   8.637   7.994 -0.4101 -0.8789  0.5258
  689MOL0     H93010   7.499   8.730   8.131  0.8177  2.6600  0.3369
  689MOL0     H93011   7.224   8.717   7.834  0.3973 -1.1577  0.3222
  689MOL0     H93012   8.090   8.768   8.090  2.5921  0.0003  2.5600
  689MOL0     H93013   8.417   8.843   8.201  1.2607 -1.4120 -0.7212
  689MOL0     H93014   8.282   8.721   8.195  0.9043  1.2385  2.9362
  689MOL0     H93015   8.420   8.719   8.084 -0.8038  0.8444 -0.6433
  690MOL0     O93016   2.793   7.608   6.904  0.5872  0.1510  0.2023
  690MOL0     C93017   2.790   7.483   6.882 -0.4679  0.1408 -0.5923
  690MOL0     O93018   2.900   7.402   6.862 -0.3258  0.0577 -0.4535
  690MOL0     C93019   3.032   7.443   6.887  0.3409 -0.4948  0.2410
  690MOL0     C93020   3.077   7.576   6.907 -0.7857  0.2773  0.2948
  690MOL0     C93021   3.216   7.597   6.922  0.9244 -0.7311  0.3514
  690MOL0     C93022   3.311   7.495   6.920  0.1677  0.0841  0.4136
  690MOL0     O93023   3.441   7.535   6.933  0.2775  0.5099 -0.5912
  690MOL0     C93024   3.526   7.434   6.976 -0.8460 -0.2838 -0.3120
  690MOL0     C93025   3.660   7.507   6.983 -0.9571 -0.0842 -0.1118
  690MOL0     C93026   3.780   7.415   7.000 -0.0133  0.3853  0.4825
  690MOL0     C93027   3.908   7.491   7.036 -0.8536  0.2786  0.1909
  690MOL0     C93028   4.027   7.400   7.062  0.1376 -0.3856 -0.0979
  690MOL0     C93029   4.059   7.302   6.947 -1.0368  0.3164  0.3957
  690MOL0     C93030   4.151   7.191   6.991  0.3062 -0.1826 -0.0322
  690MOL0     C93031   4.263   7.232   7.087 -0.2221 -0.6486 -0.5703
  690MOL0     N93032   4.353   7.331   7.037 -0.3329 -0.0080  0.4565
  690MOL0     C93033   4.433   7.296   6.931 -0.6783  0.9544  0.4244
  690MOL0     C93034   4.504   7.407   6.913 -0.1816  0.1280 -0.0754
  690MOL0     C93035   4.608   7.417   6.805 -0.3889  0.0032 -0.1292
  690MOL0     C93036   4.752   7.392   6.838  0.3266 -0.6860  0.4554
  690MOL0     C93037   4.858   7.408   6.722  0.6872  0.6535 -0.0911
  690MOL0     C93038   5.005   7.413   6.767 -0.4400  0.6707  0.2289
  690MOL0     O93039   5.085   7.429   6.647  0.0694  0.2107 -0.9738
  690MOL0     C93040   5.223   7.395   6.660  0.2345 -1.4252 -0.2077
  690MOL0     C93041   5.295   7.422   6.546 -0.5226  0.1601  0.0144
  690MOL0     C93042   5.428   7.407   6.536 -0.6278 -0.5179 -0.0857
  690MOL0     C93043   5.508   7.357   6.644 -0.4149 -0.3980 -0.5296
  690MOL0     C93044   5.647   7.317   6.642 -0.7617  0.2791  0.0622
  690MOL0     O93045   5.705   7.354   6.527  0.1616 -0.0783  0.2914
  690MOL0     C93046   5.841   7.340   6.496 -0.2270  0.5796  0.1863
  690MOL0     C93047   5.863   7.358   6.359 -1.5184 -0.1308 -0.9305
  690MOL0     C93048   5.995   7.326   6.306 -0.7482 -0.1105 -0.3624
  690MOL0     C93049   6.096   7.269   6.382  0.8705  0.1920  0.2678
  690MOL0     O93050   6.223   7.250   6.329  0.1805 -0.0092 -0.5365
  690MOL0     C93051   6.237   7.197   6.193 -1.0574 -0.2894 -0.0475
  690MOL0     C93052   6.365   7.117   6.183  0.1557  1.2607  0.1726
  690MOL0     C93053   6.489   7.203   6.190  0.1862  0.3298  0.4100
  690MOL0     C93054   6.613   7.125   6.141 -0.3121  0.7062 -0.4308
  690MOL0     C93055   6.748   7.192   6.162  0.2416 -0.2881 -0.4451
  690MOL0     C93056   6.810   7.166   6.293 -0.5210  0.1211 -0.1910
  690MOL0     C93057   6.959   7.213   6.283  1.2838 -0.3204 -0.4465
  690MOL0     C93058   7.027   7.220   6.423  0.2171 -0.2031  0.9157
  690MOL0    Cl93059   7.205   7.247   6.376  0.0923 -0.5001 -0.4944
  690MOL0     C93060   6.059   7.233   6.507 -0.2953  0.3544 -0.3457
  690MOL0     C93061   5.939   7.263   6.568  0.7619 -0.9600 -0.2318
  690MOL0     O93062   5.706   7.269   6.737 -0.1718  0.0596 -0.7737
  690MOL0     C93063   5.434   7.333   6.767 -0.3965 -0.8374  0.6368
  690MOL0     C93064   5.296   7.356   6.773 -0.8270 -0.7412  0.4275
  690MOL0     N93065   4.460   7.509   6.994 -0.3971  0.2898 -0.5637
  690MOL0     N93066   4.364   7.466   7.074  0.5090 -0.3729  0.5570
  690MOL0     C93067   3.260   7.364   6.897 -0.2412  0.2636  0.5685
  690MOL0     C93068   3.125   7.334   6.882  0.7200 -0.8399 -0.1470
  690MOL0     C93069   2.662   7.410   6.880 -0.1344 -0.6336  0.1402
  690MOL0     C93070   2.560   7.443   6.967 -0.2446 -0.7314 -0.2712
  690MOL0     C93071   2.438   7.373   6.970 -1.2212  0.3396  0.3664
  690MOL0     C93072   2.422   7.264   6.882 -0.1526 -0.1224 -0.2752
  690MOL0     O93073   2.308   7.194   6.868 -0.1703  0.1980 -0.5455
  690MOL0     C93074   2.209   7.182   6.971 -0.5611 -0.9797  0.7860
  690MOL0     C93075   2.077   7.197   6.900 -0.0574 -0.5048 -1.2177
  690MOL0     C93076   2.047   7.104   6.783 -0.6826 -0.9225  0.3642
  690MOL0     C93077   1.898   7.120   6.732 -0.9573 -0.6600  0.1062
  690MOL0     C93078   1.813   7.059   6.838 -0.1554  0.6548  0.3235
  690MOL0     C93079   1.724   7.015   6.908  0.6713 -0.2865 -1.1273
  690MOL0     C93080   2.522   7.220   6.798 -0.4392  0.5046 -0.0033
  690MOL0     C93081   2.643   7.291   6.790  0.1952 -0.3749 -0.0009
  690MOL0     C93082   2.753   7.228   6.713  0.7576  0.0458  0.2513
  690MOL0     H93083   3.021   7.669   6.914  0.4166  0.9854  0.7795
  690MOL0     H93084   3.251   7.697   6.944  0.2579 -1.1779  4.2354
  690MOL0     H93085   3.496   7.393   7.073 -0.9663 -0.4723 -0.4296
  690MOL0     H93086   3.547   7.350   6.910  1.4448  1.4735 -1.9964
  690MOL0     H93087   3.656   7.592   7.052 -0.2845 -1.7386  2.0294
  690MOL0     H93088   3.677   7.551   6.884  0.9411  0.6160  0.4909
  690MOL0     H93089   3.792   7.372   6.900 -1.1027  0.4250  0.3240
  690MOL0     H93090   3.758   7.333   7.068  1.3229 -0.4738 -0.0697
  690MOL0     H93091   3.928   7.572   6.966 -1.6179 -0.5077 -0.9735
  690MOL0     H93092   3.889   7.534   7.134  0.9175  0.7875  0.3441
  690MOL0     H93093   4.111   7.464   7.090  1.0386 -0.9969 -1.3048
  690MOL0     H93094   4.007   7.331   7.144  4.9150  2.3215  3.8690
  690MOL0     H93095   3.971   7.256   6.903 -0.9775  0.7029 -0.1371
  690MOL0     H93096   4.111   7.358   6.868  0.1519  0.5970  1.3422
  690MOL0     H93097   4.195   7.138   6.906 -2.6559  0.1374 -1.8891
  690MOL0     H93098   4.092   7.115   7.043  1.3205 -0.6836  0.4254
  690MOL0     H93099   4.227   7.256   7.188 -1.9025 -2.5733 -0.6566
  690MOL0     H93100   4.333   7.149   7.105  4.3601  2.2151 -3.0481
  690MOL0     H93101   4.452   7.196   6.894 -0.6116  1.0058  0.3202
  690MOL0     H93102   4.578   7.339   6.734  0.6697 -0.2706 -0.2838
  690MOL0     H93103   4.602   7.516   6.757 -0.2558  0.2710  0.4042
  690MOL0     H93104   4.787   7.462   6.915  2.8246  0.9941 -1.9833
  690MOL0     H93105   4.756   7.291   6.878  1.8610  0.0759  2.4205
  690MOL0     H93106   4.836   7.499   6.666  0.1235  2.0054  2.1994
  690MOL0     H93107   4.848   7.325   6.651  2.4831  0.6857 -0.4231
  690MOL0     H93108   5.021   7.313   6.808 -2.4175  0.0168 -0.4976
  690MOL0     H93109   5.026   7.493   6.838  1.8260  0.9120 -0.6301
  690MOL0     H93110   5.243   7.460   6.459 -2.9251  0.0915  1.3336
  690MOL0     H93111   5.475   7.427   6.440  0.3169 -2.1614 -0.0063
  690MOL0     H93112   5.787   7.406   6.298  0.1246  2.7031 -0.9169
  690MOL0     H93113   6.015   7.352   6.202 -1.0435 -3.3529 -1.3302
  690MOL0     H93114   6.149   7.136   6.171 -2.4408  0.6735  2.3922
  690MOL0     H93115   6.251   7.273   6.116  3.1893 -1.8754 -1.1228
  690MOL0     H93116   6.369   7.046   6.266 -0.8564  1.7287  0.6409
  690MOL0     H93117   6.351   7.062   6.089 -0.7386 -1.1342  1.6282
  690MOL0     H93118   6.475   7.279   6.113  0.1379  0.1507  0.2409
  690MOL0     H93119   6.497   7.254   6.286 -1.6741  0.1025  0.7244
  690MOL0     H93120   6.608   7.122   6.032 -3.1986  2.8749 -0.4752
  690MOL0     H93121   6.619   7.027   6.188  0.8497  1.1970  0.5112
  690MOL0     H93122   6.737   7.300   6.159  0.0118 -0.1254  2.8784
  690MOL0     H93123   6.817   7.151   6.088  2.1330 -0.3198  1.2648
  690MOL0     H93124   6.757   7.208   6.379  0.7052  1.3918 -0.0214
  690MOL0     H93125   6.805   7.058   6.313 -1.9320 -0.1845 -1.9506
  690MOL0     H93126   6.958   7.307   6.226  0.2269  0.7143  1.2028
  690MOL0     H93127   7.011   7.151   6.209 -0.1634 -2.5318  0.2813
  690MOL0     H93128   6.984   7.295   6.490 -1.1992 -0.1288 -0.0398
  690MOL0     H93129   7.020   7.122   6.472  0.3049 -0.7423 -0.1339
  690MOL0     H93130   6.140   7.182   6.557  4.0177  5.2797 -1.4460
  690MOL0     H93131   5.919   7.236   6.671 -4.7654  2.3180 -0.0631
  690MOL0     H93132   5.481   7.286   6.852 -0.4919 -1.6096  0.2705
  690MOL0     H93133   5.250   7.328   6.867 -0.7411 -0.9921  0.3961
  690MOL0     H93134   3.322   7.275   6.887  0.5436  0.8345  0.2026
  690MOL0     H93135   3.084   7.238   6.854 -0.1495  0.3447 -3.4231
  690MOL0     H93136   2.570   7.531   7.030  1.2711 -1.8197  1.0857
  690MOL0     H93137   2.357   7.396   7.038 -0.7206 -0.4299  1.2552
  690MOL0     H93138   2.211   7.260   7.048 -2.2381 -2.0391  1.9532
  690MOL0     H93139   2.213   7.086   7.022  0.0300 -2.2001 -1.4033
  690MOL0     H93140   2.058   7.297   6.860 -1.2324 -0.9263 -1.7523
  690MOL0     H93141   2.004   7.176   6.978 -0.6009  2.3702 -0.8590
  690MOL0     H93142   2.059   6.998   6.806 -0.3872 -1.0082 -0.1717
  690MOL0     H93143   2.118   7.124   6.703 -1.1123 -0.1620  0.1625
  690MOL0     H93144   1.888   7.229   6.726  2.7362 -0.2334 -0.7817
  690MOL0     H93145   1.896   7.080   6.631  1.0696 -0.5146 -0.0384
  690MOL0     H93146   1.647   6.989   6.978  3.3905  1.4289  2.8045
  690MOL0     H93147   2.509   7.127   6.745  0.8592 -0.9588  2.0735
  690MOL0     H93148   2.805   7.174   6.792 -0.7296  0.1827  1.3704
  690MOL0     H93149   2.719   7.153   6.641 -2.3150  0.4423  1.1681
  690MOL0     H93150   2.816   7.301   6.661 -1.0705 -0.2578 -2.5640
  691MOL0     O93151   6.667   3.925   8.282 -0.2530  0.8149 -0.0957
  691MOL0     C93152   6.618   3.826   8.225 -0.4202 -0.4811  0.8485
  691MOL0     O93153   6.673   3.743   8.133 -0.7574  0.0412 -0.7017
  691MOL0     C93154   6.804   3.771   8.107  0.5697  0.0599  0.3853
  691MOL0     C93155   6.840   3.836   7.990 -0.4932 -0.5304 -1.0782
  691MOL0     C93156   6.976   3.865   7.962  0.4725 -0.1045 -0.1911
  691MOL0     C93157   7.072   3.826   8.048 -0.9989  1.2858 -0.5111
  691MOL0     O93158   7.207   3.845   8.037 -0.6214 -0.2218 -0.0758
  691MOL0     C93159   7.239   3.907   7.913  0.1106  0.4320  0.0043
  691MOL0     C93160   7.392   3.897   7.886  0.0885  0.7459 -0.1282
  691MOL0     C93161   7.436   4.016   7.806  0.2255 -0.3577 -0.3829
  691MOL0     C93162   7.555   3.988   7.708  0.2611  0.7244  0.5553
  691MOL0     C93163   7.615   4.112   7.641 -0.9911  0.3037 -0.6206
  691MOL0     C93164   7.734   4.084   7.548 -0.3513 -0.0207 -0.7513
  691MOL0     C93165   7.703   4.035   7.409  0.0295  0.3848  0.0735
  691MOL0     C93166   7.695   4.146   7.302  0.1435 -0.2667  0.9077
  691MOL0     N93167   7.710   4.085   7.173  0.2635 -0.0981 -0.7470
  691MOL0     C93168   7.812   4.024   7.119 -0.1101  1.5367  0.4320
  691MOL0     C93169   7.777   3.988   6.995  0.2278  0.5868 -0.1949
  691MOL0     C93170   7.869   3.951   6.886 -0.0438  0.0475  0.5012
  691MOL0     C93171   7.853   4.041   6.761  0.5813 -0.0348  0.4736
  691MOL0     C93172   7.919   4.173   6.763 -0.7522 -0.2153  0.2126
  691MOL0     C93173   8.071   4.171   6.746  0.4739  0.3383  0.5798
  691MOL0     O93174   8.092   4.179   6.605  0.4515 -0.3392 -0.3540
  691MOL0     C93175   8.225   4.173   6.577  0.1225  0.1142 -1.1240
  691MOL0     C93176   8.266   4.084   6.480  0.1573 -1.2038  0.3191
  691MOL0     C93177   8.399   4.064   6.443  0.5812  0.4242  0.9602
  691MOL0     C93178   8.507   4.122   6.511  0.2158 -0.3479 -0.5506
  691MOL0     C93179   8.647   4.112   6.476 -0.6334  1.2856  0.1028
  691MOL0     O93180   8.737   4.220   6.490 -0.1408  0.1829  0.1021
  691MOL0     C93181   8.867   4.191   6.464 -0.4047 -0.5505 -0.3385
  691MOL0     C93182   8.927   4.212   6.336 -0.4457 -0.6638 -0.7583
  691MOL0     C93183   9.066   4.181   6.320 -0.6448 -0.2674 -0.4859
  691MOL0     C93184   9.144   4.125   6.415 -0.7498  0.3474 -0.0629
  691MOL0     O93185   9.274   4.082   6.399 -0.4617  0.0842  0.4927
  691MOL0     C93186   9.347   4.121   6.277  0.3695 -0.2776  0.3783
  691MOL0     C93187   9.477   4.038   6.260 -0.1871 -0.1726 -0.0255
  691MOL0     C93188   9.455   3.888   6.300  0.3344  0.3679 -0.3056
  691MOL0     C93189   9.592   3.821   6.315 -0.4404 -0.5086  0.3278
  691MOL0     C93190   9.591   3.678   6.357  0.3345 -0.3925  0.4306
  691MOL0     C93191   9.542   3.583   6.235 -0.0165  0.0177 -0.0157
  691MOL0     C93192   9.538   3.435   6.293 -0.2498 -0.2391  0.4950
  691MOL0     C93193   9.677   3.376   6.293  0.4197 -0.1916  0.3473
  691MOL0    Cl93194   9.735   3.366   6.462  0.0974  0.2609  0.8089
  691MOL0     C93195   9.084   4.100   6.535 -0.1238 -0.1776 -1.3496
  691MOL0     C93196   8.951   4.132   6.565  0.0268 -0.8554  0.6479
  691MOL0     O93197   8.679   3.997   6.436  0.3998 -0.3450  0.0349
  691MOL0     C93198   8.465   4.216   6.608  0.2890 -0.2225 -0.3117
  691MOL0     C93199   8.328   4.242   6.643 -0.6216 -0.6619  0.2574
  691MOL0     N93200   7.644   4.011   6.978  0.2005  0.0437  0.3993
  691MOL0     N93201   7.608   4.068   7.082  0.6687 -0.7056 -0.5945
  691MOL0     C93202   7.040   3.764   8.167 -0.9337  0.5505 -0.6548
  691MOL0     C93203   6.905   3.734   8.196  0.6493  0.3044  0.7856
  691MOL0     C93204   6.481   3.782   8.273 -0.5501  0.1887  0.2903
  691MOL0     C93205   6.422   3.846   8.378  0.4432 -0.8508  0.0106
  691MOL0     C93206   6.301   3.809   8.429 -0.6356  0.4446 -0.2847
  691MOL0     C93207   6.233   3.695   8.375 -0.5245  0.5231  0.3795
  691MOL0     O93208   6.108   3.653   8.409  0.2647 -0.0628  0.1328
  691MOL0     C93209   6.054   3.691   8.536 -0.5999 -0.8797 -0.7871
  691MOL0     C93210   5.963   3.813   8.510 -0.4919 -0.2641 -0.5233
  691MOL0     C93211   5.862   3.762   8.406  0.4518  0.4203 -0.5547
  691MOL0     C93212   5.782   3.636   8.456 -0.2477  0.3746  0.3623
  691MOL0     C93213   5.716   3.659   8.585  0.1101  0.5673  0.1632
  691MOL0     C93214   5.654   3.674   8.694  0.2254  0.5402  0.1787
  691MOL0     C93215   6.295   3.616   8.285  0.2583  0.4567 -0.0161
  691MOL0     C93216   6.423   3.654   8.229  0.6863  0.3015  0.3216
  691MOL0     C93217   6.473   3.555   8.120  0.1405  0.5875  0.3135
  691MOL0     H93218   6.757   3.870   7.929 -1.7191  0.3701  0.9936
  691MOL0     H93219   6.990   3.918   7.868  0.8512 -1.4258 -0.9209
  691MOL0     H93220   7.185   3.869   7.826  2.4546  1.2039 -1.8972
  691MOL0     H93221   7.212   4.013   7.919 -2.3785 -0.0082 -1.6202
  691MOL0     H93222   7.413   3.800   7.839 -0.4867  0.9990 -0.9220
  691MOL0     H93223   7.443   3.897   7.983 -1.0824  0.1781  0.5041
  691MOL0     H93224   7.483   4.090   7.872  1.2932 -1.2008 -0.1654
  691MOL0     H93225   7.358   4.072   7.755 -1.4520 -2.2229  0.0241
  691MOL0     H93226   7.637   3.929   7.750 -0.5360 -1.0475 -0.2695
  691MOL0     H93227   7.518   3.925   7.627  0.1645 -0.3929  1.4411
  691MOL0     H93228   7.542   4.161   7.575 -0.3415  0.5818 -1.1406
  691MOL0     H93229   7.653   4.176   7.722  1.1192 -2.9578  1.1804
  691MOL0     H93230   7.794   4.175   7.535  1.0265 -0.9164 -0.8674
  691MOL0     H93231   7.805   4.015   7.595 -0.0132 -0.0247 -1.2662
  691MOL0     H93232   7.606   3.985   7.410  0.8917 -1.3602 -0.3472
  691MOL0     H93233   7.777   3.964   7.373  0.6152  0.7959  0.4501
  691MOL0     H93234   7.594   4.188   7.307  1.1458  2.3050  0.7120
  691MOL0     H93235   7.779   4.214   7.317  1.2012 -1.0458 -1.1785
  691MOL0     H93236   7.916   4.024   7.150  0.6236  0.1923 -1.7897
  691MOL0     H93237   7.974   3.934   6.909  0.5676 -1.1474 -2.6881
  691MOL0     H93238   7.840   3.853   6.847 -1.4316  0.3179  0.8163
  691MOL0     H93239   7.895   3.979   6.681  0.6890 -2.4486  2.2800
  691MOL0     H93240   7.750   4.071   6.741  1.1631  0.7105 -1.5573
  691MOL0     H93241   7.910   4.210   6.866  2.0324 -2.4606  1.4179
  691MOL0     H93242   7.876   4.230   6.680 -2.5852  0.2860  1.4480
  691MOL0     H93243   8.110   4.077   6.786 -0.5574 -1.3406 -2.1686
  691MOL0     H93244   8.112   4.262   6.793 -0.1176  0.8462  0.1319
  691MOL0     H93245   8.182   4.033   6.434  0.6902 -1.6730 -0.1493
  691MOL0     H93246   8.428   3.990   6.370  0.8547 -0.8902  2.3545
  691MOL0     H93247   8.870   4.249   6.251  0.1535  1.2000 -0.3962
  691MOL0     H93248   9.106   4.202   6.221 -1.0403  1.2888 -0.3488
  691MOL0     H93249   9.292   4.109   6.184  0.0794  0.3316  0.4651
  691MOL0     H93250   9.387   4.222   6.283  2.5567 -1.0392 -0.6136
  691MOL0     H93251   9.511   4.037   6.156 -1.1817 -3.3169 -0.4318
  691MOL0     H93252   9.556   4.091   6.314 -0.0474  2.2516 -2.4263
  691MOL0     H93253   9.399   3.894   6.394  1.7317  0.7061  0.5405
  691MOL0     H93254   9.400   3.836   6.221 -1.4035  0.3321  0.8850
  691MOL0     H93255   9.635   3.873   6.401 -2.6555 -0.9177  1.7341
  691MOL0     H93256   9.644   3.837   6.220 -0.4577 -0.7405  0.2789
  691MOL0     H93257   9.528   3.670   6.446 -0.2564 -0.5030  0.0085
  691MOL0     H93258   9.694   3.648   6.378  0.9207  1.2556  0.0454
  691MOL0     H93259   9.438   3.599   6.206  0.0163 -0.1180 -0.2097
  691MOL0     H93260   9.609   3.600   6.151 -0.3042  1.6481  0.0451
  691MOL0     H93261   9.475   3.377   6.224  1.1519  0.9487 -1.8996
  691MOL0     H93262   9.486   3.424   6.388 -0.4394  0.4166  0.4721
  691MOL0     H93263   9.667   3.273   6.259  0.7537  0.2979 -1.3708
  691MOL0     H93264   9.754   3.427   6.233  1.6720  0.9456  2.7563
  691MOL0     H93265   9.144   4.069   6.620  0.4584  0.1562 -1.6339
  691MOL0     H93266   8.916   4.132   6.668 -2.5402  1.7245 -0.0886
  691MOL0     H93267   8.538   4.278   6.660 -0.5324 -1.2468  2.1850
  691MOL0     H93268   8.291   4.313   6.717  1.6555 -0.0519  0.9045
  691MOL0     H93269   7.114   3.723   8.235 -0.5708  0.6726 -0.9804
  691MOL0     H93270   6.865   3.682   8.282 -2.0222 -1.4770 -1.3632
  691MOL0     H93271   6.466   3.939   8.413 -0.1191  0.2049 -1.9609
  691MOL0     H93272   6.254   3.865   8.508 -0.8501 -1.2639  0.8643
  691MOL0     H93273   6.140   3.705   8.602 -2.1676  0.2896  1.1218
  691MOL0     H93274   5.996   3.616   8.590 -2.6498  1.7094  0.9027
  691MOL0     H93275   6.014   3.897   8.462 -0.0356 -2.1817 -3.6362
  691MOL0     H93276   5.911   3.855   8.597 -0.8732  0.3390 -1.0340
  691MOL0     H93277   5.914   3.738   8.312 -0.5735  1.3532 -1.3823
  691MOL0     H93278   5.788   3.839   8.385 -0.7411 -1.0043 -1.8244
  691MOL0     H93279   5.708   3.615   8.378  1.4222  0.6490 -1.3766
  691MOL0     H93280   5.845   3.548   8.466 -1.6834 -0.5604  1.6267
  691MOL0     H93281   5.596   3.699   8.780 -0.4033  0.8314 -0.3217
  691MOL0     H93282   6.244   3.524   8.257  2.3388 -1.4142  1.9337
  691MOL0     H93283   6.571   3.514   8.144 -0.6037 -1.3474  0.2414
  691MOL0     H93284   6.409   3.466   8.113  2.1244 -0.9930  1.2352
  691MOL0     H93285   6.484   3.619   8.032 -2.6338  2.2872  1.0680
  692MOL0     O93286   6.600   7.100   8.743  0.2410  0.5267 -0.2837
  692MOL0     C93287   6.593   7.134   8.862 -0.3074 -0.4579  1.3304
  692MOL0     O93288   6.697   7.212   8.919 -0.0604  1.0801  0.1043
  692MOL0     C93289   6.800   7.234   8.841  0.3295 -0.7044 -0.1934
  692MOL0     C93290   6.816   7.353   8.777 -0.0776 -0.0978 -0.0736
  692MOL0     C93291   6.930   7.371   8.702  0.2654 -0.1570 -0.1399
  692MOL0     C93292   7.040   7.280   8.690  0.0383  0.2269 -0.9510
  692MOL0     O93293   7.157   7.312   8.624 -0.6711  0.2292 -0.3035
  692MOL0     C93294   7.282   7.244   8.634 -0.3189 -0.0550  0.1878
  692MOL0     C93295   7.378   7.343   8.573 -0.3429 -1.2781  0.1977
  692MOL0     C93296   7.516   7.298   8.605 -0.3956 -0.6287  0.5369
  692MOL0     C93297   7.617   7.399   8.550  0.0849  0.2854 -0.9104
  692MOL0     C93298   7.751   7.380   8.599  0.4739  0.1446  0.1879
  692MOL0     C93299   7.844   7.472   8.519  0.3469  0.2774  0.7174
  692MOL0     C93300   7.980   7.501   8.579  0.2599 -0.1333  0.5076
  692MOL0     C93301   8.073   7.385   8.560  0.2569  0.4571 -1.2935
  692MOL0     N93302   8.201   7.435   8.619 -0.5246 -0.2894  0.1773
  692MOL0     C93303   8.220   7.476   8.751 -0.1957 -0.6560 -0.1321
  692MOL0     C93304   8.350   7.500   8.763 -0.2399  0.1989  0.3338
  692MOL0     C93305   8.416   7.566   8.878  0.2516  0.6102  0.3327
  692MOL0     C93306   8.466   7.464   8.979  0.0477 -0.2468 -0.6665
  692MOL0     C93307   8.359   7.359   9.016 -0.4024  0.0682 -0.0754
  692MOL0     C93308   8.276   7.393   9.138  0.1683 -0.3044  0.3454
  692MOL0     O93309   8.360   7.402   9.256 -0.2369 -0.1116  0.1583
  692MOL0     C93310   8.293   7.457   9.359 -0.9447 -1.6271 -0.0511
  692MOL0     C93311   8.216   7.380   9.444 -0.6775  0.3474 -0.1076
  692MOL0     C93312   8.139   7.437   9.545 -1.1700 -0.2824 -0.7281
  692MOL0     C93313   8.138   7.571   9.568 -0.6857  0.0540  0.4956
  692MOL0     C93314   8.072   7.637   9.681 -0.2697  0.4611  0.3469
  692MOL0     O93315   8.070   7.772   9.684  0.6246 -0.7056 -0.0501
  692MOL0     C93316   7.983   7.839   9.774 -0.6727 -0.6333  0.1765
  692MOL0     C93317   7.846   7.834   9.776  0.2954 -0.3296 -0.1571
  692MOL0     C93318   7.771   7.898   9.878  0.1740 -0.1278  0.2932
  692MOL0     C93319   7.830   7.960   9.987 -0.2291 -0.1458  0.1027
  692MOL0     O93320   7.745   8.029  10.076 -0.0066 -0.3035  0.3160
  692MOL0     C93321   7.790   8.020  10.209  0.1546 -0.4917 -0.0227
  692MOL0     C93322   7.683   8.088  10.295  0.0449 -0.1405  0.1448
  692MOL0     C93323   7.543   8.024  10.288  0.4917 -0.0050 -1.3927
  692MOL0     C93324   7.444   8.100  10.374  0.0972 -0.4218  0.1146
  692MOL0     C93325   7.303   8.047  10.348 -0.0165 -0.1749 -0.0284
  692MOL0     C93326   7.208   8.126  10.435  0.2388  0.1226 -0.6669
  692MOL0     C93327   7.062   8.114  10.394  0.8036  0.4455  0.6117
  692MOL0     C93328   6.981   8.192  10.496 -0.1575  0.6253 -0.0930
  692MOL0    Cl93329   6.829   8.219  10.434 -0.2889 -0.1586  0.1271
  692MOL0     C93330   7.971   7.962   9.989 -1.0218  0.1995 -0.0251
  692MOL0     C93331   8.047   7.914   9.876 -0.0331 -1.0566  0.6381
  692MOL0     O93332   8.030   7.564   9.770 -0.8668 -0.4498 -0.0940
  692MOL0     C93333   8.221   7.656   9.480  0.3568  0.1534 -0.5788
  692MOL0     C93334   8.303   7.601   9.382  0.0325  1.4362 -0.3848
  692MOL0     N93335   8.420   7.458   8.646  0.6228 -0.9969  0.2150
  692MOL0     N93336   8.323   7.433   8.558 -0.5237  0.3387 -0.1689
  692MOL0     C93337   7.025   7.165   8.772  0.5400  0.4302 -0.0524
  692MOL0     C93338   6.903   7.147   8.844 -0.5645  0.3465 -0.9822
  692MOL0     C93339   6.485   7.085   8.941 -0.4156 -0.3560 -0.9979
  692MOL0     C93340   6.516   7.081   9.080  0.5588  0.4935 -0.3352
  692MOL0     C93341   6.418   7.041   9.165 -0.4377 -0.1403  0.0375
  692MOL0     C93342   6.290   6.998   9.119  0.4148 -0.7722 -0.2947
  692MOL0     O93343   6.182   6.949   9.189  0.0446  0.1698  0.5276
  692MOL0     C93344   6.155   7.009   9.322  0.9210  0.3131  0.2955
  692MOL0     C93345   6.025   6.949   9.370 -0.2871 -0.3777 -0.1912
  692MOL0     C93346   5.907   6.969   9.275  1.0072  0.4816  0.2587
  692MOL0     C93347   5.773   6.976   9.365 -0.4900  0.0410  0.6202
  692MOL0     C93348   5.648   7.004   9.301 -0.6696 -0.4113  0.7695
  692MOL0     C93349   5.553   7.028   9.236 -0.1891 -0.6539 -0.0078
  692MOL0     C93350   6.256   7.011   8.982 -0.4689  0.5255 -0.6154
  692MOL0     C93351   6.352   7.058   8.893 -0.5616  0.0805  1.1761
  692MOL0     C93352   6.316   7.083   8.746  1.1187 -0.0492 -0.8251
  692MOL0     H93353   6.744   7.433   8.788 -0.4955 -0.2245 -1.6608
  692MOL0     H93354   6.941   7.472   8.664  1.3296 -0.1321  0.1975
  692MOL0     H93355   7.308   7.241   8.740 -1.5566 -0.4344  0.5001
  692MOL0     H93356   7.274   7.151   8.577 -0.6794 -0.3192  0.6650
  692MOL0     H93357   7.355   7.443   8.611 -0.0911 -0.8575 -0.7317
  692MOL0     H93358   7.369   7.337   8.464  1.3433  3.8346 -0.4781
  692MOL0     H93359   7.534   7.200   8.561  0.3772  0.3650 -1.5067
  692MOL0     H93360   7.519   7.284   8.714 -0.4101  2.6340  1.0565
  692MOL0     H93361   7.611   7.394   8.441 -1.7431  0.7992 -0.8627
  692MOL0     H93362   7.590   7.499   8.585  2.0197  0.6591 -0.3679
  692MOL0     H93363   7.761   7.410   8.703 -0.2802 -0.1472  0.3508
  692MOL0     H93364   7.783   7.277   8.581  1.3164  0.7094 -1.9009
  692MOL0     H93365   7.857   7.432   8.418  1.7378 -0.6877  1.2458
  692MOL0     H93366   7.798   7.571   8.516 -0.9596 -0.2869 -3.1461
  692MOL0     H93367   7.962   7.527   8.683 -2.6740  0.6659 -0.1141
  692MOL0     H93368   8.036   7.584   8.536  0.1614 -0.7984 -1.0037
  692MOL0     H93369   8.023   7.302   8.611  3.2774 -1.1209 -0.6797
  692MOL0     H93370   8.085   7.363   8.454 -0.5434  2.6316 -1.8957
  692MOL0     H93371   8.143   7.503   8.823  1.2939  2.0271  0.5819
  692MOL0     H93372   8.500   7.626   8.842  0.9018 -1.6954 -2.4151
  692MOL0     H93373   8.351   7.628   8.941  3.3508  2.0787  2.3404
  692MOL0     H93374   8.552   7.415   8.932 -0.6854 -0.8245 -1.4333
  692MOL0     H93375   8.503   7.511   9.071  0.3554 -0.2540 -0.7867
  692MOL0     H93376   8.401   7.264   9.049 -0.1192  0.2321  0.0358
  692MOL0     H93377   8.294   7.338   8.931  1.4076  0.7770 -1.7073
  692MOL0     H93378   8.201   7.314   9.147  1.7268 -2.3649 -2.8501
  692MOL0     H93379   8.218   7.484   9.123  3.2148  1.9087  0.8823
  692MOL0     H93380   8.210   7.272   9.439  0.5290  0.2455  0.3526
  692MOL0     H93381   8.094   7.372   9.619  1.0667 -0.2404  0.7595
  692MOL0     H93382   7.778   7.796   9.701 -1.5562  3.6748 -0.7872
  692MOL0     H93383   7.663   7.886   9.876  0.2241 -0.4798 -0.9165
  692MOL0     H93384   7.801   7.914  10.230 -0.0090 -0.5866 -0.4028
  692MOL0     H93385   7.879   8.081  10.228 -2.3767  3.8576 -0.5493
  692MOL0     H93386   7.721   8.084  10.398  1.2652 -2.6145 -0.3326
  692MOL0     H93387   7.672   8.192  10.262  0.8311 -0.3165 -0.6897
  692MOL0     H93388   7.517   8.023  10.182  2.9665  0.1218 -2.0623
  692MOL0     H93389   7.544   7.921  10.324 -0.6511  0.8552  1.3211
  692MOL0     H93390   7.458   8.207  10.356  2.9899 -0.7105  0.2317
  692MOL0     H93391   7.481   8.070  10.472  4.2544  0.8646 -0.8587
  692MOL0     H93392   7.298   7.943  10.383 -0.5335  0.4145  1.7843
  692MOL0     H93393   7.268   8.055  10.245 -4.4090  2.3050  1.3549
  692MOL0     H93394   7.221   8.099  10.540 -0.5123  0.8134 -0.3868
  692MOL0     H93395   7.233   8.232  10.423  3.3125 -0.1075  2.1870
  692MOL0     H93396   7.026   8.011  10.399  0.7830  0.5027  1.7065
  692MOL0     H93397   7.049   8.151  10.291  1.9387  0.8624  0.5989
  692MOL0     H93398   6.957   8.151  10.595  0.9743  3.5044  1.5049
  692MOL0     H93399   7.037   8.282  10.519  0.6761 -0.6635  3.6197
  692MOL0     H93400   8.013   8.019  10.071  0.3769 -3.3123  1.9093
  692MOL0     H93401   8.155   7.914   9.877 -0.0393 -1.0158  1.3291
  692MOL0     H93402   8.225   7.763   9.496  3.2571 -0.2998  2.8861
  692MOL0     H93403   8.365   7.665   9.321 -1.4949  2.1123 -1.2853
  692MOL0     H93404   7.117   7.111   8.795 -0.1383 -1.0656 -0.7520
  692MOL0     H93405   6.900   7.055   8.901  1.0163  1.4079  0.9797
  692MOL0     H93406   6.610   7.112   9.124  0.0201  2.4001 -0.4417
  692MOL0     H93407   6.443   7.052   9.270  0.6747  0.9005 -0.3199
  692MOL0     H93408   6.149   7.118   9.311  3.3646  0.2856 -2.8373
  692MOL0     H93409   6.239   7.001   9.392  1.6761  2.7242 -0.2323
  692MOL0     H93410   6.002   7.010   9.458 -0.1567  1.2158 -1.2217
  692MOL0     H93411   6.037   6.844   9.399  0.2751 -0.7175 -1.5768
  692MOL0     H93412   5.895   6.881   9.212  1.0195 -0.1139  1.0784
  692MOL0     H93413   5.922   7.060   9.215  2.1491 -1.0780 -1.9565
  692MOL0     H93414   5.748   6.877   9.404 -1.2089 -0.0863 -0.1250
  692MOL0     H93415   5.798   7.034   9.454  1.7720 -1.8389  1.3017
  692MOL0     H93416   5.460   7.052   9.189  0.1807 -1.2206 -1.0696
  692MOL0     H93417   6.155   6.989   8.949 -1.3009  3.0149  0.0509
  692MOL0     H93418   6.352   7.182   8.714 -1.3723  0.5144 -2.1098
  692MOL0     H93419   6.350   7.004   8.678  0.9832 -1.8878  1.1631
  692MOL0     H93420   6.208   7.092   8.732  0.9794  4.3277  1.2897
  693MOL0     O93421   8.502   1.002   1.605 -0.5297 -0.3920 -0.4036
  693MOL0     C93422   8.470   0.991   1.487  0.1863 -0.4219  0.1918
  693MOL0     O93423   8.552   0.967   1.388 -0.1985  0.0815  0.6092
  693MOL0     C93424   8.689   0.979   1.402 -0.3275  1.0712 -1.3611
  693MOL0     C93425   8.764   1.098   1.378  0.8874 -0.7080 -0.0557
  693MOL0     C93426   8.900   1.081   1.360  0.2298 -0.4672  0.3819
  693MOL0     C93427   8.970   0.964   1.386 -0.5255 -0.0226 -0.4509
  693MOL0     O93428   9.107   0.965   1.371  0.8147 -0.5557 -0.1909
  693MOL0     C93429   9.184   0.849   1.411  0.7821 -0.3110 -0.0528
  693MOL0     C93430   9.337   0.884   1.392  0.1896 -0.4008  0.3611
  693MOL0     C93431   9.422   0.759   1.402  0.4334 -0.2601 -0.4310
  693MOL0     C93432   9.566   0.801   1.356  0.0338 -0.0863  0.4189
  693MOL0     C93433   9.665   0.688   1.367  0.4925 -0.2368  0.3980
  693MOL0     C93434   9.644   0.583   1.256 -0.6326 -0.4460  0.4136
  693MOL0     C93435   9.760   0.471   1.245  0.8893 -0.0825  0.1831
  693MOL0     C93436   9.770   0.395   1.376  1.0747 -0.3548  0.1997
  693MOL0     N93437   9.846   0.275   1.370  0.1140 -0.4436  0.7213
  693MOL0     C93438   9.802   0.157   1.320 -0.2012  0.3980  0.4829
  693MOL0     C93439   9.874   0.057   1.369  0.4761 -0.4299  0.2652
  693MOL0     C93440   9.850  -0.098   1.353 -0.2119  0.8577  0.0819
  693MOL0     C93441   9.698  -0.145   1.362 -0.0271 -0.4225  0.3202
  693MOL0     C93442   9.637  -0.117   1.494 -0.6729 -0.0213  0.4544
  693MOL0     C93443   9.489  -0.152   1.495  0.4289  0.1870  0.2591
  693MOL0     O93444   9.428  -0.117   1.625 -0.3002 -0.2762  0.9318
  693MOL0     C93445   9.291  -0.112   1.627 -0.1390  0.4301  0.0228
  693MOL0     C93446   9.214  -0.164   1.524  0.6141  0.6812 -0.9898
  693MOL0     C93447   9.077  -0.155   1.529  0.0928  0.0782 -0.5899
  693MOL0     C93448   9.013  -0.089   1.639 -0.1634  0.4256 -0.2512
  693MOL0     C93449   8.863  -0.081   1.634 -0.7876  0.0651  0.3332
  693MOL0     O93450   8.799  -0.128   1.518  0.0337 -0.4258  0.4787
  693MOL0     C93451   8.664  -0.134   1.506  0.1589 -0.3659  0.1001
  693MOL0     C93452   8.573  -0.027   1.540 -0.0039  0.3339  0.0483
  693MOL0     C93453   8.432  -0.045   1.520 -0.4483  0.2877 -0.3486
  693MOL0     C93454   8.376  -0.167   1.476 -0.5022  1.0675 -0.1028
  693MOL0     O93455   8.241  -0.197   1.478  0.3113  0.4252  0.0874
  693MOL0     C93456   8.209  -0.306   1.558  0.2531 -0.4264 -0.0582
  693MOL0     C93457   8.064  -0.305   1.593  1.1714  0.2757 -0.2576
  693MOL0     C93458   7.981  -0.333   1.458  0.1192  0.3039 -0.2760
  693MOL0     C93459   7.852  -0.400   1.494  0.1941 -0.0303  0.8607
  693MOL0     C93460   7.739  -0.408   1.385  0.3109 -0.3507  0.3393
  693MOL0     C93461   7.687  -0.270   1.348  0.1691  0.0870 -0.3028
  693MOL0     C93462   7.625  -0.198   1.468 -0.8575  0.0600  0.4010
  693MOL0     C93463   7.520  -0.093   1.425 -0.1516 -0.2940  0.7034
  693MOL0    Cl93464   7.599   0.030   1.328 -0.3895 -0.7092  0.0205
  693MOL0     C93465   8.466  -0.267   1.434  0.0229 -0.5450 -0.0703
  693MOL0     C93466   8.609  -0.243   1.434  0.4618 -0.2461  0.3215
  693MOL0     O93467   8.797  -0.042   1.733  0.9371 -0.8671 -0.7336
  693MOL0     C93468   9.094  -0.029   1.738  0.1530 -0.3680  0.6583
  693MOL0     C93469   9.232  -0.044   1.729  0.4447  0.4013  0.3769
  693MOL0     N93470   9.960   0.110   1.457 -0.3924 -0.2826  0.0948
  693MOL0     N93471   9.953   0.243   1.448  0.9272  1.2238 -0.4029
  693MOL0     C93472   8.898   0.848   1.417  0.1775  0.3926 -0.0650
  693MOL0     C93473   8.754   0.859   1.419 -0.7414  0.6793  0.2633
  693MOL0     C93474   8.324   1.006   1.456  0.0998  0.7456 -0.0446
  693MOL0     C93475   8.244   1.074   1.545  0.3911  0.1914  0.4506
  693MOL0     C93476   8.112   1.108   1.510 -0.5872  1.0074 -0.6426
  693MOL0     C93477   8.046   1.061   1.397  0.5222  0.0706 -0.0757
  693MOL0     O93478   7.912   1.086   1.368 -0.0592  0.5476  0.2284
  693MOL0     C93479   7.831   1.065   1.485  0.1446  0.1261  0.1475
  693MOL0     C93480   7.693   1.105   1.444 -0.0973 -0.2243  0.4109
  693MOL0     C93481   7.582   1.059   1.542  0.9091  0.1334  0.4685
  693MOL0     C93482   7.443   1.062   1.471  0.0727  0.1081  0.3558
  693MOL0     C93483   7.342   0.980   1.530  0.1145  0.0409 -0.2236
  693MOL0     C93484   7.252   0.901   1.569  0.1869  0.0742  0.4189
  693MOL0     C93485   8.122   0.998   1.306 -1.1339  0.1591  0.6846
  693MOL0     C93486   8.263   0.971   1.330 -0.1604  0.3582  0.1642
  693MOL0     C93487   8.339   0.903   1.220 -1.2350  1.0212  0.0560
  693MOL0     H93488   8.709   1.190   1.360  3.9862  2.0968  3.4202
  693MOL0     H93489   8.972   1.152   1.322 -0.6562 -0.3746 -1.2414
  693MOL0     H93490   9.163   0.827   1.516 -2.0707  0.8621 -0.2810
  693MOL0     H93491   9.156   0.773   1.337  3.8214 -0.6261 -1.0316
  693MOL0     H93492   9.377   0.955   1.465  0.6122 -0.1132 -0.1430
  693MOL0     H93493   9.352   0.940   1.300  0.1570 -0.3515  0.3855
  693MOL0     H93494   9.380   0.675   1.346  1.8401 -2.0504  1.0276
  693MOL0     H93495   9.423   0.727   1.507  0.9707  1.6213  0.1727
  693MOL0     H93496   9.563   0.847   1.257 -0.5947  0.5174  0.7162
  693MOL0     H93497   9.585   0.883   1.425  0.0482  0.2300  0.0392
  693MOL0     H93498   9.757   0.745   1.349 -2.1249  3.6920 -2.0749
  693MOL0     H93499   9.660   0.652   1.470 -0.0867  2.0214  1.2174
  693MOL0     H93500   9.547   0.536   1.272 -1.8712  2.1025  0.9496
  693MOL0     H93501   9.627   0.645   1.168  0.9713  1.1958  1.1752
  693MOL0     H93502   9.859   0.512   1.222  0.2463  1.4200 -0.0524
  693MOL0     H93503   9.727   0.400   1.168 -0.7480  1.9116 -1.0644
  693MOL0     H93504   9.812   0.466   1.448  0.4847 -1.0950  1.3079
  693MOL0     H93505   9.667   0.363   1.397  1.7920 -3.2216 -0.3065
  693MOL0     H93506   9.723   0.151   1.246  1.6924  0.0531 -1.6124
  693MOL0     H93507   9.894  -0.122   1.255  1.2516  0.5070  0.8023
  693MOL0     H93508   9.912  -0.137   1.434 -1.2079  0.9091  0.8872
  693MOL0     H93509   9.645  -0.083   1.288 -1.7427  0.9490  2.5628
  693MOL0     H93510   9.695  -0.251   1.338  1.0478 -0.7847  1.7074
  693MOL0     H93511   9.637  -0.011   1.524 -1.0872 -0.6544  2.9045
  693MOL0     H93512   9.688  -0.166   1.577  1.2412  2.6101  0.9738
  693MOL0     H93513   9.485  -0.261   1.483 -0.2791  0.1087  1.1329
  693MOL0     H93514   9.451  -0.095   1.410 -0.3471  1.3107  1.3445
  693MOL0     H93515   9.258  -0.204   1.433  0.9651 -2.7987  0.5838
  693MOL0     H93516   9.018  -0.202   1.451 -3.3593  0.9325  1.2738
  693MOL0     H93517   8.618   0.066   1.572  2.6820 -0.9584  0.3079
  693MOL0     H93518   8.374   0.038   1.558  2.3409  1.6690  1.2914
  693MOL0     H93519   8.238  -0.405   1.522  0.4192 -1.1528  1.9460
  693MOL0     H93520   8.259  -0.301   1.654 -1.7414 -1.5005  1.1108
  693MOL0     H93521   8.055  -0.389   1.664  1.8237 -1.5641 -2.2486
  693MOL0     H93522   8.039  -0.211   1.642 -0.5611 -0.0887 -0.3866
  693MOL0     H93523   7.964  -0.235   1.412  1.7906 -0.8331 -3.7121
  693MOL0     H93524   8.037  -0.400   1.393  1.6521  0.0002  1.3029
  693MOL0     H93525   7.811  -0.341   1.576 -0.5377  1.2047 -0.3568
  693MOL0     H93526   7.872  -0.498   1.538 -1.3466 -0.7988 -0.0892
  693MOL0     H93527   7.665  -0.480   1.421 -0.1916  0.1289  0.2760
  693MOL0     H93528   7.780  -0.457   1.296  0.8484 -0.8289  0.8324
  693MOL0     H93529   7.765  -0.210   1.299 -0.0669 -1.2474 -2.4367
  693MOL0     H93530   7.624  -0.289   1.261 -0.6238  1.9018 -0.1692
  693MOL0     H93531   7.699  -0.143   1.526 -0.6774  0.7358 -0.4492
  693MOL0     H93532   7.571  -0.273   1.526 -0.6040 -1.3163 -1.0820
  693MOL0     H93533   7.441  -0.138   1.365  2.6633 -3.0512 -1.2109
  693MOL0     H93534   7.478  -0.043   1.513 -2.2895  2.1128 -1.5254
  693MOL0     H93535   8.411  -0.358   1.411 -1.4969 -2.1095  7.2137
  693MOL0     H93536   8.672  -0.320   1.390 -1.6578 -1.4214 -0.7871
  693MOL0     H93537   9.049   0.023   1.822 -1.8571  0.6762 -0.9822
  693MOL0     H93538   9.285   0.007   1.809  2.8229 -0.4185 -0.5823
  693MOL0     H93539   8.944   0.752   1.439  1.4395  0.8291 -0.7370
  693MOL0     H93540   8.704   0.763   1.434  3.0431 -1.4052  0.9523
  693MOL0     H93541   8.287   1.093   1.643 -1.7558 -0.0641  1.4964
  693MOL0     H93542   8.065   1.162   1.591 -0.5458  0.6275 -0.3608
  693MOL0     H93543   7.857   1.121   1.576 -0.4481 -0.5332  0.7369
  693MOL0     H93544   7.827   0.958   1.508  1.0762 -0.2893 -1.5052
  693MOL0     H93545   7.670   1.068   1.344  0.7175 -2.2269  0.9126
  693MOL0     H93546   7.685   1.214   1.437  3.5242  0.1514  0.3121
  693MOL0     H93547   7.591   1.122   1.630  1.8684 -0.7714  1.0427
  693MOL0     H93548   7.593   0.956   1.578  1.4641 -0.1859 -0.5469
  693MOL0     H93549   7.401   1.163   1.469 -0.1652  0.0172  0.7897
  693MOL0     H93550   7.454   1.022   1.369 -0.6904 -0.4984  0.5090
  693MOL0     H93551   7.167   0.843   1.600  0.4869 -0.4302  0.3028
  693MOL0     H93552   8.075   0.974   1.211  0.0817  3.8463 -1.0420
  693MOL0     H93553   8.386   0.818   1.271 -1.6999  0.6601 -0.1016
  693MOL0     H93554   8.270   0.863   1.145 -0.8520  2.3428 -1.0400
  693MOL0     H93555   8.410   0.969   1.170 -0.6858  0.1521 -0.3353
  694MOL0     O93556   6.464   3.662   7.347 -0.3812 -0.1529  0.8235
  694MOL0     C93557   6.370   3.642   7.268 -0.1219  0.3863 -0.4390
  694MOL0     O93558   6.369   3.673   7.135  0.7415 -0.1966  0.4080
  694MOL0     C93559   6.478   3.743   7.088 -0.0272 -0.4589 -0.5436
  694MOL0     C93560   6.574   3.668   7.029 -0.4245 -0.2860  0.5476
  694MOL0     C93561   6.695   3.729   6.986 -0.0043 -0.7105  0.6373
  694MOL0     C93562   6.722   3.866   7.008 -0.0586 -0.2450  0.4876
  694MOL0     O93563   6.847   3.904   6.975  0.2453  0.2203 -0.0276
  694MOL0     C93564   6.893   4.029   7.032  0.2486 -0.7564 -0.4183
  694MOL0     C93565   7.045   4.040   7.044 -0.4228  0.3359  0.1119
  694MOL0     C93566   7.111   4.033   6.907 -0.6739 -0.6139 -0.1125
  694MOL0     C93567   7.259   3.998   6.917  0.0776  0.6235  1.2361
  694MOL0     C93568   7.329   3.993   6.779 -0.3227 -0.0375  0.5792
  694MOL0     C93569   7.366   4.138   6.731  0.1689 -0.2243 -1.3846
  694MOL0     C93570   7.469   4.110   6.620  0.5784 -1.1304  0.5960
  694MOL0     C93571   7.521   4.240   6.556  0.2126  0.4583  1.0851
  694MOL0     N93572   7.419   4.320   6.487 -0.1196  0.1215 -0.2690
  694MOL0     C93573   7.330   4.285   6.384  0.7255 -0.6296 -0.5440
  694MOL0     C93574   7.251   4.398   6.375 -0.5823  0.1975 -0.2900
  694MOL0     C93575   7.128   4.410   6.289 -0.1360 -0.4678 -0.2177
  694MOL0     C93576   7.006   4.434   6.376  0.4883  0.7352  0.3696
  694MOL0     C93577   6.880   4.456   6.282 -0.0665  0.0014  0.0944
  694MOL0     C93578   6.746   4.440   6.351  0.0110 -0.4157 -0.4299
  694MOL0     O93579   6.730   4.515   6.466  0.2555  0.4465  0.4951
  694MOL0     C93580   6.647   4.470   6.562 -0.2628 -0.5955  0.1306
  694MOL0     C93581   6.703   4.463   6.688  0.1161  0.1836  0.8058
  694MOL0     C93582   6.637   4.400   6.794 -0.0208 -0.7213 -0.7013
  694MOL0     C93583   6.501   4.357   6.771  0.7674  0.3833 -0.8671
  694MOL0     C93584   6.419   4.290   6.883  0.4261  0.2506  0.1289
  694MOL0     O93585   6.306   4.238   6.848 -0.2081  0.0721 -0.1710
  694MOL0     C93586   6.217   4.180   6.942 -0.0983 -0.1376 -0.3063
  694MOL0     C93587   6.142   4.232   7.049 -0.3523 -1.0336 -0.0415
  694MOL0     C93588   6.068   4.148   7.134 -0.6480  0.9620  0.9095
  694MOL0     C93589   6.066   4.010   7.112  0.0833 -0.0538  0.4300
  694MOL0     O93590   5.977   3.933   7.175  0.0487  0.5108 -0.2410
  694MOL0     C93591   5.845   3.948   7.128  0.5584 -0.5926  0.2988
  694MOL0     C93592   5.752   3.868   7.231 -0.2282 -0.4687  0.5906
  694MOL0     C93593   5.600   3.880   7.195 -0.4861 -0.4084  0.1122
  694MOL0     C93594   5.518   3.798   7.289  1.2354  0.0156 -0.7773
  694MOL0     C93595   5.365   3.825   7.267 -0.3639  0.0486  0.6424
  694MOL0     C93596   5.268   3.748   7.356  0.3148 -0.4413 -0.3138
  694MOL0     C93597   5.227   3.806   7.493  0.7362  0.8080  0.4198
  694MOL0     C93598   5.131   3.718   7.571 -0.3550  0.7215 -0.1956
  694MOL0    Cl93599   5.250   3.618   7.662  0.0772 -0.3305  0.2342
  694MOL0     C93600   6.128   3.958   6.999  0.1557  0.1883  0.1799
  694MOL0     C93601   6.202   4.044   6.913 -0.7294  1.0533  0.8427
  694MOL0     O93602   6.464   4.303   7.001  0.6923  0.6292  0.8546
  694MOL0     C93603   6.450   4.353   6.639 -0.1827  0.0229 -0.5633
  694MOL0     C93604   6.522   4.405   6.536 -0.1384  0.1035 -0.0553
  694MOL0     N93605   7.309   4.503   6.447  0.2862  0.1497 -0.1109
  694MOL0     N93606   7.411   4.454   6.519  0.4668 -0.1445  0.3998
  694MOL0     C93607   6.617   3.950   7.066  0.0090 -0.4945  0.5234
  694MOL0     C93608   6.500   3.886   7.111 -0.7752 -0.2823 -0.4063
  694MOL0     C93609   6.256   3.580   7.328  0.0651 -0.6197 -0.1352
  694MOL0     C93610   6.131   3.655   7.322 -0.5644 -0.2287  0.4505
  694MOL0     C93611   6.020   3.618   7.395  1.0373 -0.1391  0.0980
  694MOL0     C93612   6.005   3.492   7.454  0.1056  0.5266  0.1791
  694MOL0     O93613   5.895   3.438   7.506  0.2719  0.1673  0.0815
  694MOL0     C93614   5.774   3.504   7.493 -0.2271 -0.1510  0.7512
  694MOL0     C93615   5.665   3.431   7.578 -0.2019 -0.2424  0.7650
  694MOL0     C93616   5.519   3.450   7.545 -0.0218  0.0428 -0.2394
  694MOL0     C93617   5.487   3.383   7.410  0.0934  0.3905  0.3840
  694MOL0     C93618   5.342   3.378   7.389  0.5524 -0.7454  0.7695
  694MOL0     C93619   5.217   3.386   7.373 -0.8715  1.0685 -0.6863
  694MOL0     C93620   6.113   3.408   7.445  0.6101  0.2439 -1.3457
  694MOL0     C93621   6.238   3.448   7.384  0.3424 -0.7604 -0.8110
  694MOL0     C93622   6.345   3.344   7.380 -0.2731 -0.8848  0.2215
  694MOL0     H93623   6.552   3.562   7.021  0.2229 -0.3556 -0.5636
  694MOL0     H93624   6.777   3.669   6.947 -2.1204 -2.1458 -1.8600
  694MOL0     H93625   6.860   4.114   6.972 -0.2552 -1.2066 -0.7912
  694MOL0     H93626   6.856   4.036   7.134 -0.2416  1.0686 -0.6937
  694MOL0     H93627   7.077   3.954   7.104 -1.4376 -0.1055  0.0572
  694MOL0     H93628   7.081   4.129   7.096  3.4178 -1.1822  0.3783
  694MOL0     H93629   7.093   4.129   6.856  0.8526 -0.3497 -0.2169
  694MOL0     H93630   7.058   3.961   6.844 -1.9669 -1.1466  1.5219
  694MOL0     H93631   7.299   4.075   6.983 -0.3407  0.8698  1.2070
  694MOL0     H93632   7.264   3.901   6.968 -1.7254  0.1856  0.6632
  694MOL0     H93633   7.424   3.938   6.782  1.4128  2.6606 -0.6810
  694MOL0     H93634   7.259   3.944   6.710 -1.6289  2.6027 -0.0807
  694MOL0     H93635   7.276   4.189   6.695 -1.1741 -0.9985  0.6737
  694MOL0     H93636   7.415   4.188   6.815 -1.0628 -0.1085 -0.7111
  694MOL0     H93637   7.411   4.055   6.546 -0.4176  0.1562  0.3874
  694MOL0     H93638   7.560   4.053   6.642  3.4575  2.0334 -1.9989
  694MOL0     H93639   7.567   4.298   6.638  0.0507  0.3529  1.2500
  694MOL0     H93640   7.603   4.209   6.490  3.0895  2.4815  3.4002
  694MOL0     H93641   7.318   4.188   6.336  3.0609 -1.5993  0.6780
  694MOL0     H93642   7.144   4.503   6.233 -1.0837  0.3616  0.8223
  694MOL0     H93643   7.117   4.317   6.234 -2.6824 -1.1219  1.2439
  694MOL0     H93644   6.979   4.355   6.446  0.7372  1.8287  1.7487
  694MOL0     H93645   7.011   4.527   6.434 -2.2017  0.0512  1.8932
  694MOL0     H93646   6.892   4.383   6.203  2.5316  1.6720 -1.1783
  694MOL0     H93647   6.878   4.552   6.230 -0.2709  0.6506  1.2409
  694MOL0     H93648   6.731   4.335   6.379  0.7155 -0.5373 -0.4930
  694MOL0     H93649   6.664   4.470   6.286  0.1863 -0.5007 -0.6925
  694MOL0     H93650   6.798   4.512   6.704  1.0403 -0.7041 -1.5840
  694MOL0     H93651   6.677   4.400   6.894 -0.9981  0.0505 -0.2917
  694MOL0     H93652   6.151   4.334   7.083 -1.5269 -0.1147 -2.2936
  694MOL0     H93653   6.016   4.183   7.223  2.5365  4.2914  1.6702
  694MOL0     H93654   5.811   4.052   7.123 -1.3497 -1.2043 -0.4137
  694MOL0     H93655   5.831   3.898   7.032 -3.4667 -0.9656  0.8986
  694MOL0     H93656   5.788   3.766   7.216  0.3157  0.0864 -2.5025
  694MOL0     H93657   5.777   3.905   7.331 -1.4128  0.0490  0.7040
  694MOL0     H93658   5.573   3.986   7.205 -0.5803 -0.4070 -0.1329
  694MOL0     H93659   5.576   3.840   7.096 -3.3464 -2.3493  1.4603
  694MOL0     H93660   5.536   3.821   7.394 -1.9618  0.1831 -0.1704
  694MOL0     H93661   5.547   3.693   7.294 -2.2242 -0.9931  3.2034
  694MOL0     H93662   5.349   3.798   7.162  1.1497  1.4069  0.0299
  694MOL0     H93663   5.351   3.933   7.278  0.6081  0.3845 -1.0254
  694MOL0     H93664   5.170   3.742   7.308 -0.8320  2.1339  1.4429
  694MOL0     H93665   5.302   3.645   7.372  1.3766  0.0195  0.5226
  694MOL0     H93666   5.168   3.893   7.462 -2.3140 -1.5138 -0.8651
  694MOL0     H93667   5.305   3.835   7.563  0.6287  1.6597  0.1932
  694MOL0     H93668   5.073   3.765   7.651 -1.0585  0.6227 -0.6457
  694MOL0     H93669   5.064   3.657   7.511  0.5289 -0.6738  0.1704
  694MOL0     H93670   6.126   3.858   6.957  0.2240  0.5383 -0.6911
  694MOL0     H93671   6.272   4.005   6.840  2.0367  2.4571  2.5582
  694MOL0     H93672   6.355   4.306   6.618 -0.0062  0.4855 -2.5643
  694MOL0     H93673   6.480   4.393   6.436 -2.8446  3.2502  0.5079
  694MOL0     H93674   6.645   4.054   7.081  0.2479 -0.2716 -1.2474
  694MOL0     H93675   6.442   3.964   7.159  0.7469  1.8779 -1.9167
  694MOL0     H93676   6.128   3.745   7.262 -0.3618 -0.6494 -0.2062
  694MOL0     H93677   5.930   3.679   7.399  0.9999 -0.2340  2.3339
  694MOL0     H93678   5.746   3.507   7.388  1.1351 -0.2895  0.3598
  694MOL0     H93679   5.770   3.608   7.527 -0.9146  0.4205 -0.9597
  694MOL0     H93680   5.677   3.439   7.687  1.6500  0.2905  0.5498
  694MOL0     H93681   5.690   3.327   7.555  0.7503 -0.0462  0.8945
  694MOL0     H93682   5.498   3.557   7.541 -0.3638  0.0104  0.4724
  694MOL0     H93683   5.450   3.407   7.619  0.1461  1.9578  1.0974
  694MOL0     H93684   5.545   3.441   7.337  1.2533 -2.1091 -0.8086
  694MOL0     H93685   5.522   3.280   7.401 -0.0203  0.3125  0.8242
  694MOL0     H93686   5.111   3.374   7.364 -1.6084  3.1293  3.1174
  694MOL0     H93687   6.107   3.307   7.482  0.0492  1.5997  2.7230
  694MOL0     H93688   6.326   3.275   7.297 -0.4064 -1.7398  0.9571
  694MOL0     H93689   6.443   3.388   7.361 -0.1970 -1.2690 -0.2975
  694MOL0     H93690   6.361   3.298   7.477 -0.6910 -0.4480  0.5016
  695MOL0     O93691   9.538   2.716   1.967  0.1514  0.1443  0.4626
  695MOL0     C93692   9.485   2.751   1.861  0.7035  0.2459  0.1492
  695MOL0     O93693   9.554   2.824   1.775  0.4545 -0.0026  0.2720
  695MOL0     C93694   9.692   2.824   1.782  0.1411 -0.4687 -0.1714
  695MOL0     C93695   9.760   2.755   1.688  0.4896  0.2128  0.8326
  695MOL0     C93696   9.901   2.757   1.693 -0.3673 -0.0990 -0.3991
  695MOL0     C93697   9.972   2.833   1.789  0.2218 -0.4645  0.1464
  695MOL0     O93698  10.104   2.832   1.767 -0.0827  0.2966  0.0057
  695MOL0     C93699  10.176   2.947   1.811 -0.1824 -0.2151  1.4645
  695MOL0     C93700  10.327   2.931   1.794  1.3202 -0.0111  0.7953
  695MOL0     C93701  10.379   2.825   1.880 -0.4341  0.0037 -0.0881
  695MOL0     C93702  10.533   2.814   1.869  0.2359 -0.0064 -0.0456
  695MOL0     C93703  10.584   2.680   1.934 -0.2937  0.0180 -0.2709
  695MOL0     C93704  10.556   2.676   2.089 -0.0697  0.3783 -0.0576
  695MOL0     C93705  10.636   2.563   2.155 -0.3529 -0.1178 -0.4285
  695MOL0     C93706  10.592   2.553   2.305 -0.4400  0.1045  0.0524
  695MOL0     N93707  10.636   2.667   2.385  0.5615 -0.5169 -0.8178
  695MOL0     C93708  10.555   2.744   2.465  0.3813  0.0103 -0.0629
  695MOL0     C93709  10.633   2.817   2.542  0.6261 -0.0597  0.4714
  695MOL0     C93710  10.587   2.919   2.646 -0.2302  0.2008  1.1597
  695MOL0     C93711  10.523   3.040   2.569 -0.7029 -0.0217  0.7858
  695MOL0     C93712  10.640   3.113   2.492  0.5631 -0.4417  0.5781
  695MOL0     C93713  10.590   3.256   2.448  0.1648  0.7778 -0.5455
  695MOL0     O93714  10.555   3.342   2.564 -0.2637 -0.9353 -0.2440
  695MOL0     C93715  10.527   3.476   2.550  0.3903  0.2926  0.0674
  695MOL0     C93716  10.499   3.564   2.661 -0.0731  0.4930  0.4181
  695MOL0     C93717  10.444   3.690   2.639  0.2790 -0.5960  0.0919
  695MOL0     C93718  10.438   3.749   2.513  0.5811  0.1576  0.2094
  695MOL0     C93719  10.378   3.885   2.482 -0.3266  0.6775 -0.0009
  695MOL0     O93720  10.323   3.905   2.365  0.5493 -0.2533  0.9135
  695MOL0     C93721  10.270   4.031   2.356  0.5048 -0.2546 -0.8022
  695MOL0     C93722  10.142   4.048   2.414 -0.0593  0.4880 -0.6310
  695MOL0     C93723  10.101   4.182   2.425  0.7343 -0.3333  0.5365
  695MOL0     C93724  10.169   4.286   2.368 -0.3324 -0.4289 -0.4230
  695MOL0     O93725  10.111   4.411   2.383  0.0978  0.3391 -0.1974
  695MOL0     C93726  10.157   4.517   2.306 -0.7988 -0.1209 -0.5502
  695MOL0     C93727  10.107   4.498   2.165 -0.1537  0.5260  0.8396
  695MOL0     C93728   9.953   4.483   2.154  0.0495 -0.5227 -0.3585
  695MOL0     C93729   9.911   4.482   2.003  0.6031  0.1391  0.2045
  695MOL0     C93730   9.761   4.485   1.975  0.5019  0.1529  0.0314
  695MOL0     C93731   9.699   4.611   2.029 -0.1848 -0.5518 -1.1264
  695MOL0     C93732   9.635   4.581   2.168 -0.3637  0.5185  0.2605
  695MOL0     C93733   9.522   4.674   2.196  0.4715 -0.6322 -0.3734
  695MOL0    Cl93734   9.445   4.624   2.344 -0.1135  0.3725 -0.0657
  695MOL0     C93735  10.297   4.270   2.308 -0.2868  0.0893  0.7127
  695MOL0     C93736  10.350   4.141   2.307  0.3089  0.4673  0.4256
  695MOL0     O93737  10.383   3.968   2.574 -0.7443 -0.0416  0.4327
  695MOL0     C93738  10.478   3.665   2.400  0.3726 -0.4211  0.4305
  695MOL0     C93739  10.520   3.537   2.421  0.4903  0.4374 -0.5300
  695MOL0     N93740  10.766   2.774   2.523  0.0972 -0.0119  0.5133
  695MOL0     N93741  10.762   2.689   2.429 -0.6379 -0.3585  0.0821
  695MOL0     C93742   9.898   2.906   1.884 -0.1337 -1.0197  0.5821
  695MOL0     C93743   9.760   2.897   1.880  0.3321  0.4882  0.1199
  695MOL0     C93744   9.344   2.711   1.836 -0.2181 -0.4348 -0.0325
  695MOL0     C93745   9.261   2.685   1.939  0.2999 -0.0109 -0.5782
  695MOL0     C93746   9.121   2.668   1.921 -0.0056 -0.0273 -0.5898
  695MOL0     C93747   9.066   2.676   1.793  0.9610 -0.1885 -0.3405
  695MOL0     O93748   8.926   2.667   1.779  0.7007  0.5049  0.0756
  695MOL0     C93749   8.891   2.587   1.662  0.4624  0.2459  0.2339
  695MOL0     C93750   8.749   2.521   1.665  0.3960 -0.0395  1.0138
  695MOL0     C93751   8.706   2.485   1.516 -0.5730 -0.1806 -0.0401
  695MOL0     C93752   8.562   2.455   1.507  0.6189  0.2154  0.1530
  695MOL0     C93753   8.517   2.348   1.597  0.3867  0.1270 -0.3015
  695MOL0     C93754   8.497   2.267   1.673  1.0632  0.5590 -0.7132
  695MOL0     C93755   9.144   2.710   1.683  0.3527  0.4271  1.1214
  695MOL0     C93756   9.285   2.718   1.702  0.4079 -0.1582 -0.4641
  695MOL0     C93757   9.367   2.724   1.566  0.7773  0.0656 -0.1970
  695MOL0     H93758   9.722   2.691   1.609  3.3094  0.1223 -0.6014
  695MOL0     H93759   9.954   2.708   1.612 -1.1937  0.2082 -1.1379
  695MOL0     H93760  10.132   3.028   1.753 -2.1474 -1.6608  0.8292
  695MOL0     H93761  10.161   2.965   1.917  2.0053 -2.9061  2.3674
  695MOL0     H93762  10.369   3.028   1.821  1.0894 -0.7843  4.5606
  695MOL0     H93763  10.343   2.913   1.688 -0.0916  0.8137  0.4328
  695MOL0     H93764  10.332   2.729   1.859 -2.5523  0.8817  0.4081
  695MOL0     H93765  10.346   2.853   1.981 -0.3845 -0.2146 -0.0119
  695MOL0     H93766  10.563   2.823   1.765  0.9916 -1.7261 -0.0126
  695MOL0     H93767  10.570   2.899   1.927 -1.5946 -0.2362  1.5910
  695MOL0     H93768  10.531   2.594   1.891 -0.6220  0.2261 -0.2903
  695MOL0     H93769  10.692   2.672   1.915  0.1030 -0.9294  2.1136
  695MOL0     H93770  10.581   2.774   2.131  0.4042  0.5503 -0.7297
  695MOL0     H93771  10.450   2.664   2.113  0.1486 -0.9106  0.3585
  695MOL0     H93772  10.740   2.592   2.138 -0.4868 -0.0559 -1.1655
  695MOL0     H93773  10.619   2.463   2.114  0.0443 -0.9452  1.3568
  695MOL0     H93774  10.484   2.536   2.311  0.0521 -3.4242  1.5980
  695MOL0     H93775  10.638   2.464   2.349 -0.8632 -0.6899 -1.0838
  695MOL0     H93776  10.446   2.744   2.465  0.3786  0.2883  0.3127
  695MOL0     H93777  10.501   2.872   2.695 -1.4930  2.0593  0.8445
  695MOL0     H93778  10.666   2.951   2.714  1.9690 -0.8752 -0.7411
  695MOL0     H93779  10.453   3.001   2.493  0.5062 -0.3763 -0.1741
  695MOL0     H93780  10.464   3.107   2.632 -2.4431  0.8313 -1.5706
  695MOL0     H93781  10.672   3.051   2.408 -4.3619 -0.6589 -1.4780
  695MOL0     H93782  10.726   3.135   2.556  0.3356  0.4975  0.5770
  695MOL0     H93783  10.497   3.248   2.391 -2.6682  3.0025  3.2910
  695MOL0     H93784  10.664   3.303   2.382  1.3234  2.1983  1.6478
  695MOL0     H93785  10.490   3.524   2.761 -3.7236 -1.9574 -0.6951
  695MOL0     H93786  10.406   3.741   2.727 -0.7894 -2.3392  0.6993
  695MOL0     H93787  10.087   3.961   2.449 -0.9994  1.1902 -0.3209
  695MOL0     H93788  10.006   4.206   2.471 -1.2580 -3.0918 -1.8516
  695MOL0     H93789  10.133   4.613   2.353  0.6507 -0.2091  0.4670
  695MOL0     H93790  10.267   4.524   2.307 -0.8034  0.6140  1.7392
  695MOL0     H93791  10.132   4.582   2.099 -3.6894 -0.2874 -1.8281
  695MOL0     H93792  10.145   4.409   2.114  0.2147  0.7931  0.6450
  695MOL0     H93793   9.920   4.391   2.204  1.3633 -0.0634  1.4567
  695MOL0     H93794   9.916   4.573   2.204  1.4868 -0.7761  1.2513
  695MOL0     H93795   9.957   4.396   1.954 -0.1240 -0.6289  0.8398
  695MOL0     H93796   9.955   4.578   1.972 -0.9458  1.0407  0.6770
  695MOL0     H93797   9.715   4.398   2.023  0.2765  0.4838  0.4216
  695MOL0     H93798   9.730   4.476   1.871 -0.2721  0.6808  0.2076
  695MOL0     H93799   9.773   4.691   2.040 -1.1232  0.4778 -1.9371
  695MOL0     H93800   9.630   4.658   1.958 -0.6595  1.1972  0.4126
  695MOL0     H93801   9.711   4.604   2.243 -0.3869 -0.8778  0.7406
  695MOL0     H93802   9.603   4.476   2.178  0.3275  0.2240 -0.4939
  695MOL0     H93803   9.546   4.780   2.205  1.9984 -0.8263 -1.6508
  695MOL0     H93804   9.453   4.672   2.110  0.4399 -2.0267 -0.3428
  695MOL0     H93805  10.354   4.350   2.262 -2.6590  2.2208  1.2914
  695MOL0     H93806  10.446   4.112   2.266  0.7380 -1.0404  2.3410
  695MOL0     H93807  10.455   3.696   2.299 -0.4511  1.0925  1.0587
  695MOL0     H93808  10.538   3.471   2.337 -0.1709 -1.0525  0.4503
  695MOL0     H93809   9.942   2.960   1.967  0.1842  3.2980 -2.0834
  695MOL0     H93810   9.697   2.950   1.951 -2.9347 -2.4843 -0.2475
  695MOL0     H93811   9.308   2.675   2.036  1.2187  0.0147 -1.0172
  695MOL0     H93812   9.073   2.644   2.015  1.4052  0.5346  0.3142
  695MOL0     H93813   8.962   2.505   1.650  1.0281  0.7185  0.2773
  695MOL0     H93814   8.896   2.641   1.567  0.0965 -1.4140 -0.7696
  695MOL0     H93815   8.681   2.594   1.709 -2.3366 -1.9783  0.2572
  695MOL0     H93816   8.742   2.438   1.735 -0.8411  0.2564  1.2675
  695MOL0     H93817   8.764   2.398   1.485  0.0445  1.1468 -2.9943
  695MOL0     H93818   8.726   2.573   1.454 -0.5703  0.2827  0.6075
  695MOL0     H93819   8.507   2.546   1.532  0.9786  0.4758  0.0143
  695MOL0     H93820   8.537   2.439   1.402 -0.0585  1.0529  0.1701
  695MOL0     H93821   8.476   2.185   1.739 -0.9715 -0.3014 -2.3344
  695MOL0     H93822   9.098   2.716   1.585  1.4948 -0.8423  0.4812
  695MOL0     H93823   9.437   2.640   1.563  0.0393 -0.5130 -1.5387
  695MOL0     H93824   9.297   2.719   1.483 -0.9098  0.9891  1.1049
  695MOL0     H93825   9.416   2.822   1.572 -1.5239  1.2091  1.9028
  696MOL0     O93826   0.747   9.916   7.087 -0.1417 -0.1568 -0.6864
  696MOL0     C93827   0.699  10.015   7.045 -0.2597  0.6036  0.3311
  696MOL0     O93828   0.765  10.104   6.959  0.2496  0.0972 -0.0058
  696MOL0     C93829   0.884  10.078   6.889  0.1299  0.2898  0.5142
  696MOL0     C93830   1.005  10.122   6.928 -0.2357 -0.0554 -0.1787
  696MOL0     C93831   1.108  10.107   6.838 -0.3398  0.0681 -0.0983
  696MOL0     C93832   1.089  10.061   6.709 -0.6195  0.3539  0.0150
  696MOL0     O93833   1.192  10.050   6.623 -0.5272  0.2363  1.0660
  696MOL0     C93834   1.312   9.988   6.679 -0.1224 -0.0790  0.4587
  696MOL0     C93835   1.427  10.088   6.709 -0.0695 -0.2452 -0.3562
  696MOL0     C93836   1.546  10.011   6.773  0.2040  0.2940  0.9016
  696MOL0     C93837   1.653  10.106   6.827 -0.5098 -0.2210 -0.6574
  696MOL0     C93838   1.762  10.145   6.728  0.4129  1.0580  0.3005
  696MOL0     C93839   1.850  10.261   6.765  0.3966 -0.0536  0.2301
  696MOL0     C93840   1.976  10.280   6.671  0.6421 -0.7766  0.6640
  696MOL0     C93841   1.936  10.270   6.520  0.3042  0.2775 -0.2094
  696MOL0     N93842   2.038  10.318   6.431 -0.8428  0.2650 -0.0407
  696MOL0     C93843   2.021  10.403   6.325 -0.3725 -0.0691  0.3005
  696MOL0     C93844   2.146  10.410   6.265 -0.3314 -0.8983 -0.0946
  696MOL0     C93845   2.182  10.501   6.153 -0.4257  0.1613  0.4468
  696MOL0     C93846   2.146  10.647   6.196  0.1120  0.0958  0.0391
  696MOL0     C93847   2.231  10.753   6.119 -0.2727  0.1442  0.2413
  696MOL0     C93848   2.373  10.759   6.189  0.4929  0.1741 -0.3835
  696MOL0     O93849   2.370  10.825   6.319  1.1928  0.2392  0.0976
  696MOL0     C93850   2.486  10.837   6.381  0.2890 -0.0388 -0.3491
  696MOL0     C93851   2.486  10.902   6.508  0.1515 -0.0766  0.4675
  696MOL0     C93852   2.602  10.921   6.579 -0.6169 -0.2073 -0.1851
  696MOL0     C93853   2.723  10.869   6.534  0.2371  0.5307 -0.2625
  696MOL0     C93854   2.833  10.861   6.627  0.4678 -0.5565 -0.1979
  696MOL0     O93855   2.937  10.793   6.582  0.1993  0.2347 -0.1667
  696MOL0     C93856   3.043  10.766   6.665  0.2590 -0.3838  0.6526
  696MOL0     C93857   3.153  10.847   6.671 -0.8934  0.5086 -0.1516
  696MOL0     C93858   3.263  10.816   6.747 -0.4397  0.0426 -0.1288
  696MOL0     C93859   3.255  10.707   6.836 -1.3314 -0.2914  0.3840
  696MOL0     O93860   3.357  10.662   6.916  0.5430 -0.2859  0.1481
  696MOL0     C93861   3.491  10.711   6.894 -0.2074 -0.6260  0.4889
  696MOL0     C93862   3.593  10.617   6.955  0.0861 -0.5998 -0.7123
  696MOL0     C93863   3.739  10.654   6.917 -0.1410  0.0627  0.1868
  696MOL0     C93864   3.839  10.566   6.987 -0.0848  0.7170 -0.1629
  696MOL0     C93865   3.983  10.582   6.940 -0.6701  0.4229 -0.0300
  696MOL0     C93866   4.076  10.484   7.019 -0.2188  0.4719 -0.3580
  696MOL0     C93867   4.221  10.489   6.979 -0.3207 -0.0713 -0.2092
  696MOL0     C93868   4.289  10.629   7.005 -0.0893  0.3418  0.2438
  696MOL0    Cl93869   4.277  10.654   7.186  0.1531 -0.2835  0.2363
  696MOL0     C93870   3.134  10.636   6.846  0.3586 -0.5613  0.3341
  696MOL0     C93871   3.034  10.661   6.752  0.7941 -0.2264  0.9212
  696MOL0     O93872   2.828  10.918   6.736 -0.8928 -0.0555  0.4363
  696MOL0     C93873   2.723  10.805   6.408 -0.4932 -0.1125 -0.2609
  696MOL0     C93874   2.607  10.778   6.338 -0.5842 -0.4198 -0.2029
  696MOL0     N93875   2.238  10.339   6.339 -0.1344  0.2453  0.3845
  696MOL0     N93876   2.171  10.278   6.432  0.0878  0.0907 -0.2013
  696MOL0     C93877   0.965  10.026   6.665  0.2684  0.2876  0.4197
  696MOL0     C93878   0.866  10.027   6.761  0.1127 -0.0719 -0.3000
  696MOL0     C93879   0.575  10.070   7.107  0.2306  0.2841  0.4910
  696MOL0     C93880   0.545  10.210   7.118 -0.1560 -0.1028 -0.6043
  696MOL0     C93881   0.419  10.264   7.165 -0.2354  0.2198 -0.2352
  696MOL0     C93882   0.318  10.172   7.181 -0.0976 -0.2960  0.0265
  696MOL0     O93883   0.185  10.208   7.198 -0.8253 -0.3102 -0.0166
  696MOL0     C93884   0.118  10.221   7.069  0.4454  0.1707 -0.9867
  696MOL0     C93885  -0.031  10.228   7.082  0.6551 -0.6491 -0.7832
  696MOL0     C93886  -0.079  10.370   7.082  0.1415  0.4065 -0.3194
  696MOL0     C93887  -0.230  10.379   7.118 -0.7289 -0.4843  0.7183
  696MOL0     C93888  -0.309  10.278   7.042  0.2170 -0.5766 -0.3514
  696MOL0     C93889  -0.374  10.200   6.990  0.6088 -0.1043 -0.1173
  696MOL0     C93890   0.337  10.033   7.160 -0.3208 -0.0819  0.0752
  696MOL0     C93891   0.463   9.985   7.124 -0.2257  0.2290 -0.2943
  696MOL0     C93892   0.472   9.833   7.111  0.1100  0.8400  0.8751
  696MOL0     H93893   1.024  10.155   7.029  0.0423 -0.4509 -0.1040
  696MOL0     H93894   1.208  10.141   6.863  0.4510 -0.8204 -1.9531
  696MOL0     H93895   1.284   9.938   6.772  0.6095  1.0398  1.3060
  696MOL0     H93896   1.352   9.918   6.605 -0.7710 -0.4821  0.4842
  696MOL0     H93897   1.392  10.164   6.779 -4.7305  0.4943 -3.0633
  696MOL0     H93898   1.461  10.144   6.621  0.8523  1.4452  1.0056
  696MOL0     H93899   1.590   9.933   6.711 -1.3012 -0.2017  0.4084
  696MOL0     H93900   1.516   9.956   6.863  0.0159  1.3272  1.4885
  696MOL0     H93901   1.611  10.192   6.880 -1.1431 -0.8105 -0.1891
  696MOL0     H93902   1.702  10.052   6.908 -2.3300 -2.2091 -0.7855
  696MOL0     H93903   1.828  10.059   6.716  0.2173  0.8015  1.0356
  696MOL0     H93904   1.724  10.164   6.627  1.1319 -0.7447 -0.3491
  696MOL0     H93905   1.781  10.345   6.754  0.2146 -0.4359 -1.8904
  696MOL0     H93906   1.877  10.258   6.871  1.6284 -1.6207 -0.0914
  696MOL0     H93907   2.054  10.208   6.698  1.3155 -0.0575  0.6502
  696MOL0     H93908   2.020  10.378   6.688 -0.6564  0.2191 -1.2793
  696MOL0     H93909   1.909  10.169   6.489 -0.4625 -0.2010  1.8025
  696MOL0     H93910   1.843  10.324   6.504 -0.7420 -0.5654  2.4781
  696MOL0     H93911   1.935  10.462   6.297 -1.4869 -1.9964 -0.5749
  696MOL0     H93912   2.288  10.488   6.128 -0.4917  0.3369  0.0717
  696MOL0     H93913   2.119  10.460   6.074  0.4268 -1.4425  0.5729
  696MOL0     H93914   2.041  10.677   6.187 -0.4325 -1.7248 -0.0998
  696MOL0     H93915   2.165  10.659   6.304 -0.0522 -0.1126  0.0923
  696MOL0     H93916   2.178  10.848   6.124  1.0856  1.0264 -1.2421
  696MOL0     H93917   2.235  10.729   6.012  0.8933 -1.4093  0.5924
  696MOL0     H93918   2.430  10.823   6.120  0.5536  1.8152  1.1271
  696MOL0     H93919   2.421  10.661   6.200  1.9704  0.8063 -0.8412
  696MOL0     H93920   2.393  10.935   6.553  0.2987  0.1349  0.6184
  696MOL0     H93921   2.594  10.968   6.676 -1.2075  3.3137 -1.7830
  696MOL0     H93922   3.143  10.933   6.607  0.0735 -0.2024 -1.3056
  696MOL0     H93923   3.350  10.881   6.747 -0.4236  0.1393  3.0538
  696MOL0     H93924   3.509  10.726   6.787  1.7858  0.3833  0.9262
  696MOL0     H93925   3.499  10.806   6.947  1.2883 -0.1250 -0.5863
  696MOL0     H93926   3.599  10.632   7.063  2.8699 -1.5636 -0.6604
  696MOL0     H93927   3.564  10.516   6.925 -2.9960  0.7617 -2.8158
  696MOL0     H93928   3.729  10.618   6.814 -1.1661  0.3222  0.1826
  696MOL0     H93929   3.770  10.759   6.917  0.1443 -0.0158  0.8757
  696MOL0     H93930   3.819  10.461   6.964 -0.7769  1.0215 -0.9745
  696MOL0     H93931   3.829  10.577   7.096 -1.1829 -0.5991 -0.1104
  696MOL0     H93932   4.021  10.684   6.948  0.4457  0.4938 -3.8750
  696MOL0     H93933   3.976  10.563   6.832  1.2468 -0.5174 -0.0340
  696MOL0     H93934   4.073  10.499   7.128  0.2819  2.0936 -0.5368
  696MOL0     H93935   4.039  10.381   7.016  0.1970  0.0929  3.0370
  696MOL0     H93936   4.231  10.475   6.871 -1.6314  0.8683 -0.4706
  696MOL0     H93937   4.282  10.409   7.023  2.3469  1.4968 -0.8459
  696MOL0     H93938   4.396  10.629   6.981  0.4966 -1.5044  2.3955
  696MOL0     H93939   4.238  10.708   6.950  1.1383  1.2638  0.3923
  696MOL0     H93940   3.123  10.553   6.915  0.0230  0.5452  1.6542
  696MOL0     H93941   2.939  10.609   6.759 -0.8942  2.7609  2.2931
  696MOL0     H93942   2.816  10.761   6.373 -1.3875 -0.0018 -3.0175
  696MOL0     H93943   2.613  10.732   6.240  1.5661  0.3858 -0.4824
  696MOL0     H93944   0.950   9.994   6.562 -1.6402  3.0456 -0.2890
  696MOL0     H93945   0.760  10.005   6.749 -0.0671  1.0750 -1.0127
  696MOL0     H93946   0.622  10.284   7.098 -0.4206  1.6689  3.8848
  696MOL0     H93947   0.423  10.371   7.178  1.7379  0.2456 -0.7276
  696MOL0     H93948   0.144  10.139   7.000  3.2896  1.1646 -1.2336
  696MOL0     H93949   0.162  10.310   7.024  3.4407 -0.7833 -0.2084
  696MOL0     H93950  -0.060  10.183   7.178  0.4322  1.2481  0.0869
  696MOL0     H93951  -0.071  10.174   6.995  0.2496 -1.8832  0.1298
  696MOL0     H93952  -0.048  10.410   6.985  2.3374 -0.6336 -0.1249
  696MOL0     H93953  -0.013  10.426   7.148 -1.7303  0.5187  1.5648
  696MOL0     H93954  -0.235  10.350   7.223  1.7541 -0.4419  0.9055
  696MOL0     H93955  -0.268  10.481   7.108 -1.9368 -0.9102  0.9165
  696MOL0     H93956  -0.418  10.125   6.927  1.5151  0.4886 -1.5068
  696MOL0     H93957   0.253   9.964   7.156 -0.7994  0.4121  1.2912
  696MOL0     H93958   0.518   9.807   7.015 -0.4109  0.5685  0.6948
  696MOL0     H93959   0.533   9.791   7.192  1.5909  1.0391 -0.1123
  696MOL0     H93960   0.379   9.775   7.109  1.2908 -1.1783 -1.8795
  697MOL0     O93961  10.726   2.871  10.748  0.5277  0.2063  0.2933
  697MOL0     C93962  10.752   2.986  10.722 -0.3397  0.4332 -0.4401
  697MOL0     O93963  10.876   3.033  10.704  0.4305 -0.4544  0.3285
  697MOL0     C93964  10.981   2.946  10.716 -0.8376 -0.2515  0.6606
  697MOL0     C93965  11.078   2.968  10.814 -0.8204 -0.2643  0.5439
  697MOL0     C93966  11.184   2.894  10.828 -0.2215  0.1039 -0.5477
  697MOL0     C93967  11.218   2.795  10.734 -0.6753  0.0807 -0.7757
  697MOL0     O93968  11.332   2.716  10.733 -0.9411  0.1606  0.1293
  697MOL0     C93969  11.375   2.662  10.858 -0.3317  0.4123 -0.3689
  697MOL0     C93970  11.484   2.559  10.836  0.5281 -0.5606  0.2031
  697MOL0     C93971  11.457   2.435  10.738  0.1139 -1.1393 -0.2184
  697MOL0     C93972  11.582   2.345  10.734 -0.4266 -0.3208  0.3035
  697MOL0     C93973  11.711   2.415  10.687  0.1371 -0.1456 -0.2865
  697MOL0     C93974  11.810   2.321  10.628 -0.9082  0.6394  0.0831
  697MOL0     C93975  11.949   2.374  10.626 -0.5822 -1.0055  0.4357
  697MOL0     C93976  12.011   2.395  10.759 -0.2144  0.7139  0.2237
  697MOL0     N93977  12.025   2.272  10.840  0.6399  0.1212  0.2930
  697MOL0     C93978  12.133   2.187  10.836 -0.3718 -0.2609  0.3250
  697MOL0     C93979  12.121   2.102  10.937  0.5778  0.8282 -0.0595
  697MOL0     C93980  12.218   1.998  10.983  1.3170  0.6566 -0.6833
  697MOL0     C93981  12.335   2.070  11.045  0.5915 -0.4461  0.3944
  697MOL0     C93982  12.469   2.000  11.026 -0.1733 -0.0246 -0.0788
  697MOL0     C93983  12.587   2.082  11.075  0.1279 -0.5846 -0.0954
  697MOL0     O93984  12.713   2.022  11.024 -0.0752 -0.7329  0.2191
  697MOL0     C93985  12.830   2.057  11.085  0.3511 -1.0363 -0.1564
  697MOL0     C93986  12.843   2.157  11.187 -0.5528  0.0813  0.9988
  697MOL0     C93987  12.968   2.176  11.247  0.9117 -0.6250 -0.7715
  697MOL0     C93988  13.067   2.083  11.225  0.2976  0.3239 -0.2707
  697MOL0     C93989  13.187   2.091  11.307 -0.1543 -0.4637  0.6453
  697MOL0     O93990  13.258   1.978  11.318 -0.0664 -0.0515 -0.3566
  697MOL0     C93991  13.351   1.966  11.426 -0.2518  0.2411 -0.1092
  697MOL0     C93992  13.305   1.969  11.560  0.2946 -0.5235  0.4963
  697MOL0     C93993  13.395   1.966  11.664  0.4389 -0.1889 -0.5076
  697MOL0     C93994  13.534   1.981  11.640 -0.7270 -0.3225  0.4783
  697MOL0     O93995  13.630   1.985  11.735  0.3632  0.4951 -0.1001
  697MOL0     C93996  13.611   1.907  11.855  0.3365 -0.1641  0.8797
  697MOL0     C93997  13.750   1.887  11.923  0.2787 -0.1951  0.0716
  697MOL0     C93998  13.802   2.017  11.988  0.4500  0.0715  0.3615
  697MOL0     C93999  13.940   1.998  12.052 -0.0970  0.1430  0.6200
  697MOL0     C94000  14.051   2.024  11.947  0.7765  0.0043  0.1063
  697MOL0     C94001  14.165   2.095  12.016  0.4938 -0.0741  0.7666
  697MOL0     C94002  14.236   2.014  12.130  0.7870  0.6225  0.7945
  697MOL0     C94003  14.337   2.095  12.205  0.1684  0.3300  0.1743
  697MOL0    Cl94004  14.252   2.240  12.277 -0.1837 -0.2408  0.0769
  697MOL0     C94005  13.580   1.988  11.507 -1.0459  0.2587 -0.7392
  697MOL0     C94006  13.489   1.974  11.402 -1.3139 -0.6419  0.4051
  697MOL0     O94007  13.227   2.206  11.342 -0.0901  0.0761  0.1091
  697MOL0     C94008  13.051   1.992  11.128 -0.5632 -0.4628 -0.3855
  697MOL0     C94009  12.936   1.978  11.051  0.1250 -1.0076 -0.4579
  697MOL0     N94010  12.008   2.144  11.005  0.5872 -0.1433  0.8637
  697MOL0     N94011  11.958   2.248  10.947 -0.4711 -0.2215  0.1876
  697MOL0     C94012  11.138   2.778  10.624  0.0997  0.6588 -0.5954
  697MOL0     C94013  11.021   2.856  10.613  0.7345  0.2564  0.2518
  697MOL0     C94014  10.647   3.084  10.701  0.0142  0.8285 -0.0227
  697MOL0     C94015  10.674   3.206  10.761 -0.3779 -0.6237  0.3614
  697MOL0     C94016  10.574   3.300  10.758 -0.4114 -0.2836  0.2707
  697MOL0     C94017  10.444   3.271  10.710  0.4237 -0.0819 -0.6429
  697MOL0     O94018  10.356   3.375  10.731 -0.9163 -0.0007 -0.8724
  697MOL0     C94019  10.222   3.340  10.732  0.3129  0.4614 -0.4320
  697MOL0     C94020  10.141   3.434  10.817  0.0058  0.1742 -0.1890
  697MOL0     C94021  10.149   3.578  10.759  0.2948  0.9435 -0.3498
  697MOL0     C94022  10.035   3.605  10.653 -0.8590  0.2229 -1.1035
  697MOL0     C94023  10.086   3.705  10.560 -0.0704  0.9723 -0.3598
  697MOL0     C94024  10.127   3.794  10.497 -0.7160  0.4760  0.2186
  697MOL0     C94025  10.422   3.145  10.653  0.8136 -0.4973 -0.1908
  697MOL0     C94026  10.523   3.051  10.644 -0.5580 -0.4239 -0.6317
  697MOL0     C94027  10.499   2.917  10.568 -0.2844 -0.2034 -0.1247
  697MOL0     H94028  11.077   3.057  10.877  0.7298 -0.6251  1.1113
  697MOL0     H94029  11.252   2.902  10.912 -0.4914 -0.1221 -0.3070
  697MOL0     H94030  11.414   2.736  10.928  1.3865 -0.9433  0.1626
  697MOL0     H94031  11.294   2.606  10.907 -0.3252  1.1236  0.4628
  697MOL0     H94032  11.508   2.526  10.937  0.8373 -0.0202  0.3122
  697MOL0     H94033  11.569   2.615  10.797  0.0378  1.7232  2.1663
  697MOL0     H94034  11.437   2.466  10.636 -0.1286 -0.5777 -0.0021
  697MOL0     H94035  11.369   2.375  10.762 -0.1290 -0.9240 -0.5692
  697MOL0     H94036  11.596   2.284  10.823 -1.1897  0.1087  0.7285
  697MOL0     H94037  11.556   2.277  10.653 -3.6132  3.3187 -2.0823
  697MOL0     H94038  11.696   2.498  10.618 -0.4551  0.5969  0.6959
  697MOL0     H94039  11.751   2.472  10.772  0.0418  0.4128 -0.6130
  697MOL0     H94040  11.826   2.226  10.680  1.0406  0.5704 -0.5571
  697MOL0     H94041  11.784   2.290  10.526 -0.3833  1.0799 -0.1923
  697MOL0     H94042  11.932   2.473  10.583  1.3914 -0.1068  1.5856
  697MOL0     H94043  12.012   2.313  10.561  0.6567 -1.9909  2.4721
  697MOL0     H94044  12.108   2.445  10.743 -0.9068  2.0958  0.2189
  697MOL0     H94045  11.958   2.472  10.816 -3.0233 -0.2241 -0.9474
  697MOL0     H94046  12.219   2.191  10.771  0.0564  0.6814  0.9328
  697MOL0     H94047  12.178   1.919  11.046 -1.7798  1.8073 -1.0700
  697MOL0     H94048  12.264   1.948  10.897  0.4785 -0.0358 -0.7335
  697MOL0     H94049  12.342   2.172  11.006  1.7548  0.3727  2.5400
  697MOL0     H94050  12.327   2.070  11.154 -1.5464  1.8949  0.3216
  697MOL0     H94051  12.485   1.978  10.920  0.9878  2.2231 -0.4246
  697MOL0     H94052  12.454   1.912  11.090 -0.8377  0.3065  0.2281
  697MOL0     H94053  12.597   2.080  11.184  0.4376 -0.4082 -0.1200
  697MOL0     H94054  12.574   2.184  11.037 -2.6025 -0.6621  0.3926
  697MOL0     H94055  12.758   2.223  11.198  1.1601  2.4196  0.8330
  697MOL0     H94056  12.985   2.258  11.316  0.8751 -1.4667  0.2646
  697MOL0     H94057  13.201   1.967  11.593  0.1458  1.1521  0.2118
  697MOL0     H94058  13.362   1.954  11.767 -0.2499  0.0344 -0.6969
  697MOL0     H94059  13.536   1.942  11.926 -0.0037 -1.3493  1.1331
  697MOL0     H94060  13.578   1.807  11.824  0.4797  0.6909 -2.3795
  697MOL0     H94061  13.734   1.812  12.002 -2.6113  0.0455 -0.1808
  697MOL0     H94062  13.814   1.849  11.844 -0.1147 -0.8047  0.0385
  697MOL0     H94063  13.797   2.101  11.917  0.3502  1.4035  1.8802
  697MOL0     H94064  13.727   2.045  12.062  1.6603  0.4936  1.4762
  697MOL0     H94065  13.954   1.901  12.099  0.1233  0.1320  0.5356
  697MOL0     H94066  13.939   2.069  12.135  1.4111 -1.4391  2.0749
  697MOL0     H94067  14.013   2.098  11.875  3.6243  1.9750  0.4633
  697MOL0     H94068  14.080   1.930  11.900  1.0969  0.4556 -0.6195
  697MOL0     H94069  14.232   2.126  11.935 -1.4934 -0.7470 -1.2446
  697MOL0     H94070  14.130   2.186  12.065  0.8402  0.0814  0.7268
  697MOL0     H94071  14.286   1.925  12.090  0.0031  1.3465 -2.0092
  697MOL0     H94072  14.153   1.985  12.195  0.2320 -1.7710 -0.8296
  697MOL0     H94073  14.400   2.037  12.273  0.4107 -0.8900 -1.0459
  697MOL0     H94074  14.412   2.132  12.135  0.9165 -2.3398 -0.5766
  697MOL0     H94075  13.685   2.001  11.484 -0.4322  0.3061  1.7633
  697MOL0     H94076  13.539   1.952  11.309  0.7844  0.5972  1.1888
  697MOL0     H94077  13.136   1.928  11.106 -0.3350 -0.1127 -0.5471
  697MOL0     H94078  12.909   1.916  10.967 -1.5883 -1.3877  0.3326
  697MOL0     H94079  11.168   2.715  10.542 -2.8527 -1.6999 -0.0318
  697MOL0     H94080  10.951   2.843  10.530  0.9733  1.8556 -0.2388
  697MOL0     H94081  10.772   3.212  10.809 -1.1683  0.8134  1.8929
  697MOL0     H94082  10.588   3.391  10.816 -0.6584  1.1733 -1.8580
  697MOL0     H94083  10.199   3.246  10.784 -3.0207  1.1543 -0.4116
  697MOL0     H94084  10.185   3.330  10.630 -1.6875  2.9357 -0.0532
  697MOL0     H94085  10.187   3.434  10.916  0.7725 -2.1384 -0.4924
  697MOL0     H94086  10.037   3.407  10.831  0.7294 -1.7848  2.0076
  697MOL0     H94087  10.250   3.597  10.719  0.6143  0.2265  0.1023
  697MOL0     H94088  10.136   3.637  10.850  2.0452  0.4364  0.2726
  697MOL0     H94089  10.002   3.516  10.599  0.4945 -2.3457  1.9840
  697MOL0     H94090   9.946   3.642  10.704  0.5869 -1.3388  2.9555
  697MOL0     H94091  10.168   3.883  10.453  0.5391  0.2270  0.8629
  697MOL0     H94092  10.329   3.126  10.601  1.3080 -1.7216 -0.6746
  697MOL0     H94093  10.409   2.917  10.506 -0.7311 -1.0262  0.5005
  697MOL0     H94094  10.585   2.884  10.510 -1.1994 -1.2069 -0.9618
  697MOL0     H94095  10.480   2.844  10.647 -0.9557 -0.9616 -0.9608
  698MOL0     O94096   1.892  11.205   4.594 -0.3461  0.1415  0.4141
  698MOL0     C94097   1.783  11.252   4.570  0.4047 -0.8022  0.3764
  698MOL0     O94098   1.745  11.292   4.446 -0.5858  0.0605 -0.6060
  698MOL0     C94099   1.822  11.263   4.337 -0.2200  0.1310  0.2782
  698MOL0     C94100   1.929  11.340   4.291 -0.1141 -0.5953  0.6367
  698MOL0     C94101   1.991  11.312   4.170  0.3155  0.3149 -0.3128
  698MOL0     C94102   1.942  11.209   4.085 -0.5911 -0.1909  0.5023
  698MOL0     O94103   2.019  11.187   3.971  0.2920  0.1751 -0.0867
  698MOL0     C94104   2.018  11.060   3.906 -0.5312 -0.4521  0.1022
  698MOL0     C94105   2.127  11.067   3.798  1.2668 -0.1262  0.0250
  698MOL0     C94106   2.260  11.147   3.833  0.6747 -0.2227 -0.4686
  698MOL0     C94107   2.328  11.097   3.958 -1.0393 -0.1070 -0.5675
  698MOL0     C94108   2.367  10.953   3.961 -0.5952  0.2864  0.5199
  698MOL0     C94109   2.451  10.879   3.844  0.0659 -0.2410 -1.2511
  698MOL0     C94110   2.594  10.940   3.852  0.1731  0.6513 -0.8313
  698MOL0     C94111   2.639  10.981   3.708 -0.1404 -0.3548  0.6126
  698MOL0     N94112   2.776  11.039   3.710 -0.4541  0.3550  0.1249
  698MOL0     C94113   2.815  11.171   3.712  0.1155  0.8382 -0.3870
  698MOL0     C94114   2.948  11.170   3.732 -0.8225  0.7244 -0.3728
  698MOL0     C94115   3.047  11.281   3.757  0.1347  0.9058  0.0571
  698MOL0     C94116   3.142  11.298   3.640 -0.3967 -0.0948  0.1124
  698MOL0     C94117   3.255  11.385   3.705 -0.9767  0.0846 -0.2839
  698MOL0     C94118   3.351  11.449   3.612  0.6461 -0.1087  0.0584
  698MOL0     O94119   3.427  11.352   3.545  1.3001  0.0619 -0.3177
  698MOL0     C94120   3.551  11.387   3.494  0.5841  0.4182 -0.2593
  698MOL0     C94121   3.643  11.281   3.471  0.3867  0.3773  0.5767
  698MOL0     C94122   3.766  11.306   3.406 -1.2409 -0.1399  0.4325
  698MOL0     C94123   3.794  11.433   3.353  0.2718 -1.1468 -0.4030
  698MOL0     C94124   3.914  11.469   3.268  0.4460  0.4153  0.0329
  698MOL0     O94125   3.962  11.594   3.300  0.2415  0.4456 -0.3448
  698MOL0     C94126   4.060  11.645   3.208  0.5953  0.0927 -0.1137
  698MOL0     C94127   4.038  11.772   3.144 -0.0576 -0.2578 -0.3324
  698MOL0     C94128   4.122  11.813   3.041 -1.4184 -0.0891  0.0732
  698MOL0     C94129   4.248  11.762   3.025  0.0685  0.6388  0.1156
  698MOL0     O94130   4.333  11.818   2.931  0.0175 -0.0071  0.3739
  698MOL0     C94131   4.466  11.775   2.924 -0.5186  0.4869 -0.6415
  698MOL0     C94132   4.498  11.665   2.819 -0.7389 -0.3910  0.7225
  698MOL0     C94133   4.649  11.659   2.783 -0.5122 -0.8670 -0.2826
  698MOL0     C94134   4.678  11.535   2.702  0.1905  0.8324 -1.2319
  698MOL0     C94135   4.828  11.488   2.692 -0.6134  0.2536  0.1221
  698MOL0     C94136   4.863  11.363   2.604 -0.4484  0.4655  0.5854
  698MOL0     C94137   5.005  11.307   2.641 -0.1488  0.8649  0.1128
  698MOL0     C94138   5.058  11.233   2.524  0.9282 -0.2434 -0.5303
  698MOL0    Cl94139   5.205  11.157   2.589  0.2076  0.0292  0.3048
  698MOL0     C94140   4.275  11.636   3.090  0.4156  0.2109  0.7006
  698MOL0     C94141   4.181  11.580   3.180 -0.7313 -0.5565  0.7635
  698MOL0     O94142   3.974  11.379   3.211  0.8847 -0.3649  0.1307
  698MOL0     C94143   3.696  11.539   3.372 -0.8674  0.3971  0.5187
  698MOL0     C94144   3.580  11.514   3.436 -0.1462  0.9873 -0.1498
  698MOL0     N94145   2.990  11.037   3.750  0.0959  0.4820 -0.2261
  698MOL0     N94146   2.886  10.961   3.737  0.6645 -0.6337  0.2995
  698MOL0     C94147   1.832  11.127   4.130  0.0981 -0.2225  0.2831
  698MOL0     C94148   1.774  11.158   4.258  1.1214 -0.6812  1.1308
  698MOL0     C94149   1.679  11.266   4.682 -0.1850  0.8003  0.5205
  698MOL0     C94150   1.545  11.281   4.641  0.8098 -0.0833  0.0957
  698MOL0     C94151   1.441  11.272   4.729  0.8537 -0.4106 -0.6758
  698MOL0     C94152   1.465  11.252   4.863 -0.5358 -0.4899 -1.4076
  698MOL0     O94153   1.365  11.250   4.947  0.1342  0.3616  0.1072
  698MOL0     C94154   1.332  11.369   5.020  0.2750 -0.1974 -0.1977
  698MOL0     C94155   1.191  11.403   4.988 -0.7136  0.3638 -0.7338
  698MOL0     C94156   1.137  11.506   5.079 -0.4020 -0.0283 -0.3261
  698MOL0     C94157   1.175  11.654   5.049  0.3444  0.8945 -0.0156
  698MOL0     C94158   1.314  11.671   5.077 -0.7730 -0.1060  0.8823
  698MOL0     C94159   1.430  11.699   5.099  0.4495  0.0311  0.4743
  698MOL0     C94160   1.597  11.250   4.907  0.3045 -0.1765  0.8555
  698MOL0     C94161   1.703  11.256   4.813 -0.9105 -0.0695  0.1327
  698MOL0     C94162   1.845  11.262   4.880 -0.5495  0.2968 -0.2850
  698MOL0     H94163   1.960  11.423   4.353  1.2790 -1.0096  0.5372
  698MOL0     H94164   2.080  11.368   4.142 -0.2797  1.5364  0.1519
  698MOL0     H94165   2.049  10.990   3.984  0.5265  1.1044  1.1374
  698MOL0     H94166   1.919  11.030   3.870 -0.6385  0.0310 -0.0102
  698MOL0     H94167   2.082  11.104   3.706  0.5281 -4.8122 -1.7961
  698MOL0     H94168   2.153  10.964   3.773 -1.0747 -0.9436  0.7457
  698MOL0     H94169   2.232  11.252   3.844 -2.1639 -1.1669  3.1217
  698MOL0     H94170   2.329  11.137   3.748  0.9070 -1.1742 -0.1884
  698MOL0     H94171   2.421  11.154   3.959  0.5897 -2.5961  1.4711
  698MOL0     H94172   2.267  11.125   4.044  0.9005  2.0299  0.2249
  698MOL0     H94173   2.427  10.945   4.052  1.5144  3.2642 -0.4392
  698MOL0     H94174   2.273  10.897   3.973 -2.3790  2.4519 -2.2157
  698MOL0     H94175   2.450  10.771   3.865  0.9702 -0.3646 -1.7848
  698MOL0     H94176   2.405  10.892   3.746  0.2096  1.5153 -1.1142
  698MOL0     H94177   2.665  10.862   3.878  2.5972  2.7161 -0.8923
  698MOL0     H94178   2.593  11.021   3.925 -0.1583 -2.0611  2.3935
  698MOL0     H94179   2.644  10.891   3.647  2.0117  0.9208 -1.2608
  698MOL0     H94180   2.559  11.043   3.668 -1.7128 -4.0204 -2.4792
  698MOL0     H94181   2.755  11.260   3.696  0.7028  0.9572 -2.1989
  698MOL0     H94182   3.001  11.374   3.790  1.8849  1.1182  2.1171
  698MOL0     H94183   3.110  11.241   3.838  0.3162 -3.5480 -1.9489
  698MOL0     H94184   3.173  11.200   3.604 -0.6496  0.5617 -2.0463
  698MOL0     H94185   3.085  11.336   3.554 -0.2171  0.6464  0.3093
  698MOL0     H94186   3.317  11.323   3.770  0.5775  0.4109 -1.4065
  698MOL0     H94187   3.210  11.458   3.773  0.3020  0.8245 -0.2013
  698MOL0     H94188   3.411  11.510   3.681  0.3138 -0.1642  0.3993
  698MOL0     H94189   3.304  11.510   3.535  1.7778 -2.4399 -2.6424
  698MOL0     H94190   3.621  11.179   3.501  1.0555 -0.0497 -0.3353
  698MOL0     H94191   3.842  11.230   3.391  1.5776  2.3474  1.2293
  698MOL0     H94192   3.948  11.824   3.176 -1.0394 -2.3700  0.5399
  698MOL0     H94193   4.097  11.898   2.979 -1.1191 -0.9905 -1.3062
  698MOL0     H94194   4.524  11.863   2.897  2.2371 -1.0646 -0.2142
  698MOL0     H94195   4.512  11.745   3.019 -2.9521  0.8663  0.7494
  698MOL0     H94196   4.464  11.564   2.843 -0.4189 -0.3259  1.5078
  698MOL0     H94197   4.441  11.693   2.730 -0.1776 -0.4630  0.3355
  698MOL0     H94198   4.687  11.740   2.720 -0.1737 -1.5762 -0.9945
  698MOL0     H94199   4.713  11.650   2.871  1.3909 -0.0428 -1.5196
  698MOL0     H94200   4.639  11.561   2.603 -1.4537  0.7866 -0.6278
  698MOL0     H94201   4.630  11.449   2.750  0.6084  1.9953  1.4505
  698MOL0     H94202   4.874  11.467   2.789  0.8089  1.8675 -0.1389
  698MOL0     H94203   4.874  11.577   2.648  0.1279  0.3246  1.0064
  698MOL0     H94204   4.788  11.284   2.608  0.7964 -0.8779 -1.0323
  698MOL0     H94205   4.873  11.392   2.499  2.4484 -1.0425  0.3490
  698MOL0     H94206   5.011  11.249   2.734  0.4239 -0.0076 -0.4599
  698MOL0     H94207   5.069  11.396   2.652  1.2607 -0.1298  0.2660
  698MOL0     H94208   4.984  11.162   2.486 -0.4112  0.5454  0.4942
  698MOL0     H94209   5.089  11.298   2.442  1.4997  0.6161  0.3358
  698MOL0     H94210   4.367  11.581   3.074 -1.5977 -3.1518 -0.2425
  698MOL0     H94211   4.212  11.482   3.214 -0.0575 -1.6423 -2.6296
  698MOL0     H94212   3.709  11.635   3.324 -3.6723  0.1338 -0.9434
  698MOL0     H94213   3.505  11.590   3.452 -1.0228 -0.3288  2.6047
  698MOL0     H94214   1.780  11.056   4.066 -1.3488  1.4296 -0.4472
  698MOL0     H94215   1.682  11.113   4.295  0.2369  0.1742  0.0170
  698MOL0     H94216   1.529  11.306   4.537  2.3042  0.8006  0.0498
  698MOL0     H94217   1.337  11.283   4.700 -0.2537  3.5527  3.6824
  698MOL0     H94218   1.389  11.455   4.985 -2.6800  2.1762  0.4559
  698MOL0     H94219   1.349  11.335   5.123  0.7702 -2.1749 -0.8778
  698MOL0     H94220   1.126  11.315   5.004  2.4267 -2.2318 -1.1855
  698MOL0     H94221   1.192  11.442   4.886  4.0677  2.4446 -0.1631
  698MOL0     H94222   1.154  11.477   5.183  1.5171  2.6880  0.2514
  698MOL0     H94223   1.031  11.505   5.051 -0.5015 -2.8001 -0.1210
  698MOL0     H94224   1.156  11.676   4.943  2.0204 -1.8050 -0.9889
  698MOL0     H94225   1.115  11.720   5.112 -1.0381 -3.1637  3.4445
  698MOL0     H94226   1.528  11.730   5.128  0.4089 -0.2158  0.8752
  698MOL0     H94227   1.621  11.243   5.013 -1.7373 -0.8895  1.3297
  698MOL0     H94228   1.861  11.231   4.983 -1.7496 -0.1058 -0.2059
  698MOL0     H94229   1.914  11.197   4.826 -0.8497 -0.1065 -0.1860
  698MOL0     H94230   1.891  11.361   4.881  0.8009 -0.2855  2.4139
  699MOL0     O94231   9.718   3.198  10.527 -1.3338 -0.2509 -0.0297
  699MOL0     C94232   9.752   3.293  10.459  0.1486 -0.7523  0.1747
  699MOL0     O94233   9.828   3.288  10.349  0.2881 -0.3179 -0.1027
  699MOL0     C94234   9.926   3.199  10.333 -0.0929 -0.0405 -0.2946
  699MOL0     C94235   9.988   3.116  10.425 -0.2174 -0.4670 -0.3752
  699MOL0     C94236  10.086   3.025  10.368 -0.0453  0.5670 -0.7580
  699MOL0     C94237  10.139   3.043  10.238  0.4010 -0.2269 -0.5949
  699MOL0     O94238  10.246   2.965  10.210 -0.4319  0.2331  0.3762
  699MOL0     C94239  10.306   2.972  10.075 -0.6479  0.0566 -0.8569
  699MOL0     C94240  10.441   2.891  10.076  0.2317 -1.0442 -0.4189
  699MOL0     C94241  10.536   2.949  10.184 -1.0464 -0.2816 -1.0534
  699MOL0     C94242  10.664   2.864  10.214  0.9418  0.5608  0.4384
  699MOL0     C94243  10.638   2.713  10.241 -0.2380  0.0575 -0.3797
  699MOL0     C94244  10.758   2.628  10.278  0.1415  0.3408  0.0365
  699MOL0     C94245  10.701   2.489  10.301 -0.2752  0.0992  0.8031
  699MOL0     C94246  10.818   2.387  10.318 -0.1452  0.0441 -0.0649
  699MOL0     N94247  10.886   2.419  10.446 -0.1130 -0.0884 -0.6271
  699MOL0     C94248  10.829   2.396  10.573  0.0520 -1.1522 -0.7408
  699MOL0     C94249  10.928   2.421  10.658 -1.0035  0.2936  0.0839
  699MOL0     C94250  10.910   2.417  10.808 -0.2423 -0.8770  0.5674
  699MOL0     C94251  10.924   2.560  10.857 -0.0887  0.6532  0.1908
  699MOL0     C94252  10.879   2.582  10.997  0.0536  0.2342 -0.5419
  699MOL0     C94253  10.881   2.732  11.050  1.0947  0.5008  0.5946
  699MOL0     O94254  10.825   2.737  11.189 -0.2862 -0.4792  0.3844
  699MOL0     C94255  10.690   2.760  11.218  0.1082 -0.2998  0.1821
  699MOL0     C94256  10.652   2.796  11.347  0.0240  0.4355 -0.1925
  699MOL0     C94257  10.517   2.812  11.383  0.0864 -0.3496 -0.0910
  699MOL0     C94258  10.417   2.803  11.285 -0.1981  0.4126  0.2241
  699MOL0     C94259  10.272   2.837  11.320  0.7195  0.7811  0.4364
  699MOL0     O94260  10.239   2.839  11.453  0.3863  0.0916 -0.2041
  699MOL0     C94261  10.110   2.867  11.491 -0.5278  0.1232  0.1560
  699MOL0     C94262  10.054   2.796  11.589 -0.2487 -0.2110 -0.8355
  699MOL0     C94263   9.923   2.823  11.624  0.4045 -0.6091  0.7549
  699MOL0     C94264   9.848   2.918  11.556  0.0087 -0.9984  0.4604
  699MOL0     O94265   9.715   2.945  11.578  0.0171 -0.3834  0.2729
  699MOL0     C94266   9.632   2.865  11.659 -0.4946 -0.0008  0.3523
  699MOL0     C94267   9.488   2.935  11.648 -0.5829  0.4164 -0.0250
  699MOL0     C94268   9.382   2.835  11.696  0.2072  0.5729 -0.3583
  699MOL0     C94269   9.371   2.829  11.852 -0.6133 -0.2095  0.6170
  699MOL0     C94270   9.267   2.741  11.914  0.4529  0.6077 -0.6258
  699MOL0     C94271   9.121   2.799  11.890  0.7794  0.2382  0.3062
  699MOL0     C94272   9.017   2.701  11.942 -0.0648 -0.6600 -0.4554
  699MOL0     C94273   8.880   2.760  11.978 -0.2800 -0.2933 -0.1971
  699MOL0    Cl94274   8.772   2.755  11.832 -0.6503  0.0139 -0.0223
  699MOL0     C94275   9.906   2.997  11.458 -0.0646 -0.3189  0.1727
  699MOL0     C94276  10.036   2.972  11.427 -0.8770  0.2272 -0.7090
  699MOL0     O94277  10.193   2.839  11.219  0.2418 -0.8566  0.8550
  699MOL0     C94278  10.457   2.779  11.155 -0.2846 -0.0538 -0.4783
  699MOL0     C94279  10.591   2.751  11.120  0.3555 -0.6519 -0.0360
  699MOL0     N94280  11.045   2.437  10.583  0.1321 -0.9121  0.4184
  699MOL0     N94281  11.011   2.464  10.461  0.0198  0.4074  0.3969
  699MOL0     C94282  10.084   3.138  10.151  0.1963  0.2076  0.0698
  699MOL0     C94283   9.971   3.205  10.200  0.0403  0.3715 -0.4233
  699MOL0     C94284   9.711   3.429  10.507 -0.1955  0.3996  0.5281
  699MOL0     C94285   9.769   3.544  10.449 -0.2099 -0.2195 -0.3573
  699MOL0     C94286   9.747   3.675  10.505 -0.3720 -0.1775  0.2507
  699MOL0     C94287   9.668   3.693  10.613  0.4209  0.3396  0.8390
  699MOL0     O94288   9.658   3.820  10.660 -0.2845  0.0060 -0.6910
  699MOL0     C94289   9.586   3.847  10.783  0.1194  0.6308  0.4424
  699MOL0     C94290   9.444   3.878  10.729  0.1354 -0.3445 -0.0449
  699MOL0     C94291   9.419   4.021  10.682 -0.9844 -0.2949  0.2127
  699MOL0     C94292   9.277   4.041  10.636 -0.2418 -0.0264  0.0196
  699MOL0     C94293   9.184   4.019  10.748 -0.6174 -0.7208  0.4649
  699MOL0     C94294   9.112   4.013  10.846 -0.1160  0.5796 -0.0837
  699MOL0     C94295   9.602   3.586  10.665 -0.3529 -0.2207  0.1295
  699MOL0     C94296   9.621   3.452  10.617 -0.2160 -0.7826  0.0563
  699MOL0     C94297   9.579   3.347  10.716  0.1756 -0.5095 -0.1023
  699MOL0     H94298   9.961   3.108  10.529 -1.9228  0.0956 -0.7362
  699MOL0     H94299  10.131   2.941  10.419  1.4384  0.4696 -2.1206
  699MOL0     H94300  10.231   2.938  10.003 -0.7637  2.2125 -1.8539
  699MOL0     H94301  10.331   3.078  10.062  0.2473  0.0476  0.6146
  699MOL0     H94302  10.492   2.894   9.979 -0.2348 -1.0792 -0.6701
  699MOL0     H94303  10.407   2.790  10.099 -1.2808 -0.9053 -1.8033
  699MOL0     H94304  10.486   2.944  10.282  0.9286 -1.7834 -0.0489
  699MOL0     H94305  10.567   3.052  10.169  2.7022 -0.6269  2.5768
  699MOL0     H94306  10.730   2.868  10.126  1.2060  0.3641  0.6232
  699MOL0     H94307  10.709   2.910  10.302  0.5919  1.1902  0.2885
  699MOL0     H94308  10.572   2.710  10.328  0.1775 -2.6422 -0.0657
  699MOL0     H94309  10.587   2.669  10.155 -0.3368 -1.2460  0.3221
  699MOL0     H94310  10.817   2.631  10.187  1.1319 -1.7232  0.5565
  699MOL0     H94311  10.819   2.674  10.357  3.3757 -0.0435 -2.0645
  699MOL0     H94312  10.653   2.458  10.208  0.5826  0.1891  0.3248
  699MOL0     H94313  10.631   2.486  10.386  0.1773 -0.5612  1.1635
  699MOL0     H94314  10.778   2.285  10.323 -0.3568  0.1336  0.1136
  699MOL0     H94315  10.877   2.393  10.227 -0.1655 -0.0863 -0.0860
  699MOL0     H94316  10.727   2.375  10.602  0.0266  0.0545  0.0951
  699MOL0     H94317  10.814   2.369  10.833 -0.8796  0.9465  1.8678
  699MOL0     H94318  10.992   2.355  10.846  0.2305 -1.2268 -0.9645
  699MOL0     H94319  11.029   2.590  10.853 -0.0408  1.2970  3.6164
  699MOL0     H94320  10.866   2.626  10.792 -0.0240  0.9608  0.4462
  699MOL0     H94321  10.946   2.526  11.063  0.2549  2.1115  0.9451
  699MOL0     H94322  10.785   2.538  11.031 -0.1176  1.5565  0.8080
  699MOL0     H94323  10.823   2.785  10.973 -0.5988  0.4510  1.7896
  699MOL0     H94324  10.982   2.774  11.058  0.8889  0.8183  1.6717
  699MOL0     H94325  10.727   2.789  11.426  1.3144 -1.1944 -1.4828
  699MOL0     H94326  10.489   2.819  11.488  0.1141 -1.4602  0.0006
  699MOL0     H94327  10.101   2.711  11.637 -0.3904  0.0417 -0.2478
  699MOL0     H94328   9.880   2.782  11.715  2.1210 -0.5329  1.6379
  699MOL0     H94329   9.633   2.761  11.626 -2.7345 -0.0287  0.1721
  699MOL0     H94330   9.660   2.861  11.765  0.1889 -1.3984  0.1293
  699MOL0     H94331   9.485   3.035  11.692 -2.3106  0.7935 -0.9148
  699MOL0     H94332   9.459   2.952  11.543 -1.5704 -4.4666 -0.7586
  699MOL0     H94333   9.289   2.859  11.642 -0.0312  2.9409  0.9926
  699MOL0     H94334   9.419   2.736  11.667  2.4280  1.1136  0.4886
  699MOL0     H94335   9.355   2.931  11.888 -1.0238  0.2224 -0.7247
  699MOL0     H94336   9.467   2.799  11.895 -1.0401 -1.5901  0.6316
  699MOL0     H94337   9.289   2.724  12.020 -2.5582 -0.8252 -0.1228
  699MOL0     H94338   9.272   2.650  11.853 -0.3794  1.3074 -1.7893
  699MOL0     H94339   9.109   2.902  11.925 -0.0694  1.6310 -3.6284
  699MOL0     H94340   9.105   2.805  11.782  1.8252  0.8243  0.1697
  699MOL0     H94341   9.045   2.661  12.040 -0.7708  2.4862  1.1529
  699MOL0     H94342   9.013   2.609  11.883  2.3222 -0.2667 -1.3495
  699MOL0     H94343   8.826   2.707  12.057  0.1804 -1.8948 -0.9088
  699MOL0     H94344   8.901   2.859  12.020  3.4920 -1.5231  1.2937
  699MOL0     H94345   9.853   3.080  11.413 -3.7419 -1.2693  2.3149
  699MOL0     H94346  10.076   3.030  11.343 -0.7857  2.0831  0.5532
  699MOL0     H94347  10.395   2.786  11.066  3.7966 -0.4534 -3.6505
  699MOL0     H94348  10.599   2.717  11.017 -3.7260 -0.8686 -0.4712
  699MOL0     H94349  10.125   3.169  10.055 -0.8665  1.3384 -0.0450
  699MOL0     H94350   9.926   3.273  10.128 -0.9677  0.2046  0.0321
  699MOL0     H94351   9.842   3.531  10.370  0.9509  0.5706  0.5620
  699MOL0     H94352   9.800   3.756  10.456  0.9009 -1.9029 -1.3766
  699MOL0     H94353   9.626   3.932  10.839 -0.3798  0.5821  0.8782
  699MOL0     H94354   9.586   3.759  10.847  4.6159 -0.4241 -0.6318
  699MOL0     H94355   9.390   3.862  10.823 -1.4734  0.5599 -0.7690
  699MOL0     H94356   9.397   3.813  10.655 -2.8311  0.6543  0.7928
  699MOL0     H94357   9.486   4.042  10.598  1.8603 -2.6375  1.7213
  699MOL0     H94358   9.440   4.101  10.754 -1.2817 -1.8792  2.1430
  699MOL0     H94359   9.260   4.142  10.599  0.8986  0.7001  1.4020
  699MOL0     H94360   9.268   3.967  10.556 -1.7323  0.1674 -0.0313
  699MOL0     H94361   9.053   4.014  10.935  0.9602  0.4414  0.6566
  699MOL0     H94362   9.553   3.599  10.761 -0.2216 -1.2896  0.3522
  699MOL0     H94363   9.669   3.304  10.761  2.2692  4.5694  1.2939
  699MOL0     H94364   9.519   3.388  10.797 -0.3464  2.6720 -1.9125
  699MOL0     H94365   9.529   3.265  10.663  1.3744 -2.0310  1.0298
  700MOL0     O94366  11.070   1.511   2.037  0.6687 -0.2530  0.5952
  700MOL0     C94367  10.962   1.487   2.083 -0.4629  1.1746 -0.8249
  700MOL0     O94368  10.936   1.393   2.172 -0.3407  0.0625 -0.2984
  700MOL0     C94369  11.032   1.325   2.237 -0.1894 -0.5642  0.4892
  700MOL0     C94370  11.128   1.404   2.305  1.2016  0.4153  0.4685
  700MOL0     C94371  11.237   1.344   2.363  1.2262 -0.5028 -0.0236
  700MOL0     C94372  11.271   1.212   2.341  0.2318 -0.3906  0.4416
  700MOL0     O94373  11.371   1.142   2.404 -0.1156  0.0355  0.0988
  700MOL0     C94374  11.475   1.223   2.465  0.1286 -0.0347  0.2038
  700MOL0     C94375  11.613   1.147   2.458 -0.3840 -0.7522 -0.0454
  700MOL0     C94376  11.724   1.226   2.543  0.6849  0.0213 -0.1068
  700MOL0     C94377  11.837   1.134   2.567 -0.6458 -0.2083 -0.5558
  700MOL0     C94378  11.977   1.206   2.591  0.5642 -0.1081  0.0515
  700MOL0     C94379  12.096   1.114   2.598  0.2029  0.0474 -0.2990
  700MOL0     C94380  12.229   1.189   2.638  0.5954  0.6045  0.3322
  700MOL0     C94381  12.343   1.082   2.615  0.0212 -0.5201  0.2033
  700MOL0     N94382  12.474   1.148   2.627  0.1233 -0.4849  0.3659
  700MOL0     C94383  12.550   1.163   2.734  0.5753 -0.2968 -0.3844
  700MOL0     C94384  12.675   1.188   2.688 -0.1974  0.6297  0.6841
  700MOL0     C94385  12.794   1.226   2.774  0.0166  0.4602  0.0704
  700MOL0     C94386  12.927   1.196   2.697 -0.3506  0.0193 -0.2842
  700MOL0     C94387  13.040   1.248   2.783 -0.2614  0.4405 -0.3543
  700MOL0     C94388  13.175   1.194   2.739 -0.3359  0.9057 -0.0102
  700MOL0     O94389  13.277   1.272   2.795  0.4479 -0.3379  0.0687
  700MOL0     C94390  13.412   1.228   2.785 -0.7820  0.2163  0.4679
  700MOL0     C94391  13.508   1.329   2.765 -0.0408  0.2246  0.2188
  700MOL0     C94392  13.646   1.298   2.763 -0.2890 -1.4131  0.5571
  700MOL0     C94393  13.691   1.167   2.778  1.6378 -0.6662  0.6218
  700MOL0     C94394  13.834   1.132   2.758 -0.0467  0.3227 -0.7139
  700MOL0     O94395  13.923   1.228   2.736  0.3914 -0.2081 -0.4353
  700MOL0     C94396  14.052   1.194   2.700 -0.8579  0.1928  0.2890
  700MOL0     C94397  14.112   1.274   2.593 -0.0213  0.8150  0.5388
  700MOL0     C94398  14.251   1.274   2.578 -0.4288 -0.0762  0.8539
  700MOL0     C94399  14.332   1.176   2.646 -0.0527 -0.2037 -0.1468
  700MOL0     O94400  14.464   1.162   2.642  0.1563 -0.2746 -0.1131
  700MOL0     C94401  14.539   1.265   2.573  0.5000  0.1912 -0.1843
  700MOL0     C94402  14.690   1.235   2.574 -0.1924  0.1842  0.6091
  700MOL0     C94403  14.760   1.312   2.454 -0.3923  0.1319 -0.3666
  700MOL0     C94404  14.908   1.281   2.438  1.1032  0.0011 -0.2523
  700MOL0     C94405  14.988   1.329   2.556  0.5710 -0.0906 -0.2834
  700MOL0     C94406  15.134   1.303   2.525  0.3349 -0.5884 -0.1064
  700MOL0     C94407  15.185   1.168   2.572  0.3358  0.0714  0.4394
  700MOL0     C94408  15.335   1.140   2.540  0.3913 -0.0676 -0.0721
  700MOL0    Cl94409  15.447   1.278   2.568  0.3688 -0.1374  0.2461
  700MOL0     C94410  14.267   1.096   2.737  0.0794 -0.0023  0.2214
  700MOL0     C94411  14.136   1.109   2.768 -0.5110  0.7087 -0.5460
  700MOL0     O94412  13.859   1.016   2.772 -0.3439 -0.0663 -0.3596
  700MOL0     C94413  13.588   1.067   2.795  0.0801 -0.3931  0.1663
  700MOL0     C94414  13.449   1.097   2.796 -0.2558  0.0756 -0.0573
  700MOL0     N94415  12.671   1.188   2.553  0.2427 -0.2417 -0.3310
  700MOL0     N94416  12.547   1.163   2.516 -0.6395  0.7925  0.8437
  700MOL0     C94417  11.179   1.135   2.264 -0.1581 -0.2233  0.5419
  700MOL0     C94418  11.067   1.192   2.205  0.9935 -0.6881  0.4306
  700MOL0     C94419  10.846   1.551   2.026 -0.0971  0.2060  0.6115
  700MOL0     C94420  10.742   1.466   1.983 -0.0201 -0.0969 -0.2264
  700MOL0     C94421  10.620   1.523   1.924  0.4435  0.6441 -0.2222
  700MOL0     C94422  10.614   1.658   1.910  0.8549  0.3714 -0.1119
  700MOL0     O94423  10.498   1.730   1.873  0.0221  0.1627 -0.7842
  700MOL0     C94424  10.370   1.662   1.853  0.3807 -0.3727 -0.1357
  700MOL0     C94425  10.260   1.767   1.826  0.0911 -0.4669 -0.7242
  700MOL0     C94426  10.259   1.812   1.682 -0.2730  0.4892  0.5252
  700MOL0     C94427  10.179   1.936   1.659  0.1756 -0.5493 -0.9427
  700MOL0     C94428  10.040   1.913   1.701  0.1287  0.3227  0.4007
  700MOL0     C94429   9.925   1.882   1.712 -0.4818 -0.9111 -0.5915
  700MOL0     C94430  10.718   1.742   1.949  0.6043  0.4427  0.0206
  700MOL0     C94431  10.835   1.688   1.997 -0.2523  1.0237 -0.1023
  700MOL0     C94432  10.942   1.791   2.037 -0.7870  0.1377 -0.2450
  700MOL0     H94433  11.096   1.504   2.332 -0.7382 -0.5446  1.9425
  700MOL0     H94434  11.289   1.415   2.427  2.0556 -0.2581 -0.9481
  700MOL0     H94435  11.489   1.316   2.410  0.9945 -0.2000  0.1316
  700MOL0     H94436  11.451   1.239   2.571 -0.6425 -0.6226  0.1240
  700MOL0     H94437  11.656   1.156   2.358 -0.8299  0.9206 -0.1175
  700MOL0     H94438  11.602   1.044   2.492  1.2683 -0.1756  2.5127
  700MOL0     H94439  11.693   1.267   2.639  1.1562  0.7246 -0.2479
  700MOL0     H94440  11.743   1.317   2.485 -3.8200  0.8997 -0.6126
  700MOL0     H94441  11.813   1.071   2.654  0.0453 -0.9154 -0.8528
  700MOL0     H94442  11.842   1.064   2.483 -0.2041 -1.6763  0.6364
  700MOL0     H94443  11.999   1.287   2.521 -0.4621  1.5215  1.5061
  700MOL0     H94444  11.972   1.258   2.687  2.7235 -1.5662  1.0197
  700MOL0     H94445  12.081   1.039   2.676  0.4720 -0.6255 -0.8813
  700MOL0     H94446  12.102   1.080   2.494  0.1778 -0.1412 -0.2389
  700MOL0     H94447  12.215   1.222   2.742  0.9996  0.2866  0.4911
  700MOL0     H94448  12.243   1.279   2.577 -1.8938  0.0083 -1.2821
  700MOL0     H94449  12.343   0.994   2.679 -3.0928 -0.4588  0.4405
  700MOL0     H94450  12.329   1.051   2.511  1.6466 -3.0734  0.6641
  700MOL0     H94451  12.522   1.162   2.839 -0.5298 -0.1413 -0.6668
  700MOL0     H94452  12.782   1.332   2.800 -1.4591  0.3715 -0.1498
  700MOL0     H94453  12.794   1.168   2.867  0.3643  2.2051  1.2089
  700MOL0     H94454  12.936   1.089   2.675 -1.2777 -0.3193  0.8574
  700MOL0     H94455  12.934   1.248   2.601  0.4097 -2.2805 -1.5409
  700MOL0     H94456  13.022   1.218   2.887  1.1203 -2.3882 -0.8362
  700MOL0     H94457  13.036   1.357   2.773  2.6933  0.4264 -2.8077
  700MOL0     H94458  13.182   1.216   2.632  0.8975  0.4667 -0.0393
  700MOL0     H94459  13.191   1.086   2.750  2.2195  1.4323  2.6949
  700MOL0     H94460  13.472   1.430   2.753  0.9961  0.5662 -0.1001
  700MOL0     H94461  13.715   1.379   2.740 -0.3446 -1.1672  1.2195
  700MOL0     H94462  14.053   1.342   2.531  0.9659  1.3338  0.1457
  700MOL0     H94463  14.301   1.334   2.502 -2.2219  1.6303  0.9444
  700MOL0     H94464  14.505   1.265   2.469 -3.5557  2.4808  0.9272
  700MOL0     H94465  14.522   1.359   2.627  0.2471 -0.8880  1.6791
  700MOL0     H94466  14.726   1.271   2.671  0.2931 -0.8329  0.8187
  700MOL0     H94467  14.713   1.128   2.573 -1.1282 -0.0205  0.2043
  700MOL0     H94468  14.721   1.285   2.355  1.3095 -0.0619 -1.0192
  700MOL0     H94469  14.737   1.418   2.455 -0.1097  0.2026  1.0051
  700MOL0     H94470  14.938   1.335   2.348 -2.2110 -0.5070 -1.8359
  700MOL0     H94471  14.924   1.174   2.420  0.3613 -0.3124  0.8200
  700MOL0     H94472  14.951   1.264   2.635 -1.3998  0.4715 -0.6727
  700MOL0     H94473  14.969   1.435   2.578  0.8329 -0.0383 -0.3072
  700MOL0     H94474  15.158   1.312   2.419 -1.6731 -0.6046 -0.5919
  700MOL0     H94475  15.189   1.385   2.572  2.0210 -1.3016 -0.7745
  700MOL0     H94476  15.120   1.100   2.515  0.4287 -0.1196  0.5618
  700MOL0     H94477  15.159   1.142   2.675  1.0197 -2.6439 -0.0055
  700MOL0     H94478  15.360   1.048   2.594 -0.7727 -0.1513  0.3579
  700MOL0     H94479  15.338   1.123   2.432 -1.7529  1.3966 -0.4311
  700MOL0     H94480  14.330   1.033   2.798  0.2991  0.8257  0.8695
  700MOL0     H94481  14.087   1.042   2.838  1.2519 -1.4135 -1.2347
  700MOL0     H94482  13.611   0.962   2.809 -2.7453 -1.3280 -1.4629
  700MOL0     H94483  13.379   1.014   2.803  0.7170 -0.7682 -0.0819
  700MOL0     H94484  11.199   1.029   2.255 -2.1423 -0.6146  0.3418
  700MOL0     H94485  11.000   1.133   2.142 -2.1958  0.5219  2.4365
  700MOL0     H94486  10.749   1.362   2.014 -1.9747  0.0242  0.8090
  700MOL0     H94487  10.531   1.469   1.894  1.5930  0.1367 -3.1092
  700MOL0     H94488  10.358   1.594   1.938  2.2534 -1.1490 -0.4419
  700MOL0     H94489  10.394   1.606   1.763 -0.3550  1.4970 -1.5591
  700MOL0     H94490  10.283   1.851   1.892 -0.9307 -2.6204  2.5704
  700MOL0     H94491  10.161   1.733   1.856  0.5536 -0.1339  1.2970
  700MOL0     H94492  10.224   1.731   1.617 -2.0874  2.1867 -0.7393
  700MOL0     H94493  10.363   1.838   1.661 -0.5937  0.7214 -0.8841
  700MOL0     H94494  10.216   2.012   1.729 -0.8536 -0.2545 -0.7035
  700MOL0     H94495  10.189   1.967   1.555 -2.6978 -0.8405 -1.3803
  700MOL0     H94496   9.821   1.856   1.711  0.0738 -3.4550  0.5940
  700MOL0     H94497  10.725   1.848   1.929  0.6784  0.3989 -0.1811
  700MOL0     H94498  11.011   1.747   2.110  1.0707 -3.7769 -3.9682
  700MOL0     H94499  11.006   1.810   1.950  0.3854 -2.6648 -0.0837
  700MOL0     H94500  10.899   1.880   2.085 -0.5796  0.1995 -0.1691
  701MOL0     O94501   1.815   5.733   0.179  0.1410 -0.1597  0.4488
  701MOL0     C94502   1.807   5.620   0.128 -0.9261  0.8706 -0.3614
  701MOL0     O94503   1.917   5.543   0.128  0.1403 -0.3388  0.4319
  701MOL0     C94504   2.037   5.592   0.161  0.6037 -0.3885 -1.2395
  701MOL0     C94505   2.068   5.599   0.297 -0.2539  0.4239  0.6893
  701MOL0     C94506   2.191   5.653   0.337 -0.2016  0.2411  0.1807
  701MOL0     C94507   2.276   5.706   0.247 -0.5507  0.1113 -0.0801
  701MOL0     O94508   2.392   5.763   0.283 -0.2446  0.2206 -0.5629
  701MOL0     C94509   2.470   5.699   0.389  0.9044 -0.4849 -0.4536
  701MOL0     C94510   2.619   5.693   0.356  0.3928  0.1956  0.7550
  701MOL0     C94511   2.684   5.824   0.391 -0.4028  0.5902 -0.9233
  701MOL0     C94512   2.838   5.820   0.350  1.0121  0.0923  1.0315
  701MOL0     C94513   2.916   5.930   0.414  0.1391 -0.2625  0.4358
  701MOL0     C94514   3.073   5.903   0.397  0.2398  0.4168  0.4702
  701MOL0     C94515   3.128   5.929   0.252 -0.3519  0.2987  0.3366
  701MOL0     C94516   3.081   6.053   0.177  0.2233  0.2690 -0.0715
  701MOL0     N94517   3.115   6.172   0.248  0.7705 -0.0484 -0.4356
  701MOL0     C94518   3.236   6.225   0.254  0.2333  0.3474 -0.3819
  701MOL0     C94519   3.220   6.337   0.342  0.4967  0.3718  0.0281
  701MOL0     C94520   3.326   6.433   0.392 -0.0494 -0.1174 -0.2709
  701MOL0     C94521   3.419   6.362   0.495 -0.3418 -1.7258 -0.7547
  701MOL0     C94522   3.515   6.462   0.564  0.1009 -0.1726 -0.3587
  701MOL0     C94523   3.619   6.398   0.653  0.3083  0.2135 -0.2389
  701MOL0     O94524   3.583   6.382   0.791  0.8446  0.0053  0.2184
  701MOL0     C94525   3.673   6.348   0.889  0.7806 -0.0345 -0.6407
  701MOL0     C94526   3.811   6.371   0.887  0.1227 -0.2615  0.5907
  701MOL0     C94527   3.892   6.327   0.994 -1.0229 -0.7356 -1.0466
  701MOL0     C94528   3.840   6.256   1.104 -0.6244  0.4480  0.1607
  701MOL0     C94529   3.930   6.212   1.213 -0.5897  0.2814 -0.5952
  701MOL0     O94530   3.871   6.197   1.334 -0.6966 -0.2873 -0.5310
  701MOL0     C94531   3.939   6.160   1.442  0.1962  0.5892 -0.8360
  701MOL0     C94532   3.869   6.070   1.522 -0.2720  0.0695 -0.3241
  701MOL0     C94533   3.931   6.012   1.636 -0.6031  0.5580 -0.2444
  701MOL0     C94534   4.058   6.040   1.671  0.6859 -0.3228  0.3665
  701MOL0     O94535   4.132   5.986   1.777  0.4642 -0.5672  0.2415
  701MOL0     C94536   4.068   5.888   1.858  0.1343  0.6993  0.0274
  701MOL0     C94537   4.161   5.829   1.963  0.3213  0.0975 -0.1380
  701MOL0     C94538   4.178   5.934   2.068  0.0826  0.1080  0.2913
  701MOL0     C94539   4.234   5.878   2.204  0.0705 -0.1105  0.3320
  701MOL0     C94540   4.277   5.993   2.300  0.3689  0.5824 -0.1098
  701MOL0     C94541   4.421   6.041   2.269 -0.8772 -0.2630  0.0005
  701MOL0     C94542   4.484   6.129   2.372  0.6257  0.4150  0.0178
  701MOL0     C94543   4.618   6.189   2.315  0.0354 -0.6520  0.7131
  701MOL0    Cl94544   4.665   6.311   2.446 -0.4664  0.2211 -0.2394
  701MOL0     C94545   4.130   6.132   1.593 -0.1119 -0.4855 -0.5312
  701MOL0     C94546   4.070   6.187   1.479 -0.4953  0.8733 -0.8165
  701MOL0     O94547   4.051   6.193   1.188 -0.3562  0.0843  0.0197
  701MOL0     C94548   3.708   6.231   1.100 -0.5588 -0.7274 -0.5653
  701MOL0     C94549   3.634   6.269   0.994 -0.3349 -0.1264  0.0412
  701MOL0     N94550   3.086   6.347   0.365 -0.1045  0.9264  0.6718
  701MOL0     N94551   3.018   6.254   0.305 -0.1590 -1.0230 -0.8575
  701MOL0     C94552   2.249   5.700   0.113 -0.7765 -0.8033  0.7122
  701MOL0     C94553   2.127   5.636   0.071 -0.0108 -0.5811 -0.2378
  701MOL0     C94554   1.685   5.554   0.081  0.2243  0.1989  0.0041
  701MOL0     C94555   1.702   5.425   0.021  1.1446  0.0148 -0.3563
  701MOL0     C94556   1.582   5.355  -0.022 -1.2850 -1.2195 -0.8053
  701MOL0     C94557   1.451   5.399   0.007  0.1613 -0.5660 -1.1670
  701MOL0     O94558   1.337   5.331  -0.008  0.0390  0.0550  0.4921
  701MOL0     C94559   1.329   5.213  -0.092  0.4518  0.1239 -0.2070
  701MOL0     C94560   1.192   5.197  -0.151 -0.6013 -0.2597  0.4778
  701MOL0     C94561   1.193   5.067  -0.239  0.3795 -0.2244 -0.8133
  701MOL0     C94562   1.061   5.036  -0.302 -0.7952 -0.4973  0.3472
  701MOL0     C94563   0.947   5.031  -0.208  0.6464 -0.1217 -0.4244
  701MOL0     C94564   0.870   5.026  -0.113  0.7114  0.9363 -0.7614
  701MOL0     C94565   1.444   5.526   0.067  0.6937  0.2663 -0.3248
  701MOL0     C94566   1.552   5.597   0.118 -0.1386 -0.0822 -0.2250
  701MOL0     C94567   1.529   5.729   0.184 -0.1945  0.2393 -0.2648
  701MOL0     H94568   1.984   5.567   0.357  0.6878 -1.6022  1.0165
  701MOL0     H94569   2.223   5.645   0.441  3.9299 -0.9953 -0.9687
  701MOL0     H94570   2.457   5.748   0.485  5.3360  0.5803 -0.1946
  701MOL0     H94571   2.443   5.593   0.393  0.4532 -0.3846 -0.7371
  701MOL0     H94572   2.624   5.658   0.253 -1.8500 -1.1576  1.0192
  701MOL0     H94573   2.665   5.618   0.421  0.5345  0.9780  1.5887
  701MOL0     H94574   2.673   5.854   0.496  3.2456 -0.4425 -0.0938
  701MOL0     H94575   2.638   5.894   0.321  1.6540 -0.4119 -3.4015
  701MOL0     H94576   2.893   5.731   0.380  1.5664 -0.3465 -1.1078
  701MOL0     H94577   2.843   5.825   0.241  0.3980 -4.2260  0.6461
  701MOL0     H94578   2.888   6.021   0.360 -2.9048 -1.2845  0.1076
  701MOL0     H94579   2.895   5.937   0.521  1.3967  0.9335  0.6393
  701MOL0     H94580   3.121   5.964   0.474 -0.9051  0.3964  1.2188
  701MOL0     H94581   3.098   5.800   0.424  0.5204  0.2024 -0.5865
  701MOL0     H94582   3.097   5.843   0.193 -0.8315 -1.7691  3.3514
  701MOL0     H94583   3.236   5.944   0.260 -0.1306 -0.4988 -0.9687
  701MOL0     H94584   3.135   6.055   0.082  1.2499 -0.2955  0.4787
  701MOL0     H94585   2.976   6.042   0.148 -0.0552 -3.3834  1.7042
  701MOL0     H94586   3.328   6.181   0.218 -0.6570  0.7590 -3.4381
  701MOL0     H94587   3.381   6.485   0.313 -2.8335  1.1964 -1.4853
  701MOL0     H94588   3.264   6.505   0.446  0.1788 -2.2108  3.0416
  701MOL0     H94589   3.354   6.316   0.570  1.0530 -0.8141  1.1103
  701MOL0     H94590   3.483   6.292   0.440  0.3943 -1.3107 -0.4475
  701MOL0     H94591   3.446   6.529   0.616  0.0764 -1.1892  0.9661
  701MOL0     H94592   3.564   6.524   0.488 -1.5044  0.3212 -1.0364
  701MOL0     H94593   3.715   6.449   0.656  0.3734  0.0551  1.4324
  701MOL0     H94594   3.631   6.297   0.613 -1.4677 -0.4484  0.7595
  701MOL0     H94595   3.851   6.420   0.799  1.2137 -1.1197  0.5859
  701MOL0     H94596   3.999   6.341   1.000 -1.4469  2.8407  1.1206
  701MOL0     H94597   3.767   6.047   1.492  0.0395 -0.7346 -0.7893
  701MOL0     H94598   3.883   5.941   1.702  1.2845 -0.7554 -0.1900
  701MOL0     H94599   3.984   5.944   1.901 -0.6518  0.7196 -1.4631
  701MOL0     H94600   4.028   5.801   1.804  0.0697  0.0965  1.0193
  701MOL0     H94601   4.110   5.740   2.001  2.4928 -2.1723 -2.1422
  701MOL0     H94602   4.260   5.803   1.923  1.4219  3.0548  0.4243
  701MOL0     H94603   4.256   5.999   2.027  1.0632  0.0862  2.0136
  701MOL0     H94604   4.088   5.989   2.095  0.5721  0.8153  0.5298
  701MOL0     H94605   4.323   5.818   2.183  0.2029 -0.3735  1.5725
  701MOL0     H94606   4.160   5.819   2.259 -0.2731  1.2940  1.4220
  701MOL0     H94607   4.266   5.947   2.398  1.0634 -1.7102 -1.0508
  701MOL0     H94608   4.214   6.082   2.289 -1.5045 -0.8395 -1.6874
  701MOL0     H94609   4.487   5.955   2.251 -0.5738  0.6186 -4.0214
  701MOL0     H94610   4.419   6.096   2.175 -1.1750  1.2402  0.8607
  701MOL0     H94611   4.496   6.065   2.460 -0.7894  0.2816  0.1290
  701MOL0     H94612   4.430   6.217   2.408  1.3914  0.5047  0.9997
  701MOL0     H94613   4.702   6.122   2.297  1.3766  1.4001 -1.0675
  701MOL0     H94614   4.606   6.250   2.225  1.5669 -0.3999  0.6580
  701MOL0     H94615   4.233   6.154   1.620 -0.3570 -1.0163  0.9141
  701MOL0     H94616   4.129   6.250   1.413  0.1631  0.6586 -0.4319
  701MOL0     H94617   3.665   6.181   1.187 -0.0803  2.3184  1.5808
  701MOL0     H94618   3.532   6.233   0.987  0.4979 -2.6999  0.1956
  701MOL0     H94619   2.329   5.735   0.049 -2.1342  3.2480  0.9591
  701MOL0     H94620   2.104   5.606  -0.031  0.2212  0.4461 -0.6065
  701MOL0     H94621   1.799   5.377   0.006  2.3675  1.6083  1.8566
  701MOL0     H94622   1.607   5.258  -0.065 -1.1454 -1.2094 -0.7463
  701MOL0     H94623   1.357   5.126  -0.032  1.6142 -0.5730 -1.6783
  701MOL0     H94624   1.401   5.214  -0.175 -1.0173  1.4195 -1.5301
  701MOL0     H94625   1.163   5.286  -0.208  0.9124 -0.7515 -1.1678
  701MOL0     H94626   1.123   5.184  -0.068  0.0344 -0.7314  0.9365
  701MOL0     H94627   1.227   4.974  -0.193 -1.8880 -0.3669  0.7797
  701MOL0     H94628   1.260   5.084  -0.323 -2.3291 -1.9194 -3.5302
  701MOL0     H94629   1.037   5.112  -0.377 -0.9283 -0.0715  0.8210
  701MOL0     H94630   1.057   4.937  -0.347 -0.7823 -0.4584  0.2595
  701MOL0     H94631   0.794   5.015  -0.038  0.4462  0.3968 -1.0935
  701MOL0     H94632   1.344   5.567   0.076 -0.1756 -1.7934 -0.0337
  701MOL0     H94633   1.574   5.733   0.284 -1.4496  0.3229  0.3171
  701MOL0     H94634   1.560   5.809   0.117 -2.0475 -0.5945 -2.2505
  701MOL0     H94635   1.420   5.741   0.182 -0.1974  1.4803  2.5405
  702MOL0     O94636   0.904   3.408   0.018  0.1452 -0.5865 -0.3582
  702MOL0     C94637   0.942   3.398   0.130 -0.8098 -0.5856 -0.4949
  702MOL0     O94638   1.054   3.466   0.181 -0.4656  0.2190  0.1149
  702MOL0     C94639   1.137   3.538   0.091 -0.6439 -0.6010  0.9913
  702MOL0     C94640   1.281   3.523   0.105  0.4617  0.1323  0.0644
  702MOL0     C94641   1.369   3.581   0.013 -0.4761  0.1717 -0.3917
  702MOL0     C94642   1.320   3.655  -0.090 -0.0918 -0.2625 -0.6303
  702MOL0     O94643   1.395   3.713  -0.188  0.1886 -0.1285 -0.2531
  702MOL0     C94644   1.540   3.714  -0.168 -0.1413  0.0199 -0.6197
  702MOL0     C94645   1.579   3.826  -0.262  0.0358  0.5263  0.2888
  702MOL0     C94646   1.551   3.794  -0.415 -0.7422 -0.9207  0.2290
  702MOL0     C94647   1.587   3.656  -0.465 -0.0052 -0.2508  0.4523
  702MOL0     C94648   1.551   3.631  -0.616 -0.2013  0.1555 -0.3987
  702MOL0     C94649   1.606   3.493  -0.664 -0.8183 -0.2424  0.4401
  702MOL0     C94650   1.546   3.452  -0.803  0.0531  0.3366 -1.0425
  702MOL0     C94651   1.604   3.308  -0.835 -0.2812 -0.6631  0.1378
  702MOL0     N94652   1.547   3.235  -0.953  0.1788 -0.6024 -0.4147
  702MOL0     C94653   1.430   3.162  -0.954  0.0143 -0.0346  0.0705
  702MOL0     C94654   1.428   3.100  -1.073  1.0266 -0.4688 -0.4639
  702MOL0     C94655   1.336   3.007  -1.133 -0.8598  0.3062  0.3198
  702MOL0     C94656   1.189   3.062  -1.119  0.1277 -0.6775  0.2097
  702MOL0     C94657   1.172   3.192  -1.192 -0.1791  0.2478  0.1272
  702MOL0     C94658   1.099   3.161  -1.324  0.1571  0.0959 -0.3384
  702MOL0     O94659   1.079   3.282  -1.393  0.5908 -0.0035 -0.6351
  702MOL0     C94660   0.989   3.379  -1.340  0.1390  0.3944 -0.2423
  702MOL0     C94661   0.977   3.498  -1.406  0.1392  0.3670  0.0234
  702MOL0     C94662   0.875   3.590  -1.396 -0.0378  0.1726  0.1910
  702MOL0     C94663   0.775   3.561  -1.301 -0.5613  0.4241  0.8124
  702MOL0     C94664   0.661   3.654  -1.274 -0.7341 -0.5715 -0.0082
  702MOL0     O94665   0.686   3.787  -1.294  0.0854  0.1900  0.3234
  702MOL0     C94666   0.590   3.884  -1.287  0.0785  0.7215 -0.5442
  702MOL0     C94667   0.582   3.971  -1.392 -0.2633 -0.3936 -0.4402
  702MOL0     C94668   0.477   4.073  -1.393 -0.1089 -0.3949  0.4256
  702MOL0     C94669   0.389   4.082  -1.285  0.1636  0.0781 -1.0629
  702MOL0     O94670   0.293   4.177  -1.266 -0.0816  0.2288 -0.3080
  702MOL0     C94671   0.321   4.310  -1.302  0.4166  0.2795  0.1412
  702MOL0     C94672   0.242   4.410  -1.208  0.7409  0.2993 -0.3536
  702MOL0     C94673   0.262   4.558  -1.247  0.5731 -0.4927  0.0923
  702MOL0     C94674   0.133   4.629  -1.266 -0.1155  0.7177 -0.0458
  702MOL0     C94675   0.153   4.760  -1.333 -0.0515 -0.2351 -0.0474
  702MOL0     C94676   0.016   4.835  -1.325  0.1526  0.4378 -0.8152
  702MOL0     C94677   0.033   4.983  -1.383 -0.3746  0.8811 -0.5274
  702MOL0     C94678  -0.090   5.054  -1.383 -0.7411  0.1862 -0.0069
  702MOL0    Cl94679  -0.161   5.029  -1.548  0.1347  0.0332  0.2233
  702MOL0     C94680   0.398   3.994  -1.183 -1.0168 -0.4974  0.4714
  702MOL0     C94681   0.500   3.898  -1.174 -0.3060  0.4769 -0.4429
  702MOL0     O94682   0.568   3.609  -1.210  0.0890 -0.9656 -0.3018
  702MOL0     C94683   0.786   3.443  -1.221  0.2950  0.2750  1.1044
  702MOL0     C94684   0.894   3.354  -1.242  0.7850  0.4481 -0.0660
  702MOL0     N94685   1.541   3.142  -1.141  0.0087  0.1073 -0.1316
  702MOL0     N94686   1.610   3.219  -1.067 -0.9532  0.5842  0.4629
  702MOL0     C94687   1.179   3.680  -0.107  0.3207 -0.2065  0.2595
  702MOL0     C94688   1.088   3.627  -0.010  0.3776 -0.1063 -0.1062
  702MOL0     C94689   0.869   3.304   0.212 -0.0467 -0.5405 -0.4200
  702MOL0     C94690   0.940   3.244   0.312 -0.1364  0.3924 -0.5364
  702MOL0     C94691   0.874   3.162   0.411 -0.6611  0.4300 -0.6130
  702MOL0     C94692   0.738   3.143   0.407  0.4391  0.9385  0.1968
  702MOL0     O94693   0.680   3.071   0.504 -0.0342 -0.4492 -0.8295
  702MOL0     C94694   0.613   2.950   0.462  0.3764  0.4484  0.4393
  702MOL0     C94695   0.572   2.877   0.588  0.1603  0.0378 -0.6043
  702MOL0     C94696   0.688   2.783   0.619 -0.5496 -0.3853 -0.2472
  702MOL0     C94697   0.800   2.853   0.695  0.0255  0.3657  0.1969
  702MOL0     C94698   0.779   2.837   0.840  1.0263  0.8650  0.4464
  702MOL0     C94699   0.759   2.832   0.960 -0.1285  0.1451  0.0221
  702MOL0     C94700   0.669   3.218   0.319 -0.7597  0.1472 -0.4028
  702MOL0     C94701   0.726   3.295   0.216  0.1844  0.2022  0.0068
  702MOL0     C94702   0.623   3.361   0.121 -0.5473  0.3945 -0.1150
  702MOL0     H94703   1.331   3.459   0.177 -0.5788 -0.5237  0.2216
  702MOL0     H94704   1.475   3.582   0.037 -1.2142  2.4888  3.6835
  702MOL0     H94705   1.571   3.749  -0.069  1.5714  1.8072 -1.6946
  702MOL0     H94706   1.593   3.624  -0.200 -0.4335 -0.7163  0.8944
  702MOL0     H94707   1.687   3.837  -0.253  0.3810  0.0445 -2.4320
  702MOL0     H94708   1.530   3.922  -0.241  1.0230  2.5109 -4.9337
  702MOL0     H94709   1.617   3.863  -0.469  0.2463 -1.8428  0.2237
  702MOL0     H94710   1.447   3.810  -0.445 -0.3727  1.3611 -0.0421
  702MOL0     H94711   1.689   3.639  -0.428 -0.0818  1.6106  1.6844
  702MOL0     H94712   1.522   3.591  -0.407  1.4139 -2.0329  0.1259
  702MOL0     H94713   1.443   3.632  -0.628 -0.0432 -0.5355 -2.4023
  702MOL0     H94714   1.588   3.715  -0.675 -0.3647  0.7900  0.3890
  702MOL0     H94715   1.715   3.489  -0.673 -0.7531  0.4275  0.8694
  702MOL0     H94716   1.575   3.416  -0.592  2.8223 -0.2070  2.2728
  702MOL0     H94717   1.569   3.523  -0.883  0.1879  0.0352 -1.2747
  702MOL0     H94718   1.437   3.442  -0.800 -0.2369  2.5588  2.7523
  702MOL0     H94719   1.711   3.332  -0.843 -0.5991  0.7063 -0.2611
  702MOL0     H94720   1.595   3.241  -0.749 -0.9029 -1.1210 -0.2772
  702MOL0     H94721   1.363   3.145  -0.870 -1.2356  0.5391 -0.7773
  702MOL0     H94722   1.358   2.980  -1.237  0.4279 -2.0487  1.1182
  702MOL0     H94723   1.341   2.908  -1.086  0.1906  0.8176  1.3211
  702MOL0     H94724   1.109   2.996  -1.153 -1.7683  1.2737  0.7006
  702MOL0     H94725   1.177   3.082  -1.013 -1.1702 -0.7270  0.0832
  702MOL0     H94726   1.257   3.258  -1.206 -1.7861  2.1189 -1.5057
  702MOL0     H94727   1.105   3.248  -1.126  1.6728  1.1076  1.3618
  702MOL0     H94728   1.006   3.108  -1.304 -0.0411  0.2684 -0.8068
  702MOL0     H94729   1.159   3.101  -1.393 -1.3128 -1.1126 -0.6007
  702MOL0     H94730   1.047   3.519  -1.487  0.6879 -0.5654  0.2352
  702MOL0     H94731   0.868   3.672  -1.466  2.0701 -1.0055 -1.5272
  702MOL0     H94732   0.661   3.969  -1.466 -0.1953 -0.0716 -0.3773
  702MOL0     H94733   0.480   4.150  -1.469 -0.0500 -0.7091  0.1019
  702MOL0     H94734   0.429   4.321  -1.309  0.3139  0.6616 -1.1459
  702MOL0     H94735   0.285   4.327  -1.404 -2.6554 -0.6421  0.9545
  702MOL0     H94736   0.136   4.387  -1.220  0.2542 -0.0332  3.4665
  702MOL0     H94737   0.264   4.391  -1.103 -0.5725 -0.6019 -0.2192
  702MOL0     H94738   0.314   4.617  -1.171  1.0556  0.5876 -1.0348
  702MOL0     H94739   0.319   4.553  -1.341  0.5005  0.1254  0.0148
  702MOL0     H94740   0.084   4.643  -1.168 -1.4343 -2.5841 -0.1168
  702MOL0     H94741   0.060   4.575  -1.326  0.5779 -1.2594  0.8165
  702MOL0     H94742   0.188   4.742  -1.434  1.0763  0.0117  0.2882
  702MOL0     H94743   0.232   4.810  -1.277 -0.0766  0.1371 -0.3439
  702MOL0     H94744  -0.061   4.774  -1.372  0.3549 -1.7799  1.5273
  702MOL0     H94745  -0.023   4.837  -1.223 -1.8607 -2.4993 -1.4244
  702MOL0     H94746   0.084   4.984  -1.480 -1.8288 -2.8481 -1.5061
  702MOL0     H94747   0.104   5.035  -1.319  1.1406  2.1823 -3.0845
  702MOL0     H94748  -0.144   5.010  -1.299  3.6894  1.4730  3.9862
  702MOL0     H94749  -0.076   5.161  -1.371 -0.7925  0.4736 -2.1418
  702MOL0     H94750   0.316   4.004  -1.113  0.3460 -2.2065  2.4261
  702MOL0     H94751   0.505   3.839  -1.083  0.7228 -0.6830 -1.2123
  702MOL0     H94752   0.709   3.414  -1.152  1.7248 -0.5021  2.4368
  702MOL0     H94753   0.889   3.257  -1.194  1.6231  0.4050 -0.0515
  702MOL0     H94754   1.142   3.752  -0.179  1.5692 -1.7526 -2.0406
  702MOL0     H94755   0.983   3.649   0.002  0.9256  2.7135  0.0559
  702MOL0     H94756   1.048   3.250   0.318 -0.0914 -1.1735  1.2545
  702MOL0     H94757   0.937   3.109   0.480 -1.1674  0.8415  0.1765
  702MOL0     H94758   0.670   2.888   0.392 -0.2309 -0.1474  0.4583
  702MOL0     H94759   0.522   2.977   0.408  0.2224 -3.3594 -1.5844
  702MOL0     H94760   0.479   2.823   0.570 -0.2864 -0.2737  2.2426
  702MOL0     H94761   0.559   2.954   0.664 -1.2806  0.1502 -0.9383
  702MOL0     H94762   0.721   2.744   0.522 -1.9587  1.9689 -1.7692
  702MOL0     H94763   0.653   2.701   0.683  0.2015  0.1192  0.8423
  702MOL0     H94764   0.889   2.799   0.660 -1.1068  0.4393 -3.1779
  702MOL0     H94765   0.817   2.959   0.676  2.4147 -0.0267 -0.2612
  702MOL0     H94766   0.747   2.821   1.066 -0.6742 -2.0986 -0.2133
  702MOL0     H94767   0.562   3.205   0.329 -0.5460 -0.0772  2.3593
  702MOL0     H94768   0.518   3.361   0.151 -1.1657  1.7009 -2.0634
  702MOL0     H94769   0.663   3.454   0.078  0.8318  0.0765  0.4297
  702MOL0     H94770   0.610   3.301   0.031 -0.0552 -0.6183  0.4703
  703MOL0     O94771  10.311   7.705   4.768 -0.1970 -0.2084  0.4841
  703MOL0     C94772  10.211   7.633   4.740 -0.4606 -0.7325  0.1554
  703MOL0     O94773  10.214   7.510   4.681  0.5509  0.1591 -0.1235
  703MOL0     C94774  10.328   7.436   4.662  0.5957 -0.0192 -0.3098
  703MOL0     C94775  10.330   7.352   4.550 -0.1731  0.1358  0.6751
  703MOL0     C94776  10.443   7.279   4.509 -0.2700  0.3857 -0.4122
  703MOL0     C94777  10.563   7.289   4.577  0.5948 -0.2808 -1.4594
  703MOL0     O94778  10.665   7.207   4.542 -0.0420 -0.3102 -0.7760
  703MOL0     C94779  10.767   7.173   4.651  0.0816  0.2499 -0.0868
  703MOL0     C94780  10.835   7.046   4.607 -0.2212  0.0095 -0.5441
  703MOL0     C94781  10.900   7.076   4.469 -0.9411 -0.4459 -0.3366
  703MOL0     C94782  11.034   7.156   4.499  0.3105 -0.3545  1.0327
  703MOL0     C94783  11.115   7.176   4.371 -0.3584  1.2212  0.2297
  703MOL0     C94784  11.151   7.030   4.307 -0.5022 -0.1056  0.4966
  703MOL0     C94785  11.241   7.053   4.190  0.8888 -0.7182  0.3128
  703MOL0     C94786  11.274   6.921   4.138 -0.4148 -0.2466 -0.3648
  703MOL0     N94787  11.389   6.865   4.202  0.7505  0.4396 -0.0634
  703MOL0     C94788  11.467   6.762   4.146  0.1120  0.9273 -0.0937
  703MOL0     C94789  11.563   6.729   4.235  0.6785  0.2426 -0.4293
  703MOL0     C94790  11.673   6.625   4.232 -0.1239  0.5362 -0.2966
  703MOL0     C94791  11.801   6.686   4.305 -0.5173 -0.8328  1.1833
  703MOL0     C94792  11.916   6.597   4.277  0.6459  0.1003 -0.4767
  703MOL0     C94793  12.032   6.632   4.368 -0.4439 -0.1296 -0.2389
  703MOL0     O94794  12.142   6.537   4.355 -0.1456 -0.2568  0.2439
  703MOL0     C94795  12.254   6.555   4.425  0.0576 -0.6825 -0.2840
  703MOL0     C94796  12.313   6.682   4.447 -0.1461 -0.0251  0.0178
  703MOL0     C94797  12.433   6.687   4.518  0.1459  0.1085  1.1923
  703MOL0     C94798  12.500   6.572   4.562 -0.3386 -0.3301  0.5022
  703MOL0     C94799  12.639   6.584   4.614  0.2219  0.5770 -0.5069
  703MOL0     O94800  12.683   6.471   4.672 -0.1916  0.4233 -0.3101
  703MOL0     C94801  12.822   6.466   4.695  0.5568  1.0720 -0.3761
  703MOL0     C94802  12.894   6.370   4.625 -0.1368 -0.7422  0.0769
  703MOL0     C94803  13.035   6.362   4.641  0.2857  0.0504 -0.4481
  703MOL0     C94804  13.098   6.440   4.735 -0.4026 -0.3125  0.3182
  703MOL0     O94805  13.239   6.425   4.754 -0.2021  0.0747 -0.2150
  703MOL0     C94806  13.315   6.307   4.719  0.3076  0.1742  0.2006
  703MOL0     C94807  13.458   6.295   4.772  0.2339  0.3636  0.5105
  703MOL0     C94808  13.542   6.423   4.754  0.0748 -0.0374  0.1885
  703MOL0     C94809  13.685   6.379   4.783  0.6090 -0.3888  0.1577
  703MOL0     C94810  13.792   6.486   4.727  0.0332  0.2818 -0.4280
  703MOL0     C94811  13.929   6.424   4.726  0.2847 -0.2333  0.6076
  703MOL0     C94812  14.022   6.511   4.645 -0.0416  0.3159 -0.2885
  703MOL0     C94813  14.168   6.481   4.688  0.0631 -0.1726  0.6558
  703MOL0    Cl94814  14.231   6.592   4.806  0.2931  0.0945 -0.4723
  703MOL0     C94815  13.021   6.536   4.809  0.2421 -0.0995 -0.6111
  703MOL0     C94816  12.883   6.553   4.787  0.4511  0.4477  0.0049
  703MOL0     O94817  12.698   6.695   4.611  0.5770 -0.1232  0.0896
  703MOL0     C94818  12.446   6.448   4.539 -0.1851  0.0168  0.1956
  703MOL0     C94819  12.320   6.437   4.466 -0.0346 -0.1650 -0.6825
  703MOL0     N94820  11.539   6.814   4.348  0.2513  0.8833  0.6166
  703MOL0     N94821  11.439   6.889   4.325  0.1868  0.1164  0.2882
  703MOL0     C94822  10.566   7.379   4.689  1.5158  0.0750 -0.5384
  703MOL0     C94823  10.450   7.449   4.730 -0.4065  0.3373  0.0546
  703MOL0     C94824  10.076   7.677   4.795  0.5553 -0.0563 -0.1959
  703MOL0     C94825   9.960   7.610   4.751  0.5634  0.1965  0.7653
  703MOL0     C94826   9.835   7.644   4.799 -0.2649  0.2644 -0.0410
  703MOL0     C94827   9.815   7.744   4.894 -0.3357  0.8039  0.6079
  703MOL0     O94828   9.690   7.759   4.940 -0.1245 -0.6522 -0.5122
  703MOL0     C94829   9.660   7.854   5.047 -0.2255 -0.2378  0.8560
  703MOL0     C94830   9.540   7.813   5.109  0.9649 -0.2843  0.3173
  703MOL0     C94831   9.488   7.898   5.226 -0.5423  0.0851  0.4186
  703MOL0     C94832   9.381   7.832   5.306  0.4727 -0.7425  0.9459
  703MOL0     C94833   9.237   7.842   5.267  0.0038 -0.2742  0.6882
  703MOL0     C94834   9.117   7.848   5.240 -0.8569  0.0095 -0.2755
  703MOL0     C94835   9.928   7.807   4.948 -0.5295 -0.4901  0.1484
  703MOL0     C94836  10.054   7.779   4.896 -0.3119  0.0060  0.2026
  703MOL0     C94837  10.178   7.861   4.947  0.8512 -0.8668 -0.8029
  703MOL0     H94838  10.234   7.344   4.499 -0.7716 -0.1548  1.8221
  703MOL0     H94839  10.427   7.211   4.426 -0.1245  1.5475 -1.4143
  703MOL0     H94840  10.843   7.250   4.665 -1.2886  1.4741  0.8854
  703MOL0     H94841  10.717   7.161   4.748  1.1807 -2.4997  0.2588
  703MOL0     H94842  10.762   6.965   4.596  0.3989 -0.8640  1.4209
  703MOL0     H94843  10.903   7.013   4.686  1.0412 -1.7112 -2.2375
  703MOL0     H94844  10.841   7.145   4.408  1.1059  0.3923 -1.4855
  703MOL0     H94845  10.916   6.985   4.411 -3.1522 -0.8543 -0.3774
  703MOL0     H94846  11.017   7.256   4.540  2.5083 -0.8022  3.3314
  703MOL0     H94847  11.088   7.107   4.581 -0.1413 -2.0935  0.3232
  703MOL0     H94848  11.064   7.242   4.301 -0.1136  1.2236  0.0511
  703MOL0     H94849  11.203   7.223   4.415 -1.4081  2.1524  1.3990
  703MOL0     H94850  11.191   6.960   4.381  3.1310 -0.6338 -1.7717
  703MOL0     H94851  11.066   6.973   4.268  0.2137 -0.4889 -0.5181
  703MOL0     H94852  11.329   7.105   4.229  0.1479 -0.6191  1.9433
  703MOL0     H94853  11.180   7.114   4.123  1.9595  2.3876  1.9926
  703MOL0     H94854  11.198   6.844   4.150 -1.3219  0.7905  0.7490
  703MOL0     H94855  11.292   6.922   4.030  1.2255 -4.8810 -0.3900
  703MOL0     H94856  11.453   6.707   4.054 -1.9384 -0.2080  0.8054
  703MOL0     H94857  11.636   6.537   4.285  1.8901  0.9904  2.0700
  703MOL0     H94858  11.702   6.598   4.130 -0.2371 -0.5874 -0.0431
  703MOL0     H94859  11.820   6.787   4.268 -0.8468 -1.5583 -1.0695
  703MOL0     H94860  11.793   6.691   4.414  3.1026 -1.8054  1.6215
  703MOL0     H94861  11.950   6.600   4.173 -0.3562  0.6539 -0.7951
  703MOL0     H94862  11.883   6.497   4.305  0.0830 -0.0206 -1.5305
  703MOL0     H94863  11.999   6.633   4.472  1.7723  2.7503  0.5842
  703MOL0     H94864  12.072   6.732   4.346  0.0603 -0.2839 -0.0398
  703MOL0     H94865  12.284   6.776   4.401  2.8626  0.4038 -1.2352
  703MOL0     H94866  12.483   6.783   4.530  0.4646  0.0081  0.6527
  703MOL0     H94867  12.846   6.305   4.553 -0.0833 -1.9798  1.1235
  703MOL0     H94868  13.096   6.290   4.588  3.6606  0.7346  2.2009
  703MOL0     H94869  13.257   6.227   4.764 -2.2602  1.4759 -0.5810
  703MOL0     H94870  13.324   6.302   4.610 -0.0974 -2.9289  0.2256
  703MOL0     H94871  13.447   6.266   4.877 -1.4507  0.5537  0.4175
  703MOL0     H94872  13.506   6.218   4.711 -0.1306  2.3737 -2.5895
  703MOL0     H94873  13.531   6.472   4.657 -0.4898  1.0347  0.7679
  703MOL0     H94874  13.501   6.493   4.827  0.4865 -0.2043  0.5816
  703MOL0     H94875  13.702   6.282   4.735  0.6269  0.5387 -1.7843
  703MOL0     H94876  13.695   6.373   4.892 -0.2409 -0.5627  0.2349
  703MOL0     H94877  13.796   6.571   4.796  2.1261  0.4278 -0.6561
  703MOL0     H94878  13.767   6.524   4.627  0.1179  0.7067 -0.2930
  703MOL0     H94879  13.965   6.408   4.828 -2.8814 -1.4200  1.6697
  703MOL0     H94880  13.927   6.326   4.677  2.9729 -0.5293  0.9313
  703MOL0     H94881  13.992   6.615   4.659 -0.3140  0.3698 -1.1748
  703MOL0     H94882  14.005   6.489   4.539  0.7358 -0.0207 -0.3496
  703MOL0     H94883  14.176   6.373   4.707  1.7197 -0.6548 -2.1822
  703MOL0     H94884  14.236   6.496   4.604 -0.9479 -0.4627 -0.2354
  703MOL0     H94885  13.079   6.592   4.882 -0.0999  1.3357 -1.3921
  703MOL0     H94886  12.813   6.616   4.842 -1.8902 -1.4963 -0.5596
  703MOL0     H94887  12.502   6.365   4.581  2.1859  1.4855  0.1386
  703MOL0     H94888  12.289   6.340   4.429  0.6256  0.0167 -1.7764
  703MOL0     H94889  10.661   7.388   4.741  1.6827  0.2365 -0.8681
  703MOL0     H94890  10.459   7.505   4.823  2.0251 -0.3768  0.3209
  703MOL0     H94891   9.956   7.529   4.680 -2.5233  0.3481  0.6241
  703MOL0     H94892   9.750   7.589   4.758 -0.8829  1.0852  0.1168
  703MOL0     H94893   9.644   7.950   4.997 -1.9395 -2.2131 -2.8109
  703MOL0     H94894   9.746   7.856   5.114 -0.7462 -0.2675  1.5336
  703MOL0     H94895   9.550   7.710   5.143  0.9736  0.0305  1.2857
  703MOL0     H94896   9.459   7.809   5.035  0.5255  1.7579  0.6224
  703MOL0     H94897   9.452   7.988   5.176 -1.4607 -0.3506  0.2905
  703MOL0     H94898   9.564   7.937   5.295  1.5805 -2.4587 -0.3303
  703MOL0     H94899   9.389   7.723   5.300 -2.1534 -0.9841  0.6159
  703MOL0     H94900   9.395   7.868   5.408 -0.3290 -0.3347  0.9227
  703MOL0     H94901   9.011   7.847   5.231 -0.8723 -2.2216 -0.5773
  703MOL0     H94902   9.926   7.872   5.035 -0.6566 -1.1552  0.6527
  703MOL0     H94903  10.260   7.808   4.996 -0.2154 -3.1313 -1.3299
  703MOL0     H94904  10.223   7.901   4.856 -2.6174 -0.0354 -2.3114
  703MOL0     H94905  10.147   7.953   4.998  2.3831 -0.1439 -1.1313
  704MOL0     O94906   9.318   2.473   9.214 -0.2044  0.3666 -0.3165
  704MOL0     C94907   9.330   2.360   9.257  0.2360  0.3584  0.2952
  704MOL0     O94908   9.455   2.298   9.282  0.2523  0.8790 -0.2168
  704MOL0     C94909   9.571   2.366   9.269 -0.3812 -0.1613 -0.0839
  704MOL0     C94910   9.609   2.417   9.144  0.2753  0.5210 -0.7627
  704MOL0     C94911   9.737   2.475   9.136 -0.6648 -0.3605  0.9900
  704MOL0     C94912   9.821   2.474   9.236 -0.4583  1.0530 -1.2498
  704MOL0     O94913   9.943   2.522   9.212 -0.2149  0.2177  0.1139
  704MOL0     C94914  10.056   2.483   9.291  0.0669 -0.0421 -0.1656
  704MOL0     C94915  10.174   2.527   9.209 -0.2620 -0.6996  0.9976
  704MOL0     C94916  10.314   2.484   9.248 -0.7801  0.2805 -1.0135
  704MOL0     C94917  10.413   2.547   9.160 -0.0062  0.2234  0.6363
  704MOL0     C94918  10.561   2.504   9.195 -0.1875 -0.6300 -0.6091
  704MOL0     C94919  10.667   2.612   9.148 -0.6008  0.4426 -0.3830
  704MOL0     C94920  10.809   2.570   9.187 -0.8403  0.3276 -0.7699
  704MOL0     C94921  10.831   2.584   9.333  0.0073 -1.3725 -0.2199
  704MOL0     N94922  10.969   2.551   9.370  0.3563 -0.0065  0.6286
  704MOL0     C94923  11.060   2.481   9.300  0.0374 -0.0073 -0.2785
  704MOL0     C94924  11.160   2.465   9.381 -0.1917 -0.7801  0.0203
  704MOL0     C94925  11.286   2.372   9.348 -0.2858  0.4060  0.1439
  704MOL0     C94926  11.331   2.401   9.202  0.4001  0.2425  0.2455
  704MOL0     C94927  11.473   2.341   9.182 -0.2787  0.3183  0.5717
  704MOL0     C94928  11.462   2.189   9.177  0.3207  0.8599 -0.9153
  704MOL0     O94929  11.559   2.129   9.087  0.1821 -0.5043  0.4247
  704MOL0     C94930  11.694   2.144   9.118  0.9081  0.4135  0.2709
  704MOL0     C94931  11.753   2.192   9.238 -0.7850 -0.1688 -0.1545
  704MOL0     C94932  11.892   2.198   9.248 -0.0718  0.1458  0.1917
  704MOL0     C94933  11.977   2.153   9.150 -0.2828 -0.1247  0.6893
  704MOL0     C94934  12.123   2.160   9.163  1.0434  0.5631 -0.0346
  704MOL0     O94935  12.196   2.095   9.067 -0.3329 -0.4622  0.8704
  704MOL0     C94936  12.333   2.091   9.056  0.4517 -0.3911 -0.3003
  704MOL0     C94937  12.377   2.037   8.937 -0.5413  0.5530  0.1457
  704MOL0     C94938  12.517   2.036   8.913  0.4341 -0.4660  0.1532
  704MOL0     C94939  12.603   2.091   9.003  0.7396  0.1948 -0.1375
  704MOL0     O94940  12.737   2.067   8.980  0.5415 -0.8590  0.2855
  704MOL0     C94941  12.814   2.182   8.951 -0.5452 -0.5755 -0.7090
  704MOL0     C94942  12.947   2.139   8.884  0.1549 -0.4844 -0.1919
  704MOL0     C94943  13.063   2.106   8.979 -0.1543  0.0271  0.4997
  704MOL0     C94944  13.029   2.015   9.099 -0.0865  0.1736  0.6224
  704MOL0     C94945  13.148   1.971   9.186  0.3532 -0.0397  0.6177
  704MOL0     C94946  13.231   1.853   9.117 -0.1383 -0.0354 -0.1910
  704MOL0     C94947  13.317   1.779   9.215 -0.1599  0.6172 -0.3551
  704MOL0     C94948  13.429   1.845   9.302 -0.3574 -0.1653 -0.3667
  704MOL0    Cl94949  13.508   1.728   9.412 -0.0399  0.3456  0.0618
  704MOL0     C94950  12.550   2.142   9.118  0.5256 -0.3813 -0.7132
  704MOL0     C94951  12.420   2.147   9.145 -0.1756 -0.3486  0.3420
  704MOL0     O94952  12.165   2.223   9.261 -0.4642 -1.0085 -0.0273
  704MOL0     C94953  11.923   2.105   9.029  0.5556  0.1541 -0.6185
  704MOL0     C94954  11.786   2.100   9.013  0.4072  0.4323  0.3651
  704MOL0     N94955  11.134   2.543   9.492  0.4422  0.5318 -0.0157
  704MOL0     N94956  11.016   2.590   9.486  0.1982 -0.4047  1.0968
  704MOL0     C94957   9.787   2.426   9.361 -0.3965 -0.2480 -0.2938
  704MOL0     C94958   9.656   2.377   9.379 -0.2663 -0.6173 -0.0726
  704MOL0     C94959   9.209   2.286   9.297  0.3252  0.2397  0.5017
  704MOL0     C94960   9.220   2.175   9.382 -0.6739 -1.1690 -0.2513
  704MOL0     C94961   9.115   2.112   9.445 -0.2667 -0.2185 -1.0463
  704MOL0     C94962   8.986   2.149   9.423 -0.0987 -0.4490 -0.3008
  704MOL0     O94963   8.888   2.097   9.505  0.1783  0.0825  0.6768
  704MOL0     C94964   8.770   2.051   9.443  0.2169  0.0954 -0.0760
  704MOL0     C94965   8.706   1.964   9.551 -0.9384 -0.4044  0.2929
  704MOL0     C94966   8.572   1.911   9.489 -0.3515  0.2694  0.5783
  704MOL0     C94967   8.458   2.004   9.539 -0.2090  0.3724  0.4884
  704MOL0     C94968   8.427   1.997   9.686  0.2985 -0.5812  0.2111
  704MOL0     C94969   8.401   1.997   9.809 -0.6233 -0.9486  0.2105
  704MOL0     C94970   8.968   2.254   9.336  0.3846  0.0087 -0.6455
  704MOL0     C94971   9.072   2.325   9.266 -0.2609  0.5653 -0.6501
  704MOL0     C94972   9.031   2.428   9.166 -0.7712 -0.5504  0.1020
  704MOL0     H94973   9.544   2.404   9.057 -0.9358 -0.9788  0.3201
  704MOL0     H94974   9.774   2.499   9.037 -0.6314 -5.4325 -0.4778
  704MOL0     H94975  10.050   2.535   9.387 -1.0970 -0.4297 -0.0095
  704MOL0     H94976  10.051   2.374   9.304 -3.7777 -0.3136 -2.2772
  704MOL0     H94977  10.172   2.636   9.211  1.3638 -0.5535 -1.0690
  704MOL0     H94978  10.148   2.498   9.106 -1.4502  1.2994  0.6789
  704MOL0     H94979  10.325   2.376   9.239 -0.4644  0.1283  0.8076
  704MOL0     H94980  10.326   2.511   9.353 -2.1006  1.7706 -1.2098
  704MOL0     H94981  10.397   2.518   9.055 -2.5163 -0.6530  1.1787
  704MOL0     H94982  10.408   2.656   9.169 -2.2995 -0.0154  3.6110
  704MOL0     H94983  10.570   2.489   9.303 -0.5285  2.1661 -0.1198
  704MOL0     H94984  10.576   2.405   9.152  0.6826 -0.4231 -0.8095
  704MOL0     H94985  10.662   2.626   9.039 -0.9617  1.5846 -0.2318
  704MOL0     H94986  10.634   2.705   9.194  0.1667  0.7387 -0.4186
  704MOL0     H94987  10.883   2.633   9.137  0.3564 -2.0263 -2.1041
  704MOL0     H94988  10.821   2.465   9.159 -0.2305  0.0222  0.5530
  704MOL0     H94989  10.798   2.679   9.376  1.2950 -1.1756  0.4094
  704MOL0     H94990  10.766   2.519   9.393  0.1868 -0.4942  0.9782
  704MOL0     H94991  11.043   2.433   9.204 -0.7558 -3.9438  1.6657
  704MOL0     H94992  11.367   2.416   9.408  0.8812 -1.7878  0.2726
  704MOL0     H94993  11.281   2.267   9.376  0.8270 -0.1017 -1.4063
  704MOL0     H94994  11.254   2.367   9.132  0.1772  2.2656 -0.5669
  704MOL0     H94995  11.343   2.510   9.198 -0.2607  0.4394  2.3727
  704MOL0     H94996  11.548   2.380   9.251  2.0026 -2.4829 -0.1325
  704MOL0     H94997  11.507   2.361   9.079  1.8606 -1.3890  0.8810
  704MOL0     H94998  11.360   2.173   9.142  0.6870  1.7794 -2.4874
  704MOL0     H94999  11.478   2.141   9.274  1.6623  2.0129 -0.5379
  704MOL0     H95000  11.689   2.218   9.322 -1.2920 -1.0015 -0.2704
  704MOL0     H95001  11.919   2.239   9.345  2.3339 -0.8951  0.0205
  704MOL0     H95002  12.307   1.985   8.873  3.0999 -5.1269  0.0904
  704MOL0     H95003  12.556   1.987   8.825  0.0382  0.9909 -0.8643
  704MOL0     H95004  12.761   2.248   8.881 -2.7594 -0.7056  0.7320
  704MOL0     H95005  12.828   2.239   9.043  3.9757 -2.2204 -0.1358
  704MOL0     H95006  12.931   2.050   8.822  0.3600  0.1859 -1.2317
  704MOL0     H95007  12.976   2.221   8.818  0.6470  0.7882  1.5254
  704MOL0     H95008  13.144   2.051   8.929  0.0229 -0.9863  1.8596
  704MOL0     H95009  13.120   2.190   9.022  2.1821 -2.0641  1.7419
  704MOL0     H95010  12.973   1.930   9.059 -0.9762  0.2328  1.6863
  704MOL0     H95011  12.961   2.054   9.176 -3.1876 -2.4112 -0.5587
  704MOL0     H95012  13.110   1.946   9.285 -1.7393  0.3004 -0.0612
  704MOL0     H95013  13.220   2.052   9.202  1.3142 -0.3911 -1.4359
  704MOL0     H95014  13.160   1.782   9.072  0.7567 -0.6792 -0.6032
  704MOL0     H95015  13.287   1.885   9.029  1.3042 -5.2092 -1.5174
  704MOL0     H95016  13.366   1.701   9.155  0.3678  0.8716 -0.2542
  704MOL0     H95017  13.243   1.736   9.284 -2.5099  0.4750 -2.7813
  704MOL0     H95018  13.507   1.892   9.240  2.4870 -0.7758  2.4670
  704MOL0     H95019  13.387   1.926   9.362  1.0330 -0.7890  1.5351
  704MOL0     H95020  12.626   2.190   9.179 -0.7030  1.6145 -0.6795
  704MOL0     H95021  12.396   2.206   9.233 -1.3148  1.0949 -0.8844
  704MOL0     H95022  11.982   2.062   8.949 -0.8772 -3.1306 -0.0948
  704MOL0     H95023  11.740   2.058   8.923  1.8823 -0.1437 -0.1472
  704MOL0     H95024   9.860   2.425   9.442  0.4435 -2.6300 -1.0076
  704MOL0     H95025   9.626   2.327   9.470 -0.8883 -1.4333 -0.7128
  704MOL0     H95026   9.321   2.146   9.412 -0.6598 -0.5826  0.2906
  704MOL0     H95027   9.136   2.041   9.524  2.3682  1.6837  0.0829
  704MOL0     H95028   8.784   1.993   9.351  1.1120  1.4247 -0.8047
  704MOL0     H95029   8.715   2.141   9.416  0.0345  1.6265  4.5088
  704MOL0     H95030   8.694   2.019   9.645 -2.1405 -0.9031  0.4420
  704MOL0     H95031   8.769   1.875   9.562  0.9644  0.9082  0.5920
  704MOL0     H95032   8.546   1.807   9.510  0.2455  0.4326  2.2249
  704MOL0     H95033   8.569   1.917   9.379 -1.5288 -1.0037  0.5038
  704MOL0     H95034   8.485   2.108   9.521  0.1940  0.2095  0.1395
  704MOL0     H95035   8.376   1.970   9.476  1.0730  0.4117 -1.2899
  704MOL0     H95036   8.379   1.981   9.912 -0.8851 -1.5429  0.0670
  704MOL0     H95037   8.865   2.286   9.324  0.8852  1.0040 -2.8516
  704MOL0     H95038   9.051   2.527   9.209  3.0397 -1.6519  1.1742
  704MOL0     H95039   9.087   2.418   9.073 -0.5849  0.4237  0.1000
  704MOL0     H95040   8.931   2.410   9.125  0.3429 -4.3705 -1.3638
  705MOL0     O95041   4.654   4.959   5.332  0.9628 -0.7255 -0.3745
  705MOL0     C95042   4.697   5.063   5.289 -0.2250 -0.3405 -0.1027
  705MOL0     O95043   4.652   5.199   5.311  0.2082  0.4733 -0.6398
  705MOL0     C95044   4.534   5.226   5.384 -0.1860  0.1163  0.0573
  705MOL0     C95045   4.451   5.332   5.345  0.3519 -0.6299 -0.5575
  705MOL0     C95046   4.348   5.375   5.429 -0.0716 -0.9820  0.2791
  705MOL0     C95047   4.318   5.305   5.551  0.2959  0.8794 -0.0399
  705MOL0     O95048   4.209   5.324   5.633  0.5266 -0.3017 -0.1856
  705MOL0     C95049   4.130   5.436   5.598 -0.2819  0.4989  0.3076
  705MOL0     C95050   3.991   5.412   5.650 -0.4558  0.6118 -0.1369
  705MOL0     C95051   3.997   5.445   5.800 -0.5609 -0.2803  0.0611
  705MOL0     C95052   3.870   5.414   5.876 -0.3473 -0.0447 -0.3681
  705MOL0     C95053   3.878   5.479   6.016 -0.1166  0.3596  0.6438
  705MOL0     C95054   3.758   5.426   6.095 -1.3194 -0.1318  0.7887
  705MOL0     C95055   3.777   5.474   6.242  0.5837  0.1911  0.2808
  705MOL0     C95056   3.655   5.428   6.316 -0.6111 -0.4759  0.1197
  705MOL0     N95057   3.537   5.509   6.288 -0.6366  0.1239  0.1205
  705MOL0     C95058   3.435   5.465   6.204 -0.4337 -0.6647  0.5746
  705MOL0     C95059   3.344   5.574   6.222 -0.3215  0.9330  0.6394
  705MOL0     C95060   3.222   5.574   6.142 -0.0035 -0.8085 -0.0414
  705MOL0     C95061   3.099   5.507   6.208  0.2551 -0.3433 -0.9254
  705MOL0     C95062   3.070   5.576   6.342 -0.2535  0.1356 -0.2185
  705MOL0     C95063   2.981   5.500   6.441 -0.4931 -0.1503  0.1215
  705MOL0     O95064   3.022   5.359   6.454 -0.2438 -0.2606  0.1283
  705MOL0     C95065   3.142   5.349   6.526 -0.5853 -0.0747  0.5909
  705MOL0     C95066   3.246   5.269   6.464 -0.3659  0.0197 -0.2491
  705MOL0     C95067   3.377   5.259   6.519 -0.0258  0.1111 -0.2770
  705MOL0     C95068   3.407   5.329   6.643  0.0749 -0.4550 -0.4090
  705MOL0     C95069   3.544   5.342   6.681  0.0355 -0.7744  0.1481
  705MOL0     O95070   3.566   5.409   6.798 -0.4686 -0.1307  0.5323
  705MOL0     C95071   3.694   5.425   6.848  0.1144 -1.2145 -0.1080
  705MOL0     C95072   3.704   5.457   6.991 -0.0135 -0.7906  0.1448
  705MOL0     C95073   3.824   5.481   7.050 -0.5672 -0.7464 -0.2195
  705MOL0     C95074   3.941   5.503   6.971  0.4818  1.1926 -0.2268
  705MOL0     O95075   4.045   5.548   7.044  0.4038  0.6638  0.1241
  705MOL0     C95076   4.145   5.624   6.968 -0.4513 -0.8597 -1.4272
  705MOL0     C95077   4.264   5.544   6.926  0.4287  0.2264  0.4986
  705MOL0     C95078   4.358   5.624   6.830  0.3297 -0.1970 -0.2971
  705MOL0     C95079   4.460   5.533   6.773  0.2431  1.2144  0.4199
  705MOL0     C95080   4.578   5.600   6.695 -0.2978  0.5262 -0.2367
  705MOL0     C95081   4.697   5.502   6.678  0.2874  0.4447 -0.0333
  705MOL0     C95082   4.658   5.398   6.569 -0.5523 -0.1487  0.0474
  705MOL0     C95083   4.770   5.291   6.562 -0.0020 -0.4003  0.6071
  705MOL0    Cl95084   4.765   5.233   6.401 -0.0167  0.1599  0.3122
  705MOL0     C95085   3.940   5.467   6.840  0.0151  0.3474  0.0529
  705MOL0     C95086   3.818   5.433   6.780  0.6956  1.1041 -0.8407
  705MOL0     O95087   3.627   5.276   6.619  0.1561 -0.4883 -0.4361
  705MOL0     C95088   3.301   5.391   6.712 -0.5798  0.4815  0.3284
  705MOL0     C95089   3.174   5.408   6.649  0.2584  0.5027 -0.8411
  705MOL0     N95090   3.393   5.673   6.299  0.2453 -0.0428 -0.4338
  705MOL0     N95091   3.515   5.633   6.336 -0.8133  0.0435 -0.3397
  705MOL0     C95092   4.400   5.197   5.584 -0.2170  0.0101  0.6630
  705MOL0     C95093   4.509   5.166   5.508  0.1275  0.4710  0.1024
  705MOL0     C95094   4.831   5.058   5.214  0.5085  0.8049  0.2510
  705MOL0     C95095   4.912   4.943   5.231 -0.1905  0.9202  0.1360
  705MOL0     C95096   5.040   4.940   5.165  0.4147 -0.8016 -0.5748
  705MOL0     C95097   5.086   5.049   5.098 -0.7427  0.3927 -0.1212
  705MOL0     O95098   5.212   5.043   5.037 -0.5229  0.0164 -0.4031
  705MOL0     C95099   5.301   4.927   5.045  0.6496  0.8470  0.6990
  705MOL0     C95100   5.427   4.957   4.961 -0.2782  0.2108  0.2724
  705MOL0     C95101   5.511   5.053   5.053 -0.5740 -0.4116 -0.4193
  705MOL0     C95102   5.655   5.084   5.008  1.5400  0.1116  0.6516
  705MOL0     C95103   5.666   5.092   4.862  0.8477  0.2689  0.0080
  705MOL0     C95104   5.675   5.098   4.738  0.0667  0.1614 -0.5594
  705MOL0     C95105   5.013   5.164   5.082  0.2327 -0.4543 -0.8183
  705MOL0     C95106   4.888   5.173   5.143  0.4936  0.5271 -0.6697
  705MOL0     C95107   4.820   5.294   5.099 -0.3900 -0.5266 -0.2400
  705MOL0     H95108   4.470   5.387   5.253  1.1626  0.8714  0.4584
  705MOL0     H95109   4.290   5.461   5.398  3.7508  1.4185 -0.7487
  705MOL0     H95110   4.163   5.533   5.637  0.5419 -0.3056  1.7045
  705MOL0     H95111   4.108   5.439   5.491  2.4829  0.1135 -0.3374
  705MOL0     H95112   3.950   5.313   5.631 -0.5247 -0.1154  3.2690
  705MOL0     H95113   3.927   5.482   5.595 -1.8259  1.8088  2.7936
  705MOL0     H95114   4.028   5.549   5.813 -0.3139 -0.5580  1.9625
  705MOL0     H95115   4.075   5.388   5.852 -0.3288 -1.3936 -1.4564
  705MOL0     H95116   3.772   5.435   5.832 -1.2312 -3.2406 -0.2020
  705MOL0     H95117   3.874   5.305   5.880  0.8755 -0.1530 -2.7051
  705MOL0     H95118   3.970   5.447   6.065 -0.7005 -1.4524  0.6128
  705MOL0     H95119   3.877   5.588   6.001 -4.8158  0.4910  0.4330
  705MOL0     H95120   3.665   5.466   6.055  0.9806  2.8366 -2.2458
  705MOL0     H95121   3.743   5.317   6.091 -3.9136  0.1479  1.7318
  705MOL0     H95122   3.780   5.583   6.239 -1.8303  0.3024 -2.4421
  705MOL0     H95123   3.867   5.430   6.286  1.5838  2.4810  0.6617
  705MOL0     H95124   3.633   5.322   6.307 -0.8439 -0.4338  0.1997
  705MOL0     H95125   3.686   5.442   6.421  2.8238 -0.9796 -0.6863
  705MOL0     H95126   3.429   5.372   6.147 -0.7089 -1.7829  2.3669
  705MOL0     H95127   3.201   5.680   6.125 -0.0431 -0.6566  0.9056
  705MOL0     H95128   3.234   5.531   6.042 -0.4741  0.4444 -0.6478
  705MOL0     H95129   3.018   5.531   6.139 -1.5635  0.5324  1.3669
  705MOL0     H95130   3.113   5.399   6.221  1.4265  0.0718  2.3189
  705MOL0     H95131   3.017   5.671   6.328 -0.7462 -0.3814 -2.1908
  705MOL0     H95132   3.164   5.589   6.397 -1.1124  0.0380  1.3139
  705MOL0     H95133   2.881   5.488   6.399  0.2203  1.2334 -2.1956
  705MOL0     H95134   2.970   5.552   6.536 -0.8215  1.5865 -0.8250
  705MOL0     H95135   3.222   5.216   6.373 -1.9294 -5.2420  2.7993
  705MOL0     H95136   3.459   5.218   6.460  1.4276  1.4154  0.7592
  705MOL0     H95137   3.612   5.460   7.047  0.5831 -0.0575  1.1131
  705MOL0     H95138   3.827   5.500   7.156  2.3225  0.6646 -0.4510
  705MOL0     H95139   4.099   5.662   6.877 -1.2288  0.5352 -0.5032
  705MOL0     H95140   4.175   5.714   7.023 -1.0141 -1.5213  0.0137
  705MOL0     H95141   4.315   5.501   7.013 -1.8427 -0.2977  1.6302
  705MOL0     H95142   4.211   5.459   6.881  0.2305 -1.9828  4.4306
  705MOL0     H95143   4.296   5.676   6.756 -1.7894 -1.1868  0.6731
  705MOL0     H95144   4.417   5.700   6.882  1.0111 -1.0250  0.1666
  705MOL0     H95145   4.408   5.463   6.708 -1.2017  1.6453  1.0737
  705MOL0     H95146   4.513   5.474   6.848  0.7936 -1.8100 -2.1287
  705MOL0     H95147   4.613   5.684   6.756 -2.4443 -0.9333  3.2969
  705MOL0     H95148   4.552   5.626   6.592 -0.3360 -0.8842 -0.6117
  705MOL0     H95149   4.786   5.562   6.653 -0.2048 -0.0573 -3.4824
  705MOL0     H95150   4.713   5.456   6.776  1.0537 -2.7754 -1.5290
  705MOL0     H95151   4.662   5.458   6.477  1.5467 -0.5405 -0.1758
  705MOL0     H95152   4.561   5.350   6.586 -0.4582 -1.1455 -1.9896
  705MOL0     H95153   4.869   5.334   6.578  0.9555 -1.7711 -1.2880
  705MOL0     H95154   4.750   5.207   6.629 -1.7984 -1.3056 -0.9675
  705MOL0     H95155   4.026   5.475   6.775  1.7856 -0.1758  2.1760
  705MOL0     H95156   3.817   5.424   6.671  1.1163 -0.5921 -0.7377
  705MOL0     H95157   3.309   5.428   6.814 -0.4487  0.2661  0.3970
  705MOL0     H95158   3.091   5.460   6.696  0.0755 -1.5263  1.1860
  705MOL0     H95159   4.364   5.147   5.674 -2.2099 -0.1444 -0.1572
  705MOL0     H95160   4.582   5.093   5.541  1.1131  0.4013 -2.0687
  705MOL0     H95161   4.895   4.856   5.293  2.6370 -0.6538 -1.0773
  705MOL0     H95162   5.110   4.859   5.184 -0.4354 -0.8753  2.7951
  705MOL0     H95163   5.242   4.845   5.003  2.9490 -1.2542  1.3044
  705MOL0     H95164   5.322   4.899   5.148 -0.9034  0.8932  1.0454
  705MOL0     H95165   5.399   5.007   4.868 -3.1127 -0.3419  0.7613
  705MOL0     H95166   5.490   4.870   4.939  0.8010  1.5477 -2.3945
  705MOL0     H95167   5.515   5.033   5.160  2.5855 -0.1468 -0.3871
  705MOL0     H95168   5.450   5.143   5.045 -1.8304 -1.2253 -0.1420
  705MOL0     H95169   5.691   5.176   5.056 -1.2700  0.4254  2.4018
  705MOL0     H95170   5.726   5.008   5.043 -1.0315 -1.1918  3.4540
  705MOL0     H95171   5.689   5.112   4.633 -1.6153  2.9453 -0.5143
  705MOL0     H95172   5.056   5.240   5.017 -0.0440  1.1909  0.8466
  705MOL0     H95173   4.840   5.316   4.994  0.2100 -0.1800 -0.0541
  705MOL0     H95174   4.710   5.288   5.097 -0.4599  0.5778 -0.2804
  705MOL0     H95175   4.854   5.371   5.170 -0.0927 -0.5930 -0.3103
  706MOL0     O95176   2.398   0.563   4.987 -0.0165  0.0477 -0.0493
  706MOL0     C95177   2.328   0.477   5.039 -0.9845 -0.3320 -0.2570
  706MOL0     O95178   2.366   0.354   5.067  0.6136  0.1881  0.2282
  706MOL0     C95179   2.500   0.324   5.065 -0.0060  0.8154 -0.1455
  706MOL0     C95180   2.583   0.319   5.180  0.5017 -0.3054  0.0830
  706MOL0     C95181   2.719   0.293   5.168  0.4798 -0.2507  0.6596
  706MOL0     C95182   2.774   0.271   5.039 -0.7293 -0.7273 -0.0518
  706MOL0     O95183   2.910   0.256   5.014 -0.2006  0.0620 -1.2070
  706MOL0     C95184   3.000   0.243   5.129 -0.2406 -0.2616  0.0245
  706MOL0     C95185   3.131   0.166   5.089  0.1944  0.7475  0.2716
  706MOL0     C95186   3.229   0.260   5.015 -0.4974 -0.6455  0.0455
  706MOL0     C95187   3.360   0.182   4.985  0.6593  0.6822  0.2380
  706MOL0     C95188   3.469   0.274   4.926  0.4538 -0.6825 -0.3044
  706MOL0     C95189   3.605   0.206   4.930 -0.3226 -0.0692  0.0637
  706MOL0     C95190   3.717   0.286   4.870  0.5073 -0.1666 -0.6572
  706MOL0     C95191   3.848   0.257   4.948  0.5438 -0.2296  0.1074
  706MOL0     N95192   3.942   0.359   4.911  1.2326  0.3513 -0.0910
  706MOL0     C95193   4.024   0.344   4.811  0.3179 -0.0554  0.0752
  706MOL0     C95194   4.112   0.439   4.824 -0.4058 -1.2192  0.5663
  706MOL0     C95195   4.234   0.458   4.733  1.1245  0.5016  0.9921
  706MOL0     C95196   4.357   0.487   4.824  0.0056 -1.0923  0.6539
  706MOL0     C95197   4.479   0.475   4.725  0.1503  0.2190 -0.0409
  706MOL0     C95198   4.507   0.593   4.633 -0.9122  1.7534 -1.4325
  706MOL0     O95199   4.617   0.658   4.696 -0.3055  0.2494 -0.1898
  706MOL0     C95200   4.697   0.746   4.628 -0.9089  0.1008  0.4121
  706MOL0     C95201   4.695   0.763   4.490  0.0876 -0.0941 -0.2759
  706MOL0     C95202   4.794   0.840   4.428 -0.6295 -0.5972 -0.0901
  706MOL0     C95203   4.897   0.895   4.504  0.3858 -0.0679 -0.8228
  706MOL0     C95204   5.009   0.980   4.442  0.8544  0.2915 -0.1810
  706MOL0     O95205   5.097   1.060   4.523  0.1115  0.1749 -0.4302
  706MOL0     C95206   5.220   1.098   4.479  0.2278 -0.2263  0.0614
  706MOL0     C95207   5.296   1.043   4.379  0.1751 -0.3817 -0.0288
  706MOL0     C95208   5.419   1.101   4.342  0.1730  0.8905 -0.4557
  706MOL0     C95209   5.466   1.209   4.409 -0.2334  0.3145  0.1874
  706MOL0     O95210   5.581   1.273   4.354  0.3459  0.4217 -0.2479
  706MOL0     C95211   5.684   1.325   4.440 -0.1675 -0.0640 -0.5009
  706MOL0     C95212   5.791   1.218   4.452  0.1826 -0.3396 -0.0955
  706MOL0     C95213   5.929   1.281   4.479 -0.3273 -0.7333  0.2399
  706MOL0     C95214   5.949   1.306   4.629 -0.8124  0.2384  1.3067
  706MOL0     C95215   6.088   1.356   4.651  0.3035 -0.1337 -0.1221
  706MOL0     C95216   6.136   1.373   4.796  0.0192 -0.5223 -1.3354
  706MOL0     C95217   6.275   1.432   4.806  0.4651  0.1246 -2.0072
  706MOL0     C95218   6.316   1.433   4.955 -0.3320  0.4011  0.1627
  706MOL0    Cl95219   6.471   1.517   4.987 -0.3077  0.1053  0.0509
  706MOL0     C95220   5.390   1.263   4.505  0.2602 -0.1902 -0.3553
  706MOL0     C95221   5.269   1.209   4.539  0.1978 -0.1502  0.2287
  706MOL0     O95222   5.011   0.970   4.319  0.9135 -0.0548 -0.5230
  706MOL0     C95223   4.883   0.889   4.641 -0.2457 -0.3688  0.6821
  706MOL0     C95224   4.786   0.815   4.704  0.4514  0.0351  0.2603
  706MOL0     N95225   4.081   0.515   4.934  0.0603 -0.8877 -0.1385
  706MOL0     N95226   3.980   0.464   4.991  0.6727  0.9109 -0.3641
  706MOL0     C95227   2.689   0.281   4.925  0.2919 -0.0544 -0.3441
  706MOL0     C95228   2.552   0.291   4.938 -0.4552 -0.6416 -0.8413
  706MOL0     C95229   2.188   0.505   5.044  0.6246 -0.4428  0.1331
  706MOL0     C95230   2.126   0.604   4.961 -0.8581  0.0458 -0.8639
  706MOL0     C95231   1.988   0.633   4.960  0.0568 -0.6292 -0.2746
  706MOL0     C95232   1.904   0.570   5.051 -0.1265 -0.5913 -0.7988
  706MOL0     O95233   1.770   0.585   5.077 -0.3585  0.0488 -0.5576
  706MOL0     C95234   1.692   0.667   4.992 -0.4169 -0.1749  0.3167
  706MOL0     C95235   1.677   0.813   5.046 -0.7819  0.5480  0.0075
  706MOL0     C95236   1.570   0.833   5.151  0.2000  0.5690 -0.0400
  706MOL0     C95237   1.570   0.977   5.190 -0.9004 -0.1945  0.1212
  706MOL0     C95238   1.456   1.012   5.272 -1.0971 -0.2364 -0.7733
  706MOL0     C95239   1.360   1.028   5.341  0.5271  0.2171 -0.5165
  706MOL0     C95240   1.961   0.477   5.138  0.0778  0.7034 -0.8801
  706MOL0     C95241   2.097   0.447   5.134  0.0327  1.1008 -0.8513
  706MOL0     C95242   2.148   0.356   5.243 -0.1755  0.4604  0.0868
  706MOL0     H95243   2.529   0.336   5.273  0.0176  3.2243 -0.7017
  706MOL0     H95244   2.765   0.270   5.263 -0.6069  0.4632  1.3860
  706MOL0     H95245   3.021   0.342   5.168 -1.5870 -0.2012  0.6611
  706MOL0     H95246   2.955   0.176   5.204  1.0718 -0.7068  0.4388
  706MOL0     H95247   3.116   0.083   5.020 -0.2784  0.4290  0.7482
  706MOL0     H95248   3.177   0.127   5.180  1.2389  1.6256  0.1342
  706MOL0     H95249   3.253   0.353   5.066 -0.8603 -0.5352  0.0246
  706MOL0     H95250   3.184   0.290   4.919 -1.3374 -0.3384  0.5222
  706MOL0     H95251   3.394   0.140   5.080 -0.7164  2.1930  1.4672
  706MOL0     H95252   3.335   0.101   4.916  3.1035  0.3546 -0.3479
  706MOL0     H95253   3.452   0.294   4.820 -1.2572  2.7423  0.4956
  706MOL0     H95254   3.479   0.368   4.980  0.5470 -0.7323 -0.2343
  706MOL0     H95255   3.631   0.180   5.033  1.2206  2.6128  0.4528
  706MOL0     H95256   3.610   0.107   4.883 -0.7952 -0.7876  1.4613
  706MOL0     H95257   3.688   0.391   4.879  0.6861 -0.2707  1.5435
  706MOL0     H95258   3.730   0.270   4.762  0.2638  0.6235 -0.8044
  706MOL0     H95259   3.840   0.255   5.057 -1.2695 -1.3177 -0.0057
  706MOL0     H95260   3.880   0.158   4.914  0.7234  0.3195 -1.3735
  706MOL0     H95261   4.004   0.278   4.727  1.1061 -0.6556  0.3477
  706MOL0     H95262   4.248   0.362   4.682  0.2625  1.8258 -1.9696
  706MOL0     H95263   4.225   0.541   4.662  0.8301  0.1666  0.6323
  706MOL0     H95264   4.347   0.586   4.870  1.5133 -0.5874 -0.0470
  706MOL0     H95265   4.354   0.413   4.904  1.3946  0.2271  1.9766
  706MOL0     H95266   4.478   0.390   4.655 -1.1799  1.8986 -2.1861
  706MOL0     H95267   4.570   0.452   4.781 -0.7974 -0.5737  1.2217
  706MOL0     H95268   4.428   0.668   4.637  0.8880  3.6990  0.3695
  706MOL0     H95269   4.517   0.553   4.532  1.0784 -0.4440 -0.4862
  706MOL0     H95270   4.617   0.731   4.421  0.9465 -2.7022 -0.1750
  706MOL0     H95271   4.792   0.865   4.323  1.3287  0.3232  0.0413
  706MOL0     H95272   5.271   0.948   4.333 -0.4971 -0.2163 -0.0176
  706MOL0     H95273   5.483   1.055   4.267  0.9519  0.4312  0.4698
  706MOL0     H95274   5.718   1.415   4.388  2.2537 -0.1918  0.7236
  706MOL0     H95275   5.642   1.358   4.535  0.7472 -1.3176  0.3735
  706MOL0     H95276   5.752   1.149   4.527 -1.8752 -0.4695 -1.2109
  706MOL0     H95277   5.800   1.170   4.354  0.0736 -0.8524  0.1392
  706MOL0     H95278   6.004   1.218   4.431  1.9180  2.2046 -0.4180
  706MOL0     H95279   5.925   1.377   4.427 -3.2617  1.2260  3.6187
  706MOL0     H95280   5.941   1.213   4.686 -1.7720 -0.7418 -0.3609
  706MOL0     H95281   5.874   1.370   4.677 -1.9861 -0.2471  0.1654
  706MOL0     H95282   6.104   1.451   4.599 -0.2485  0.8247  1.4079
  706MOL0     H95283   6.158   1.284   4.608  0.0575 -0.3999 -0.0791
  706MOL0     H95284   6.065   1.444   4.840  0.4392  0.2393 -1.8585
  706MOL0     H95285   6.115   1.279   4.848 -0.9214 -1.2879 -3.0197
  706MOL0     H95286   6.265   1.536   4.774  2.3158  0.8429 -0.4179
  706MOL0     H95287   6.350   1.379   4.747  2.5083  1.5536 -0.8314
  706MOL0     H95288   6.234   1.475   5.015  0.1768  1.4425  0.1568
  706MOL0     H95289   6.336   1.329   4.981  1.1931 -0.8588 -4.9428
  706MOL0     H95290   5.427   1.352   4.555 -2.0315  1.7698 -1.9381
  706MOL0     H95291   5.209   1.245   4.621  3.2452 -1.4328  3.3037
  706MOL0     H95292   4.949   0.938   4.712 -0.6365 -1.7310  2.0479
  706MOL0     H95293   4.789   0.800   4.811 -1.5865  0.2974  0.3878
  706MOL0     H95294   2.730   0.252   4.829 -0.6829 -1.9996 -0.2279
  706MOL0     H95295   2.481   0.285   4.856 -3.8164 -0.7831  1.8093
  706MOL0     H95296   2.196   0.639   4.886 -0.6827  3.1472  0.5888
  706MOL0     H95297   1.942   0.689   4.879 -0.6287  0.4038  0.8019
  706MOL0     H95298   1.592   0.627   4.973 -3.0192  5.6027 -0.3031
  706MOL0     H95299   1.750   0.674   4.899  0.2537  2.3564  0.8433
  706MOL0     H95300   1.668   0.884   4.963  2.9019 -0.9429 -1.9088
  706MOL0     H95301   1.777   0.848   5.075 -2.4587  5.3388  1.0106
  706MOL0     H95302   1.575   0.772   5.241 -4.2348 -0.1733 -0.0966
  706MOL0     H95303   1.474   0.806   5.105  0.0034 -0.5610  0.9847
  706MOL0     H95304   1.665   0.980   5.244 -0.4468 -0.0426 -0.6728
  706MOL0     H95305   1.563   1.040   5.101 -2.5280  0.1792  0.4815
  706MOL0     H95306   1.271   1.047   5.398  0.1737 -1.6551 -0.3742
  706MOL0     H95307   1.898   0.437   5.217 -0.0668  2.0399 -0.2852
  706MOL0     H95308   2.071   0.336   5.319  1.1333  0.8484  1.5724
  706MOL0     H95309   2.182   0.258   5.207 -2.3438  0.0621 -1.0268
  706MOL0     H95310   2.230   0.401   5.299  3.3948 -0.1200 -4.1136
  707MOL0     O95311   4.666   3.206   2.544 -0.2814 -0.1587  0.1004
  707MOL0     C95312   4.629   3.321   2.522  0.3386  0.8973  0.1349
  707MOL0     O95313   4.714   3.433   2.517  0.3135  0.3830  0.2448
  707MOL0     C95314   4.845   3.403   2.521  0.0926  0.3511 -0.1334
  707MOL0     C95315   4.903   3.338   2.639  0.2007 -0.8856  1.4207
  707MOL0     C95316   5.044   3.308   2.636  0.8152 -0.4414 -0.2951
  707MOL0     C95317   5.122   3.355   2.528  0.3633  0.2017 -0.0461
  707MOL0     O95318   5.259   3.344   2.517 -0.3296 -1.0650 -0.3887
  707MOL0     C95319   5.310   3.225   2.563 -0.7437  0.1805 -0.2518
  707MOL0     C95320   5.453   3.203   2.515 -0.1602  0.3135  0.7334
  707MOL0     C95321   5.565   3.257   2.613  0.5178  0.6181 -0.0769
  707MOL0     C95322   5.697   3.271   2.541  0.5925 -0.9214 -0.2784
  707MOL0     C95323   5.806   3.324   2.632 -0.0239 -0.1275 -0.2801
  707MOL0     C95324   5.933   3.345   2.546 -0.0965  0.1104 -0.5903
  707MOL0     C95325   6.061   3.368   2.620  0.0203  0.2102 -0.5417
  707MOL0     C95326   6.083   3.286   2.758  0.3596 -0.9271 -0.1649
  707MOL0     N95327   6.219   3.244   2.778  0.2076  0.5314  0.3091
  707MOL0     C95328   6.265   3.117   2.753 -0.0086  1.2554  0.3913
  707MOL0     C95329   6.399   3.120   2.795  0.5861  0.2331 -1.1422
  707MOL0     C95330   6.484   3.003   2.809  0.4007 -0.0251 -0.1799
  707MOL0     C95331   6.568   2.964   2.686  0.4370  1.0398  0.2887
  707MOL0     C95332   6.656   3.080   2.640 -0.6523 -0.1283  0.1995
  707MOL0     C95333   6.764   3.057   2.529 -0.4862 -0.1378  0.5467
  707MOL0     O95334   6.884   2.986   2.564  0.0350  0.1196 -0.1999
  707MOL0     C95335   6.952   3.038   2.666 -0.4770 -0.1919 -0.8809
  707MOL0     C95336   6.943   2.974   2.787  0.3411 -0.3147  0.4538
  707MOL0     C95337   7.009   3.020   2.904  0.3786 -0.7501 -0.8015
  707MOL0     C95338   7.090   3.138   2.896 -0.2769  0.1413  0.3607
  707MOL0     C95339   7.154   3.193   3.014 -0.3631 -0.3884  0.0128
  707MOL0     O95340   7.256   3.286   2.994 -0.7463  0.6134  0.1682
  707MOL0     C95341   7.335   3.318   3.105 -0.1328 -0.7218 -0.0729
  707MOL0     C95342   7.477   3.315   3.102 -0.4115  0.5235 -0.5823
  707MOL0     C95343   7.549   3.343   3.218 -0.0719 -0.8304 -0.2676
  707MOL0     C95344   7.498   3.412   3.328  0.7546  0.6568  0.5490
  707MOL0     O95345   7.572   3.453   3.436 -0.1623 -0.0724 -0.1838
  707MOL0     C95346   7.687   3.542   3.413 -0.0719  0.8690  0.9948
  707MOL0     C95347   7.646   3.687   3.409  1.2551  0.0328 -0.1804
  707MOL0     C95348   7.765   3.778   3.411 -0.4807 -0.7004  0.0588
  707MOL0     C95349   7.712   3.923   3.431 -0.9730 -0.3699  0.9329
  707MOL0     C95350   7.814   4.025   3.485 -0.2783 -0.9403  0.4432
  707MOL0     C95351   7.748   4.166   3.496  0.5707  0.5414 -0.7234
  707MOL0     C95352   7.844   4.260   3.577 -0.2579 -0.5319  0.2783
  707MOL0     C95353   7.989   4.260   3.531 -0.3074  0.0596  0.5403
  707MOL0    Cl95354   8.081   4.373   3.623  0.0338 -0.1277  0.4810
  707MOL0     C95355   7.359   3.418   3.335  0.8422 -0.0247  0.0082
  707MOL0     C95356   7.278   3.369   3.225 -0.3668 -0.3451  0.1258
  707MOL0     O95357   7.113   3.156   3.126 -0.6791 -0.4818  0.1229
  707MOL0     C95358   7.107   3.192   2.766 -0.4180 -0.6340 -0.5466
  707MOL0     C95359   7.037   3.146   2.652 -0.0464 -0.2837 -0.3973
  707MOL0     N95360   6.419   3.248   2.846 -0.3795  0.0243 -0.2975
  707MOL0     N95361   6.312   3.316   2.836  0.5267 -0.3196 -0.9352
  707MOL0     C95362   5.061   3.417   2.418 -0.5097 -0.6663 -0.1525
  707MOL0     C95363   4.929   3.448   2.412  0.0803  0.4402 -0.0136
  707MOL0     C95364   4.491   3.335   2.468 -0.4528  0.6175 -0.1977
  707MOL0     C95365   4.381   3.279   2.543 -0.2144 -1.0082  0.4202
  707MOL0     C95366   4.245   3.296   2.508  0.2886 -0.0093 -0.7462
  707MOL0     C95367   4.213   3.369   2.395  0.3851 -0.4416 -0.3449
  707MOL0     O95368   4.087   3.378   2.347 -0.5072 -0.9481  0.3649
  707MOL0     C95369   3.991   3.285   2.405 -0.0420  0.2684  0.4285
  707MOL0     C95370   3.854   3.306   2.328 -0.6589  0.2747 -1.5772
  707MOL0     C95371   3.865   3.260   2.175  0.4449  0.3080 -0.4384
  707MOL0     C95372   3.807   3.376   2.085  0.0965 -0.6534  0.3233
  707MOL0     C95373   3.665   3.381   2.071 -0.3859 -0.9935  0.7199
  707MOL0     C95374   3.551   3.382   2.032  0.0730 -0.5369  0.2462
  707MOL0     C95375   4.322   3.417   2.316 -0.4441 -0.0145 -0.5694
  707MOL0     C95376   4.459   3.401   2.343 -1.0848  0.5048  0.2840
  707MOL0     C95377   4.568   3.463   2.257  0.7728 -0.8509  0.0003
  707MOL0     H95378   4.827   3.311   2.711  0.7155  0.0972  2.3458
  707MOL0     H95379   5.085   3.265   2.727  1.1081 -0.7729 -0.5773
  707MOL0     H95380   5.325   3.247   2.669  0.2799 -0.8731 -0.1630
  707MOL0     H95381   5.243   3.139   2.554 -0.8961  0.0104  1.9416
  707MOL0     H95382   5.459   3.256   2.419  1.0070 -0.3047  0.4503
  707MOL0     H95383   5.466   3.096   2.493  1.0424  0.1064  2.3141
  707MOL0     H95384   5.563   3.196   2.704 -4.4998 -0.7655 -0.8208
  707MOL0     H95385   5.536   3.357   2.648  2.2227  0.0891  3.1696
  707MOL0     H95386   5.738   3.182   2.494  1.0826  0.4651 -2.6385
  707MOL0     H95387   5.683   3.336   2.455  1.7376  0.6318  0.6400
  707MOL0     H95388   5.769   3.412   2.687  1.9444  0.7479 -0.2565
  707MOL0     H95389   5.832   3.251   2.709 -0.4053 -0.0539 -0.0765
  707MOL0     H95390   5.944   3.253   2.486 -0.9598  0.0020 -0.6042
  707MOL0     H95391   5.926   3.433   2.482 -0.5897 -0.5134 -1.4216
  707MOL0     H95392   6.060   3.476   2.638 -2.4485  0.0211  0.8919
  707MOL0     H95393   6.143   3.342   2.552 -0.0266  0.3343 -0.6443
  707MOL0     H95394   6.049   3.337   2.849 -0.6910 -1.1952 -0.3882
  707MOL0     H95395   6.015   3.202   2.746 -1.8001  0.8380 -1.1388
  707MOL0     H95396   6.214   3.029   2.714 -1.4666  1.8429  0.9237
  707MOL0     H95397   6.561   3.033   2.880  1.6363  1.3915 -2.0169
  707MOL0     H95398   6.430   2.912   2.836  0.1634 -0.4159 -1.8514
  707MOL0     H95399   6.638   2.882   2.705 -1.2209 -1.2193 -2.5429
  707MOL0     H95400   6.506   2.935   2.601  0.2700 -1.2568  1.1027
  707MOL0     H95401   6.712   3.115   2.728  0.0446 -0.6935 -0.0009
  707MOL0     H95402   6.595   3.167   2.616 -1.2953  0.0548  2.2668
  707MOL0     H95403   6.789   3.159   2.500  4.3304 -0.9843  0.9322
  707MOL0     H95404   6.722   3.001   2.445  0.9468 -0.0505 -0.2487
  707MOL0     H95405   6.882   2.885   2.802  2.9772 -2.3923 -0.2780
  707MOL0     H95406   6.997   2.968   2.998 -0.2538 -1.4401 -1.2596
  707MOL0     H95407   7.528   3.264   3.021 -0.6774  0.1652 -0.5280
  707MOL0     H95408   7.657   3.343   3.228 -0.1399 -2.1017  0.6439
  707MOL0     H95409   7.754   3.512   3.493 -1.4312 -2.3239  1.0838
  707MOL0     H95410   7.740   3.527   3.318 -0.0486 -2.7384  1.4440
  707MOL0     H95411   7.576   3.707   3.327 -0.5164 -0.2718  1.1886
  707MOL0     H95412   7.586   3.714   3.497  0.7549  1.7013 -0.9810
  707MOL0     H95413   7.827   3.740   3.493 -1.0916 -1.8369  0.0201
  707MOL0     H95414   7.809   3.773   3.311 -2.2953  0.2923 -0.8508
  707MOL0     H95415   7.628   3.933   3.500 -1.6727 -0.6664  0.1422
  707MOL0     H95416   7.684   3.959   3.332  1.2646  1.7041  0.9491
  707MOL0     H95417   7.905   4.040   3.427 -0.8092  0.8947  0.0030
  707MOL0     H95418   7.842   3.995   3.586  0.9788 -0.5047  0.2414
  707MOL0     H95419   7.721   4.212   3.400 -3.2257 -0.4811 -0.2743
  707MOL0     H95420   7.653   4.171   3.550  0.6132  1.1624 -0.6994
  707MOL0     H95421   7.829   4.235   3.683 -0.8899 -3.8913 -0.4957
  707MOL0     H95422   7.818   4.367   3.578 -3.8538 -1.2424 -0.2935
  707MOL0     H95423   8.042   4.164   3.526  1.0710  0.7725  0.9994
  707MOL0     H95424   7.988   4.292   3.426  2.6877 -3.9819 -0.9764
  707MOL0     H95425   7.311   3.463   3.421 -0.1452 -0.5929 -0.2212
  707MOL0     H95426   7.170   3.378   3.236 -0.2581  1.0403  0.3593
  707MOL0     H95427   7.174   3.277   2.762 -0.2606 -0.7511 -0.4355
  707MOL0     H95428   7.062   3.193   2.557  2.1296 -0.0344  0.2307
  707MOL0     H95429   5.131   3.445   2.339  0.8103  0.3881  1.3386
  707MOL0     H95430   4.886   3.503   2.329 -3.4536 -1.6373  0.2832
  707MOL0     H95431   4.399   3.217   2.630  0.4217 -0.3274  0.7816
  707MOL0     H95432   4.175   3.240   2.568 -0.0967  1.4689  0.2296
  707MOL0     H95433   3.970   3.324   2.505 -0.7744  2.7345 -0.5963
  707MOL0     H95434   4.012   3.178   2.401 -0.2642  0.2349  0.0209
  707MOL0     H95435   3.831   3.413   2.333 -0.7578  0.2240 -0.8535
  707MOL0     H95436   3.775   3.253   2.382 -1.6632 -0.7326 -3.9036
  707MOL0     H95437   3.801   3.175   2.153  1.6547 -0.9183  0.5704
  707MOL0     H95438   3.967   3.235   2.146  0.0686  0.2304 -1.7438
  707MOL0     H95439   3.851   3.468   2.125 -0.0655 -0.3878 -0.1098
  707MOL0     H95440   3.849   3.363   1.985 -1.0374  2.1277 -0.6179
  707MOL0     H95441   3.447   3.370   2.011  0.0267  2.5449 -2.0503
  707MOL0     H95442   4.291   3.482   2.235 -0.7193  1.0261  0.3556
  707MOL0     H95443   4.659   3.405   2.241  2.1772  1.6614 -2.0143
  707MOL0     H95444   4.527   3.501   2.162  1.3406  0.3917  0.2235
  707MOL0     H95445   4.602   3.557   2.303  0.2188  0.1231 -1.4923
  708MOL0     O95446   8.520   2.942   8.178  0.5583 -0.1566 -0.4255
  708MOL0     C95447   8.512   3.009   8.075  0.0626 -0.2957  0.8158
  708MOL0     O95448   8.618   3.074   8.019  0.5728  0.0151  0.3154
  708MOL0     C95449   8.750   3.060   8.071 -0.3409  0.5579  1.0490
  708MOL0     C95450   8.826   3.177   8.084 -0.9145  0.2933  0.5767
  708MOL0     C95451   8.959   3.183   8.133 -0.1703 -0.2464  0.6573
  708MOL0     C95452   9.015   3.062   8.159  0.0039 -0.0625  0.4838
  708MOL0     O95453   9.149   3.065   8.177 -0.1977  0.5579  0.2669
  708MOL0     C95454   9.220   2.945   8.160 -0.6585 -0.2242 -0.6921
  708MOL0     C95455   9.372   2.969   8.186 -0.4629 -0.4007 -0.0274
  708MOL0     C95456   9.447   3.045   8.074 -1.3103 -0.0618  0.1782
  708MOL0     C95457   9.598   3.047   8.099 -0.0302  0.0371  0.2556
  708MOL0     C95458   9.637   3.178   8.187  0.2302  0.9473 -0.2638
  708MOL0     C95459   9.786   3.160   8.220  0.6167 -0.2130 -0.5016
  708MOL0     C95460   9.857   3.271   8.287 -0.4065  0.2051  0.2668
  708MOL0     C95461   9.801   3.305   8.430  0.1391  0.6730 -0.0029
  708MOL0     N95462   9.859   3.420   8.494  0.4161  0.0698  0.1402
  708MOL0     C95463   9.987   3.418   8.547 -0.1712 -0.7565  0.3605
  708MOL0     C95464  10.002   3.530   8.622 -0.6252 -0.6802  0.5782
  708MOL0     C95465  10.131   3.559   8.695 -0.2025  0.4561  1.4511
  708MOL0     C95466  10.195   3.692   8.652  0.1286 -0.4810  0.1730
  708MOL0     C95467  10.294   3.746   8.766  0.6519 -0.2168 -1.3706
  708MOL0     C95468  10.399   3.648   8.802 -0.7930 -0.1284 -0.5484
  708MOL0     O95469  10.472   3.596   8.686  0.2723  0.4141  0.8953
  708MOL0     C95470  10.602   3.551   8.720  0.3529 -0.3908 -0.1876
  708MOL0     C95471  10.625   3.418   8.763  0.9335 -0.4959  0.2864
  708MOL0     C95472  10.749   3.379   8.806  0.6070  0.2442  0.2687
  708MOL0     C95473  10.855   3.469   8.802 -0.4143  0.8718 -0.1679
  708MOL0     C95474  10.991   3.420   8.836 -0.6561  0.4809 -0.1030
  708MOL0     O95475  11.091   3.511   8.801  0.2615  0.0312  0.2645
  708MOL0     C95476  11.220   3.493   8.844  0.5933 -0.4349  0.1956
  708MOL0     C95477  11.248   3.490   8.983 -0.4195  0.6888  0.2457
  708MOL0     C95478  11.377   3.461   9.027 -0.9652  0.0841  0.0193
  708MOL0     C95479  11.489   3.441   8.940 -1.1249  0.3718  0.1591
  708MOL0     O95480  11.626   3.436   8.980  0.8409  0.2188  0.0830
  708MOL0     C95481  11.717   3.341   8.921 -0.7440 -0.7001  0.5018
  708MOL0     C95482  11.853   3.342   8.998  0.4563  0.3551  0.0864
  708MOL0     C95483  11.932   3.461   8.942 -0.6804 -0.2508 -0.8760
  708MOL0     C95484  12.076   3.449   8.980  0.2623  0.2641 -0.1757
  708MOL0     C95485  12.169   3.559   8.911 -0.3556  0.7399 -0.2052
  708MOL0     C95486  12.317   3.538   8.957 -0.9180  0.4314  0.6722
  708MOL0     C95487  12.416   3.645   8.910  0.4430 -0.1153 -0.3601
  708MOL0     C95488  12.534   3.667   9.014  0.1058  0.5356  0.6928
  708MOL0    Cl95489  12.641   3.810   8.972  0.6039  0.3970  0.2090
  708MOL0     C95490  11.458   3.452   8.800  0.1460 -0.1453 -0.3415
  708MOL0     C95491  11.328   3.474   8.756  0.3613 -0.1081 -0.0723
  708MOL0     O95492  11.012   3.318   8.907  0.2957 -0.1047 -0.5877
  708MOL0     C95493  10.833   3.599   8.748  0.1765 -0.2457 -0.5902
  708MOL0     C95494  10.704   3.637   8.715  0.5118 -0.0543 -0.1493
  708MOL0     N95495   9.885   3.603   8.605  0.5388 -0.7299 -0.0408
  708MOL0     N95496   9.797   3.531   8.540 -0.2121 -0.1835  0.6691
  708MOL0     C95497   8.938   2.947   8.157 -0.2798  0.4411 -0.3989
  708MOL0     C95498   8.808   2.946   8.116 -0.1717 -0.4727 -0.2753
  708MOL0     C95499   8.381   3.034   8.015 -1.5195  0.2118 -0.0649
  708MOL0     C95500   8.355   3.144   7.938 -0.6283 -0.4338 -0.2177
  708MOL0     C95501   8.231   3.179   7.887 -0.5721 -0.5070  0.5743
  708MOL0     C95502   8.123   3.104   7.913  0.1500  0.0071  0.8024
  708MOL0     O95503   7.994   3.122   7.865  0.5870 -0.6751 -0.1086
  708MOL0     C95504   7.975   3.224   7.765 -0.8451 -0.6625 -0.7860
  708MOL0     C95505   7.837   3.226   7.686 -0.1519  0.0344 -0.2827
  708MOL0     C95506   7.818   3.111   7.590 -0.6169 -0.6148 -0.0357
  708MOL0     C95507   7.702   3.114   7.496  0.2778  0.2671  0.3438
  708MOL0     C95508   7.715   3.019   7.383 -0.4072  0.3863  0.3886
  708MOL0     C95509   7.721   2.935   7.295  0.6820 -0.5893  0.5750
  708MOL0     C95510   8.139   2.990   7.989  0.1406 -0.4765 -0.5966
  708MOL0     C95511   8.264   2.951   8.043 -0.2645 -0.2578 -0.6242
  708MOL0     C95512   8.252   2.825   8.130  0.1532 -1.3875  0.1242
  708MOL0     H95513   8.785   3.267   8.039  0.1355  0.3508 -0.2863
  708MOL0     H95514   9.014   3.276   8.128  0.7884 -0.8333  0.0395
  708MOL0     H95515   9.197   2.859   8.224  1.5947 -0.7166 -0.4706
  708MOL0     H95516   9.207   2.912   8.057 -1.4516 -2.2203 -0.0111
  708MOL0     H95517   9.418   2.870   8.195 -1.2667 -0.8190 -0.3830
  708MOL0     H95518   9.396   3.024   8.278 -2.4271 -2.4979  1.8584
  708MOL0     H95519   9.403   3.145   8.073  2.3471  1.7162  0.4286
  708MOL0     H95520   9.418   3.010   7.974  1.3931  0.2756 -0.8242
  708MOL0     H95521   9.627   2.952   8.146 -1.8048 -0.2023  0.9127
  708MOL0     H95522   9.651   3.053   8.003  0.2393  0.1033  0.4052
  708MOL0     H95523   9.620   3.269   8.129 -3.7608 -0.6825 -2.0204
  708MOL0     H95524   9.584   3.182   8.283 -0.2434 -0.1049 -0.4703
  708MOL0     H95525   9.791   3.069   8.282  2.1517  0.3815  0.2960
  708MOL0     H95526   9.839   3.153   8.125 -0.4556  0.4453 -1.1707
  708MOL0     H95527   9.851   3.359   8.222  0.5003 -0.6330 -0.9837
  708MOL0     H95528   9.958   3.230   8.290 -0.8858 -1.0062  0.3593
  708MOL0     H95529   9.692   3.308   8.424 -0.0549 -3.4306 -1.6748
  708MOL0     H95530   9.831   3.222   8.494  1.6159  0.1242 -1.3613
  708MOL0     H95531  10.067   3.346   8.533 -1.0004 -1.2944 -2.2256
  708MOL0     H95532  10.091   3.564   8.796  1.9710  0.8924  2.3460
  708MOL0     H95533  10.213   3.487   8.686  0.7471  1.7527 -3.1232
  708MOL0     H95534  10.267   3.682   8.571  1.1525  4.0156  0.2568
  708MOL0     H95535  10.117   3.763   8.622 -4.1150 -3.4143  3.0574
  708MOL0     H95536  10.232   3.767   8.854 -1.1299 -2.5712 -1.9778
  708MOL0     H95537  10.346   3.838   8.736 -0.8830  0.9490 -0.5959
  708MOL0     H95538  10.338   3.571   8.849 -1.1236  2.1154  3.1304
  708MOL0     H95539  10.469   3.677   8.881  0.8369 -0.4997 -1.7987
  708MOL0     H95540  10.532   3.361   8.767 -0.5765  1.8695  0.5366
  708MOL0     H95541  10.759   3.283   8.856 -1.5632 -0.7702 -1.0826
  708MOL0     H95542  11.170   3.506   9.058 -0.4397  0.7465  0.2129
  708MOL0     H95543  11.408   3.451   9.131  3.3836  1.6658 -0.8994
  708MOL0     H95544  11.693   3.235   8.922  3.8733 -1.9836 -0.0430
  708MOL0     H95545  11.723   3.364   8.814 -0.7922  1.6963  0.9505
  708MOL0     H95546  11.832   3.352   9.105 -2.1385 -0.0663 -0.3127
  708MOL0     H95547  11.903   3.246   8.982 -1.9245 -1.2963  1.7761
  708MOL0     H95548  11.937   3.463   8.833 -1.0748 -2.3443 -0.9654
  708MOL0     H95549  11.892   3.556   8.981 -2.4664 -1.3976  0.2238
  708MOL0     H95550  12.110   3.349   8.950  3.6195  1.1477  0.3194
  708MOL0     H95551  12.088   3.458   9.088  0.3234  1.8571 -0.3019
  708MOL0     H95552  12.137   3.660   8.937  1.7422  1.6447 -0.9460
  708MOL0     H95553  12.173   3.555   8.802 -0.6415  1.6215 -0.2582
  708MOL0     H95554  12.321   3.533   9.066 -1.4551  0.5235  0.7037
  708MOL0     H95555  12.353   3.444   8.914  0.9606  1.6554 -0.6108
  708MOL0     H95556  12.362   3.740   8.900 -0.4378 -0.6613 -0.8610
  708MOL0     H95557  12.449   3.628   8.807  1.6704  0.6556 -0.1108
  708MOL0     H95558  12.498   3.671   9.117  3.0115 -2.0933  1.9555
  708MOL0     H95559  12.604   3.584   9.010  2.3536  2.2853  1.7705
  708MOL0     H95560  11.535   3.451   8.724  0.3545 -4.7415 -0.3250
  708MOL0     H95561  11.314   3.474   8.648  1.5179 -0.4858 -0.2275
  708MOL0     H95562  10.916   3.669   8.750 -2.4677  3.1660  0.7628
  708MOL0     H95563  10.680   3.736   8.676 -2.8426 -0.7216 -0.1185
  708MOL0     H95564   8.986   2.853   8.185  2.0064  1.5654 -0.3430
  708MOL0     H95565   8.750   2.854   8.112 -1.6717  0.4377 -0.4182
  708MOL0     H95566   8.432   3.211   7.901 -2.8633  1.4233 -1.7941
  708MOL0     H95567   8.233   3.266   7.822  1.9460 -2.2754 -1.9857
  708MOL0     H95568   8.050   3.210   7.687 -2.5543  2.2676 -3.1669
  708MOL0     H95569   7.988   3.320   7.814  2.7940 -1.1673 -0.5264
  708MOL0     H95570   7.832   3.325   7.640  0.8210  0.0634 -0.3584
  708MOL0     H95571   7.763   3.224   7.766  1.2102  3.9974  1.3451
  708MOL0     H95572   7.819   3.022   7.654  0.0020 -1.0787 -0.6807
  708MOL0     H95573   7.898   3.098   7.517  0.8158  2.8861  0.6794
  708MOL0     H95574   7.609   3.097   7.550  0.4347 -0.4399  0.4071
  708MOL0     H95575   7.706   3.217   7.459  0.5137  0.3871  0.7013
  708MOL0     H95576   7.729   2.856   7.224 -2.1876 -2.7322  2.4170
  708MOL0     H95577   8.050   2.932   8.009  0.9419 -1.3226  0.6497
  708MOL0     H95578   8.329   2.756   8.094  0.1731 -0.0483 -2.6196
  708MOL0     H95579   8.281   2.851   8.232  0.3439  0.6998 -0.4283
  708MOL0     H95580   8.155   2.775   8.122 -0.0157 -1.0970  0.3407
  709MOL0     O95581   9.686   8.032   4.160  0.5556 -0.7676 -0.0363
  709MOL0     C95582   9.759   8.124   4.190 -0.3116 -0.1160 -0.7355
  709MOL0     O95583   9.895   8.133   4.172 -0.3294 -0.5809 -0.1448
  709MOL0     C95584   9.971   8.036   4.106  0.4644 -0.3226 -0.4940
  709MOL0     C95585  10.111   8.070   4.105 -0.4963  0.9818 -0.3809
  709MOL0     C95586  10.197   7.981   4.038  0.6630  0.5006 -0.2260
  709MOL0     C95587  10.151   7.861   3.968 -0.4736 -0.2171  0.4317
  709MOL0     O95588  10.246   7.785   3.905 -0.3415  0.3178  0.1985
  709MOL0     C95589  10.221   7.648   3.867 -0.6021  0.7049 -0.0811
  709MOL0     C95590  10.353   7.585   3.900  1.5515  0.1975  1.5020
  709MOL0     C95591  10.450   7.600   3.790 -1.0779  0.0558  0.6823
  709MOL0     C95592  10.587   7.554   3.835  0.1590  0.3720 -0.9665
  709MOL0     C95593  10.690   7.542   3.720  0.0763  0.1076  0.0813
  709MOL0     C95594  10.822   7.470   3.768  0.0643 -0.2109  0.3894
  709MOL0     C95595  10.938   7.517   3.677  0.3730  0.1735  0.4240
  709MOL0     C95596  10.978   7.662   3.694 -0.2603 -0.1916 -0.9096
  709MOL0     N95597  11.123   7.659   3.646  0.8776 -0.1196  0.4236
  709MOL0     C95598  11.171   7.654   3.521 -0.0853 -0.6928 -0.2285
  709MOL0     C95599  11.305   7.651   3.537  0.0163  0.0880  0.4851
  709MOL0     C95600  11.417   7.655   3.433  0.7185 -0.0253 -0.5608
  709MOL0     C95601  11.452   7.805   3.417  0.3598  0.1894 -0.3903
  709MOL0     C95602  11.586   7.825   3.340 -0.2819 -0.1988  0.3060
  709MOL0     C95603  11.640   7.969   3.381  0.3792  0.0127  0.9431
  709MOL0     O95604  11.773   7.989   3.327  0.2395 -0.1098 -0.5016
  709MOL0     C95605  11.882   7.941   3.390 -0.1245  0.4998 -0.3355
  709MOL0     C95606  11.885   7.859   3.514  0.5096 -0.5460  0.3469
  709MOL0     C95607  12.002   7.826   3.580  0.7305  0.4114  0.8104
  709MOL0     C95608  12.127   7.865   3.521 -0.3447  0.1243  0.5375
  709MOL0     C95609  12.252   7.846   3.589 -0.1845 -0.4314 -0.0850
  709MOL0     O95610  12.242   7.773   3.704  0.2731 -0.8530 -0.1850
  709MOL0     C95611  12.352   7.734   3.776  0.7877  0.3314  0.7716
  709MOL0     C95612  12.461   7.815   3.806 -0.2595 -0.2549 -0.0779
  709MOL0     C95613  12.580   7.779   3.871  0.3757  0.2010 -0.5942
  709MOL0     C95614  12.586   7.644   3.922  0.2153 -0.8405 -0.6555
  709MOL0     O95615  12.688   7.591   3.996  0.2036 -0.1946 -0.3192
  709MOL0     C95616  12.810   7.664   4.025  0.3435 -0.3807 -0.4025
  709MOL0     C95617  12.907   7.568   4.082 -0.5805 -0.1433  0.1265
  709MOL0     C95618  13.046   7.609   4.055 -0.6657  0.0488  0.2241
  709MOL0     C95619  13.145   7.506   4.130  0.3046 -0.0450 -0.2631
  709MOL0     C95620  13.285   7.560   4.123 -0.1275 -0.8631 -0.0999
  709MOL0     C95621  13.356   7.543   3.986  0.0479  0.7173  1.0007
  709MOL0     C95622  13.496   7.586   4.001 -0.2859  0.2002 -0.4272
  709MOL0     C95623  13.597   7.526   3.903 -0.0980 -0.3307 -0.6176
  709MOL0    Cl95624  13.559   7.549   3.723  0.3043 -0.1940  0.3748
  709MOL0     C95625  12.477   7.559   3.893  0.2683 -0.1771 -0.5727
  709MOL0     C95626  12.358   7.597   3.829  0.2820  0.4448  0.4448
  709MOL0     O95627  12.360   7.881   3.543  0.1554  0.3689 -0.0784
  709MOL0     C95628  12.126   7.935   3.402  0.6010 -0.4415  0.7652
  709MOL0     C95629  12.008   7.974   3.334  0.5577 -0.2758 -0.6091
  709MOL0     N95630  11.330   7.665   3.673  0.3337 -0.4431  0.8510
  709MOL0     N95631  11.219   7.663   3.736  0.1090 -0.4483  0.5832
  709MOL0     C95632  10.014   7.843   3.967 -0.3058 -0.2044 -0.0893
  709MOL0     C95633   9.926   7.925   4.035 -0.7580 -0.5949  0.3270
  709MOL0     C95634   9.696   8.239   4.269  0.2031 -0.0182 -0.2355
  709MOL0     C95635   9.752   8.228   4.399  0.8054 -0.0753  0.0853
  709MOL0     C95636   9.702   8.319   4.493  0.1851 -0.4390  0.4946
  709MOL0     C95637   9.602   8.416   4.449  0.0682 -0.3849 -0.2039
  709MOL0     O95638   9.556   8.500   4.552  0.2532  0.2403  0.1397
  709MOL0     C95639   9.528   8.634   4.520 -0.1393 -0.9314  0.3285
  709MOL0     C95640   9.652   8.714   4.473  0.5431 -0.3110 -0.0957
  709MOL0     C95641   9.739   8.732   4.593 -0.5448 -0.7456 -0.6808
  709MOL0     C95642   9.856   8.830   4.550  0.6981 -0.0936 -0.0168
  709MOL0     C95643   9.802   8.961   4.519  0.0618 -0.1683 -1.0800
  709MOL0     C95644   9.765   9.076   4.501  0.6516  0.8668 -0.2984
  709MOL0     C95645   9.562   8.424   4.317  0.5915  0.5811  0.1785
  709MOL0     C95646   9.602   8.331   4.224  0.4163 -0.1264 -0.0291
  709MOL0     C95647   9.552   8.349   4.080  0.0204 -0.6836 -0.4613
  709MOL0     H95648  10.132   8.166   4.151 -2.6640  1.9789 -1.2933
  709MOL0     H95649  10.303   8.002   4.044  1.2698 -1.8322 -1.3693
  709MOL0     H95650  10.137   7.615   3.928 -0.5695  1.4551  0.3886
  709MOL0     H95651  10.201   7.651   3.759 -1.2352 -0.1414  0.0037
  709MOL0     H95652  10.328   7.481   3.926  0.6150  0.4555  1.6639
  709MOL0     H95653  10.401   7.612   3.994  0.8360 -1.4694  2.3961
  709MOL0     H95654  10.445   7.709   3.774  1.5771  0.6959  3.2825
  709MOL0     H95655  10.412   7.552   3.700  1.9181  2.7696 -2.3298
  709MOL0     H95656  10.625   7.622   3.912  0.9078 -1.3594  0.2687
  709MOL0     H95657  10.578   7.455   3.881  1.1539  0.8017  0.2167
  709MOL0     H95658  10.646   7.481   3.641  1.1575 -1.7946  0.8741
  709MOL0     H95659  10.713   7.638   3.674 -0.2390 -0.4887 -1.3867
  709MOL0     H95660  10.844   7.507   3.869 -2.0274  1.0784  0.4492
  709MOL0     H95661  10.814   7.361   3.767 -2.1301 -0.0924 -0.0809
  709MOL0     H95662  10.913   7.503   3.572 -1.0329 -1.5177  0.9380
  709MOL0     H95663  11.023   7.458   3.714 -0.2651 -0.1742  1.3887
  709MOL0     H95664  10.920   7.725   3.626  0.7491 -0.1817 -1.7905
  709MOL0     H95665  10.976   7.695   3.798 -0.4415  1.6070 -1.4593
  709MOL0     H95666  11.120   7.659   3.425  4.3780  1.5093 -2.8007
  709MOL0     H95667  11.498   7.598   3.479  0.2295 -0.2957 -0.0182
  709MOL0     H95668  11.385   7.620   3.334  1.2550 -0.4167 -0.5995
  709MOL0     H95669  11.369   7.852   3.365  0.3218  1.2614  0.5993
  709MOL0     H95670  11.460   7.847   3.518  1.0272  1.0322 -0.7809
  709MOL0     H95671  11.561   7.804   3.236  0.5217 -1.8347  0.4211
  709MOL0     H95672  11.671   7.763   3.369 -0.0620 -0.0412  0.0099
  709MOL0     H95673  11.635   7.974   3.490 -1.9004 -1.9534  1.0034
  709MOL0     H95674  11.581   8.046   3.331  0.8880 -1.5028 -2.2630
  709MOL0     H95675  11.792   7.839   3.568 -1.4768  2.7301 -1.4841
  709MOL0     H95676  11.994   7.779   3.678 -3.6184  1.4045  1.1314
  709MOL0     H95677  12.447   7.917   3.773  0.6995  0.2826  1.1367
  709MOL0     H95678  12.644   7.865   3.885  0.9475 -0.3639  0.3943
  709MOL0     H95679  12.856   7.705   3.935  1.9659  1.1609  1.0580
  709MOL0     H95680  12.804   7.751   4.092  2.6052  1.1818 -2.0688
  709MOL0     H95681  12.878   7.561   4.187  0.2065  2.7860  0.6163
  709MOL0     H95682  12.889   7.474   4.029  1.7599  0.1869 -1.4163
  709MOL0     H95683  13.055   7.599   3.947 -2.5898 -0.9427  0.0979
  709MOL0     H95684  13.051   7.712   4.091 -3.6488  0.7170 -0.9506
  709MOL0     H95685  13.142   7.411   4.076 -2.1465  0.3830 -0.9862
  709MOL0     H95686  13.109   7.497   4.233  0.1942  0.0461 -0.2934
  709MOL0     H95687  13.348   7.505   4.193  0.7348  1.6992  1.2705
  709MOL0     H95688  13.289   7.666   4.152  1.5787 -1.9312  4.4383
  709MOL0     H95689  13.348   7.438   3.959  2.2439 -0.0810  3.1356
  709MOL0     H95690  13.308   7.609   3.912 -0.7800  0.8869  1.6661
  709MOL0     H95691  13.545   7.553   4.093  1.6599 -2.3967 -2.2441
  709MOL0     H95692  13.494   7.695   3.991 -5.1794  0.4554  0.7251
  709MOL0     H95693  13.696   7.555   3.936 -1.5453  1.6685  2.3812
  709MOL0     H95694  13.574   7.419   3.913  2.8598 -1.1265 -1.2954
  709MOL0     H95695  12.486   7.462   3.939 -1.1738 -0.3310 -0.5921
  709MOL0     H95696  12.279   7.526   3.810  1.9644 -1.0819 -1.2820
  709MOL0     H95697  12.223   7.967   3.363  0.5368 -0.4756  0.5768
  709MOL0     H95698  12.014   8.019   3.235 -0.7878 -0.0866 -0.6257
  709MOL0     H95699   9.971   7.764   3.907 -1.5076 -0.7237  1.4135
  709MOL0     H95700   9.819   7.908   4.023 -1.2696  3.1176 -2.1232
  709MOL0     H95701   9.835   8.160   4.410 -1.6908 -3.4154 -0.3265
  709MOL0     H95702   9.738   8.322   4.595 -3.4255  1.3268  1.8938
  709MOL0     H95703   9.484   8.671   4.613  0.0392 -2.6184  1.1263
  709MOL0     H95704   9.448   8.641   4.446  1.7812 -1.5025 -1.9212
  709MOL0     H95705   9.620   8.814   4.444 -2.9280 -0.4768  2.5873
  709MOL0     H95706   9.708   8.668   4.391  0.7296 -0.1858 -0.0402
  709MOL0     H95707   9.780   8.637   4.628 -1.5810 -1.3876 -1.1770
  709MOL0     H95708   9.691   8.779   4.680  1.4021 -0.2888  0.1964
  709MOL0     H95709   9.934   8.836   4.626  1.7529  0.9124 -1.1284
  709MOL0     H95710   9.899   8.790   4.458 -2.5134 -0.4701 -1.4796
  709MOL0     H95711   9.734   9.179   4.498 -1.3498  0.2831 -1.2527
  709MOL0     H95712   9.498   8.501   4.274 -1.0358 -0.7059  0.1818
  709MOL0     H95713   9.488   8.262   4.063  1.8676 -2.6778  2.0025
  709MOL0     H95714   9.496   8.441   4.060 -3.6197 -2.1488  1.9097
  709MOL0     H95715   9.629   8.325   4.006 -1.4318  0.9288 -2.6314
  710MOL0     O95716   5.050   8.706   4.282  0.1488  0.2568 -0.5532
  710MOL0     C95717   5.021   8.589   4.300 -0.2384 -0.7223  0.1032
  710MOL0     O95718   5.106   8.494   4.340 -0.7856 -0.1587 -0.3978
  710MOL0     C95719   5.242   8.513   4.377  0.0078  1.1147 -0.3119
  710MOL0     C95720   5.334   8.589   4.304  0.2804 -0.4073  0.3040
  710MOL0     C95721   5.462   8.603   4.349 -0.9703  0.5963  0.4175
  710MOL0     C95722   5.506   8.547   4.472  0.0161 -0.0683  0.2871
  710MOL0     O95723   5.634   8.568   4.516 -0.6179  0.5054 -0.0318
  710MOL0     C95724   5.743   8.592   4.434  0.4041 -0.8898  0.8016
  710MOL0     C95725   5.874   8.567   4.510 -0.7080  1.0942 -0.0134
  710MOL0     C95726   5.992   8.570   4.405 -0.5754  0.1851 -0.6511
  710MOL0     C95727   6.133   8.522   4.456 -0.6787 -0.5293 -1.0344
  710MOL0     C95728   6.246   8.550   4.369 -1.2609 -0.6909  0.9334
  710MOL0     C95729   6.375   8.479   4.416  0.0121  0.1901  0.3036
  710MOL0     C95730   6.497   8.570   4.389  0.5758  0.7719  0.0755
  710MOL0     C95731   6.523   8.665   4.501 -0.2966  0.4023 -0.3136
  710MOL0     N95732   6.587   8.607   4.621 -0.6510  0.3531  0.3393
  710MOL0     C95733   6.515   8.596   4.735  0.8447 -0.1426 -0.3959
  710MOL0     C95734   6.600   8.559   4.834  0.5382  0.1025 -0.2776
  710MOL0     C95735   6.565   8.562   4.983  0.1150  0.3293  0.3488
  710MOL0     C95736   6.641   8.665   5.057 -0.3555  0.8161 -0.3386
  710MOL0     C95737   6.794   8.625   5.091  0.1154  0.6546 -0.4628
  710MOL0     C95738   6.867   8.698   5.210  0.4505 -0.8813  0.6397
  710MOL0     O95739   6.915   8.831   5.170 -0.1113  0.3821 -0.0159
  710MOL0     C95740   7.051   8.840   5.155  0.3353  0.2533  0.2665
  710MOL0     C95741   7.116   8.941   5.232  0.1836  0.0389  0.1093
  710MOL0     C95742   7.254   8.962   5.223 -1.4696 -0.1836  0.5584
  710MOL0     C95743   7.333   8.880   5.139 -0.2990  0.0713  0.0875
  710MOL0     C95744   7.478   8.892   5.147 -0.2931  0.7900  0.7029
  710MOL0     O95745   7.546   8.830   5.040 -0.0786 -0.1734  0.2276
  710MOL0     C95746   7.682   8.841   5.020  1.3295 -0.7835  0.3020
  710MOL0     C95747   7.730   8.866   4.891  0.4977 -0.7719  0.1375
  710MOL0     C95748   7.870   8.884   4.873  0.2408  0.6404  0.7683
  710MOL0     C95749   7.968   8.866   4.969 -0.0589  0.1542  0.1422
  710MOL0     O95750   8.097   8.872   4.920  0.2024  0.0699 -0.1087
  710MOL0     C95751   8.198   8.831   5.016 -0.7378  0.0914 -0.6376
  710MOL0     C95752   8.344   8.851   4.968  1.2102 -0.3953 -0.0345
  710MOL0     C95753   8.356   8.994   4.910 -0.6325 -0.2579 -0.4331
  710MOL0     C95754   8.500   9.011   4.846  0.9899 -0.8075 -0.1340
  710MOL0     C95755   8.524   9.151   4.788 -0.0945 -0.1511  0.4506
  710MOL0     C95756   8.673   9.191   4.745  0.3979 -0.0152 -0.5682
  710MOL0     C95757   8.683   9.347   4.725 -0.3236  0.4866 -0.5384
  710MOL0     C95758   8.828   9.390   4.719 -0.0946 -0.4929 -0.0335
  710MOL0    Cl95759   8.902   9.314   4.570 -0.1243 -0.7624  0.2472
  710MOL0     C95760   7.921   8.845   5.103  0.4330  0.9478 -0.3152
  710MOL0     C95761   7.778   8.830   5.123  0.6639  0.5851  0.2305
  710MOL0     O95762   7.529   8.964   5.231 -0.1110  0.3715 -0.5876
  710MOL0     C95763   7.267   8.784   5.059 -0.7905 -0.6501  0.4374
  710MOL0     C95764   7.128   8.765   5.066  0.1037  0.1098 -0.1472
  710MOL0     N95765   6.722   8.550   4.763  0.1790 -0.3294 -0.1878
  710MOL0     N95766   6.715   8.576   4.639 -0.5083  0.5647  1.1405
  710MOL0     C95767   5.415   8.485   4.553  0.4807  0.2179 -0.2677
  710MOL0     C95768   5.281   8.470   4.503 -0.0966 -0.0509  0.0297
  710MOL0     C95769   4.878   8.570   4.287  0.9750 -0.6005  0.3148
  710MOL0     C95770   4.810   8.641   4.190  1.2212 -0.1281 -0.5594
  710MOL0     C95771   4.671   8.621   4.170  0.1163  0.7604 -0.1980
  710MOL0     C95772   4.595   8.540   4.266  0.1364 -0.9092 -1.0380
  710MOL0     O95773   4.465   8.524   4.262  0.1543 -0.7190  0.7975
  710MOL0     C95774   4.374   8.607   4.184 -0.0789 -0.3815 -0.8204
  710MOL0     C95775   4.230   8.561   4.179  1.0973  0.0555 -0.2122
  710MOL0     C95776   4.174   8.516   4.314  0.2583  0.8082 -0.1186
  710MOL0     C95777   4.038   8.568   4.343  0.5935  0.3977 -0.2321
  710MOL0     C95778   3.969   8.467   4.423  0.0508  0.3546 -0.3767
  710MOL0     C95779   3.910   8.395   4.499  0.1038  0.5046  0.6321
  710MOL0     C95780   4.669   8.473   4.363 -0.0303 -0.2398 -0.1895
  710MOL0     C95781   4.808   8.482   4.378 -0.2887 -0.0797 -0.2287
  710MOL0     C95782   4.871   8.420   4.495 -0.1851 -0.7629 -0.9312
  710MOL0     H95783   5.317   8.624   4.203  3.0596 -1.5050 -0.6304
  710MOL0     H95784   5.534   8.658   4.289  1.2060  0.4154  2.7235
  710MOL0     H95785   5.747   8.522   4.350 -2.2118  1.3830 -1.4040
  710MOL0     H95786   5.754   8.690   4.386  2.9230 -1.2631  0.4753
  710MOL0     H95787   5.874   8.466   4.554  1.1838  0.2173 -1.8404
  710MOL0     H95788   5.890   8.653   4.575  1.6039  0.1546  0.7749
  710MOL0     H95789   6.003   8.676   4.377 -0.9268 -0.7537 -5.0645
  710MOL0     H95790   5.966   8.512   4.317 -1.3672 -4.4930  2.3147
  710MOL0     H95791   6.155   8.570   4.552  1.2654 -3.8685  0.3933
  710MOL0     H95792   6.114   8.416   4.478 -1.2953 -0.7507 -2.5333
  710MOL0     H95793   6.218   8.515   4.269 -2.4528  0.0170  1.0004
  710MOL0     H95794   6.256   8.658   4.356 -0.1832 -0.7570  1.1375
  710MOL0     H95795   6.370   8.443   4.519 -0.0262 -2.2540 -0.5053
  710MOL0     H95796   6.388   8.393   4.350  1.7038  1.1262 -0.6790
  710MOL0     H95797   6.489   8.617   4.290 -0.7996 -4.2092 -2.5123
  710MOL0     H95798   6.590   8.513   4.383  0.5397  0.7871 -0.8255
  710MOL0     H95799   6.595   8.738   4.463  1.3292 -0.3463  1.2073
  710MOL0     H95800   6.432   8.721   4.525 -2.4465 -0.7031 -4.6901
  710MOL0     H95801   6.413   8.625   4.760  0.3863 -3.7537  2.6725
  710MOL0     H95802   6.461   8.590   4.999  0.0602  1.4352 -1.5735
  710MOL0     H95803   6.585   8.466   5.031 -0.5721  1.4361  2.9890
  710MOL0     H95804   6.637   8.748   4.985  0.2818  0.8918 -0.2934
  710MOL0     H95805   6.589   8.692   5.149  3.2381  0.3506  2.0337
  710MOL0     H95806   6.844   8.638   4.995 -1.1167  0.7744 -1.1069
  710MOL0     H95807   6.795   8.519   5.118  1.2992  0.4292 -1.2965
  710MOL0     H95808   6.950   8.640   5.251 -0.7106 -2.1686  1.2671
  710MOL0     H95809   6.788   8.729   5.279 -1.5831 -2.2472 -0.9434
  710MOL0     H95810   7.064   9.001   5.306  1.7622  2.1299 -0.4030
  710MOL0     H95811   7.306   9.033   5.286  0.9781 -0.3991 -1.0752
  710MOL0     H95812   7.663   8.876   4.806 -1.0782 -0.3421  1.3834
  710MOL0     H95813   7.906   8.916   4.776 -1.8861 -0.5409 -0.4998
  710MOL0     H95814   8.181   8.890   5.107  1.0829  1.2817 -1.0175
  710MOL0     H95815   8.182   8.724   5.032 -2.0845  0.2327 -0.9487
  710MOL0     H95816   8.411   8.838   5.053  1.2686  0.9626  0.1510
  710MOL0     H95817   8.357   8.769   4.896 -1.0324 -2.1830  1.4727
  710MOL0     H95818   8.281   9.013   4.833 -2.2045  1.1140  1.3202
  710MOL0     H95819   8.335   9.075   4.981  0.2185  1.5708 -2.1460
  710MOL0     H95820   8.506   8.932   4.771 -1.8191 -0.2028 -1.1192
  710MOL0     H95821   8.581   8.989   4.916  2.2187  1.5938 -0.6834
  710MOL0     H95822   8.479   9.214   4.865 -2.3301  1.4483 -2.0075
  710MOL0     H95823   8.451   9.161   4.708 -0.8143  0.3717  1.1601
  710MOL0     H95824   8.738   9.167   4.829 -2.8801  0.6460  2.4309
  710MOL0     H95825   8.713   9.126   4.667 -0.9673 -2.8161  0.8992
  710MOL0     H95826   8.635   9.393   4.812 -0.8579 -0.9991 -0.0088
  710MOL0     H95827   8.638   9.373   4.629 -1.3255 -3.6248 -1.3882
  710MOL0     H95828   8.823   9.498   4.709  2.3212 -0.4114 -1.0592
  710MOL0     H95829   8.887   9.367   4.808 -0.7842 -0.9235  0.3151
  710MOL0     H95830   7.989   8.835   5.187  0.9020  0.9500 -0.6918
  710MOL0     H95831   7.755   8.808   5.227  2.6940 -2.2004  0.1980
  710MOL0     H95832   7.326   8.740   4.980  2.2110 -0.8428  2.6237
  710MOL0     H95833   7.075   8.690   5.007 -1.7849  1.4307 -0.2238
  710MOL0     H95834   5.440   8.449   4.652 -1.8316  0.0715  0.3056
  710MOL0     H95835   5.208   8.409   4.554 -2.4441  1.8086 -0.9630
  710MOL0     H95836   4.855   8.708   4.117 -3.0720  0.9295 -2.5476
  710MOL0     H95837   4.609   8.689   4.112 -0.1083  0.0877 -0.7549
  710MOL0     H95838   4.407   8.627   4.081 -2.4027  2.7814 -1.1009
  710MOL0     H95839   4.361   8.699   4.243 -1.4393 -0.3981 -1.0605
  710MOL0     H95840   4.207   8.479   4.110 -0.1987  0.2281 -0.0150
  710MOL0     H95841   4.176   8.649   4.144 -0.6410 -0.2208  1.5954
  710MOL0     H95842   4.248   8.529   4.394  1.8096 -0.8230 -1.2278
  710MOL0     H95843   4.172   8.407   4.303 -2.3867  0.8715 -0.9360
  710MOL0     H95844   4.050   8.653   4.410 -1.0533  0.4884 -0.0012
  710MOL0     H95845   3.976   8.602   4.259  0.2578  1.2675  0.3464
  710MOL0     H95846   3.846   8.341   4.565 -0.0870  1.5493  1.3110
  710MOL0     H95847   4.613   8.414   4.435  0.8420 -0.1689  0.5544
  710MOL0     H95848   4.927   8.333   4.463  0.6731 -0.5940  0.0294
  710MOL0     H95849   4.951   8.478   4.544 -1.0072  1.1613 -1.7436
  710MOL0     H95850   4.801   8.392   4.574  0.8686 -0.0268  0.3151
  711MOL0     O95851   2.718   3.342   7.194  0.0442 -0.0458  0.2198
  711MOL0     C95852   2.642   3.439   7.184  0.4059  0.0630 -1.3663
  711MOL0     O95853   2.681   3.563   7.240 -0.3046 -0.4805  0.2563
  711MOL0     C95854   2.820   3.576   7.256  0.3556 -0.3155 -0.5030
  711MOL0     C95855   2.904   3.578   7.150  0.4447  0.1780 -0.1248
  711MOL0     C95856   3.042   3.583   7.166  0.3320 -0.2910  0.3544
  711MOL0     C95857   3.100   3.561   7.297  0.2298 -0.5061 -0.8711
  711MOL0     O95858   3.241   3.548   7.301 -0.5151  0.1372 -0.3827
  711MOL0     C95859   3.295   3.515   7.433 -0.1559 -0.2955  0.3541
  711MOL0     C95860   3.447   3.498   7.416  0.3905  0.0594  0.4720
  711MOL0     C95861   3.516   3.633   7.387  1.0570  0.1403  0.3024
  711MOL0     C95862   3.664   3.606   7.361  0.1904 -0.1767 -0.0021
  711MOL0     C95863   3.750   3.729   7.368 -0.5286  0.4125 -0.1086
  711MOL0     C95864   3.890   3.697   7.338  0.0515  0.0634  0.6062
  711MOL0     C95865   3.990   3.803   7.378 -0.7127  0.3810  0.8267
  711MOL0     C95866   4.027   3.785   7.524  0.7423 -0.2452  0.0681
  711MOL0     N95867   4.161   3.842   7.543 -0.0414 -0.2755  1.0275
  711MOL0     C95868   4.202   3.970   7.541 -0.1385  0.1243  0.5429
  711MOL0     C95869   4.336   3.981   7.562 -0.0447  0.2238  0.0457
  711MOL0     C95870   4.415   4.108   7.589  0.7863 -0.2317 -0.9118
  711MOL0     C95871   4.522   4.121   7.475  0.3361 -0.0514 -0.2539
  711MOL0     C95872   4.569   4.271   7.472  0.2035 -0.4954  0.0555
  711MOL0     C95873   4.684   4.297   7.394  0.4568 -0.0693  0.1047
  711MOL0     O95874   4.711   4.445   7.398 -0.2976  0.2983 -0.7558
  711MOL0     C95875   4.837   4.472   7.341 -0.6738  0.0125  0.8613
  711MOL0     C95876   4.867   4.608   7.307  0.2984  0.8458  0.4314
  711MOL0     C95877   4.980   4.639   7.230 -0.2255  0.2944 -0.7079
  711MOL0     C95878   5.069   4.543   7.191  0.0025 -0.0397 -1.1200
  711MOL0     C95879   5.188   4.575   7.111  0.0721 -0.6285 -0.0278
  711MOL0     O95880   5.220   4.709   7.080 -0.6695 -0.6706  0.6248
  711MOL0     C95881   5.349   4.727   7.019  0.3569  0.5291  0.1725
  711MOL0     C95882   5.446   4.775   7.095  0.4458  0.4976 -0.0601
  711MOL0     C95883   5.569   4.802   7.038 -0.1369 -1.2062 -0.2920
  711MOL0     C95884   5.603   4.787   6.903  0.2267  0.5037 -0.1641
  711MOL0     O95885   5.732   4.796   6.848  0.4911 -0.4500 -0.9118
  711MOL0     C95886   5.836   4.732   6.922 -0.1344  0.0820  0.3307
  711MOL0     C95887   5.975   4.778   6.886  0.5963 -0.2816  0.0876
  711MOL0     C95888   6.084   4.687   6.936 -0.5416 -0.1006  0.1625
  711MOL0     C95889   6.214   4.736   6.890 -0.2524  0.9286  0.3880
  711MOL0     C95890   6.326   4.707   6.982 -0.4648  0.8658  0.7939
  711MOL0     C95891   6.463   4.746   6.930 -0.5937  0.2184  0.2450
  711MOL0     C95892   6.586   4.718   7.021  0.3508 -0.1800 -0.7714
  711MOL0     C95893   6.709   4.801   6.995 -0.2192 -0.8413  0.6471
  711MOL0    Cl95894   6.743   4.802   6.814 -0.0086 -0.4361  0.1778
  711MOL0     C95895   5.492   4.767   6.824  0.6806 -0.4153  0.6952
  711MOL0     C95896   5.369   4.719   6.878  0.0206  0.0119  0.7765
  711MOL0     O95897   5.254   4.470   7.077 -0.1119 -0.2925 -0.1855
  711MOL0     C95898   5.052   4.408   7.237  0.0186  0.1084  0.3607
  711MOL0     C95899   4.936   4.375   7.311  0.5356  0.2706  0.5714
  711MOL0     N95900   4.378   3.849   7.560 -0.0648  0.0863 -0.2483
  711MOL0     N95901   4.272   3.766   7.557 -0.5985 -0.1710 -0.2230
  711MOL0     C95902   3.014   3.582   7.406  0.4487  0.7272  0.6041
  711MOL0     C95903   2.874   3.592   7.386 -0.1575 -0.5436  0.1067
  711MOL0     C95904   2.502   3.417   7.130  0.1601  0.1221 -0.1420
  711MOL0     C95905   2.403   3.511   7.175 -0.3070  0.8233  0.0755
  711MOL0     C95906   2.265   3.497   7.126 -1.0619 -0.4126  0.2402
  711MOL0     C95907   2.229   3.389   7.047  0.8656  0.7373 -0.0257
  711MOL0     O95908   2.105   3.403   7.004 -0.4476 -0.3203 -0.3901
  711MOL0     C95909   2.051   3.293   6.927 -0.2369  0.2803  0.5030
  711MOL0     C95910   1.905   3.331   6.892 -0.4465  1.0036  0.8741
  711MOL0     C95911   1.830   3.221   6.817  0.1426  0.4622  0.1188
  711MOL0     C95912   1.893   3.180   6.673  0.1873  0.2446 -0.6089
  711MOL0     C95913   2.005   3.087   6.668  0.8358  0.5701 -0.9156
  711MOL0     C95914   2.099   3.002   6.669  0.3728 -0.2633  0.3380
  711MOL0     C95915   2.323   3.305   7.000 -1.0706 -0.4446 -0.1752
  711MOL0     C95916   2.456   3.314   7.043 -0.2621  0.7288  0.2262
  711MOL0     C95917   2.548   3.227   6.952  0.2521  0.4860  0.3120
  711MOL0     H95918   2.875   3.562   7.046 -0.3102 -2.9064  0.4731
  711MOL0     H95919   3.112   3.574   7.084 -0.4688 -1.6835 -0.2099
  711MOL0     H95920   3.276   3.598   7.502  0.1355  1.7321 -1.8719
  711MOL0     H95921   3.252   3.421   7.470 -0.9955  0.1978  0.6552
  711MOL0     H95922   3.473   3.446   7.324 -1.9707  1.0650 -0.8518
  711MOL0     H95923   3.492   3.445   7.500  0.0793 -1.2765 -0.1767
  711MOL0     H95924   3.501   3.698   7.474  1.2595 -1.9472  1.9940
  711MOL0     H95925   3.475   3.678   7.297  2.8786  1.1265 -0.0773
  711MOL0     H95926   3.693   3.541   7.444 -1.1227  2.0658  2.3600
  711MOL0     H95927   3.670   3.554   7.265 -1.4783  2.3069 -1.5895
  711MOL0     H95928   3.708   3.815   7.315 -2.0638  1.5203  2.7269
  711MOL0     H95929   3.749   3.759   7.473  0.8117 -0.9858  0.3438
  711MOL0     H95930   3.911   3.596   7.374 -3.2325 -1.1970 -0.6140
  711MOL0     H95931   3.896   3.696   7.228  2.1346 -1.2822  0.6679
  711MOL0     H95932   3.947   3.902   7.357 -0.0886  0.9037  1.9310
  711MOL0     H95933   4.073   3.779   7.312 -0.6056 -0.4444  1.2511
  711MOL0     H95934   3.965   3.838   7.597  1.2730 -0.3976  0.6407
  711MOL0     H95935   4.023   3.679   7.548  1.2415 -0.0447  1.0932
  711MOL0     H95936   4.129   4.050   7.534 -1.4453 -1.0985 -0.1847
  711MOL0     H95937   4.348   4.195   7.590 -0.8964 -1.4699 -0.0418
  711MOL0     H95938   4.458   4.100   7.689 -1.2169 -1.9408 -0.0971
  711MOL0     H95939   4.613   4.060   7.486  0.2828 -0.0478  0.2237
  711MOL0     H95940   4.475   4.094   7.380 -1.0944  3.2491 -0.6441
  711MOL0     H95941   4.595   4.290   7.577  1.5969 -1.0926 -0.1576
  711MOL0     H95942   4.500   4.339   7.422  0.4667 -0.4129 -0.2022
  711MOL0     H95943   4.670   4.264   7.290  0.5708 -2.0739  0.6852
  711MOL0     H95944   4.763   4.231   7.430  0.4804  0.4853  1.0760
  711MOL0     H95945   4.788   4.681   7.316 -1.3315 -0.8145  0.0222
  711MOL0     H95946   4.997   4.741   7.197 -2.7536  1.1183  0.2830
  711MOL0     H95947   5.431   4.805   7.198 -0.5852  0.2741 -0.1431
  711MOL0     H95948   5.643   4.841   7.106 -0.1870 -1.0143 -0.3478
  711MOL0     H95949   5.826   4.727   7.031  0.7214  2.7318  0.5915
  711MOL0     H95950   5.827   4.631   6.879  2.8402 -0.0395 -0.2170
  711MOL0     H95951   5.992   4.769   6.778  1.6952 -1.6624  0.3473
  711MOL0     H95952   5.993   4.875   6.933 -2.5730  1.3262 -1.6947
  711MOL0     H95953   6.093   4.681   7.045  0.6665  1.6947  0.2064
  711MOL0     H95954   6.054   4.587   6.904 -1.1950  0.5357 -1.2972
  711MOL0     H95955   6.218   4.843   6.869  4.2308  0.9238  0.1963
  711MOL0     H95956   6.229   4.682   6.796 -4.0162  0.7604 -0.2635
  711MOL0     H95957   6.330   4.601   7.009 -1.8282  1.1174  2.1010
  711MOL0     H95958   6.313   4.763   7.075  2.8898  2.8436  0.2228
  711MOL0     H95959   6.478   4.694   6.835  1.6817 -0.9916  1.1948
  711MOL0     H95960   6.453   4.851   6.902 -3.6397 -0.6512 -2.7218
  711MOL0     H95961   6.598   4.609   7.024 -0.7471 -0.2950  0.7443
  711MOL0     H95962   6.553   4.755   7.118 -3.4501 -0.5420 -1.7412
  711MOL0     H95963   6.692   4.904   7.028  1.4009 -0.1720 -0.4757
  711MOL0     H95964   6.792   4.753   7.049  0.8712 -1.3366 -1.3710
  711MOL0     H95965   5.501   4.770   6.716 -2.1195 -0.3313  0.4140
  711MOL0     H95966   5.285   4.684   6.819  0.3498 -2.3601  1.6150
  711MOL0     H95967   5.126   4.333   7.216  1.5798  1.6115  0.2753
  711MOL0     H95968   4.931   4.271   7.339  0.0647  0.4354  1.1186
  711MOL0     H95969   3.055   3.594   7.506  2.4731  2.7428 -0.3774
  711MOL0     H95970   2.801   3.598   7.466 -1.4241  0.1078 -1.0724
  711MOL0     H95971   2.424   3.581   7.255 -0.6764 -0.1433  1.0310
  711MOL0     H95972   2.185   3.570   7.143 -1.6068 -0.8912 -0.2277
  711MOL0     H95973   2.056   3.196   6.977  1.4809  0.5210  0.8591
  711MOL0     H95974   2.109   3.293   6.834 -2.0193  2.6661 -0.7141
  711MOL0     H95975   1.892   3.424   6.837 -2.8495 -0.3696 -1.0777
  711MOL0     H95976   1.840   3.339   6.979 -2.5786 -2.1247 -0.2520
  711MOL0     H95977   1.727   3.254   6.797 -0.5319 -1.2645  0.5306
  711MOL0     H95978   1.819   3.125   6.870  0.5753  1.6455  2.4712
  711MOL0     H95979   1.813   3.146   6.606 -0.7236  1.0898  0.0115
  711MOL0     H95980   1.928   3.276   6.635  0.3598  0.5261  0.2384
  711MOL0     H95981   2.184   2.937   6.672  0.3640 -0.3202 -0.4579
  711MOL0     H95982   2.302   3.237   6.917  0.8352 -2.8147  1.1460
  711MOL0     H95983   2.646   3.216   6.998  1.1170  1.3543 -1.2253
  711MOL0     H95984   2.514   3.128   6.923 -1.5168  0.2073  2.9860
  711MOL0     H95985   2.568   3.286   6.862  0.7936 -0.3869 -0.1511
  712MOL0     O95986  10.852   4.207   6.588  0.4665 -0.2349 -0.7110
  712MOL0     C95987  10.849   4.156   6.475  0.1564 -0.2892 -0.4999
  712MOL0     O95988  10.914   4.195   6.366 -0.0360 -0.2012  0.1462
  712MOL0     C95989  11.042   4.254   6.368 -0.0826 -0.7572  0.1813
  712MOL0     C95990  11.072   4.349   6.267  0.3288  0.2661 -0.0215
  712MOL0     C95991  11.189   4.419   6.273  0.9070 -0.2407  0.3509
  712MOL0     C95992  11.278   4.410   6.375 -0.5579  0.3722 -0.3517
  712MOL0     O95993  11.397   4.482   6.365 -0.1149  0.1844  0.2076
  712MOL0     C95994  11.502   4.475   6.461 -0.1059  0.0044 -0.1805
  712MOL0     C95995  11.601   4.586   6.441  0.0618 -0.3517 -0.2970
  712MOL0     C95996  11.662   4.592   6.307 -0.1051 -0.0384 -0.0918
  712MOL0     C95997  11.751   4.716   6.288 -0.1815 -0.4050 -0.1147
  712MOL0     C95998  11.772   4.761   6.140  0.1492  0.6260 -0.2145
  712MOL0     C95999  11.828   4.901   6.132 -0.4713  0.0139 -0.4776
  712MOL0     C96000  11.851   4.949   5.985  0.2110  0.5196  0.6931
  712MOL0     C96001  11.885   5.088   5.963 -0.4817 -0.0987 -0.1146
  712MOL0     N96002  11.960   5.103   5.836 -0.0485  0.4560 -0.2743
  712MOL0     C96003  12.098   5.111   5.828  0.0662 -1.3992  0.5150
  712MOL0     C96004  12.126   5.112   5.694  0.3434 -0.0553 -0.6740
  712MOL0     C96005  12.258   5.115   5.624  1.1720  0.2442  0.2134
  712MOL0     C96006  12.297   5.258   5.596  0.8350  1.3325 -0.1961
  712MOL0     C96007  12.445   5.283   5.568 -0.1661  0.3442  0.2327
  712MOL0     C96008  12.450   5.439   5.521 -0.1491 -0.4483  0.7941
  712MOL0     O96009  12.568   5.453   5.443 -1.2106 -0.0957  0.2772
  712MOL0     C96010  12.694   5.461   5.503  0.7111 -1.1249  0.4947
  712MOL0     C96011  12.723   5.470   5.642 -0.1402 -0.0772 -0.8436
  712MOL0     C96012  12.859   5.476   5.686  0.7031 -0.9659  0.8082
  712MOL0     C96013  12.965   5.459   5.590  0.6579 -0.0830  0.3728
  712MOL0     C96014  13.109   5.462   5.632  0.0889 -0.3164  0.9022
  712MOL0     O96015  13.197   5.410   5.533  0.2313 -0.1769  0.0383
  712MOL0     C96016  13.332   5.405   5.557  1.1567 -0.0920 -0.2105
  712MOL0     C96017  13.397   5.389   5.681  0.1852 -0.0475 -0.2484
  712MOL0     C96018  13.536   5.373   5.687  1.1464  1.2032  0.6175
  712MOL0     C96019  13.612   5.378   5.563 -0.0297  1.0596  0.3737
  712MOL0     O96020  13.752   5.353   5.569 -0.8749 -0.8954 -0.1053
  712MOL0     C96021  13.812   5.302   5.447  0.4090 -0.7769 -0.3089
  712MOL0     C96022  13.948   5.272   5.496  0.4225 -0.4083  0.8087
  712MOL0     C96023  13.940   5.138   5.570 -0.4722 -0.3670 -0.2254
  712MOL0     C96024  14.056   5.040   5.560 -0.4575  1.2474  0.5816
  712MOL0     C96025  14.201   5.097   5.585  0.0152  0.0599  0.0073
  712MOL0     C96026  14.310   4.997   5.563 -0.3747  0.5092  0.0293
  712MOL0     C96027  14.445   5.055   5.597 -0.6964 -0.0373 -0.1277
  712MOL0     C96028  14.550   4.941   5.605  0.6118  0.3571  0.1253
  712MOL0    Cl96029  14.563   4.872   5.446  0.1670  0.0598  0.3302
  712MOL0     C96030  13.545   5.402   5.440  0.1601  0.0489  0.8591
  712MOL0     C96031  13.407   5.419   5.440  0.1828  0.7475 -0.7057
  712MOL0     O96032  13.134   5.508   5.742  0.1762  0.9116  0.4533
  712MOL0     C96033  12.928   5.452   5.455 -0.4244 -0.6570  0.1152
  712MOL0     C96034  12.796   5.472   5.416 -0.1374 -0.2636  0.3311
  712MOL0     N96035  12.007   5.098   5.621  1.0666 -0.6783 -0.1248
  712MOL0     N96036  11.912   5.088   5.708  0.4761 -0.0205  0.3432
  712MOL0     C96037  11.249   4.308   6.477 -1.1831 -0.4860 -0.3758
  712MOL0     C96038  11.130   4.238   6.476 -0.9230  0.3723 -0.0938
  712MOL0     C96039  10.773   4.040   6.465  0.8343  0.3602 -0.4126
  712MOL0     C96040  10.792   3.933   6.557  0.4133  0.5510  0.1480
  712MOL0     C96041  10.736   3.808   6.543  0.4731 -0.2913  0.2001
  712MOL0     C96042  10.652   3.784   6.437  0.0138  0.5658 -0.1621
  712MOL0     O96043  10.593   3.662   6.408 -0.0537 -0.3974  0.4690
  712MOL0     C96044  10.474   3.645   6.490 -0.5586 -0.1609 -0.0568
  712MOL0     C96045  10.358   3.611   6.388 -0.7178  0.1802 -0.3146
  712MOL0     C96046  10.360   3.463   6.342 -0.7974 -0.7190 -0.6726
  712MOL0     C96047  10.244   3.409   6.258  0.3876 -0.5494 -0.4583
  712MOL0     C96048  10.127   3.437   6.337  0.8757  0.1253 -0.3709
  712MOL0     C96049  10.047   3.452   6.423  0.5138 -0.1219  0.0439
  712MOL0     C96050  10.625   3.884   6.342  0.1388 -0.7172 -0.5515
  712MOL0     C96051  10.690   4.012   6.359  0.8291  0.2488  0.0307
  712MOL0     C96052  10.656   4.116   6.254  0.1460 -0.0063 -0.1502
  712MOL0     H96053  11.016   4.373   6.177  1.7747  0.7414 -0.8287
  712MOL0     H96054  11.208   4.483   6.188  1.4193  1.3391  1.6157
  712MOL0     H96055  11.460   4.485   6.561  2.7075  0.7331  1.0183
  712MOL0     H96056  11.546   4.375   6.457 -3.6609 -1.7251  0.0111
  712MOL0     H96057  11.676   4.589   6.520 -2.9118  1.4317  2.7110
  712MOL0     H96058  11.553   4.683   6.457 -0.0197 -0.4304 -0.0540
  712MOL0     H96059  11.581   4.602   6.234  1.0132 -1.9471 -1.6979
  712MOL0     H96060  11.721   4.501   6.292  1.9414  1.1797  0.0244
  712MOL0     H96061  11.707   4.806   6.333 -2.3123 -1.0973 -0.7033
  712MOL0     H96062  11.851   4.705   6.331  1.6214  0.6555 -3.6380
  712MOL0     H96063  11.851   4.695   6.104  1.0846  1.4268  0.3042
  712MOL0     H96064  11.682   4.744   6.080  0.4739 -2.9366  0.0896
  712MOL0     H96065  11.764   4.973   6.182 -0.0692  0.0658 -0.0320
  712MOL0     H96066  11.923   4.883   6.183  0.7016 -2.3421 -3.1729
  712MOL0     H96067  11.756   4.932   5.933 -0.1758 -1.3978  1.9071
  712MOL0     H96068  11.921   4.884   5.932 -1.0801  0.6453 -1.2568
  712MOL0     H96069  11.795   5.145   5.940 -0.5049 -0.1094 -0.0493
  712MOL0     H96070  11.942   5.122   6.049 -0.2719  0.0917 -0.3267
  712MOL0     H96071  12.179   5.125   5.899  3.5465 -0.0335 -3.3221
  712MOL0     H96072  12.325   5.049   5.679  1.2596 -2.0327 -2.4120
  712MOL0     H96073  12.244   5.056   5.533  1.2725  0.9452 -0.2664
  712MOL0     H96074  12.225   5.303   5.526  0.3722  2.9699  1.2630
  712MOL0     H96075  12.283   5.314   5.689 -1.2609 -1.8018  1.5497
  712MOL0     H96076  12.487   5.209   5.499  1.5367 -1.5948  3.1200
  712MOL0     H96077  12.501   5.273   5.661 -1.2943 -3.9692  0.6799
  712MOL0     H96078  12.457   5.509   5.604  1.1529  2.0524 -1.2630
  712MOL0     H96079  12.369   5.462   5.451 -1.7165 -1.1124  2.3172
  712MOL0     H96080  12.648   5.478   5.720  1.5294 -0.8394  0.9207
  712MOL0     H96081  12.872   5.501   5.791 -1.8180 -1.0198  1.1959
  712MOL0     H96082  13.337   5.384   5.771  0.8265 -0.2511  0.1710
  712MOL0     H96083  13.580   5.362   5.786 -1.6189 -0.7601  1.7326
  712MOL0     H96084  13.751   5.219   5.412 -1.1357 -0.0532  0.5938
  712MOL0     H96085  13.817   5.389   5.381 -1.8434  1.6019  2.4114
  712MOL0     H96086  14.020   5.266   5.414 -1.6483 -0.4019 -1.0948
  712MOL0     H96087  13.985   5.357   5.555 -2.0108  2.5201 -1.5989
  712MOL0     H96088  13.914   5.164   5.673 -1.8428 -1.3127 -0.2966
  712MOL0     H96089  13.850   5.085   5.535 -2.8761  3.7082 -0.8471
  712MOL0     H96090  14.058   5.004   5.456  0.4799  0.8720  0.7184
  712MOL0     H96091  14.038   4.944   5.609  3.0298 -0.4981 -1.1508
  712MOL0     H96092  14.209   5.143   5.683 -0.3395 -0.9710  0.5319
  712MOL0     H96093  14.215   5.176   5.510 -1.5128 -0.7530 -1.2139
  712MOL0     H96094  14.293   4.915   5.633  1.0568 -1.6043 -1.9614
  712MOL0     H96095  14.310   4.944   5.468  0.1056 -2.0046  1.3576
  712MOL0     H96096  14.435   5.107   5.692 -1.1475  0.2013 -0.3014
  712MOL0     H96097  14.483   5.116   5.514  0.1734  0.1117  0.3732
  712MOL0     H96098  14.649   4.976   5.634  1.6435 -2.3851  0.2371
  712MOL0     H96099  14.517   4.863   5.674 -1.8196  2.4664  1.5268
  712MOL0     H96100  13.594   5.414   5.344  1.3395 -1.8685  1.1684
  712MOL0     H96101  13.369   5.443   5.341  1.5987  2.0248 -0.9674
  712MOL0     H96102  13.017   5.454   5.393 -0.0482 -0.0602  0.6582
  712MOL0     H96103  12.771   5.471   5.310  0.2034 -3.4312  0.1929
  712MOL0     H96104  11.319   4.294   6.559 -3.0894  1.7063  1.8085
  712MOL0     H96105  11.120   4.176   6.565 -1.9900  0.8213  0.1073
  712MOL0     H96106  10.850   3.943   6.649  0.8478 -3.3842  0.4502
  712MOL0     H96107  10.754   3.738   6.624  1.9588 -0.2017 -0.0084
  712MOL0     H96108  10.444   3.725   6.558  4.3314  0.5448  1.6541
  712MOL0     H96109  10.491   3.555   6.550 -0.5283  0.1108  0.3436
  712MOL0     H96110  10.370   3.678   6.302  2.3678  1.8974  1.2584
  712MOL0     H96111  10.259   3.633   6.428 -0.9073  1.1023 -1.2540
  712MOL0     H96112  10.384   3.400   6.427  0.0754  0.1161 -0.2813
  712MOL0     H96113  10.443   3.465   6.271  0.3396  2.5636  0.5818
  712MOL0     H96114  10.245   3.457   6.160 -2.9021  0.5275 -0.0812
  712MOL0     H96115  10.240   3.300   6.245 -0.2528 -0.7561  1.2810
  712MOL0     H96116   9.970   3.447   6.498  0.2654  0.0759 -0.1937
  712MOL0     H96117  10.561   3.862   6.257 -0.9579 -3.2544  0.8160
  712MOL0     H96118  10.632   4.215   6.295 -0.9930  0.5407 -1.9886
  712MOL0     H96119  10.749   4.129   6.198  0.2382 -2.3856 -0.6680
  712MOL0     H96120  10.575   4.091   6.184 -1.1753  2.3415  0.4042
  713MOL0     O96121   5.455   0.494   3.618 -0.8235  0.4581  0.2742
  713MOL0     C96122   5.462   0.377   3.589  0.3211  0.1187  1.1643
  713MOL0     O96123   5.365   0.288   3.591  0.0430 -0.7062 -0.4689
  713MOL0     C96124   5.238   0.336   3.600  0.5331 -0.4591 -0.2244
  713MOL0     C96125   5.161   0.272   3.693  0.1468 -0.3248 -0.0136
  713MOL0     C96126   5.019   0.300   3.702 -0.3811 -0.6164  0.8922
  713MOL0     C96127   4.958   0.389   3.611 -0.0808 -0.3004 -0.0714
  713MOL0     O96128   4.815   0.392   3.618 -0.2891 -0.0120 -0.4396
  713MOL0     C96129   4.743   0.457   3.523  0.2287  0.0466 -0.7339
  713MOL0     C96130   4.603   0.403   3.549  0.1188 -0.3004 -0.2161
  713MOL0     C96131   4.589   0.253   3.520 -0.1676  0.0454  0.7955
  713MOL0     C96132   4.446   0.211   3.523 -0.6160  0.4499 -0.9954
  713MOL0     C96133   4.396   0.192   3.672 -0.3501 -0.5356 -0.0439
  713MOL0     C96134   4.321   0.065   3.690 -0.5920  0.7775  0.1945
  713MOL0     C96135   4.197   0.054   3.598  0.0887  0.2344  0.0557
  713MOL0     C96136   4.097  -0.064   3.625 -0.2803  0.4824 -0.2633
  713MOL0     N96137   4.151  -0.193   3.577  0.1134 -1.8360  0.6461
  713MOL0     C96138   4.233  -0.274   3.649  0.2886 -0.0266 -1.0899
  713MOL0     C96139   4.311  -0.339   3.557 -0.2624 -0.1425 -0.2421
  713MOL0     C96140   4.445  -0.410   3.578 -0.2081  0.0106 -0.3531
  713MOL0     C96141   4.443  -0.559   3.526 -0.8791 -0.3305 -0.2058
  713MOL0     C96142   4.558  -0.643   3.572  0.5295 -0.2005 -0.3003
  713MOL0     C96143   4.680  -0.619   3.495 -0.5232 -0.7870 -0.2174
  713MOL0     O96144   4.775  -0.730   3.494  0.1584  0.6211  0.6270
  713MOL0     C96145   4.894  -0.702   3.428  0.2903  0.9651  1.1077
  713MOL0     C96146   4.933  -0.585   3.363  0.4304 -0.2195 -0.6929
  713MOL0     C96147   5.056  -0.569   3.302 -0.3168 -0.7082 -0.4689
  713MOL0     C96148   5.158  -0.665   3.316  0.8912  0.2111  0.1087
  713MOL0     C96149   5.283  -0.655   3.242 -0.2489 -0.1443 -0.0891
  713MOL0     O96150   5.355  -0.773   3.234 -0.3473 -0.1060 -0.4738
  713MOL0     C96151   5.475  -0.766   3.167  0.3656 -0.7770 -0.5025
  713MOL0     C96152   5.575  -0.851   3.215  0.3103  0.4635  0.4358
  713MOL0     C96153   5.700  -0.859   3.146 -0.1793 -0.0857  0.3172
  713MOL0     C96154   5.732  -0.774   3.031  0.2921  0.2067 -0.1477
  713MOL0     O96155   5.852  -0.781   2.959 -0.6639  0.1924 -0.1331
  713MOL0     C96156   5.978  -0.823   3.022  0.8978  0.0459 -0.0982
  713MOL0     C96157   6.099  -0.752   2.971 -0.5754 -0.1417  0.2654
  713MOL0     C96158   6.223  -0.821   3.030 -0.1984 -0.5596 -0.8126
  713MOL0     C96159   6.342  -0.735   3.015  0.1884 -0.7511  0.1087
  713MOL0     C96160   6.463  -0.804   3.076 -0.8194 -0.2199 -0.0169
  713MOL0     C96161   6.594  -0.730   3.047 -0.7179  0.3133 -0.9627
  713MOL0     C96162   6.596  -0.603   3.134  0.4825  0.7748  0.4011
  713MOL0     C96163   6.730  -0.602   3.216  0.2922 -0.3356  0.2531
  713MOL0    Cl96164   6.875  -0.616   3.101 -0.0880 -0.0989 -0.0542
  713MOL0     C96165   5.630  -0.684   2.981  0.0154 -0.3817  0.5457
  713MOL0     C96166   5.512  -0.683   3.056  0.8586  0.3353  0.4857
  713MOL0     O96167   5.316  -0.546   3.195  0.1009  0.3343 -0.7453
  713MOL0     C96168   5.124  -0.773   3.393 -0.6199  0.6068 -0.3441
  713MOL0     C96169   4.995  -0.791   3.445 -0.9366 -0.1188  0.2454
  713MOL0     N96170   4.270  -0.309   3.431 -0.4413 -0.8885 -0.0584
  713MOL0     N96171   4.174  -0.222   3.445 -0.8703  0.3801 -0.2034
  713MOL0     C96172   5.039   0.446   3.519 -0.7285  0.4084  0.8464
  713MOL0     C96173   5.179   0.416   3.500 -0.9296 -0.2633 -0.3334
  713MOL0     C96174   5.591   0.330   3.530 -0.1576  0.8157 -0.1457
  713MOL0     C96175   5.608   0.189   3.516 -1.0204  0.1719 -0.4504
  713MOL0     C96176   5.719   0.127   3.460 -0.4181  0.3783 -0.3267
  713MOL0     C96177   5.827   0.213   3.403  0.2578  0.2636  0.4269
  713MOL0     O96178   5.949   0.156   3.369  0.1890  0.4976  0.1512
  713MOL0     C96179   5.983   0.019   3.397 -0.7015 -0.0928 -0.3320
  713MOL0     C96180   6.134  -0.005   3.404  0.1048  0.0217  0.1253
  713MOL0     C96181   6.199   0.085   3.513  0.5675 -0.2213 -0.7119
  713MOL0     C96182   6.352   0.049   3.512 -0.0475 -0.9268  0.3800
  713MOL0     C96183   6.430   0.154   3.569  0.1140 -0.1422 -0.5406
  713MOL0     C96184   6.490   0.233   3.634 -0.1089 -0.5930 -0.1015
  713MOL0     C96185   5.809   0.350   3.415 -0.2991  0.3304  0.1965
  713MOL0     C96186   5.695   0.409   3.472  0.2712  0.0846 -0.6354
  713MOL0     C96187   5.688   0.559   3.482 -1.2534 -0.8484 -0.0114
  713MOL0     H96188   5.198   0.199   3.764  0.5224  1.1035  1.2986
  713MOL0     H96189   4.954   0.251   3.774 -0.2906  2.3659  3.1916
  713MOL0     H96190   4.749   0.565   3.539  0.7674  0.0428 -0.9168
  713MOL0     H96191   4.783   0.447   3.422 -0.2805  0.5319 -0.9958
  713MOL0     H96192   4.530   0.463   3.493  0.7346 -1.3395 -2.1968
  713MOL0     H96193   4.570   0.423   3.651  2.1436  0.5561  0.3205
  713MOL0     H96194   4.650   0.197   3.592  0.1484  0.1600  0.6206
  713MOL0     H96195   4.637   0.224   3.426  0.6231 -1.3458  1.5799
  713MOL0     H96196   4.372   0.280   3.481 -0.8472  1.1942  0.5456
  713MOL0     H96197   4.432   0.115   3.473 -2.5468  0.5680 -0.7716
  713MOL0     H96198   4.475   0.189   3.748 -0.9733 -0.6681  0.6018
  713MOL0     H96199   4.340   0.280   3.702 -0.5407 -0.6814  0.0286
  713MOL0     H96200   4.389  -0.018   3.668 -1.7826  0.2754 -1.9312
  713MOL0     H96201   4.291   0.051   3.794 -0.4819 -1.2495 -0.0143
  713MOL0     H96202   4.231   0.055   3.493  2.6806  2.2221  0.7920
  713MOL0     H96203   4.146   0.147   3.620  2.3493  1.8277 -1.0176
  713MOL0     H96204   4.082  -0.072   3.733 -1.5581 -1.3531 -0.5304
  713MOL0     H96205   4.000  -0.035   3.584 -0.4011  2.0772  1.0787
  713MOL0     H96206   4.250  -0.271   3.756 -0.8085 -0.5390 -0.8939
  713MOL0     H96207   4.531  -0.353   3.541 -0.3920  0.8955  0.5245
  713MOL0     H96208   4.455  -0.416   3.687 -0.1732  0.1809 -0.3460
  713MOL0     H96209   4.348  -0.605   3.555 -1.9501 -1.2432 -4.4760
  713MOL0     H96210   4.449  -0.556   3.416  1.6723  3.4862 -0.1700
  713MOL0     H96211   4.519  -0.744   3.554 -0.7813  0.2833 -0.2581
  713MOL0     H96212   4.564  -0.619   3.678  0.5084 -1.5279  0.0192
  713MOL0     H96213   4.724  -0.526   3.534 -1.5361 -0.0701 -0.7371
  713MOL0     H96214   4.654  -0.600   3.391 -0.1113  0.2237 -0.1485
  713MOL0     H96215   4.854  -0.514   3.346 -0.4723 -1.5520 -2.4794
  713MOL0     H96216   5.074  -0.479   3.244 -0.9833 -0.4849 -0.3389
  713MOL0     H96217   5.558  -0.933   3.284 -3.3737 -0.3241 -1.1628
  713MOL0     H96218   5.775  -0.928   3.185 -3.5922 -3.5203  1.3425
  713MOL0     H96219   5.976  -0.817   3.131 -0.0826 -0.9072 -0.0417
  713MOL0     H96220   5.990  -0.929   2.999  1.1872  0.0130  0.2075
  713MOL0     H96221   6.107  -0.759   2.862  1.9307  1.1303  0.3004
  713MOL0     H96222   6.083  -0.647   2.995  0.6156 -0.2429  1.6389
  713MOL0     H96223   6.218  -0.836   3.138  0.2980  0.1622 -0.6857
  713MOL0     H96224   6.239  -0.912   2.971  3.6670  0.0754 -1.0150
  713MOL0     H96225   6.332  -0.632   3.049  4.7683  0.9069 -2.6615
  713MOL0     H96226   6.358  -0.729   2.907  1.5617 -1.0273  0.2720
  713MOL0     H96227   6.478  -0.900   3.025  0.6156  0.0516 -0.1621
  713MOL0     H96228   6.455  -0.834   3.181  2.2540 -1.3640  0.0205
  713MOL0     H96229   6.681  -0.790   3.075  0.9642  3.2964  0.6656
  713MOL0     H96230   6.596  -0.714   2.939 -5.5430 -1.3437 -1.5781
  713MOL0     H96231   6.508  -0.600   3.198  0.2983 -1.2348  0.3308
  713MOL0     H96232   6.593  -0.517   3.067  1.2851  2.3835  2.3379
  713MOL0     H96233   6.753  -0.514   3.277 -0.6281 -1.5357  2.4507
  713MOL0     H96234   6.754  -0.678   3.291 -1.4467  1.4091  2.7240
  713MOL0     H96235   5.647  -0.610   2.902 -0.4571  0.7586  1.4869
  713MOL0     H96236   5.444  -0.609   3.015 -0.2764 -2.1708 -2.6029
  713MOL0     H96237   5.199  -0.851   3.400  0.5237  1.7498  0.8031
  713MOL0     H96238   4.982  -0.877   3.510 -2.7379 -1.0437 -1.2290
  713MOL0     H96239   5.011   0.523   3.448 -0.4989 -0.2844 -0.0225
  713MOL0     H96240   5.248   0.452   3.424  2.2619 -1.3424  1.8442
  713MOL0     H96241   5.532   0.123   3.555  1.5523 -2.7057  0.1500
  713MOL0     H96242   5.739   0.021   3.466  0.9848  0.2737 -4.1432
  713MOL0     H96243   5.933  -0.045   3.324 -0.3440  0.9036 -1.4744
  713MOL0     H96244   5.948  -0.005   3.498  2.8247 -0.1746  1.0230
  713MOL0     H96245   6.179   0.021   3.307  0.9992 -0.2524  0.4515
  713MOL0     H96246   6.157  -0.111   3.416 -0.0707 -0.1455 -0.8783
  713MOL0     H96247   6.155   0.077   3.613 -1.2702 -0.8836 -1.5494
  713MOL0     H96248   6.190   0.193   3.498 -1.0389  0.1712  2.3100
  713MOL0     H96249   6.374  -0.037   3.578  0.9789 -2.3352 -1.6812
  713MOL0     H96250   6.385   0.027   3.410  0.6976  0.3442  0.3354
  713MOL0     H96251   6.550   0.292   3.700 -0.6029 -0.6055  0.3603
  713MOL0     H96252   5.890   0.406   3.370 -0.3041 -0.8754 -1.4007
  713MOL0     H96253   5.698   0.601   3.582 -0.9391  2.1907 -1.2234
  713MOL0     H96254   5.774   0.596   3.426  1.3981 -3.7636  1.7895
  713MOL0     H96255   5.597   0.587   3.428 -1.2166 -2.0594 -0.7347
  714MOL0     O96256   4.299   6.549   3.478 -0.1354  0.3768  0.7036
  714MOL0     C96257   4.292   6.545   3.359 -0.4723  0.6492 -0.0706
  714MOL0     O96258   4.389   6.488   3.277 -1.1906 -0.6945 -0.2349
  714MOL0     C96259   4.508   6.457   3.332  0.3021 -0.9019  0.9056
  714MOL0     C96260   4.559   6.341   3.283 -0.2854 -0.4908  0.3842
  714MOL0     C96261   4.670   6.272   3.339 -0.1239 -0.4779 -0.3749
  714MOL0     C96262   4.737   6.335   3.449 -0.0589 -0.3285 -0.2376
  714MOL0     O96263   4.845   6.267   3.510  0.1259  0.0676  0.1448
  714MOL0     C96264   4.919   6.336   3.619 -0.1716  0.5162  1.0029
  714MOL0     C96265   4.998   6.225   3.684  0.1230  0.3682 -0.2244
  714MOL0     C96266   5.134   6.284   3.723 -0.4283 -0.2042  0.1897
  714MOL0     C96267   5.228   6.284   3.604  0.5516  0.0974 -0.8513
  714MOL0     C96268   5.381   6.286   3.626 -0.2298 -0.1022  0.2861
  714MOL0     C96269   5.447   6.302   3.485  0.0490 -0.2629  0.2851
  714MOL0     C96270   5.594   6.307   3.503 -0.5093  0.5002  0.8548
  714MOL0     C96271   5.667   6.366   3.370 -0.0233 -0.2783  0.1629
  714MOL0     N96272   5.808   6.402   3.411  0.0123  1.8136  0.0365
  714MOL0     C96273   5.850   6.479   3.514 -0.1995 -0.4533 -0.2613
  714MOL0     C96274   5.982   6.462   3.528  0.4423  0.5414 -0.2738
  714MOL0     C96275   6.069   6.534   3.635  0.3586  0.5935  0.1182
  714MOL0     C96276   6.216   6.544   3.595 -0.0279 -0.6458 -0.0495
  714MOL0     C96277   6.290   6.656   3.661  0.3577  1.4190  0.3329
  714MOL0     C96278   6.434   6.658   3.609 -0.1015  0.5418 -0.0881
  714MOL0     O96279   6.514   6.755   3.687  0.2923  0.2658  0.3384
  714MOL0     C96280   6.644   6.752   3.649  0.0593 -0.4576  0.5234
  714MOL0     C96281   6.727   6.844   3.729  0.6364 -0.3426  0.4856
  714MOL0     C96282   6.857   6.872   3.704  0.5457  0.0218 -0.1144
  714MOL0     C96283   6.928   6.791   3.611 -0.2136  0.4276 -0.2019
  714MOL0     C96284   7.074   6.795   3.602  0.1833 -0.7735  0.1817
  714MOL0     O96285   7.127   6.709   3.516 -0.0351 -0.1601 -0.0055
  714MOL0     C96286   7.269   6.716   3.505 -0.8741  0.0457 -1.1593
  714MOL0     C96287   7.352   6.620   3.567 -0.3471 -0.0992 -0.6381
  714MOL0     C96288   7.492   6.621   3.546  1.0691 -0.0906  0.2888
  714MOL0     C96289   7.544   6.731   3.472  0.1654 -0.3916 -0.7177
  714MOL0     O96290   7.682   6.738   3.466  0.1174  0.2056 -0.4321
  714MOL0     C96291   7.762   6.857   3.462  0.6853 -0.0983  0.7534
  714MOL0     C96292   7.746   6.930   3.594 -0.1430 -1.0559 -0.6247
  714MOL0     C96293   7.876   6.996   3.638  1.0494 -0.4426 -0.3563
  714MOL0     C96294   7.974   6.892   3.698  0.1311 -0.0547  0.0757
  714MOL0     C96295   8.113   6.943   3.710  0.1278  0.3194  0.0223
  714MOL0     C96296   8.137   7.017   3.844 -0.7119  0.9135 -0.0052
  714MOL0     C96297   8.292   7.059   3.832 -0.7305 -0.0091  0.3909
  714MOL0     C96298   8.335   7.133   3.958  0.1558  0.2859  0.4390
  714MOL0    Cl96299   8.499   7.202   3.934  0.2172 -0.3904 -0.3391
  714MOL0     C96300   7.461   6.827   3.404 -0.1944 -0.0309  0.2097
  714MOL0     C96301   7.324   6.814   3.424  0.5156  0.2539 -0.0852
  714MOL0     O96302   7.141   6.875   3.669 -0.8395 -0.5027 -0.2393
  714MOL0     C96303   6.859   6.685   3.543 -0.5574 -0.1208  0.0638
  714MOL0     C96304   6.716   6.672   3.554  0.1577 -0.1942 -0.4356
  714MOL0     N96305   6.036   6.378   3.430 -0.2641  0.5308  0.3641
  714MOL0     N96306   5.920   6.343   3.361 -0.0833 -0.2284 -0.3800
  714MOL0     C96307   4.689   6.451   3.498  0.8472 -0.6700  0.2665
  714MOL0     C96308   4.577   6.513   3.443 -0.0439  0.8338  0.4043
  714MOL0     C96309   4.161   6.592   3.297  0.3029  0.6134 -0.3110
  714MOL0     C96310   4.059   6.646   3.377  0.0420  0.2541  0.0186
  714MOL0     C96311   3.926   6.654   3.343 -0.0943 -0.2298  0.4865
  714MOL0     C96312   3.891   6.613   3.209 -0.2860 -0.8452  0.1990
  714MOL0     O96313   3.763   6.621   3.163 -0.1857  0.5131 -0.0050
  714MOL0     C96314   3.684   6.516   3.224 -0.0939 -0.0498 -0.3618
  714MOL0     C96315   3.534   6.550   3.205  0.0686  0.5039 -0.6324
  714MOL0     C96316   3.488   6.578   3.061  0.3154  0.4423 -0.0826
  714MOL0     C96317   3.336   6.602   3.047  0.6803  0.3256  0.6822
  714MOL0     C96318   3.258   6.475   3.074  0.2412 -0.6126  0.8620
  714MOL0     C96319   3.208   6.369   3.104  0.1053 -0.0809  0.3183
  714MOL0     C96320   3.990   6.568   3.121 -0.5186 -0.2148  0.3417
  714MOL0     C96321   4.129   6.562   3.156  0.6528  0.4278 -0.3589
  714MOL0     C96322   4.218   6.511   3.045  0.0748  0.2228 -0.6025
  714MOL0     H96323   4.504   6.296   3.201  0.7860 -2.3391  0.6119
  714MOL0     H96324   4.694   6.173   3.302  0.2657 -0.4451 -0.2161
  714MOL0     H96325   4.994   6.404   3.580  0.3068 -0.8048 -0.4461
  714MOL0     H96326   4.861   6.395   3.692  0.6341  1.9399  0.5319
  714MOL0     H96327   5.001   6.142   3.613 -4.0228 -0.1081 -0.0988
  714MOL0     H96328   4.944   6.191   3.773  0.0409 -2.6241 -1.3029
  714MOL0     H96329   5.181   6.221   3.800  0.3569  0.2096  0.0614
  714MOL0     H96330   5.123   6.384   3.766 -0.4216  0.0878 -0.4777
  714MOL0     H96331   5.211   6.189   3.553  1.2091  0.1474 -1.1810
  714MOL0     H96332   5.192   6.357   3.531 -0.2955  1.4059  0.7908
  714MOL0     H96333   5.410   6.372   3.688  0.4642 -0.0864 -0.0472
  714MOL0     H96334   5.416   6.194   3.674  0.3659  0.4232  0.8801
  714MOL0     H96335   5.429   6.219   3.417 -0.1105  1.0766 -1.3537
  714MOL0     H96336   5.409   6.392   3.436  3.0584 -0.1106 -2.0700
  714MOL0     H96337   5.650   6.216   3.527  1.5442  1.4130 -0.2622
  714MOL0     H96338   5.614   6.387   3.575 -1.2137  0.3302  1.2474
  714MOL0     H96339   5.668   6.290   3.292 -2.1290 -0.2501  0.0442
  714MOL0     H96340   5.623   6.454   3.322  0.9508 -0.9661 -2.1076
  714MOL0     H96341   5.778   6.531   3.576 -0.0564 -0.5430 -0.0223
  714MOL0     H96342   6.022   6.628   3.666 -2.9353 -0.6354 -0.7561
  714MOL0     H96343   6.068   6.482   3.731  1.3427  0.7896  0.2452
  714MOL0     H96344   6.260   6.445   3.613 -1.6562 -1.3718  0.1498
  714MOL0     H96345   6.221   6.561   3.487 -2.1563  0.0359 -0.0804
  714MOL0     H96346   6.286   6.640   3.769 -1.0329 -1.2694 -0.0521
  714MOL0     H96347   6.241   6.749   3.631 -2.9092  0.6187  2.6942
  714MOL0     H96348   6.439   6.677   3.502  2.3134 -2.0816 -0.5301
  714MOL0     H96349   6.475   6.557   3.609  2.6042  1.5614 -0.2816
  714MOL0     H96350   6.663   6.892   3.802 -2.0593 -2.3775 -0.3666
  714MOL0     H96351   6.904   6.947   3.767  1.3809  0.0286 -0.7312
  714MOL0     H96352   7.309   6.556   3.643  2.5974 -1.0440  0.3837
  714MOL0     H96353   7.551   6.540   3.589 -0.2485 -1.2228  0.0262
  714MOL0     H96354   7.866   6.833   3.439  0.2094 -0.3201 -1.3810
  714MOL0     H96355   7.728   6.926   3.384 -2.1645 -2.6524 -0.5141
  714MOL0     H96356   7.673   7.011   3.591  2.1115  1.1097 -0.1913
  714MOL0     H96357   7.715   6.864   3.676  1.2667  1.0796  1.7985
  714MOL0     H96358   7.923   7.058   3.561  1.6156 -0.1816  0.1792
  714MOL0     H96359   7.854   7.070   3.716 -3.3263 -0.4152 -1.4048
  714MOL0     H96360   7.967   6.797   3.643 -2.0318  0.4770 -0.6921
  714MOL0     H96361   7.937   6.870   3.798  2.4842 -1.1309  0.7760
  714MOL0     H96362   8.143   7.010   3.629  4.8774  0.2934  1.4734
  714MOL0     H96363   8.181   6.857   3.704  0.8778  0.9605 -0.8488
  714MOL0     H96364   8.063   7.097   3.848 -0.6220  0.9970 -0.0343
  714MOL0     H96365   8.133   6.941   3.924  2.3523  0.2425 -0.3820
  714MOL0     H96366   8.305   7.119   3.742 -1.6413 -0.2026  0.1210
  714MOL0     H96367   8.351   6.969   3.817  1.3758  1.5162 -1.1278
  714MOL0     H96368   8.263   7.214   3.972 -1.2927 -0.6504 -1.2062
  714MOL0     H96369   8.338   7.072   4.049  0.5758 -0.1754  0.1150
  714MOL0     H96370   7.504   6.907   3.345  0.8164  1.4774  2.8071
  714MOL0     H96371   7.268   6.886   3.365  2.4830  1.5233 -0.5396
  714MOL0     H96372   6.911   6.607   3.488  0.3463  0.4499  0.0763
  714MOL0     H96373   6.663   6.597   3.495 -2.1347  1.8140 -1.0981
  714MOL0     H96374   4.747   6.512   3.565 -0.0050 -0.7612  1.1000
  714MOL0     H96375   4.531   6.599   3.490  0.9870  2.0241 -0.6601
  714MOL0     H96376   4.080   6.675   3.479  2.0700 -0.4993 -0.1459
  714MOL0     H96377   3.855   6.683   3.420 -0.8626 -3.2295  1.0429
  714MOL0     H96378   3.717   6.510   3.328  1.0000 -0.7560 -0.7338
  714MOL0     H96379   3.711   6.416   3.190 -0.6930 -0.5917  0.6895
  714MOL0     H96380   3.510   6.639   3.263  2.3157 -0.0118  1.2106
  714MOL0     H96381   3.473   6.468   3.245  0.7495  0.4501  0.3331
  714MOL0     H96382   3.525   6.498   2.996  1.3654  0.4894  0.4403
  714MOL0     H96383   3.526   6.673   3.023 -1.7141  0.5006 -2.2321
  714MOL0     H96384   3.315   6.677   3.123  1.0218  2.8625 -1.5754
  714MOL0     H96385   3.313   6.637   2.946  0.7344 -3.5539 -0.8463
  714MOL0     H96386   3.157   6.275   3.116 -0.4980  0.1236 -0.5421
  714MOL0     H96387   3.954   6.547   3.021 -2.1671  0.8680  0.6619
  714MOL0     H96388   4.301   6.582   3.042 -1.0308  1.6785  1.2286
  714MOL0     H96389   4.248   6.408   3.066  0.3132  0.2861 -0.6296
  714MOL0     H96390   4.172   6.510   2.946  2.3901 -1.2678 -1.7614
  715MOL0     O96391   6.885   7.868   0.409 -0.4387  0.2056  0.7388
  715MOL0     C96392   6.868   7.789   0.316 -0.2039  0.1193 -1.2234
  715MOL0     O96393   6.969   7.711   0.258 -0.1731  0.0530 -0.4313
  715MOL0     C96394   7.099   7.746   0.281 -0.0122 -0.2084 -0.5376
  715MOL0     C96395   7.144   7.878   0.290 -0.5446  0.0743 -0.2286
  715MOL0     C96396   7.284   7.911   0.286 -0.7873  0.0329 -0.1287
  715MOL0     C96397   7.383   7.809   0.279  1.1866  0.1297  0.4552
  715MOL0     O96398   7.516   7.830   0.310 -0.2945 -0.1686 -0.4742
  715MOL0     C96399   7.571   7.943   0.245 -0.4913  0.4017 -0.1435
  715MOL0     C96400   7.711   7.911   0.224 -0.6171  0.2616  0.0123
  715MOL0     C96401   7.794   8.025   0.174 -0.5172  0.4919  0.1303
  715MOL0     C96402   7.940   8.012   0.212 -0.2350  0.1519  0.6217
  715MOL0     C96403   8.024   8.133   0.162  0.7989 -1.1223 -0.4632
  715MOL0     C96404   8.163   8.085   0.207  0.1719 -0.6010  0.3270
  715MOL0     C96405   8.275   8.191   0.189  0.8509 -0.1501  0.0268
  715MOL0     C96406   8.323   8.199   0.042  0.1530  0.5157 -0.4899
  715MOL0     N96407   8.478   8.204   0.035 -0.1807 -0.1824 -0.3724
  715MOL0     C96408   8.553   8.115  -0.044 -1.0531 -0.4667 -0.1366
  715MOL0     C96409   8.672   8.127   0.017 -1.0242  0.6278 -0.2011
  715MOL0     C96410   8.793   8.038  -0.012 -0.2967 -0.2980  0.8366
  715MOL0     C96411   8.930   8.105  -0.010 -0.3962  0.7407 -0.6040
  715MOL0     C96412   9.040   8.021  -0.072  0.1804 -0.5552  0.3136
  715MOL0     C96413   9.172   8.096  -0.040 -0.9746 -0.0638 -0.1506
  715MOL0     O96414   9.252   8.089  -0.160 -0.2322  0.0546 -0.3637
  715MOL0     C96415   9.386   8.146  -0.167  0.6183 -0.0535 -0.5905
  715MOL0     C96416   9.444   8.230  -0.074  0.0535 -0.1615  0.0795
  715MOL0     C96417   9.579   8.280  -0.087  0.0310 -0.3198  0.5336
  715MOL0     C96418   9.664   8.243  -0.195 -0.7254 -0.5877  0.2140
  715MOL0     C96419   9.809   8.276  -0.202  0.2709 -0.1913  0.1291
  715MOL0     O96420   9.874   8.264  -0.321 -0.2710  0.0424 -0.8478
  715MOL0     C96421  10.004   8.310  -0.350 -0.1953  0.6627 -0.3118
  715MOL0     C96422  10.036   8.334  -0.483  0.3573  0.6199 -0.3747
  715MOL0     C96423  10.156   8.389  -0.531  0.4942 -0.0810 -0.2240
  715MOL0     C96424  10.249   8.434  -0.438  0.2962 -0.1455  0.2494
  715MOL0     O96425  10.377   8.476  -0.467 -0.1040  0.4793 -0.6207
  715MOL0     C96426  10.438   8.399  -0.577  0.4476  1.0738 -0.0369
  715MOL0     C96427  10.583   8.440  -0.588 -0.0547  1.0139  1.1077
  715MOL0     C96428  10.667   8.348  -0.674  0.8134 -0.0235  0.7010
  715MOL0     C96429  10.809   8.410  -0.719  0.5755  0.2450 -1.0168
  715MOL0     C96430  10.909   8.308  -0.758 -0.0441  0.2000  0.5600
  715MOL0     C96431  11.038   8.351  -0.816 -0.8014  0.2730 -0.0331
  715MOL0     C96432  11.142   8.234  -0.821  0.5326  0.5920 -0.6757
  715MOL0     C96433  11.274   8.258  -0.883  0.3835 -0.7511  0.7313
  715MOL0    Cl96434  11.397   8.165  -0.792 -0.3270 -0.0499 -0.3633
  715MOL0     C96435  10.226   8.404  -0.302  0.0009 -0.1626  0.4847
  715MOL0     C96436  10.103   8.356  -0.256 -0.1585  0.6639 -0.1062
  715MOL0     O96437   9.858   8.323  -0.096 -0.1883  0.2960 -0.1191
  715MOL0     C96438   9.604   8.161  -0.290 -0.2207 -0.0100  0.5143
  715MOL0     C96439   9.475   8.109  -0.270 -0.6286  0.2901  0.4205
  715MOL0     N96440   8.674   8.233   0.104 -0.4728 -0.4459 -0.2279
  715MOL0     N96441   8.557   8.277   0.114  0.7453 -0.5396 -0.2523
  715MOL0     C96442   7.333   7.678   0.273 -0.4757 -0.9535 -0.7367
  715MOL0     C96443   7.197   7.647   0.269 -0.3987 -0.0251  0.5860
  715MOL0     C96444   6.727   7.756   0.286 -0.2761  0.9676  0.5221
  715MOL0     C96445   6.714   7.636   0.218  0.1985  1.2213 -0.6167
  715MOL0     C96446   6.588   7.588   0.179  0.9043 -0.7343 -0.6393
  715MOL0     C96447   6.469   7.642   0.232  0.2738 -0.8993  0.6046
  715MOL0     O96448   6.353   7.585   0.198 -0.2948  0.3478  0.0511
  715MOL0     C96449   6.262   7.568   0.300  0.5188 -0.0624 -0.6115
  715MOL0     C96450   6.148   7.480   0.243  0.5284  0.1288 -0.7953
  715MOL0     C96451   6.090   7.527   0.110 -0.0122 -0.9433 -1.0472
  715MOL0     C96452   5.975   7.440   0.071 -0.5481  0.0062  0.5216
  715MOL0     C96453   5.915   7.477  -0.060  0.6174  0.2859  0.0540
  715MOL0     C96454   5.858   7.508  -0.161 -0.5058  0.4814  0.2428
  715MOL0     C96455   6.485   7.762   0.302 -0.4677  0.1708  0.6093
  715MOL0     C96456   6.609   7.818   0.325 -0.0104 -0.2019  0.4773
  715MOL0     C96457   6.596   7.952   0.404 -0.4744  0.2998 -0.1923
  715MOL0     H96458   7.076   7.962   0.286 -1.6504 -0.8217 -0.7700
  715MOL0     H96459   7.313   8.016   0.286 -0.9530  0.1130 -1.8137
  715MOL0     H96460   7.532   7.969   0.146  3.3497  1.2557 -1.6094
  715MOL0     H96461   7.564   8.025   0.317  0.9103 -1.8330  2.7777
  715MOL0     H96462   7.721   7.828   0.153  2.2431 -0.0672  0.6719
  715MOL0     H96463   7.753   7.869   0.316 -0.3943  1.9578  0.7183
  715MOL0     H96464   7.765   8.126   0.205  1.5114  0.8843  0.9226
  715MOL0     H96465   7.789   8.012   0.065  1.0276 -0.8843  0.1994
  715MOL0     H96466   7.945   8.003   0.321 -1.3333 -2.2371  0.5292
  715MOL0     H96467   7.982   7.922   0.167  0.8687  0.8226  0.2793
  715MOL0     H96468   8.003   8.142   0.055  2.1426  1.2932 -0.5810
  715MOL0     H96469   7.985   8.222   0.212 -0.4521 -1.8525 -0.0845
  715MOL0     H96470   8.159   8.068   0.315 -0.3477 -2.0768  0.0870
  715MOL0     H96471   8.198   7.991   0.164  5.0845 -0.7919  3.9082
  715MOL0     H96472   8.360   8.167   0.252  0.3069  1.3660  1.4069
  715MOL0     H96473   8.244   8.291   0.218 -2.3494 -1.0964  0.2451
  715MOL0     H96474   8.286   8.107  -0.003 -1.1236  1.1442 -0.7795
  715MOL0     H96475   8.283   8.287  -0.010 -0.6320 -0.2236 -1.1618
  715MOL0     H96476   8.529   8.033  -0.111  0.2272  1.1550 -2.7760
  715MOL0     H96477   8.793   7.959   0.063  1.3676  0.6721  1.9221
  715MOL0     H96478   8.776   7.987  -0.107 -2.9100  0.5692  0.7470
  715MOL0     H96479   8.926   8.210  -0.042 -2.6462  0.9108  0.0755
  715MOL0     H96480   8.970   8.108   0.092  1.6900 -0.1825 -1.3382
  715MOL0     H96481   9.027   8.029  -0.181  1.5623 -0.3892  0.1412
  715MOL0     H96482   9.049   7.923  -0.025  0.6064 -0.2100  0.9607
  715MOL0     H96483   9.228   8.050   0.041  0.2366  2.7828  0.7375
  715MOL0     H96484   9.154   8.199  -0.007 -0.7509  0.0210 -0.2903
  715MOL0     H96485   9.386   8.267   0.010  2.0172 -0.8483  1.8285
  715MOL0     H96486   9.627   8.341  -0.011 -0.3955 -0.2002  0.7068
  715MOL0     H96487   9.960   8.295  -0.550  3.0778 -1.1695 -2.6525
  715MOL0     H96488  10.174   8.400  -0.638  2.7736 -0.7114  0.0400
  715MOL0     H96489  10.434   8.290  -0.569 -0.9463  1.2571  3.3881
  715MOL0     H96490  10.391   8.432  -0.671 -0.2123  1.6545  0.4850
  715MOL0     H96491  10.585   8.543  -0.624  1.7916  1.3726  2.1355
  715MOL0     H96492  10.623   8.457  -0.488  3.0585  1.3021 -0.0651
  715MOL0     H96493  10.700   8.261  -0.616  1.2727 -1.5643 -1.7484
  715MOL0     H96494  10.611   8.313  -0.761 -1.6817  4.5884  0.1360
  715MOL0     H96495  10.851   8.450  -0.626 -1.1576  0.2046 -0.1664
  715MOL0     H96496  10.798   8.487  -0.796  3.6020  1.0171 -0.7929
  715MOL0     H96497  10.861   8.250  -0.837  1.8529 -1.3131  0.4571
  715MOL0     H96498  10.916   8.235  -0.676  0.6051 -1.1604 -0.6604
  715MOL0     H96499  11.014   8.386  -0.917 -1.9726  0.2178  0.2075
  715MOL0     H96500  11.083   8.428  -0.754 -1.5186  0.7106 -0.0482
  715MOL0     H96501  11.097   8.149  -0.874 -2.9393  1.9846 -0.1946
  715MOL0     H96502  11.158   8.198  -0.719  0.5285  0.9622 -0.5454
  715MOL0     H96503  11.289   8.246  -0.991  2.4123 -0.5231  0.9431
  715MOL0     H96504  11.306   8.361  -0.863  1.6495 -0.8593 -0.5289
  715MOL0     H96505  10.312   8.425  -0.240  0.6737 -2.1237  0.2912
  715MOL0     H96506  10.090   8.332  -0.151 -2.2749  0.3888 -0.3859
  715MOL0     H96507   9.661   8.138  -0.380 -0.5948  1.5250 -0.1495
  715MOL0     H96508   9.434   8.048  -0.350 -2.0471  2.0225 -0.2353
  715MOL0     H96509   7.404   7.596   0.278 -0.8448 -1.1860  2.8170
  715MOL0     H96510   7.172   7.543   0.248  1.5456  0.0818 -3.1246
  715MOL0     H96511   6.794   7.574   0.181  0.0824  1.2156 -0.8637
  715MOL0     H96512   6.587   7.505   0.108  0.5099  0.9822 -2.7461
  715MOL0     H96513   6.235   7.670   0.330  2.0106  0.5857 -1.3389
  715MOL0     H96514   6.315   7.519   0.382  0.5997 -0.2553 -0.7800
  715MOL0     H96515   6.066   7.482   0.316  0.8383 -0.5413 -0.4257
  715MOL0     H96516   6.187   7.379   0.229  0.3114 -0.5635  2.5825
  715MOL0     H96517   6.174   7.519   0.040 -0.9952  0.0051 -2.3957
  715MOL0     H96518   6.052   7.629   0.124 -2.7625 -2.0831  0.6056
  715MOL0     H96519   6.018   7.340   0.064  0.6033  0.4704  0.7232
  715MOL0     H96520   5.897   7.449   0.147 -0.7925  2.3333  0.0826
  715MOL0     H96521   5.800   7.541  -0.245 -0.7997  0.1963  0.3313
  715MOL0     H96522   6.393   7.809   0.334 -0.5784  0.6706 -0.4128
  715MOL0     H96523   6.544   7.926   0.497  0.8732  2.3923  1.2343
  715MOL0     H96524   6.688   8.000   0.439 -0.8179  1.3582 -0.6979
  715MOL0     H96525   6.538   8.016   0.337  0.3342 -0.2970 -1.5083
  716MOL0     O96526   4.856   3.946   1.786  0.2699  0.3833 -0.4501
  716MOL0     C96527   4.780   4.024   1.840 -0.0685 -0.8179  0.6543
  716MOL0     O96528   4.820   4.139   1.905 -0.3150 -0.3462 -0.4055
  716MOL0     C96529   4.946   4.186   1.871  0.7274  0.1861 -0.1193
  716MOL0     C96530   4.983   4.214   1.735 -0.5906 -0.1403 -0.5997
  716MOL0     C96531   5.113   4.267   1.712  1.1523  0.3629  0.4371
  716MOL0     C96532   5.202   4.298   1.816 -0.0710 -0.5661  0.6136
  716MOL0     O96533   5.321   4.353   1.797  0.5345  0.3281  0.1598
  716MOL0     C96534   5.359   4.387   1.669  0.3028 -0.6294 -0.5074
  716MOL0     C96535   5.489   4.479   1.684 -0.9023  0.3098 -0.1196
  716MOL0     C96536   5.621   4.415   1.753 -0.4041 -1.0458 -0.3280
  716MOL0     C96537   5.744   4.510   1.738 -0.5679  1.1783  0.4111
  716MOL0     C96538   5.881   4.440   1.756  0.0700  0.4044 -0.7007
  716MOL0     C96539   5.999   4.553   1.758  0.0700 -0.4994 -0.1048
  716MOL0     C96540   6.124   4.487   1.819  0.4423 -0.3630 -0.3668
  716MOL0     C96541   6.200   4.401   1.725  0.2845 -0.1089  0.1652
  716MOL0     N96542   6.324   4.354   1.780 -0.4147 -0.6179 -0.3100
  716MOL0     C96543   6.389   4.396   1.898  0.4757 -0.0098  0.5546
  716MOL0     C96544   6.477   4.294   1.921  0.2481 -0.2279 -0.2125
  716MOL0     C96545   6.590   4.285   2.024 -0.4344 -0.1781 -0.6518
  716MOL0     C96546   6.726   4.292   1.948 -0.2362  0.1582 -0.2115
  716MOL0     C96547   6.828   4.201   2.014  0.2613  0.1060  0.4303
  716MOL0     C96548   6.974   4.230   1.990 -0.5112 -1.1778  0.5992
  716MOL0     O96549   7.023   4.354   2.045 -0.1934  0.3908 -1.1004
  716MOL0     C96550   7.153   4.405   2.019  0.2873  0.0311 -1.1522
  716MOL0     C96551   7.259   4.326   1.974 -0.0794 -0.1950 -0.1034
  716MOL0     C96552   7.383   4.372   1.944 -0.3668  0.0619 -0.2668
  716MOL0     C96553   7.421   4.500   1.988  1.8551  0.0198 -0.5737
  716MOL0     C96554   7.558   4.551   1.970 -0.1428  0.0388  0.1745
  716MOL0     O96555   7.574   4.682   1.956 -0.1256  0.4255  0.1912
  716MOL0     C96556   7.704   4.743   1.936 -0.0803  0.2396  1.1754
  716MOL0     C96557   7.716   4.857   1.844 -0.0477  0.1821 -0.2634
  716MOL0     C96558   7.842   4.919   1.820 -0.3018 -0.4733 -0.7577
  716MOL0     C96559   7.958   4.861   1.890 -0.0014 -0.2412  0.2763
  716MOL0     O96560   8.088   4.905   1.876 -0.3493 -0.1659  0.4187
  716MOL0     C96561   8.114   5.041   1.844 -1.1119 -0.1561  0.0260
  716MOL0     C96562   8.153   5.046   1.697 -0.5139  0.7444  0.2674
  716MOL0     C96563   8.220   5.174   1.663 -0.3336  1.1157 -0.3393
  716MOL0     C96564   8.372   5.177   1.706  0.0617  0.4460 -0.4948
  716MOL0     C96565   8.460   5.111   1.592 -0.4405  0.4490  0.1687
  716MOL0     C96566   8.483   5.188   1.460  0.0275 -0.0049  0.2483
  716MOL0     C96567   8.561   5.316   1.466  0.6345  0.1648  0.0340
  716MOL0     C96568   8.642   5.342   1.341  0.0301 -0.6501  0.1218
  716MOL0    Cl96569   8.543   5.406   1.218 -0.2274 -0.4589  0.0323
  716MOL0     C96570   7.940   4.745   1.965  0.3328  0.5167  0.3750
  716MOL0     C96571   7.819   4.694   1.995  0.0239 -0.2555 -0.1026
  716MOL0     O96572   7.645   4.471   1.962 -0.0765  0.3076  0.2454
  716MOL0     C96573   7.326   4.584   2.045  0.3999  0.0247 -0.0429
  716MOL0     C96574   7.195   4.532   2.058  0.6147  0.2926  0.1928
  716MOL0     N96575   6.462   4.198   1.831  0.5978 -0.0474  0.5699
  716MOL0     N96576   6.375   4.228   1.746 -0.1622 -0.0615  0.7322
  716MOL0     C96577   5.158   4.277   1.953 -0.1790  0.5859  0.0380
  716MOL0     C96578   5.029   4.215   1.979  0.7540  0.3394 -0.5884
  716MOL0     C96579   4.630   3.996   1.864  0.5188  0.5188 -0.2967
  716MOL0     C96580   4.566   4.064   1.970  0.4938 -0.3091  0.1852
  716MOL0     C96581   4.420   4.063   1.979 -0.6000  0.9746 -0.4010
  716MOL0     C96582   4.347   3.976   1.894  0.2707 -0.9834 -0.5474
  716MOL0     O96583   4.211   3.960   1.884  0.2551  0.4228 -0.2956
  716MOL0     C96584   4.123   4.055   1.948  0.4211  0.1084  0.2603
  716MOL0     C96585   3.988   3.987   1.935  0.2715 -0.0079  0.8669
  716MOL0     C96586   3.879   4.096   1.953  0.6320 -0.3066  0.4997
  716MOL0     C96587   3.746   4.032   1.916 -0.4343  0.4579  0.3881
  716MOL0     C96588   3.647   4.132   1.934  0.3435  0.3326  0.0467
  716MOL0     C96589   3.571   4.218   1.972 -0.3478 -0.3841 -0.7185
  716MOL0     C96590   4.414   3.898   1.800  0.2160  0.1405 -0.1852
  716MOL0     C96591   4.553   3.903   1.788  0.4492 -0.2412  0.0155
  716MOL0     C96592   4.615   3.812   1.679 -0.0216  0.2901  0.0617
  716MOL0     H96593   4.911   4.190   1.658 -2.1076  0.5417  0.5632
  716MOL0     H96594   5.127   4.299   1.609 -2.8316  2.7037  0.4006
  716MOL0     H96595   5.384   4.302   1.605 -2.0733 -1.3125 -0.6450
  716MOL0     H96596   5.280   4.442   1.616 -1.5463 -2.3374  0.3363
  716MOL0     H96597   5.459   4.565   1.744  0.2860  2.7464 -2.7710
  716MOL0     H96598   5.519   4.525   1.589 -0.2793  3.1019  1.3267
  716MOL0     H96599   5.633   4.324   1.693  1.3492 -0.4363 -0.9706
  716MOL0     H96600   5.601   4.384   1.856  0.0466  1.7433  0.6832
  716MOL0     H96601   5.745   4.552   1.637 -1.3088  1.5187  0.5413
  716MOL0     H96602   5.728   4.589   1.811 -2.2281  1.6188 -0.3770
  716MOL0     H96603   5.881   4.393   1.855  1.1923 -0.7924 -1.2378
  716MOL0     H96604   5.901   4.360   1.685  2.3874 -1.0692  1.4146
  716MOL0     H96605   6.006   4.593   1.657 -4.2311 -3.0488 -1.7270
  716MOL0     H96606   5.975   4.637   1.824 -0.8510 -0.5494 -0.3582
  716MOL0     H96607   6.097   4.439   1.913 -2.3712  1.1592 -0.2999
  716MOL0     H96608   6.195   4.565   1.846  0.2857 -0.2750 -0.2066
  716MOL0     H96609   6.140   4.311   1.710 -0.4079  0.1734  1.1315
  716MOL0     H96610   6.210   4.446   1.626  2.0267 -2.3905 -0.7740
  716MOL0     H96611   6.393   4.492   1.949 -1.3520 -0.4440  1.6331
  716MOL0     H96612   6.592   4.366   2.097  1.2458 -0.6423 -0.1227
  716MOL0     H96613   6.573   4.194   2.082 -3.2144  1.2093  0.9124
  716MOL0     H96614   6.720   4.263   1.842 -0.5835  2.3633 -0.8458
  716MOL0     H96615   6.759   4.396   1.954 -0.5408  0.2603 -0.3005
  716MOL0     H96616   6.806   4.100   1.979  1.2069 -0.0196  0.1528
  716MOL0     H96617   6.816   4.203   2.122  1.4815  1.5711  0.5810
  716MOL0     H96618   6.990   4.219   1.882 -0.8659 -1.4879  0.5730
  716MOL0     H96619   7.036   4.154   2.038  2.4295 -0.2510 -1.5060
  716MOL0     H96620   7.227   4.225   1.952 -3.4008  0.7487 -0.1799
  716MOL0     H96621   7.456   4.307   1.897 -1.1211  0.1419 -1.5845
  716MOL0     H96622   7.634   4.897   1.784  1.9664  1.5474 -2.2573
  716MOL0     H96623   7.846   5.004   1.752 -0.2747 -1.3021 -1.8282
  716MOL0     H96624   8.031   5.111   1.851 -1.1472 -0.3144  1.5774
  716MOL0     H96625   8.193   5.061   1.917  0.2631 -0.9028 -1.2057
  716MOL0     H96626   8.226   4.964   1.699  0.1191  1.3110  1.0782
  716MOL0     H96627   8.066   5.024   1.634  0.7048  1.2684 -1.6810
  716MOL0     H96628   8.198   5.206   1.560 -2.7327  1.7054  0.2798
  716MOL0     H96629   8.164   5.248   1.721  1.0413  0.8947  1.3249
  716MOL0     H96630   8.393   5.118   1.795  1.1311  1.7194  0.1230
  716MOL0     H96631   8.408   5.277   1.729 -0.9894  0.6941  0.1064
  716MOL0     H96632   8.415   5.014   1.571  0.5722 -0.0782  0.4010
  716MOL0     H96633   8.559   5.089   1.633  1.3754  0.2793 -3.8904
  716MOL0     H96634   8.534   5.113   1.399 -0.6759  1.0235 -1.6598
  716MOL0     H96635   8.386   5.198   1.412 -0.2996 -0.3822  0.8131
  716MOL0     H96636   8.643   5.308   1.538  0.0916  0.5277  0.6944
  716MOL0     H96637   8.498   5.401   1.495  1.5238  1.9206 -2.6957
  716MOL0     H96638   8.717   5.421   1.351  0.9519 -0.6645 -4.5312
  716MOL0     H96639   8.690   5.248   1.311  0.0459 -0.7640  0.5015
  716MOL0     H96640   8.028   4.694   2.005  0.1859  1.0205  1.3820
  716MOL0     H96641   7.816   4.607   2.059 -0.0225 -1.4821 -1.7168
  716MOL0     H96642   7.355   4.680   2.087  0.7361  0.8543 -2.0733
  716MOL0     H96643   7.115   4.593   2.100 -1.7832  0.8826 -4.5530
  716MOL0     H96644   5.227   4.300   2.034  0.8187 -1.3053 -0.2326
  716MOL0     H96645   4.979   4.193   2.073 -3.2513 -0.0224 -2.6131
  716MOL0     H96646   4.616   4.125   2.044  0.1049  0.6136 -0.2972
  716MOL0     H96647   4.378   4.124   2.058  3.1613  0.8517  1.9334
  716MOL0     H96648   4.126   4.152   1.897 -1.8496 -1.0898 -2.3556
  716MOL0     H96649   4.141   4.061   2.056  0.5642 -0.2527  0.2564
  716MOL0     H96650   3.978   3.904   2.006 -2.0920 -0.3625  0.2223
  716MOL0     H96651   3.977   3.949   1.833  1.7346 -0.8950  1.0051
  716MOL0     H96652   3.893   4.182   1.887  0.2771 -1.0262 -0.5385
  716MOL0     H96653   3.882   4.138   2.054  0.6158 -0.8910  0.7468
  716MOL0     H96654   3.742   3.984   1.818  0.3785 -3.4607  2.0621
  716MOL0     H96655   3.734   3.946   1.982  2.4900 -1.0330 -0.8453
  716MOL0     H96656   3.506   4.298   2.003 -0.9527 -1.9574  2.4705
  716MOL0     H96657   4.358   3.837   1.730  1.7000  0.5332 -1.7848
  716MOL0     H96658   4.667   3.725   1.721  4.9409  2.3380 -1.1061
  716MOL0     H96659   4.548   3.778   1.599  0.5815 -2.0648  0.4809
  716MOL0     H96660   4.697   3.864   1.628  0.2783  0.1131  0.3568
  717MOL0     O96661   9.316   6.471   5.339  0.2002 -0.6427  0.1060
  717MOL0     C96662   9.345   6.555   5.417 -0.6480 -0.6566 -0.2143
  717MOL0     O96663   9.468   6.571   5.464  0.2787  0.4168 -0.1347
  717MOL0     C96664   9.573   6.493   5.423  0.1456  0.5367  0.2829
  717MOL0     C96665   9.596   6.440   5.294  0.8853  0.3665 -0.5017
  717MOL0     C96666   9.710   6.368   5.258  0.4059 -0.3584  0.3785
  717MOL0     C96667   9.804   6.326   5.354 -0.1576 -0.7930  1.3206
  717MOL0     O96668   9.912   6.252   5.321  0.2772  0.2298  0.7590
  717MOL0     C96669   9.924   6.213   5.183  0.0801 -0.6737  0.4584
  717MOL0     C96670  10.067   6.167   5.182 -0.5228 -0.3716  0.1937
  717MOL0     C96671  10.113   6.130   5.040 -0.0054 -0.4670  0.4220
  717MOL0     C96672  10.264   6.125   5.030  0.2143 -0.1899  0.9480
  717MOL0     C96673  10.313   6.060   4.904  0.1276 -0.7877  0.3209
  717MOL0     C96674  10.253   6.120   4.772 -0.4701 -0.6956  0.4516
  717MOL0     C96675  10.311   6.086   4.640  0.3920  0.3556  0.4220
  717MOL0     C96676  10.338   5.938   4.627 -0.2364  1.5121  0.1318
  717MOL0     N96677  10.394   5.898   4.493 -0.2771 -0.1980 -0.3477
  717MOL0     C96678  10.523   5.913   4.451 -0.2504  0.9930 -0.5429
  717MOL0     C96679  10.514   5.875   4.321  0.1673  0.1456  0.3545
  717MOL0     C96680  10.632   5.873   4.225 -0.6815 -0.7625  0.4786
  717MOL0     C96681  10.739   5.788   4.274 -0.2134 -0.2543  0.4886
  717MOL0     C96682  10.861   5.779   4.178 -0.6189 -0.7535  0.3652
  717MOL0     C96683  10.977   5.697   4.245  0.1268  0.3595 -0.6311
  717MOL0     O96684  11.089   5.699   4.160 -0.0263  0.1695 -0.1216
  717MOL0     C96685  11.199   5.634   4.201  0.4693 -0.2492 -0.5348
  717MOL0     C96686  11.314   5.654   4.127 -0.3313 -0.6052  0.5386
  717MOL0     C96687  11.437   5.600   4.153 -0.3381  0.3565 -0.6918
  717MOL0     C96688  11.455   5.507   4.257  0.2816 -0.5512 -0.2730
  717MOL0     C96689  11.591   5.449   4.286  0.1665 -0.0897 -0.8266
  717MOL0     O96690  11.705   5.513   4.244  0.6176 -0.7834  0.1990
  717MOL0     C96691  11.828   5.459   4.256 -0.8882  0.2627 -0.3180
  717MOL0     C96692  11.882   5.390   4.144  0.2776  0.2685  0.5911
  717MOL0     C96693  12.006   5.325   4.148  0.6755  0.5452 -0.3444
  717MOL0     C96694  12.080   5.316   4.268  0.4836  0.2355  0.6438
  717MOL0     O96695  12.197   5.247   4.283 -0.0579 -0.8005  0.8441
  717MOL0     C96696  12.210   5.127   4.210 -0.1631  0.1765  0.8162
  717MOL0     C96697  12.331   5.043   4.268  0.0287 -0.3326 -0.0678
  717MOL0     C96698  12.463   5.120   4.287 -0.3285  0.1006 -0.8980
  717MOL0     C96699  12.523   5.145   4.148  1.1466 -0.6165 -0.1838
  717MOL0     C96700  12.668   5.098   4.136 -0.1462  0.5828  1.4753
  717MOL0     C96701  12.763   5.193   4.207  0.5357  0.5823  0.5523
  717MOL0     C96702  12.912   5.161   4.198  1.1605 -1.1980 -0.5152
  717MOL0     C96703  12.987   5.224   4.308  0.2474  0.5355  0.2926
  717MOL0    Cl96704  13.160   5.188   4.298 -0.2335 -0.0911  0.4492
  717MOL0     C96705  12.025   5.385   4.379  0.0613 -0.0166 -0.3296
  717MOL0     C96706  11.904   5.455   4.377  0.3521  0.7162 -0.4707
  717MOL0     O96707  11.596   5.348   4.362  1.0406  0.0572 -0.2078
  717MOL0     C96708  11.344   5.471   4.331 -0.2909  0.6262  0.2448
  717MOL0     C96709  11.216   5.537   4.309  0.3211 -0.6517  0.3019
  717MOL0     N96710  10.384   5.861   4.278 -0.0193  0.0169  1.0775
  717MOL0     N96711  10.313   5.868   4.388 -0.1080  0.3952  0.5623
  717MOL0     C96712   9.775   6.369   5.486  0.3450  0.4503  0.4205
  717MOL0     C96713   9.662   6.444   5.516 -1.4181 -0.0466 -0.3823
  717MOL0     C96714   9.239   6.654   5.475  0.1344 -0.0780  0.0909
  717MOL0     C96715   9.293   6.769   5.533 -0.5213  0.5529  0.0848
  717MOL0     C96716   9.203   6.858   5.586  0.5318  0.2776  0.4640
  717MOL0     C96717   9.067   6.841   5.571  0.4822  0.1946  0.8933
  717MOL0     O96718   8.965   6.933   5.617  0.0529  0.6400  0.2345
  717MOL0     C96719   8.974   6.970   5.758  0.3808 -1.4851 -0.6532
  717MOL0     C96720   8.851   7.047   5.800 -0.6829 -0.6398 -0.4309
  717MOL0     C96721   8.859   7.064   5.955  0.8711  0.0819 -0.2556
  717MOL0     C96722   8.748   7.147   6.006 -0.3550 -0.8838  0.0513
  717MOL0     C96723   8.754   7.289   5.970  0.0513  0.0321  0.2338
  717MOL0     C96724   8.736   7.400   5.944  0.3820  0.1582  0.2947
  717MOL0     C96725   9.012   6.735   5.500  0.0122  0.4007 -0.3368
  717MOL0     C96726   9.099   6.639   5.452 -1.1484  0.8647 -0.4111
  717MOL0     C96727   9.036   6.511   5.399  0.4078  0.3963 -0.1255
  717MOL0     H96728   9.517   6.448   5.220  0.9901 -0.1059 -0.6649
  717MOL0     H96729   9.721   6.347   5.152  1.5437 -2.5768  0.8856
  717MOL0     H96730   9.860   6.130   5.151  0.3234 -1.2166  1.3404
  717MOL0     H96731   9.918   6.302   5.121 -0.5226 -0.6847  0.4951
  717MOL0     H96732  10.067   6.086   5.255 -0.9656 -0.7765 -0.2461
  717MOL0     H96733  10.127   6.253   5.214  1.3242 -0.7922 -1.8758
  717MOL0     H96734  10.062   6.197   4.970  0.9490  1.4068  1.4433
  717MOL0     H96735  10.077   6.028   5.020  3.4585 -1.6275 -0.5592
  717MOL0     H96736  10.303   6.226   5.038  2.2476 -0.8554  0.1494
  717MOL0     H96737  10.306   6.070   5.115  0.6628  0.3660  1.0862
  717MOL0     H96738  10.420   6.083   4.899  0.0942 -0.4334  1.0641
  717MOL0     H96739  10.295   5.953   4.911 -2.4457 -0.3228  2.8816
  717MOL0     H96740  10.145   6.100   4.776 -1.1217  1.2749 -2.9361
  717MOL0     H96741  10.265   6.229   4.776  1.6971 -0.8976  0.1988
  717MOL0     H96742  10.399   6.149   4.624  0.0677  0.2607 -2.1197
  717MOL0     H96743  10.248   6.124   4.559 -1.0587  1.2567  1.9243
  717MOL0     H96744  10.407   5.902   4.704 -0.1795  0.0741 -0.5603
  717MOL0     H96745  10.248   5.879   4.651  1.8257 -1.0907  2.0855
  717MOL0     H96746  10.616   5.943   4.499 -0.1043  0.5370 -0.5419
  717MOL0     H96747  10.608   5.831   4.127  0.8205  1.2359 -0.8303
  717MOL0     H96748  10.661   5.977   4.210 -2.2694  0.0361  2.4574
  717MOL0     H96749  10.781   5.840   4.361  2.0604  0.3901 -0.9063
  717MOL0     H96750  10.706   5.686   4.293  2.1375 -0.9868  0.9459
  717MOL0     H96751  10.898   5.882   4.177 -0.5949 -0.7253  2.2145
  717MOL0     H96752  10.842   5.743   4.076 -0.7252 -0.4010  0.2594
  717MOL0     H96753  10.954   5.590   4.246  5.2517 -1.0025  0.7010
  717MOL0     H96754  10.999   5.738   4.345 -1.4252  1.1275 -0.5751
  717MOL0     H96755  11.315   5.720   4.041  1.6630 -0.2245  0.8112
  717MOL0     H96756  11.523   5.622   4.090  0.7777  0.0336  0.6536
  717MOL0     H96757  11.825   5.402   4.052 -0.8513  3.1429  1.5288
  717MOL0     H96758  12.045   5.253   4.077  1.3471 -0.9594  1.4455
  717MOL0     H96759  12.121   5.064   4.197  0.7777 -0.7271 -2.0633
  717MOL0     H96760  12.231   5.157   4.107  2.0456 -2.5903  0.3549
  717MOL0     H96761  12.308   5.012   4.370  3.7572 -1.0502  0.7169
  717MOL0     H96762  12.350   4.958   4.201  2.3853  0.4316 -0.4629
  717MOL0     H96763  12.446   5.202   4.358  1.2782 -2.2808  2.5098
  717MOL0     H96764  12.529   5.052   4.342 -0.7874  0.0388 -0.4174
  717MOL0     H96765  12.511   5.252   4.126  0.3921 -0.2389  1.8486
  717MOL0     H96766  12.462   5.092   4.074  0.8467 -1.9676  1.0002
  717MOL0     H96767  12.689   5.087   4.029  0.0035  0.5046  1.5129
  717MOL0     H96768  12.663   4.998   4.181 -2.5781 -0.4820 -0.8731
  717MOL0     H96769  12.748   5.284   4.149  0.9215  0.3637  0.1083
  717MOL0     H96770  12.733   5.209   4.312  1.4144 -0.6766  1.0199
  717MOL0     H96771  12.956   5.202   4.108 -0.4968  0.3397 -0.6713
  717MOL0     H96772  12.922   5.052   4.203 -4.5836 -2.0773 -0.9162
  717MOL0     H96773  12.981   5.333   4.317 -0.4388  0.7189 -1.7877
  717MOL0     H96774  12.951   5.181   4.402 -0.7425  1.5905  0.4096
  717MOL0     H96775  12.068   5.368   4.477 -1.1534 -0.8116  0.1007
  717MOL0     H96776  11.854   5.497   4.464 -1.4154 -2.4868  0.2323
  717MOL0     H96777  11.357   5.403   4.415  0.7751  1.1573  0.5263
  717MOL0     H96778  11.129   5.517   4.371 -0.6220 -0.1638 -0.8071
  717MOL0     H96779   9.827   6.326   5.570  0.3111 -0.7965 -0.1743
  717MOL0     H96780   9.648   6.461   5.622  3.9098 -0.9844  0.7560
  717MOL0     H96781   9.400   6.788   5.538 -0.2655 -0.9766  1.3801
  717MOL0     H96782   9.241   6.942   5.645  0.5802 -1.5218  3.1653
  717MOL0     H96783   9.058   7.040   5.764 -0.4623 -0.6077  2.6218
  717MOL0     H96784   8.994   6.888   5.826  1.1655 -0.9969 -0.2756
  717MOL0     H96785   8.756   7.000   5.773 -1.5001  1.1649 -0.9022
  717MOL0     H96786   8.852   7.147   5.755 -2.2557  0.7284  2.2815
  717MOL0     H96787   8.957   7.101   5.987  0.0982  2.5640 -0.5503
  717MOL0     H96788   8.843   6.964   5.997 -1.0598  0.0109 -1.0866
  717MOL0     H96789   8.655   7.099   5.975  0.4402 -1.0381 -2.3436
  717MOL0     H96790   8.756   7.141   6.115  0.5223  2.4162  0.2577
  717MOL0     H96791   8.707   7.500   5.918  2.6862  0.6516 -0.6241
  717MOL0     H96792   8.904   6.730   5.484 -0.5237  3.9606  1.1837
  717MOL0     H96793   9.094   6.419   5.413  1.2634  0.9455  0.0132
  717MOL0     H96794   8.945   6.475   5.448  0.9268 -2.3859 -1.0697
  717MOL0     H96795   9.014   6.523   5.293 -0.6833  1.6814  0.2214
  718MOL0     O96796   7.471   8.535   1.943 -0.4505  0.0468 -0.2677
  718MOL0     C96797   7.449   8.655   1.947 -0.4051  0.5893 -0.0186
  718MOL0     O96798   7.483   8.740   1.856 -0.0308  0.7661  0.3093
  718MOL0     C96799   7.542   8.696   1.744  0.7365 -0.2194  0.2991
  718MOL0     C96800   7.667   8.621   1.740 -0.5976 -0.4133 -0.7927
  718MOL0     C96801   7.719   8.590   1.616 -0.0268 -0.2809  0.7790
  718MOL0     C96802   7.658   8.625   1.496  0.9526  0.2337  0.8427
  718MOL0     O96803   7.710   8.611   1.371  0.3024 -0.1320 -0.1624
  718MOL0     C96804   7.743   8.478   1.333 -0.6293  0.5629 -0.0972
  718MOL0     C96805   7.874   8.473   1.264  0.3161 -0.1817 -0.0100
  718MOL0     C96806   7.986   8.498   1.361 -0.7239 -1.1968  0.6152
  718MOL0     C96807   8.118   8.464   1.289  0.0766  0.2889 -0.7035
  718MOL0     C96808   8.230   8.551   1.341 -0.4546 -0.0516 -0.2764
  718MOL0     C96809   8.355   8.522   1.270 -1.1919 -1.3715 -0.1958
  718MOL0     C96810   8.472   8.605   1.327 -0.2851  0.2144  0.0666
  718MOL0     C96811   8.598   8.583   1.234 -0.3867  0.2557  0.1618
  718MOL0     N96812   8.718   8.657   1.283  0.2746  0.5356 -0.2247
  718MOL0     C96813   8.765   8.643   1.413 -0.5986  0.6312 -0.8536
  718MOL0     C96814   8.849   8.748   1.439  0.2205  0.0843  1.1132
  718MOL0     C96815   8.930   8.772   1.559 -0.6172 -0.0902 -0.3644
  718MOL0     C96816   9.078   8.774   1.525 -0.3615  0.3971  0.3734
  718MOL0     C96817   9.171   8.831   1.631  0.8091 -0.2257 -0.1048
  718MOL0     C96818   9.328   8.818   1.606 -0.2444  0.2823 -0.2209
  718MOL0     O96819   9.414   8.872   1.713 -0.6571 -0.8925  0.0732
  718MOL0     C96820   9.547   8.857   1.703 -0.3217 -0.4966  0.5101
  718MOL0     C96821   9.631   8.904   1.804 -0.0665 -0.1872 -0.4556
  718MOL0     C96822   9.777   8.884   1.804 -0.3421 -0.5484  0.8234
  718MOL0     C96823   9.835   8.822   1.698 -0.3563  0.5165 -0.3744
  718MOL0     C96824   9.977   8.791   1.700  0.2462  0.0830  0.7035
  718MOL0     O96825  10.043   8.794   1.820 -0.6975 -0.5010 -0.5841
  718MOL0     C96826  10.178   8.763   1.825 -0.2287 -0.7052  0.7654
  718MOL0     C96827  10.239   8.710   1.945  0.4538 -0.4662 -0.0306
  718MOL0     C96828  10.375   8.698   1.968 -0.2345 -0.1087 -0.9842
  718MOL0     C96829  10.467   8.732   1.863  0.5984 -0.1190 -0.3129
  718MOL0     O96830  10.605   8.731   1.865  0.3413  0.4337  0.8718
  718MOL0     C96831  10.675   8.694   1.981 -0.4949 -0.0374  0.6096
  718MOL0     C96832  10.819   8.738   1.972 -0.0294  0.4627 -0.2185
  718MOL0     C96833  10.898   8.737   2.099 -0.2257  0.2546 -0.8351
  718MOL0     C96834  11.047   8.785   2.090  0.5526  0.4183  0.2093
  718MOL0     C96835  11.125   8.754   1.961  0.2648  0.0331 -0.2531
  718MOL0     C96836  11.267   8.808   1.982 -0.1455 -0.2124  0.1923
  718MOL0     C96837  11.277   8.962   1.974  0.8797  0.1455 -0.1844
  718MOL0     C96838  11.408   9.005   2.032  0.2374 -0.2702  0.1248
  718MOL0    Cl96839  11.418   8.979   2.210  0.1439  0.6568  0.0907
  718MOL0     C96840  10.408   8.781   1.740 -0.9658 -0.6009 -1.0679
  718MOL0     C96841  10.271   8.798   1.721  0.3962 -0.0889  0.6159
  718MOL0     O96842  10.015   8.755   1.587 -0.0539 -0.5848 -0.2115
  718MOL0     C96843   9.747   8.769   1.596 -1.1238 -0.5255  0.6384
  718MOL0     C96844   9.611   8.791   1.601  0.9649  0.1866  0.5326
  718MOL0     N96845   8.844   8.828   1.329 -0.1412  0.1780 -0.4795
  718MOL0     N96846   8.771   8.774   1.238  0.7641 -0.1059  0.2149
  718MOL0     C96847   7.530   8.692   1.506 -0.1945  0.0825  0.2707
  718MOL0     C96848   7.471   8.717   1.628  0.3790  0.3219  0.6400
  718MOL0     C96849   7.415   8.721   2.079 -0.0529 -0.8608  0.9390
  718MOL0     C96850   7.353   8.844   2.083 -0.5173 -0.1909  0.8201
  718MOL0     C96851   7.313   8.903   2.207 -0.2396 -0.0167 -0.1759
  718MOL0     C96852   7.330   8.840   2.328 -0.2245 -0.1533  0.5206
  718MOL0     O96853   7.304   8.888   2.455 -0.3594 -0.2367  0.1243
  718MOL0     C96854   7.198   8.981   2.474  0.3496 -0.1138 -0.4039
  718MOL0     C96855   7.060   8.929   2.424 -0.6158  0.3501 -0.3180
  718MOL0     C96856   6.942   9.019   2.455  0.5883  0.6261 -0.6891
  718MOL0     C96857   6.955   9.169   2.407 -0.1178  0.5623  0.1592
  718MOL0     C96858   7.023   9.179   2.279 -0.1364 -0.6439 -0.1232
  718MOL0     C96859   7.073   9.192   2.168  0.1857  0.3122 -0.5180
  718MOL0     C96860   7.382   8.710   2.328  0.9316  0.1181  0.2581
  718MOL0     C96861   7.431   8.657   2.205 -0.4015  0.0895  0.2644
  718MOL0     C96862   7.476   8.517   2.221  0.5399  0.1215  0.1917
  718MOL0     H96863   7.713   8.590   1.834 -2.6062 -0.3477  0.2798
  718MOL0     H96864   7.814   8.537   1.618 -1.0874 -2.4908 -1.2329
  718MOL0     H96865   7.740   8.417   1.424  0.2565  1.9770  0.9177
  718MOL0     H96866   7.667   8.455   1.258 -0.4703  4.0827 -1.5554
  718MOL0     H96867   7.875   8.549   1.185  2.6877  1.2984  1.3347
  718MOL0     H96868   7.891   8.371   1.229 -1.4812 -0.2405 -0.7996
  718MOL0     H96869   7.987   8.436   1.451 -4.2476  1.9759  3.1917
  718MOL0     H96870   7.972   8.603   1.386 -1.5155 -1.7307  2.5985
  718MOL0     H96871   8.135   8.363   1.326  0.8178  1.2270  1.7152
  718MOL0     H96872   8.102   8.479   1.182 -1.6410 -0.0145 -0.5227
  718MOL0     H96873   8.200   8.656   1.328 -0.7409  0.0250  0.9241
  718MOL0     H96874   8.235   8.538   1.449 -0.8927 -2.3831 -0.4751
  718MOL0     H96875   8.375   8.416   1.288 -1.9298 -1.1304  2.5640
  718MOL0     H96876   8.351   8.547   1.164  0.7397  1.3909  0.2664
  718MOL0     H96877   8.495   8.567   1.427 -1.4345 -0.8176 -0.0313
  718MOL0     H96878   8.448   8.712   1.323  0.5233  0.3777 -0.8078
  718MOL0     H96879   8.631   8.479   1.239 -2.9052 -0.5333  2.2373
  718MOL0     H96880   8.569   8.618   1.134 -0.2167 -0.2481 -0.0662
  718MOL0     H96881   8.743   8.568   1.489  0.1998  1.1419 -0.1112
  718MOL0     H96882   8.908   8.871   1.600  4.0256  1.5911 -1.3231
  718MOL0     H96883   8.899   8.695   1.630 -1.2173  1.5356  1.2084
  718MOL0     H96884   9.099   8.667   1.517  1.5719  0.6564  1.3507
  718MOL0     H96885   9.106   8.822   1.430 -0.0963  0.4338  0.4682
  718MOL0     H96886   9.159   8.780   1.727  0.2752 -0.0810 -0.0935
  718MOL0     H96887   9.139   8.936   1.635  1.2831 -0.1050  0.8731
  718MOL0     H96888   9.355   8.860   1.508 -0.3311 -1.4370 -1.0102
  718MOL0     H96889   9.349   8.711   1.600 -2.8765 -0.2830 -0.7779
  718MOL0     H96890   9.576   8.943   1.889 -1.8447 -3.6411  0.1377
  718MOL0     H96891   9.829   8.912   1.895  2.7397  0.1549 -1.0184
  718MOL0     H96892  10.182   8.672   2.029  1.6908 -3.1185 -0.2719
  718MOL0     H96893  10.421   8.661   2.060 -0.6049  0.6151 -0.4923
  718MOL0     H96894  10.641   8.747   2.071  2.1754  0.1790  1.5812
  718MOL0     H96895  10.675   8.587   2.005  2.1511 -0.2524 -0.0559
  718MOL0     H96896  10.867   8.667   1.905 -0.5387 -0.1935  0.1031
  718MOL0     H96897  10.825   8.833   1.917 -2.5496  0.7159 -0.1831
  718MOL0     H96898  10.862   8.812   2.170 -0.7636  0.6414 -1.5111
  718MOL0     H96899  10.916   8.633   2.129  6.0655 -0.2663 -4.5618
  718MOL0     H96900  11.102   8.744   2.175  0.2817  0.0541  0.2134
  718MOL0     H96901  11.044   8.893   2.104  0.2447  0.2864  1.2411
  718MOL0     H96902  11.071   8.798   1.876 -0.4839 -0.3708  0.0076
  718MOL0     H96903  11.126   8.645   1.960  2.4279 -0.0110 -1.7671
  718MOL0     H96904  11.311   8.763   2.071 -1.2409 -2.7237 -0.4692
  718MOL0     H96905  11.323   8.777   1.893 -1.6734 -2.5373 -0.0448
  718MOL0     H96906  11.198   9.018   2.026  0.2569  1.5210 -2.4270
  718MOL0     H96907  11.277   8.984   1.867 -1.4636 -3.1897 -1.0293
  718MOL0     H96908  11.481   8.946   1.976  0.0048 -0.6229  0.1863
  718MOL0     H96909  11.430   9.111   2.019 -1.5787  0.0682 -0.4982
  718MOL0     H96910  10.472   8.818   1.660 -4.6283  0.3504 -3.8095
  718MOL0     H96911  10.259   8.853   1.628 -1.1790 -3.1863 -1.1692
  718MOL0     H96912   9.783   8.724   1.504 -0.0546  1.2983  0.0966
  718MOL0     H96913   9.553   8.781   1.510 -0.8672 -3.9570  1.9238
  718MOL0     H96914   7.482   8.729   1.416  1.9571 -1.3085 -1.5393
  718MOL0     H96915   7.366   8.745   1.636 -0.1641 -1.3435 -0.1914
  718MOL0     H96916   7.340   8.901   1.992  1.9585  0.6510  0.9244
  718MOL0     H96917   7.263   8.999   2.207 -3.6509 -1.6401 -0.2296
  718MOL0     H96918   7.231   9.070   2.418 -0.3027  0.0238 -0.5711
  718MOL0     H96919   7.190   9.012   2.579 -0.6073 -0.4308 -0.3777
  718MOL0     H96920   7.047   8.838   2.482  3.0832 -1.0060 -1.3230
  718MOL0     H96921   7.085   8.902   2.321  1.4360  0.1624  0.1900
  718MOL0     H96922   6.920   9.018   2.562 -1.3879  1.3407 -1.0308
  718MOL0     H96923   6.853   8.972   2.411  0.7866  1.5663 -2.1514
  718MOL0     H96924   6.859   9.219   2.394 -0.5496  0.2403  1.9186
  718MOL0     H96925   7.008   9.221   2.487 -0.6698  0.3358  0.6809
  718MOL0     H96926   7.127   9.189   2.075  3.0818  0.5668  1.0262
  718MOL0     H96927   7.392   8.663   2.425 -0.5513 -0.8828 -0.0424
  718MOL0     H96928   7.461   8.474   2.321 -3.8400 -0.3316 -0.4640
  718MOL0     H96929   7.428   8.456   2.144 -0.8787  1.4155  0.0093
  718MOL0     H96930   7.582   8.523   2.193  1.2254 -0.3860  2.3937
  719MOL0     O96931   5.039   4.430   2.612  0.6973  0.6772 -0.0542
  719MOL0     C96932   4.977   4.357   2.530  0.0891  0.6111  0.5661
  719MOL0     O96933   5.031   4.303   2.417 -0.0495  0.1948  0.9200
  719MOL0     C96934   5.155   4.333   2.376 -0.2646 -1.0051 -0.2282
  719MOL0     C96935   5.250   4.233   2.353  0.1750 -0.5492  0.6640
  719MOL0     C96936   5.372   4.256   2.298  0.8234 -0.8036 -0.1244
  719MOL0     C96937   5.406   4.386   2.259  0.2438  0.3384  0.0428
  719MOL0     O96938   5.527   4.389   2.200 -0.5906  0.6932 -0.2401
  719MOL0     C96939   5.566   4.518   2.152  0.1700 -0.4706  1.0526
  719MOL0     C96940   5.717   4.506   2.112 -0.3347  0.1241  0.1810
  719MOL0     C96941   5.819   4.484   2.229 -0.1874  0.8898  0.4831
  719MOL0     C96942   5.955   4.439   2.173  0.5178  0.5434 -0.3527
  719MOL0     C96943   6.056   4.440   2.283 -0.3619 -0.9527 -0.0567
  719MOL0     C96944   6.192   4.420   2.219 -0.2724  0.1804  0.1401
  719MOL0     C96945   6.300   4.413   2.335  0.2920 -0.0757  0.0204
  719MOL0     C96946   6.355   4.554   2.365  0.0088  0.4171 -0.0559
  719MOL0     N96947   6.442   4.621   2.274 -0.0886  0.2451  0.4836
  719MOL0     C96948   6.576   4.595   2.254 -0.1467  0.2264  0.4927
  719MOL0     C96949   6.601   4.677   2.147 -0.3261  0.4343 -0.2837
  719MOL0     C96950   6.732   4.674   2.069  0.8399  0.2334  0.0417
  719MOL0     C96951   6.775   4.813   2.020  0.3894  0.8031  0.2146
  719MOL0     C96952   6.771   4.923   2.125 -1.2277 -0.3835 -0.1935
  719MOL0     C96953   6.852   4.890   2.251 -0.0867  0.3351  0.1159
  719MOL0     O96954   6.865   5.009   2.320 -0.1761  0.1301 -0.2818
  719MOL0     C96955   6.978   5.039   2.384  0.9732 -0.5886  0.2147
  719MOL0     C96956   6.980   5.167   2.445 -0.1967 -0.0266  0.8612
  719MOL0     C96957   7.093   5.216   2.506 -0.3859  0.4320  0.2632
  719MOL0     C96958   7.206   5.133   2.525 -0.0513  0.3924 -0.0364
  719MOL0     C96959   7.321   5.183   2.592 -0.8096 -0.6662 -0.6270
  719MOL0     O96960   7.444   5.126   2.558  0.9456  0.6346  0.9241
  719MOL0     C96961   7.563   5.186   2.595  0.1880  0.0359 -0.3465
  719MOL0     C96962   7.578   5.323   2.550  1.2844  0.3857  0.0000
  719MOL0     C96963   7.707   5.377   2.573 -0.0477 -0.7347  0.9006
  719MOL0     C96964   7.812   5.303   2.623 -0.9541  0.3699  0.8497
  719MOL0     O96965   7.932   5.378   2.615 -0.2525 -0.2654 -0.0332
  719MOL0     C96966   8.038   5.337   2.706  0.9193  0.9010  0.1965
  719MOL0     C96967   8.158   5.264   2.647  0.5036 -0.4395  0.4753
  719MOL0     C96968   8.247   5.362   2.559  0.2073 -0.3165  0.6727
  719MOL0     C96969   8.379   5.288   2.529 -0.0923  0.0301  0.5213
  719MOL0     C96970   8.474   5.380   2.450  0.1871 -1.3121  0.2897
  719MOL0     C96971   8.616   5.315   2.439 -0.3895  0.3756  0.4732
  719MOL0     C96972   8.685   5.383   2.320 -0.2864 -0.3526 -0.3169
  719MOL0     C96973   8.826   5.428   2.349 -0.2825 -0.0248 -0.3719
  719MOL0    Cl96974   8.897   5.518   2.220 -0.1874 -0.0106  0.2945
  719MOL0     C96975   7.787   5.170   2.673 -0.9899 -0.8046  0.1409
  719MOL0     C96976   7.667   5.121   2.662  0.8767  0.7511  0.2458
  719MOL0     O96977   7.304   5.272   2.670  0.4309 -0.4085 -0.5927
  719MOL0     C96978   7.206   5.006   2.470  0.2567 -0.2459 -0.0799
  719MOL0     C96979   7.097   4.959   2.403  0.0965 -0.2706  0.8269
  719MOL0     N96980   6.490   4.749   2.112 -0.3429 -0.1354  0.7554
  719MOL0     N96981   6.391   4.709   2.185 -0.2599 -0.1417 -0.1774
  719MOL0     C96982   5.319   4.496   2.291  0.3026 -0.2841  0.0764
  719MOL0     C96983   5.197   4.465   2.353 -0.8823 -0.3595 -0.7840
  719MOL0     C96984   4.832   4.319   2.568 -0.7516 -0.6658  0.8076
  719MOL0     C96985   4.793   4.358   2.696  0.3717 -0.0950  0.1143
  719MOL0     C96986   4.661   4.330   2.737  0.8943 -0.0663  0.3541
  719MOL0     C96987   4.568   4.254   2.660  0.0001 -0.2514  0.1867
  719MOL0     O96988   4.451   4.203   2.693  0.2038  0.6061  0.1089
  719MOL0     C96989   4.364   4.282   2.771  0.2150 -0.6271 -0.3186
  719MOL0     C96990   4.276   4.198   2.871 -0.2100  0.1373  0.2760
  719MOL0     C96991   4.163   4.121   2.795 -0.4481  0.1174 -0.6685
  719MOL0     C96992   4.081   4.197   2.690 -0.8214 -0.3367  0.0566
  719MOL0     C96993   3.963   4.131   2.670 -0.6501  0.3377 -0.4895
  719MOL0     C96994   3.856   4.079   2.654 -0.1723 -0.4299 -0.4657
  719MOL0     C96995   4.613   4.212   2.534 -0.0598  0.4451 -1.4951
  719MOL0     C96996   4.741   4.251   2.486 -1.5153 -0.2081  0.8874
  719MOL0     C96997   4.775   4.205   2.340  0.7028 -0.9073 -0.8169
  719MOL0     H96998   5.219   4.130   2.369  1.8539 -0.8445  2.3755
  719MOL0     H96999   5.443   4.175   2.282  2.6690  0.4025  1.4958
  719MOL0     H97000   5.507   4.537   2.061  1.4606  0.3813  0.3681
  719MOL0     H97001   5.546   4.597   2.224 -0.4568  0.2427  0.1238
  719MOL0     H97002   5.740   4.603   2.066 -2.1206  0.4919 -0.0102
  719MOL0     H97003   5.733   4.429   2.036 -0.8422  1.2258 -1.0719
  719MOL0     H97004   5.783   4.410   2.301 -0.7578  1.9971  1.3640
  719MOL0     H97005   5.831   4.576   2.286  0.3356 -0.8334  3.3345
  719MOL0     H97006   5.946   4.346   2.116  0.8630  0.6066 -0.5099
  719MOL0     H97007   5.978   4.523   2.107 -0.7694  0.0427 -1.4715
  719MOL0     H97008   6.051   4.543   2.319  0.6360 -0.9053 -0.0237
  719MOL0     H97009   6.032   4.371   2.365 -2.2882  1.3988  1.5119
  719MOL0     H97010   6.201   4.325   2.165 -0.6224 -0.1479  0.6557
  719MOL0     H97011   6.221   4.505   2.156 -2.2003 -0.6505 -1.9994
  719MOL0     H97012   6.381   4.347   2.304 -0.8839 -2.2399  1.2929
  719MOL0     H97013   6.250   4.359   2.416 -1.3460 -0.9083 -1.4819
  719MOL0     H97014   6.278   4.629   2.385  0.8136  0.8958  1.4451
  719MOL0     H97015   6.417   4.533   2.452  1.2584  1.6626 -0.6052
  719MOL0     H97016   6.643   4.518   2.291 -0.8256  0.0661  1.4252
  719MOL0     H97017   6.817   4.645   2.130  0.0938  1.1899  1.5898
  719MOL0     H97018   6.726   4.610   1.980  0.4292  1.5709 -0.9399
  719MOL0     H97019   6.875   4.795   1.978 -0.8015 -1.2740 -1.9807
  719MOL0     H97020   6.711   4.838   1.936 -1.3978 -4.1057 -0.2192
  719MOL0     H97021   6.667   4.952   2.143 -1.2328 -1.2167  1.2327
  719MOL0     H97022   6.827   5.010   2.089 -2.2108  1.4260  2.3320
  719MOL0     H97023   6.952   4.864   2.214  0.5357  3.7609 -0.9290
  719MOL0     H97024   6.811   4.808   2.311  1.3027 -0.7996 -0.4149
  719MOL0     H97025   6.898   5.236   2.427 -1.8637 -1.9581  0.6280
  719MOL0     H97026   7.082   5.318   2.543 -0.8207 -0.0645  1.5659
  719MOL0     H97027   7.500   5.382   2.504 -0.8071 -2.4535 -0.3484
  719MOL0     H97028   7.727   5.480   2.542  1.0760 -2.2240 -4.4830
  719MOL0     H97029   8.078   5.428   2.752 -1.5203  2.0223  0.2096
  719MOL0     H97030   7.997   5.274   2.786  1.7208  0.1680  0.0495
  719MOL0     H97031   8.207   5.227   2.738 -1.5074  0.0303  1.8280
  719MOL0     H97032   8.129   5.177   2.588  1.1562  0.9638 -2.0564
  719MOL0     H97033   8.192   5.398   2.471  1.6957 -0.4493 -0.3598
  719MOL0     H97034   8.271   5.451   2.617  1.6065 -1.7814  2.4814
  719MOL0     H97035   8.361   5.193   2.479  1.1378 -0.2503  0.5736
  719MOL0     H97036   8.427   5.266   2.625 -0.0842 -0.3139  0.4378
  719MOL0     H97037   8.502   5.461   2.518  1.3853 -2.6016  1.3793
  719MOL0     H97038   8.451   5.413   2.348  4.2401 -0.9182 -0.6640
  719MOL0     H97039   8.662   5.310   2.538 -1.2223 -0.1450  0.8503
  719MOL0     H97040   8.593   5.214   2.404 -2.8276  1.5541 -1.7985
  719MOL0     H97041   8.629   5.470   2.284  0.6775 -0.2108 -1.5384
  719MOL0     H97042   8.688   5.313   2.236 -1.9350 -2.0327  0.9151
  719MOL0     H97043   8.838   5.503   2.428  1.6357  0.5244 -1.1325
  719MOL0     H97044   8.886   5.339   2.373  0.6887  0.9643  0.9911
  719MOL0     H97045   7.867   5.107   2.710 -1.3374  1.5753  5.9507
  719MOL0     H97046   7.660   5.015   2.689 -0.8332  1.0636  1.2238
  719MOL0     H97047   7.288   4.939   2.496 -0.5208 -0.2979  2.6091
  719MOL0     H97048   7.102   4.852   2.384  2.4883  0.3706 -3.2593
  719MOL0     H97049   5.352   4.595   2.261  3.3811 -0.2649  2.9693
  719MOL0     H97050   5.124   4.541   2.376 -0.2064  0.1661 -0.3309
  719MOL0     H97051   4.847   4.417   2.769 -1.5078  1.3315  0.4164
  719MOL0     H97052   4.642   4.359   2.840  0.3638 -1.2087  0.5981
  719MOL0     H97053   4.312   4.351   2.704  0.4936 -1.2681 -1.2217
  719MOL0     H97054   4.408   4.361   2.832 -1.9941  0.3148  0.1569
  719MOL0     H97055   4.240   4.264   2.950 -0.4065  0.5541 -0.1559
  719MOL0     H97056   4.333   4.121   2.924  0.2638  0.7955  0.7319
  719MOL0     H97057   4.092   4.090   2.872 -0.9785  0.2681 -1.0953
  719MOL0     H97058   4.206   4.028   2.756 -0.2997  0.4627 -1.3387
  719MOL0     H97059   4.049   4.291   2.735  0.9280  0.4875 -0.2976
  719MOL0     H97060   4.133   4.219   2.596 -2.1936 -1.0420 -0.9024
  719MOL0     H97061   3.756   4.041   2.648 -1.3765  2.4404 -0.3276
  719MOL0     H97062   4.553   4.139   2.482  1.1572 -2.4166  0.8644
  719MOL0     H97063   4.683   4.167   2.294  1.8136 -2.5596 -1.7937
  719MOL0     H97064   4.814   4.288   2.279 -0.0591 -1.6373 -2.3720
  719MOL0     H97065   4.839   4.117   2.339  0.5786 -1.0030 -0.4235
  720MOL0     O97066   8.073   0.565   4.967 -0.2888 -1.0495 -0.5200
  720MOL0     C97067   8.025   0.538   5.080  0.0387  0.4542 -0.1717
  720MOL0     O97068   8.106   0.533   5.190  0.2751  0.0337  0.1814
  720MOL0     C97069   8.238   0.544   5.192  0.6959 -0.3345  0.4464
  720MOL0     C97070   8.326   0.436   5.178 -0.0197  1.0219 -0.4926
  720MOL0     C97071   8.464   0.464   5.190 -0.6217 -0.0216  0.0882
  720MOL0     C97072   8.511   0.600   5.202 -0.5087  0.3466 -0.4774
  720MOL0     O97073   8.650   0.629   5.222  0.3075 -0.2698  0.3956
  720MOL0     C97074   8.756   0.530   5.223  0.0702 -0.3229  0.4553
  720MOL0     C97075   8.892   0.614   5.215 -0.0687 -0.2354 -0.4809
  720MOL0     C97076   8.993   0.541   5.310 -0.4339 -0.5442 -0.3118
  720MOL0     C97077   9.133   0.606   5.287 -0.5458  0.5740 -0.1632
  720MOL0     C97078   9.250   0.534   5.354 -0.5877 -0.0885  0.0649
  720MOL0     C97079   9.378   0.618   5.337  0.2784 -0.2302  0.8343
  720MOL0     C97080   9.494   0.536   5.406 -0.3306 -0.0497  0.1568
  720MOL0     C97081   9.632   0.598   5.399  0.1654  0.1902 -0.2012
  720MOL0     N97082   9.680   0.653   5.271 -0.2272  0.4838  0.7087
  720MOL0     C97083   9.704   0.786   5.243  0.1721 -0.2929 -0.1133
  720MOL0     C97084   9.774   0.779   5.131 -0.5326 -0.7970 -0.4334
  720MOL0     C97085   9.818   0.910   5.060 -0.5909 -0.0549  0.4735
  720MOL0     C97086   9.938   0.979   5.139  0.6439  0.2071  0.0746
  720MOL0     C97087   9.998   1.097   5.062  0.1840  0.6277 -0.7124
  720MOL0     C97088  10.126   1.157   5.133  0.5061  0.6971  0.2358
  720MOL0     O97089  10.225   1.054   5.175 -0.0183  1.1132 -0.0645
  720MOL0     C97090  10.356   1.098   5.200  0.3009 -0.4556  0.3108
  720MOL0     C97091  10.379   1.233   5.233  0.1476  0.1722 -0.8174
  720MOL0     C97092  10.510   1.270   5.267  0.2669 -0.9316  0.6703
  720MOL0     C97093  10.612   1.181   5.283 -0.4702 -0.1371  0.9633
  720MOL0     C97094  10.747   1.230   5.332 -0.7306 -0.4063 -0.8566
  720MOL0     O97095  10.788   1.354   5.304 -0.6019 -0.8653  0.1380
  720MOL0     C97096  10.912   1.381   5.352  0.4804 -1.3076  0.0829
  720MOL0     C97097  10.907   1.493   5.441  0.1093 -0.6290 -0.0619
  720MOL0     C97098  11.028   1.530   5.495 -0.4004 -0.7571  0.5678
  720MOL0     C97099  11.156   1.482   5.454  0.0886 -0.3191  0.9557
  720MOL0     O97100  11.281   1.532   5.497  0.2319  0.6136 -0.4349
  720MOL0     C97101  11.281   1.670   5.511 -0.7431 -0.9431  0.1544
  720MOL0     C97102  11.410   1.722   5.576 -0.2887  0.1584  0.1498
  720MOL0     C97103  11.530   1.743   5.480 -0.0431 -0.4166 -0.4309
  720MOL0     C97104  11.638   1.836   5.511  0.2253 -0.0683  0.2690
  720MOL0     C97105  11.756   1.815   5.430  0.4937 -0.7648 -0.3634
  720MOL0     C97106  11.846   1.934   5.442  0.0521  0.2341 -0.1691
  720MOL0     C97107  11.940   1.943   5.324 -1.4020  0.0533  0.8053
  720MOL0     C97108  12.068   2.002   5.357  0.2075  0.1267 -0.0966
  720MOL0    Cl97109  12.190   1.996   5.236 -0.0095  0.2437  0.0351
  720MOL0     C97110  11.155   1.379   5.359  0.6820  0.0331  0.9432
  720MOL0     C97111  11.034   1.331   5.314  0.3741 -0.2776  0.3151
  720MOL0     O97112  10.798   1.146   5.403 -0.2677  0.2951 -0.0343
  720MOL0     C97113  10.595   1.042   5.262  0.2830 -0.9581  1.0798
  720MOL0     C97114  10.465   1.004   5.215  0.5155  0.2013 -1.0320
  720MOL0     N97115   9.806   0.653   5.094 -0.0811  0.4790  0.7264
  720MOL0     N97116   9.744   0.576   5.183 -0.4542  0.8739 -0.7563
  720MOL0     C97117   8.424   0.704   5.205 -1.2178  0.1517 -0.3827
  720MOL0     C97118   8.292   0.673   5.189 -0.6597 -0.1898  0.4923
  720MOL0     C97119   7.879   0.511   5.090 -0.4384 -0.4519  0.7414
  720MOL0     C97120   7.839   0.462   5.214  0.6108 -0.4453 -0.7368
  720MOL0     C97121   7.702   0.447   5.240 -1.0014  0.1737  0.2073
  720MOL0     C97122   7.605   0.467   5.153  0.6915 -0.3898  0.0008
  720MOL0     O97123   7.475   0.442   5.190 -0.4524  0.0440  0.6122
  720MOL0     C97124   7.372   0.435   5.091 -0.2178  0.3382  0.7480
  720MOL0     C97125   7.233   0.437   5.151 -0.3769 -0.0362  0.1415
  720MOL0     C97126   7.117   0.428   5.054 -0.1710  0.3730 -0.5983
  720MOL0     C97127   6.990   0.474   5.126  0.5209  0.4270  1.0200
  720MOL0     C97128   6.877   0.489   5.034 -0.4531 -0.0413 -0.6630
  720MOL0     C97129   6.779   0.516   4.970  0.6173  0.1192 -0.1028
  720MOL0     C97130   7.642   0.514   5.024  0.3416  0.7288 -0.8339
  720MOL0     C97131   7.779   0.529   4.982 -0.6797 -0.0166 -0.3225
  720MOL0     C97132   7.818   0.578   4.841 -0.6806  0.5891 -0.7256
  720MOL0     H97133   8.274   0.342   5.169 -1.8510  2.0086 -0.5707
  720MOL0     H97134   8.530   0.379   5.177 -0.3645  0.5530 -3.2416
  720MOL0     H97135   8.750   0.467   5.313 -0.5629  0.5526  1.0476
  720MOL0     H97136   8.750   0.463   5.138  0.4968 -0.5071  0.5656
  720MOL0     H97137   8.883   0.715   5.254  2.3734 -0.2012  0.1503
  720MOL0     H97138   8.941   0.627   5.118  1.4742  0.6543  0.3718
  720MOL0     H97139   8.991   0.435   5.283 -0.2937 -1.3336  2.4452
  720MOL0     H97140   8.966   0.539   5.416  1.2174 -0.6618  0.1230
  720MOL0     H97141   9.157   0.601   5.181  4.7565  2.0901  0.6561
  720MOL0     H97142   9.133   0.712   5.315  0.1595  1.4628 -3.2211
  720MOL0     H97143   9.226   0.516   5.460 -2.3078  4.5879  0.7101
  720MOL0     H97144   9.262   0.435   5.308  0.5784 -0.0028  0.1652
  720MOL0     H97145   9.407   0.632   5.233  0.9942 -0.2396  1.0302
  720MOL0     H97146   9.372   0.713   5.391  1.6830  0.4905 -0.2255
  720MOL0     H97147   9.507   0.436   5.364  1.5950 -0.7425  2.1865
  720MOL0     H97148   9.470   0.525   5.512  0.2540 -2.4369  0.1066
  720MOL0     H97149   9.641   0.672   5.478  2.4655  0.1262 -0.3466
  720MOL0     H97150   9.705   0.525   5.434 -1.6760 -1.5525  0.2258
  720MOL0     H97151   9.669   0.875   5.293 -1.2504 -0.8517 -0.0841
  720MOL0     H97152   9.855   0.883   4.961  0.0834 -1.3829  1.0624
  720MOL0     H97153   9.727   0.971   5.050 -1.9560 -1.9372  0.8115
  720MOL0     H97154   9.897   1.004   5.237  1.6672 -2.7571  1.3722
  720MOL0     H97155  10.023   0.914   5.161  1.8389  1.5363 -0.4506
  720MOL0     H97156   9.921   1.174   5.054  0.6579  1.2828  0.6997
  720MOL0     H97157  10.028   1.065   4.962  0.2267  2.0101 -1.1707
  720MOL0     H97158  10.102   1.211   5.225 -1.2517  2.9890 -1.4319
  720MOL0     H97159  10.162   1.229   5.059 -0.6024  1.4248  0.3831
  720MOL0     H97160  10.305   1.312   5.229  0.6857  0.6428 -2.3175
  720MOL0     H97161  10.530   1.373   5.294  2.4488 -1.0978 -0.1022
  720MOL0     H97162  10.810   1.533   5.469  0.1132  0.7574 -1.8673
  720MOL0     H97163  11.023   1.602   5.576 -1.2601 -0.5296  0.3238
  720MOL0     H97164  11.285   1.711   5.410  1.8534  0.5459  0.7775
  720MOL0     H97165  11.195   1.712   5.565 -0.3329 -0.8943  0.7786
  720MOL0     H97166  11.388   1.825   5.608  0.7024 -0.0214  1.4718
  720MOL0     H97167  11.441   1.672   5.668 -2.3709  0.3407  1.0218
  720MOL0     H97168  11.584   1.649   5.490  0.4524  0.1185  2.8593
  720MOL0     H97169  11.500   1.749   5.374  0.0943 -1.9605 -0.5887
  720MOL0     H97170  11.667   1.828   5.616  0.2925 -0.4570  0.2244
  720MOL0     H97171  11.599   1.937   5.498 -1.6613 -0.6641  0.9094
  720MOL0     H97172  11.728   1.816   5.324 -0.3269  1.0487 -0.1596
  720MOL0     H97173  11.809   1.721   5.450 -1.7863 -1.7895  1.1966
  720MOL0     H97174  11.787   2.025   5.451  1.5263  1.1334  0.7948
  720MOL0     H97175  11.904   1.939   5.534  0.7216 -3.0536 -0.2775
  720MOL0     H97176  11.891   1.996   5.243  1.2488 -1.3351 -1.9154
  720MOL0     H97177  11.955   1.843   5.281 -0.6995  0.3504  0.3417
  720MOL0     H97178  12.039   2.107   5.364  0.4524  0.1540  0.6346
  720MOL0     H97179  12.104   1.959   5.451 -0.7638 -0.3353  0.0781
  720MOL0     H97180  11.244   1.334   5.315 -0.6517 -1.7525 -0.0825
  720MOL0     H97181  11.042   1.246   5.248 -2.9121 -2.9205  2.9568
  720MOL0     H97182  10.666   0.963   5.282  1.4975 -0.3320 -0.5197
  720MOL0     H97183  10.438   0.902   5.189  1.2709 -0.4172  0.5023
  720MOL0     H97184   8.473   0.799   5.222 -2.6572  0.6319  1.2959
  720MOL0     H97185   8.223   0.757   5.186 -0.2277  0.1553  0.0345
  720MOL0     H97186   7.908   0.472   5.296 -2.6474  2.1504  1.9764
  720MOL0     H97187   7.663   0.441   5.341  2.0326  0.7732  1.4916
  720MOL0     H97188   7.388   0.346   5.030 -0.4930  0.4551  0.5052
  720MOL0     H97189   7.378   0.517   5.019  1.3039 -1.4721 -1.3294
  720MOL0     H97190   7.234   0.540   5.186 -2.4871  2.3431 -5.5759
  720MOL0     H97191   7.223   0.358   5.226 -1.9031  0.4085  0.4339
  720MOL0     H97192   7.114   0.325   5.018  1.9777 -0.0187  0.1433
  720MOL0     H97193   7.122   0.491   4.965  0.7593 -0.3407 -1.0722
  720MOL0     H97194   6.954   0.399   5.197  1.4018  0.2250  1.2636
  720MOL0     H97195   6.998   0.573   5.172 -1.2458  2.4739 -2.6109
  720MOL0     H97196   6.699   0.548   4.907  0.1564 -0.6088  0.0996
  720MOL0     H97197   7.564   0.540   4.953 -2.1346  0.5623  1.6411
  720MOL0     H97198   7.734   0.569   4.772  0.2956 -0.9276 -1.7766
  720MOL0     H97199   7.858   0.679   4.848 -0.8119  0.5202  1.7072
  720MOL0     H97200   7.896   0.515   4.797  0.6596  2.3551 -0.9631
  721MOL0     O97201   6.152  10.217   9.971  0.3863 -0.4155 -0.3736
  721MOL0     C97202   6.115  10.109  10.033  0.5020 -0.2371  0.6229
  721MOL0     O97203   5.986  10.067  10.038 -0.3701 -0.2716 -0.0729
  721MOL0     C97204   5.888  10.151   9.990 -0.9060  0.2318  0.2144
  721MOL0     C97205   5.866  10.185   9.850  0.1265 -0.1219  0.1470
  721MOL0     C97206   5.775  10.281   9.809 -0.1378  0.6006  0.2797
  721MOL0     C97207   5.690  10.343   9.907 -0.3828 -0.2288  0.6483
  721MOL0     O97208   5.610  10.443   9.858  0.6572  0.3141 -0.0370
  721MOL0     C97209   5.619  10.566   9.934  0.6533 -0.2836 -0.0399
  721MOL0     C97210   5.649  10.687   9.843 -0.1061 -0.9911  0.8036
  721MOL0     C97211   5.564  10.691   9.719 -0.6027  0.5089  1.0513
  721MOL0     C97212   5.579  10.832   9.655  0.2017 -0.2196 -0.6737
  721MOL0     C97213   5.502  10.930   9.740 -0.5607 -0.2199 -0.6735
  721MOL0     C97214   5.360  10.950   9.685 -0.8912  0.2880 -1.2540
  721MOL0     C97215   5.293  11.067   9.766  0.0759  0.4713 -0.0456
  721MOL0     C97216   5.156  11.096   9.730  0.1835 -0.3677 -0.7608
  721MOL0     N97217   5.129  11.138   9.597 -0.7013 -0.1193  0.2061
  721MOL0     C97218   5.103  11.057   9.484 -1.0845  0.2634 -0.0611
  721MOL0     C97219   5.095  11.146   9.390  0.5411 -0.7451  0.0965
  721MOL0     C97220   5.059  11.119   9.246  0.2926  0.1223  0.3411
  721MOL0     C97221   5.184  11.103   9.147  0.3973  0.4228  0.3032
  721MOL0     C97222   5.154  11.134   9.002  0.5906  0.3329  0.0840
  721MOL0     C97223   5.275  11.109   8.912 -0.6351 -0.0693  0.8712
  721MOL0     O97224   5.347  11.232   8.898 -0.1239 -0.6073 -0.1984
  721MOL0     C97225   5.464  11.208   8.837  0.7126 -0.3472 -0.1735
  721MOL0     C97226   5.567  11.142   8.900 -0.9624 -0.7855  0.3842
  721MOL0     C97227   5.680  11.117   8.827 -0.6613  0.3010  0.2198
  721MOL0     C97228   5.700  11.160   8.698  0.1847  0.2595  0.1502
  721MOL0     C97229   5.828  11.127   8.620  0.2293  0.4685  0.1379
  721MOL0     O97230   5.936  11.069   8.676 -0.6373 -0.1071 -0.1043
  721MOL0     C97231   6.057  11.090   8.611  0.6058 -0.5234  0.2418
  721MOL0     C97232   6.100  11.216   8.577 -0.7320 -0.6004  0.4173
  721MOL0     C97233   6.230  11.237   8.517 -0.0225  0.5127  0.3056
  721MOL0     C97234   6.319  11.126   8.509 -0.1410 -0.2317  0.9003
  721MOL0     O97235   6.453  11.135   8.475  0.3147 -0.3729  0.7017
  721MOL0     C97236   6.497  11.221   8.365  0.5055 -0.2857  0.3483
  721MOL0     C97237   6.643  11.202   8.339  0.0176  0.2638 -0.5768
  721MOL0     C97238   6.677  11.265   8.207  0.5692 -0.0278 -0.1348
  721MOL0     C97239   6.820  11.224   8.156  0.6045  0.0262 -0.4550
  721MOL0     C97240   6.935  11.311   8.190 -0.2336 -0.1585 -0.4749
  721MOL0     C97241   7.073  11.248   8.162  0.3399 -0.6443 -0.0524
  721MOL0     C97242   7.086  11.193   8.021 -0.7791 -0.7021 -0.2294
  721MOL0     C97243   7.231  11.196   7.966  0.2359  0.8430  0.3868
  721MOL0    Cl97244   7.319  11.346   7.977  0.1718 -0.1866 -0.5710
  721MOL0     C97245   6.268  10.999   8.539  0.3254  0.2259 -0.5919
  721MOL0     C97246   6.136  10.980   8.593  0.1104 -0.0102  0.9071
  721MOL0     O97247   5.811  11.140   8.498 -0.0665 -0.2462 -0.1407
  721MOL0     C97248   5.592  11.223   8.633 -0.3760  0.0205  0.5372
  721MOL0     C97249   5.475  11.254   8.707 -0.6433 -0.7924  0.4245
  721MOL0     N97250   5.125  11.270   9.439 -0.0831  0.0145  0.4562
  721MOL0     N97251   5.136  11.264   9.563  0.3997 -0.5495 -0.0787
  721MOL0     C97252   5.708  10.310  10.043 -0.0197 -0.1510  0.2526
  721MOL0     C97253   5.801  10.214  10.073 -0.9030 -0.4561  0.0921
  721MOL0     C97254   6.224  10.013  10.077  0.0799 -0.0355 -0.9214
  721MOL0     C97255   6.191   9.873  10.057  0.0910 -0.6162 -0.3323
  721MOL0     C97256   6.285   9.779  10.085 -0.3992 -0.2397  0.8956
  721MOL0     C97257   6.416   9.822  10.121 -0.6356 -1.1515 -0.1568
  721MOL0     O97258   6.522   9.736  10.134  0.1193 -0.7867  0.1843
  721MOL0     C97259   6.506   9.598  10.101  0.3752 -0.0479 -0.3641
  721MOL0     C97260   6.647   9.536  10.107 -0.0588  0.4345 -0.1664
  721MOL0     C97261   6.733   9.580   9.987  0.6198 -0.3154  0.0699
  721MOL0     C97262   6.855   9.495   9.956  0.1200  0.5668  0.5380
  721MOL0     C97263   6.948   9.575   9.865 -0.4013  0.5478  0.6101
  721MOL0     C97264   7.025   9.629   9.787 -0.0034  0.5779  0.8550
  721MOL0     C97265   6.443   9.959  10.140  0.4905  0.4485  0.2851
  721MOL0     C97266   6.347  10.054  10.126 -0.7347  0.1520  0.1181
  721MOL0     C97267   6.384  10.199  10.150  0.3104 -0.0525 -0.8528
  721MOL0     H97268   5.937  10.145   9.778  2.5713 -1.9540  3.3041
  721MOL0     H97269   5.773  10.301   9.703  1.8684 -0.0661  0.0692
  721MOL0     H97270   5.524  10.584   9.985  0.8358  0.9429 -0.1065
  721MOL0     H97271   5.693  10.566  10.015  1.4983 -3.7911 -0.6827
  721MOL0     H97272   5.753  10.678   9.811 -0.9510 -0.4167 -2.4284
  721MOL0     H97273   5.640  10.781   9.898  0.5128  0.4516 -1.4353
  721MOL0     H97274   5.456  10.673   9.727 -1.3929  4.3113  1.1194
  721MOL0     H97275   5.605  10.621   9.646 -0.1614 -0.4344  2.1837
  721MOL0     H97276   5.685  10.856   9.649  0.5523 -1.1705  0.9490
  721MOL0     H97277   5.536  10.825   9.555 -0.4337  3.7057 -0.8126
  721MOL0     H97278   5.499  10.909   9.847  0.8464  1.7738 -0.1874
  721MOL0     H97279   5.552  11.027   9.738 -2.9173  1.2902  3.0974
  721MOL0     H97280   5.358  10.977   9.579  4.1199  0.9107 -1.4463
  721MOL0     H97281   5.305  10.858   9.704  0.8701 -0.5120  0.3407
  721MOL0     H97282   5.356  11.156   9.750  0.7257  0.4047  1.8913
  721MOL0     H97283   5.289  11.045   9.873 -2.6778  1.4928  0.1335
  721MOL0     H97284   5.105  11.001   9.747 -3.3194  1.3861 -0.5623
  721MOL0     H97285   5.111  11.175   9.792  1.5138 -0.6284  0.6115
  721MOL0     H97286   5.092  10.949   9.478 -3.4546  0.4097  0.4260
  721MOL0     H97287   4.988  11.037   9.237 -0.1711  0.5748 -0.2103
  721MOL0     H97288   4.995  11.203   9.218 -1.0958 -1.3638 -1.0802
  721MOL0     H97289   5.256  11.181   9.174  2.4731 -0.7362 -1.5135
  721MOL0     H97290   5.224  11.001   9.155 -0.6282  0.0129  0.3801
  721MOL0     H97291   5.114  11.231   8.969 -0.4223 -0.6191 -1.6852
  721MOL0     H97292   5.069  11.071   8.973  0.6462  0.6472 -0.8150
  721MOL0     H97293   5.251  11.077   8.810  3.0442  0.7140 -0.4084
  721MOL0     H97294   5.340  11.033   8.957 -0.6949 -0.2663  0.6243
  721MOL0     H97295   5.559  11.118   9.005  0.0238 -2.0497  0.1989
  721MOL0     H97296   5.763  11.068   8.876 -0.7109 -1.0324 -0.9357
  721MOL0     H97297   6.035  11.300   8.598  0.2613  0.4712 -0.6772
  721MOL0     H97298   6.254  11.340   8.495  1.6590  0.6575  2.4640
  721MOL0     H97299   6.441  11.199   8.274  2.1532 -0.0953 -0.7561
  721MOL0     H97300   6.483  11.326   8.390 -1.1361 -0.5169  0.5062
  721MOL0     H97301   6.696  11.264   8.411  0.4860  0.1671 -0.8345
  721MOL0     H97302   6.675  11.099   8.357  0.8912  0.4740 -0.8422
  721MOL0     H97303   6.606  11.220   8.137  0.5917  0.9908 -0.8348
  721MOL0     H97304   6.663  11.373   8.207 -1.3613 -0.1887 -2.5877
  721MOL0     H97305   6.810  11.225   8.047 -0.7254  4.5297 -0.4893
  721MOL0     H97306   6.840  11.121   8.186 -0.7360  0.1807  1.0917
  721MOL0     H97307   6.932  11.344   8.294  1.0518  1.0946 -0.8015
  721MOL0     H97308   6.918  11.409   8.144  0.5427  0.1451 -0.1431
  721MOL0     H97309   7.145  11.330   8.176  0.2182 -0.2324 -1.6330
  721MOL0     H97310   7.090  11.164   8.230  0.7673 -1.0019 -0.5939
  721MOL0     H97311   7.036  11.258   7.947  0.8098 -0.5827 -1.2431
  721MOL0     H97312   7.035  11.097   8.010 -0.6949 -0.7413 -0.2797
  721MOL0     H97313   7.291  11.116   8.011 -0.4189  0.5382  0.7274
  721MOL0     H97314   7.211  11.193   7.859 -3.9943 -0.1467  1.0339
  721MOL0     H97315   6.339  10.920   8.518  0.2736  0.1835 -0.6105
  721MOL0     H97316   6.093  10.881   8.601 -0.7737  0.4481  2.2099
  721MOL0     H97317   5.608  11.249   8.529  1.1097 -0.8878  0.5131
  721MOL0     H97318   5.394  11.300   8.652  1.1296  1.1849 -0.6539
  721MOL0     H97319   5.650  10.356  10.122 -1.3328 -2.5180  0.7598
  721MOL0     H97320   5.801  10.193  10.179  0.9033  2.1108  0.6729
  721MOL0     H97321   6.095   9.838  10.020 -0.4780  1.7188 -1.2632
  721MOL0     H97322   6.266   9.673  10.068  1.6054 -0.5118  0.0424
  721MOL0     H97323   6.468   9.576  10.001  2.4018  2.3623 -1.7836
  721MOL0     H97324   6.438   9.553  10.175 -2.2144  0.7721 -2.1275
  721MOL0     H97325   6.643   9.427  10.092 -2.3469  0.7994 -2.9950
  721MOL0     H97326   6.704   9.547  10.199 -1.4335 -0.3090  0.8270
  721MOL0     H97327   6.757   9.686  10.003 -1.1422 -0.0254  1.0301
  721MOL0     H97328   6.671   9.572   9.898  3.3442  2.1717 -2.2842
  721MOL0     H97329   6.906   9.468  10.049 -2.1223 -0.8899  1.4280
  721MOL0     H97330   6.820   9.406   9.903  1.7450 -1.3248  2.4626
  721MOL0     H97331   7.099   9.670   9.721 -2.0261  0.4514 -1.6781
  721MOL0     H97332   6.542   9.983  10.176  0.2652  0.3481  0.9775
  721MOL0     H97333   6.373  10.261  10.061  0.6567  2.1061  0.5462
  721MOL0     H97334   6.326  10.244  10.232  1.9667  1.5559 -0.5187
  721MOL0     H97335   6.487  10.195  10.188 -0.7369 -1.3784  2.2372
  722MOL0     O97336   2.670   3.132   5.063 -0.6334 -0.0709 -0.6079
  722MOL0     C97337   2.690   3.131   5.186  0.1267  0.0236  0.1681
  722MOL0     O97338   2.811   3.117   5.245  0.4146 -0.1868 -0.2780
  722MOL0     C97339   2.925   3.087   5.177  0.3831 -0.2840  0.5513
  722MOL0     C97340   3.038   3.120   5.250  0.0688  0.0581  0.2447
  722MOL0     C97341   3.176   3.096   5.200 -0.0318 -0.6195  0.0546
  722MOL0     C97342   3.180   3.028   5.077  0.5339 -0.0311 -0.3130
  722MOL0     O97343   3.302   3.000   5.027 -0.1360 -0.0542  0.4079
  722MOL0     C97344   3.385   2.910   5.100  0.7281  0.6429 -0.1049
  722MOL0     C97345   3.505   2.859   5.016 -0.1891 -0.0305 -0.0708
  722MOL0     C97346   3.554   2.724   5.065 -1.1564 -0.3545  0.3527
  722MOL0     C97347   3.684   2.676   5.001 -0.3782 -0.9189  0.0811
  722MOL0     C97348   3.798   2.733   5.083  0.0642  0.7550  0.4064
  722MOL0     C97349   3.931   2.692   5.047 -0.4345  0.5785  1.0355
  722MOL0     C97350   4.029   2.764   5.149  1.0560 -0.2338 -0.1082
  722MOL0     C97351   4.172   2.773   5.092  0.1621 -0.2698 -0.5773
  722MOL0     N97352   4.198   2.880   5.001 -0.5746 -0.1176 -0.0217
  722MOL0     C97353   4.206   2.859   4.869 -1.0767  0.4689 -0.2041
  722MOL0     C97354   4.238   2.981   4.816  0.0265 -0.2944  0.1311
  722MOL0     C97355   4.240   3.029   4.676  0.0566 -0.3627 -0.6803
  722MOL0     C97356   4.380   3.014   4.610 -0.2561  0.1152 -0.0701
  722MOL0     C97357   4.468   3.104   4.694 -0.1933 -0.0368  0.4344
  722MOL0     C97358   4.542   3.206   4.598  0.7558  0.1767  0.6230
  722MOL0     O97359   4.610   3.307   4.678 -0.2155 -1.3134 -0.9150
  722MOL0     C97360   4.707   3.381   4.618  1.0165 -0.2226 -0.5440
  722MOL0     C97361   4.694   3.430   4.486  0.1425 -0.6949 -0.7275
  722MOL0     C97362   4.791   3.515   4.435 -0.0734  0.5204  0.4598
  722MOL0     C97363   4.910   3.530   4.505  0.1783 -0.6094  0.6574
  722MOL0     C97364   5.034   3.591   4.446  0.4691 -0.2626 -0.0018
  722MOL0     O97365   5.134   3.622   4.529  0.1404  1.0618 -0.7402
  722MOL0     C97366   5.255   3.649   4.476  0.9833  0.5428  0.4913
  722MOL0     C97367   5.306   3.774   4.509 -0.8305 -0.4950  0.2688
  722MOL0     C97368   5.428   3.811   4.452 -0.0571  0.5143 -0.0560
  722MOL0     C97369   5.498   3.727   4.362  0.4490  0.4563 -0.7913
  722MOL0     O97370   5.622   3.757   4.307 -0.5501  0.4509 -1.0024
  722MOL0     C97371   5.640   3.891   4.267  0.3158 -0.1222  0.1652
  722MOL0     C97372   5.780   3.915   4.201 -0.1349 -0.5658 -0.9151
  722MOL0     C97373   5.892   3.869   4.293 -0.2093  1.1122 -0.6513
  722MOL0     C97374   6.035   3.891   4.233  0.4488  0.0413 -0.0264
  722MOL0     C97375   6.136   3.829   4.340 -0.3246 -0.8198  0.3171
  722MOL0     C97376   6.281   3.878   4.330  0.1037 -0.0440  0.0158
  722MOL0     C97377   6.339   3.867   4.195  0.4013 -0.3961 -0.5137
  722MOL0     C97378   6.439   3.985   4.169  0.3910  0.7896 -0.4802
  722MOL0    Cl97379   6.553   3.918   4.032  0.2529  0.1293 -0.0073
  722MOL0     C97380   5.448   3.592   4.353  0.4303  0.2441 -0.1618
  722MOL0     C97381   5.328   3.555   4.408 -0.8324  1.1785 -0.0725
  722MOL0     O97382   5.032   3.615   4.326 -0.4251  0.4096  0.0031
  722MOL0     C97383   4.919   3.473   4.637  0.1165 -0.1233  0.6954
  722MOL0     C97384   4.815   3.407   4.692 -0.2324  0.4299 -0.3221
  722MOL0     N97385   4.239   3.076   4.919 -0.6013 -0.1073 -0.1497
  722MOL0     N97386   4.214   3.018   5.031 -0.3306 -0.4723 -0.0167
  722MOL0     C97387   3.064   3.001   5.000  0.5854  0.8477 -0.9160
  722MOL0     C97388   2.943   3.027   5.049 -0.1559  0.3205 -0.0121
  722MOL0     C97389   2.573   3.159   5.270 -0.7389  0.4739 -1.0887
  722MOL0     C97390   2.475   3.226   5.205 -0.1200  0.6738 -0.3413
  722MOL0     C97391   2.350   3.241   5.266 -0.1171  1.2019  0.1762
  722MOL0     C97392   2.320   3.200   5.393  0.1385 -0.0082 -0.7293
  722MOL0     O97393   2.198   3.219   5.445 -0.0838 -0.6073 -0.1353
  722MOL0     C97394   2.182   3.203   5.586 -1.1380 -0.1466  0.0599
  722MOL0     C97395   2.059   3.269   5.646 -0.0014  0.8564 -0.8483
  722MOL0     C97396   1.938   3.174   5.623 -0.5496  0.1141  0.0685
  722MOL0     C97397   1.818   3.244   5.673  0.2025  1.2413  0.3464
  722MOL0     C97398   1.694   3.196   5.608  0.1389  0.6461 -0.3965
  722MOL0     C97399   1.600   3.140   5.557 -0.0632 -0.3518  0.5644
  722MOL0     C97400   2.424   3.127   5.456  0.2802 -0.8194  0.1484
  722MOL0     C97401   2.544   3.108   5.399 -0.0795 -0.3291 -0.0755
  722MOL0     C97402   2.635   3.021   5.483  0.1199  0.4840 -0.5095
  722MOL0     H97403   3.033   3.183   5.338 -0.6570  0.2514  0.0678
  722MOL0     H97404   3.266   3.123   5.255  1.3401  1.7339 -3.0381
  722MOL0     H97405   3.432   2.960   5.185  2.0269 -0.7088  0.0163
  722MOL0     H97406   3.331   2.831   5.152  1.0785  0.2979 -0.2617
  722MOL0     H97407   3.582   2.936   5.025 -1.2146  1.0072  0.1204
  722MOL0     H97408   3.476   2.859   4.910  1.2035  0.4821 -0.4625
  722MOL0     H97409   3.485   2.643   5.039  1.3309 -1.6223 -3.0184
  722MOL0     H97410   3.547   2.709   5.173 -1.6077 -0.3323  0.3308
  722MOL0     H97411   3.688   2.568   5.017 -2.2318 -0.9523  0.5755
  722MOL0     H97412   3.699   2.703   4.896 -1.6314 -2.1328 -0.4456
  722MOL0     H97413   3.788   2.841   5.071 -0.6245  0.5369 -1.0974
  722MOL0     H97414   3.781   2.713   5.190  1.8478  1.4705  0.8645
  722MOL0     H97415   3.935   2.583   5.049 -1.4257  0.4563 -1.2186
  722MOL0     H97416   3.965   2.710   4.945 -2.4761 -1.3790 -0.0767
  722MOL0     H97417   4.031   2.703   5.239 -2.2367 -2.9957 -1.6623
  722MOL0     H97418   3.979   2.857   5.177 -1.5534 -2.5324  3.7512
  722MOL0     H97419   4.250   2.779   5.168  1.8187 -2.7214 -1.9441
  722MOL0     H97420   4.211   2.688   5.035  0.4589 -1.3615  1.1665
  722MOL0     H97421   4.190   2.759   4.830  0.4162  0.3376 -0.5433
  722MOL0     H97422   4.159   2.975   4.625  0.4599 -0.5645 -1.1138
  722MOL0     H97423   4.214   3.133   4.656 -1.0535 -0.8157 -1.7522
  722MOL0     H97424   4.404   2.907   4.612  1.1881  0.2864 -3.0791
  722MOL0     H97425   4.379   3.035   4.503  0.6549 -1.1512 -0.3394
  722MOL0     H97426   4.546   3.039   4.735 -0.9512 -0.7714  0.7621
  722MOL0     H97427   4.416   3.149   4.779 -0.8463 -3.3893  1.9976
  722MOL0     H97428   4.472   3.261   4.534  0.5205  1.1011  1.6459
  722MOL0     H97429   4.608   3.149   4.532 -0.6236  0.1867 -0.8327
  722MOL0     H97430   4.600   3.408   4.437  0.4197  2.3835 -2.9402
  722MOL0     H97431   4.783   3.568   4.340  1.0392 -1.9578 -1.1252
  722MOL0     H97432   5.252   3.832   4.584  0.3918 -1.9567  2.4111
  722MOL0     H97433   5.478   3.893   4.502  2.5492 -0.8005 -0.3146
  722MOL0     H97434   5.563   3.902   4.190 -1.2244  1.9930  1.8845
  722MOL0     H97435   5.624   3.963   4.348 -1.6868 -0.1565 -0.1559
  722MOL0     H97436   5.793   3.861   4.107 -1.2149 -2.5330  0.0063
  722MOL0     H97437   5.793   4.023   4.190 -2.1512 -0.2232 -0.2552
  722MOL0     H97438   5.896   3.922   4.388  1.7373 -1.9939  1.1517
  722MOL0     H97439   5.889   3.764   4.320  1.3956  1.5550  1.4925
  722MOL0     H97440   6.055   3.998   4.224 -0.5765  0.1001 -2.0999
  722MOL0     H97441   6.048   3.847   4.133 -0.2374 -0.0267 -0.0908
  722MOL0     H97442   6.139   3.721   4.326 -0.1669 -0.8981  0.9329
  722MOL0     H97443   6.105   3.846   4.444  3.0453  0.7073  1.2113
  722MOL0     H97444   6.277   3.984   4.356  0.9610 -0.6525  2.9639
  722MOL0     H97445   6.340   3.831   4.409  0.0746  0.2708  0.2270
  722MOL0     H97446   6.265   3.866   4.115 -0.2391 -2.1350  0.0374
  722MOL0     H97447   6.407   3.781   4.189 -0.1904 -0.8854 -0.3036
  722MOL0     H97448   6.381   4.073   4.141 -0.1490  0.6282  0.1154
  722MOL0     H97449   6.493   4.015   4.259 -2.8959  0.3664  1.7970
  722MOL0     H97450   5.501   3.512   4.302  0.0914  0.2787 -0.5701
  722MOL0     H97451   5.291   3.453   4.404  3.1280 -0.4286 -1.9579
  722MOL0     H97452   5.009   3.489   4.696  0.5652 -0.4626  0.1108
  722MOL0     H97453   4.819   3.382   4.798  0.0895 -1.7848 -0.8046
  722MOL0     H97454   3.078   2.952   4.904 -0.6630 -1.0118 -0.2005
  722MOL0     H97455   2.854   2.999   4.993 -2.0220 -2.4590  3.8626
  722MOL0     H97456   2.478   3.251   5.099  3.8118 -0.8931 -0.7963
  722MOL0     H97457   2.278   3.297   5.208  0.0473  2.3681  1.0491
  722MOL0     H97458   2.264   3.256   5.635 -1.5046  2.5035 -1.9662
  722MOL0     H97459   2.195   3.097   5.613 -0.0559 -0.1545 -0.4279
  722MOL0     H97460   2.042   3.367   5.602 -2.0109  1.5934  1.2980
  722MOL0     H97461   2.080   3.291   5.751 -0.2352  0.8287 -0.7944
  722MOL0     H97462   1.958   3.081   5.679 -1.3971  0.7441  1.4770
  722MOL0     H97463   1.933   3.148   5.517  2.4896  1.3786 -0.4698
  722MOL0     H97464   1.806   3.219   5.779 -3.1301  0.3823 -0.1176
  722MOL0     H97465   1.824   3.353   5.668  0.9013  1.2561  1.1904
  722MOL0     H97466   1.507   3.118   5.508  0.6769 -0.3569 -0.9071
  722MOL0     H97467   2.405   3.083   5.554  0.7051  0.6320  0.9178
  722MOL0     H97468   2.576   2.941   5.528  2.1620 -0.7985  0.0506
  722MOL0     H97469   2.709   2.968   5.422 -2.5744 -1.8624 -1.9736
  722MOL0     H97470   2.681   3.083   5.561  1.7614  1.1154 -1.9033
  723MOL0     O97471   5.940  10.402   5.872  0.4532 -0.4256  0.2729
  723MOL0     C97472   5.874  10.441   5.966 -0.3787 -0.8999  0.9853
  723MOL0     O97473   5.920  10.517   6.069  0.3196 -0.6385  0.0382
  723MOL0     C97474   6.061  10.540   6.083  0.2311  0.0301  0.8366
  723MOL0     C97475   6.091  10.662   6.147 -0.7451  0.5623 -0.7239
  723MOL0     C97476   6.224  10.711   6.156  1.1136  0.1943  0.3380
  723MOL0     C97477   6.326  10.628   6.105  0.5726 -0.2748 -0.4736
  723MOL0     O97478   6.455  10.679   6.125 -0.2116 -0.3343  0.2820
  723MOL0     C97479   6.561  10.623   6.043 -0.1166 -0.0902 -0.3342
  723MOL0     C97480   6.693  10.706   6.033  0.2013 -0.2544  0.7637
  723MOL0     C97481   6.787  10.629   5.929  0.2494 -0.3815 -0.2571
  723MOL0     C97482   6.917  10.713   5.908 -0.3015  0.3168  0.2740
  723MOL0     C97483   7.007  10.646   5.804 -0.5648  0.0854  0.4251
  723MOL0     C97484   7.079  10.520   5.861 -1.1116  0.2000 -0.1790
  723MOL0     C97485   7.099  10.416   5.749  0.0248  0.5476 -1.0431
  723MOL0     C97486   7.184  10.290   5.783 -0.5436  1.0040 -0.3539
  723MOL0     N97487   7.116  10.188   5.872 -0.8345  0.8682 -0.4322
  723MOL0     C97488   7.047  10.222   5.982 -0.2354  0.6789 -0.1468
  723MOL0     C97489   6.998  10.096   6.024 -0.3489  0.4078 -0.2216
  723MOL0     C97490   6.934  10.067   6.155  0.2482  0.5113 -0.2902
  723MOL0     C97491   6.960  10.172   6.260  1.0121  0.6187  0.2709
  723MOL0     C97492   6.876  10.156   6.394 -0.1477  0.2559  0.0231
  723MOL0     C97493   6.948  10.051   6.490  0.0539 -0.6656  0.3661
  723MOL0     O97494   7.080  10.095   6.523 -0.4290  0.3062 -0.7620
  723MOL0     C97495   7.159  10.026   6.612  0.3627  0.4412 -0.1330
  723MOL0     C97496   7.294  10.059   6.608 -0.4228  0.5163  0.3528
  723MOL0     C97497   7.381   9.979   6.683 -0.0988  0.5195 -0.1465
  723MOL0     C97498   7.337   9.879   6.764 -0.1265  0.2325 -0.0353
  723MOL0     C97499   7.432   9.809   6.846  0.0641  0.7590 -0.3815
  723MOL0     O97500   7.565   9.839   6.839  0.3745  0.4147  0.0396
  723MOL0     C97501   7.660   9.759   6.905  0.2618  0.4350 -0.8574
  723MOL0     C97502   7.773   9.813   6.971  0.6393 -0.2023 -0.7298
  723MOL0     C97503   7.876   9.729   7.023  0.2059 -0.2849 -0.1864
  723MOL0     C97504   7.870   9.595   7.011 -0.4639  0.2906  0.3896
  723MOL0     O97505   7.968   9.521   7.083  0.1307  0.5300  0.7512
  723MOL0     C97506   8.034   9.405   7.029 -0.5466 -0.1425 -0.4552
  723MOL0     C97507   8.128   9.348   7.134  0.1908 -0.4903  1.2393
  723MOL0     C97508   8.194   9.220   7.077 -0.1658  0.8184  0.1974
  723MOL0     C97509   8.330   9.196   7.146 -0.1157 -0.2641 -0.3468
  723MOL0     C97510   8.369   9.055   7.098 -0.3486  0.9092  0.2129
  723MOL0     C97511   8.496   9.002   7.173  0.7022  0.7624  0.4012
  723MOL0     C97512   8.633   9.067   7.130  0.0471  0.2913  0.2812
  723MOL0     C97513   8.739   9.022   7.231 -1.0335 -0.7946 -0.3608
  723MOL0    Cl97514   8.749   8.844   7.262  0.2356  0.4388  0.1626
  723MOL0     C97515   7.762   9.538   6.948  0.4244  0.0004 -0.7033
  723MOL0     C97516   7.660   9.615   6.896  0.2647  0.0549 -0.1156
  723MOL0     O97517   7.373   9.721   6.917 -0.4008 -0.6206  0.3615
  723MOL0     C97518   7.198   9.840   6.767  0.1585 -0.2759  1.2504
  723MOL0     C97519   7.107   9.920   6.694 -0.5288  0.0842  0.1415
  723MOL0     N97520   7.014  10.001   5.934  0.4295 -0.0266 -0.6516
  723MOL0     N97521   7.091  10.056   5.848  0.1906 -0.8765 -0.1730
  723MOL0     C97522   6.305  10.498   6.054 -0.2030 -0.2191 -0.1701
  723MOL0     C97523   6.168  10.458   6.037  0.6720  0.8012 -0.2468
  723MOL0     C97524   5.727  10.411   5.954 -0.0100  0.0896 -0.5261
  723MOL0     C97525   5.645  10.470   6.054  0.0199 -0.2171 -0.4580
  723MOL0     C97526   5.507  10.458   6.049  0.9161  0.1967  0.2846
  723MOL0     C97527   5.437  10.400   5.937 -0.3811 -0.1111 -0.3549
  723MOL0     O97528   5.301  10.384   5.909  0.1162  0.8144  0.7608
  723MOL0     C97529   5.215  10.447   6.007  0.1740  0.3316 -0.0831
  723MOL0     C97530   5.072  10.399   5.987  0.0448  0.1312  0.5564
  723MOL0     C97531   4.992  10.417   6.121  0.0999 -0.3787  0.2160
  723MOL0     C97532   4.992  10.302   6.227 -0.3284  0.3466 -0.7660
  723MOL0     C97533   5.124  10.260   6.270 -0.1184  0.2099  0.3343
  723MOL0     C97534   5.236  10.227   6.292  0.3436  0.8533 -0.0004
  723MOL0     C97535   5.516  10.335   5.840 -0.5108 -0.4009  0.5733
  723MOL0     C97536   5.657  10.339   5.849  0.8593 -0.3355  0.0182
  723MOL0     C97537   5.726  10.276   5.737 -0.4727 -0.2414 -0.1302
  723MOL0     H97538   6.020  10.733   6.187 -0.9048  0.7807 -1.3824
  723MOL0     H97539   6.235  10.812   6.194  2.2903  0.1496  0.1528
  723MOL0     H97540   6.582  10.523   6.084  0.3339  0.6538  1.3539
  723MOL0     H97541   6.526  10.600   5.942  0.9332 -0.9424 -0.5271
  723MOL0     H97542   6.740  10.720   6.131  1.4764 -0.9070  0.2791
  723MOL0     H97543   6.667  10.800   5.983 -1.9700 -1.3728 -0.3160
  723MOL0     H97544   6.739  10.603   5.834  0.4395  1.5012 -0.9080
  723MOL0     H97545   6.818  10.533   5.970  1.0276 -0.6943 -1.5147
  723MOL0     H97546   6.895  10.817   5.883 -1.6039  0.7741  2.9124
  723MOL0     H97547   6.972  10.718   6.002  3.1454  2.5419 -1.6448
  723MOL0     H97548   6.947  10.610   5.720  2.4707  0.6537 -2.1669
  723MOL0     H97549   7.082  10.716   5.766 -2.0730  1.6332  0.1792
  723MOL0     H97550   7.173  10.549   5.909 -0.7554 -1.1354 -0.0267
  723MOL0     H97551   7.019  10.480   5.943  1.1312 -0.9829  0.9829
  723MOL0     H97552   7.143  10.470   5.664 -3.7290  2.4414 -1.9968
  723MOL0     H97553   7.005  10.381   5.705 -0.1364  0.5848 -0.7318
  723MOL0     H97554   7.202  10.234   5.690 -2.2347  0.5093 -0.4334
  723MOL0     H97555   7.275  10.313   5.838  0.1096 -0.5066 -0.7488
  723MOL0     H97556   7.034  10.314   6.038 -2.7763  1.1507 -1.3674
  723MOL0     H97557   6.826  10.063   6.137  0.0114  1.6404  0.7476
  723MOL0     H97558   6.953   9.962   6.179  0.1049  0.6155  0.2960
  723MOL0     H97559   7.066  10.167   6.283  0.8133 -0.0446  1.1194
  723MOL0     H97560   6.935  10.272   6.224 -0.7939  0.4378  0.8855
  723MOL0     H97561   6.775  10.126   6.365  1.3130 -2.4605 -2.7883
  723MOL0     H97562   6.871  10.254   6.442  0.2788  0.5111 -0.4456
  723MOL0     H97563   6.945   9.949   6.452 -1.6981 -0.5503  0.1525
  723MOL0     H97564   6.890  10.058   6.582 -1.4812  2.2743 -0.6894
  723MOL0     H97565   7.325  10.151   6.560 -1.8839 -0.5706 -2.9102
  723MOL0     H97566   7.484  10.012   6.683 -0.3253  1.3930 -2.0714
  723MOL0     H97567   7.770   9.921   6.986 -1.4549 -0.5088  1.7769
  723MOL0     H97568   7.964   9.759   7.080 -1.0585 -0.2876  1.8722
  723MOL0     H97569   7.958   9.333   6.996 -1.0908 -1.5199  3.3559
  723MOL0     H97570   8.083   9.444   6.939 -1.1017 -0.7480 -1.0376
  723MOL0     H97571   8.201   9.428   7.151  0.6118 -0.6164  0.1257
  723MOL0     H97572   8.070   9.326   7.224  0.0947  0.1092  1.3286
  723MOL0     H97573   8.128   9.136   7.102  0.5862  0.0660 -0.2994
  723MOL0     H97574   8.207   9.236   6.970  1.5814  3.5208  0.7246
  723MOL0     H97575   8.321   9.204   7.254  3.8036 -1.1997  0.2258
  723MOL0     H97576   8.402   9.275   7.122 -1.5093  1.5271  1.1190
  723MOL0     H97577   8.386   9.050   6.990  0.2686  0.5860  0.3199
  723MOL0     H97578   8.289   8.982   7.110 -0.3533  0.4178 -2.3673
  723MOL0     H97579   8.476   9.018   7.280 -1.7231 -2.2926  0.5398
  723MOL0     H97580   8.497   8.893   7.165 -0.5262  0.6544  1.3671
  723MOL0     H97581   8.618   9.175   7.133 -3.3707 -0.0760  2.6189
  723MOL0     H97582   8.662   9.032   7.031 -0.2891  2.2019 -0.5268
  723MOL0     H97583   8.829   9.073   7.194 -2.9909  2.5551 -1.0117
  723MOL0     H97584   8.720   9.060   7.332  0.3171 -2.5593  0.6221
  723MOL0     H97585   7.762   9.430   6.935  1.2006 -0.2570  1.0842
  723MOL0     H97586   7.580   9.581   6.831 -0.3878  3.2519 -1.1926
  723MOL0     H97587   7.168   9.766   6.840 -1.8727 -0.9287 -0.1638
  723MOL0     H97588   7.002   9.893   6.698 -0.2528 -0.7936  2.5366
  723MOL0     H97589   6.387  10.432   6.032  0.0758  0.0349  0.0970
  723MOL0     H97590   6.140  10.368   5.983 -1.7694  1.2953  0.0633
  723MOL0     H97591   5.695  10.515   6.139  1.8286 -0.6543 -1.2574
  723MOL0     H97592   5.437  10.490   6.126  0.7800 -2.2194  1.2474
  723MOL0     H97593   5.228  10.555   5.995  1.4045  0.0909 -1.0673
  723MOL0     H97594   5.242  10.418   6.109  1.3959 -5.3661 -1.7084
  723MOL0     H97595   5.065  10.293   5.959  1.3986 -0.0635  0.8534
  723MOL0     H97596   5.029  10.462   5.909  1.1800  0.8731  0.5049
  723MOL0     H97597   4.889  10.425   6.085 -0.2844  1.3233  1.5018
  723MOL0     H97598   5.011  10.518   6.159  1.0600  0.4284 -2.2345
  723MOL0     H97599   4.941  10.348   6.313 -1.6508  0.0883 -1.3820
  723MOL0     H97600   4.937  10.213   6.195 -0.6387  0.6022 -0.9538
  723MOL0     H97601   5.337  10.192   6.289  0.3874  0.9332  0.5116
  723MOL0     H97602   5.475  10.277   5.758 -2.5023  1.3532  0.2266
  723MOL0     H97603   5.804  10.207   5.771 -1.2604  0.0972  2.5740
  723MOL0     H97604   5.667  10.212   5.670  0.9540 -2.5033  0.6550
  723MOL0     H97605   5.764  10.351   5.666 -1.9525  1.3113  0.6544
  724MOL0     O97606   8.451   9.183   7.520  0.5260 -0.1770 -0.0887
  724MOL0     C97607   8.440   9.286   7.583  0.5732 -0.2234  0.3090
  724MOL0     O97608   8.534   9.385   7.585 -0.3825 -0.0451 -0.8211
  724MOL0     C97609   8.657   9.356   7.534  1.1643 -0.2475 -0.8087
  724MOL0     C97610   8.662   9.368   7.397 -0.2920 -0.2211  0.1716
  724MOL0     C97611   8.778   9.351   7.331 -0.1720 -0.0617 -0.2075
  724MOL0     C97612   8.898   9.352   7.406  0.1669  0.0712 -0.3769
  724MOL0     O97613   9.017   9.324   7.339 -0.1039  0.3021 -0.2512
  724MOL0     C97614   9.052   9.390   7.210  0.3373 -0.2174 -0.7694
  724MOL0     C97615   9.079   9.290   7.093 -0.2468 -0.3945  0.4129
  724MOL0     C97616   9.102   9.358   6.964  0.7278 -0.5889 -0.0005
  724MOL0     C97617   9.146   9.269   6.852 -0.1034 -0.5115  0.9664
  724MOL0     C97618   9.148   9.345   6.723  0.1960  0.0281  0.2894
  724MOL0     C97619   9.212   9.257   6.611  0.1237 -0.2418  0.1059
  724MOL0     C97620   9.187   9.304   6.466  0.9134 -0.7363 -0.5061
  724MOL0     C97621   9.238   9.200   6.365  0.5161 -0.0967  0.4611
  724MOL0     N97622   9.164   9.075   6.372  0.1498  0.6234  0.5126
  724MOL0     C97623   9.199   8.968   6.457  0.0092 -0.5044 -0.0603
  724MOL0     C97624   9.127   8.867   6.406  0.4794  0.3328  0.0668
  724MOL0     C97625   9.122   8.735   6.474  0.5352  0.5930 -0.9680
  724MOL0     C97626   9.198   8.632   6.384 -0.1375 -0.2545  0.0743
  724MOL0     C97627   9.351   8.656   6.375  0.0683 -0.7458  0.5806
  724MOL0     C97628   9.419   8.538   6.317 -0.0993 -0.3546  0.3711
  724MOL0     O97629   9.502   8.602   6.219 -0.3274  0.3416  0.9323
  724MOL0     C97630   9.593   8.518   6.156  0.0677  0.9138  1.1641
  724MOL0     C97631   9.556   8.386   6.137 -1.0625 -0.8868 -0.8546
  724MOL0     C97632   9.645   8.309   6.067  0.0173  0.3247 -0.3339
  724MOL0     C97633   9.768   8.351   6.023  0.0156 -0.1520 -0.3304
  724MOL0     C97634   9.867   8.264   5.956  0.4466  0.3826  0.0699
  724MOL0     O97635   9.973   8.324   5.894  0.7164 -0.1587 -0.9376
  724MOL0     C97636  10.048   8.250   5.811 -0.0201  0.0313  0.0588
  724MOL0     C97637  10.117   8.134   5.846  0.0496 -0.8296  0.3226
  724MOL0     C97638  10.207   8.074   5.756 -0.2173 -0.9148 -0.5248
  724MOL0     C97639  10.217   8.125   5.626  0.3716  0.5050 -0.6047
  724MOL0     O97640  10.301   8.057   5.544  0.8657  0.5943  0.0955
  724MOL0     C97641  10.315   8.095   5.407 -0.1089 -0.6477  0.5845
  724MOL0     C97642  10.402   8.005   5.307  0.5097  0.0736  0.4461
  724MOL0     C97643  10.361   7.860   5.285  0.5204 -1.3581  0.1868
  724MOL0     C97644  10.463   7.788   5.199  1.0584 -0.3884  0.0380
  724MOL0     C97645  10.525   7.876   5.085 -0.1322  0.1235  0.2430
  724MOL0     C97646  10.579   7.779   4.983 -0.6454  1.0409 -0.4227
  724MOL0     C97647  10.670   7.846   4.877 -0.6448 -0.7087  0.0266
  724MOL0     C97648  10.745   7.730   4.804 -0.7883  0.3005 -0.1450
  724MOL0    Cl97649  10.875   7.676   4.914  0.0211  0.2652  0.0678
  724MOL0     C97650  10.152   8.237   5.591 -0.0521 -0.3316 -0.4479
  724MOL0     C97651  10.065   8.302   5.683  0.8748 -0.4682 -0.8028
  724MOL0     O97652   9.838   8.144   5.959 -0.1256  0.2880 -0.2927
  724MOL0     C97653   9.803   8.486   6.045 -0.2810 -0.0460 -0.5504
  724MOL0     C97654   9.710   8.574   6.106 -0.6026  0.4472  0.9447
  724MOL0     N97655   9.045   8.913   6.309  1.2628  0.4881  0.8444
  724MOL0     N97656   9.072   9.038   6.287  0.1457 -0.0956 -0.3665
  724MOL0     C97657   8.894   9.339   7.546 -0.2035 -0.0802  0.0715
  724MOL0     C97658   8.772   9.342   7.612  0.3408  0.0439 -0.1956
  724MOL0     C97659   8.303   9.310   7.638 -0.6791  0.2228 -1.3135
  724MOL0     C97660   8.188   9.272   7.566 -0.2063  0.5450  0.1947
  724MOL0     C97661   8.063   9.289   7.618  0.9159 -0.0840  0.2329
  724MOL0     C97662   8.041   9.348   7.742 -0.3101 -1.5904 -0.1258
  724MOL0     O97663   7.910   9.366   7.790 -0.5914 -0.3980  0.1550
  724MOL0     C97664   7.884   9.400   7.930 -0.1144 -0.2875 -0.3570
  724MOL0     C97665   7.735   9.384   7.939 -0.3245  0.8779  0.3461
  724MOL0     C97666   7.687   9.418   8.082 -0.2500  0.6094 -0.4782
  724MOL0     C97667   7.533   9.402   8.088  0.1874  0.3849  0.0418
  724MOL0     C97668   7.461   9.502   7.999  0.7990 -0.3718  0.3232
  724MOL0     C97669   7.408   9.591   7.937 -0.0560 -0.2525  0.0067
  724MOL0     C97670   8.156   9.395   7.815 -0.6397  1.1651 -0.2034
  724MOL0     C97671   8.284   9.372   7.764 -0.0782  0.0560 -0.1724
  724MOL0     C97672   8.402   9.436   7.828  0.3570  0.4215 -0.3668
  724MOL0     H97673   8.570   9.359   7.340  0.0448 -1.7654 -0.1780
  724MOL0     H97674   8.774   9.349   7.222  1.1037  0.0201 -0.2629
  724MOL0     H97675   8.963   9.447   7.181  0.6718  0.7735  0.0997
  724MOL0     H97676   9.139   9.454   7.221  1.7997 -1.6471 -3.1031
  724MOL0     H97677   8.993   9.223   7.080  1.5226 -3.2581  2.3571
  724MOL0     H97678   9.166   9.233   7.128  1.0714  1.9577  1.1943
  724MOL0     H97679   9.180   9.435   6.962  0.2621 -0.1152 -1.0096
  724MOL0     H97680   9.014   9.414   6.932  1.6586  0.2240 -1.2831
  724MOL0     H97681   9.249   9.233   6.866  0.0330  0.5231  3.0941
  724MOL0     H97682   9.086   9.178   6.849 -0.6353 -0.2017  1.9115
  724MOL0     H97683   9.046   9.371   6.695 -0.0170 -0.5211  0.5298
  724MOL0     H97684   9.214   9.432   6.734 -1.3606  1.3878 -0.7719
  724MOL0     H97685   9.319   9.246   6.631 -0.4183 -2.8748  1.9179
  724MOL0     H97686   9.175   9.156   6.628 -0.5213  0.2924  2.0435
  724MOL0     H97687   9.236   9.401   6.452 -0.7310  0.3386  0.8721
  724MOL0     H97688   9.080   9.323   6.456  0.6937 -1.8614 -0.4183
  724MOL0     H97689   9.228   9.242   6.265 -0.5155 -2.3775 -0.4375
  724MOL0     H97690   9.345   9.179   6.376  0.6616 -0.2723 -1.1270
  724MOL0     H97691   9.273   8.970   6.536 -0.1583  3.0409  0.1754
  724MOL0     H97692   9.174   8.737   6.570  0.3918  2.4225 -0.8876
  724MOL0     H97693   9.020   8.699   6.479  1.5622 -2.3990  0.4939
  724MOL0     H97694   9.187   8.536   6.436 -1.0247 -0.0274  0.3206
  724MOL0     H97695   9.165   8.626   6.280 -0.1677 -0.5979  0.1004
  724MOL0     H97696   9.393   8.685   6.472 -1.4382  1.3762  0.6630
  724MOL0     H97697   9.357   8.740   6.306 -3.0571  1.1881  2.4153
  724MOL0     H97698   9.338   8.469   6.289 -0.6328 -0.1073  1.2354
  724MOL0     H97699   9.485   8.484   6.385  0.8342 -1.2072 -1.1716
  724MOL0     H97700   9.460   8.342   6.164 -2.3899  3.3093  2.2879
  724MOL0     H97701   9.607   8.211   6.041  1.5782 -0.0987 -1.1570
  724MOL0     H97702  10.117   8.088   5.944  1.4204  0.7299  1.0898
  724MOL0     H97703  10.255   7.985   5.796  0.7249  0.2875  1.1158
  724MOL0     H97704  10.219   8.122   5.362 -0.3171 -2.5343 -0.2083
  724MOL0     H97705  10.380   8.183   5.416 -0.8090 -0.0901  0.3640
  724MOL0     H97706  10.402   8.063   5.214  0.9151 -1.0157 -0.2435
  724MOL0     H97707  10.507   8.005   5.335  0.3796  1.7975  1.0386
  724MOL0     H97708  10.366   7.803   5.378  0.4320  1.0279  1.7473
  724MOL0     H97709  10.265   7.855   5.232  1.2825 -0.0078 -1.4168
  724MOL0     H97710  10.404   7.706   5.157  2.1553 -2.0914  1.6664
  724MOL0     H97711  10.543   7.749   5.262  1.6335 -1.9224 -1.5667
  724MOL0     H97712  10.607   7.937   5.124 -0.0936  0.2683 -0.0586
  724MOL0     H97713  10.463   7.946   5.028  2.3235  2.1257 -0.1442
  724MOL0     H97714  10.643   7.705   5.033 -2.6519  0.3219  1.1940
  724MOL0     H97715  10.500   7.714   4.946  0.0920  0.0036 -0.2132
  724MOL0     H97716  10.741   7.914   4.925  1.8998 -0.9429 -3.0444
  724MOL0     H97717  10.606   7.909   4.814  1.2604  0.6631 -0.6300
  724MOL0     H97718  10.676   7.647   4.787 -0.5286 -0.2236  1.2390
  724MOL0     H97719  10.792   7.757   4.708 -2.8061  0.2488 -1.2038
  724MOL0     H97720  10.164   8.277   5.491 -0.9189 -1.3703 -0.9874
  724MOL0     H97721   9.996   8.380   5.653 -0.0761 -1.1871 -0.5208
  724MOL0     H97722   9.896   8.524   6.003 -1.3129  1.2662 -1.7704
  724MOL0     H97723   9.724   8.681   6.112  3.9091  0.2035 -1.1234
  724MOL0     H97724   8.972   9.316   7.618 -2.0638 -1.2754  1.7865
  724MOL0     H97725   8.772   9.322   7.719  0.1132 -0.5436 -0.3012
  724MOL0     H97726   8.191   9.215   7.473 -0.9636  0.8738 -0.0394
  724MOL0     H97727   7.976   9.261   7.560  1.5597 -1.7649  0.0266
  724MOL0     H97728   7.899   9.505   7.957 -1.2462  0.4167 -2.2912
  724MOL0     H97729   7.939   9.344   8.007 -0.6281  0.1665  0.3625
  724MOL0     H97730   7.719   9.277   7.927  1.6063  0.3268  2.1033
  724MOL0     H97731   7.688   9.441   7.858  1.8481 -1.7402 -3.0653
  724MOL0     H97732   7.711   9.522   8.108  2.4545 -0.0036 -0.1891
  724MOL0     H97733   7.738   9.347   8.147  0.4164  1.4111 -0.1032
  724MOL0     H97734   7.503   9.313   8.032 -0.7450  1.4609 -1.2624
  724MOL0     H97735   7.495   9.402   8.191  0.9701 -0.1075  0.3359
  724MOL0     H97736   7.362   9.665   7.875  0.4479 -0.9398 -1.2406
  724MOL0     H97737   8.136   9.441   7.911 -3.5656 -0.2847  0.0073
  724MOL0     H97738   8.486   9.365   7.836  1.6854  2.0352  0.7926
  724MOL0     H97739   8.442   9.524   7.776  1.3346  0.0163 -0.3363
  724MOL0     H97740   8.381   9.459   7.933  0.4741 -0.6928 -0.0823
  725MOL0     O97741   6.616   1.823   8.164 -0.1381 -0.5396 -0.6201
  725MOL0     C97742   6.568   1.871   8.064  0.3176 -0.2888 -0.2266
  725MOL0     O97743   6.631   1.886   7.948  0.4688  0.2526  0.3472
  725MOL0     C97744   6.741   1.808   7.937 -0.0859  0.8598  0.2448
  725MOL0     C97745   6.741   1.695   7.847 -0.3444 -0.1117  0.2078
  725MOL0     C97746   6.854   1.611   7.837  0.7880  0.7901 -0.3982
  725MOL0     C97747   6.969   1.646   7.903  0.4682  0.1081 -0.5705
  725MOL0     O97748   7.081   1.565   7.879  0.4981 -0.1916 -0.4998
  725MOL0     C97749   7.212   1.606   7.924 -0.5537 -0.3255 -0.6295
  725MOL0     C97750   7.293   1.523   7.825 -0.0551  0.7391 -0.9173
  725MOL0     C97751   7.443   1.535   7.850  0.3470 -0.6550 -0.4772
  725MOL0     C97752   7.492   1.682   7.830  0.0738 -0.2259  0.3028
  725MOL0     C97753   7.643   1.679   7.805 -0.1780  0.0061 -0.0843
  725MOL0     C97754   7.685   1.824   7.780 -0.3727  0.5688  0.1656
  725MOL0     C97755   7.833   1.824   7.779 -0.6596 -0.4090 -0.3276
  725MOL0     C97756   7.870   1.982   7.773  0.1913  0.4038  1.3408
  725MOL0     N97757   7.841   2.039   7.632  0.7608 -0.3028 -1.2424
  725MOL0     C97758   7.912   2.020   7.517 -0.1811  0.3438  0.7977
  725MOL0     C97759   7.850   2.102   7.437  0.3981  0.1542  0.2585
  725MOL0     C97760   7.892   2.121   7.300 -0.2643  0.6236 -0.3435
  725MOL0     C97761   8.031   2.184   7.277  0.0630  0.1362 -0.3175
  725MOL0     C97762   8.071   2.191   7.134  0.2644  0.4158  0.3261
  725MOL0     C97763   8.212   2.253   7.109  0.2163  0.1778 -0.4086
  725MOL0     O97764   8.309   2.198   7.196  0.0199 -0.1619  0.2880
  725MOL0     C97765   8.445   2.228   7.170 -0.1908 -0.6166 -0.0303
  725MOL0     C97766   8.539   2.177   7.262  0.2804  0.1760 -0.3280
  725MOL0     C97767   8.676   2.198   7.253 -0.0222 -0.2775  0.4379
  725MOL0     C97768   8.722   2.281   7.147  0.8132  0.6199 -0.3136
  725MOL0     C97769   8.868   2.315   7.123  0.4806 -0.9882 -0.2352
  725MOL0     O97770   8.901   2.397   7.029 -0.7222  0.7616  0.6987
  725MOL0     C97771   9.034   2.425   7.004 -0.7434 -0.3547 -0.0307
  725MOL0     C97772   9.114   2.314   6.951  0.2584  0.4081 -0.4225
  725MOL0     C97773   9.238   2.352   6.894 -0.3256  0.5351  0.6869
  725MOL0     C97774   9.292   2.478   6.909 -0.9345 -0.3497  1.1320
  725MOL0     O97775   9.413   2.504   6.845  0.7605 -0.1038 -0.1905
  725MOL0     C97776   9.474   2.633   6.858  0.5943  0.3258  0.1549
  725MOL0     C97777   9.587   2.648   6.747  0.5746 -0.1374  0.3870
  725MOL0     C97778   9.634   2.515   6.694  0.2177 -0.4557 -0.2147
  725MOL0     C97779   9.704   2.436   6.808  0.0615 -0.0367 -0.2528
  725MOL0     C97780   9.738   2.296   6.765 -0.2763  1.0020 -0.1833
  725MOL0     C97781   9.823   2.287   6.640 -0.4018 -0.4426 -0.2236
  725MOL0     C97782   9.931   2.185   6.636  0.7397 -0.6100  1.1126
  725MOL0     C97783  10.047   2.248   6.549  0.1854  0.3430  0.0957
  725MOL0    Cl97784  10.002   2.244   6.375  0.2290  0.4964 -0.8326
  725MOL0     C97785   9.211   2.579   6.972 -1.0872 -0.7795  0.0822
  725MOL0     C97786   9.086   2.553   7.015  0.6964 -0.4518  0.9333
  725MOL0     O97787   8.944   2.274   7.206  0.4241  0.6217  0.1634
  725MOL0     C97788   8.632   2.345   7.057  0.6291  0.6985  0.3351
  725MOL0     C97789   8.494   2.313   7.065  0.4850 -0.1314  0.5613
  725MOL0     N97790   7.746   2.175   7.492 -0.5795  0.3660 -0.2608
  725MOL0     N97791   7.747   2.140   7.615  1.0364  0.4501 -0.9314
  725MOL0     C97792   6.971   1.764   7.977  0.2424  0.0830 -0.7728
  725MOL0     C97793   6.862   1.843   7.997  0.1936 -0.1893  0.4424
  725MOL0     C97794   6.427   1.908   8.067  1.1180  0.5806 -0.1475
  725MOL0     C97795   6.381   2.013   8.145  0.3858  0.0188 -0.1530
  725MOL0     C97796   6.247   2.056   8.146 -0.0799  0.7427  0.2820
  725MOL0     C97797   6.151   1.979   8.083 -0.3459 -0.8366 -0.2289
  725MOL0     O97798   6.015   2.011   8.095 -0.3672 -0.0711  0.5993
  725MOL0     C97799   5.952   2.013   7.966 -0.1352  0.4497 -0.1837
  725MOL0     C97800   5.823   2.087   7.982  0.3490 -0.5852 -0.4376
  725MOL0     C97801   5.714   2.027   8.074 -0.5708  0.0406  0.1449
  725MOL0     C97802   5.598   2.125   8.089  0.1699  0.4263 -0.2379
  725MOL0     C97803   5.493   2.057   8.169  0.2120  1.5911  0.6291
  725MOL0     C97804   5.398   2.005   8.216 -0.2984  1.3932 -0.2508
  725MOL0     C97805   6.198   1.867   8.015  0.1236 -0.2308  0.4265
  725MOL0     C97806   6.332   1.830   7.998 -0.4933 -0.3537 -0.9111
  725MOL0     C97807   6.364   1.711   7.905  0.0871 -0.5646 -0.5557
  725MOL0     H97808   6.652   1.671   7.790 -0.5657 -1.8072  1.2093
  725MOL0     H97809   6.849   1.526   7.770 -2.0077  0.3075  0.2920
  725MOL0     H97810   7.238   1.712   7.917 -2.3603  0.0899 -1.5754
  725MOL0     H97811   7.229   1.570   8.026 -0.6103  0.1495 -0.4480
  725MOL0     H97812   7.275   1.563   7.724  0.2073 -1.6207 -1.9475
  725MOL0     H97813   7.260   1.419   7.822 -2.2103  1.2443  1.2426
  725MOL0     H97814   7.494   1.469   7.779  0.5685 -4.2748  2.7038
  725MOL0     H97815   7.474   1.500   7.950  1.4568  0.8774 -0.2431
  725MOL0     H97816   7.441   1.738   7.751 -0.3267  2.0476  2.0509
  725MOL0     H97817   7.465   1.745   7.915  1.1301  0.7987 -0.0850
  725MOL0     H97818   7.699   1.632   7.887  4.5107  1.1934 -2.2991
  725MOL0     H97819   7.670   1.624   7.715 -2.1684  2.1865 -2.1606
  725MOL0     H97820   7.651   1.850   7.680  1.0299  4.3851  0.5363
  725MOL0     H97821   7.652   1.896   7.856 -1.3025 -0.7102  1.0353
  725MOL0     H97822   7.863   1.771   7.688  1.0642  1.8031 -1.1468
  725MOL0     H97823   7.876   1.780   7.869  1.7499 -1.9295 -2.0741
  725MOL0     H97824   7.826   2.042   7.853  1.6018 -0.8927  3.1889
  725MOL0     H97825   7.978   1.997   7.775  0.4664 -0.3454 -1.9320
  725MOL0     H97826   7.996   1.953   7.499 -1.9622 -2.5413  2.4222
  725MOL0     H97827   7.897   2.024   7.249 -0.0218 -0.7497  2.1129
  725MOL0     H97828   7.818   2.176   7.241 -2.4215 -2.3269 -0.6386
  725MOL0     H97829   8.018   2.287   7.313 -1.1970 -0.8470  2.2534
  725MOL0     H97830   8.108   2.127   7.329 -0.4226  0.3429  0.6620
  725MOL0     H97831   8.002   2.254   7.077  0.0852  0.7302  0.8925
  725MOL0     H97832   8.078   2.093   7.084 -0.0955  1.2137 -1.3783
  725MOL0     H97833   8.214   2.362   7.122  1.7103  0.0609  0.5843
  725MOL0     H97834   8.237   2.223   7.007  2.0506  0.3174 -0.0315
  725MOL0     H97835   8.498   2.119   7.344  0.2120 -0.6757 -0.9573
  725MOL0     H97836   8.755   2.170   7.322  0.2360  1.8097  1.0395
  725MOL0     H97837   9.078   2.218   6.915  1.5874  0.9330 -3.4969
  725MOL0     H97838   9.294   2.281   6.833 -0.9937 -1.7189  2.5279
  725MOL0     H97839   9.402   2.714   6.842 -1.0999 -1.1647 -0.0740
  725MOL0     H97840   9.513   2.641   6.960  0.0467 -2.2694  0.6321
  725MOL0     H97841   9.538   2.714   6.675 -1.3808 -1.9670 -0.0820
  725MOL0     H97842   9.674   2.697   6.791  1.1132  0.3358 -1.1618
  725MOL0     H97843   9.550   2.459   6.652 -1.8380  1.1991  1.4823
  725MOL0     H97844   9.708   2.531   6.615 -0.0958  2.6897 -0.0164
  725MOL0     H97845   9.646   2.432   6.900 -0.3113 -0.1356 -0.4919
  725MOL0     H97846   9.796   2.489   6.838 -0.2244  0.9947 -1.1257
  725MOL0     H97847   9.644   2.242   6.747  0.5713 -1.3488  1.7873
  725MOL0     H97848   9.792   2.241   6.843  1.8350  0.3062 -2.0645
  725MOL0     H97849   9.764   2.289   6.548  0.3249 -0.3579 -0.6975
  725MOL0     H97850   9.873   2.384   6.652 -1.1192  0.0107 -0.7959
  725MOL0     H97851   9.889   2.094   6.592  1.1997 -1.1185  1.7166
  725MOL0     H97852   9.956   2.153   6.737 -1.2546 -2.8962  0.9724
  725MOL0     H97853  10.074   2.349   6.582  0.4703 -0.1206  1.3415
  725MOL0     H97854  10.135   2.184   6.556  1.1361  1.5156 -0.7418
  725MOL0     H97855   9.247   2.682   6.977  1.1140 -1.3679 -1.8853
  725MOL0     H97856   9.025   2.638   7.045 -4.1788 -2.6722 -1.5605
  725MOL0     H97857   8.663   2.420   6.986 -0.7807  1.5074  0.5335
  725MOL0     H97858   8.419   2.358   7.000 -0.7816 -0.0399  2.0255
  725MOL0     H97859   7.067   1.777   8.026 -0.0527 -0.5264 -0.0096
  725MOL0     H97860   6.871   1.922   8.071  0.0079 -0.9990  1.3533
  725MOL0     H97861   6.447   2.076   8.203  0.4067  0.6482 -0.8381
  725MOL0     H97862   6.212   2.139   8.207 -1.4368  0.6536 -0.3424
  725MOL0     H97863   5.929   1.911   7.935  0.1816  0.5232 -0.6661
  725MOL0     H97864   6.019   2.067   7.897 -0.6813  2.0372  0.4680
  725MOL0     H97865   5.777   2.106   7.885 -0.6080  1.1920  0.3116
  725MOL0     H97866   5.849   2.190   8.009 -4.1423  1.3456 -2.4424
  725MOL0     H97867   5.759   2.000   8.170 -0.3761 -1.3245 -0.3170
  725MOL0     H97868   5.682   1.934   8.027  0.7927 -0.5107  0.2660
  725MOL0     H97869   5.620   2.219   8.141  1.1923  0.6453 -1.0476
  725MOL0     H97870   5.548   2.151   7.995 -0.9444 -0.6010  0.0437
  725MOL0     H97871   5.316   1.960   8.268 -0.3132  0.5281 -1.0016
  725MOL0     H97872   6.115   1.813   7.970  0.1182 -0.1573  0.3487
  725MOL0     H97873   6.269   1.671   7.871 -1.5135  0.3155  2.5286
  725MOL0     H97874   6.407   1.754   7.814 -1.2805 -0.1885 -1.0426
  725MOL0     H97875   6.418   1.630   7.955  3.2072  1.2215 -0.7087
  726MOL0     O97876   4.366   4.064   2.290  0.3125 -0.1118  0.3214
  726MOL0     C97877   4.300   3.960   2.268  0.2499  0.1716 -0.5392
  726MOL0     O97878   4.358   3.832   2.252 -0.4781 -0.3994  1.2123
  726MOL0     C97879   4.495   3.832   2.238  0.6538  0.8819  0.6260
  726MOL0     C97880   4.580   3.874   2.340 -0.1772 -0.4019 -0.0083
  726MOL0     C97881   4.719   3.863   2.318  0.5057 -0.4732  0.8211
  726MOL0     C97882   4.769   3.800   2.205 -0.8584 -0.3806 -0.0792
  726MOL0     O97883   4.906   3.770   2.185  0.4936 -0.0396 -0.3902
  726MOL0     C97884   4.996   3.840   2.266 -0.3783 -0.6030  0.3855
  726MOL0     C97885   5.130   3.838   2.189 -0.2822  0.2789 -0.5608
  726MOL0     C97886   5.198   3.704   2.187  0.2836 -0.8083  0.1396
  726MOL0     C97887   5.345   3.716   2.230 -0.0328 -0.2979  0.3892
  726MOL0     C97888   5.410   3.572   2.243  0.3013 -0.5286  0.1305
  726MOL0     C97889   5.416   3.485   2.107 -0.8809  0.1134  0.2968
  726MOL0     C97890   5.482   3.566   1.989  0.1455 -0.0000  0.5783
  726MOL0     C97891   5.508   3.481   1.853 -0.7595 -0.0652 -0.4955
  726MOL0     N97892   5.636   3.513   1.790 -0.8162 -0.3903  0.5402
  726MOL0     C97893   5.654   3.596   1.688  0.6525 -0.7806  0.0983
  726MOL0     C97894   5.787   3.597   1.657 -0.1169  0.0036  0.5723
  726MOL0     C97895   5.850   3.679   1.552  0.5720  0.1338 -0.4693
  726MOL0     C97896   5.871   3.820   1.601  0.4196 -0.1616 -0.0302
  726MOL0     C97897   5.950   3.904   1.507 -0.3402  0.6491 -0.4636
  726MOL0     C97898   5.997   4.042   1.568  1.0615 -0.5059 -0.6444
  726MOL0     O97899   6.037   4.128   1.459 -0.9210  0.4525  0.0015
  726MOL0     C97900   6.169   4.165   1.434  0.7703  0.3646 -0.6844
  726MOL0     C97901   6.189   4.277   1.354 -0.6700 -0.5376 -0.3334
  726MOL0     C97902   6.320   4.323   1.308 -0.4504 -0.4196  0.2383
  726MOL0     C97903   6.431   4.242   1.357 -0.1362  0.3029 -0.3647
  726MOL0     C97904   6.572   4.278   1.312 -0.1131 -0.1736 -0.4544
  726MOL0     O97905   6.674   4.175   1.323  0.4346 -0.6640 -0.2470
  726MOL0     C97906   6.804   4.198   1.283 -0.5633  0.5677 -0.2105
  726MOL0     C97907   6.855   4.305   1.213 -0.1014  0.3420  0.7758
  726MOL0     C97908   6.988   4.312   1.170  0.9353  0.4658  0.0123
  726MOL0     C97909   7.076   4.211   1.227 -0.3604  0.0949  0.7223
  726MOL0     O97910   7.213   4.228   1.236  0.4593  0.7706  0.2196
  726MOL0     C97911   7.272   4.329   1.147 -0.0245  0.7886 -0.3445
  726MOL0     C97912   7.410   4.288   1.104  0.0664 -0.1108 -0.4285
  726MOL0     C97913   7.506   4.281   1.218  0.0448 -1.1650  1.3638
  726MOL0     C97914   7.644   4.294   1.165  0.5933 -0.7405  0.3540
  726MOL0     C97915   7.756   4.275   1.258  0.3383 -1.0452  0.2549
  726MOL0     C97916   7.890   4.256   1.179  0.9359  1.0009  0.5617
  726MOL0     C97917   8.013   4.198   1.253  0.0997  1.2737 -0.1182
  726MOL0     C97918   8.148   4.217   1.178 -0.1145  0.3153 -0.2925
  726MOL0    Cl97919   8.177   4.385   1.142  0.2673 -0.1566  0.0336
  726MOL0     C97920   7.029   4.103   1.292  0.8199 -0.6343  0.0173
  726MOL0     C97921   6.891   4.097   1.321  0.4838 -0.0066 -0.5584
  726MOL0     O97922   6.586   4.400   1.290  1.1562 -0.8393 -0.2650
  726MOL0     C97923   6.413   4.137   1.446 -0.2252 -0.1484  0.0387
  726MOL0     C97924   6.282   4.096   1.476  0.3646 -0.0485 -0.1087
  726MOL0     N97925   5.842   3.502   1.733  0.3714  0.0386 -0.8248
  726MOL0     N97926   5.759   3.454   1.819 -0.3851  0.6826 -0.3300
  726MOL0     C97927   4.683   3.759   2.112 -0.6417 -0.0908  0.4323
  726MOL0     C97928   4.548   3.782   2.123 -0.9864  0.7002  1.1312
  726MOL0     C97929   4.151   3.971   2.288  0.2482  0.8443  0.4399
  726MOL0     C97930   4.100   4.091   2.329  0.7812  0.1480  0.0311
  726MOL0     C97931   3.961   4.118   2.340  1.0810 -0.7855  0.7076
  726MOL0     C97932   3.869   4.013   2.332  0.2220 -0.0068 -0.2732
  726MOL0     O97933   3.737   4.028   2.352 -1.3919 -0.1911 -0.3004
  726MOL0     C97934   3.668   4.157   2.351 -0.2884  0.0392  0.4039
  726MOL0     C97935   3.515   4.161   2.369  0.0576 -0.3850  0.2825
  726MOL0     C97936   3.453   4.048   2.283  0.6546  0.8969  0.2510
  726MOL0     C97937   3.321   4.087   2.217  1.1848  0.0145  0.6529
  726MOL0     C97938   3.227   4.133   2.316  0.2580 -0.6516 -0.0054
  726MOL0     C97939   3.139   4.171   2.399  0.2277  0.2037  0.5542
  726MOL0     C97940   3.923   3.887   2.306 -0.3823  0.4707 -0.0568
  726MOL0     C97941   4.059   3.865   2.266 -0.0299 -0.2002  0.0907
  726MOL0     C97942   4.087   3.741   2.190  0.3025  0.5012  0.1961
  726MOL0     H97943   4.538   3.904   2.435  1.7156  2.1729  0.1361
  726MOL0     H97944   4.791   3.885   2.396 -1.5980  1.3585  2.3776
  726MOL0     H97945   4.980   3.947   2.279  0.5239 -0.5053  0.7662
  726MOL0     H97946   4.992   3.790   2.363  1.8013 -2.2487 -0.2965
  726MOL0     H97947   5.201   3.914   2.223 -2.5884  1.7905  1.1856
  726MOL0     H97948   5.107   3.870   2.087  0.3301 -1.9498 -1.4503
  726MOL0     H97949   5.199   3.670   2.083 -1.4048  0.5360 -0.3658
  726MOL0     H97950   5.136   3.635   2.244  0.5588  0.5521  2.1835
  726MOL0     H97951   5.404   3.777   2.162 -0.2098 -2.0220 -1.4420
  726MOL0     H97952   5.350   3.755   2.332 -1.7224  0.1320  0.3433
  726MOL0     H97953   5.513   3.580   2.279  1.5961 -1.6525 -3.0018
  726MOL0     H97954   5.354   3.516   2.318  0.2354 -0.4771  0.1200
  726MOL0     H97955   5.478   3.399   2.132 -0.0446  0.4136 -0.7220
  726MOL0     H97956   5.315   3.450   2.083 -0.7981 -0.1069  0.2605
  726MOL0     H97957   5.587   3.585   2.015  1.6530 -2.6494 -2.7160
  726MOL0     H97958   5.424   3.655   1.966 -0.9611 -0.0307  2.9476
  726MOL0     H97959   5.521   3.376   1.881 -0.0076 -0.3143 -1.7175
  726MOL0     H97960   5.419   3.487   1.789 -1.9052 -0.9529  0.9339
  726MOL0     H97961   5.582   3.662   1.642  1.2514 -0.1340  0.0739
  726MOL0     H97962   5.943   3.626   1.529  1.0682  1.6910 -2.3042
  726MOL0     H97963   5.786   3.691   1.464 -1.5129  2.2577  1.1882
  726MOL0     H97964   5.779   3.879   1.609  0.3233 -0.0845 -1.4722
  726MOL0     H97965   5.915   3.804   1.700  1.0018 -2.1381 -0.5557
  726MOL0     H97966   5.882   3.915   1.422 -0.9606 -2.5391 -0.5225
  726MOL0     H97967   6.041   3.855   1.470 -1.9344 -1.2497 -2.1641
  726MOL0     H97968   6.077   4.033   1.642 -0.4263  2.6629  1.5969
  726MOL0     H97969   5.921   4.091   1.629  2.7371  1.1334  0.2205
  726MOL0     H97970   6.097   4.316   1.314 -0.7402 -0.9955 -0.6324
  726MOL0     H97971   6.336   4.388   1.223  3.6282  1.0647  1.9010
  726MOL0     H97972   6.788   4.385   1.182  2.0976  1.4660 -1.4290
  726MOL0     H97973   7.017   4.402   1.118  0.8304 -0.1532 -1.1519
  726MOL0     H97974   7.214   4.356   1.058  0.6643  2.0425 -0.4356
  726MOL0     H97975   7.264   4.425   1.199 -0.5708  0.4583  0.1991
  726MOL0     H97976   7.404   4.187   1.062 -0.4520  0.8626 -2.8755
  726MOL0     H97977   7.450   4.352   1.025 -1.7747 -0.0476 -1.3591
  726MOL0     H97978   7.484   4.359   1.292 -2.1929  0.5409 -0.9330
  726MOL0     H97979   7.507   4.187   1.274  1.8880 -0.8871  1.8818
  726MOL0     H97980   7.663   4.390   1.116  3.9639 -0.1826  2.4030
  726MOL0     H97981   7.646   4.218   1.087 -0.9680 -0.9201  0.4656
  726MOL0     H97982   7.739   4.189   1.323 -0.2578  0.7715  2.6500
  726MOL0     H97983   7.767   4.360   1.325  1.8124  1.2260 -2.6554
  726MOL0     H97984   7.868   4.193   1.092 -1.5459  0.7186  1.3107
  726MOL0     H97985   7.902   4.356   1.138 -2.9088  2.0006  1.4980
  726MOL0     H97986   8.000   4.090   1.268 -1.3419  1.2555 -1.2032
  726MOL0     H97987   8.027   4.233   1.355 -2.7476 -0.0481  0.8187
  726MOL0     H97988   8.228   4.177   1.241 -0.7450 -2.0831 -0.9044
  726MOL0     H97989   8.155   4.167   1.081 -1.2724  4.2168 -2.5786
  726MOL0     H97990   7.109   4.035   1.320 -0.8546 -2.3855  0.7299
  726MOL0     H97991   6.844   4.016   1.375 -0.0052  0.0214 -0.9317
  726MOL0     H97992   6.498   4.081   1.485 -1.1910 -1.1871  0.7167
  726MOL0     H97993   6.265   4.020   1.552 -0.2518 -1.5320 -1.6551
  726MOL0     H97994   4.719   3.723   2.016  3.1751 -0.0440  1.6638
  726MOL0     H97995   4.495   3.758   2.032 -1.4823  0.6368  1.4331
  726MOL0     H97996   4.158   4.179   2.355 -1.2728  2.2706 -2.0832
  726MOL0     H97997   3.937   4.219   2.373  1.5394 -0.7604  0.9825
  726MOL0     H97998   3.684   4.189   2.247  0.7651 -2.0737 -0.1396
  726MOL0     H97999   3.717   4.223   2.423 -0.7567 -0.3769  1.1185
  726MOL0     H98000   3.481   4.260   2.336  1.9102 -0.7537 -3.1837
  726MOL0     H98001   3.478   4.153   2.471  1.2323 -1.5154  0.6434
  726MOL0     H98002   3.423   3.974   2.357  2.6475 -0.0770  0.1462
  726MOL0     H98003   3.525   3.995   2.220  0.2850  0.2153  0.3907
  726MOL0     H98004   3.342   4.168   2.147  1.7726 -1.8201 -1.4168
  726MOL0     H98005   3.276   4.005   2.160  0.8462  2.2879 -2.6705
  726MOL0     H98006   3.061   4.188   2.471  1.5343  0.1052  2.0344
  726MOL0     H98007   3.853   3.807   2.285  0.7635 -1.0280  1.5392
  726MOL0     H98008   4.149   3.674   2.251 -0.6837 -0.4182  0.2224
  726MOL0     H98009   3.996   3.688   2.163  0.9842 -0.8957  0.5230
  726MOL0     H98010   4.138   3.764   2.096  1.8438  2.9685  1.5083
  727MOL0     O98011   4.237   6.703   6.219  0.1428 -0.5474  0.5731
  727MOL0     C98012   4.148   6.618   6.218 -0.9608  0.1515 -0.6234
  727MOL0     O98013   4.159   6.503   6.152 -0.0315  0.2414  0.0010
  727MOL0     C98014   4.283   6.452   6.140 -0.6566 -0.2199 -0.2455
  727MOL0     C98015   4.335   6.357   6.225  0.3471 -0.1291 -0.8450
  727MOL0     C98016   4.463   6.298   6.204 -0.5181  0.4018 -0.3430
  727MOL0     C98017   4.548   6.348   6.104  0.6587 -0.1939 -0.1888
  727MOL0     O98018   4.677   6.311   6.086  0.0646  0.1901  0.2822
  727MOL0     C98019   4.725   6.196   6.163 -0.4039  0.3240  0.6677
  727MOL0     C98020   4.869   6.154   6.124 -0.2869  0.2914 -0.0993
  727MOL0     C98021   4.982   6.241   6.180  1.1805 -0.6700  0.0747
  727MOL0     C98022   5.116   6.210   6.113 -0.0678  0.2612  0.6687
  727MOL0     C98023   5.124   6.271   5.976  0.0708  0.5363 -0.1059
  727MOL0     C98024   5.273   6.289   5.941 -0.3495 -0.0478  0.1970
  727MOL0     C98025   5.300   6.303   5.787 -0.0775 -0.8368  0.6312
  727MOL0     C98026   5.442   6.345   5.742  0.2044 -0.1566 -0.5032
  727MOL0     N98027   5.460   6.316   5.595 -0.6633 -0.6467 -0.1215
  727MOL0     C98028   5.434   6.398   5.490 -0.5550  0.1077  0.0674
  727MOL0     C98029   5.476   6.338   5.373 -0.3117  0.1475 -0.3094
  727MOL0     C98030   5.471   6.381   5.244  0.2897 -0.0623 -0.4861
  727MOL0     C98031   5.565   6.507   5.224  0.7228 -0.4570  0.0785
  727MOL0     C98032   5.597   6.506   5.067  0.3022  0.1575  0.0014
  727MOL0     C98033   5.714   6.600   5.022 -0.0585 -0.1393  0.8932
  727MOL0     O98034   5.826   6.585   5.102 -0.2248 -0.7215  0.2535
  727MOL0     C98035   5.946   6.644   5.082  0.0111  0.4985 -0.3993
  727MOL0     C98036   6.036   6.647   5.187 -0.7607  0.1458  0.6020
  727MOL0     C98037   6.168   6.703   5.169  0.4765  0.0628 -0.6490
  727MOL0     C98038   6.199   6.770   5.059 -0.2222 -0.7708  0.4578
  727MOL0     C98039   6.336   6.825   5.045 -0.7069 -0.0569  0.6515
  727MOL0     O98040   6.422   6.810   5.149 -0.1405  0.6469 -0.2666
  727MOL0     C98041   6.549   6.852   5.169  0.4706 -0.5490 -0.1591
  727MOL0     C98042   6.640   6.878   5.069  0.4167 -0.2299  0.0445
  727MOL0     C98043   6.777   6.910   5.109  0.2572 -0.8666 -0.5515
  727MOL0     C98044   6.816   6.914   5.240 -0.2265  0.0011 -0.1335
  727MOL0     O98045   6.942   6.953   5.277 -0.0967  0.2946 -0.4146
  727MOL0     C98046   7.049   6.927   5.183 -0.6864 -0.0326 -0.0062
  727MOL0     C98047   7.179   6.922   5.257  0.1634 -0.1087  0.7812
  727MOL0     C98048   7.219   7.048   5.343 -0.5103 -0.0841  0.2363
  727MOL0     C98049   7.359   7.048   5.391 -0.1423 -0.3667  0.1816
  727MOL0     C98050   7.370   7.122   5.523  0.3913 -0.9118  0.5447
  727MOL0     C98051   7.517   7.136   5.568  0.1275 -0.2728  0.4548
  727MOL0     C98052   7.522   7.230   5.689  0.6888  0.2934 -0.6924
  727MOL0     C98053   7.631   7.324   5.683 -0.0904  0.3426  0.5866
  727MOL0    Cl98054   7.778   7.228   5.716  0.2864  0.2998 -0.4110
  727MOL0     C98055   6.722   6.891   5.343 -0.0318 -0.0215 -0.8904
  727MOL0     C98056   6.588   6.863   5.308 -0.5029  0.1526  0.0201
  727MOL0     O98057   6.360   6.885   4.939  0.4952  0.8098  0.0630
  727MOL0     C98058   6.102   6.785   4.961 -0.0167  0.1750 -0.4396
  727MOL0     C98059   5.978   6.722   4.974 -0.0268  0.0758  0.2520
  727MOL0     N98060   5.536   6.217   5.422  0.6983 -0.3678 -0.6112
  727MOL0     N98061   5.528   6.214   5.548  0.2962 -0.2401 -0.3751
  727MOL0     C98062   4.492   6.442   6.010 -0.6824 -0.6632 -0.2009
  727MOL0     C98063   4.366   6.490   6.024  1.3645  0.1055 -0.8620
  727MOL0     C98064   4.025   6.644   6.288  0.0062 -0.1961 -0.2936
  727MOL0     C98065   3.947   6.530   6.321  0.7225 -0.4817 -0.1614
  727MOL0     C98066   3.818   6.534   6.384  0.1725 -1.0970  1.0480
  727MOL0     C98067   3.760   6.662   6.413 -0.0074 -0.0502  0.8172
  727MOL0     O98068   3.647   6.684   6.486 -0.1363  0.3407  0.5152
  727MOL0     C98069   3.528   6.695   6.408 -1.0077 -0.2598 -0.3335
  727MOL0     C98070   3.417   6.764   6.482 -0.0678 -0.7581  0.7241
  727MOL0     C98071   3.279   6.764   6.409 -0.4520 -0.2405  0.4996
  727MOL0     C98072   3.199   6.635   6.437  0.0507 -0.1039  0.5526
  727MOL0     C98073   3.074   6.657   6.356  0.4804  0.2707  0.4426
  727MOL0     C98074   2.965   6.658   6.307  0.3540  0.3491  1.0896
  727MOL0     C98075   3.833   6.778   6.373  0.6381 -1.4572  0.1215
  727MOL0     C98076   3.962   6.772   6.317 -0.4928  0.4546  0.7396
  727MOL0     C98077   4.026   6.904   6.274 -0.6730  0.5969  0.0261
  727MOL0     H98078   4.283   6.337   6.318  2.1557  1.4741  0.6032
  727MOL0     H98079   4.489   6.223   6.278 -2.9248  1.3932  1.6283
  727MOL0     H98080   4.722   6.226   6.269  0.1731  0.5071  0.6400
  727MOL0     H98081   4.669   6.103   6.152 -1.8314  1.2273  0.1017
  727MOL0     H98082   4.874   6.150   6.015 -1.3274 -1.1358 -0.1112
  727MOL0     H98083   4.885   6.054   6.165  1.3510  0.8423  0.7088
  727MOL0     H98084   4.981   6.217   6.287  1.0053 -1.3928 -0.0865
  727MOL0     H98085   4.952   6.346   6.178  2.7342 -0.1920  0.4121
  727MOL0     H98086   5.193   6.264   6.169  1.1923  0.6718 -1.3683
  727MOL0     H98087   5.142   6.104   6.113 -0.2732  0.2032 -0.6076
  727MOL0     H98088   5.071   6.195   5.917 -0.6682  0.6940  0.3429
  727MOL0     H98089   5.068   6.365   5.971 -3.7062 -1.2306  3.0539
  727MOL0     H98090   5.318   6.374   5.994  2.0671  0.3831 -2.2924
  727MOL0     H98091   5.319   6.197   5.979  0.9596  1.2306  1.8633
  727MOL0     H98092   5.231   6.371   5.736  1.1808 -1.2485 -1.7715
  727MOL0     H98093   5.287   6.203   5.745 -0.7389 -0.4602 -0.0809
  727MOL0     H98094   5.468   6.450   5.758  0.1854 -0.2854  0.4327
  727MOL0     H98095   5.513   6.305   5.815  2.0077  2.0335 -0.9671
  727MOL0     H98096   5.380   6.492   5.500  1.7791  1.7060 -1.4073
  727MOL0     H98097   5.516   6.306   5.178 -2.1309  0.4507 -2.9263
  727MOL0     H98098   5.364   6.390   5.223  0.0951 -0.6715  0.2117
  727MOL0     H98099   5.508   6.596   5.254  1.4716  0.0269  0.0720
  727MOL0     H98100   5.653   6.487   5.285 -0.1550 -2.9267  0.6480
  727MOL0     H98101   5.513   6.532   5.003  0.4486  2.2922  0.5862
  727MOL0     H98102   5.619   6.404   5.037 -1.6272 -0.2810 -0.0034
  727MOL0     H98103   5.682   6.702   5.040  0.1398  0.0322  0.2929
  727MOL0     H98104   5.743   6.597   4.916  2.1829 -1.3736  1.4675
  727MOL0     H98105   6.015   6.605   5.284 -1.0345 -1.3890 -0.0918
  727MOL0     H98106   6.239   6.687   5.249 -0.2555  1.9515  0.4446
  727MOL0     H98107   6.620   6.847   4.967 -0.1951 -3.3332  1.0034
  727MOL0     H98108   6.846   6.948   5.034  0.9127 -3.7379 -1.5135
  727MOL0     H98109   7.043   6.834   5.125  0.8791  1.5752 -3.0019
  727MOL0     H98110   7.041   7.003   5.105 -5.2389 -0.0878  0.1623
  727MOL0     H98111   7.183   6.829   5.315  3.0101  1.7731  4.0135
  727MOL0     H98112   7.249   6.921   5.173  0.0567 -0.1167  0.6922
  727MOL0     H98113   7.197   7.137   5.284 -0.0903 -1.5187 -2.2071
  727MOL0     H98114   7.157   7.057   5.433 -0.6907  0.6753  0.0444
  727MOL0     H98115   7.420   7.092   5.312 -2.3430  1.2084 -0.7508
  727MOL0     H98116   7.383   6.945   5.420 -1.4870  0.2463  4.2521
  727MOL0     H98117   7.330   7.061   5.605 -0.0497 -1.9141 -0.3862
  727MOL0     H98118   7.318   7.217   5.506  2.2734 -0.0650 -0.7080
  727MOL0     H98119   7.529   7.029   5.588  0.4771 -0.3014  0.0932
  727MOL0     H98120   7.587   7.166   5.490 -1.7947  0.4306 -1.0700
  727MOL0     H98121   7.526   7.166   5.777  1.5316  1.6202  0.2756
  727MOL0     H98122   7.429   7.287   5.698  0.6181 -0.1272  1.6961
  727MOL0     H98123   7.640   7.374   5.587 -0.2428 -1.1130 -0.2142
  727MOL0     H98124   7.619   7.403   5.758  0.3290  0.6150  0.3693
  727MOL0     H98125   6.752   6.890   5.448  3.1271 -0.5991 -1.6938
  727MOL0     H98126   6.511   6.838   5.380 -0.1334 -1.6096 -0.1405
  727MOL0     H98127   6.117   6.848   4.874 -1.8729  0.8312 -0.3327
  727MOL0     H98128   5.901   6.744   4.900 -0.1614  2.1647  0.9406
  727MOL0     H98129   4.548   6.469   5.920 -0.2482 -0.2612  0.1843
  727MOL0     H98130   4.320   6.547   5.944  3.7170 -0.2406 -2.5708
  727MOL0     H98131   3.983   6.432   6.293  2.6657  0.1455  0.0064
  727MOL0     H98132   3.757   6.445   6.401  0.8500 -1.2313  2.8981
  727MOL0     H98133   3.506   6.596   6.367 -1.4868  1.2552 -4.1709
  727MOL0     H98134   3.552   6.760   6.323  0.9529 -3.1538 -2.1777
  727MOL0     H98135   3.443   6.866   6.509 -0.0488 -1.5131  3.9462
  727MOL0     H98136   3.404   6.704   6.573 -0.5628 -0.8063  0.6215
  727MOL0     H98137   3.291   6.783   6.302 -0.1933 -1.1431  0.3603
  727MOL0     H98138   3.235   6.854   6.452 -0.5690  0.9160 -1.8638
  727MOL0     H98139   3.249   6.543   6.406  1.2530  0.7092 -0.0187
  727MOL0     H98140   3.174   6.624   6.543 -1.5783 -1.0738  0.1041
  727MOL0     H98141   2.866   6.646   6.268  0.3310  0.7479  1.0241
  727MOL0     H98142   3.793   6.878   6.385  0.2789 -1.6941  0.9821
  727MOL0     H98143   4.066   6.910   6.172 -0.7898 -1.4027 -0.1789
  727MOL0     H98144   3.955   6.986   6.286  0.0046  1.1627  0.2368
  727MOL0     H98145   4.109   6.926   6.342 -2.0485  0.0274  1.9600
  728MOL0     O98146   0.899   7.878   5.297 -0.5253  0.0480 -0.4240
  728MOL0     C98147   0.910   7.835   5.185  0.5208 -0.3034  1.4276
  728MOL0     O98148   1.017   7.750   5.134  0.6845  0.3479  1.1485
  728MOL0     C98149   1.108   7.704   5.224  0.3994 -0.1991 -0.4691
  728MOL0     C98150   1.061   7.633   5.333 -0.2228 -0.0093 -1.7159
  728MOL0     C98151   1.157   7.582   5.423  0.5307 -0.4687  0.2012
  728MOL0     C98152   1.296   7.608   5.401  1.3563 -0.1278 -0.3731
  728MOL0     O98153   1.385   7.548   5.486  0.2068 -0.7843  0.4486
  728MOL0     C98154   1.481   7.454   5.429 -0.2201  0.6896 -1.1451
  728MOL0     C98155   1.515   7.339   5.532  0.5349  0.6832 -0.2525
  728MOL0     C98156   1.617   7.382   5.633  0.4178 -0.2696 -0.1955
  728MOL0     C98157   1.636   7.281   5.747 -0.5283  0.1156 -0.4074
  728MOL0     C98158   1.759   7.315   5.828  0.0927 -0.2824 -0.0309
  728MOL0     C98159   1.824   7.205   5.913  0.5919 -0.0324 -0.0505
  728MOL0     C98160   1.967   7.252   5.958 -0.0710  0.3995 -0.0759
  728MOL0     C98161   2.052   7.146   6.031 -0.2419 -0.1838 -0.2395
  728MOL0     N98162   2.192   7.185   6.039  0.1075  0.3728 -0.1843
  728MOL0     C98163   2.234   7.278   6.129  0.6763  0.1116 -0.0052
  728MOL0     C98164   2.372   7.265   6.131  1.4035 -0.1330  0.0225
  728MOL0     C98165   2.459   7.345   6.218  0.3446 -0.2793  0.1033
  728MOL0     C98166   2.601   7.297   6.233 -0.3279 -0.7977 -0.4280
  728MOL0     C98167   2.611   7.177   6.324 -0.4692  0.3794  1.0212
  728MOL0     C98168   2.761   7.116   6.333 -0.2909  0.3917  0.8442
  728MOL0     O98169   2.854   7.207   6.398 -0.2339  0.2377 -0.1451
  728MOL0     C98170   2.991   7.188   6.399  0.2787  0.1680 -0.4286
  728MOL0     C98171   3.054   7.086   6.323  0.6371 -0.2721  0.1810
  728MOL0     C98172   3.192   7.092   6.328  0.4651  1.4779  0.2586
  728MOL0     C98173   3.270   7.177   6.412 -0.7760 -0.2074 -0.4020
  728MOL0     C98174   3.417   7.166   6.414 -0.4324  0.3831 -0.2969
  728MOL0     O98175   3.480   7.250   6.508 -0.2287  0.2250 -0.0731
  728MOL0     C98176   3.619   7.242   6.506  0.1384 -0.2539  0.2787
  728MOL0     C98177   3.687   7.226   6.628 -0.2393 -0.5408  0.9430
  728MOL0     C98178   3.834   7.223   6.624  0.5674 -1.1922  0.1724
  728MOL0     C98179   3.903   7.226   6.503  0.8036  0.9967 -0.2880
  728MOL0     O98180   4.041   7.220   6.484 -0.4034  0.2867  0.0820
  728MOL0     C98181   4.132   7.256   6.595 -0.1708 -0.9510 -0.0648
  728MOL0     C98182   4.276   7.249   6.553 -0.1437  1.1992 -0.5358
  728MOL0     C98183   4.322   7.104   6.540 -0.8008 -0.1989  0.4143
  728MOL0     C98184   4.470   7.083   6.514  0.5969 -1.1277 -0.3698
  728MOL0     C98185   4.516   6.938   6.533 -0.0418 -0.8253 -0.2637
  728MOL0     C98186   4.437   6.836   6.435  0.1496 -0.1380 -0.7236
  728MOL0     C98187   4.508   6.701   6.430  0.4674 -0.7134 -0.4059
  728MOL0     C98188   4.620   6.698   6.326  0.5195 -0.2240 -0.9373
  728MOL0    Cl98189   4.704   6.548   6.341  0.0171 -0.0736  0.1094
  728MOL0     C98190   3.831   7.232   6.386 -0.6772 -0.1654  0.4728
  728MOL0     C98191   3.691   7.244   6.385  0.1964  0.5236 -0.7048
  728MOL0     O98192   3.472   7.083   6.346 -0.1705  0.5712 -0.1111
  728MOL0     C98193   3.203   7.272   6.492 -0.0356  0.6673 -0.4875
  728MOL0     C98194   3.064   7.268   6.490 -0.3216 -0.3184 -0.0012
  728MOL0     N98195   2.407   7.169   6.041  0.0750 -0.1756  0.2733
  728MOL0     N98196   2.299   7.132   5.975 -0.3592  0.6706 -0.3358
  728MOL0     C98197   1.329   7.690   5.298 -0.4870  0.1460 -0.3239
  728MOL0     C98198   1.241   7.732   5.202 -0.5595  0.2637 -0.0957
  728MOL0     C98199   0.798   7.879   5.091 -0.1643  0.2271  1.0048
  728MOL0     C98200   0.848   7.900   4.964 -0.4014  0.2724 -0.2016
  728MOL0     C98201   0.760   7.939   4.863 -0.2058  0.4869 -0.2108
  728MOL0     C98202   0.626   7.955   4.892  0.5414 -0.0588 -0.6495
  728MOL0     O98203   0.531   7.981   4.796 -1.0590  0.5198 -0.2432
  728MOL0     C98204   0.562   8.089   4.702 -0.3809 -0.8797 -0.3975
  728MOL0     C98205   0.581   8.224   4.775 -0.3531 -0.2472  0.6617
  728MOL0     C98206   0.566   8.348   4.678  0.0901  0.3015  0.1148
  728MOL0     C98207   0.427   8.366   4.610  0.1631 -0.1878  0.2379
  728MOL0     C98208   0.312   8.374   4.700  0.5220 -0.6323 -0.2705
  728MOL0     C98209   0.227   8.342   4.777  0.4754  0.1146  0.3546
  728MOL0     C98210   0.579   7.940   5.027  0.4155 -1.0731 -0.0225
  728MOL0     C98211   0.670   7.911   5.128  1.1477  0.2393  0.4671
  728MOL0     C98212   0.611   7.893   5.275 -0.1620  0.3496  0.4875
  728MOL0     H98213   0.955   7.612   5.331 -0.0379 -2.1116  1.7057
  728MOL0     H98214   1.134   7.509   5.500  0.4667 -1.2404 -0.5286
  728MOL0     H98215   1.460   7.420   5.327  3.1881  0.6621 -1.9554
  728MOL0     H98216   1.575   7.510   5.431 -0.2284  0.9323 -3.7054
  728MOL0     H98217   1.544   7.254   5.470  1.3219  0.8435 -0.1142
  728MOL0     H98218   1.427   7.308   5.589 -0.6334  2.5114 -0.9765
  728MOL0     H98219   1.602   7.480   5.681  0.2202  0.0444 -0.8856
  728MOL0     H98220   1.708   7.403   5.576  0.1354  0.2426 -0.4651
  728MOL0     H98221   1.548   7.271   5.812 -0.7492 -1.6738 -0.9272
  728MOL0     H98222   1.648   7.177   5.716  0.1714  0.1312 -0.2024
  728MOL0     H98223   1.838   7.360   5.767  1.4070 -0.6354  1.3485
  728MOL0     H98224   1.740   7.394   5.900 -0.1600 -0.4994  0.1421
  728MOL0     H98225   1.763   7.188   6.002  1.2139 -2.6877 -0.0683
  728MOL0     H98226   1.833   7.115   5.852 -0.5296 -0.9859  1.1386
  728MOL0     H98227   1.959   7.344   6.015 -3.0811  0.0103  0.3087
  728MOL0     H98228   2.019   7.282   5.867 -0.5789 -0.1297 -0.5539
  728MOL0     H98229   2.014   7.149   6.133  0.7246  4.1838  0.2072
  728MOL0     H98230   2.029   7.055   5.974 -4.5375  2.0586 -2.6275
  728MOL0     H98231   2.167   7.352   6.172 -0.8496 -1.9071  1.3061
  728MOL0     H98232   2.456   7.447   6.178  2.9457 -0.5629 -0.9519
  728MOL0     H98233   2.419   7.337   6.320  1.5825  1.4075  0.7702
  728MOL0     H98234   2.634   7.285   6.129 -0.3790  3.0464 -1.0378
  728MOL0     H98235   2.663   7.381   6.265  1.0871 -1.2956 -1.7285
  728MOL0     H98236   2.546   7.099   6.284 -0.5169  1.0904 -0.3618
  728MOL0     H98237   2.585   7.196   6.428 -2.6008 -1.6249  0.9272
  728MOL0     H98238   2.808   7.092   6.237  0.0575 -0.1120  1.1378
  728MOL0     H98239   2.751   7.019   6.383 -3.6150  0.7445  1.1036
  728MOL0     H98240   3.010   7.007   6.263 -4.2328  0.7638  1.8686
  728MOL0     H98241   3.239   7.026   6.257 -2.4799 -1.1012  0.4736
  728MOL0     H98242   3.620   7.230   6.712 -1.4866  1.0004 -0.0622
  728MOL0     H98243   3.885   7.225   6.720 -1.3307  0.4118  1.2231
  728MOL0     H98244   4.120   7.361   6.623  2.6141 -0.8708  1.1050
  728MOL0     H98245   4.122   7.190   6.682 -1.7036  0.6085  1.0415
  728MOL0     H98246   4.288   7.316   6.467  0.8120  0.9895 -0.5800
  728MOL0     H98247   4.327   7.279   6.645 -0.4847 -1.5560  0.6600
  728MOL0     H98248   4.311   7.061   6.640  1.9322 -0.6001  0.6189
  728MOL0     H98249   4.264   7.057   6.460 -0.9823  2.0912 -0.8893
  728MOL0     H98250   4.532   7.144   6.581  1.0715 -1.3052 -0.6389
  728MOL0     H98251   4.485   7.109   6.408 -0.6867  1.4745  0.0047
  728MOL0     H98252   4.496   6.916   6.638  0.5948  2.1826  0.5863
  728MOL0     H98253   4.625   6.931   6.525 -0.0563 -0.8441 -0.4713
  728MOL0     H98254   4.334   6.812   6.465 -0.2619 -0.0051 -1.9949
  728MOL0     H98255   4.429   6.867   6.331  2.2678 -2.4253 -1.6392
  728MOL0     H98256   4.438   6.625   6.394 -0.4541 -0.2532  0.3656
  728MOL0     H98257   4.550   6.665   6.524  0.6796 -0.9062 -0.5755
  728MOL0     H98258   4.588   6.725   6.225 -3.8604 -1.9015 -0.2069
  728MOL0     H98259   4.691   6.779   6.348 -0.9211  1.9243 -3.5627
  728MOL0     H98260   3.890   7.216   6.297 -0.7899 -0.6416  0.4787
  728MOL0     H98261   3.640   7.264   6.292 -0.4696 -0.3562 -0.5458
  728MOL0     H98262   3.257   7.342   6.556 -0.8343  1.8727 -1.0958
  728MOL0     H98263   2.997   7.325   6.553  1.3134 -1.0857  2.6028
  728MOL0     H98264   1.432   7.724   5.291 -0.5716  0.7090  0.8033
  728MOL0     H98265   1.264   7.806   5.127 -0.3570  0.7136  0.4072
  728MOL0     H98266   0.953   7.914   4.942 -0.6244  0.0460 -1.4896
  728MOL0     H98267   0.800   7.969   4.767  1.1728  1.5706  0.6558
  728MOL0     H98268   0.474   8.089   4.637 -2.1776 -2.1775  1.8708
  728MOL0     H98269   0.652   8.060   4.646  0.7744  1.5254  0.0806
  728MOL0     H98270   0.673   8.220   4.835 -0.5929 -1.8732  0.9665
  728MOL0     H98271   0.498   8.222   4.846 -1.9312  0.4441 -1.0976
  728MOL0     H98272   0.648   8.351   4.606  0.2299  0.3176  0.2727
  728MOL0     H98273   0.587   8.442   4.729 -2.5887  0.1209  1.7506
  728MOL0     H98274   0.420   8.464   4.561 -0.0370  0.5548  1.7070
  728MOL0     H98275   0.416   8.285   4.538  1.4644 -0.0380 -0.1557
  728MOL0     H98276   0.145   8.320   4.844  0.2372 -0.4840 -0.1178
  728MOL0     H98277   0.474   7.946   5.055 -0.0546  0.3010 -1.8884
  728MOL0     H98278   0.502   7.902   5.267  0.1553  3.4283 -1.9681
  728MOL0     H98279   0.635   7.794   5.317  2.0008 -0.7945 -2.9782
  728MOL0     H98280   0.641   7.966   5.350  1.1099 -0.8560  1.2112
  729MOL0     O98281   4.374  10.401   5.719  0.2765  0.5758  0.4088
  729MOL0     C98282   4.345  10.394   5.594 -0.0166 -0.7150  0.6715
  729MOL0     O98283   4.432  10.392   5.491  0.2834 -0.5665 -0.8481
  729MOL0     C98284   4.562  10.351   5.521  0.8016  0.4241  0.2881
  729MOL0     C98285   4.599  10.231   5.589 -0.1567 -1.0116 -0.5429
  729MOL0     C98286   4.731  10.206   5.614  0.6531  0.3095  0.4499
  729MOL0     C98287   4.831  10.288   5.575 -0.7229  1.1639  0.3455
  729MOL0     O98288   4.963  10.251   5.601  0.3262  0.6036 -0.2990
  729MOL0     C98289   5.075  10.344   5.583 -0.6071  0.1587  0.6925
  729MOL0     C98290   5.208  10.273   5.603 -0.2580  0.3886 -0.0740
  729MOL0     C98291   5.238  10.182   5.474  0.4783 -0.0062 -0.3721
  729MOL0     C98292   5.374  10.110   5.494  0.5359 -0.5427 -0.0372
  729MOL0     C98293   5.368   9.995   5.596  0.5281  0.4458  0.0451
  729MOL0     C98294   5.510   9.946   5.615 -0.3953 -0.0065 -0.2199
  729MOL0     C98295   5.492   9.815   5.698  0.2288  0.2215  1.1843
  729MOL0     C98296   5.609   9.702   5.687  0.4206  0.4331 -0.7377
  729MOL0     N98297   5.693   9.718   5.798 -0.3207 -0.1435 -0.1670
  729MOL0     C98298   5.736   9.831   5.861 -0.1312 -0.5653 -0.1156
  729MOL0     C98299   5.815   9.786   5.963  0.8860  0.4256 -0.6035
  729MOL0     C98300   5.906   9.877   6.041  0.7386 -0.3063 -0.6678
  729MOL0     C98301   6.038   9.905   5.965 -0.1131  0.7315 -0.3879
  729MOL0     C98302   6.150   9.804   6.009  0.3776 -0.3284  0.6629
  729MOL0     C98303   6.122   9.663   6.002 -0.2499 -0.0322  0.1075
  729MOL0     O98304   6.243   9.587   6.027  0.1966 -0.9797  0.3126
  729MOL0     C98305   6.261   9.525   6.142  0.2573  0.0880 -0.1520
  729MOL0     C98306   6.303   9.394   6.130 -0.3543 -0.3181  0.2707
  729MOL0     C98307   6.307   9.310   6.240  0.2136  0.2372 -0.3911
  729MOL0     C98308   6.267   9.357   6.367 -0.1874 -0.3023 -0.5299
  729MOL0     C98309   6.263   9.266   6.474  0.4666  0.2500 -1.4195
  729MOL0     O98310   6.229   9.316   6.587  0.4117 -0.6669 -0.1597
  729MOL0     C98311   6.250   9.233   6.695  0.6603 -0.5387 -0.1418
  729MOL0     C98312   6.330   9.285   6.790  0.2660  0.2380  0.3398
  729MOL0     C98313   6.374   9.206   6.898  0.1138  0.2487 -0.0245
  729MOL0     C98314   6.327   9.073   6.911 -0.0283 -0.4988 -0.3720
  729MOL0     O98315   6.381   9.010   7.023 -0.0086  0.1923  0.1486
  729MOL0     C98316   6.279   8.989   7.127  0.6147  0.2071  0.0329
  729MOL0     C98317   6.314   9.043   7.257 -0.0539  1.0763 -0.1964
  729MOL0     C98318   6.356   9.194   7.254  0.0479 -0.3900 -0.6999
  729MOL0     C98319   6.388   9.255   7.394  0.0946  0.2285  0.3223
  729MOL0     C98320   6.386   9.413   7.405 -0.6325  0.0813  0.5588
  729MOL0     C98321   6.423   9.448   7.543 -0.1199 -0.0900  0.0812
  729MOL0     C98322   6.439   9.597   7.557 -0.4026  0.0428 -1.0025
  729MOL0     C98323   6.436   9.644   7.697  0.1000  0.1639  0.3891
  729MOL0    Cl98324   6.482   9.808   7.703 -0.1999 -0.2821 -0.3397
  729MOL0     C98325   6.239   9.025   6.814 -0.4701 -0.8089  0.0474
  729MOL0     C98326   6.195   9.104   6.706 -0.0616 -0.2399 -0.1018
  729MOL0     O98327   6.286   9.145   6.449  0.6966 -0.4974  0.1324
  729MOL0     C98328   6.241   9.495   6.378  0.3173  0.0057 -0.3313
  729MOL0     C98329   6.232   9.573   6.274  0.8180  0.1317 -0.2342
  729MOL0     N98330   5.808   9.649   5.970 -0.2830  0.2248  0.2266
  729MOL0     N98331   5.735   9.611   5.868 -0.3756  0.4702 -0.8668
  729MOL0     C98332   4.799  10.404   5.509  0.4806 -0.1456 -0.6846
  729MOL0     C98333   4.665  10.432   5.482  0.1924 -0.0800 -0.4329
  729MOL0     C98334   4.197  10.394   5.549 -0.7380  0.3622  0.1640
  729MOL0     C98335   4.110  10.360   5.650 -0.2685  1.0590  0.2518
  729MOL0     C98336   3.969  10.365   5.629 -0.0649  0.2245  0.0278
  729MOL0     C98337   3.909  10.424   5.515  0.0448  0.5866  0.3204
  729MOL0     O98338   3.772  10.440   5.502  0.0903 -0.0955  0.3851
  729MOL0     C98339   3.700  10.422   5.388  0.4970  0.6946  0.8764
  729MOL0     C98340   3.564  10.367   5.421  0.1324 -0.8593  0.2975
  729MOL0     C98341   3.567  10.240   5.502 -1.2565  0.2858 -0.6443
  729MOL0     C98342   3.439  10.224   5.594 -0.0179 -0.3979 -0.0139
  729MOL0     C98343   3.312  10.237   5.534  0.0474  0.2937  0.5322
  729MOL0     C98344   3.203  10.221   5.474 -0.0497  0.8854 -0.7182
  729MOL0     C98345   4.005  10.460   5.414  0.1976 -0.3181 -0.9111
  729MOL0     C98346   4.146  10.446   5.423  0.0398  0.3060  0.2226
  729MOL0     C98347   4.226  10.487   5.304  0.0977  0.1598  1.1115
  729MOL0     H98348   4.526  10.155   5.617  0.1774 -1.0430  0.2818
  729MOL0     H98349   4.751  10.119   5.675  1.8732  0.2590 -0.0062
  729MOL0     H98350   5.078  10.379   5.479  1.8872 -3.8093 -0.8024
  729MOL0     H98351   5.076  10.420   5.661  3.1702 -1.8299  2.8806
  729MOL0     H98352   5.189  10.218   5.696  2.8831 -0.8668 -0.0341
  729MOL0     H98353   5.291  10.340   5.625 -0.1664 -0.0468  0.9776
  729MOL0     H98354   5.254  10.255   5.394 -0.4715 -1.1406 -1.6533
  729MOL0     H98355   5.157  10.116   5.440  0.1101  0.5265 -0.5389
  729MOL0     H98356   5.403  10.074   5.395  4.1983  0.4834  0.5383
  729MOL0     H98357   5.447  10.191   5.506 -0.5164  0.8786 -2.3473
  729MOL0     H98358   5.343  10.034   5.695 -1.2684  0.0960 -0.2410
  729MOL0     H98359   5.298   9.917   5.565 -1.3119  1.5572  1.2103
  729MOL0     H98360   5.558   9.917   5.521  0.6068  0.4843  0.1286
  729MOL0     H98361   5.566  10.022   5.670  1.0301  0.0496 -1.6844
  729MOL0     H98362   5.395   9.770   5.674  0.3821  0.4128  0.1894
  729MOL0     H98363   5.491   9.834   5.806  1.7953 -1.8562  1.6127
  729MOL0     H98364   5.557   9.606   5.698  0.4144  0.1519 -2.7234
  729MOL0     H98365   5.671   9.707   5.597  0.3114  0.1060 -0.8336
  729MOL0     H98366   5.725   9.928   5.813 -1.3768 -0.9121 -0.5747
  729MOL0     H98367   5.850   9.969   6.057 -1.7847 -1.7225 -0.7356
  729MOL0     H98368   5.927   9.839   6.141  0.8863  2.2045  0.3217
  729MOL0     H98369   6.019   9.903   5.857  1.2763  1.3649 -0.6689
  729MOL0     H98370   6.064  10.010   5.983 -0.4175  0.4748  1.7952
  729MOL0     H98371   6.177   9.832   6.111  0.5311  1.6707  0.1263
  729MOL0     H98372   6.227   9.821   5.934  0.2015  0.7838  0.7116
  729MOL0     H98373   6.082   9.644   5.902 -0.9453  0.2926  0.3211
  729MOL0     H98374   6.050   9.637   6.080 -0.6748 -2.7692 -1.0747
  729MOL0     H98375   6.319   9.361   6.028 -0.2014  2.2497 -0.6021
  729MOL0     H98376   6.317   9.203   6.222 -1.5767  0.1588 -1.0687
  729MOL0     H98377   6.352   9.388   6.765 -2.4568  0.3641 -2.0502
  729MOL0     H98378   6.442   9.239   6.976  2.3981 -2.4894 -0.6708
  729MOL0     H98379   6.189   9.043   7.097  0.7222  1.0279  1.1061
  729MOL0     H98380   6.247   8.886   7.140 -2.2186  0.6266 -2.5459
  729MOL0     H98381   6.230   9.043   7.326 -0.0715  0.7798 -0.2163
  729MOL0     H98382   6.397   8.985   7.299 -1.1418  0.0948  0.6306
  729MOL0     H98383   6.440   9.206   7.184 -0.1078  1.4519 -0.6222
  729MOL0     H98384   6.274   9.256   7.217  0.9969  0.5968 -1.2390
  729MOL0     H98385   6.488   9.217   7.418  0.3569  0.1148 -0.9030
  729MOL0     H98386   6.307   9.214   7.456  0.0810 -0.5098 -0.1712
  729MOL0     H98387   6.293   9.458   7.369 -0.1777 -0.5287 -1.5358
  729MOL0     H98388   6.467   9.450   7.341 -1.6444 -0.9150 -1.3865
  729MOL0     H98389   6.344   9.414   7.610 -0.3110  2.3758  1.2340
  729MOL0     H98390   6.511   9.396   7.583 -0.7838 -0.0516  1.6600
  729MOL0     H98391   6.358   9.644   7.501 -0.8779 -1.6321 -1.7932
  729MOL0     H98392   6.535   9.627   7.513 -0.6183  1.4234 -0.5846
  729MOL0     H98393   6.341   9.632   7.751 -0.0302 -0.8114 -0.0352
  729MOL0     H98394   6.498   9.577   7.756 -2.7451 -1.0711  2.2289
  729MOL0     H98395   6.212   8.920   6.821  0.7184 -1.1545 -0.2522
  729MOL0     H98396   6.123   9.064   6.636  1.3581  1.1203 -2.4831
  729MOL0     H98397   6.213   9.531   6.476  1.2156  0.3732 -0.2029
  729MOL0     H98398   6.204   9.678   6.276 -2.9607 -0.7320  0.5250
  729MOL0     H98399   4.877  10.474   5.481  0.8296  0.6989  2.0170
  729MOL0     H98400   4.644  10.533   5.447  1.9007  0.8109  0.9795
  729MOL0     H98401   4.139  10.329   5.750 -0.8624 -0.2421  0.0521
  729MOL0     H98402   3.915  10.332   5.717  0.3201  0.4891  0.3658
  729MOL0     H98403   3.739  10.335   5.335  0.8818 -0.5695  3.0915
  729MOL0     H98404   3.710  10.511   5.326 -2.9635 -0.4607 -1.6846
  729MOL0     H98405   3.506  10.349   5.330 -1.7927  1.6063  0.9201
  729MOL0     H98406   3.500  10.438   5.475 -1.8161 -2.4065  0.0986
  729MOL0     H98407   3.650  10.233   5.573 -1.6194  1.2695 -0.1100
  729MOL0     H98408   3.579  10.158   5.430  0.3086  0.1477 -0.2570
  729MOL0     H98409   3.443  10.126   5.643  0.3504 -0.8879 -1.0012
  729MOL0     H98410   3.440  10.308   5.663  1.4342  0.5478 -1.1368
  729MOL0     H98411   3.117  10.221   5.410  0.3334 -0.4248 -1.2608
  729MOL0     H98412   3.976  10.521   5.329  3.6095  5.5676  1.4991
  729MOL0     H98413   4.313  10.551   5.325 -1.3385  1.9454  1.8618
  729MOL0     H98414   4.266  10.397   5.257  0.8662  0.0545  1.9342
  729MOL0     H98415   4.159  10.541   5.236  0.6016  0.8809  1.1636
  730MOL0     O98416   7.673   6.121  10.906  0.1471  0.3947 -0.0400
  730MOL0     C98417   7.609   6.038  10.838  1.0441  0.1532  0.8079
  730MOL0     O98418   7.642   6.012  10.705  0.5425 -0.6646 -0.7900
  730MOL0     C98419   7.750   6.076  10.655 -0.1343 -0.0463  0.1785
  730MOL0     C98420   7.725   6.173  10.567 -0.4437  0.1416 -0.4457
  730MOL0     C98421   7.825   6.249  10.505 -1.1134 -0.0686  0.2403
  730MOL0     C98422   7.961   6.220  10.533 -0.2622 -0.2443  0.9220
  730MOL0     O98423   8.070   6.289  10.487  0.3042 -0.4041  0.4602
  730MOL0     C98424   8.041   6.422  10.445  0.6987  0.1174  0.5461
  730MOL0     C98425   8.176   6.484  10.434  0.1391  0.3239 -0.8130
  730MOL0     C98426   8.180   6.635  10.404 -0.0896  0.7621 -0.2600
  730MOL0     C98427   8.329   6.677  10.384 -1.0530 -0.5639  0.0587
  730MOL0     C98428   8.353   6.824  10.357  0.8417  0.0030  0.2576
  730MOL0     C98429   8.320   6.874  10.212  0.1363 -0.2232  0.2837
  730MOL0     C98430   8.375   6.801  10.082  0.2617  0.1012 -0.5323
  730MOL0     C98431   8.530   6.792  10.089  0.1515  0.6896  0.6998
  730MOL0     N98432   8.589   6.749   9.958  0.8921 -0.2264 -0.2447
  730MOL0     C98433   8.618   6.616   9.921 -0.0836  0.1469  0.4027
  730MOL0     C98434   8.682   6.628   9.799  0.3927 -0.9303 -0.6141
  730MOL0     C98435   8.733   6.512   9.708 -0.0336  0.1992 -0.2700
  730MOL0     C98436   8.831   6.424   9.791  0.1672 -0.2342 -0.0481
  730MOL0     C98437   8.907   6.311   9.720  1.1698 -0.0798 -0.4787
  730MOL0     C98438   9.000   6.360   9.613  0.2267  0.8995 -0.7785
  730MOL0     O98439   9.106   6.441   9.674  0.5028 -0.4646 -0.4317
  730MOL0     C98440   9.228   6.447   9.607  0.2345 -0.1794 -0.1338
  730MOL0     C98441   9.327   6.516   9.669 -0.0759  0.2141 -0.0602
  730MOL0     C98442   9.460   6.527   9.616  1.0902  0.6364  0.2640
  730MOL0     C98443   9.485   6.463   9.492 -0.4364 -0.3014 -0.3668
  730MOL0     C98444   9.610   6.466   9.432 -0.6296 -0.6467  0.3189
  730MOL0     O98445   9.691   6.558   9.494  0.6755  0.5269 -0.0359
  730MOL0     C98446   9.826   6.582   9.460 -0.5107 -0.0485 -1.2530
  730MOL0     C98447   9.924   6.481   9.446 -0.0004 -0.5631 -0.5946
  730MOL0     C98448  10.054   6.506   9.420 -0.6152  0.0554 -0.3480
  730MOL0     C98449  10.105   6.640   9.416  0.7186 -0.0656  0.2238
  730MOL0     O98450  10.237   6.654   9.384 -0.1411 -0.0017  0.0652
  730MOL0     C98451  10.269   6.787   9.328 -0.3323  0.0836 -0.1396
  730MOL0     C98452  10.422   6.792   9.331 -0.4570 -0.1009 -0.4811
  730MOL0     C98453  10.482   6.902   9.244 -0.1540  0.1170  0.0172
  730MOL0     C98454  10.634   6.893   9.241 -0.0166 -0.1880  0.4224
  730MOL0     C98455  10.689   6.993   9.134  0.1510  0.6941 -0.0237
  730MOL0     C98456  10.744   7.131   9.199  1.0425  0.5507  1.2827
  730MOL0     C98457  10.845   7.124   9.323 -0.8938  0.5019  0.1473
  730MOL0     C98458  10.922   7.255   9.339  0.4469 -0.9800 -0.2004
  730MOL0    Cl98459  10.802   7.384   9.375  0.2019 -0.1115  0.3310
  730MOL0     C98460  10.005   6.750   9.423  0.2887  1.1506 -0.9302
  730MOL0     C98461   9.876   6.715   9.458  0.8028  0.4477 -0.6206
  730MOL0     O98462   9.640   6.407   9.329 -0.0331  0.3230  0.0969
  730MOL0     C98463   9.378   6.406   9.418 -0.2450 -0.4241 -0.8212
  730MOL0     C98464   9.249   6.403   9.473  0.9435  0.4084 -0.5332
  730MOL0     N98465   8.704   6.757   9.768 -0.9598  0.1616  0.7007
  730MOL0     N98466   8.644   6.822   9.862 -1.1555  0.0214 -0.0077
  730MOL0     C98467   7.988   6.116  10.616  0.7526  0.4392 -0.4498
  730MOL0     C98468   7.886   6.046  10.689 -0.1480 -0.5321 -0.8292
  730MOL0     C98469   7.491   5.978  10.915 -0.9230  0.1036 -0.1119
  730MOL0     C98470   7.491   5.983  11.056  0.7528 -0.0570  0.5796
  730MOL0     C98471   7.392   5.924  11.137  0.2874 -0.3540 -0.0473
  730MOL0     C98472   7.277   5.869  11.077  0.0381  0.6261 -0.6279
  730MOL0     O98473   7.171   5.823  11.152  0.1649 -0.6481 -0.6756
  730MOL0     C98474   7.053   5.781  11.081  0.5949  0.2516 -0.8238
  730MOL0     C98475   6.967   5.723  11.201  0.5524 -0.7374  0.5158
  730MOL0     C98476   6.829   5.679  11.141  0.1165 -0.0346 -0.5144
  730MOL0     C98477   6.744   5.612  11.249 -0.3755  0.1273  0.2998
  730MOL0     C98478   6.684   5.707  11.347  0.0216 -0.0415  0.1896
  730MOL0     C98479   6.635   5.800  11.413  0.8756  0.4503  0.0569
  730MOL0     C98480   7.276   5.866  10.928  0.0358  1.4411 -0.0467
  730MOL0     C98481   7.385   5.915  10.850 -0.3868  0.0142  0.1935
  730MOL0     C98482   7.390   5.899  10.700 -0.5429  1.0310  0.5963
  730MOL0     H98483   7.625   6.208  10.545  0.1710  1.7322 -0.8408
  730MOL0     H98484   7.798   6.326  10.434 -2.1616 -1.7260 -1.2146
  730MOL0     H98485   7.984   6.426  10.352 -1.0704 -2.4871  1.4169
  730MOL0     H98486   7.981   6.472  10.521 -0.7858 -0.6648 -0.0637
  730MOL0     H98487   8.227   6.415  10.367  3.2007 -0.6968  2.2484
  730MOL0     H98488   8.221   6.475  10.534 -2.9304 -0.7939  0.6054
  730MOL0     H98489   8.134   6.692  10.486  0.4638  2.6241 -1.1916
  730MOL0     H98490   8.116   6.642  10.315 -0.2461  0.3058 -0.1854
  730MOL0     H98491   8.377   6.668  10.482 -0.5767  3.5724  0.3938
  730MOL0     H98492   8.374   6.607  10.314  2.1059 -0.5962  1.9271
  730MOL0     H98493   8.297   6.883  10.430 -1.2558 -0.1403 -1.1276
  730MOL0     H98494   8.453   6.851  10.389  1.6873 -2.8427  0.2746
  730MOL0     H98495   8.214   6.868  10.187  0.0418  0.1451  0.5886
  730MOL0     H98496   8.350   6.978  10.224 -0.6636 -0.3056  4.5846
  730MOL0     H98497   8.334   6.860   9.999 -2.8763  1.1789  1.5847
  730MOL0     H98498   8.333   6.701  10.070  0.2523  0.2458 -1.8489
  730MOL0     H98499   8.581   6.881  10.128  1.0235  0.0736  1.0106
  730MOL0     H98500   8.567   6.719  10.161  0.3067 -1.0608 -1.0488
  730MOL0     H98501   8.599   6.523   9.975 -1.0645  0.2946  0.3326
  730MOL0     H98502   8.652   6.445   9.677 -1.5773  1.3758  1.0420
  730MOL0     H98503   8.777   6.553   9.617 -1.9011  1.8694 -0.4782
  730MOL0     H98504   8.902   6.489   9.843 -4.9425  1.8371  5.4327
  730MOL0     H98505   8.774   6.376   9.871 -0.3670  0.4733  0.0062
  730MOL0     H98506   8.835   6.242   9.678  0.9439  0.6504 -1.3239
  730MOL0     H98507   8.961   6.257   9.799  0.0726 -1.6643 -0.7870
  730MOL0     H98508   8.940   6.415   9.540 -0.1919 -3.8937 -4.5443
  730MOL0     H98509   9.046   6.273   9.567 -1.4506 -0.0131 -0.8178
  730MOL0     H98510   9.307   6.561   9.766  2.3977  1.5714 -0.1083
  730MOL0     H98511   9.531   6.569   9.686  2.2525  2.5391 -1.9192
  730MOL0     H98512   9.887   6.380   9.457 -0.2498 -0.3383  0.8503
  730MOL0     H98513  10.119   6.422   9.399  0.6069  1.0262 -0.6117
  730MOL0     H98514  10.231   6.804   9.226 -0.7955 -0.1876 -0.0138
  730MOL0     H98515  10.242   6.870   9.393  1.7268  0.1373  0.7211
  730MOL0     H98516  10.457   6.801   9.435 -0.8632  1.1982 -0.4383
  730MOL0     H98517  10.454   6.696   9.291 -0.8025  0.1719 -1.4238
  730MOL0     H98518  10.438   6.909   9.145 -1.6500  1.9734  0.7446
  730MOL0     H98519  10.447   6.995   9.290  0.0590  1.1248 -1.7992
  730MOL0     H98520  10.658   6.793   9.204  0.7944  0.2918 -0.4147
  730MOL0     H98521  10.683   6.897   9.338  0.2491  1.2848  0.2490
  730MOL0     H98522  10.608   7.006   9.062  1.6846  0.3736 -1.9134
  730MOL0     H98523  10.770   6.938   9.084 -0.1506  1.0754 -0.9629
  730MOL0     H98524  10.790   7.193   9.121 -1.0019  1.2505  0.5860
  730MOL0     H98525  10.658   7.189   9.232  0.8265  0.8981  0.1361
  730MOL0     H98526  10.908   7.035   9.318 -2.1025 -0.3507 -0.4648
  730MOL0     H98527  10.787   7.111   9.415 -0.2201 -1.4234  0.3289
  730MOL0     H98528  10.994   7.258   9.420  0.8846 -0.8450 -0.5913
  730MOL0     H98529  10.973   7.271   9.243  0.4703 -4.2301 -0.8331
  730MOL0     H98530  10.027   6.856   9.424 -2.4301  1.7925  0.6417
  730MOL0     H98531   9.809   6.798   9.481  2.6202  2.3852 -1.9119
  730MOL0     H98532   9.380   6.359   9.321  1.6329 -3.3949  0.4913
  730MOL0     H98533   9.172   6.363   9.408  0.2223 -1.5833  1.4159
  730MOL0     H98534   8.094   6.103  10.636  1.0104  2.9097  0.0982
  730MOL0     H98535   7.898   5.966  10.761 -0.7598  1.2314  1.3374
  730MOL0     H98536   7.581   6.014  11.109 -0.1677  0.7092  1.7623
  730MOL0     H98537   7.393   5.940  11.244  0.5636  2.6434 -0.4093
  730MOL0     H98538   7.074   5.696  11.015  0.3651  0.6173 -1.3755
  730MOL0     H98539   7.017   5.868  11.027  0.6628  0.5441 -0.4027
  730MOL0     H98540   6.964   5.804  11.274  1.2583  0.1756 -0.4413
  730MOL0     H98541   7.016   5.637  11.249 -0.2557 -0.8420  1.1845
  730MOL0     H98542   6.845   5.612  11.056 -0.7782 -1.3299  0.3026
  730MOL0     H98543   6.779   5.764  11.093 -0.3565  1.7425  2.8391
  730MOL0     H98544   6.657   5.559  11.208 -0.2450  0.2840 -0.1836
  730MOL0     H98545   6.813   5.541  11.295  0.9861  1.8247  0.9816
  730MOL0     H98546   6.588   5.881  11.465  1.1283  0.2416  0.6146
  730MOL0     H98547   7.196   5.820  10.871  1.6063  0.1865 -1.3249
  730MOL0     H98548   7.296   5.852  10.669 -2.2002  3.2031  2.0171
  730MOL0     H98549   7.396   5.992  10.644  1.4215 -0.6384 -2.2870
  730MOL0     H98550   7.472   5.836  10.662 -1.6737 -1.4136  1.9463
  731MOL0     O98551   5.021   9.954   6.099  0.5529 -0.3819  0.9141
  731MOL0     C98552   5.042   9.932   5.979 -0.1416 -0.1237 -0.4388
  731MOL0     O98553   5.173   9.943   5.924  0.2993  0.2065  0.2850
  731MOL0     C98554   5.282   9.960   6.010  0.3009  0.1022  0.3350
  731MOL0     C98555   5.380  10.054   5.977  0.3854 -0.6463  0.2143
  731MOL0     C98556   5.497  10.072   6.058 -0.2889  0.2713 -0.6292
  731MOL0     C98557   5.520   9.997   6.167  0.7596  0.2630  0.5460
  731MOL0     O98558   5.639   9.993   6.232  0.2966 -0.4858  0.8046
  731MOL0     C98559   5.655  10.115   6.306  0.5128  1.3920 -0.3146
  731MOL0     C98560   5.784  10.182   6.245 -0.0029  1.1816  0.0224
  731MOL0     C98561   5.899  10.130   6.333  0.3717  0.6130 -0.0426
  731MOL0     C98562   6.038  10.165   6.272 -0.2310 -0.4100 -0.7746
  731MOL0     C98563   6.148  10.075   6.310 -0.1490 -0.1817  0.2769
  731MOL0     C98564   6.269  10.084   6.216 -0.5821 -0.5440  0.0535
  731MOL0     C98565   6.367   9.975   6.264 -0.1009 -0.1936 -0.3962
  731MOL0     C98566   6.486   9.960   6.174 -1.1037 -0.0023  0.6891
  731MOL0     N98567   6.589   9.870   6.226  0.0554  0.7537  0.5236
  731MOL0     C98568   6.587   9.736   6.199 -0.1912  0.9722  0.2547
  731MOL0     C98569   6.686   9.685   6.286  0.0318 -0.2540  0.3115
  731MOL0     C98570   6.719   9.543   6.283 -0.2632 -0.3327 -0.1634
  731MOL0     C98571   6.686   9.482   6.422  0.0951  0.2695 -0.7044
  731MOL0     C98572   6.687   9.326   6.414 -0.8626 -0.1916  0.1627
  731MOL0     C98573   6.663   9.261   6.543 -0.1848  0.3939 -0.6803
  731MOL0     O98574   6.766   9.308   6.636  0.2963 -0.6036  0.4805
  731MOL0     C98575   6.738   9.298   6.770 -0.5974  0.1809 -0.1869
  731MOL0     C98576   6.745   9.414   6.843 -0.2453 -0.7383 -1.1018
  731MOL0     C98577   6.730   9.406   6.984 -0.8073  1.0162  0.1660
  731MOL0     C98578   6.715   9.283   7.047  0.0712 -0.3190 -0.0532
  731MOL0     C98579   6.722   9.274   7.198 -0.5203 -0.1642  0.2040
  731MOL0     O98580   6.720   9.153   7.262 -0.1291 -0.2375  0.8465
  731MOL0     C98581   6.753   9.136   7.393 -0.0076 -0.3585 -0.0057
  731MOL0     C98582   6.729   9.004   7.441 -0.5991  0.3189  0.4057
  731MOL0     C98583   6.753   8.973   7.573  0.3370 -0.4434 -0.3659
  731MOL0     C98584   6.794   9.070   7.663 -0.0273  0.1115  0.0087
  731MOL0     O98585   6.805   9.032   7.801 -0.2439  0.0548 -0.0800
  731MOL0     C98586   6.850   9.123   7.902 -0.2117 -1.0229  0.1740
  731MOL0     C98587   6.999   9.157   7.896  0.1892 -0.0614  0.8172
  731MOL0     C98588   7.054   9.157   8.048 -0.2412  0.6770 -0.2754
  731MOL0     C98589   7.211   9.153   8.066 -0.7807 -0.0680  0.1522
  731MOL0     C98590   7.254   9.129   8.212 -0.3849  0.2242 -0.3161
  731MOL0     C98591   7.405   9.094   8.223 -1.0878  0.1026  0.9089
  731MOL0     C98592   7.461   9.100   8.370 -0.8609 -1.0739  0.0263
  731MOL0     C98593   7.601   9.042   8.403 -0.6324  0.2380  0.1875
  731MOL0    Cl98594   7.724   9.099   8.300 -0.4641  0.0522 -0.2759
  731MOL0     C98595   6.822   9.200   7.616  0.8349 -0.4478 -0.1131
  731MOL0     C98596   6.801   9.229   7.480  0.0306 -0.1451 -0.3096
  731MOL0     O98597   6.721   9.383   7.254 -1.0437  0.3030 -0.6019
  731MOL0     C98598   6.706   9.168   6.966 -0.2904 -0.5917 -0.1224
  731MOL0     C98599   6.709   9.180   6.830  0.0917 -0.4470  0.2923
  731MOL0     N98600   6.742   9.789   6.356  0.6288  0.2017 -0.2778
  731MOL0     N98601   6.690   9.896   6.318  0.5586 -0.4584  0.4883
  731MOL0     C98602   5.421   9.905   6.202  0.8478  0.2006 -0.6578
  731MOL0     C98603   5.300   9.886   6.128 -0.2478 -0.4835  0.0688
  731MOL0     C98604   4.926   9.903   5.884 -0.4431  0.0699  0.0471
  731MOL0     C98605   4.948   9.939   5.751  0.2196 -0.1975  0.3991
  731MOL0     C98606   4.862   9.891   5.649 -0.2444 -0.6713  0.3341
  731MOL0     C98607   4.748   9.810   5.678  0.4598 -0.9116 -0.6292
  731MOL0     O98608   4.655   9.765   5.583  0.1079  0.2552 -0.0062
  731MOL0     C98609   4.649   9.847   5.464 -0.1747  0.6450  0.4707
  731MOL0     C98610   4.516   9.812   5.387  0.4530  0.5307  0.1394
  731MOL0     C98611   4.494   9.917   5.279  0.7809 -0.1459  0.1662
  731MOL0     C98612   4.448  10.058   5.323 -0.5589 -0.1131  0.3077
  731MOL0     C98613   4.309  10.059   5.374  0.6219 -0.4653 -0.7893
  731MOL0     C98614   4.191  10.085   5.393 -0.0690  0.1865 -0.3578
  731MOL0     C98615   4.725   9.786   5.810  0.2857  0.4368 -0.1988
  731MOL0     C98616   4.815   9.826   5.913 -0.3075 -0.6939 -0.2180
  731MOL0     C98617   4.782   9.760   6.047  0.3885 -0.0428 -0.8541
  731MOL0     H98618   5.361  10.118   5.892  0.8673  2.4481  2.2776
  731MOL0     H98619   5.572  10.144   6.027  0.3288 -1.2680 -2.8810
  731MOL0     H98620   5.574  10.188   6.294 -0.7227  0.1427  0.1412
  731MOL0     H98621   5.675  10.094   6.412 -2.0065 -0.9865 -0.1944
  731MOL0     H98622   5.778  10.291   6.248  1.4589  1.2625  2.2675
  731MOL0     H98623   5.787  10.163   6.137 -0.3301  1.9134 -0.1201
  731MOL0     H98624   5.891  10.022   6.350  1.2373  0.6821  0.9046
  731MOL0     H98625   5.895  10.177   6.431  0.4268  0.9620 -0.2069
  731MOL0     H98626   6.028  10.165   6.163 -1.1452 -0.0177 -0.6979
  731MOL0     H98627   6.053  10.269   6.304 -0.7927 -0.8573  1.0613
  731MOL0     H98628   6.182  10.089   6.413  0.5681 -0.4436  0.0787
  731MOL0     H98629   6.101   9.977   6.307 -1.0214  0.2138  0.6454
  731MOL0     H98630   6.244  10.059   6.112  0.2219 -3.6881  0.5082
  731MOL0     H98631   6.322  10.179   6.224  0.4356 -1.0138 -0.8285
  731MOL0     H98632   6.315   9.882   6.240  1.1890 -0.2812 -3.2053
  731MOL0     H98633   6.389   9.981   6.371 -0.3792 -2.2555 -0.1794
  731MOL0     H98634   6.463   9.934   6.070  0.5316  1.2328 -0.0367
  731MOL0     H98635   6.521  10.064   6.181 -2.0673  0.4187 -0.3581
  731MOL0     H98636   6.536   9.674   6.126  2.3430  0.9046 -1.6093
  731MOL0     H98637   6.655   9.495   6.208 -1.7560  1.6589 -0.2330
  731MOL0     H98638   6.825   9.537   6.255 -0.1950  0.2378 -0.0331
  731MOL0     H98639   6.755   9.526   6.495  0.6334 -2.0832  0.2914
  731MOL0     H98640   6.591   9.528   6.452  1.0398  0.3850  2.4759
  731MOL0     H98641   6.785   9.296   6.374 -0.0747 -0.8188  2.4514
  731MOL0     H98642   6.608   9.298   6.344 -2.4860 -0.8522  2.1753
  731MOL0     H98643   6.657   9.152   6.533 -1.9115  0.4486 -0.4241
  731MOL0     H98644   6.563   9.291   6.574  0.2136  2.3067 -1.1015
  731MOL0     H98645   6.780   9.508   6.803 -1.4376  0.4804  0.6013
  731MOL0     H98646   6.749   9.493   7.047 -4.1875  1.7744  0.3324
  731MOL0     H98647   6.698   8.934   7.365  1.4038  0.1963 -0.3606
  731MOL0     H98648   6.745   8.868   7.596 -3.0611 -0.3562 -0.7017
  731MOL0     H98649   6.794   9.217   7.907  1.4875  0.1103 -0.9285
  731MOL0     H98650   6.832   9.084   8.003 -0.5076  0.8386  0.8782
  731MOL0     H98651   7.046   9.086   7.826  0.6444  1.1689 -0.1790
  731MOL0     H98652   7.020   9.253   7.847 -2.6768  0.9624  1.4134
  731MOL0     H98653   7.016   9.250   8.092 -0.3201  1.5325 -2.0338
  731MOL0     H98654   7.019   9.070   8.104  2.5530  0.9249  2.1042
  731MOL0     H98655   7.258   9.246   8.031 -1.2309 -0.9474 -3.1117
  731MOL0     H98656   7.249   9.070   8.005 -0.4584  0.9485 -1.0864
  731MOL0     H98657   7.194   9.046   8.252  0.3866 -0.4939 -0.6281
  731MOL0     H98658   7.233   9.206   8.287  3.2893  0.0803  1.0616
  731MOL0     H98659   7.416   8.990   8.189  2.8828 -0.8447  4.2298
  731MOL0     H98660   7.463   9.154   8.153 -0.7688 -0.5204  0.6299
  731MOL0     H98661   7.401   9.051   8.447  0.2597  0.0427  1.6937
  731MOL0     H98662   7.469   9.206   8.397 -0.9017 -0.4193 -2.3418
  731MOL0     H98663   7.634   9.061   8.506 -0.5128 -4.7580  1.3167
  731MOL0     H98664   7.606   8.933   8.400  0.6756  0.2302  1.5466
  731MOL0     H98665   6.858   9.284   7.675 -0.6871  1.6197 -1.9570
  731MOL0     H98666   6.820   9.332   7.454  0.6895 -0.6276 -1.8054
  731MOL0     H98667   6.697   9.073   7.018  1.4451 -0.9895 -0.5201
  731MOL0     H98668   6.698   9.093   6.766  0.5352 -0.3859  0.1275
  731MOL0     H98669   5.439   9.847   6.292  2.7679  1.4299 -0.1815
  731MOL0     H98670   5.221   9.819   6.161 -1.1533  1.7363  2.8098
  731MOL0     H98671   5.032  10.005   5.734 -0.8329  2.3048  3.8171
  731MOL0     H98672   4.880   9.911   5.544 -0.0247  0.2202  0.5396
  731MOL0     H98673   4.734   9.824   5.400 -0.7754  1.7986 -0.8001
  731MOL0     H98674   4.640   9.952   5.493 -0.1856  1.6492 -2.7772
  731MOL0     H98675   4.436   9.813   5.462  2.7874 -1.9378  2.9541
  731MOL0     H98676   4.537   9.713   5.345  1.4218 -0.4054  2.6213
  731MOL0     H98677   4.407   9.872   5.230  0.1174  1.3247 -0.0661
  731MOL0     H98678   4.574   9.913   5.204 -0.7109 -2.9400 -1.4334
  731MOL0     H98679   4.497  10.087   5.416 -2.1492 -0.6095  1.3439
  731MOL0     H98680   4.452  10.134   5.244 -2.7967  0.7760  0.9725
  731MOL0     H98681   4.089  10.112   5.409  0.5575  2.3718  0.2835
  731MOL0     H98682   4.639   9.725   5.837 -1.7534  2.8196 -0.8976
  731MOL0     H98683   4.792   9.652   6.033 -0.1151 -1.1791  4.9229
  731MOL0     H98684   4.851   9.790   6.127 -1.1251  1.0388  0.1021
  731MOL0     H98685   4.684   9.785   6.090  1.7356  0.8293  1.9960
  732MOL0     O98686   8.775  10.759   4.700  0.4316  0.2327  0.3580
  732MOL0     C98687   8.748  10.710   4.813  0.5514 -0.3094 -0.3241
  732MOL0     O98688   8.843  10.688   4.919 -0.6258  0.1474  0.2862
  732MOL0     C98689   8.974  10.670   4.873  0.4672 -0.1300 -0.1353
  732MOL0     C98690   9.020  10.603   4.758  0.1436 -0.0765  0.4647
  732MOL0     C98691   9.157  10.586   4.730  1.4523 -0.0259  0.0108
  732MOL0     C98692   9.251  10.653   4.807  0.1700 -0.6959  0.6649
  732MOL0     O98693   9.377  10.628   4.774 -0.3337  0.2874  0.7108
  732MOL0     C98694   9.461  10.632   4.888 -0.3743 -0.1355  1.0139
  732MOL0     C98695   9.568  10.538   4.871 -0.4988  0.7778 -0.1470
  732MOL0     C98696   9.528  10.389   4.870 -0.1644 -0.5615  0.0110
  732MOL0     C98697   9.476  10.342   5.011 -0.8735 -0.4787 -0.7801
  732MOL0     C98698   9.457  10.195   5.018  0.0493 -0.3869  0.0377
  732MOL0     C98699   9.447  10.126   5.160  0.0865  0.3438  0.3606
  732MOL0     C98700   9.579  10.120   5.225 -0.6048 -0.1310  0.1750
  732MOL0     C98701   9.586  10.078   5.370 -0.1411 -0.1766  0.1842
  732MOL0     N98702   9.721  10.087   5.409  0.1821  0.2087  0.1872
  732MOL0     C98703   9.810   9.977   5.405 -0.4989  1.1856  0.8992
  732MOL0     C98704   9.920  10.024   5.470  0.5045 -0.2494 -0.0869
  732MOL0     C98705  10.026   9.934   5.521  0.1123  0.0138  0.2990
  732MOL0     C98706   9.974   9.883   5.659 -0.4456 -0.4357  0.1809
  732MOL0     C98707  10.071   9.779   5.708  0.1494  0.3743  0.4446
  732MOL0     C98708  10.205   9.846   5.737 -0.4927  0.2839 -0.9307
  732MOL0     O98709  10.295   9.743   5.793  0.6408  0.5862  0.4321
  732MOL0     C98710  10.411   9.790   5.844 -0.5148  0.6091 -0.0186
  732MOL0     C98711  10.506   9.694   5.892 -0.3118  0.8972 -0.0138
  732MOL0     C98712  10.629   9.734   5.955 -0.4149  0.1364 -0.0344
  732MOL0     C98713  10.674   9.869   5.971 -0.2040 -0.0847  0.0317
  732MOL0     C98714  10.795   9.910   6.031 -0.7760  0.6950 -0.9120
  732MOL0     O98715  10.835  10.042   6.017  0.0219  0.0748  0.3250
  732MOL0     C98716  10.942  10.094   6.086 -0.1144  0.2728  0.4971
  732MOL0     C98717  11.051  10.020   6.123  0.1105  0.6232 -0.0768
  732MOL0     C98718  11.149  10.071   6.209 -0.1479 -0.4410 -0.1059
  732MOL0     C98719  11.147  10.205   6.250  0.9903 -0.2286 -0.4063
  732MOL0     O98720  11.234  10.262   6.335 -0.2452  0.0788  0.3306
  732MOL0     C98721  11.350  10.187   6.384  0.0425  0.5675  0.1917
  732MOL0     C98722  11.470  10.202   6.282 -0.1149  0.2104 -0.0910
  732MOL0     C98723  11.482  10.343   6.226  0.0800  0.0469  0.0488
  732MOL0     C98724  11.600  10.362   6.125 -0.5364  0.6051 -0.2550
  732MOL0     C98725  11.630  10.512   6.104 -0.6729  0.9701  0.7680
  732MOL0     C98726  11.679  10.601   6.222  0.5591  0.9278  0.2145
  732MOL0     C98727  11.742  10.731   6.163 -0.2530  0.1667  0.5697
  732MOL0     C98728  11.834  10.798   6.269 -0.1597 -0.6705 -0.4436
  732MOL0    Cl98729  11.736  10.841   6.409  0.1280  0.1862  0.0794
  732MOL0     C98730  11.049  10.284   6.200  0.0177  0.6388  0.4252
  732MOL0     C98731  10.947  10.225   6.121 -0.1594 -0.0382 -0.1104
  732MOL0     O98732  10.863   9.817   6.086 -0.0749 -0.4692 -0.3845
  732MOL0     C98733  10.579   9.959   5.922  0.7390 -0.3709  0.4682
  732MOL0     C98734  10.453   9.922   5.858 -0.2001 -0.4827  0.2529
  732MOL0     N98735   9.899  10.160   5.507  0.0384 -0.3117  0.4573
  732MOL0     N98736   9.775  10.195   5.462 -0.2277  0.1696  0.0623
  732MOL0     C98737   9.206  10.737   4.911  0.5889  1.0575 -0.5128
  732MOL0     C98738   9.073  10.735   4.948  0.3223  0.0148 -0.3425
  732MOL0     C98739   8.604  10.689   4.842  0.1910 -0.0940  0.4771
  732MOL0     C98740   8.568  10.685   4.979  0.4697  0.3049  0.9254
  732MOL0     C98741   8.428  10.658   5.025  0.2819 -0.6150 -0.2817
  732MOL0     C98742   8.323  10.645   4.939 -1.2091 -0.4156 -0.2247
  732MOL0     O98743   8.205  10.617   4.995 -0.0187 -0.0640  0.3124
  732MOL0     C98744   8.088  10.634   4.924 -0.1092  0.7384  0.4516
  732MOL0     C98745   8.046  10.499   4.866  0.0782  0.3436 -0.4752
  732MOL0     C98746   7.903  10.511   4.798  0.3598  0.3372 -0.3940
  732MOL0     C98747   7.812  10.387   4.834  0.0936 -0.0136 -0.5966
  732MOL0     C98748   7.774  10.397   4.976 -0.3168  0.1823  1.0007
  732MOL0     C98749   7.756  10.419   5.098 -0.2405 -0.0928 -0.0913
  732MOL0     C98750   8.363  10.665   4.806  0.5019 -0.0743  0.3199
  732MOL0     C98751   8.489  10.681   4.756  0.0664  0.2801 -0.0292
  732MOL0     C98752   8.517  10.674   4.606  0.1775  0.4788 -0.2822
  732MOL0     H98753   8.942  10.554   4.700  1.5594 -2.4347  0.4000
  732MOL0     H98754   9.185  10.521   4.648  5.6347  2.5420 -0.9521
  732MOL0     H98755   9.493  10.734   4.909 -2.6308  0.6027  1.1122
  732MOL0     H98756   9.410  10.592   4.976 -2.2385  0.2132  0.1436
  732MOL0     H98757   9.636  10.558   4.954  1.4711 -0.7518 -1.2874
  732MOL0     H98758   9.627  10.559   4.781  0.3734  0.5981  0.3691
  732MOL0     H98759   9.617  10.334   4.838  0.1713  1.7936 -3.6471
  732MOL0     H98760   9.445  10.377   4.800 -1.6535 -2.0749  1.9379
  732MOL0     H98761   9.552  10.376   5.082  0.9963 -0.6437 -2.6320
  732MOL0     H98762   9.382  10.389   5.042 -0.5325 -1.7366  2.6855
  732MOL0     H98763   9.366  10.170   4.964  1.2812 -1.7370 -1.5162
  732MOL0     H98764   9.537  10.151   4.958 -0.8239  0.1821 -1.5968
  732MOL0     H98765   9.381  10.193   5.215 -0.9580  0.0460 -0.4786
  732MOL0     H98766   9.403  10.026   5.153 -0.8117  0.7810 -0.5826
  732MOL0     H98767   9.639  10.207   5.196  4.3837 -3.1517  0.4619
  732MOL0     H98768   9.633  10.039   5.176  0.7983  0.3389  0.8981
  732MOL0     H98769   9.518  10.146   5.421  0.4565  0.6134 -0.0586
  732MOL0     H98770   9.573   9.971   5.389  4.2260 -1.6688 -3.4168
  732MOL0     H98771   9.786   9.876   5.373 -0.3001  1.5236 -0.3751
  732MOL0     H98772  10.046   9.847   5.457  0.9819  1.0143 -0.8381
  732MOL0     H98773  10.116   9.996   5.529 -0.7500  1.4463 -0.7183
  732MOL0     H98774   9.962   9.963   5.733 -0.1055  0.4827 -0.7479
  732MOL0     H98775   9.881   9.832   5.634 -0.8635  0.6298 -0.5077
  732MOL0     H98776  10.070   9.700   5.631  0.3211 -1.2815  2.0637
  732MOL0     H98777  10.030   9.718   5.789 -2.0741 -1.6605 -2.0026
  732MOL0     H98778  10.186   9.922   5.813 -1.9484 -1.7351  0.8643
  732MOL0     H98779  10.259   9.886   5.651 -0.8438  2.2130 -0.3053
  732MOL0     H98780  10.482   9.589   5.879 -1.1042  1.0943 -0.1770
  732MOL0     H98781  10.694   9.656   5.993 -1.7933  0.3264  3.0084
  732MOL0     H98782  11.066   9.921   6.081 -0.7295  0.8368 -0.9110
  732MOL0     H98783  11.228  10.006   6.246  1.2776 -0.7157 -3.3316
  732MOL0     H98784  11.372  10.230   6.482 -0.4409 -0.9279  0.9653
  732MOL0     H98785  11.329  10.083   6.408  2.1619 -0.5920 -2.3890
  732MOL0     H98786  11.563  10.177   6.335  0.4167  0.0269 -1.0923
  732MOL0     H98787  11.451  10.127   6.205 -1.1640 -2.0688  2.2254
  732MOL0     H98788  11.383  10.369   6.187 -0.4584  0.2416  1.4935
  732MOL0     H98789  11.501  10.406   6.313  1.0608  1.6521 -1.2505
  732MOL0     H98790  11.563  10.313   6.035 -3.8038 -0.0359  1.3084
  732MOL0     H98791  11.690  10.304   6.147 -0.0402  1.5233  0.2158
  732MOL0     H98792  11.537  10.559   6.072 -0.5362  1.0584  0.5035
  732MOL0     H98793  11.703  10.520   6.023  1.3724 -1.0343  2.2576
  732MOL0     H98794  11.594  10.634   6.282 -0.3305 -1.2282  0.2146
  732MOL0     H98795  11.746  10.541   6.285 -0.2424 -1.9092 -1.4560
  732MOL0     H98796  11.663  10.801   6.134  0.5996  0.4591 -1.1621
  732MOL0     H98797  11.803  10.705   6.076  0.3851 -0.1231  1.0933
  732MOL0     H98798  11.917  10.735   6.299 -1.3832 -2.4014 -0.5739
  732MOL0     H98799  11.876  10.892   6.232  0.6712 -0.3778  1.1529
  732MOL0     H98800  11.059  10.387   6.233  0.1658  1.3503 -1.6907
  732MOL0     H98801  10.862  10.284   6.088 -1.4226 -2.7696 -2.0049
  732MOL0     H98802  10.582  10.066   5.939 -3.8748  0.0811 -0.2067
  732MOL0     H98803  10.380   9.997   5.828 -0.9384 -1.5445 -0.6551
  732MOL0     H98804   9.280  10.789   4.972 -0.3221  2.2058 -0.3455
  732MOL0     H98805   9.041  10.799   5.029 -0.5975 -0.5404 -0.2499
  732MOL0     H98806   8.644  10.690   5.056 -0.8533  1.5807  2.1975
  732MOL0     H98807   8.391  10.655   5.127 -1.3569 -1.7646 -0.8763
  732MOL0     H98808   8.104  10.708   4.846 -1.6374  1.5822  0.9132
  732MOL0     H98809   8.012  10.675   4.991 -1.2277  0.1783 -0.4418
  732MOL0     H98810   8.055  10.418   4.940  2.2109  0.0356 -1.0196
  732MOL0     H98811   8.117  10.465   4.790 -0.5408 -1.2792 -0.3836
  732MOL0     H98812   7.921  10.494   4.691 -0.0466 -0.9103 -0.2791
  732MOL0     H98813   7.848  10.604   4.814 -1.9684 -1.1115  0.5149
  732MOL0     H98814   7.717  10.387   4.780 -0.3112 -2.8610 -0.0230
  732MOL0     H98815   7.870  10.297   4.815  1.3125  0.9977 -1.9061
  732MOL0     H98816   7.723  10.446   5.196 -2.7759 -1.9513 -0.3235
  732MOL0     H98817   8.288  10.645   4.729  1.4626 -6.5445  0.4469
  732MOL0     H98818   8.580  10.751   4.560  0.7777 -1.3601 -2.7337
  732MOL0     H98819   8.572  10.582   4.584 -1.3821 -0.0557 -2.1855
  732MOL0     H98820   8.423  10.663   4.553 -1.3553  1.8074  1.9731
  733MOL0     O98821   8.188   9.589   3.344  0.1020  0.3611 -0.1330
  733MOL0     C98822   8.199   9.608   3.467 -0.3644  0.7335  0.2445
  733MOL0     O98823   8.292   9.546   3.545 -0.4339 -0.2808 -0.1745
  733MOL0     C98824   8.370   9.449   3.489  0.4597 -0.4174 -0.3871
  733MOL0     C98825   8.341   9.312   3.503  0.4935 -0.4024  0.4719
  733MOL0     C98826   8.423   9.217   3.443  0.5309 -0.8460  0.0029
  733MOL0     C98827   8.539   9.264   3.372  0.7983 -0.0413  0.5099
  733MOL0     O98828   8.608   9.160   3.323  0.3113 -0.1007  0.2447
  733MOL0     C98829   8.746   9.183   3.277 -0.8540  0.2955 -0.6883
  733MOL0     C98830   8.843   9.097   3.367 -0.3236  0.0239 -0.1272
  733MOL0     C98831   8.990   9.088   3.343  0.6394  0.0370  0.7387
  733MOL0     C98832   9.040   9.017   3.219  0.1327  0.2310 -0.0192
  733MOL0     C98833   9.187   8.986   3.218 -0.8583  0.1589  0.9941
  733MOL0     C98834   9.268   9.115   3.216 -0.3203  0.0938 -0.0665
  733MOL0     C98835   9.415   9.104   3.218  0.1816  0.4956 -0.2833
  733MOL0     C98836   9.487   9.233   3.188 -0.0053  0.2119 -0.0280
  733MOL0     N98837   9.625   9.238   3.235  0.4741  0.1975 -0.0893
  733MOL0     C98838   9.714   9.154   3.178  0.4186 -0.3050 -0.5512
  733MOL0     C98839   9.825   9.181   3.241  0.3963 -0.1362 -0.2353
  733MOL0     C98840   9.946   9.107   3.194 -0.3850 -1.0525  0.0560
  733MOL0     C98841  10.032   9.051   3.301  0.4934  0.3399 -0.8695
  733MOL0     C98842  10.099   8.916   3.262  0.6159  0.3319 -0.6734
  733MOL0     C98843  10.244   8.920   3.236 -0.3846  0.3597  0.5148
  733MOL0     O98844  10.325   8.924   3.352 -0.0642  0.4699 -0.5202
  733MOL0     C98845  10.454   8.894   3.350 -0.3462  0.0320  0.0933
  733MOL0     C98846  10.520   8.846   3.234 -0.5673  1.1230  0.3883
  733MOL0     C98847  10.656   8.809   3.235 -1.0267 -0.5786 -0.7539
  733MOL0     C98848  10.738   8.829   3.347  0.1283 -0.5459 -0.0241
  733MOL0     C98849  10.885   8.800   3.341  0.2607  0.2535 -0.7753
  733MOL0     O98850  10.968   8.863   3.430  0.1429  0.9247  0.3584
  733MOL0     C98851  11.101   8.823   3.424  0.3186 -0.1043  0.0086
  733MOL0     C98852  11.184   8.855   3.319  0.1414 -0.1274  0.8758
  733MOL0     C98853  11.316   8.801   3.311  0.0973  1.3997  1.0759
  733MOL0     C98854  11.364   8.731   3.418 -0.1687  0.1258 -0.1101
  733MOL0     O98855  11.495   8.688   3.403  0.1330  0.2703  0.3904
  733MOL0     C98856  11.571   8.657   3.519  0.9299 -0.1522 -0.0645
  733MOL0     C98857  11.711   8.632   3.470 -0.7483  0.0250 -0.5158
  733MOL0     C98858  11.795   8.643   3.601  0.2033 -1.0143  0.8247
  733MOL0     C98859  11.937   8.600   3.586  0.5466 -0.7434  0.3217
  733MOL0     C98860  12.007   8.643   3.719  0.4050  1.2259 -0.7705
  733MOL0     C98861  12.155   8.603   3.703 -1.4575 -0.0621 -0.6889
  733MOL0     C98862  12.230   8.628   3.833 -0.6191  0.3722  0.4451
  733MOL0     C98863  12.382   8.605   3.817  0.5124 -0.4508 -0.9121
  733MOL0    Cl98864  12.416   8.436   3.750 -0.5981  0.1583 -0.1743
  733MOL0     C98865  11.289   8.710   3.532 -0.9190 -0.4445 -0.6484
  733MOL0     C98866  11.153   8.750   3.532 -0.4814  0.4385 -0.1960
  733MOL0     O98867  10.910   8.718   3.256 -0.2319  0.0780 -0.2734
  733MOL0     C98868  10.669   8.874   3.465 -0.4338 -1.0530 -0.8224
  733MOL0     C98869  10.529   8.898   3.471 -0.0286  0.0748  1.0980
  733MOL0     N98870   9.809   9.274   3.345 -0.5118 -0.1361  0.0144
  733MOL0     N98871   9.683   9.307   3.336 -0.0716 -0.7765  0.3008
  733MOL0     C98872   8.567   9.398   3.357  0.3994 -0.3504  0.2694
  733MOL0     C98873   8.483   9.494   3.418  0.0868  0.1655  0.2847
  733MOL0     C98874   8.091   9.680   3.542 -0.5676  0.0612  0.0023
  733MOL0     C98875   8.068   9.658   3.674  0.4815 -0.1873 -0.1052
  733MOL0     C98876   7.972   9.731   3.738  0.1642  0.4119 -0.1487
  733MOL0     C98877   7.911   9.845   3.682  0.7922 -0.2683  0.2809
  733MOL0     O98878   7.830   9.928   3.763 -0.7928  1.0352  0.5347
  733MOL0     C98879   7.775  10.059   3.730 -0.1533  0.1034  0.4373
  733MOL0     C98880   7.885  10.164   3.751  0.6329  0.8012  0.9476
  733MOL0     C98881   7.934  10.176   3.893 -0.4628  0.7342  0.2543
  733MOL0     C98882   8.028  10.301   3.919 -0.7281 -0.3032 -0.0850
  733MOL0     C98883   8.165  10.263   3.880  0.1993  0.0264  0.1208
  733MOL0     C98884   8.278  10.223   3.844  0.2332  0.1975  0.2799
  733MOL0     C98885   7.930   9.871   3.549  0.5683 -1.0363  0.3184
  733MOL0     C98886   8.017   9.788   3.479 -0.1455  0.0572  1.1326
  733MOL0     C98887   8.059   9.823   3.338  0.1165 -0.5159 -0.7977
  733MOL0     H98888   8.247   9.288   3.553 -0.9598 -1.3818 -2.4901
  733MOL0     H98889   8.398   9.112   3.445 -2.6850 -0.1743  2.1585
  733MOL0     H98890   8.756   9.150   3.173  1.0208  0.2893 -0.5316
  733MOL0     H98891   8.787   9.284   3.286 -0.2748  0.1765 -1.8665
  733MOL0     H98892   8.796   8.999   3.355  2.6187 -1.1454 -4.2587
  733MOL0     H98893   8.844   9.138   3.469  3.8650  0.7006 -0.2638
  733MOL0     H98894   9.027   9.032   3.429  1.9219 -3.7728 -2.0328
  733MOL0     H98895   9.028   9.191   3.339  2.1227 -0.5195 -0.8196
  733MOL0     H98896   8.991   8.920   3.207  0.5062  0.3665 -3.9582
  733MOL0     H98897   9.010   9.084   3.138  1.0114  0.5529 -0.0818
  733MOL0     H98898   9.210   8.916   3.298 -1.4041 -3.1810 -1.5264
  733MOL0     H98899   9.213   8.928   3.129 -4.7832  2.5424 -2.0763
  733MOL0     H98900   9.235   9.170   3.127 -1.3969 -0.3618  0.0317
  733MOL0     H98901   9.235   9.182   3.296 -0.5601  0.0449 -0.1229
  733MOL0     H98902   9.458   9.029   3.151  3.0563  2.0693 -0.3531
  733MOL0     H98903   9.435   9.073   3.321 -1.0709 -3.2015 -0.9973
  733MOL0     H98904   9.487   9.245   3.079  1.7957  0.9444  0.0190
  733MOL0     H98905   9.431   9.319   3.228 -0.3208 -0.4229  0.9261
  733MOL0     H98906   9.713   9.082   3.098  2.6660  1.7859 -2.6671
  733MOL0     H98907   9.912   9.028   3.126  0.2355 -2.4260  1.2985
  733MOL0     H98908  10.015   9.163   3.130  0.2219 -3.4896 -1.5440
  733MOL0     H98909  10.110   9.122   3.330 -0.8692 -0.2509  5.8890
  733MOL0     H98910   9.968   9.035   3.389  1.8588 -0.3563  0.0199
  733MOL0     H98911  10.046   8.871   3.177 -2.5919 -0.2083  1.4527
  733MOL0     H98912  10.089   8.842   3.342  1.0328 -0.2025 -1.1102
  733MOL0     H98913  10.274   8.990   3.159  1.4635 -1.4916 -0.5501
  733MOL0     H98914  10.247   8.826   3.180 -0.9824  0.9982 -0.5959
  733MOL0     H98915  10.476   8.820   3.139 -0.8788  0.2531  0.7647
  733MOL0     H98916  10.705   8.772   3.145  0.0796 -1.6887  0.2581
  733MOL0     H98917  11.138   8.925   3.250 -0.6779  0.6460  2.1615
  733MOL0     H98918  11.369   8.821   3.219 -1.0638 -0.1701  0.0188
  733MOL0     H98919  11.575   8.747   3.581  2.2547  1.7629 -2.6927
  733MOL0     H98920  11.532   8.574   3.577  0.3585 -0.3221 -0.6817
  733MOL0     H98921  11.726   8.535   3.422  2.3609  0.0791  0.1428
  733MOL0     H98922  11.750   8.711   3.405  3.3901  0.7287  2.4266
  733MOL0     H98923  11.808   8.748   3.629  1.4861  0.0720 -3.1623
  733MOL0     H98924  11.743   8.593   3.683 -2.7041 -0.7181 -0.6881
  733MOL0     H98925  11.977   8.657   3.502  1.5165  1.6244  2.2691
  733MOL0     H98926  11.944   8.493   3.566 -3.3157 -1.3277  1.2212
  733MOL0     H98927  11.971   8.590   3.807 -0.0380  1.0663 -1.0452
  733MOL0     H98928  11.996   8.752   3.720 -1.5467  1.1636 -3.3587
  733MOL0     H98929  12.153   8.496   3.680 -3.0532 -0.1141 -0.4029
  733MOL0     H98930  12.206   8.653   3.620  1.0045  2.8471  2.2628
  733MOL0     H98931  12.195   8.554   3.906 -2.1956 -0.0284 -0.6589
  733MOL0     H98932  12.210   8.722   3.884 -3.4162  0.5696 -0.8355
  733MOL0     H98933  12.420   8.675   3.742  2.3996  0.3087  0.6664
  733MOL0     H98934  12.432   8.624   3.912 -1.5083 -0.6785  0.2553
  733MOL0     H98935  11.332   8.649   3.611 -2.0863 -2.1733 -1.2882
  733MOL0     H98936  11.084   8.725   3.612 -1.0060  1.2926 -0.3687
  733MOL0     H98937  10.729   8.896   3.553  2.0410  1.5882 -2.9691
  733MOL0     H98938  10.491   8.944   3.562 -1.0518  2.1492 -0.2862
  733MOL0     H98939   8.652   9.426   3.294  0.0742  0.8689  0.3513
  733MOL0     H98940   8.502   9.600   3.403  2.5078 -0.4147 -1.3243
  733MOL0     H98941   8.121   9.577   3.723  1.6084  1.8901  2.2893
  733MOL0     H98942   7.940   9.695   3.836 -0.5187 -0.9966 -0.8708
  733MOL0     H98943   7.696  10.089   3.800 -2.4264 -0.3113 -1.8048
  733MOL0     H98944   7.737  10.074   3.628  0.4529  1.0801  0.3426
  733MOL0     H98945   7.844  10.259   3.714 -0.2052 -0.5151 -1.7715
  733MOL0     H98946   7.970  10.141   3.685 -1.0270 -1.4157 -0.5485
  733MOL0     H98947   7.982  10.083   3.925 -0.0648  0.1861 -1.7677
  733MOL0     H98948   7.848  10.183   3.960  0.0413 -2.5039  1.4327
  733MOL0     H98949   7.992  10.393   3.873 -0.4954 -0.5892 -0.8484
  733MOL0     H98950   8.031  10.316   4.028 -1.6002 -1.5482  0.1432
  733MOL0     H98951   8.372  10.191   3.804 -1.6918 -1.1440 -3.7255
  733MOL0     H98952   7.887   9.963   3.509 -0.1776 -0.7540  1.7327
  733MOL0     H98953   8.011   9.747   3.276 -2.0770  0.7157 -0.7072
  733MOL0     H98954   8.016   9.923   3.325 -1.0991 -1.0756 -1.2837
  733MOL0     H98955   8.167   9.826   3.323  0.0194  0.5989 -1.3722
  734MOL0     O98956   2.883   7.133   3.025  0.2192 -0.2826  0.1827
  734MOL0     C98957   2.865   7.051   3.111 -0.3582  0.2562 -0.3406
  734MOL0     O98958   2.961   6.969   3.164  0.6558  0.7780  0.2358
  734MOL0     C98959   3.088   6.989   3.122 -0.4214  0.2299  0.2857
  734MOL0     C98960   3.140   6.936   3.003  0.5680 -0.5560  1.0998
  734MOL0     C98961   3.273   6.970   2.965  0.0126  0.8462 -0.2702
  734MOL0     C98962   3.364   7.026   3.060  1.0284  0.5652  0.0028
  734MOL0     O98963   3.498   7.037   3.030  0.0061 -0.3183  0.5779
  734MOL0     C98964   3.595   7.082   3.121 -0.4135  0.0243 -0.0061
  734MOL0     C98965   3.630   6.979   3.214  0.0986  0.5776  0.4680
  734MOL0     C98966   3.704   7.014   3.344  0.1746 -0.7647 -0.8710
  734MOL0     C98967   3.844   7.067   3.307 -0.2346 -0.1846 -0.2212
  734MOL0     C98968   3.920   7.089   3.440 -1.3009  0.7267 -0.5302
  734MOL0     C98969   4.064   7.126   3.410  0.6608  0.9489 -0.5979
  734MOL0     C98970   4.144   7.177   3.521 -0.3340 -0.0385  0.5223
  734MOL0     C98971   4.141   7.078   3.647 -0.5555  0.0004 -0.5231
  734MOL0     N98972   4.256   7.115   3.731  0.8728  0.6669  0.2741
  734MOL0     C98973   4.284   7.237   3.778 -0.2133 -0.0769  0.1550
  734MOL0     C98974   4.397   7.225   3.849 -0.5824  0.2112 -0.1451
  734MOL0     C98975   4.460   7.335   3.930 -0.0714  0.4132  0.2686
  734MOL0     C98976   4.609   7.332   3.930 -0.1990 -0.3272  1.3688
  734MOL0     C98977   4.668   7.418   4.038  0.0123 -0.1715 -0.3251
  734MOL0     C98978   4.828   7.416   4.033 -0.1159 -0.5223 -0.5139
  734MOL0     O98979   4.882   7.513   4.123 -0.0569  0.1615 -0.5673
  734MOL0     C98980   5.016   7.539   4.129 -0.1311  0.0768  0.2363
  734MOL0     C98981   5.113   7.456   4.061  0.6448  0.0572 -0.5542
  734MOL0     C98982   5.252   7.484   4.087 -0.1419  0.5616  0.4244
  734MOL0     C98983   5.283   7.589   4.172 -0.5905 -0.4708 -0.2082
  734MOL0     C98984   5.426   7.620   4.175  0.9437  0.6141  0.5500
  734MOL0     O98985   5.508   7.560   4.081  0.7642 -0.3503 -0.7954
  734MOL0     C98986   5.643   7.567   4.091 -0.4620  0.9654  0.4666
  734MOL0     C98987   5.711   7.443   4.093 -0.4105 -0.1304 -0.2426
  734MOL0     C98988   5.844   7.442   4.091 -0.6910 -0.2152  0.4540
  734MOL0     C98989   5.924   7.560   4.109  0.6249  0.0722  0.0996
  734MOL0     O98990   6.065   7.558   4.128 -0.5498  0.2750 -0.1167
  734MOL0     C98991   6.114   7.466   4.230  0.6894  0.4064  0.4642
  734MOL0     C98992   6.157   7.555   4.345  0.2534  0.0576 -0.2744
  734MOL0     C98993   6.229   7.472   4.445 -0.2862 -0.0057 -0.1542
  734MOL0     C98994   6.318   7.557   4.530  0.2689  0.1429 -0.1821
  734MOL0     C98995   6.402   7.477   4.643  0.4057 -0.2806  0.6126
  734MOL0     C98996   6.488   7.572   4.742 -0.0927  0.8542 -0.1385
  734MOL0     C98997   6.398   7.690   4.809  0.3292  0.5389  1.0320
  734MOL0     C98998   6.470   7.772   4.916 -0.8330 -0.7634 -0.1533
  734MOL0    Cl98999   6.641   7.811   4.864 -0.1597 -0.3541 -0.2480
  734MOL0     C99000   5.855   7.679   4.117  0.0373 -0.0803 -0.2768
  734MOL0     C99001   5.712   7.684   4.100 -0.2814  0.4030 -0.2813
  734MOL0     O99002   5.466   7.686   4.272  0.5308 -0.1827  0.0767
  734MOL0     C99003   5.182   7.673   4.228 -0.2955 -0.2501  0.7474
  734MOL0     C99004   5.052   7.648   4.207 -0.0189  0.1087 -0.2392
  734MOL0     N99005   4.430   7.094   3.843  0.8068  0.1938 -0.7075
  734MOL0     N99006   4.344   7.026   3.775  0.7708 -0.2540 -0.1619
  734MOL0     C99007   3.316   7.055   3.188  0.2510  0.0297  0.1613
  734MOL0     C99008   3.179   7.044   3.209  0.4237 -0.2183 -0.9927
  734MOL0     C99009   2.724   7.029   3.171  0.9390  0.4675  0.1163
  734MOL0     C99010   2.621   7.085   3.092 -0.5416 -0.8747 -0.5834
  734MOL0     C99011   2.485   7.075   3.125 -0.2071 -0.3448 -0.0797
  734MOL0     C99012   2.453   7.017   3.247 -0.9509  0.9221 -0.0764
  734MOL0     O99013   2.324   7.002   3.266 -0.5649 -0.8973  0.8360
  734MOL0     C99014   2.264   6.973   3.392 -0.0083 -0.4671 -0.0538
  734MOL0     C99015   2.255   6.821   3.420 -0.7912 -0.3693  0.2625
  734MOL0     C99016   2.144   6.762   3.332  0.1348  0.6892 -0.6651
  734MOL0     C99017   2.149   6.611   3.346 -0.2832  0.3289  0.5280
  734MOL0     C99018   2.029   6.535   3.319 -0.0074  0.4558 -0.0382
  734MOL0     C99019   1.919   6.473   3.297 -0.7825 -0.5295  0.3734
  734MOL0     C99020   2.556   6.967   3.332  0.2196  0.3272  0.6579
  734MOL0     C99021   2.689   6.975   3.300  0.2686  0.0082 -0.3306
  734MOL0     C99022   2.785   6.935   3.408 -0.4513 -0.4498  0.1391
  734MOL0     H99023   3.082   6.879   2.932  4.2638 -1.9718 -1.0950
  734MOL0     H99024   3.295   6.954   2.860 -1.5723  1.7659 -0.7785
  734MOL0     H99025   3.684   7.130   3.077 -0.5008  2.2828  2.0557
  734MOL0     H99026   3.560   7.168   3.178  1.3952 -0.2568  1.6496
  734MOL0     H99027   3.682   6.904   3.155 -1.0384 -0.1042  0.2921
  734MOL0     H99028   3.543   6.923   3.250 -0.1057 -1.0930 -2.3753
  734MOL0     H99029   3.734   6.931   3.408  3.6055  0.8371 -0.1631
  734MOL0     H99030   3.635   7.086   3.389  0.4350  0.5257 -2.4142
  734MOL0     H99031   3.887   6.987   3.246  0.2394 -0.4523  0.4430
  734MOL0     H99032   3.839   7.155   3.243 -1.0616 -1.3419 -1.8233
  734MOL0     H99033   3.863   7.167   3.492 -2.0895  0.8754 -1.5729
  734MOL0     H99034   3.917   7.002   3.506  1.0381  2.0155  1.4459
  734MOL0     H99035   4.110   7.042   3.358 -2.8322 -1.8621  0.4558
  734MOL0     H99036   4.051   7.211   3.343 -0.6710  2.0569  0.9650
  734MOL0     H99037   4.112   7.278   3.548 -0.9512  0.6770 -2.5547
  734MOL0     H99038   4.247   7.187   3.485 -0.1092 -0.7892  0.9294
  734MOL0     H99039   4.041   7.078   3.691 -0.7890 -0.0847 -1.0453
  734MOL0     H99040   4.158   6.980   3.603 -0.0035 -0.3590  0.4612
  734MOL0     H99041   4.224   7.326   3.771 -2.0032 -1.3091 -0.8356
  734MOL0     H99042   4.429   7.436   3.901  1.1702  1.3245  1.9167
  734MOL0     H99043   4.426   7.322   4.034  0.3824  0.7927  0.4707
  734MOL0     H99044   4.638   7.229   3.950  0.1655 -0.5900 -0.3769
  734MOL0     H99045   4.658   7.360   3.836 -0.4298 -2.4029  0.5929
  734MOL0     H99046   4.634   7.383   4.136 -0.5668  0.8380 -0.1541
  734MOL0     H99047   4.632   7.521   4.031  0.5589  0.1329  1.0870
  734MOL0     H99048   4.870   7.452   3.938  1.3905 -0.1042  0.2706
  734MOL0     H99049   4.857   7.313   4.055 -0.8299 -0.7801 -0.7386
  734MOL0     H99050   5.090   7.368   4.002  2.2570 -1.7944  1.4225
  734MOL0     H99051   5.319   7.411   4.044 -2.8231 -0.5965 -2.1047
  734MOL0     H99052   5.656   7.351   4.084 -1.3502  0.4048 -0.0598
  734MOL0     H99053   5.902   7.351   4.081 -1.4842 -1.0686  2.8896
  734MOL0     H99054   6.033   7.401   4.266 -0.1946  1.7687  0.9840
  734MOL0     H99055   6.188   7.394   4.192 -4.0690 -4.0890 -1.6360
  734MOL0     H99056   6.226   7.629   4.303  0.8954  0.8533  2.0245
  734MOL0     H99057   6.082   7.615   4.398 -1.6990 -2.3978 -0.1030
  734MOL0     H99058   6.155   7.410   4.497  0.3075  0.0202  0.7305
  734MOL0     H99059   6.296   7.405   4.390  1.0679  0.0108  1.4189
  734MOL0     H99060   6.249   7.622   4.585 -1.4501 -1.7868  0.0656
  734MOL0     H99061   6.374   7.629   4.469 -0.0818  0.0111 -0.6576
  734MOL0     H99062   6.462   7.404   4.588  0.3873 -1.5268  2.1813
  734MOL0     H99063   6.343   7.407   4.703  0.0326 -0.6272 -0.1390
  734MOL0     H99064   6.525   7.518   4.829  0.0626 -0.5113 -1.0274
  734MOL0     H99065   6.571   7.618   4.687  3.4418 -0.4084  3.7038
  734MOL0     H99066   6.308   7.656   4.859  0.1141 -0.4965 -0.0119
  734MOL0     H99067   6.391   7.771   4.735 -0.9970 -0.6726 -0.2456
  734MOL0     H99068   6.418   7.866   4.936 -0.3735 -0.7711  1.1815
  734MOL0     H99069   6.475   7.706   5.003 -0.2862  0.9360  1.1644
  734MOL0     H99070   5.914   7.766   4.140 -0.5170 -0.0503  1.0936
  734MOL0     H99071   5.665   7.781   4.102 -3.1030 -0.8671 -0.8122
  734MOL0     H99072   5.213   7.759   4.286 -0.2979  0.2415  0.0283
  734MOL0     H99073   4.972   7.707   4.250  0.6265  0.1326  0.9629
  734MOL0     H99074   3.376   7.112   3.258  0.5909  1.8328 -1.4961
  734MOL0     H99075   3.138   7.075   3.305 -0.0634 -2.2878 -0.4652
  734MOL0     H99076   2.644   7.137   3.000 -1.8805  0.2747 -0.2939
  734MOL0     H99077   2.406   7.104   3.058 -1.6455  1.1934  2.1346
  734MOL0     H99078   2.171   7.029   3.408 -0.7384 -1.9334  1.0860
  734MOL0     H99079   2.334   7.015   3.466 -0.3773 -0.4193  0.2727
  734MOL0     H99080   2.215   6.802   3.520 -2.3604 -0.1859 -0.3058
  734MOL0     H99081   2.348   6.763   3.415  1.6565  2.9866  2.1484
  734MOL0     H99082   2.145   6.790   3.227 -0.9627  0.0336 -0.8696
  734MOL0     H99083   2.043   6.789   3.365  0.1371 -1.3307  1.2023
  734MOL0     H99084   2.214   6.566   3.270  0.1423  1.4272  0.2185
  734MOL0     H99085   2.193   6.587   3.443 -1.3539  0.7997  1.1493
  734MOL0     H99086   1.830   6.414   3.284 -0.8325 -0.5449  0.7874
  734MOL0     H99087   2.529   6.914   3.423  3.7790 -0.4852  1.3880
  734MOL0     H99088   2.815   6.831   3.399  1.2783  0.1388 -1.4307
  734MOL0     H99089   2.879   6.989   3.394 -0.4952  0.2316  2.1732
  734MOL0     H99090   2.754   6.963   3.509  0.0982 -0.5851  0.3467
  735MOL0     O99091   0.423   2.390   5.175  0.0871  0.5844 -0.4057
  735MOL0     C99092   0.368   2.303   5.119  0.5429  0.0188  0.8985
  735MOL0     O99093   0.423   2.239   5.011 -0.3212  0.3746 -0.3885
  735MOL0     C99094   0.545   2.280   4.961  0.0209 -0.3492 -0.2197
  735MOL0     C99095   0.556   2.340   4.836 -0.2418  0.4355 -0.2050
  735MOL0     C99096   0.683   2.381   4.793  0.3018  0.3453 -1.1442
  735MOL0     C99097   0.801   2.356   4.874 -0.3565  0.9569  0.6074
  735MOL0     O99098   0.918   2.415   4.824  0.3064  0.0032  0.1655
  735MOL0     C99099   1.032   2.431   4.904  0.1511  0.3921 -0.2340
  735MOL0     C99100   1.030   2.544   5.010 -0.7359 -0.5808 -0.6169
  735MOL0     C99101   1.157   2.540   5.104  0.1260 -0.4848 -0.5703
  735MOL0     C99102   1.140   2.420   5.204  0.2601  0.5067 -0.0633
  735MOL0     C99103   1.259   2.395   5.297  0.4054 -0.4055 -0.2283
  735MOL0     C99104   1.244   2.280   5.390 -0.9957 -0.4844 -0.2521
  735MOL0     C99105   1.357   2.277   5.503  0.4279  0.5598 -0.1572
  735MOL0     C99106   1.495   2.259   5.445  0.1164  0.7165  0.2212
  735MOL0     N99107   1.604   2.285   5.542 -0.4216 -0.2412  1.3452
  735MOL0     C99108   1.640   2.405   5.592 -0.1872 -0.1931  0.5187
  735MOL0     C99109   1.763   2.386   5.653  0.6083  0.0333 -0.6929
  735MOL0     C99110   1.821   2.501   5.727 -0.4312  0.1279  1.4591
  735MOL0     C99111   1.960   2.477   5.780  0.0107 -0.3537 -0.4976
  735MOL0     C99112   2.046   2.455   5.654 -0.9570 -0.7044  0.2931
  735MOL0     C99113   2.170   2.383   5.698 -0.8140  0.4192  0.0159
  735MOL0     O99114   2.267   2.374   5.597 -0.8857  0.3821  0.6293
  735MOL0     C99115   2.389   2.317   5.595 -0.4650  0.6984 -0.2283
  735MOL0     C99116   2.470   2.327   5.478 -0.1498 -0.2935  0.1142
  735MOL0     C99117   2.600   2.272   5.486  0.1237  0.3589 -0.7188
  735MOL0     C99118   2.647   2.211   5.605 -0.2299  0.0235  0.4363
  735MOL0     C99119   2.782   2.158   5.609  0.3479  0.0707 -1.1869
  735MOL0     O99120   2.869   2.190   5.515  0.0825 -0.3885  0.2888
  735MOL0     C99121   2.993   2.133   5.518  0.2515 -0.3521  0.0019
  735MOL0     C99122   3.047   2.098   5.394 -0.2410 -0.4555  0.4064
  735MOL0     C99123   3.188   2.064   5.384  0.0266  0.7759  0.0681
  735MOL0     C99124   3.267   2.059   5.494  0.5649  0.5547  0.1775
  735MOL0     O99125   3.394   2.011   5.476 -0.6426  0.4634 -0.5125
  735MOL0     C99126   3.484   2.033   5.585  0.2017 -0.8471 -0.5089
  735MOL0     C99127   3.628   2.007   5.536 -0.1859  0.1678 -0.0254
  735MOL0     C99128   3.721   2.051   5.645 -1.0995 -0.6142 -0.4274
  735MOL0     C99129   3.864   2.063   5.590 -0.4271 -0.3138  1.0751
  735MOL0     C99130   3.921   1.926   5.548 -0.2951  0.6228  0.2544
  735MOL0     C99131   4.073   1.930   5.513  0.1993 -0.0684 -0.0392
  735MOL0     C99132   4.109   1.792   5.458 -0.1491 -0.7475 -0.3488
  735MOL0     C99133   4.259   1.786   5.438 -0.4994  0.1770  0.2039
  735MOL0    Cl99134   4.366   1.811   5.580 -0.1333  0.1967 -0.2941
  735MOL0     C99135   3.210   2.076   5.620  0.7989 -0.1565 -0.9306
  735MOL0     C99136   3.082   2.128   5.630  0.4459  0.4565 -0.6564
  735MOL0     O99137   2.794   2.059   5.691  0.0820  0.2716  0.4467
  735MOL0     C99138   2.568   2.195   5.711  0.0345 -0.2208 -0.1899
  735MOL0     C99139   2.440   2.260   5.716  0.0732 -0.3182  0.1321
  735MOL0     N99140   1.787   2.249   5.657  0.2366  0.4268  0.0490
  735MOL0     N99141   1.693   2.184   5.588  0.3053 -0.2204  0.2934
  735MOL0     C99142   0.789   2.291   4.999  0.4913 -0.3503  0.8244
  735MOL0     C99143   0.660   2.264   5.040 -0.2056 -0.8714 -0.5500
  735MOL0     C99144   0.238   2.245   5.162 -0.3975 -0.3499 -0.2830
  735MOL0     C99145   0.148   2.189   5.068  0.5462 -0.5808  0.4621
  735MOL0     C99146   0.025   2.136   5.109  0.9127 -0.2482 -0.1991
  735MOL0     C99147  -0.012   2.139   5.244 -0.0740 -0.0626  0.4867
  735MOL0     O99148  -0.143   2.105   5.259  0.1975  0.3729  0.6125
  735MOL0     C99149  -0.202   2.055   5.379  0.0398  0.5034  0.1919
  735MOL0     C99150  -0.356   2.043   5.366  1.6819 -0.2189 -0.6081
  735MOL0     C99151  -0.390   1.967   5.239 -0.2206  1.0913  0.2498
  735MOL0     C99152  -0.542   1.946   5.233  0.1529  0.8716 -0.3536
  735MOL0     C99153  -0.612   1.869   5.340  0.0682  0.6004  0.7861
  735MOL0     C99154  -0.682   1.824   5.426  0.2215  0.5089 -0.3739
  735MOL0     C99155   0.079   2.186   5.333 -0.2679  0.4175 -0.3380
  735MOL0     C99156   0.201   2.237   5.296 -0.4171 -0.0457 -0.1813
  735MOL0     C99157   0.288   2.274   5.408 -0.0855  0.1270 -0.9321
  735MOL0     H99158   0.459   2.343   4.788 -1.1023 -1.7669  1.2173
  735MOL0     H99159   0.699   2.429   4.697  0.9620  1.8746 -0.3114
  735MOL0     H99160   1.055   2.338   4.958 -2.5226  1.2923  2.7557
  735MOL0     H99161   1.115   2.451   4.836  1.8114 -0.4667  1.4459
  735MOL0     H99162   0.940   2.535   5.071 -0.6554 -2.1385 -0.6676
  735MOL0     H99163   1.031   2.641   4.961  2.1933 -0.9364 -1.5030
  735MOL0     H99164   1.161   2.635   5.159 -0.3778 -0.6443 -0.2436
  735MOL0     H99165   1.249   2.524   5.049  2.3772 -0.3406  2.8409
  735MOL0     H99166   1.045   2.422   5.258 -0.5191 -3.3050 -1.0111
  735MOL0     H99167   1.141   2.329   5.144 -1.5987  0.1225  0.4198
  735MOL0     H99168   1.344   2.377   5.230  0.6927 -3.4349  0.7975
  735MOL0     H99169   1.281   2.492   5.341  1.7571 -0.2354 -1.2275
  735MOL0     H99170   1.147   2.279   5.441 -1.4360  0.2565 -1.0586
  735MOL0     H99171   1.247   2.184   5.338 -0.8040 -2.0146  2.3842
  735MOL0     H99172   1.341   2.194   5.572 -0.1494  1.2016  0.5017
  735MOL0     H99173   1.362   2.373   5.555  0.2671  1.4440 -1.7171
  735MOL0     H99174   1.494   2.157   5.405 -2.4056  0.6389  0.2830
  735MOL0     H99175   1.507   2.330   5.363 -2.7329  1.2293  0.1516
  735MOL0     H99176   1.584   2.495   5.572  0.8126  0.2529 -0.3733
  735MOL0     H99177   1.823   2.580   5.651 -0.8344 -2.5411 -1.5538
  735MOL0     H99178   1.748   2.519   5.806 -0.0733 -1.0564  2.0806
  735MOL0     H99179   1.989   2.570   5.832  0.8688  0.5378 -2.4721
  735MOL0     H99180   1.963   2.396   5.853 -2.5367 -1.0180 -1.0175
  735MOL0     H99181   2.079   2.554   5.622 -0.9636 -0.6718  0.3858
  735MOL0     H99182   2.004   2.406   5.566 -1.8562 -0.7683  0.7487
  735MOL0     H99183   2.130   2.285   5.725 -1.7217  1.2084  1.7146
  735MOL0     H99184   2.214   2.431   5.786 -0.5228 -2.1783  1.3936
  735MOL0     H99185   2.431   2.381   5.393 -0.6758 -1.2708 -0.2817
  735MOL0     H99186   2.650   2.277   5.390  1.6016 -0.1158  0.0080
  735MOL0     H99187   2.981   2.099   5.308  0.4953 -1.1303 -0.1767
  735MOL0     H99188   3.229   2.029   5.290 -1.9777 -2.5547  0.2466
  735MOL0     H99189   3.475   2.138   5.615  0.0184 -1.0948  0.3295
  735MOL0     H99190   3.448   1.974   5.669 -1.5852  2.3769  1.1966
  735MOL0     H99191   3.624   1.905   5.498 -0.5607  0.4186 -0.6791
  735MOL0     H99192   3.644   2.079   5.455 -2.0848  0.6964  0.0285
  735MOL0     H99193   3.700   2.149   5.689  0.7763  0.1395 -1.0723
  735MOL0     H99194   3.722   1.979   5.727 -0.9730  1.1432  1.1663
  735MOL0     H99195   3.945   2.097   5.654  1.9492 -0.2974 -1.7269
  735MOL0     H99196   3.862   2.137   5.509  1.0439  2.2603  3.2654
  735MOL0     H99197   3.860   1.895   5.463  0.5591 -0.6793  0.0888
  735MOL0     H99198   3.910   1.850   5.626 -0.2960  0.0782 -0.2723
  735MOL0     H99199   4.088   2.000   5.431 -0.2052 -1.6613 -1.5395
  735MOL0     H99200   4.137   1.947   5.600  0.7477 -2.4861  0.0942
  735MOL0     H99201   4.052   1.765   5.369  0.7804 -2.7301 -0.3833
  735MOL0     H99202   4.084   1.723   5.539 -1.1622 -0.7426 -0.6471
  735MOL0     H99203   4.296   1.689   5.403  1.5702  0.9931 -0.0024
  735MOL0     H99204   4.283   1.858   5.360  1.3612  2.5338  2.7627
  735MOL0     H99205   3.269   2.078   5.712  0.6099 -0.5518 -0.8000
  735MOL0     H99206   3.052   2.168   5.726 -0.9587  3.3488 -2.1662
  735MOL0     H99207   2.604   2.144   5.799  1.0977 -0.6809 -0.8674
  735MOL0     H99208   2.372   2.251   5.800  1.1846  0.0989  1.1099
  735MOL0     H99209   0.870   2.268   5.068  1.0910  2.4046  1.1835
  735MOL0     H99210   0.646   2.214   5.135  0.7409 -0.4855 -0.1952
  735MOL0     H99211   0.174   2.192   4.963 -1.2614  0.2693  0.0134
  735MOL0     H99212  -0.053   2.107   5.039  0.5983  2.2946 -1.0107
  735MOL0     H99213  -0.165   2.122   5.457  1.4920 -1.4529  1.2675
  735MOL0     H99214  -0.167   1.958   5.413 -3.0221 -0.0270  2.1470
  735MOL0     H99215  -0.401   2.143   5.363  0.5651 -0.7125 -0.7546
  735MOL0     H99216  -0.399   1.985   5.448  2.1876  0.3584  0.0808
  735MOL0     H99217  -0.341   1.870   5.229 -1.6292  0.3955 -0.1561
  735MOL0     H99218  -0.361   2.026   5.152  1.6498 -0.3374 -0.1583
  735MOL0     H99219  -0.585   2.047   5.234  1.2263  1.3396  0.0460
  735MOL0     H99220  -0.573   1.901   5.138 -3.2641 -0.0462  1.0290
  735MOL0     H99221  -0.729   1.760   5.498  2.6655 -4.4441 -2.6631
  735MOL0     H99222   0.053   2.176   5.438 -1.0857 -1.3542 -0.6662
  735MOL0     H99223   0.382   2.220   5.397  0.7128  1.5795 -1.4566
  735MOL0     H99224   0.314   2.378   5.426  1.8093 -0.2131 -1.5166
  735MOL0     H99225   0.242   2.240   5.501 -0.0900 -0.5011 -1.1591
  736MOL0     O99226  10.542   2.326   1.194  0.0008  0.7329 -0.2215
  736MOL0     C99227  10.588   2.335   1.081 -0.5987  0.6186  0.2491
  736MOL0     O99228  10.722   2.334   1.057 -0.0075  0.0902  0.0324
  736MOL0     C99229  10.818   2.341   1.157  0.9605 -0.2073 -0.4374
  736MOL0     C99230  10.940   2.274   1.148  0.0858 -0.2078  0.0207
  736MOL0     C99231  11.035   2.305   1.250 -0.1227  0.5121  0.0089
  736MOL0     C99232  11.014   2.394   1.351  0.4677 -0.0487  0.1435
  736MOL0     O99233  11.118   2.408   1.445 -0.2741  0.2407  0.3694
  736MOL0     C99234  11.111   2.318   1.556 -0.8063  0.3459 -0.1761
  736MOL0     C99235  11.246   2.286   1.627 -1.0045 -0.3131 -0.2982
  736MOL0     C99236  11.286   2.393   1.728 -0.0010  0.3076 -0.6885
  736MOL0     C99237  11.425   2.363   1.792  0.3492  0.3634 -0.8969
  736MOL0     C99238  11.436   2.426   1.935  0.0362  0.0589  0.4782
  736MOL0     C99239  11.561   2.381   2.014 -0.8169 -0.0448 -0.2260
  736MOL0     C99240  11.575   2.459   2.146  0.2934  0.5938 -0.6657
  736MOL0     C99241  11.695   2.425   2.233  0.7566  0.0796 -0.1131
  736MOL0     N99242  11.824   2.462   2.175 -0.2485 -1.1053  0.3633
  736MOL0     C99243  11.874   2.588   2.183  0.1260  0.7058 -0.3453
  736MOL0     C99244  12.005   2.571   2.156 -1.1440 -0.3234  0.4198
  736MOL0     C99245  12.121   2.671   2.158 -0.1101  1.1081  0.4784
  736MOL0     C99246  12.120   2.728   2.302  0.6340  0.7810 -0.0120
  736MOL0     C99247  12.128   2.626   2.422  0.7510 -0.0341 -0.3912
  736MOL0     C99248  12.266   2.602   2.470 -0.4056  0.1618 -0.3086
  736MOL0     O99249  12.331   2.725   2.508 -0.8499  0.6772 -0.6129
  736MOL0     C99250  12.469   2.719   2.528  0.4806 -0.0390  0.3819
  736MOL0     C99251  12.548   2.600   2.525 -0.1176 -0.1575 -0.2938
  736MOL0     C99252  12.684   2.608   2.559 -0.4014  0.8425 -1.3688
  736MOL0     C99253  12.741   2.732   2.614  0.4004  0.5935  1.1049
  736MOL0     C99254  12.882   2.736   2.651  0.3211  0.1175 -0.8347
  736MOL0     O99255  12.918   2.850   2.726 -0.0887 -0.5953  0.1881
  736MOL0     C99256  13.057   2.879   2.724  0.8936 -0.5938 -0.2530
  736MOL0     C99257  13.106   2.962   2.621 -0.0295 -0.6352  0.4731
  736MOL0     C99258  13.245   2.987   2.606  1.0530 -0.2021 -0.8216
  736MOL0     C99259  13.336   2.911   2.690 -0.0631  0.5146  0.3165
  736MOL0     O99260  13.471   2.942   2.689 -0.1787  0.0641 -0.4063
  736MOL0     C99261  13.540   2.929   2.563 -0.3164 -0.3381 -0.1322
  736MOL0     C99262  13.615   2.799   2.547  0.2218  0.0630 -0.1190
  736MOL0     C99263  13.712   2.797   2.435  0.4442  0.2599 -0.1789
  736MOL0     C99264  13.784   2.654   2.424  0.4829  0.0215 -0.5973
  736MOL0     C99265  13.926   2.664   2.352 -0.2020 -0.2602 -0.0629
  736MOL0     C99266  14.025   2.747   2.435 -0.1470  0.1717  0.0234
  736MOL0     C99267  14.175   2.702   2.395  0.0088  0.1743  0.4276
  736MOL0     C99268  14.278   2.789   2.468 -1.0964 -0.5482 -0.3981
  736MOL0    Cl99269  14.443   2.746   2.420  0.0574  0.0191 -0.1069
  736MOL0     C99270  13.287   2.822   2.787  0.6299  0.3095 -1.2316
  736MOL0     C99271  13.147   2.817   2.815 -0.8491  0.5540  0.6366
  736MOL0     O99272  12.949   2.633   2.634 -0.6626 -0.1762 -0.3797
  736MOL0     C99273  12.654   2.840   2.626 -0.9811 -0.3187  0.3349
  736MOL0     C99274  12.524   2.826   2.590  0.7188  0.2562 -0.1035
  736MOL0     N99275  12.028   2.439   2.138 -0.0675 -0.0462 -1.1342
  736MOL0     N99276  11.918   2.375   2.148 -0.5551 -0.0098  0.7283
  736MOL0     C99277  10.892   2.469   1.356 -0.8506 -0.7429 -0.2697
  736MOL0     C99278  10.801   2.451   1.251  0.0466 -0.9302  0.0569
  736MOL0     C99279  10.496   2.376   0.977  0.0530 -0.2084 -0.3023
  736MOL0     C99280  10.358   2.346   1.003 -0.0449 -0.4676 -0.4975
  736MOL0     C99281  10.258   2.395   0.920 -0.1547 -0.3723 -0.0117
  736MOL0     C99282  10.291   2.480   0.813  0.4392 -0.0015 -0.1071
  736MOL0     O99283  10.186   2.540   0.738 -0.6543 -0.2829  0.0651
  736MOL0     C99284  10.056   2.553   0.800  0.5053 -0.8923 -0.6632
  736MOL0     C99285   9.999   2.666   0.738  0.2791  0.5028  0.5069
  736MOL0     C99286   9.854   2.677   0.789  0.5405 -1.1202 -0.3020
  736MOL0     C99287   9.734   2.712   0.689 -1.1992  0.0473 -0.1319
  736MOL0     C99288   9.698   2.606   0.600 -0.0594  0.4594 -0.5981
  736MOL0     C99289   9.660   2.517   0.520  0.0086  0.5138  0.0761
  736MOL0     C99290  10.421   2.501   0.777 -0.9313 -0.4687 -0.9639
  736MOL0     C99291  10.525   2.453   0.861 -0.1688 -0.6828  0.4748
  736MOL0     C99292  10.661   2.490   0.818 -0.6130 -0.4079 -0.9334
  736MOL0     H99293  10.965   2.203   1.070 -0.5777 -0.8127  0.3462
  736MOL0     H99294  11.129   2.250   1.251  0.4329  1.4287  0.0831
  736MOL0     H99295  11.041   2.363   1.627 -1.0667 -0.6147  0.1914
  736MOL0     H99296  11.065   2.225   1.521  0.1401  0.4154 -1.7215
  736MOL0     H99297  11.326   2.277   1.553 -0.6083 -1.8094  0.2853
  736MOL0     H99298  11.240   2.193   1.683  2.2734  0.5065  1.7078
  736MOL0     H99299  11.216   2.398   1.812  1.9145 -1.1849  1.1090
  736MOL0     H99300  11.280   2.498   1.697 -0.1568  1.2143  2.0881
  736MOL0     H99301  11.442   2.256   1.806  1.3928  0.7744  1.3245
  736MOL0     H99302  11.501   2.392   1.719  0.0475 -1.7940 -2.1505
  736MOL0     H99303  11.424   2.534   1.927 -1.5285 -0.1380 -0.2018
  736MOL0     H99304  11.345   2.386   1.982  0.0541 -2.5684 -1.4658
  736MOL0     H99305  11.554   2.273   2.032  0.1184 -0.5976 -2.7238
  736MOL0     H99306  11.639   2.390   1.938 -2.5358 -2.1923 -2.4310
  736MOL0     H99307  11.488   2.427   2.203  0.4907  0.0941 -0.6316
  736MOL0     H99308  11.580   2.567   2.132 -0.3867  0.7097 -0.0231
  736MOL0     H99309  11.672   2.479   2.325 -1.3987 -2.4146  0.9482
  736MOL0     H99310  11.692   2.320   2.265  3.2223 -0.2590 -0.8119
  736MOL0     H99311  11.821   2.678   2.214  1.1444  1.4859 -0.8106
  736MOL0     H99312  12.216   2.619   2.137 -0.3901  1.4628 -1.9280
  736MOL0     H99313  12.106   2.754   2.089 -1.1091  0.7920  0.3043
  736MOL0     H99314  12.204   2.799   2.301 -1.4800  3.4658  0.5755
  736MOL0     H99315  12.028   2.787   2.304  0.5796  0.8290 -2.0527
  736MOL0     H99316  12.073   2.534   2.401  2.1753 -0.6543 -1.6481
  736MOL0     H99317  12.073   2.673   2.504  0.0042  0.7295 -1.3074
  736MOL0     H99318  12.312   2.555   2.382 -0.9825 -1.4682  0.2175
  736MOL0     H99319  12.268   2.526   2.548 -0.7402  0.5487  0.0758
  736MOL0     H99320  12.501   2.505   2.502 -1.2500  0.3989 -0.3465
  736MOL0     H99321  12.742   2.516   2.562 -4.0263 -1.6659 -1.5700
  736MOL0     H99322  13.039   2.997   2.542 -0.1893  1.3579  1.4247
  736MOL0     H99323  13.287   3.052   2.530  0.8892 -0.8953 -1.5172
  736MOL0     H99324  13.477   2.946   2.475 -3.3187 -0.1471  1.9084
  736MOL0     H99325  13.618   3.006   2.556  0.4593 -1.1661 -0.8002
  736MOL0     H99326  13.655   2.789   2.648 -0.8474  0.1921  0.3312
  736MOL0     H99327  13.547   2.715   2.527 -0.2711  0.4880 -0.2514
  736MOL0     H99328  13.660   2.813   2.340  2.5569 -1.0320 -1.6396
  736MOL0     H99329  13.783   2.880   2.443 -0.1160  0.8228 -0.9027
  736MOL0     H99330  13.727   2.577   2.372  0.3785 -0.9948  0.9553
  736MOL0     H99331  13.799   2.623   2.528  0.2563 -0.1644 -0.6209
  736MOL0     H99332  13.912   2.692   2.247 -1.7161  0.3687  0.2858
  736MOL0     H99333  13.960   2.560   2.346  3.9197  0.9336 -0.3176
  736MOL0     H99334  14.008   2.854   2.427  1.4526  0.5094  0.6520
  736MOL0     H99335  14.016   2.728   2.543 -0.2956  0.5354  0.0736
  736MOL0     H99336  14.193   2.718   2.288 -1.2681  1.3437  0.3457
  736MOL0     H99337  14.188   2.596   2.415  1.5325  0.2800  0.0642
  736MOL0     H99338  14.264   2.893   2.439 -0.9907 -1.0037 -2.2334
  736MOL0     H99339  14.275   2.769   2.575  1.6816 -2.3227 -0.5360
  736MOL0     H99340  13.351   2.778   2.863  0.4842  5.2270  2.2730
  736MOL0     H99341  13.107   2.750   2.890  2.9519  0.0557  2.4871
  736MOL0     H99342  12.690   2.941   2.648 -1.0071  0.0115 -1.0539
  736MOL0     H99343  12.451   2.907   2.594 -0.7801 -0.9354 -1.6804
  736MOL0     H99344  10.885   2.551   1.427  0.8444 -1.8841  1.3124
  736MOL0     H99345  10.713   2.516   1.249  0.1430 -0.8156 -1.5565
  736MOL0     H99346  10.339   2.280   1.087 -0.3857 -0.8731 -0.8864
  736MOL0     H99347  10.160   2.365   0.956  0.2793 -0.0956  1.4841
  736MOL0     H99348  10.058   2.565   0.909  0.2972 -1.8198 -0.5483
  736MOL0     H99349  10.000   2.461   0.780  0.4417 -1.2122  0.9021
  736MOL0     H99350  10.000   2.650   0.630 -0.0585 -5.0160  1.0233
  736MOL0     H99351  10.060   2.751   0.769 -1.9558  2.2725  0.2781
  736MOL0     H99352   9.849   2.749   0.871 -1.1719 -0.5153 -0.8896
  736MOL0     H99353   9.816   2.584   0.831 -0.3448 -0.4645  0.3786
  736MOL0     H99354   9.649   2.753   0.744 -0.0916  3.7012 -0.8277
  736MOL0     H99355   9.767   2.799   0.631  0.5083 -1.0107 -0.8105
  736MOL0     H99356   9.626   2.442   0.450 -0.8225  0.7765  0.1835
  736MOL0     H99357  10.447   2.574   0.701 -1.0728  0.9264  0.2754
  736MOL0     H99358  10.712   2.542   0.900  5.0031 -3.9555 -1.6675
  736MOL0     H99359  10.725   2.411   0.779  0.2380  0.3847 -1.1761
  736MOL0     H99360  10.655   2.565   0.738  2.9172  0.1377 -0.8444
  737MOL0     O99361   9.913   6.056   6.548  0.2126  0.0259 -0.1191
  737MOL0     C99362   9.891   6.104   6.436 -1.4047  0.1788  0.6647
  737MOL0     O99363   9.970   6.195   6.360 -0.0177 -0.3667  0.6601
  737MOL0     C99364  10.098   6.220   6.399 -0.0804 -0.0935  0.4956
  737MOL0     C99365  10.156   6.327   6.330  1.0353 -0.4048  0.8432
  737MOL0     C99366  10.283   6.366   6.350  0.3082 -0.9354  0.3973
  737MOL0     C99367  10.372   6.301   6.437 -0.1275 -0.3227  0.4371
  737MOL0     O99368  10.504   6.332   6.419  0.4644 -0.5213 -0.6348
  737MOL0     C99369  10.591   6.345   6.530 -0.1657 -0.2074 -0.1102
  737MOL0     C99370  10.727   6.297   6.498 -0.6999 -0.0325  0.5223
  737MOL0     C99371  10.801   6.382   6.391  0.2477 -0.3373 -0.1603
  737MOL0     C99372  10.954   6.356   6.413  0.1919 -0.2629 -0.1808
  737MOL0     C99373  11.024   6.417   6.294  0.5027 -0.2657 -0.9477
  737MOL0     C99374  11.179   6.391   6.299  0.2610  0.1802  0.3317
  737MOL0     C99375  11.248   6.440   6.430 -0.6492 -0.2183  0.1052
  737MOL0     C99376  11.400   6.439   6.417 -0.3479 -0.2080 -0.3052
  737MOL0     N99377  11.474   6.316   6.393  0.2174  0.4790 -0.6260
  737MOL0     C99378  11.543   6.256   6.494 -1.6024  0.6586  0.2164
  737MOL0     C99379  11.630   6.161   6.430 -0.0042 -0.6163 -0.6094
  737MOL0     C99380  11.738   6.089   6.502  0.2557 -0.5684 -0.5437
  737MOL0     C99381  11.866   6.157   6.507 -0.3738 -0.0514  0.5477
  737MOL0     C99382  11.958   6.079   6.600 -0.0856 -0.3846 -0.3073
  737MOL0     C99383  12.110   6.098   6.559 -0.1221  0.2261  0.1003
  737MOL0     O99384  12.193   6.023   6.640 -1.0508 -0.3772 -0.5546
  737MOL0     C99385  12.322   6.060   6.647  0.3683  0.1423  0.4326
  737MOL0     C99386  12.405   6.025   6.755  0.2513  0.4285  0.1984
  737MOL0     C99387  12.548   6.039   6.759 -0.4504  0.8527  0.3612
  737MOL0     C99388  12.616   6.080   6.638  0.1951 -0.0462 -0.0407
  737MOL0     C99389  12.759   6.093   6.639  0.1028  0.2031  0.2412
  737MOL0     O99390  12.814   6.181   6.552  0.0601 -0.1711 -0.2713
  737MOL0     C99391  12.948   6.204   6.545  0.5152  0.5738  0.1114
  737MOL0     C99392  12.985   6.261   6.417 -0.1163 -0.4188 -1.4179
  737MOL0     C99393  13.120   6.293   6.401  0.1073 -1.2234  0.0717
  737MOL0     C99394  13.216   6.279   6.500  0.0910  0.6102 -0.3540
  737MOL0     O99395  13.340   6.317   6.460  0.2200 -0.3338  0.6388
  737MOL0     C99396  13.428   6.365   6.563 -0.0918 -0.2843  0.3923
  737MOL0     C99397  13.534   6.258   6.593  1.1692 -0.8089  0.1168
  737MOL0     C99398  13.625   6.291   6.706  0.0512 -0.3221  0.9492
  737MOL0     C99399  13.714   6.166   6.737  0.7291 -0.1734 -0.7106
  737MOL0     C99400  13.786   6.206   6.869  0.1824 -0.5927 -0.3812
  737MOL0     C99401  13.886   6.092   6.913  0.1450  0.1311  0.5120
  737MOL0     C99402  13.987   6.150   7.009  0.5789  0.3589 -0.2189
  737MOL0     C99403  14.048   6.032   7.076 -0.0116 -0.1316 -0.8024
  737MOL0    Cl99404  14.178   6.095   7.171  0.0193  0.0155  0.4182
  737MOL0     C99405  13.186   6.216   6.619  0.1765 -0.4796 -0.2411
  737MOL0     C99406  13.046   6.189   6.642 -0.8944 -0.3915 -0.4785
  737MOL0     O99407  12.819   6.031   6.728  0.0658  0.0178 -0.8036
  737MOL0     C99408  12.526   6.114   6.530  0.3113  0.2283 -0.2992
  737MOL0     C99409  12.391   6.103   6.539 -0.4633  0.4629  0.1174
  737MOL0     N99410  11.587   6.151   6.301  0.2237  0.0320  0.0203
  737MOL0     N99411  11.493   6.241   6.273 -1.3724  0.0150  0.0363
  737MOL0     C99412  10.321   6.185   6.505  0.2002  0.0489 -1.1421
  737MOL0     C99413  10.183   6.149   6.487  0.2430 -0.2492  0.1730
  737MOL0     C99414   9.763   6.072   6.375  0.1783  0.6940  0.4530
  737MOL0     C99415   9.649   6.055   6.447 -0.1327 -0.1964 -0.1097
  737MOL0     C99416   9.521   6.021   6.403  0.6960  0.4748 -0.7798
  737MOL0     C99417   9.508   5.993   6.267  0.6488 -0.1196  0.8376
  737MOL0     O99418   9.398   5.958   6.190 -0.2375  0.5904 -0.2379
  737MOL0     C99419   9.273   5.943   6.262  0.2375 -0.7732  0.5826
  737MOL0     C99420   9.167   5.865   6.175  1.1605 -0.1811 -0.6693
  737MOL0     C99421   9.151   5.921   6.035  0.4189 -0.5712  0.4046
  737MOL0     C99422   9.087   6.052   6.011  0.4533 -0.5500 -0.0171
  737MOL0     C99423   8.964   6.070   6.082  1.1113  1.4594 -0.0538
  737MOL0     C99424   8.855   6.084   6.138 -0.5022 -0.5046  0.9391
  737MOL0     C99425   9.621   6.008   6.185  0.0774 -0.0321  0.3374
  737MOL0     C99426   9.746   6.043   6.235 -0.0845 -0.4069 -0.5434
  737MOL0     C99427   9.849   6.030   6.124  0.4215 -0.2116  0.7128
  737MOL0     H99428  10.101   6.370   6.247 -0.1337 -2.1047  0.6719
  737MOL0     H99429  10.304   6.456   6.293 -1.3718 -2.2114 -2.5294
  737MOL0     H99430  10.598   6.452   6.554 -1.6349 -0.7012  3.0202
  737MOL0     H99431  10.559   6.291   6.620  3.5633 -0.1320  1.4416
  737MOL0     H99432  10.715   6.198   6.454  0.7820  1.6703 -4.3531
  737MOL0     H99433  10.778   6.313   6.593  0.1855 -2.0407  0.4352
  737MOL0     H99434  10.776   6.488   6.402 -0.3636  0.0830 -4.1386
  737MOL0     H99435  10.758   6.357   6.294 -0.9864 -1.6984  0.6997
  737MOL0     H99436  10.994   6.396   6.507 -0.0584 -1.4194  0.4249
  737MOL0     H99437  10.968   6.248   6.413  2.4685 -0.0472 -1.3741
  737MOL0     H99438  10.981   6.362   6.209 -1.4781 -0.9532  0.4262
  737MOL0     H99439  11.002   6.524   6.287  3.1433  0.7588  2.9412
  737MOL0     H99440  11.202   6.285   6.281 -2.2689 -1.6854  5.8615
  737MOL0     H99441  11.216   6.446   6.211 -0.3019 -0.0291 -0.0419
  737MOL0     H99442  11.212   6.358   6.493 -1.5562 -2.4041 -2.9721
  737MOL0     H99443  11.223   6.538   6.471 -0.0200 -0.7377  1.8068
  737MOL0     H99444  11.421   6.514   6.339 -3.5056  0.7945 -0.3225
  737MOL0     H99445  11.437   6.486   6.508 -2.3109  1.6818 -0.4016
  737MOL0     H99446  11.540   6.287   6.597 -0.4031  0.1340  0.4267
  737MOL0     H99447  11.708   6.088   6.607 -1.3502  4.5199 -0.6694
  737MOL0     H99448  11.752   5.986   6.468 -0.8849 -1.3270  1.1477
  737MOL0     H99449  11.914   6.157   6.409 -1.2991 -1.0091  0.0854
  737MOL0     H99450  11.862   6.261   6.543 -1.8295 -0.4343  1.5830
  737MOL0     H99451  11.935   5.972   6.594  1.1667 -0.7915  1.2904
  737MOL0     H99452  11.943   6.115   6.702 -0.8942  1.2456 -0.9737
  737MOL0     H99453  12.141   6.202   6.571  1.5846 -0.4858  2.4080
  737MOL0     H99454  12.120   6.059   6.457  0.2218 -3.4492  1.4191
  737MOL0     H99455  12.360   5.978   6.842  0.2509 -0.1570 -0.1150
  737MOL0     H99456  12.606   6.020   6.848  0.3522  1.1789 -0.0777
  737MOL0     H99457  12.913   6.292   6.342 -0.1691  0.5444 -0.9800
  737MOL0     H99458  13.146   6.331   6.303  1.1649  0.6986  1.0384
  737MOL0     H99459  13.476   6.460   6.537 -0.9853 -0.1859 -1.0041
  737MOL0     H99460  13.363   6.378   6.651  0.3775 -0.7709  0.8115
  737MOL0     H99461  13.489   6.165   6.626  1.0908 -0.6722  0.4013
  737MOL0     H99462  13.585   6.222   6.503 -2.3596 -2.5626 -1.3870
  737MOL0     H99463  13.689   6.372   6.669 -1.3337  0.1503 -0.5025
  737MOL0     H99464  13.567   6.320   6.793 -1.1734  0.5607 -0.1267
  737MOL0     H99465  13.790   6.156   6.659  1.2771  4.0755 -0.9147
  737MOL0     H99466  13.664   6.070   6.752 -0.5366  0.2632 -1.9843
  737MOL0     H99467  13.708   6.220   6.944  1.3508  0.5480  0.6877
  737MOL0     H99468  13.840   6.300   6.858 -0.1086 -0.2414  0.9925
  737MOL0     H99469  13.818   6.020   6.958  0.5953  0.1092  1.1874
  737MOL0     H99470  13.930   6.043   6.826 -1.4316 -0.1964 -0.1233
  737MOL0     H99471  13.950   6.221   7.083  1.2300 -0.3981  0.8570
  737MOL0     H99472  14.056   6.203   6.943  2.1123 -3.0570 -1.6470
  737MOL0     H99473  13.975   5.984   7.142  1.6122 -0.3767  0.9015
  737MOL0     H99474  14.086   5.957   7.006  1.9656  1.2270 -1.2671
  737MOL0     H99475  13.260   6.193   6.694 -0.8689 -1.6838  0.4629
  737MOL0     H99476  13.027   6.158   6.744  1.0054  0.4513  0.1699
  737MOL0     H99477  12.577   6.148   6.441 -0.5487 -1.8392 -1.6410
  737MOL0     H99478  12.333   6.139   6.454 -1.5409  1.8661  1.4069
  737MOL0     H99479  10.375   6.128   6.581 -0.1945  1.0710 -0.0712
  737MOL0     H99480  10.128   6.064   6.527  1.4136 -1.6434 -1.0410
  737MOL0     H99481   9.654   6.062   6.556 -1.6821 -1.3823  0.0671
  737MOL0     H99482   9.437   6.011   6.471  1.0388 -1.1815 -0.5626
  737MOL0     H99483   9.230   6.040   6.289 -0.4388 -1.2347  1.2165
  737MOL0     H99484   9.291   5.887   6.354  4.4431  1.7829  1.5636
  737MOL0     H99485   9.065   5.871   6.214  1.8657  2.9073  0.9825
  737MOL0     H99486   9.201   5.762   6.155 -2.5119 -1.3637 -1.5673
  737MOL0     H99487   9.084   5.854   5.980  1.5619  0.2604 -2.1407
  737MOL0     H99488   9.248   5.913   5.986  0.9465  0.0247  1.3286
  737MOL0     H99489   9.150   6.136   6.041  0.5382 -0.5682 -0.1424
  737MOL0     H99490   9.076   6.079   5.906  1.6425  2.4846  0.5548
  737MOL0     H99491   8.755   6.095   6.178 -0.7621 -1.2803  0.5098
  737MOL0     H99492   9.601   5.990   6.080  1.2789  1.4925 -0.1920
  737MOL0     H99493   9.857   5.932   6.076  2.3562 -1.1566  2.8204
  737MOL0     H99494   9.813   6.093   6.041 -3.0270  0.2723  2.4064
  737MOL0     H99495   9.948   6.052   6.166  0.1733  0.4661  0.9586
  738MOL0     O99496   4.160   4.679   9.715  0.3533 -0.3627 -0.2304
  738MOL0     C99497   4.202   4.568   9.682 -0.1342 -0.4478  0.4698
  738MOL0     O99498   4.294   4.550   9.589 -0.3424  0.8201  0.2586
  738MOL0     C99499   4.373   4.656   9.535  0.0245  0.9232 -0.3538
  738MOL0     C99500   4.415   4.765   9.609  0.6233  0.6411 -0.0830
  738MOL0     C99501   4.517   4.848   9.557  0.7098 -0.5940  0.0371
  738MOL0     C99502   4.574   4.827   9.429  0.1729 -0.5216  0.2180
  738MOL0     O99503   4.668   4.914   9.385  0.0805  0.0003  0.5831
  738MOL0     C99504   4.759   4.966   9.481 -0.0500 -0.2232  0.8016
  738MOL0     C99505   4.862   5.050   9.411  0.1815  0.3977 -1.0216
  738MOL0     C99506   4.973   4.958   9.340  0.1294 -0.3058 -0.2297
  738MOL0     C99507   4.941   4.940   9.198  0.6172 -0.3553  1.1004
  738MOL0     C99508   5.017   4.826   9.120  0.5951  0.1711 -0.0884
  738MOL0     C99509   5.168   4.849   9.109  0.5061  0.1161  0.4156
  738MOL0     C99510   5.238   4.717   9.091 -0.0258  0.0317 -0.5384
  738MOL0     C99511   5.385   4.714   9.127  0.0481  0.1338 -0.5262
  738MOL0     N99512   5.468   4.766   9.028 -0.4842  0.4216 -0.4127
  738MOL0     C99513   5.498   4.694   8.917 -0.0856 -0.0993 -0.7171
  738MOL0     C99514   5.594   4.761   8.852 -0.9274 -0.1832  0.1499
  738MOL0     C99515   5.686   4.706   8.745  0.0950  0.3657  0.1078
  738MOL0     C99516   5.807   4.635   8.807  0.1791  0.1919 -0.4040
  738MOL0     C99517   5.931   4.724   8.805 -1.2769  0.5013 -0.8240
  738MOL0     C99518   6.069   4.642   8.826 -0.0732 -1.1708  0.1714
  738MOL0     O99519   6.162   4.750   8.837 -0.7703  0.0588 -0.9634
  738MOL0     C99520   6.296   4.729   8.811  0.5603 -0.0594 -0.3949
  738MOL0     C99521   6.377   4.833   8.843  0.4177 -0.4398 -0.4975
  738MOL0     C99522   6.515   4.837   8.821 -0.6522  0.2885 -0.5511
  738MOL0     C99523   6.579   4.726   8.765 -0.2255 -1.2663 -0.1041
  738MOL0     C99524   6.719   4.727   8.732 -0.1203 -0.3030  0.1064
  738MOL0     O99525   6.767   4.852   8.723 -0.5280  0.3682  0.0911
  738MOL0     C99526   6.901   4.879   8.761  0.7156  0.7974  0.5288
  738MOL0     C99527   6.926   5.005   8.830  0.3757  0.7560 -0.2386
  738MOL0     C99528   7.055   5.035   8.871 -0.1490 -0.4091  0.0294
  738MOL0     C99529   7.163   4.946   8.850  0.3557 -0.2274 -0.1732
  738MOL0     O99530   7.291   4.985   8.890  0.0009  0.3779  0.4127
  738MOL0     C99531   7.349   4.884   8.965  0.2371  0.3478 -1.2502
  738MOL0     C99532   7.445   4.963   9.058 -0.1575 -0.1086 -0.4638
  738MOL0     C99533   7.520   4.889   9.174 -0.0304 -0.1166  0.4052
  738MOL0     C99534   7.613   4.785   9.116  0.7959  0.1923  0.2375
  738MOL0     C99535   7.726   4.832   9.025  0.3844 -0.1939 -0.0030
  738MOL0     C99536   7.818   4.936   9.093  0.1667  0.3660 -0.2352
  738MOL0     C99537   7.863   4.890   9.231 -0.4483 -0.3605  0.3552
  738MOL0     C99538   7.966   4.986   9.296 -0.0079 -0.2261  0.0404
  738MOL0    Cl99539   8.034   4.934   9.455  0.0264  0.2007 -0.4757
  738MOL0     C99540   7.139   4.823   8.788  0.2081  0.1089 -0.1864
  738MOL0     C99541   7.012   4.792   8.735 -0.4791 -0.0177 -0.4153
  738MOL0     O99542   6.787   4.630   8.728 -0.0853  0.2330 -0.1286
  738MOL0     C99543   6.504   4.617   8.735  0.9410  0.9078  0.2227
  738MOL0     C99544   6.366   4.617   8.767 -0.4618  0.2831 -1.0321
  738MOL0     N99545   5.624   4.866   8.934 -0.5627 -0.3256  1.2802
  738MOL0     N99546   5.558   4.865   9.043 -0.0889  0.3954 -0.2995
  738MOL0     C99547   4.519   4.725   9.350 -0.1484 -0.2833 -0.4207
  738MOL0     C99548   4.417   4.642   9.404  0.3003  0.7282  0.3154
  738MOL0     C99549   4.147   4.451   9.751  0.0077 -0.3705 -0.0382
  738MOL0     C99550   4.148   4.453   9.891  0.8086  0.3699  0.2487
  738MOL0     C99551   4.093   4.356   9.972 -1.5038 -0.7054  0.4572
  738MOL0     C99552   4.030   4.250   9.914  1.1372  0.4297  0.4676
  738MOL0     O99553   3.996   4.130   9.974 -0.4533 -0.4376 -0.2026
  738MOL0     C99554   4.059   4.100  10.097 -0.0407 -0.1560 -0.3226
  738MOL0     C99555   3.989   3.987  10.169  0.4535  0.5412  0.2244
  738MOL0     C99556   3.836   4.021  10.185  0.2205 -0.0140 -0.0031
  738MOL0     C99557   3.782   3.911  10.264  0.5714  0.3439  0.3832
  738MOL0     C99558   3.633   3.922  10.273  0.3736 -1.3946 -0.1773
  738MOL0     C99559   3.513   3.943  10.293 -0.4711  0.1518  0.4229
  738MOL0     C99560   4.018   4.242   9.773  0.2035 -0.2759 -0.2331
  738MOL0     C99561   4.076   4.344   9.692 -0.2027  0.1988  0.7073
  738MOL0     C99562   4.073   4.317   9.536  0.0190  0.9329  0.2790
  738MOL0     H99563   4.383   4.779   9.712  2.0057  2.4664  0.1447
  738MOL0     H99564   4.552   4.929   9.620 -1.4160  1.5274 -1.3566
  738MOL0     H99565   4.704   5.037   9.543  1.7069 -0.7337  3.0400
  738MOL0     H99566   4.810   4.885   9.533 -0.0261 -1.4472 -1.0075
  738MOL0     H99567   4.902   5.121   9.484 -1.6051 -1.1648  1.6763
  738MOL0     H99568   4.812   5.112   9.336  2.8137  3.7854 -0.2410
  738MOL0     H99569   4.981   4.861   9.390  1.9224  0.0518  0.2563
  738MOL0     H99570   5.072   5.004   9.350  0.8357 -1.5007 -1.4684
  738MOL0     H99571   4.839   4.903   9.183  1.1641 -0.8757 -2.0495
  738MOL0     H99572   4.955   5.036   9.148 -0.7997  0.5407  2.3121
  738MOL0     H99573   4.997   4.737   9.181  1.8514 -0.0401  0.0443
  738MOL0     H99574   4.975   4.810   9.021  0.8910 -1.2991 -0.0052
  738MOL0     H99575   5.189   4.917   9.026 -1.0281  0.8679  0.6125
  738MOL0     H99576   5.209   4.890   9.202 -1.1798  1.9614  0.4171
  738MOL0     H99577   5.235   4.678   8.988 -2.5834 -1.9432  0.1838
  738MOL0     H99578   5.183   4.649   9.156 -1.8799  1.8634 -0.0975
  738MOL0     H99579   5.403   4.769   9.220 -0.1433 -0.0467 -0.3831
  738MOL0     H99580   5.416   4.610   9.135 -0.9900 -0.2897 -1.6699
  738MOL0     H99581   5.446   4.601   8.899 -0.6732 -0.1132  0.9686
  738MOL0     H99582   5.624   4.639   8.685 -0.1508  2.4693 -2.1051
  738MOL0     H99583   5.711   4.781   8.670 -0.5667 -1.3247 -1.9128
  738MOL0     H99584   5.776   4.597   8.904 -3.1712 -3.0977 -2.4977
  738MOL0     H99585   5.835   4.547   8.748 -1.9071 -0.5847 -0.3422
  738MOL0     H99586   5.925   4.798   8.885  2.9094 -0.2467  0.3969
  738MOL0     H99587   5.933   4.770   8.706  0.7889  1.4868 -0.3784
  738MOL0     H99588   6.099   4.586   8.736  2.9336 -0.1165  0.3889
  738MOL0     H99589   6.078   4.578   8.915  3.3845  0.1589  0.9617
  738MOL0     H99590   6.334   4.923   8.886  0.4288  0.2512 -1.9022
  738MOL0     H99591   6.572   4.928   8.837 -3.3751  1.9253  0.7306
  738MOL0     H99592   6.842   5.066   8.861 -0.1408 -1.0307  2.1518
  738MOL0     H99593   7.075   5.128   8.923  0.8679 -0.0798 -0.9200
  738MOL0     H99594   7.284   4.817   9.022 -0.6141 -0.1238 -2.7240
  738MOL0     H99595   7.405   4.820   8.897 -0.3706  0.9716 -2.3645
  738MOL0     H99596   7.513   5.026   9.000 -0.3598  1.0917  0.5420
  738MOL0     H99597   7.383   5.040   9.107  3.0152  2.2681  0.1859
  738MOL0     H99598   7.574   4.966   9.231 -1.1122  0.0235  1.2801
  738MOL0     H99599   7.439   4.847   9.235 -0.8003 -1.9350 -1.7382
  738MOL0     H99600   7.556   4.725   9.045  2.0588 -0.8588  0.0788
  738MOL0     H99601   7.646   4.723   9.200 -0.9768 -3.1337 -1.3334
  738MOL0     H99602   7.704   4.879   8.929  2.0383 -0.2826 -0.4632
  738MOL0     H99603   7.788   4.747   8.997  1.2835  0.8067 -1.1942
  738MOL0     H99604   7.902   4.939   9.023  0.0771 -1.1635 -0.4271
  738MOL0     H99605   7.779   5.038   9.085  0.0460  0.1898 -3.3512
  738MOL0     H99606   7.903   4.789   9.221 -0.1008 -0.2207  0.3182
  738MOL0     H99607   7.773   4.874   9.292 -2.4689  0.7931 -2.1062
  738MOL0     H99608   8.054   5.000   9.234  0.9931 -2.9621  0.6946
  738MOL0     H99609   7.914   5.079   9.320 -1.7101 -0.8513 -0.9848
  738MOL0     H99610   7.216   4.747   8.786 -1.0673 -1.2492  0.2651
  738MOL0     H99611   7.001   4.700   8.680 -1.0977  0.1227 -0.5391
  738MOL0     H99612   6.552   4.531   8.691 -0.4052 -1.2559  2.7006
  738MOL0     H99613   6.310   4.527   8.744 -0.7694 -0.5233  2.3090
  738MOL0     H99614   4.558   4.712   9.249 -1.5013  1.2013 -1.1778
  738MOL0     H99615   4.387   4.557   9.344  3.6052 -0.3055 -0.0786
  738MOL0     H99616   4.191   4.542   9.935 -1.5280  1.1246  1.1875
  738MOL0     H99617   4.114   4.368  10.078  0.4054 -1.9659  0.2831
  738MOL0     H99618   4.057   4.181  10.171 -0.7042 -0.2715 -0.2052
  738MOL0     H99619   4.166   4.084  10.084  0.4461  2.7543 -0.7172
  738MOL0     H99620   4.035   3.974  10.268  0.5563 -0.1493  0.0900
  738MOL0     H99621   4.006   3.897  10.109  0.5407  0.2058  0.7395
  738MOL0     H99622   3.778   4.039  10.094  0.5021  1.4452  0.0898
  738MOL0     H99623   3.829   4.116  10.237  0.7033  1.5349 -2.5626
  738MOL0     H99624   3.813   3.817  10.216  2.6594  1.1096  0.1235
  738MOL0     H99625   3.819   3.928  10.366 -0.0019 -0.3979  0.7251
  738MOL0     H99626   3.406   3.948  10.299 -0.8551 -3.3400 -0.8953
  738MOL0     H99627   3.962   4.158   9.734  4.3746 -4.2014  1.3441
  738MOL0     H99628   4.156   4.249   9.512 -0.3594  0.2295  0.9522
  738MOL0     H99629   3.979   4.274   9.501 -1.4778  2.9159  1.6752
  738MOL0     H99630   4.073   4.415   9.487 -0.3062  0.5845 -0.4373
  739MOL0     O99631   3.783   1.991   6.547  0.0602  0.4823  0.1516
  739MOL0     C99632   3.717   1.902   6.496  0.2002  0.3965 -0.2830
  739MOL0     O99633   3.758   1.774   6.464 -0.4023  0.1054 -0.3943
  739MOL0     C99634   3.896   1.764   6.477  0.0563  0.3525  0.2985
  739MOL0     C99635   3.952   1.732   6.607  0.3378  0.4317 -0.5476
  739MOL0     C99636   4.088   1.710   6.624  0.2188  0.5757  0.1459
  739MOL0     C99637   4.172   1.728   6.518  0.1813 -0.1937  0.7444
  739MOL0     O99638   4.306   1.711   6.554  0.3676 -0.7380 -0.0054
  739MOL0     C99639   4.418   1.731   6.461  0.9779 -0.2285 -0.2273
  739MOL0     C99640   4.544   1.746   6.546  0.4198  0.3122 -0.2661
  739MOL0     C99641   4.669   1.794   6.473 -0.6618  0.2522  0.4765
  739MOL0     C99642   4.792   1.778   6.562  0.3301 -0.2771  1.2565
  739MOL0     C99643   4.894   1.868   6.496  0.1360  0.6912 -0.4484
  739MOL0     C99644   5.016   1.885   6.582 -0.7769  0.3805 -0.5086
  739MOL0     C99645   5.103   2.005   6.534  0.1154  0.6875 -0.2360
  739MOL0     C99646   5.240   2.012   6.607  0.2336 -0.7499  0.2026
  739MOL0     N99647   5.316   2.130   6.574 -0.4040 -0.3280 -0.4790
  739MOL0     C99648   5.433   2.123   6.494 -0.6320 -0.7096  0.1281
  739MOL0     C99649   5.457   2.254   6.465 -0.1588 -1.0538 -0.7545
  739MOL0     C99650   5.554   2.302   6.365 -0.3887 -0.5876 -0.6372
  739MOL0     C99651   5.695   2.330   6.434  0.0007  0.2801 -0.4736
  739MOL0     C99652   5.796   2.294   6.334 -0.5134  0.4424 -0.5598
  739MOL0     C99653   5.940   2.315   6.380  0.0053 -0.0216 -0.5053
  739MOL0     O99654   5.975   2.220   6.491 -0.2326  0.6047 -0.2163
  739MOL0     C99655   6.103   2.225   6.544  0.2579 -0.5717  0.3071
  739MOL0     C99656   6.133   2.169   6.668  0.4593  0.3609  0.8715
  739MOL0     C99657   6.259   2.147   6.712 -0.3146  0.2180  0.2618
  739MOL0     C99658   6.364   2.192   6.631  0.8486  0.7993 -0.4208
  739MOL0     C99659   6.500   2.152   6.669 -0.3318  0.0391  0.6042
  739MOL0     O99660   6.519   2.087   6.787  0.2410 -0.0581 -0.1513
  739MOL0     C99661   6.645   2.055   6.826  0.0670  0.0780 -0.1982
  739MOL0     C99662   6.740   2.002   6.738 -0.0074 -0.1549  0.0676
  739MOL0     C99663   6.870   1.954   6.779  0.3891  0.2538  0.2234
  739MOL0     C99664   6.906   1.955   6.913 -0.3531 -0.6103 -0.7155
  739MOL0     O99665   7.027   1.907   6.947 -0.2456 -0.0272  0.3412
  739MOL0     C99666   7.046   1.844   7.070  0.1939 -0.5879 -0.7781
  739MOL0     C99667   7.176   1.778   7.051 -0.9148 -0.3597  0.5257
  739MOL0     C99668   7.216   1.701   7.177  0.2670 -0.2022 -0.3462
  739MOL0     C99669   7.349   1.622   7.165 -0.0318 -0.0870  0.2833
  739MOL0     C99670   7.397   1.586   7.301 -0.1511  0.4211 -0.0842
  739MOL0     C99671   7.554   1.583   7.308 -0.5127 -0.6884  0.3109
  739MOL0     C99672   7.616   1.726   7.315  0.8525  1.3602  0.4909
  739MOL0     C99673   7.766   1.739   7.303  0.0105  0.5590 -0.1846
  739MOL0    Cl99674   7.841   1.617   7.411 -0.6226  0.0061 -0.2300
  739MOL0     C99675   6.804   1.999   7.011  0.8814 -0.9990  0.1448
  739MOL0     C99676   6.680   2.054   6.965 -0.7327  0.8038  0.7565
  739MOL0     O99677   6.581   2.162   6.578 -0.2588  0.1092  0.4526
  739MOL0     C99678   6.337   2.267   6.517  0.6091 -0.5514 -0.5323
  739MOL0     C99679   6.212   2.273   6.465  0.2613  0.1048  0.3268
  739MOL0     N99680   5.362   2.331   6.520 -0.1573  0.0507  0.0968
  739MOL0     N99681   5.279   2.260   6.582  0.2526 -0.8209  0.0807
  739MOL0     C99682   4.121   1.778   6.394 -0.5487 -0.6745  0.2870
  739MOL0     C99683   3.985   1.795   6.374  0.3769 -0.4373 -0.4512
  739MOL0     C99684   3.578   1.937   6.470  0.2626  0.2492  0.2157
  739MOL0     C99685   3.529   2.054   6.531 -0.2252  0.0198 -0.4241
  739MOL0     C99686   3.393   2.077   6.534 -0.5522 -0.0827 -0.5001
  739MOL0     C99687   3.303   2.006   6.455  0.9223  0.2771 -0.2660
  739MOL0     O99688   3.161   2.028   6.462 -0.0946  0.6090  0.8751
  739MOL0     C99689   3.086   2.036   6.335 -0.3795 -0.3649 -0.2271
  739MOL0     C99690   2.951   2.102   6.360  0.7310  0.4578 -0.2102
  739MOL0     C99691   2.861   2.018   6.456 -0.0025 -0.3130  0.0461
  739MOL0     C99692   2.721   1.977   6.410 -0.0112  1.2198  0.4979
  739MOL0     C99693   2.625   2.085   6.417  0.5021  0.9624 -0.3922
  739MOL0     C99694   2.527   2.157   6.411 -0.5424 -1.3124 -0.5503
  739MOL0     C99695   3.353   1.914   6.373  0.2225 -0.5722  0.1730
  739MOL0     C99696   3.486   1.867   6.385  0.8410  0.0980 -0.8832
  739MOL0     C99697   3.528   1.741   6.312  0.5467 -0.2516 -0.4511
  739MOL0     H99698   3.893   1.701   6.692  1.0155  0.1501 -0.1693
  739MOL0     H99699   4.123   1.680   6.722 -3.1586 -1.1797  0.9506
  739MOL0     H99700   4.431   1.656   6.383  2.6740  0.0807 -0.2767
  739MOL0     H99701   4.400   1.823   6.405 -3.6296 -1.5031 -1.2197
  739MOL0     H99702   4.570   1.660   6.609  1.9435  2.6876  2.6471
  739MOL0     H99703   4.512   1.814   6.626  0.3346 -2.4976  2.3053
  739MOL0     H99704   4.661   1.893   6.427 -1.2910  0.1545  0.3642
  739MOL0     H99705   4.687   1.731   6.386  2.4192  3.6461 -1.5993
  739MOL0     H99706   4.759   1.819   6.658 -1.7493  0.9246  0.1110
  739MOL0     H99707   4.832   1.678   6.581  1.7130  0.3968  1.9657
  739MOL0     H99708   4.924   1.830   6.398 -0.0838  0.7294 -0.5314
  739MOL0     H99709   4.853   1.966   6.471 -1.6207  0.3047  0.6817
  739MOL0     H99710   4.984   1.896   6.686 -2.3478  0.2288 -0.9498
  739MOL0     H99711   5.080   1.798   6.564  0.4916  1.2065 -0.1221
  739MOL0     H99712   5.051   2.093   6.571 -1.6528 -0.9129  1.2589
  739MOL0     H99713   5.112   2.010   6.425  0.5202  1.6542 -0.1706
  739MOL0     H99714   5.210   2.019   6.712 -1.6423  1.4382 -0.4185
  739MOL0     H99715   5.294   1.919   6.586  0.6207 -0.6469  0.7183
  739MOL0     H99716   5.483   2.034   6.457  0.6029 -0.2483  0.6378
  739MOL0     H99717   5.565   2.217   6.297 -2.2874 -1.4274  0.0177
  739MOL0     H99718   5.511   2.393   6.322 -0.2598 -0.6597 -0.9167
  739MOL0     H99719   5.705   2.436   6.460  0.2642 -0.2480  1.8125
  739MOL0     H99720   5.714   2.269   6.523 -1.8633 -1.8201 -1.4176
  739MOL0     H99721   5.775   2.359   6.248  1.5402 -1.8158 -2.9323
  739MOL0     H99722   5.781   2.190   6.307  0.1144 -0.2798  1.6404
  739MOL0     H99723   5.947   2.415   6.424 -2.8140  0.1971 -0.3749
  739MOL0     H99724   6.013   2.311   6.299 -0.4175 -3.8913 -0.8802
  739MOL0     H99725   6.047   2.149   6.731 -1.6595  2.2531 -1.2190
  739MOL0     H99726   6.275   2.115   6.814 -0.9833 -2.2637 -0.3615
  739MOL0     H99727   6.713   1.982   6.635  2.7440 -2.7434 -0.2777
  739MOL0     H99728   6.928   1.915   6.696  0.7062  0.1200  0.5087
  739MOL0     H99729   7.043   1.921   7.148 -1.7236 -0.3839 -1.0098
  739MOL0     H99730   6.968   1.770   7.089  2.3491 -1.9083  5.8370
  739MOL0     H99731   7.172   1.714   6.962  0.7866  2.6119 -1.8826
  739MOL0     H99732   7.246   1.859   7.026 -0.3175 -0.8672  0.5393
  739MOL0     H99733   7.224   1.771   7.261 -0.3044 -1.4247  0.7716
  739MOL0     H99734   7.130   1.637   7.200  0.7447 -0.5004  0.6924
  739MOL0     H99735   7.415   1.695   7.118 -1.8274  1.1885 -0.3515
  739MOL0     H99736   7.336   1.531   7.106 -2.0046 -0.6059  1.4164
  739MOL0     H99737   7.373   1.481   7.323  2.1770  0.0776  1.1748
  739MOL0     H99738   7.369   1.655   7.381 -0.4317 -0.0088  0.1961
  739MOL0     H99739   7.583   1.526   7.397 -0.9971  2.2317  2.4868
  739MOL0     H99740   7.592   1.534   7.217  0.1063 -0.3779  0.3988
  739MOL0     H99741   7.590   1.761   7.415 -2.5178 -1.3694  0.7738
  739MOL0     H99742   7.564   1.784   7.238 -1.1563 -1.4069 -0.4320
  739MOL0     H99743   7.801   1.715   7.202  1.3916 -1.3962  0.6950
  739MOL0     H99744   7.778   1.847   7.317 -2.6195  0.8510  0.2687
  739MOL0     H99745   6.821   2.005   7.118 -0.6430  1.5464  0.3112
  739MOL0     H99746   6.621   2.103   7.042  0.9039  1.2287  1.7964
  739MOL0     H99747   6.420   2.301   6.455  1.1311 -0.7810  0.0266
  739MOL0     H99748   6.202   2.305   6.362  0.2293 -1.0762 -0.0583
  739MOL0     H99749   4.197   1.786   6.316  0.5594  2.3064  1.5178
  739MOL0     H99750   3.948   1.798   6.272  1.1467 -0.1854 -0.7246
  739MOL0     H99751   3.588   2.114   6.599 -1.5488  2.8224 -1.5942
  739MOL0     H99752   3.361   2.164   6.590  1.8785  0.1471  0.6944
  739MOL0     H99753   3.071   1.939   6.288  2.6113 -1.4819  0.8971
  739MOL0     H99754   3.156   2.082   6.264  1.6705 -0.9017  1.3320
  739MOL0     H99755   2.907   2.097   6.260  0.3836  0.2077 -0.0484
  739MOL0     H99756   2.955   2.207   6.391  3.3488 -0.2264  2.2734
  739MOL0     H99757   2.855   2.077   6.548 -0.5317  0.2620 -0.3521
  739MOL0     H99758   2.911   1.922   6.473  3.7638  0.9287 -2.8028
  739MOL0     H99759   2.722   1.951   6.303 -1.0121 -1.2027  1.0272
  739MOL0     H99760   2.678   1.892   6.464  0.4435 -0.0563 -1.0553
  739MOL0     H99761   2.443   2.222   6.396 -0.5874 -0.8029  1.6033
  739MOL0     H99762   3.281   1.863   6.310 -1.8093  1.1246  1.0010
  739MOL0     H99763   3.442   1.706   6.254  0.0263  0.3743 -0.0717
  739MOL0     H99764   3.617   1.760   6.251  1.0301  1.0811  0.6209
  739MOL0     H99765   3.549   1.656   6.377  0.6454 -0.1934 -0.4061
  740MOL0     O99766   5.386   5.334   7.804 -0.2491 -0.0808  0.2259
  740MOL0     C99767   5.337   5.443   7.843  1.1041 -0.4503 -0.1394
  740MOL0     O99768   5.411   5.553   7.889  0.2978 -0.6454  0.3041
  740MOL0     C99769   5.552   5.565   7.872  0.0961  0.3264  0.6266
  740MOL0     C99770   5.603   5.693   7.858  0.2543 -0.1006  0.2523
  740MOL0     C99771   5.739   5.720   7.840  0.1889  0.0653 -0.4096
  740MOL0     C99772   5.829   5.613   7.838 -0.5029  0.2461  0.7563
  740MOL0     O99773   5.967   5.634   7.807  0.0530  0.4118  0.2062
  740MOL0     C99774   6.065   5.632   7.914 -0.8226 -0.2650 -0.1652
  740MOL0     C99775   6.073   5.758   7.994  0.7806  0.4283  0.2688
  740MOL0     C99776   6.181   5.771   8.103  0.8036 -0.1275  0.6312
  740MOL0     C99777   6.323   5.750   8.053  0.0227 -0.9368  0.7325
  740MOL0     C99778   6.426   5.766   8.162  0.4557 -0.1769  0.8811
  740MOL0     C99779   6.563   5.708   8.130 -0.7184 -0.2673  0.1263
  740MOL0     C99780   6.661   5.767   8.236 -0.1296  0.0964  0.2500
  740MOL0     C99781   6.808   5.715   8.224  0.5698 -0.0970  1.4744
  740MOL0     N99782   6.869   5.744   8.353  0.0531 -0.0658 -0.2114
  740MOL0     C99783   6.941   5.857   8.371 -0.1858  0.4525  0.1018
  740MOL0     C99784   7.016   5.832   8.478  0.2294 -0.3160  0.1933
  740MOL0     C99785   7.110   5.937   8.539  0.4290  0.5754  0.2341
  740MOL0     C99786   7.254   5.901   8.520 -0.1115 -0.5624 -1.0637
  740MOL0     C99787   7.304   5.788   8.615 -0.8740  0.2231 -0.2348
  740MOL0     C99788   7.444   5.727   8.593  1.5200 -0.5396 -0.5985
  740MOL0     O99789   7.545   5.818   8.627 -0.4955  0.4623  0.4879
  740MOL0     C99790   7.680   5.777   8.622 -0.6088 -0.3407  0.0963
  740MOL0     C99791   7.765   5.838   8.714  0.5637  0.2865 -0.1274
  740MOL0     C99792   7.902   5.816   8.717  0.0396  0.4033 -0.0236
  740MOL0     C99793   7.961   5.720   8.636  0.3245 -0.6791 -0.1558
  740MOL0     C99794   8.108   5.717   8.628 -0.7150 -0.2187 -0.1253
  740MOL0     O99795   8.170   5.687   8.507 -0.2661 -0.1379 -0.3040
  740MOL0     C99796   8.302   5.655   8.530 -0.3418 -0.0131  0.0128
  740MOL0     C99797   8.399   5.740   8.485 -0.0418 -0.2235 -0.0755
  740MOL0     C99798   8.534   5.714   8.497 -0.4263  0.3491 -0.3082
  740MOL0     C99799   8.577   5.598   8.569 -0.5334  0.2489 -0.9431
  740MOL0     O99800   8.709   5.573   8.608  0.0750 -0.3249 -0.0790
  740MOL0     C99801   8.816   5.671   8.592 -0.3196 -0.0249 -0.3319
  740MOL0     C99802   8.936   5.602   8.647 -0.6085 -0.2038  0.0944
  740MOL0     C99803   9.057   5.703   8.641  0.3091  1.2309 -0.0320
  740MOL0     C99804   9.183   5.629   8.676  0.6062  0.6086 -0.4781
  740MOL0     C99805   9.290   5.733   8.667  0.4603  0.3603  0.4357
  740MOL0     C99806   9.306   5.814   8.797  0.4210  0.3747  0.2240
  740MOL0     C99807   9.407   5.933   8.784  0.3384 -0.2767 -0.6750
  740MOL0     C99808   9.546   5.883   8.741  0.3104 -0.0212 -0.3696
  740MOL0    Cl99809   9.619   5.737   8.823  0.5172 -0.0386 -0.0915
  740MOL0     C99810   8.481   5.513   8.620  0.5232  0.4870  0.1726
  740MOL0     C99811   8.351   5.539   8.592 -0.2860 -0.0427 -0.0384
  740MOL0     O99812   8.167   5.728   8.733  0.4937  0.0022  0.3999
  740MOL0     C99813   7.883   5.649   8.545 -0.7861 -0.3717 -0.4788
  740MOL0     C99814   7.737   5.667   8.543 -0.3018  0.0793  0.0943
  740MOL0     N99815   6.978   5.712   8.533  0.0966 -0.0960  0.4680
  740MOL0     N99816   6.903   5.652   8.450  0.1394 -0.0490 -0.4799
  740MOL0     C99817   5.782   5.483   7.857  0.2622 -0.4368 -0.7696
  740MOL0     C99818   5.646   5.462   7.881 -0.0576 -0.8159  0.5088
  740MOL0     C99819   5.184   5.452   7.828  0.2779 -0.2899 -1.1586
  740MOL0     C99820   5.115   5.337   7.792  0.5106  0.7587  0.0485
  740MOL0     C99821   4.978   5.335   7.762  0.3792 -0.8938  0.7297
  740MOL0     C99822   4.901   5.452   7.780  0.1472  0.8394  0.2853
  740MOL0     O99823   4.770   5.461   7.769 -0.1957 -0.0406 -0.0477
  740MOL0     C99824   4.704   5.360   7.695 -0.5273 -0.4623 -0.0459
  740MOL0     C99825   4.553   5.387   7.707 -0.3120 -0.1063 -0.0095
  740MOL0     C99826   4.467   5.265   7.709 -0.6882  0.6835 -0.0202
  740MOL0     C99827   4.437   5.225   7.567  1.0063 -0.6258 -0.1648
  740MOL0     C99828   4.336   5.310   7.510 -0.4549 -0.1046  0.3365
  740MOL0     C99829   4.258   5.394   7.469 -0.4718  0.5663 -0.1833
  740MOL0     C99830   4.961   5.561   7.834 -0.6867 -0.6222 -0.4518
  740MOL0     C99831   5.104   5.570   7.853 -0.5015  0.0533 -0.4062
  740MOL0     C99832   5.145   5.708   7.886 -0.0150  0.7205 -0.4320
  740MOL0     H99833   5.541   5.780   7.872 -0.3855 -0.1639 -1.7988
  740MOL0     H99834   5.781   5.820   7.836 -1.0694  0.6676  0.6568
  740MOL0     H99835   6.036   5.545   7.974 -1.9419 -0.0943 -0.4544
  740MOL0     H99836   6.161   5.607   7.867 -0.5303 -3.0161  1.6326
  740MOL0     H99837   5.978   5.777   8.046  0.6046  1.8024 -0.5090
  740MOL0     H99838   6.075   5.839   7.920 -0.9485 -0.1903 -0.5234
  740MOL0     H99839   6.170   5.700   8.185 -0.0450 -2.4819 -1.3950
  740MOL0     H99840   6.164   5.870   8.147 -3.2577 -0.5197  0.3125
  740MOL0     H99841   6.340   5.649   8.014  1.0275 -0.4031 -0.2800
  740MOL0     H99842   6.337   5.824   7.973  1.5400 -0.4653  1.3973
  740MOL0     H99843   6.430   5.872   8.188  1.2333  0.4066 -1.3861
  740MOL0     H99844   6.379   5.722   8.250 -1.5327  0.8254  0.3864
  740MOL0     H99845   6.557   5.599   8.143  0.0806 -0.0459  3.3026
  740MOL0     H99846   6.585   5.739   8.028 -0.9482  2.4831  0.8378
  740MOL0     H99847   6.623   5.742   8.335  0.5506 -0.0911  0.4679
  740MOL0     H99848   6.665   5.875   8.216  0.1466 -0.1028 -0.7988
  740MOL0     H99849   6.808   5.610   8.192 -0.4683  0.3334 -0.0540
  740MOL0     H99850   6.854   5.775   8.145  1.2841  1.0366  2.7117
  740MOL0     H99851   6.948   5.946   8.310  0.6878 -1.4218 -2.6969
  740MOL0     H99852   7.095   6.039   8.503 -1.3822  1.1242  2.3408
  740MOL0     H99853   7.090   5.935   8.646  1.2932 -2.1880  0.4145
  740MOL0     H99854   7.273   5.868   8.418  1.5995 -2.6557 -0.1434
  740MOL0     H99855   7.310   5.994   8.536  2.0618 -1.8033 -1.0530
  740MOL0     H99856   7.236   5.702   8.609 -1.4642  0.5400  1.2628
  740MOL0     H99857   7.287   5.825   8.717 -2.4050  0.2140 -0.4571
  740MOL0     H99858   7.445   5.683   8.493 -0.9347 -0.0244 -0.9090
  740MOL0     H99859   7.449   5.652   8.672  0.4700  0.8396  0.8708
  740MOL0     H99860   7.724   5.910   8.785 -2.2547 -0.0332 -1.2679
  740MOL0     H99861   7.967   5.874   8.781  2.0093 -0.0506 -1.5002
  740MOL0     H99862   8.364   5.835   8.444  3.4480  0.8179 -1.0304
  740MOL0     H99863   8.609   5.788   8.471 -1.3195  2.2880  2.1768
  740MOL0     H99864   8.836   5.686   8.486 -0.2213  0.0702 -0.3000
  740MOL0     H99865   8.801   5.763   8.650  2.3665  0.2273  0.0706
  740MOL0     H99866   8.910   5.571   8.749  0.6965 -3.2788 -0.3883
  740MOL0     H99867   8.954   5.507   8.596 -0.4923 -0.3453  0.3967
  740MOL0     H99868   9.056   5.743   8.540 -0.8164  1.5246  0.0807
  740MOL0     H99869   9.031   5.780   8.714 -3.9160  0.3949 -0.3683
  740MOL0     H99870   9.200   5.558   8.595 -0.9073  1.6567 -1.7754
  740MOL0     H99871   9.179   5.586   8.776 -1.4591 -0.0213 -0.8019
  740MOL0     H99872   9.269   5.796   8.581  0.9520 -1.7175 -1.2946
  740MOL0     H99873   9.386   5.684   8.647  0.2090 -1.1580  2.5466
  740MOL0     H99874   9.207   5.858   8.810  0.7350  2.3382 -2.8889
  740MOL0     H99875   9.342   5.752   8.879 -0.7232  1.2190  1.4191
  740MOL0     H99876   9.418   5.987   8.879 -2.3783 -0.1926 -0.3459
  740MOL0     H99877   9.357   5.997   8.711  0.9316  1.7058  0.5769
  740MOL0     H99878   9.529   5.849   8.638  0.6637 -3.2044  0.5403
  740MOL0     H99879   9.612   5.970   8.746 -4.2803  3.7968  2.5603
  740MOL0     H99880   8.515   5.424   8.671 -1.4251 -0.5988 -0.3148
  740MOL0     H99881   8.282   5.469   8.639  0.6980 -0.3979  0.9188
  740MOL0     H99882   7.920   5.568   8.483 -4.0477 -1.6456 -0.9636
  740MOL0     H99883   7.666   5.614   8.480 -1.4223  2.0451 -0.3947
  740MOL0     H99884   5.846   5.396   7.870  1.8039  0.7082 -0.3809
  740MOL0     H99885   5.613   5.359   7.889  0.1855 -1.0287 -1.0123
  740MOL0     H99886   5.165   5.243   7.772  0.2559  0.1020  2.2513
  740MOL0     H99887   4.931   5.238   7.752  2.6050 -2.3382  3.0000
  740MOL0     H99888   4.712   5.262   7.743 -2.3866  0.0443  1.4098
  740MOL0     H99889   4.738   5.360   7.591  1.6060  1.4147  0.5752
  740MOL0     H99890   4.532   5.458   7.627 -0.5286 -1.2224 -0.9589
  740MOL0     H99891   4.533   5.443   7.800  1.4994 -0.4458  0.6263
  740MOL0     H99892   4.376   5.293   7.763 -1.6506  2.4287 -2.3660
  740MOL0     H99893   4.510   5.184   7.768 -0.9924  0.7051  0.2345
  740MOL0     H99894   4.522   5.229   7.499 -0.4320 -0.9072 -2.0588
  740MOL0     H99895   4.391   5.127   7.553 -0.5476 -0.1562  1.2911
  740MOL0     H99896   4.205   5.473   7.419  1.3687  0.0043 -3.2668
  740MOL0     H99897   4.900   5.648   7.856 -1.5771 -1.1230 -0.8928
  740MOL0     H99898   5.107   5.772   7.806  0.9133  1.1205 -0.5668
  740MOL0     H99899   5.112   5.724   7.989  2.0339 -3.4464  1.0660
  740MOL0     H99900   5.253   5.723   7.874  0.5058 -2.1030 -0.0074
  741MOL0     O99901  11.225   3.251   8.496  0.1740  0.8832 -0.6191
  741MOL0     C99902  11.180   3.335   8.419 -0.0302  0.1015  0.3192
  741MOL0     O99903  11.253   3.430   8.351 -0.4658  0.3877  0.2953
  741MOL0     C99904  11.381   3.471   8.386 -0.9589 -0.0291  0.5081
  741MOL0     C99905  11.412   3.603   8.357  0.4341 -0.5129 -0.6355
  741MOL0     C99906  11.529   3.670   8.405 -0.0444 -0.2200 -0.1721
  741MOL0     C99907  11.632   3.592   8.466  1.0314 -0.1783  0.5680
  741MOL0     O99908  11.754   3.628   8.518 -0.1996 -0.1818  0.8613
  741MOL0     C99909  11.801   3.761   8.487 -0.2687  0.1694  0.7276
  741MOL0     C99910  11.936   3.794   8.548 -0.2999  0.0263  0.5191
  741MOL0     C99911  12.049   3.712   8.495 -0.3870  0.6628  0.0247
  741MOL0     C99912  12.180   3.768   8.544  0.3244 -0.1752  0.1849
  741MOL0     C99913  12.296   3.673   8.515 -0.4617  0.0604 -0.7560
  741MOL0     C99914  12.428   3.747   8.547 -0.7264 -0.2908 -0.3123
  741MOL0     C99915  12.553   3.651   8.526  0.1062 -0.2660 -0.0738
  741MOL0     C99916  12.676   3.719   8.581 -0.3670 -0.1666 -0.3261
  741MOL0     N99917  12.725   3.822   8.488 -0.1243 -0.0489  0.2591
  741MOL0     C99918  12.807   3.922   8.531  0.3613 -0.4176 -0.5967
  741MOL0     C99919  12.810   4.007   8.429 -0.8062  0.0392  1.2962
  741MOL0     C99920  12.886   4.142   8.420 -0.4692 -1.1093 -0.2380
  741MOL0     C99921  13.034   4.134   8.443  0.1976 -0.0012  0.7662
  741MOL0     C99922  13.064   4.130   8.595 -0.3533  0.5808  0.6613
  741MOL0     C99923  13.217   4.145   8.602  0.4126 -0.1493  0.2777
  741MOL0     O99924  13.292   4.030   8.550 -0.0435 -0.4768 -0.3173
  741MOL0     C99925  13.425   4.020   8.579 -0.1748  0.1093  0.9022
  741MOL0     C99926  13.488   3.905   8.528  0.3366  0.3605 -0.0627
  741MOL0     C99927  13.615   3.870   8.561  0.5709  0.0025  0.5528
  741MOL0     C99928  13.683   3.948   8.652  0.1644  0.3748 -0.9029
  741MOL0     C99929  13.820   3.910   8.692 -0.0574  0.0597  0.4365
  741MOL0     O99930  13.880   3.983   8.796 -0.0621 -0.5082  0.1948
  741MOL0     C99931  14.004   3.936   8.842  0.1504  0.5618 -0.6057
  741MOL0     C99932  14.117   4.014   8.836  0.7970 -0.0665 -0.3875
  741MOL0     C99933  14.248   3.980   8.879 -0.9186  0.4257  0.2325
  741MOL0     C99934  14.266   3.860   8.942 -0.0018 -0.5132 -1.1122
  741MOL0     O99935  14.388   3.814   8.979 -0.4894  0.1674 -0.2343
  741MOL0     C99936  14.493   3.906   9.017  0.4016 -0.1230  0.5679
  741MOL0     C99937  14.622   3.831   9.049 -0.4276  0.2337  0.6398
  741MOL0     C99938  14.746   3.920   9.040  0.8817  0.3921 -0.0884
  741MOL0     C99939  14.874   3.846   9.084 -0.1472  0.0819  0.1444
  741MOL0     C99940  15.001   3.924   9.039  0.4261  1.1239  0.1393
  741MOL0     C99941  15.122   3.864   9.101 -0.2501 -0.2222 -0.0173
  741MOL0     C99942  15.241   3.914   9.021 -0.1108 -0.4919 -1.0087
  741MOL0     C99943  15.369   3.873   9.081 -1.1349  0.0264 -0.3952
  741MOL0    Cl99944  15.415   3.989   9.210  0.2828  0.0445  0.3838
  741MOL0     C99945  14.156   3.771   8.950 -0.0251  0.4910 -0.2973
  741MOL0     C99946  14.029   3.807   8.906  0.3283 -0.1720  0.2021
  741MOL0     O99947  13.863   3.803   8.632  0.1349 -0.5229 -0.4103
  741MOL0     C99948  13.627   4.067   8.694  0.9232  0.6289 -0.1188
  741MOL0     C99949  13.501   4.110   8.653  0.2153 -0.4705  0.4481
  741MOL0     N99950  12.740   3.956   8.329  0.0593 -0.2632  0.0325
  741MOL0     N99951  12.675   3.847   8.360  0.3291 -0.0106 -0.4934
  741MOL0     C99952  11.607   3.457   8.484 -1.2282 -0.1075 -0.0997
  741MOL0     C99953  11.484   3.394   8.448 -0.2638 -0.2553 -0.0696
  741MOL0     C99954  11.037   3.340   8.396  0.4103 -0.4484 -0.9684
  741MOL0     C99955  10.977   3.465   8.355 -0.4907 -0.4727  0.6128
  741MOL0     C99956  10.837   3.480   8.337 -0.1803 -0.9155  0.3179
  741MOL0     C99957  10.750   3.371   8.362 -0.5100  0.1449 -0.1659
  741MOL0     O99958  10.615   3.373   8.351  0.2379  0.8024 -0.6588
  741MOL0     C99959  10.537   3.496   8.371  0.7138  0.0657  0.0523
  741MOL0     C99960  10.387   3.450   8.404 -0.0218  0.0650  0.0559
  741MOL0     C99961  10.313   3.369   8.303  0.6400 -0.0912  0.1357
  741MOL0     C99962  10.373   3.224   8.296  0.4031 -0.3299  0.1645
  741MOL0     C99963  10.265   3.130   8.341  0.2846 -0.1946 -0.7350
  741MOL0     C99964  10.165   3.064   8.365 -0.2046  0.9591  0.3178
  741MOL0     C99965  10.810   3.249   8.390  0.5072  0.5683 -0.3043
  741MOL0     C99966  10.945   3.231   8.410 -0.2156  0.0440  0.3540
  741MOL0     C99967  10.993   3.086   8.446 -0.2643  0.3591  0.4420
  741MOL0     H99968  11.339   3.661   8.301 -0.7691 -0.9560  0.4241
  741MOL0     H99969  11.540   3.778   8.397 -1.0501 -0.1311 -0.4648
  741MOL0     H99970  11.815   3.768   8.379  0.8187 -1.6306  0.7077
  741MOL0     H99971  11.726   3.832   8.520 -1.2427 -0.3490 -0.3287
  741MOL0     H99972  11.928   3.761   8.652 -0.2325 -2.2715 -0.1517
  741MOL0     H99973  11.950   3.902   8.544 -2.4415  0.3559 -3.4051
  741MOL0     H99974  12.041   3.690   8.388 -2.1006  1.6060 -0.0755
  741MOL0     H99975  12.035   3.612   8.537  2.1437  0.5655  0.7993
  741MOL0     H99976  12.197   3.859   8.486  1.5146 -1.8000 -2.1573
  741MOL0     H99977  12.171   3.799   8.649 -1.3103 -0.7100  0.2404
  741MOL0     H99978  12.298   3.584   8.580  2.1319 -0.0748 -0.9171
  741MOL0     H99979  12.308   3.642   8.411 -1.2372 -0.2212 -0.7680
  741MOL0     H99980  12.432   3.836   8.483  0.8807 -0.0930  0.0268
  741MOL0     H99981  12.415   3.789   8.647 -0.0151  3.6209 -1.6985
  741MOL0     H99982  12.567   3.625   8.421  0.2773 -0.2845 -0.0474
  741MOL0     H99983  12.541   3.560   8.585  2.0479 -1.6922 -1.7428
  741MOL0     H99984  12.658   3.765   8.679 -3.4612  1.2212 -1.4135
  741MOL0     H99985  12.757   3.646   8.585 -1.1812 -1.2823 -2.5355
  741MOL0     H99986  12.867   3.916   8.621 -0.7894  1.7776  0.3811
  741MOL0     H99987  12.873   4.176   8.317 -3.1042 -1.3602 -0.0582
  741MOL0     H99988  12.841   4.217   8.486  0.9112  1.9468 -2.5206
  741MOL0     H99989  13.067   4.036   8.406 -1.0373 -1.5505  3.4795
  741MOL0     H99990  13.086   4.219   8.398  2.9470 -0.9694  1.8665
  741MOL0     H99991  13.038   4.037   8.647  3.3025  0.2054  2.0970
  741MOL0     H99992  13.011   4.218   8.634 -0.0073  0.3871  1.6157
  741MOL0     H99993  13.251   4.161   8.705 -0.4754 -0.8666  0.7004
  741MOL0     H99994  13.246   4.233   8.544 -0.8857  0.5126  0.5982
  741MOL0     H99995  13.435   3.822   8.482  1.8555 -0.4373 -0.4407
  741MOL0     H99996  13.657   3.778   8.521  1.0991  0.9024 -1.0294
  741MOL0     H99997  14.091   4.116   8.809 -2.4137 -0.1350  1.9082
  741MOL0     H99998  14.330   4.046   8.854  1.5544 -2.2965  0.5815
  741MOL0     H99999  14.505   3.976   8.934 -1.9994 -0.2511  0.0285
  741MOL0     H    0  14.467   3.960   9.109  3.4409  0.0698  1.4094
  741MOL0     H    1  14.613   3.790   9.150  1.2687  1.1993  1.2054
  741MOL0     H    2  14.648   3.745   8.987  1.1207  0.0986  1.4356
  741MOL0     H    3  14.757   3.966   8.941 -0.5346 -0.3480 -0.6225
  741MOL0     H    4  14.724   3.998   9.113  0.3111  0.0758  0.0834
  741MOL0     H    5  14.878   3.743   9.047  0.5005 -0.0121  0.4570
  741MOL0     H    6  14.879   3.835   9.193  0.1018  0.2015  0.1472
  741MOL0     H    7  14.991   4.028   9.072 -2.4907  0.7413  0.7044
  741MOL0     H    8  15.012   3.934   8.931  0.3816 -1.3915 -0.1474
  741MOL0     H    9  15.138   3.904   9.202  0.7455 -1.2047  0.2328
  741MOL0     H   10  15.128   3.755   9.092 -1.5077 -0.3695  0.7569
  741MOL0     H   11  15.234   4.021   9.003 -1.6354 -1.0366 -4.6543
  741MOL0     H   12  15.246   3.881   8.916  1.7002  1.1136 -1.4639
  741MOL0     H   13  15.367   3.770   9.115 -0.1761  0.5023  1.1907
  741MOL0     H   14  15.431   3.880   8.991 -0.0837  2.7571  0.4361
  741MOL0     H   15  14.166   3.675   9.000  1.6517  1.2540  0.9293
  741MOL0     H   16  13.950   3.734   8.921 -0.9749  0.4771 -2.8069
  741MOL0     H   17  13.693   4.144   8.733 -0.8950  2.2470 -0.0658
  741MOL0     H   18  13.472   4.214   8.667  1.2056 -0.1302  0.0926
  741MOL0     H   19  11.684   3.402   8.538 -2.8713 -1.2926  1.1284
  741MOL0     H   20  11.470   3.290   8.477  1.8577 -0.8412 -0.9935
  741MOL0     H   21  11.037   3.552   8.334  0.5653 -1.4966 -0.8192
  741MOL0     H   22  10.798   3.577   8.308 -2.1006 -1.2437  1.6487
  741MOL0     H   23  10.542   3.554   8.278  2.4562  1.6502  1.0627
  741MOL0     H   24  10.587   3.544   8.455  1.2190 -1.2229  0.5233
  741MOL0     H   25  10.332   3.544   8.414  0.3671  0.5438 -1.9189
  741MOL0     H   26  10.394   3.405   8.503  1.6489 -1.0462 -0.5257
  741MOL0     H   27  10.321   3.407   8.200  1.0846 -0.8958 -0.1363
  741MOL0     H   28  10.208   3.379   8.331  1.2240 -1.0971  3.0206
  741MOL0     H   29  10.397   3.208   8.190  1.7373  4.8247 -0.5448
  741MOL0     H   30  10.463   3.205   8.356  0.3458  1.3085  0.7962
  741MOL0     H   31  10.089   2.992   8.390  1.4190 -1.4558 -1.2702
  741MOL0     H   32  10.739   3.169   8.408  0.4178  0.4878 -1.0202
  741MOL0     H   33  10.914   3.011   8.450  1.6737 -1.9064 -1.0438
  741MOL0     H   34  11.075   3.054   8.381  0.7574  3.9328 -0.2456
  741MOL0     H   35  11.042   3.092   8.543 -0.8389 -1.9955  0.9341
  742MOL0     O   36   8.627   5.555   9.229  0.0072 -0.0848  0.1607
  742MOL0     C   37   8.592   5.526   9.120  0.3930 -0.2722  0.4511
  742MOL0     O   38   8.654   5.560   9.007 -0.0776 -0.2023 -0.1323
  742MOL0     C   39   8.783   5.614   9.025 -0.8217  0.8138  0.2172
  742MOL0     C   40   8.887   5.523   9.030 -0.0071  0.7465 -0.2954
  742MOL0     C   41   9.015   5.565   9.056 -0.0308 -0.3291  0.2001
  742MOL0     C   42   9.049   5.708   9.064  0.1723  0.4727 -0.2644
  742MOL0     O   43   9.171   5.762   9.098  0.5252  0.1060  0.0755
  742MOL0     C   44   9.259   5.667   9.163  0.8934 -0.0468  0.7560
  742MOL0     C   45   9.371   5.737   9.245  0.0092  0.5803 -0.1942
  742MOL0     C   46   9.442   5.836   9.148 -0.0958  0.8454  0.5540
  742MOL0     C   47   9.555   5.918   9.209 -0.4399  0.1169  0.3020
  742MOL0     C   48   9.629   6.005   9.103  0.3128  0.4522 -0.9678
  742MOL0     C   49   9.767   6.051   9.154  0.6975  0.8889 -0.6516
  742MOL0     C   50   9.803   6.180   9.075 -0.8184 -0.0191 -0.0832
  742MOL0     C   51   9.945   6.229   9.114 -0.1179  0.8412 -0.6948
  742MOL0     N   52   9.995   6.332   9.024 -0.2841  0.1143  0.5025
  742MOL0     C   53  10.004   6.466   9.058 -0.5935  0.2835  0.7361
  742MOL0     C   54  10.068   6.517   8.947 -0.0027  0.8201 -0.6258
  742MOL0     C   55  10.110   6.670   8.946  0.0774 -0.0061  0.8892
  742MOL0     C   56  10.140   6.721   8.799 -0.5040 -0.3281  0.2112
  742MOL0     C   57  10.118   6.873   8.776 -0.1207 -0.3028 -0.1753
  742MOL0     C   58  10.154   6.916   8.634 -0.7663  1.4232  0.7380
  742MOL0     O   59  10.092   7.033   8.596  0.2419 -0.4375 -0.6283
  742MOL0     C   60  10.175   7.140   8.565  0.2267  0.4963  0.6032
  742MOL0     C   61  10.313   7.152   8.598 -0.2724  0.0871  0.5117
  742MOL0     C   62  10.384   7.268   8.574  0.7750 -0.6613  0.2003
  742MOL0     C   63  10.307   7.374   8.510  0.1123  0.3871  0.2163
  742MOL0     C   64  10.373   7.501   8.481  0.2074 -0.1265 -0.1417
  742MOL0     O   65  10.506   7.523   8.526  0.3309  0.1294 -0.6358
  742MOL0     C   66  10.560   7.649   8.509 -0.1767 -0.2318 -0.1909
  742MOL0     C   67  10.634   7.670   8.389  0.0506  0.0546 -0.3379
  742MOL0     C   68  10.704   7.785   8.362  0.1399 -0.0453 -0.7435
  742MOL0     C   69  10.710   7.885   8.461  0.1255  0.1816 -0.6465
  742MOL0     O   70  10.764   8.004   8.449 -0.0990 -0.7981  0.9728
  742MOL0     C   71  10.914   8.005   8.451  0.4055  0.4939 -0.7705
  742MOL0     C   72  10.955   8.148   8.463  0.3406  0.4349  0.0136
  742MOL0     C   73  11.106   8.162   8.438 -0.2475  0.3243 -0.2625
  742MOL0     C   74  11.156   8.299   8.480  1.0760 -1.2666 -0.4212
  742MOL0     C   75  11.298   8.295   8.517  0.0705  0.3894 -0.3456
  742MOL0     C   76  11.368   8.428   8.556 -0.1066 -0.1663  0.5296
  742MOL0     C   77  11.366   8.539   8.449  0.1562  0.0625  0.3032
  742MOL0     C   78  11.249   8.643   8.468 -0.7740  0.5393 -1.1948
  742MOL0    Cl   79  11.289   8.733   8.619  0.1991  0.0219  0.5597
  742MOL0     C   80  10.653   7.861   8.586  0.5301 -1.3497  0.5725
  742MOL0     C   81  10.579   7.751   8.609  0.1479  0.1062 -0.0213
  742MOL0     O   82  10.308   7.588   8.419  0.2678 -0.5309  0.2373
  742MOL0     C   83  10.166   7.367   8.487 -0.4048  0.0778  0.0251
  742MOL0     C   84  10.104   7.244   8.512 -0.0608  0.4274 -0.2751
  742MOL0     N   85  10.097   6.416   8.853 -0.6375 -0.9878 -0.1015
  742MOL0     N   86  10.062   6.308   8.901  0.0006  0.5791 -0.1991
  742MOL0     C   87   8.945   5.804   9.053  0.4472  0.2004  0.0753
  742MOL0     C   88   8.816   5.758   9.034 -0.2600  0.6409 -0.2064
  742MOL0     C   89   8.457   5.461   9.098  0.5148  0.8932 -0.5381
  742MOL0     C   90   8.376   5.502   8.986  0.5092  0.3409 -0.5355
  742MOL0     C   91   8.244   5.455   8.976 -0.1834 -0.1563 -0.3004
  742MOL0     C   92   8.204   5.349   9.056 -0.0157 -0.0249 -0.4882
  742MOL0     O   93   8.088   5.278   9.051  0.8032 -0.7390 -0.0653
  742MOL0     C   94   7.991   5.291   8.946 -1.3534  0.9157  0.5735
  742MOL0     C   95   7.911   5.419   8.932 -0.4908  0.1786  0.2362
  742MOL0     C   96   7.778   5.393   8.853 -0.5656 -0.0760  0.3039
  742MOL0     C   97   7.677   5.511   8.862  0.4393  0.8179 -0.0004
  742MOL0     C   98   7.599   5.490   8.983  0.5925  0.0296 -0.0017
  742MOL0     C   99   7.554   5.478   9.088 -0.0468 -0.3472  0.0136
  742MOL0     C  100   8.277   5.305   9.163 -1.1550  0.4761  0.0172
  742MOL0     C  101   8.407   5.355   9.181 -0.2289  0.4696 -0.0661
  742MOL0     C  102   8.495   5.291   9.290 -0.0028 -0.3032  0.0783
  742MOL0     H  103   8.860   5.418   9.024 -4.3077  1.7164 -0.8986
  742MOL0     H  104   9.090   5.486   9.048 -0.4459 -0.7240  0.1848
  742MOL0     H  105   9.197   5.615   9.236  1.6628  0.6428  1.9190
  742MOL0     H  106   9.300   5.596   9.090  2.5174  0.8652  0.7372
  742MOL0     H  107   9.441   5.668   9.294  1.5959  1.7033 -0.7738
  742MOL0     H  108   9.332   5.795   9.329  1.2061 -0.1566  0.9214
  742MOL0     H  109   9.371   5.913   9.115  0.6470  1.7542  1.0281
  742MOL0     H  110   9.474   5.774   9.063  1.5143  1.6012  0.5826
  742MOL0     H  111   9.514   5.974   9.293  0.4620  0.8060  0.2938
  742MOL0     H  112   9.627   5.844   9.245  0.1697  1.5655  2.1620
  742MOL0     H  113   9.657   5.948   9.013  1.7482  1.6362 -1.3102
  742MOL0     H  114   9.567   6.089   9.072 -1.3864  0.2887  1.6794
  742MOL0     H  115   9.758   6.075   9.260 -3.1001 -1.2058 -0.3109
  742MOL0     H  116   9.837   5.967   9.144  1.0564  0.9651  1.0217
  742MOL0     H  117   9.737   6.261   9.109  0.2683  0.6853  0.3733
  742MOL0     H  118   9.801   6.163   8.967  2.6813 -1.0308 -0.0919
  742MOL0     H  119   9.938   6.281   9.211  1.6184  1.8220 -1.0546
  742MOL0     H  120  10.012   6.144   9.125  0.3883  1.1913 -1.0552
  742MOL0     H  121   9.965   6.508   9.150 -4.4035 -2.4940  0.6741
  742MOL0     H  122  10.033   6.738   8.982 -2.1985 -0.3900 -2.8151
  742MOL0     H  123  10.195   6.685   9.014  1.0346  1.7699 -0.6255
  742MOL0     H  124  10.247   6.703   8.786 -0.7140  0.1348 -2.9593
  742MOL0     H  125  10.088   6.663   8.722  2.5751 -0.0736 -2.3051
  742MOL0     H  126  10.175   6.937   8.844 -0.5600 -1.0869  0.9691
  742MOL0     H  127  10.010   6.886   8.775 -0.2965  0.5305 -6.2104
  742MOL0     H  128  10.119   6.840   8.563 -0.9295 -0.5601  2.8261
  742MOL0     H  129  10.261   6.911   8.612 -0.9411  2.9957 -0.6673
  742MOL0     H  130  10.371   7.067   8.634 -1.3707  0.1261  2.4751
  742MOL0     H  131  10.490   7.275   8.593  0.5260  1.4189  1.1294
  742MOL0     H  132  10.637   7.586   8.321  0.1883  0.9788 -1.5065
  742MOL0     H  133  10.770   7.780   8.275  0.9956  2.6253 -0.3595
  742MOL0     H  134  10.944   7.954   8.543 -0.0043 -0.8242 -1.3421
  742MOL0     H  135  10.953   7.953   8.364 -0.2067 -1.8309  0.2770
  742MOL0     H  136  10.891   8.213   8.402  0.3551  1.1245  0.7073
  742MOL0     H  137  10.933   8.177   8.566  0.4537  2.7138 -0.5329
  742MOL0     H  138  11.161   8.083   8.489  0.8752  0.7708 -0.7564
  742MOL0     H  139  11.128   8.154   8.331 -0.5736  1.1458 -0.4052
  742MOL0     H  140  11.099   8.330   8.568 -0.2074 -1.9102 -1.0018
  742MOL0     H  141  11.126   8.374   8.407 -0.2989  0.6960  1.9827
  742MOL0     H  142  11.350   8.252   8.431  1.4304 -1.7399  1.4384
  742MOL0     H  143  11.313   8.229   8.603 -1.3814  0.7049  0.1845
  742MOL0     H  144  11.315   8.462   8.645  1.6438  1.1045  1.1434
  742MOL0     H  145  11.474   8.409   8.576  0.3304  0.3048 -1.1566
  742MOL0     H  146  11.345   8.495   8.351 -0.2888  2.3633 -0.7261
  742MOL0     H  147  11.461   8.594   8.443 -1.0778  2.3100 -0.0737
  742MOL0     H  148  11.226   8.698   8.377  0.9903  1.3732 -1.1828
  742MOL0     H  149  11.160   8.583   8.491  0.3590 -0.1159  2.1448
  742MOL0     H  150  10.650   7.933   8.667  2.0208 -0.4650 -0.1100
  742MOL0     H  151  10.534   7.734   8.706  0.5960 -0.2057  0.1381
  742MOL0     H  152  10.107   7.449   8.447  0.6991  0.0510 -1.7684
  742MOL0     H  153   9.997   7.250   8.495 -0.8647  3.6501  4.1552
  742MOL0     H  154   8.963   5.911   9.056  0.4813  0.1989 -0.0862
  742MOL0     H  155   8.733   5.828   9.042 -0.0030  0.8195  1.0374
  742MOL0     H  156   8.411   5.569   8.909  2.0282 -2.5799 -2.5844
  742MOL0     H  157   8.188   5.495   8.892  0.0126 -1.4205 -1.0552
  742MOL0     H  158   7.933   5.199   8.944  0.7555 -0.4943  0.2891
  742MOL0     H  159   8.051   5.286   8.854  2.4219  3.0132  2.6771
  742MOL0     H  160   7.972   5.489   8.874 -1.0646  0.2641 -0.2715
  742MOL0     H  161   7.878   5.460   9.028 -1.9660 -1.3388  0.4166
  742MOL0     H  162   7.726   5.301   8.882  3.4132 -2.2525  1.2979
  742MOL0     H  163   7.815   5.398   8.750  1.4287  1.8500  1.0261
  742MOL0     H  164   7.725   5.609   8.858  0.3786  0.8337 -0.4330
  742MOL0     H  165   7.607   5.486   8.782  1.0536 -1.1297 -0.0053
  742MOL0     H  166   7.518   5.460   9.187  3.7069 -3.4096  1.0859
  742MOL0     H  167   8.244   5.223   9.225  0.7925 -0.2158  0.2091
  742MOL0     H  168   8.594   5.256   9.260  0.0293 -1.4126  1.3591
  742MOL0     H  169   8.507   5.365   9.369 -2.1334 -0.5306  0.6743
  742MOL0     H  170   8.438   5.211   9.338 -0.5031  0.5520  0.9581
  743MOL0     O  171   7.045   4.613   2.353 -0.5045  0.2749  0.2777
  743MOL0     C  172   7.045   4.520   2.431 -0.8109 -0.7834  0.5776
  743MOL0     O  173   7.153   4.469   2.489 -0.3913  0.6315 -0.5534
  743MOL0     C  174   7.257   4.554   2.486 -0.5016 -0.8583 -0.1286
  743MOL0     C  175   7.354   4.521   2.392  0.7845  0.2936 -0.4721
  743MOL0     C  176   7.470   4.584   2.382 -0.3784 -0.6887 -0.3401
  743MOL0     C  177   7.494   4.702   2.462 -0.7040  0.9436 -0.1840
  743MOL0     O  178   7.604   4.785   2.466  0.4449  0.0713  0.1982
  743MOL0     C  179   7.706   4.781   2.363 -0.3991  0.3296  0.1837
  743MOL0     C  180   7.814   4.869   2.422 -0.3316 -0.0988 -0.2076
  743MOL0     C  181   7.933   4.854   2.338 -0.5114 -0.4075 -0.3385
  743MOL0     C  182   8.053   4.928   2.405  0.4241  0.2520  0.6213
  743MOL0     C  183   8.195   4.924   2.338 -0.0892  1.3551  0.4269
  743MOL0     C  184   8.199   5.031   2.232  0.7136  0.2039 -0.1142
  743MOL0     C  185   8.337   5.060   2.177  0.0711  0.2267 -0.1895
  743MOL0     C  186   8.400   4.943   2.096 -0.2815  0.1780  0.5023
  743MOL0     N  187   8.538   4.977   2.047 -0.5862  0.3153  0.3549
  743MOL0     C  188   8.596   4.941   1.926 -0.7187  0.7227  0.4856
  743MOL0     C  189   8.712   5.013   1.924 -0.8098  0.2347  0.3113
  743MOL0     C  190   8.806   5.035   1.818 -0.6975  0.7663  0.0448
  743MOL0     C  191   8.869   5.169   1.815 -0.7120 -0.9655 -0.0289
  743MOL0     C  192   8.971   5.198   1.703 -0.0421 -0.4793  0.2279
  743MOL0     C  193   8.905   5.175   1.556 -0.9239 -0.1582  0.1604
  743MOL0     O  194   8.917   5.295   1.472  0.6975  0.9325  0.0789
  743MOL0     C  195   9.037   5.336   1.413 -0.4725  0.4334  0.0332
  743MOL0     C  196   9.038   5.471   1.376 -1.1124  0.6612  0.2246
  743MOL0     C  197   9.157   5.521   1.319  0.1411  0.4459  0.0020
  743MOL0     C  198   9.275   5.439   1.294  0.8468 -0.3176  0.8935
  743MOL0     C  199   9.395   5.485   1.215  0.4213 -0.1496 -0.0712
  743MOL0     O  200   9.484   5.392   1.167  0.5841  0.4099  0.5873
  743MOL0     C  201   9.622   5.419   1.151 -0.3403 -0.1447 -0.1426
  743MOL0     C  202   9.695   5.333   1.063 -0.1971  0.9579 -0.5308
  743MOL0     C  203   9.829   5.351   1.040  0.3101  0.5393 -0.4892
  743MOL0     C  204   9.894   5.459   1.107 -0.1939 -0.3068  0.6812
  743MOL0     O  205  10.031   5.487   1.101 -0.2178  0.0925  0.0290
  743MOL0     C  206  10.105   5.414   1.014 -0.8644 -0.0860 -0.2291
  743MOL0     C  207  10.257   5.446   1.016  0.1419 -0.5789 -0.7689
  743MOL0     C  208  10.299   5.601   1.015 -0.2598  0.5179  0.1491
  743MOL0     C  209  10.260   5.661   0.879 -0.1984  0.0907  0.4281
  743MOL0     C  210  10.329   5.805   0.866  0.4925  0.0857  0.8877
  743MOL0     C  211  10.361   5.833   0.719 -0.1227  0.2921 -0.1363
  743MOL0     C  212  10.406   5.982   0.691  0.7979  0.9839  0.4897
  743MOL0     C  213  10.531   6.011   0.769  0.7967 -2.0526  0.1726
  743MOL0    Cl  214  10.574   6.178   0.753 -0.0477  0.0230  0.5655
  743MOL0     C  215   9.826   5.547   1.191  0.1871  0.0858  0.0199
  743MOL0     C  216   9.693   5.523   1.216  0.4958  0.7130 -0.5429
  743MOL0     O  217   9.385   5.605   1.179 -0.6468 -0.2321  0.3785
  743MOL0     C  218   9.264   5.313   1.334  0.0216  0.2237 -0.6497
  743MOL0     C  219   9.148   5.259   1.399 -0.0414 -0.3283 -0.9747
  743MOL0     N  220   8.731   5.067   2.048 -0.8074 -0.2646  0.1752
  743MOL0     N  221   8.635   5.038   2.123  1.1602  0.3777 -1.2144
  743MOL0     C  222   7.402   4.734   2.563  0.3210  0.1529 -0.4698
  743MOL0     C  223   7.278   4.665   2.574 -0.4443  0.3340  0.6693
  743MOL0     C  224   6.913   4.465   2.452 -0.0830  0.0864 -0.4001
  743MOL0     C  225   6.862   4.368   2.365 -0.2856  1.0689 -0.3527
  743MOL0     C  226   6.738   4.303   2.393 -0.3307  0.1804 -0.1014
  743MOL0     C  227   6.665   4.339   2.504 -0.2374  0.5266 -0.1177
  743MOL0     O  228   6.558   4.253   2.533 -0.3473  1.2380  0.3712
  743MOL0     C  229   6.490   4.273   2.663 -0.0692  0.5153  0.4702
  743MOL0     C  230   6.380   4.167   2.681  0.4414  0.5007  0.1763
  743MOL0     C  231   6.288   4.178   2.804 -0.3863  0.2397 -0.0047
  743MOL0     C  232   6.214   4.307   2.825 -0.4488 -0.1911 -0.3803
  743MOL0     C  233   6.117   4.339   2.722 -0.6648 -0.6533 -0.2677
  743MOL0     C  234   6.021   4.367   2.658 -0.3224 -0.1776 -0.2398
  743MOL0     C  235   6.711   4.433   2.595 -0.0487 -0.2345  0.8348
  743MOL0     C  236   6.829   4.500   2.563  0.1510 -0.0758  0.2141
  743MOL0     C  237   6.878   4.613   2.657 -0.1972 -0.6767  0.8958
  743MOL0     H  238   7.339   4.438   2.324 -1.7506 -0.1516  0.5289
  743MOL0     H  239   7.545   4.550   2.312 -2.5760  0.2659 -3.3592
  743MOL0     H  240   7.735   4.679   2.339 -2.7261 -0.7964  1.7372
  743MOL0     H  241   7.677   4.820   2.265  4.0382 -2.6103 -2.6025
  743MOL0     H  242   7.836   4.841   2.526  1.4364  2.8221  0.3340
  743MOL0     H  243   7.769   4.967   2.443 -2.8057 -0.9674 -1.1416
  743MOL0     H  244   7.920   4.889   2.235 -1.4139 -0.1417 -0.1379
  743MOL0     H  245   7.962   4.750   2.322 -1.1652 -0.4876 -1.0317
  743MOL0     H  246   8.020   5.031   2.423  1.0873  0.4381  0.7842
  743MOL0     H  247   8.075   4.886   2.503 -1.8821  0.0231  1.1024
  743MOL0     H  248   8.271   4.939   2.416  0.5548  1.1613 -0.1467
  743MOL0     H  249   8.222   4.822   2.309  1.2929  1.6338  0.6207
  743MOL0     H  250   8.130   4.997   2.154  1.5722  0.6191 -1.0652
  743MOL0     H  251   8.162   5.125   2.275  3.2147  1.4998 -0.6112
  743MOL0     H  252   8.402   5.083   2.261  1.6114 -4.2541  0.1061
  743MOL0     H  253   8.320   5.151   2.118 -0.1907  0.7312  0.6487
  743MOL0     H  254   8.401   4.844   2.143 -0.4771  1.1485  2.6820
  743MOL0     H  255   8.334   4.943   2.009  0.2228  1.2698  0.0987
  743MOL0     H  256   8.552   4.883   1.845 -0.7270  1.5685 -0.1409
  743MOL0     H  257   8.885   4.960   1.822 -0.2379  1.2176 -0.4509
  743MOL0     H  258   8.764   5.022   1.717 -0.6414  3.0830 -0.3209
  743MOL0     H  259   8.792   5.247   1.808  0.1484  0.2656  2.7665
  743MOL0     H  260   8.924   5.187   1.908  0.7623  0.4932 -1.1272
  743MOL0     H  261   9.054   5.130   1.725 -0.3811 -1.3492 -1.0699
  743MOL0     H  262   9.003   5.303   1.703  2.4778 -1.0301 -3.6615
  743MOL0     H  263   8.798   5.154   1.563 -1.3181  2.0081  1.6723
  743MOL0     H  264   8.954   5.102   1.491 -0.3441 -1.0901  1.5905
  743MOL0     H  265   8.951   5.535   1.388 -1.9101 -0.5902  1.4387
  743MOL0     H  266   9.153   5.618   1.269 -3.8425 -0.0222 -0.8823
  743MOL0     H  267   9.657   5.243   1.016 -2.3179  1.2263  0.5430
  743MOL0     H  268   9.874   5.279   0.973 -2.9864 -2.4952  0.2300
  743MOL0     H  269  10.097   5.309   1.044  0.6736  0.0257  0.6339
  743MOL0     H  270  10.070   5.422   0.911 -0.9922 -0.7710 -0.2421
  743MOL0     H  271  10.305   5.402   1.104 -0.9568 -0.9750 -0.3476
  743MOL0     H  272  10.302   5.394   0.931  1.0191 -0.5414 -0.3444
  743MOL0     H  273  10.247   5.659   1.092  2.2854  1.5080  1.2170
  743MOL0     H  274  10.406   5.614   1.034 -0.5595  0.7790  1.8143
  743MOL0     H  275  10.152   5.665   0.865  0.1244 -0.1358 -2.6030
  743MOL0     H  276  10.304   5.595   0.804 -0.6848  0.6198 -0.3292
  743MOL0     H  277  10.424   5.812   0.921  0.5895 -0.8821  0.8702
  743MOL0     H  278  10.257   5.876   0.906 -1.0619 -0.6031 -0.5728
  743MOL0     H  279  10.446   5.769   0.692 -0.1960  0.8109 -1.6585
  743MOL0     H  280  10.281   5.803   0.651  0.6964 -1.0552 -0.5417
  743MOL0     H  281  10.321   6.044   0.721  0.7060  0.4421  1.3802
  743MOL0     H  282  10.427   5.996   0.584 -1.4199 -1.8749 -0.4586
  743MOL0     H  283  10.511   5.997   0.876  2.5696 -2.7337  0.4580
  743MOL0     H  284  10.615   5.945   0.745 -0.5289 -4.2134  1.1429
  743MOL0     H  285   9.876   5.633   1.233  0.0358 -0.4631  1.3901
  743MOL0     H  286   9.635   5.587   1.282 -1.0372 -0.6435 -0.5197
  743MOL0     H  287   9.349   5.246   1.343  0.8470  1.2300 -0.8052
  743MOL0     H  288   9.147   5.154   1.429 -1.0461 -0.0020  0.2030
  743MOL0     H  289   7.430   4.803   2.641 -2.2402  1.0702 -0.2511
  743MOL0     H  290   7.191   4.692   2.634 -2.3493 -3.9767  0.2386
  743MOL0     H  291   6.924   4.349   2.279 -1.9727  1.2204 -1.6553
  743MOL0     H  292   6.718   4.227   2.318 -1.5493  2.5305 -2.3131
  743MOL0     H  293   6.445   4.372   2.665 -1.5521 -0.0003 -2.1019
  743MOL0     H  294   6.553   4.249   2.749 -2.8197  0.9871  2.7758
  743MOL0     H  295   6.427   4.068   2.682 -2.4000 -0.9747  1.9369
  743MOL0     H  296   6.317   4.185   2.593  0.5684 -0.0850 -0.0387
  743MOL0     H  297   6.348   4.154   2.892 -0.0280 -2.8932 -0.9798
  743MOL0     H  298   6.224   4.090   2.790  0.7313 -0.5132 -0.6106
  743MOL0     H  299   6.155   4.300   2.917 -0.0201 -0.8034 -0.1451
  743MOL0     H  300   6.285   4.386   2.851 -2.0919  1.1510  0.2215
  743MOL0     H  301   5.929   4.381   2.606 -0.7969  1.2309  0.9137
  743MOL0     H  302   6.665   4.458   2.691  0.1247 -1.7691  1.3431
  743MOL0     H  303   6.798   4.660   2.715 -1.4552 -2.4165  0.6616
  743MOL0     H  304   6.944   4.562   2.728 -1.6448 -1.9830  1.3496
  743MOL0     H  305   6.934   4.696   2.613 -2.9322  1.4157  1.1301
  744MOL0     O  306  10.784   2.244   8.423 -0.4593 -0.5927  0.1867
  744MOL0     C  307  10.798   2.192   8.313 -0.4910 -0.0494 -0.2989
  744MOL0     O  308  10.918   2.167   8.252 -0.2940  0.0847 -0.3668
  744MOL0     C  309  11.041   2.211   8.305 -0.0954 -0.1245 -0.1659
  744MOL0     C  310  11.079   2.278   8.426  0.2767  0.1693 -0.6713
  744MOL0     C  311  11.209   2.317   8.452 -0.7503  0.2280  0.3410
  744MOL0     C  312  11.313   2.286   8.354 -0.6545 -0.2347 -0.8132
  744MOL0     O  313  11.447   2.315   8.374 -0.4755  0.2551 -0.7712
  744MOL0     C  314  11.478   2.428   8.457 -0.2585 -0.9391  0.5928
  744MOL0     C  315  11.613   2.488   8.429 -0.4154  0.3838  0.2359
  744MOL0     C  316  11.611   2.622   8.355 -0.0421 -0.7029  0.0339
  744MOL0     C  317  11.586   2.739   8.450  0.0701  0.1237 -1.1278
  744MOL0     C  318  11.567   2.877   8.393  0.2299  0.3585  1.2116
  744MOL0     C  319  11.443   2.895   8.297  0.3293  0.1568 -0.4196
  744MOL0     C  320  11.410   3.043   8.260  0.1295  0.1760  0.6842
  744MOL0     C  321  11.455   3.102   8.127 -0.3652  0.1157 -0.1704
  744MOL0     N  322  11.601   3.138   8.122 -0.0397 -0.9068  1.2817
  744MOL0     C  323  11.648   3.255   8.171  0.6608 -0.5182 -0.2535
  744MOL0     C  324  11.778   3.249   8.137  0.3583 -0.5227 -0.0865
  744MOL0     C  325  11.873   3.368   8.161  0.6794  0.3280  1.0774
  744MOL0     C  326  12.001   3.361   8.082 -0.3994 -0.8378  0.3685
  744MOL0     C  327  12.092   3.487   8.108  0.0791 -1.4424 -0.7494
  744MOL0     C  328  12.210   3.500   8.012  1.1411  0.6218  0.2965
  744MOL0     O  329  12.293   3.609   8.051 -0.0420 -0.0975  0.3941
  744MOL0     C  330  12.423   3.620   8.001  0.0654 -0.1510 -0.3567
  744MOL0     C  331  12.482   3.572   7.888 -0.0261  0.3287  0.4298
  744MOL0     C  332  12.616   3.615   7.852  0.6704  0.3433  0.7621
  744MOL0     C  333  12.682   3.705   7.933 -0.2630 -0.6294 -0.0832
  744MOL0     C  334  12.816   3.748   7.896 -0.9083  0.1875 -0.2046
  744MOL0     O  335  12.862   3.860   7.955  0.5698  0.3344  0.0916
  744MOL0     C  336  12.992   3.903   7.956 -0.0161 -0.1036  0.1413
  744MOL0     C  337  13.019   3.995   8.056 -0.3115 -0.2820  0.4500
  744MOL0     C  338  13.152   4.033   8.075  0.0661  0.2625 -0.3398
  744MOL0     C  339  13.250   3.993   7.987 -0.6653  0.9671  0.2495
  744MOL0     O  340  13.383   4.021   7.998 -0.3992 -0.5297  0.2436
  744MOL0     C  341  13.460   4.001   8.116 -0.2150  0.3466 -0.0419
  744MOL0     C  342  13.589   4.086   8.111  0.0051 -0.3259  0.2099
  744MOL0     C  343  13.670   4.067   7.983  0.9065 -0.3289 -0.2166
  744MOL0     C  344  13.798   4.145   7.997  0.2476 -0.1172  0.3741
  744MOL0     C  345  13.871   4.141   7.864 -0.3591  0.2479  0.4870
  744MOL0     C  346  14.001   4.210   7.873 -0.1074  0.3100  0.7882
  744MOL0     C  347  14.062   4.240   7.730  0.0559  0.7403 -0.1176
  744MOL0     C  348  14.204   4.295   7.737 -0.0325 -0.2183  0.4016
  744MOL0    Cl  349  14.252   4.352   7.577  0.1400  0.0000 -0.3197
  744MOL0     C  350  13.218   3.908   7.878  0.4453  0.1887  0.7063
  744MOL0     C  351  13.086   3.857   7.865 -0.0531  0.0792  0.4866
  744MOL0     O  352  12.868   3.690   7.802 -0.2380 -0.4497 -0.4337
  744MOL0     C  353  12.622   3.749   8.052  0.3643 -0.6380  0.4974
  744MOL0     C  354  12.493   3.708   8.083 -0.4108 -0.2173 -0.5355
  744MOL0     N  355  11.808   3.134   8.064 -0.6108  0.0742  0.1521
  744MOL0     N  356  11.694   3.069   8.052  0.4748  0.1371  0.3110
  744MOL0     C  357  11.279   2.216   8.239  0.5957 -0.1639  0.5732
  744MOL0     C  358  11.143   2.175   8.224 -0.6174 -0.2889  1.0304
  744MOL0     C  359  10.671   2.143   8.244 -0.4449 -0.0605 -0.0655
  744MOL0     C  360  10.560   2.217   8.271  0.4942  1.0110 -0.3598
  744MOL0     C  361  10.432   2.174   8.223 -0.2902 -0.0995 -1.1361
  744MOL0     C  362  10.419   2.060   8.149 -0.1810  0.4761  0.3743
  744MOL0     O  363  10.296   2.013   8.098 -0.2259 -0.5648 -0.3244
  744MOL0     C  364  10.175   2.079   8.136 -0.5278 -0.1440 -0.2291
  744MOL0     C  365  10.061   2.007   8.053  0.1539 -0.1985 -0.5232
  744MOL0     C  366  10.051   1.852   8.066  0.3619 -0.2066 -0.0027
  744MOL0     C  367  10.101   1.780   7.944  0.0774 -0.2361 -0.4421
  744MOL0     C  368  10.000   1.769   7.844  0.4060  0.8061  0.0510
  744MOL0     C  369   9.923   1.729   7.758  0.5192 -0.0017 -0.6608
  744MOL0     C  370  10.538   1.982   8.113  0.4175 -0.6630  0.4131
  744MOL0     C  371  10.667   2.024   8.160  1.0382 -0.1707 -0.0672
  744MOL0     C  372  10.790   1.946   8.098  0.0444 -0.4512 -0.9199
  744MOL0     H  373  11.003   2.306   8.498  0.2547  1.4446 -1.1606
  744MOL0     H  374  11.231   2.369   8.544  0.0608  0.9679 -0.2467
  744MOL0     H  375  11.405   2.509   8.457 -0.5185 -1.1514  1.8237
  744MOL0     H  376  11.480   2.378   8.554 -0.8468 -0.1099  1.0440
  744MOL0     H  377  11.672   2.412   8.376  1.1976  1.2310  0.7494
  744MOL0     H  378  11.655   2.496   8.530 -1.8704  2.0688  0.7594
  744MOL0     H  379  11.522   2.631   8.292 -0.5051  1.3485  0.9012
  744MOL0     H  380  11.697   2.645   8.290  0.8031  0.6137  1.5521
  744MOL0     H  381  11.506   2.723   8.522 -1.0566 -0.1805 -2.4075
  744MOL0     H  382  11.675   2.754   8.512  0.6353  1.3192 -2.1813
  744MOL0     H  383  11.555   2.942   8.481 -1.4083 -0.3000  1.5084
  744MOL0     H  384  11.654   2.912   8.338 -0.2254  0.8697  0.8059
  744MOL0     H  385  11.474   2.843   8.206  2.3444  1.3940 -0.4936
  744MOL0     H  386  11.358   2.843   8.343 -0.4229  0.7341 -1.1199
  744MOL0     H  387  11.438   3.111   8.342 -1.8576  3.3967 -1.1037
  744MOL0     H  388  11.301   3.051   8.254  0.0882  1.1788  2.2076
  744MOL0     H  389  11.450   3.020   8.055  0.9025  0.8782 -1.1630
  744MOL0     H  390  11.400   3.181   8.076  1.6315  1.5706 -0.1869
  744MOL0     H  391  11.598   3.338   8.219  1.0877 -0.3065 -0.1723
  744MOL0     H  392  11.814   3.459   8.145 -3.0764 -1.7091  2.0462
  744MOL0     H  393  11.891   3.361   8.268  0.0861  2.4758  1.3779
  744MOL0     H  394  12.047   3.269   8.119 -2.3466 -0.8946  2.8834
  744MOL0     H  395  11.987   3.357   7.973  0.7726  1.1695  0.0968
  744MOL0     H  396  12.138   3.488   8.207  1.3826  1.1479 -1.3105
  744MOL0     H  397  12.031   3.578   8.104  0.2472 -1.2496  0.6445
  744MOL0     H  398  12.166   3.494   7.912  1.5042 -2.0300  0.2342
  744MOL0     H  399  12.280   3.416   8.015  0.9121  0.4309  0.2713
  744MOL0     H  400  12.434   3.496   7.827 -0.8600  0.8426  0.4438
  744MOL0     H  401  12.667   3.579   7.764  1.6500  1.9520  0.6308
  744MOL0     H  402  12.940   4.041   8.115 -0.2825  0.9701 -0.4389
  744MOL0     H  403  13.175   4.098   8.159 -0.6635  1.9523 -1.3760
  744MOL0     H  404  13.397   4.010   8.205 -1.7227 -1.0531 -0.9051
  744MOL0     H  405  13.497   3.898   8.118 -2.2202 -0.4621 -0.9445
  744MOL0     H  406  13.563   4.192   8.125 -1.8699 -0.8169  0.6924
  744MOL0     H  407  13.648   4.060   8.200  0.0994  1.1939  0.6255
  744MOL0     H  408  13.685   3.965   7.946  2.6441 -0.8575  1.7433
  744MOL0     H  409  13.625   4.130   7.905  1.3146  1.0615  0.6482
  744MOL0     H  410  13.848   4.102   8.083 -2.8056 -0.4830  2.1304
  744MOL0     H  411  13.777   4.251   8.015 -1.9845  0.0003 -2.2085
  744MOL0     H  412  13.818   4.175   7.774  1.7405 -1.2741 -1.4473
  744MOL0     H  413  13.894   4.035   7.853  1.2105  0.4967  1.0665
  744MOL0     H  414  13.982   4.303   7.927 -2.9115 -0.3967  1.1883
  744MOL0     H  415  14.076   4.155   7.931  0.5267  1.1814  0.8129
  744MOL0     H  416  13.999   4.303   7.668  1.2225 -0.2748 -2.4387
  744MOL0     H  417  14.067   4.141   7.684 -0.6431 -1.5872  4.1824
  744MOL0     H  418  14.214   4.373   7.813  1.2906  0.7488 -0.7057
  744MOL0     H  419  14.272   4.211   7.760  1.5620  0.8354 -0.2571
  744MOL0     H  420  13.304   3.873   7.821  0.1022  2.6935 -1.5822
  744MOL0     H  421  13.070   3.776   7.795  2.5925 -0.8521  0.8646
  744MOL0     H  422  12.672   3.817   8.120  0.9127 -1.5504  1.0206
  744MOL0     H  423  12.446   3.730   8.178  0.5851  0.8456 -0.2607
  744MOL0     H  424  11.356   2.179   8.172  0.9607  0.1683  0.8003
  744MOL0     H  425  11.113   2.116   8.138 -0.8608  1.1717  0.0781
  744MOL0     H  426  10.563   2.304   8.335  3.7486  0.1476  0.9098
  744MOL0     H  427  10.339   2.228   8.237  0.0346  0.0577  0.7931
  744MOL0     H  428  10.165   2.185   8.114 -2.5689 -0.3727 -0.6716
  744MOL0     H  429  10.175   2.063   8.245 -0.2851 -0.4709 -0.2743
  744MOL0     H  430  10.083   2.037   7.951  0.4461  3.9418  0.5876
  744MOL0     H  431   9.966   2.049   8.089  1.1489  2.6529 -0.9956
  744MOL0     H  432   9.944   1.833   8.075  0.2126  0.3094 -0.6200
  744MOL0     H  433  10.095   1.815   8.160 -2.8201 -0.9553  1.3140
  744MOL0     H  434  10.195   1.823   7.907 -0.0081  0.3696  0.0167
  744MOL0     H  435  10.128   1.677   7.969  3.3107  0.4266 -0.7610
  744MOL0     H  436   9.843   1.702   7.692 -0.3584 -1.8554  1.0371
  744MOL0     H  437  10.533   1.892   8.052  0.5206  0.9458 -2.0902
  744MOL0     H  438  10.837   2.009   8.022  4.2794  0.0050  1.7676
  744MOL0     H  439  10.866   1.923   8.173 -0.9193  1.4002  0.6911
  744MOL0     H  440  10.749   1.860   8.044 -3.8040  0.0078  0.9376
  745MOL0     O  441   3.198   0.593   2.979  0.5180 -0.0975  0.5584
  745MOL0     C  442   3.126   0.690   2.951 -0.7139  0.0285 -0.1405
  745MOL0     O  443   3.173   0.809   2.909 -0.1357 -0.0670 -0.1543
  745MOL0     C  444   3.312   0.838   2.907  0.4935 -0.0701 -0.4165
  745MOL0     C  445   3.404   0.782   3.001  0.0331 -0.8853  0.5588
  745MOL0     C  446   3.534   0.815   2.981  0.8317 -1.2367  0.1326
  745MOL0     C  447   3.584   0.902   2.885 -0.0856  0.0983 -0.3756
  745MOL0     O  448   3.716   0.918   2.871 -0.3661 -0.4198 -0.3043
  745MOL0     C  449   3.790   0.947   2.986  0.2672  0.4676 -0.0299
  745MOL0     C  450   3.928   0.989   2.946 -1.1916  1.3148 -0.3022
  745MOL0     C  451   4.003   0.892   2.844  0.3014  1.0213 -0.3602
  745MOL0     C  452   4.144   0.937   2.837 -0.5613  0.3088  0.6095
  745MOL0     C  453   4.233   0.850   2.745  0.4922  0.2518 -0.4137
  745MOL0     C  454   4.368   0.908   2.732 -0.2774 -0.3305 -1.1108
  745MOL0     C  455   4.448   0.802   2.649 -0.1034 -0.2464 -0.6502
  745MOL0     C  456   4.581   0.858   2.595 -0.2496 -0.4295  0.7349
  745MOL0     N  457   4.668   0.908   2.706  0.2516 -0.1163 -0.2792
  745MOL0     C  458   4.661   1.037   2.756 -1.1018 -0.3565 -0.5148
  745MOL0     C  459   4.748   1.039   2.861 -0.1886 -0.4783  0.4301
  745MOL0     C  460   4.780   1.162   2.947 -0.2787  0.0562  0.5314
  745MOL0     C  461   4.915   1.147   3.016  0.6178 -0.7697 -1.0494
  745MOL0     C  462   4.930   1.251   3.133  0.2969  0.4065  0.3577
  745MOL0     C  463   5.074   1.306   3.162  1.0410  0.1687  1.3335
  745MOL0     O  464   5.075   1.382   3.281  0.3759 -0.0426 -0.5330
  745MOL0     C  465   5.200   1.411   3.325 -0.9957  0.1490 -0.3656
  745MOL0     C  466   5.220   1.391   3.460 -1.0445 -0.1006  0.3966
  745MOL0     C  467   5.341   1.414   3.522  0.4514  0.6110 -0.4744
  745MOL0     C  468   5.454   1.460   3.449  0.1510 -0.0022 -0.0923
  745MOL0     C  469   5.590   1.466   3.510 -1.1571  0.4577  0.6857
  745MOL0     O  470   5.686   1.541   3.438 -0.7757 -0.1549  0.3428
  745MOL0     C  471   5.806   1.545   3.498  0.0240 -0.2565 -0.0479
  745MOL0     C  472   5.908   1.450   3.473 -0.5885  0.7815  0.1430
  745MOL0     C  473   6.026   1.454   3.550 -0.0736  0.4147  0.5082
  745MOL0     C  474   6.051   1.547   3.643 -0.1410 -0.2720 -0.0774
  745MOL0     O  475   6.175   1.539   3.707  0.1732 -0.0722 -0.1451
  745MOL0     C  476   6.176   1.584   3.844  1.0045 -0.2219 -0.5757
  745MOL0     C  477   6.281   1.520   3.930  0.0722  1.0045  0.1329
  745MOL0     C  478   6.415   1.557   3.863  0.3135 -0.9761  0.7303
  745MOL0     C  479   6.516   1.537   3.972  1.0909  0.5597 -0.4909
  745MOL0     C  480   6.656   1.569   3.926  0.2775 -0.6129  0.2521
  745MOL0     C  481   6.767   1.550   4.044 -0.3077 -0.3840 -0.3927
  745MOL0     C  482   6.905   1.551   3.980 -0.2476  0.5266  0.1008
  745MOL0     C  483   7.004   1.479   4.070 -0.1346  0.6911 -0.8004
  745MOL0    Cl  484   6.998   1.559   4.235 -0.0756  0.1685 -0.0770
  745MOL0     C  485   5.956   1.648   3.658  0.0129 -0.1766  0.5964
  745MOL0     C  486   5.834   1.658   3.585  0.0503  0.6664 -0.7925
  745MOL0     O  487   5.611   1.419   3.621  0.2796  0.2411 -0.8080
  745MOL0     C  488   5.438   1.484   3.312  1.1608  0.1179  1.1514
  745MOL0     C  489   5.313   1.463   3.251  0.1488 -0.4266 -0.8181
  745MOL0     N  490   4.809   0.916   2.864 -0.0393 -0.0371  0.0876
  745MOL0     N  491   4.756   0.834   2.776  0.7153 -0.4191 -0.2477
  745MOL0     C  492   3.488   0.962   2.805 -0.5453 -0.2481 -0.0599
  745MOL0     C  493   3.350   0.935   2.817  0.0021 -0.2077  0.1277
  745MOL0     C  494   2.980   0.673   2.954  0.0963  0.4134 -0.2864
  745MOL0     C  495   2.900   0.770   2.895 -1.1871  0.2332 -0.5979
  745MOL0     C  496   2.762   0.757   2.878 -0.1111  0.1328  0.2267
  745MOL0     C  497   2.698   0.641   2.916 -0.1152  0.0451 -0.4854
  745MOL0     O  498   2.568   0.605   2.880 -0.0734  0.2119  0.1182
  745MOL0     C  499   2.484   0.710   2.840  0.2361  0.1663 -0.5202
  745MOL0     C  500   2.351   0.660   2.819  0.3403 -0.1517 -0.1006
  745MOL0     C  501   2.343   0.574   2.690 -1.0075  0.2932  0.3755
  745MOL0     C  502   2.198   0.528   2.668 -0.0763  0.9277 -0.1174
  745MOL0     C  503   2.185   0.470   2.528  0.1689 -0.0849 -1.0851
  745MOL0     C  504   2.162   0.443   2.414  0.3227 -0.2855 -0.6246
  745MOL0     C  505   2.773   0.551   2.988 -0.0290  0.2009  0.6018
  745MOL0     C  506   2.918   0.563   3.012  0.6856 -0.4153  0.1153
  745MOL0     C  507   2.984   0.445   3.078  0.5836  0.3391 -0.0717
  745MOL0     H  508   3.370   0.720   3.084 -2.3294 -0.4091  0.0177
  745MOL0     H  509   3.601   0.765   3.050  2.8018 -0.4278 -1.1286
  745MOL0     H  510   3.748   1.031   3.042  0.5171  0.5935 -0.0296
  745MOL0     H  511   3.780   0.857   3.047  0.3615 -0.8194 -1.8196
  745MOL0     H  512   3.980   0.994   3.042 -1.2593 -3.1364  0.1880
  745MOL0     H  513   3.921   1.084   2.893 -3.6796  0.5885 -1.4164
  745MOL0     H  514   3.966   0.894   2.741 -0.3683  1.1186 -0.1213
  745MOL0     H  515   4.000   0.793   2.892  0.5497  2.0751  1.9461
  745MOL0     H  516   4.163   1.043   2.815  1.1457  0.0563  0.7402
  745MOL0     H  517   4.186   0.930   2.938  2.6519 -2.2274 -0.7075
  745MOL0     H  518   4.233   0.748   2.786  0.3090  0.1290 -0.7168
  745MOL0     H  519   4.188   0.847   2.645 -0.9501  0.3211  0.1999
  745MOL0     H  520   4.363   1.009   2.689  2.1460  1.5708  2.5049
  745MOL0     H  521   4.419   0.914   2.829 -3.4669  3.0344  0.6351
  745MOL0     H  522   4.388   0.773   2.563 -0.3319 -0.9551 -0.2681
  745MOL0     H  523   4.454   0.705   2.700  0.1660 -0.7599 -1.6281
  745MOL0     H  524   4.633   0.777   2.542  1.4151  0.1120  1.4571
  745MOL0     H  525   4.553   0.934   2.521 -3.3947 -1.2293  0.9611
  745MOL0     H  526   4.599   1.121   2.727 -2.5028  0.2589  3.6152
  745MOL0     H  527   4.771   1.254   2.887  0.8132  0.3892  0.8500
  745MOL0     H  528   4.694   1.166   3.015 -0.0814  0.1965  0.7755
  745MOL0     H  529   4.919   1.048   3.064 -0.8975 -2.0283 -3.3374
  745MOL0     H  530   4.999   1.155   2.947 -0.8223  0.9260 -2.7436
  745MOL0     H  531   4.890   1.214   3.228 -1.5919  0.3861 -0.4008
  745MOL0     H  532   4.864   1.332   3.104  0.0717 -0.0725 -0.4926
  745MOL0     H  533   5.100   1.372   3.079 -1.5482 -0.2207  0.0902
  745MOL0     H  534   5.148   1.226   3.171 -1.2334 -2.2916 -0.2905
  745MOL0     H  535   5.143   1.340   3.518  1.4866 -2.4399  1.9646
  745MOL0     H  536   5.357   1.405   3.629 -0.6219  1.8578 -0.1885
  745MOL0     H  537   5.902   1.370   3.399  0.4547  0.8183 -0.0003
  745MOL0     H  538   6.106   1.381   3.541  0.0865  0.4143  1.6655
  745MOL0     H  539   6.202   1.690   3.838  0.9458 -0.2584 -1.7365
  745MOL0     H  540   6.078   1.590   3.893  0.9754  2.5447 -0.8193
  745MOL0     H  541   6.285   1.562   4.031  1.4110 -0.4868  0.7517
  745MOL0     H  542   6.256   1.413   3.932  1.2609  0.6959 -0.3393
  745MOL0     H  543   6.428   1.499   3.772  0.5219  1.6252 -1.0035
  745MOL0     H  544   6.400   1.662   3.834 -2.4749 -1.5310 -0.1839
  745MOL0     H  545   6.511   1.431   3.999  0.4984  0.7634  0.2540
  745MOL0     H  546   6.495   1.598   4.061  1.8289 -2.4386  1.9346
  745MOL0     H  547   6.651   1.674   3.899  0.1180 -0.1630  1.9157
  745MOL0     H  548   6.682   1.507   3.840  1.6300  2.0480 -1.3694
  745MOL0     H  549   6.756   1.626   4.122 -3.4293 -1.2693  0.1797
  745MOL0     H  550   6.756   1.452   4.091  0.2245 -0.4220 -0.3409
  745MOL0     H  551   6.938   1.651   3.950  1.0814 -0.0683 -0.5235
  745MOL0     H  552   6.901   1.482   3.895  1.2847  0.0856  0.3640
  745MOL0     H  553   6.989   1.371   4.077  0.4327  0.5858 -1.1405
  745MOL0     H  554   7.108   1.485   4.039  0.6300 -0.2959  1.3801
  745MOL0     H  555   5.961   1.719   3.740  1.3290  0.7645 -0.2578
  745MOL0     H  556   5.762   1.738   3.598 -0.1511  1.1352 -3.9049
  745MOL0     H  557   5.508   1.527   3.240 -2.5124  1.6189 -1.8870
  745MOL0     H  558   5.296   1.492   3.148  0.0243  0.2436 -0.6130
  745MOL0     H  559   3.528   1.016   2.720  0.8739 -2.4804 -0.9056
  745MOL0     H  560   3.282   1.009   2.777  0.4438  0.8674  1.3008
  745MOL0     H  561   2.945   0.853   2.841 -0.8932  0.8848  0.6093
  745MOL0     H  562   2.703   0.837   2.834 -0.0413 -1.2398 -2.5264
  745MOL0     H  563   2.532   0.754   2.752  3.0178 -0.8387  0.3927
  745MOL0     H  564   2.487   0.790   2.915 -0.2208 -1.9767  1.9119
  745MOL0     H  565   2.281   0.745   2.813  0.7169  0.2402  0.8201
  745MOL0     H  566   2.312   0.612   2.910 -1.7441  1.0879 -0.2778
  745MOL0     H  567   2.412   0.490   2.703 -0.3819  0.8874  0.9769
  745MOL0     H  568   2.367   0.631   2.599 -0.7966 -1.5988 -0.8159
  745MOL0     H  569   2.168   0.447   2.736  0.6892  1.0335  0.3574
  745MOL0     H  570   2.128   0.611   2.678 -1.7857 -0.4033 -0.4963
  745MOL0     H  571   2.126   0.433   2.314 -1.9702 -0.3528  0.1518
  745MOL0     H  572   2.714   0.464   3.014 -1.9045 -0.1718 -3.9807
  745MOL0     H  573   3.032   0.371   3.012  1.1363  1.1166 -0.5654
  745MOL0     H  574   3.059   0.480   3.150 -0.4298  0.3577  1.0058
  745MOL0     H  575   2.918   0.393   3.148  1.2810 -3.0220 -1.6703
  746MOL0     O  576   0.514   0.326   1.981  0.0148  0.1998 -0.4211
  746MOL0     C  577   0.575   0.410   2.031 -0.3306  0.0472 -0.3112
  746MOL0     O  578   0.519   0.511   2.105  0.3179 -0.0822 -0.2282
  746MOL0     C  579   0.382   0.531   2.095 -0.7102  0.5267  0.1320
  746MOL0     C  580   0.324   0.587   1.977 -0.4626 -0.4137  0.8275
  746MOL0     C  581   0.195   0.609   1.968  0.4365  0.1436  0.3557
  746MOL0     C  582   0.117   0.577   2.076  0.0319 -0.2879  0.5499
  746MOL0     O  583  -0.022   0.588   2.059 -0.1413 -0.4985 -1.0305
  746MOL0     C  584  -0.064   0.727   2.061  0.1532 -0.0971 -0.1668
  746MOL0     C  585  -0.219   0.724   2.036 -0.5498 -0.2761 -0.3325
  746MOL0     C  586  -0.280   0.861   1.985  0.2858 -0.5261 -0.0164
  746MOL0     C  587  -0.256   0.883   1.829  0.1652  0.1851 -0.4608
  746MOL0     C  588  -0.358   0.977   1.768 -0.2759  0.2275  0.0419
  746MOL0     C  589  -0.322   1.125   1.795  0.7867 -0.8325 -0.4127
  746MOL0     C  590  -0.225   1.172   1.697 -1.0416  0.0832  0.5092
  746MOL0     C  591  -0.116   1.268   1.758 -0.0347 -0.3574 -0.3373
  746MOL0     N  592   0.006   1.202   1.822  0.4032  0.4688 -0.1042
  746MOL0     C  593   0.026   1.193   1.958  0.0719  0.2773 -0.0346
  746MOL0     C  594   0.129   1.105   1.977 -0.3699 -0.1490 -0.2272
  746MOL0     C  595   0.202   1.056   2.099  0.2546  1.1018 -0.3595
  746MOL0     C  596   0.311   0.947   2.061  0.3715 -0.2507  0.7014
  746MOL0     C  597   0.370   0.902   2.192  0.3902  0.0859  0.2168
  746MOL0     C  598   0.512   0.844   2.162 -0.5579  0.0048 -0.4709
  746MOL0     O  599   0.597   0.957   2.171 -0.3217  0.0670 -0.6016
  746MOL0     C  600   0.730   0.940   2.171  0.5287 -1.0429  1.2961
  746MOL0     C  601   0.809   1.042   2.210 -0.3319 -0.5659  0.0103
  746MOL0     C  602   0.943   1.035   2.200  0.3921 -0.0143  0.6011
  746MOL0     C  603   1.007   0.924   2.148  0.4845  0.1559  0.1328
  746MOL0     C  604   1.157   0.922   2.122  0.0609  0.2146  1.0569
  746MOL0     O  605   1.207   1.043   2.096 -0.1088 -0.2602 -0.4518
  746MOL0     C  606   1.343   1.046   2.076 -0.3805 -0.6725  1.3189
  746MOL0     C  607   1.436   1.042   2.172 -0.4545 -0.8945 -0.0853
  746MOL0     C  608   1.576   1.044   2.133 -0.3156  0.0321 -0.2035
  746MOL0     C  609   1.618   1.074   1.999 -0.1298 -0.7617 -0.8774
  746MOL0     O  610   1.747   1.094   1.959 -0.0305  0.0107  0.0655
  746MOL0     C  611   1.827   1.182   2.041  0.0013  0.2794 -0.4949
  746MOL0     C  612   1.951   1.101   2.067 -0.4254  0.6420  0.2211
  746MOL0     C  613   2.069   1.194   2.121  0.0010  0.3806  0.2550
  746MOL0     C  614   2.144   1.258   2.005  0.7699  0.2547 -0.4136
  746MOL0     C  615   2.233   1.379   2.049  0.4212 -1.1822 -0.9179
  746MOL0     C  616   2.350   1.333   2.146 -0.0455  0.0549 -0.4580
  746MOL0     C  617   2.410   1.458   2.222  0.4315  0.3430 -0.5457
  746MOL0     C  618   2.535   1.431   2.314 -0.5550  0.9279 -0.4986
  746MOL0    Cl  619   2.503   1.320   2.444 -0.4575  0.3144 -0.2300
  746MOL0     C  620   1.515   1.073   1.904 -0.2830  0.1048  1.3374
  746MOL0     C  621   1.385   1.058   1.936  1.1777 -0.1074 -0.8966
  746MOL0     O  622   1.217   0.814   2.112  0.2577 -0.0583 -0.0379
  746MOL0     C  623   0.925   0.816   2.098 -0.6661  0.1576  0.4776
  746MOL0     C  624   0.791   0.825   2.110 -0.1688  0.1564  0.1477
  746MOL0     N  625   0.148   1.046   1.852 -0.1141 -0.3621  0.7908
  746MOL0     N  626   0.075   1.102   1.767 -0.0386 -0.4373  0.4044
  746MOL0     C  627   0.168   0.533   2.195  0.2054  0.6812  1.0386
  746MOL0     C  628   0.303   0.500   2.208  1.0122 -1.0077  0.1982
  746MOL0     C  629   0.724   0.389   2.043 -0.1466 -0.2664  0.1144
  746MOL0     C  630   0.790   0.445   2.156  0.0654  1.0000 -0.0158
  746MOL0     C  631   0.930   0.425   2.169  0.2332 -0.2640  0.3964
  746MOL0     C  632   1.005   0.368   2.070 -0.1973  0.0413  0.2494
  746MOL0     O  633   1.142   0.364   2.075 -0.3051  0.3407  0.0382
  746MOL0     C  634   1.217   0.366   2.201  0.3288 -0.1952  0.4705
  746MOL0     C  635   1.355   0.310   2.177 -0.7346 -0.1848  0.3092
  746MOL0     C  636   1.446   0.282   2.294  0.5050  0.4881 -0.1201
  746MOL0     C  637   1.582   0.225   2.251  0.6081 -0.6782  0.5668
  746MOL0     C  638   1.651   0.176   2.364  0.2366 -0.4484 -0.0735
  746MOL0     C  639   1.728   0.134   2.441 -0.5708  0.3809  0.3572
  746MOL0     C  640   0.946   0.320   1.957 -0.2778 -0.3109  0.2309
  746MOL0     C  641   0.804   0.322   1.945  0.2586 -0.7616 -0.0074
  746MOL0     C  642   0.745   0.277   1.811  0.4720  0.1008 -0.9387
  746MOL0     H  643   0.387   0.601   1.890  1.2244 -0.3805  1.9993
  746MOL0     H  644   0.149   0.660   1.884  1.3131  0.4012  0.0245
  746MOL0     H  645  -0.048   0.761   2.164 -1.6416  0.3564 -0.0150
  746MOL0     H  646  -0.014   0.794   1.990  0.4893  1.7293  1.7072
  746MOL0     H  647  -0.268   0.703   2.131 -1.0232  3.2035  0.3392
  746MOL0     H  648  -0.255   0.643   1.971  1.0326  0.6340 -2.4600
  746MOL0     H  649  -0.243   0.948   2.039 -0.0699 -1.1825  1.3102
  746MOL0     H  650  -0.388   0.856   2.001  0.1909 -1.1845 -0.7422
  746MOL0     H  651  -0.150   0.905   1.815 -0.1369  3.0228  0.8546
  746MOL0     H  652  -0.285   0.786   1.789 -0.5905  0.5922 -0.9214
  746MOL0     H  653  -0.357   0.964   1.659 -0.0474 -1.3815  0.2224
  746MOL0     H  654  -0.460   0.959   1.802  0.6351 -1.0954  2.2867
  746MOL0     H  655  -0.413   1.186   1.791  0.4708 -1.3528 -2.3410
  746MOL0     H  656  -0.274   1.133   1.892 -0.2593 -2.3620  0.2839
  746MOL0     H  657  -0.283   1.238   1.631 -2.8603 -1.1117  0.8348
  746MOL0     H  658  -0.172   1.089   1.648 -2.8472 -0.3232 -0.8748
  746MOL0     H  659  -0.071   1.327   1.677  3.4482 -0.1605  1.5498
  746MOL0     H  660  -0.166   1.338   1.827 -0.6116 -0.2040 -0.9006
  746MOL0     H  661  -0.028   1.253   2.030 -2.4271 -0.9534 -0.7610
  746MOL0     H  662   0.257   1.140   2.142  2.0565  0.7157 -1.7557
  746MOL0     H  663   0.126   1.012   2.164 -3.2876  3.4819 -2.5514
  746MOL0     H  664   0.275   0.863   2.000  0.3507  0.6258 -0.5263
  746MOL0     H  665   0.379   0.993   1.989 -0.4685  0.0487  0.0837
  746MOL0     H  666   0.312   0.833   2.254 -1.5533  1.2300 -0.2353
  746MOL0     H  667   0.382   0.980   2.268  2.1446  0.2276 -0.1746
  746MOL0     H  668   0.518   0.812   2.057  0.0391 -1.4864 -0.0129
  746MOL0     H  669   0.550   0.761   2.223 -0.3304 -1.3466 -2.3472
  746MOL0     H  670   0.760   1.136   2.235 -0.2079  0.4323 -3.0514
  746MOL0     H  671   1.002   1.119   2.236  0.3927  0.0691  0.4107
  746MOL0     H  672   1.405   1.037   2.276  2.2677 -0.5801  0.8216
  746MOL0     H  673   1.650   1.037   2.212 -2.3429  1.1373  1.9126
  746MOL0     H  674   1.854   1.276   1.991 -2.2799  1.7956  0.9096
  746MOL0     H  675   1.769   1.212   2.129 -3.1731  0.9792 -2.6398
  746MOL0     H  676   1.934   1.014   2.132 -0.8839  0.9145  0.4719
  746MOL0     H  677   1.995   1.059   1.976  1.6499  1.9505  0.5569
  746MOL0     H  678   2.021   1.280   2.169  0.6822  1.2630 -0.5986
  746MOL0     H  679   2.143   1.145   2.185  1.4070  1.3124 -0.6011
  746MOL0     H  680   2.070   1.284   1.929 -0.1162  0.7264  0.5802
  746MOL0     H  681   2.216   1.187   1.963  0.5380  0.1183 -0.5813
  746MOL0     H  682   2.173   1.459   2.095 -1.2674 -1.6947 -2.1555
  746MOL0     H  683   2.276   1.416   1.955 -0.5452  0.2359 -0.8330
  746MOL0     H  684   2.314   1.264   2.222  1.0190  0.0010  0.0246
  746MOL0     H  685   2.429   1.282   2.090 -0.2879 -0.3614 -0.4211
  746MOL0     H  686   2.325   1.501   2.276  1.1844  0.0358  0.9383
  746MOL0     H  687   2.437   1.536   2.150 -0.3473  0.5474 -0.6330
  746MOL0     H  688   2.612   1.379   2.257 -0.3955  0.4242  0.1704
  746MOL0     H  689   2.572   1.528   2.350 -2.3239  2.0371 -1.4803
  746MOL0     H  690   1.542   1.085   1.799 -0.4477 -2.3493  0.9522
  746MOL0     H  691   1.317   1.049   1.852  0.1822 -1.2420  0.0082
  746MOL0     H  692   0.972   0.728   2.056  1.0795  1.1277  0.2819
  746MOL0     H  693   0.734   0.745   2.065  2.1916 -1.7487  0.3150
  746MOL0     H  694   0.092   0.495   2.262 -1.6170  0.4360 -1.0457
  746MOL0     H  695   0.345   0.461   2.300  2.1669 -2.7694 -0.9980
  746MOL0     H  696   0.743   0.502   2.235  1.6071  1.8767  0.3101
  746MOL0     H  697   0.974   0.458   2.263 -0.4614 -2.8878  1.7154
  746MOL0     H  698   1.167   0.319   2.285  1.6098  0.3808  1.5895
  746MOL0     H  699   1.230   0.474   2.213 -1.1414  0.7519 -4.2734
  746MOL0     H  700   1.415   0.370   2.107 -0.4989 -0.5785  0.1714
  746MOL0     H  701   1.341   0.220   2.117 -0.8173  0.5460 -0.7990
  746MOL0     H  702   1.392   0.214   2.362 -1.9599  0.4659 -1.9791
  746MOL0     H  703   1.451   0.374   2.352  1.2513  1.0010 -0.9766
  746MOL0     H  704   1.565   0.150   2.173 -2.1253  1.3811 -0.9724
  746MOL0     H  705   1.638   0.303   2.197  1.1716 -0.7443  1.0409
  746MOL0     H  706   1.805   0.100   2.506 -1.0518 -1.0640  0.2156
  746MOL0     H  707   1.017   0.280   1.885  3.0360  2.4073  1.6597
  746MOL0     H  708   0.682   0.188   1.815  1.3794 -0.5423 -0.5463
  746MOL0     H  709   0.679   0.356   1.776  0.1045 -0.1207 -0.7589
  746MOL0     H  710   0.824   0.251   1.739 -0.3392  1.1253 -2.2354
  747MOL0     O  711   4.265   6.131   6.512  0.0167  0.3771 -0.6093
  747MOL0     C  712   4.229   6.044   6.588 -0.3728  0.6618 -0.4182
  747MOL0     O  713   4.280   5.914   6.600  0.4888 -0.2285  0.5184
  747MOL0     C  714   4.398   5.879   6.539  0.1934  0.8912 -0.1882
  747MOL0     C  715   4.515   5.913   6.610  1.0665  0.1298 -0.5521
  747MOL0     C  716   4.641   5.897   6.559 -0.0543  0.0528  0.2319
  747MOL0     C  717   4.657   5.843   6.428 -0.1056  0.3185 -0.8735
  747MOL0     O  718   4.787   5.833   6.387 -0.1044  0.2779 -0.8482
  747MOL0     C  719   4.812   5.741   6.282  0.2773  0.3502 -0.6882
  747MOL0     C  720   4.960   5.725   6.246 -0.5744 -0.2216  0.6559
  747MOL0     C  721   5.026   5.678   6.376  0.6727  0.3179  0.2801
  747MOL0     C  722   5.181   5.700   6.369  0.8569  0.8613  0.3485
  747MOL0     C  723   5.236   5.823   6.448  0.6695 -0.1508  0.4881
  747MOL0     C  724   5.164   5.950   6.390  0.1959 -0.3170 -0.2212
  747MOL0     C  725   5.230   6.075   6.448 -0.0773  0.2310  0.1338
  747MOL0     C  726   5.194   6.107   6.592 -0.0297 -0.4057 -0.0788
  747MOL0     N  727   5.055   6.133   6.617 -0.3767  0.4841  0.3929
  747MOL0     C  728   4.983   6.219   6.549  0.2389 -0.8008  0.4187
  747MOL0     C  729   4.858   6.206   6.606  0.7084  0.0503 -0.2133
  747MOL0     C  730   4.728   6.269   6.565  0.0571  0.3517  0.8854
  747MOL0     C  731   4.637   6.284   6.692  0.3000  0.0210 -0.7242
  747MOL0     C  732   4.526   6.384   6.662 -0.6051 -0.2099  0.1257
  747MOL0     C  733   4.410   6.392   6.756 -0.4520  0.0574 -0.0016
  747MOL0     O  734   4.305   6.475   6.703 -0.0727  0.1300  0.6841
  747MOL0     C  735   4.182   6.483   6.761  0.4348 -0.7857  0.4515
  747MOL0     C  736   4.072   6.549   6.692 -0.3429 -0.5916  0.4323
  747MOL0     C  737   3.942   6.556   6.747 -0.4815 -0.0385  0.1360
  747MOL0     C  738   3.915   6.489   6.869 -0.1954 -0.8227 -0.0473
  747MOL0     C  739   3.774   6.483   6.919  0.1931  0.0834  0.7919
  747MOL0     O  740   3.698   6.589   6.890  0.5652 -0.1412  0.0333
  747MOL0     C  741   3.564   6.570   6.938  0.2469 -0.2233  0.2602
  747MOL0     C  742   3.534   6.580   7.074  0.6171 -0.1129  1.1951
  747MOL0     C  743   3.395   6.566   7.115  0.3037 -0.8325  0.1063
  747MOL0     C  744   3.299   6.561   7.014 -0.2747 -0.4416  0.9092
  747MOL0     O  745   3.165   6.550   7.044  0.1088 -0.9844 -0.3701
  747MOL0     C  746   3.111   6.614   7.166 -0.2278  0.6872  0.4338
  747MOL0     C  747   2.970   6.566   7.186 -0.0482 -0.4782  0.8779
  747MOL0     C  748   2.870   6.606   7.082  0.0555  0.4170  0.5835
  747MOL0     C  749   2.737   6.544   7.109  0.1471 -0.6535  0.2245
  747MOL0     C  750   2.629   6.559   7.004  0.6031 -0.2739  0.8513
  747MOL0     C  751   2.481   6.550   7.066 -0.2427  0.6505 -0.0245
  747MOL0     C  752   2.386   6.629   6.977  0.3035 -0.2238 -1.0504
  747MOL0     C  753   2.243   6.581   6.991  0.4173 -0.6194 -0.7701
  747MOL0    Cl  754   2.136   6.674   6.872 -0.3667 -0.1309 -0.1378
  747MOL0     C  755   3.339   6.562   6.881  0.5430 -0.9890  0.0637
  747MOL0     C  756   3.470   6.566   6.838 -0.3291 -0.4336 -0.3741
  747MOL0     O  757   3.741   6.382   6.984  0.0959  0.1062 -0.0332
  747MOL0     C  758   4.025   6.431   6.932  0.3683 -0.0224 -0.7407
  747MOL0     C  759   4.154   6.430   6.891  0.0544 -0.0142  0.2237
  747MOL0     N  760   4.871   6.119   6.716 -0.5087 -0.3948 -0.5658
  747MOL0     N  761   4.991   6.078   6.720 -0.0056  0.6323 -0.0600
  747MOL0     C  762   4.547   5.797   6.363  0.2064 -0.9549  0.3315
  747MOL0     C  763   4.414   5.816   6.415  0.1442  0.3684 -0.2564
  747MOL0     C  764   4.134   6.076   6.698  0.0071  0.5672  0.0990
  747MOL0     C  765   4.161   6.018   6.829  0.2366  0.7538  0.2960
  747MOL0     C  766   4.062   6.019   6.929 -1.1038 -0.5311  0.6806
  747MOL0     C  767   3.945   6.084   6.910  0.0304 -0.0076  1.0305
  747MOL0     O  768   3.852   6.098   7.008 -0.5199  0.2477  0.3088
  747MOL0     C  769   3.741   6.002   7.001 -0.0265 -0.2734 -0.2886
  747MOL0     C  770   3.775   5.851   7.019 -0.3735  1.2546 -0.0797
  747MOL0     C  771   3.855   5.824   7.147  0.0637  0.9769  0.0205
  747MOL0     C  772   3.774   5.875   7.269  0.7261 -0.1201  0.4273
  747MOL0     C  773   3.648   5.801   7.268 -0.9757 -0.1933 -0.6139
  747MOL0     C  774   3.545   5.749   7.262 -0.3111  0.7395 -1.4572
  747MOL0     C  775   3.911   6.129   6.780  0.0974  0.0132 -0.5729
  747MOL0     C  776   4.004   6.130   6.677 -0.2044  0.4303 -1.0500
  747MOL0     C  777   3.961   6.165   6.529  0.0455  0.0055 -0.4281
  747MOL0     H  778   4.490   5.948   6.710 -2.6522 -1.2320 -0.8417
  747MOL0     H  779   4.726   5.935   6.614 -1.0139  1.4061  0.8414
  747MOL0     H  780   4.771   5.643   6.308  0.4435  1.0218  2.4873
  747MOL0     H  781   4.761   5.780   6.193  4.9559  4.7586 -1.9125
  747MOL0     H  782   4.990   5.827   6.225  1.9391 -0.7662  1.3191
  747MOL0     H  783   4.977   5.657   6.162 -2.6555  1.0536 -0.9019
  747MOL0     H  784   5.017   5.569   6.377 -2.7770  0.3582 -3.4013
  747MOL0     H  785   4.979   5.719   6.467 -0.4546  1.6775 -0.8641
  747MOL0     H  786   5.233   5.610   6.404  1.5104  0.9708 -0.3257
  747MOL0     H  787   5.214   5.701   6.265 -1.5049 -0.1921 -0.4901
  747MOL0     H  788   5.211   5.807   6.553  0.8463 -0.2335  0.5176
  747MOL0     H  789   5.343   5.832   6.425 -0.0410  1.6795 -2.7399
  747MOL0     H  790   5.179   5.953   6.281 -0.6837  3.4482 -0.3585
  747MOL0     H  791   5.057   5.950   6.408  0.1511  1.8406 -0.2631
  747MOL0     H  792   5.200   6.164   6.393  1.6958  0.5911 -0.3173
  747MOL0     H  793   5.339   6.072   6.439  0.1881 -1.2595  2.7025
  747MOL0     H  794   5.229   6.024   6.654 -1.2208 -0.5988  0.3577
  747MOL0     H  795   5.252   6.194   6.624 -0.7139 -0.1741  0.5732
  747MOL0     H  796   5.015   6.286   6.469 -0.6710  2.0832  2.3150
  747MOL0     H  797   4.746   6.360   6.508  2.1413  1.1905  2.7068
  747MOL0     H  798   4.684   6.198   6.494  1.9571  0.3008 -0.3058
  747MOL0     H  799   4.599   6.186   6.723 -1.1076  1.3484  2.1427
  747MOL0     H  800   4.691   6.343   6.767 -2.2114  2.7654 -0.9008
  747MOL0     H  801   4.473   6.341   6.576  0.3074  1.5991 -1.4359
  747MOL0     H  802   4.560   6.483   6.630 -2.9980  0.4891 -0.4597
  747MOL0     H  803   4.450   6.428   6.851  2.5993 -2.1748 -0.2706
  747MOL0     H  804   4.369   6.292   6.774 -0.6166  0.3450  1.2960
  747MOL0     H  805   4.095   6.609   6.605  1.8016  0.2082  1.4964
  747MOL0     H  806   3.863   6.604   6.689 -1.7593 -0.3042  1.5754
  747MOL0     H  807   3.618   6.591   7.141  1.2017  0.2333  0.4152
  747MOL0     H  808   3.380   6.572   7.222  3.1127  0.4769  0.5274
  747MOL0     H  809   3.160   6.579   7.258  0.2621 -0.2655 -0.1699
  747MOL0     H  810   3.133   6.719   7.146 -2.8967  1.1811 -0.2962
  747MOL0     H  811   2.963   6.459   7.208 -0.5938 -0.6050  0.1244
  747MOL0     H  812   2.934   6.616   7.277 -0.7604  1.8169 -0.5820
  747MOL0     H  813   2.855   6.714   7.070 -2.6652  0.0507  0.0214
  747MOL0     H  814   2.905   6.568   6.986  0.5021  1.1093  0.4664
  747MOL0     H  815   2.685   6.585   7.196  0.6456 -0.4570  0.4321
  747MOL0     H  816   2.749   6.437   7.130  0.5440 -0.6478  0.0404
  747MOL0     H  817   2.649   6.482   6.929  1.2469 -0.2641  1.0014
  747MOL0     H  818   2.647   6.653   6.951 -0.4838  0.7382  2.2025
  747MOL0     H  819   2.450   6.445   7.073 -2.4228  1.1222 -1.5527
  747MOL0     H  820   2.480   6.598   7.164 -0.6243 -1.6926  1.1882
  747MOL0     H  821   2.416   6.634   6.871  0.7955  1.5480 -0.8605
  747MOL0     H  822   2.391   6.731   7.016 -1.2035  0.8034 -3.3441
  747MOL0     H  823   2.229   6.474   6.970 -1.0830 -0.0926 -2.7904
  747MOL0     H  824   2.216   6.609   7.093  0.7746  5.7689 -2.0363
  747MOL0     H  825   3.253   6.551   6.816 -1.2646 -0.3166  2.2119
  747MOL0     H  826   3.495   6.560   6.733 -0.6451 -0.7769 -0.4313
  747MOL0     H  827   3.994   6.364   7.011  1.4923 -0.6199 -0.7798
  747MOL0     H  828   4.229   6.374   6.946  0.9798  0.2291 -0.7493
  747MOL0     H  829   4.558   5.755   6.264 -0.3444  0.7087 -0.4761
  747MOL0     H  830   4.331   5.796   6.349 -0.5647 -0.3995  0.8340
  747MOL0     H  831   4.261   5.981   6.848  0.3199  0.6767 -0.2979
  747MOL0     H  832   4.077   5.979   7.028 -3.0575  1.1636  1.7506
  747MOL0     H  833   3.697   6.011   6.901  2.4534  0.9700 -1.3354
  747MOL0     H  834   3.664   6.023   7.075  2.5027  0.9745  2.1223
  747MOL0     H  835   3.829   5.823   6.928 -4.4168 -1.0986 -2.0658
  747MOL0     H  836   3.684   5.792   7.008  0.5328 -0.1443 -0.3053
  747MOL0     H  837   3.942   5.890   7.137 -1.2827  2.5958 -1.6245
  747MOL0     H  838   3.882   5.718   7.151  0.7071  1.1818  2.9853
  747MOL0     H  839   3.828   5.873   7.364  2.6658  0.2809 -0.6250
  747MOL0     H  840   3.756   5.982   7.263 -0.0746  0.1402  4.5862
  747MOL0     H  841   3.447   5.706   7.249 -0.2211  0.2899 -0.6794
  747MOL0     H  842   3.809   6.161   6.760 -0.4878 -0.1194  1.9247
  747MOL0     H  843   3.968   6.074   6.468 -0.5549  0.0695 -0.5995
  747MOL0     H  844   3.865   6.216   6.519  0.2249  0.0339 -2.4433
  747MOL0     H  845   4.030   6.240   6.488  0.7847  1.0805  2.5508
  748MOL0     O  846   0.975  10.601   6.410 -0.3066  0.3275 -0.2133
  748MOL0     C  847   0.966  10.497   6.478  0.2995 -0.1667 -0.1327
  748MOL0     O  848   1.061  10.450   6.551  0.6850 -0.0357  0.2788
  748MOL0     C  849   1.194  10.493   6.560 -0.2214  0.6427 -0.5205
  748MOL0     C  850   1.274  10.412   6.645 -0.5565 -0.0317  0.0958
  748MOL0     C  851   1.410  10.433   6.667 -0.2774 -0.2149 -0.4819
  748MOL0     C  852   1.471  10.547   6.608 -0.5237  0.0691  0.3486
  748MOL0     O  853   1.600  10.559   6.637 -0.5282 -0.3377 -0.3767
  748MOL0     C  854   1.680  10.647   6.556  0.0341 -0.0182  0.6077
  748MOL0     C  855   1.820  10.648   6.603  0.2338  0.3558 -0.4804
  748MOL0     C  856   1.906  10.747   6.532  0.0851  0.5506 -0.0136
  748MOL0     C  857   2.014  10.807   6.630  0.5734  0.2019  0.2704
  748MOL0     C  858   2.132  10.712   6.647 -0.5748 -0.2051 -0.0684
  748MOL0     C  859   2.219  10.764   6.759 -0.8296 -0.4801 -0.5994
  748MOL0     C  860   2.336  10.674   6.807  0.0901 -0.1519 -0.5913
  748MOL0     C  861   2.436  10.757   6.889  0.1393  0.4295  0.3387
  748MOL0     N  862   2.553  10.676   6.930 -0.4726  0.0566  0.4522
  748MOL0     C  863   2.582  10.638   7.055 -0.9501  0.3756  0.1270
  748MOL0     C  864   2.700  10.576   7.045 -0.9780 -0.2691  1.0713
  748MOL0     C  865   2.772  10.497   7.151  0.3000  0.0298 -0.6315
  748MOL0     C  866   2.729  10.351   7.160  0.2145  0.1040  1.3739
  748MOL0     C  867   2.790  10.280   7.284 -0.5186 -0.7432  0.4995
  748MOL0     C  868   2.924  10.209   7.246 -0.8914 -0.2767  0.2088
  748MOL0     O  869   3.010  10.319   7.214  0.5390  0.2147  0.3583
  748MOL0     C  870   3.144  10.306   7.192 -0.1913 -0.7230  0.3344
  748MOL0     C  871   3.212  10.184   7.196 -0.1620 -0.2608 -0.2121
  748MOL0     C  872   3.351  10.175   7.197 -0.6580 -0.0844 -0.1679
  748MOL0     C  873   3.427  10.290   7.185  0.1532 -0.6288 -0.8889
  748MOL0     C  874   3.571  10.281   7.205  0.3481  0.6455 -0.6849
  748MOL0     O  875   3.621  10.159   7.233  0.4713  0.5690 -0.3785
  748MOL0     C  876   3.758  10.150   7.217  0.3785  0.8365 -0.4637
  748MOL0     C  877   3.814  10.163   7.091 -0.6775 -0.8085 -0.9428
  748MOL0     C  878   3.938  10.116   7.074  0.1509  0.1963 -0.1648
  748MOL0     C  879   4.022  10.085   7.180 -0.2521 -0.1395  0.1674
  748MOL0     O  880   4.155  10.062   7.143  0.1336  0.2468  0.3535
  748MOL0     C  881   4.247  10.008   7.244  0.0535  0.1228 -0.4318
  748MOL0     C  882   4.288  10.122   7.343 -0.9561  0.4282  0.0750
  748MOL0     C  883   4.329  10.256   7.273 -0.2626  1.2125 -0.4101
  748MOL0     C  884   4.469  10.297   7.324 -0.8413 -0.0553 -0.3137
  748MOL0     C  885   4.542  10.390   7.229 -0.5682 -0.2332 -0.1657
  748MOL0     C  886   4.689  10.434   7.268 -0.3751  0.1808  0.4046
  748MOL0     C  887   4.742  10.553   7.192  0.2357  1.0109  0.9730
  748MOL0     C  888   4.799  10.495   7.057 -0.1962  0.3907  0.0541
  748MOL0    Cl  889   4.817  10.622   6.937 -0.0218  0.0543  0.0590
  748MOL0     C  890   3.963  10.075   7.311  0.0440 -0.0523  0.3949
  748MOL0     C  891   3.831  10.108   7.324 -0.5562 -0.1606  0.1768
  748MOL0     O  892   3.638  10.385   7.187 -1.1375  0.2136 -0.6556
  748MOL0     C  893   3.365  10.413   7.161 -0.6507 -0.5960  1.0102
  748MOL0     C  894   3.221  10.420   7.158 -0.1521 -0.0035 -0.6345
  748MOL0     N  895   2.734  10.572   6.909 -0.6843 -0.0476 -0.8270
  748MOL0     N  896   2.656  10.642   6.846  0.6589 -0.1784  0.4963
  748MOL0     C  897   1.399  10.618   6.515 -0.5416  0.1889  0.0950
  748MOL0     C  898   1.261  10.594   6.496 -0.5439 -0.5257 -0.5421
  748MOL0     C  899   0.843  10.413   6.480 -0.4419  0.1308  0.0097
  748MOL0     C  900   0.818  10.341   6.596 -0.1552 -0.6597 -0.3060
  748MOL0     C  901   0.702  10.270   6.614  0.0804 -1.1469  0.8509
  748MOL0     C  902   0.603  10.265   6.516  0.1699 -0.0207 -0.3295
  748MOL0     O  903   0.480  10.201   6.524  0.4814  0.0741  0.0585
  748MOL0     C  904   0.476  10.111   6.635 -0.2645  0.2495 -0.1066
  748MOL0     C  905   0.342  10.043   6.622  0.4209 -0.7195  0.1015
  748MOL0     C  906   0.314   9.938   6.731  0.3353  1.0934 -0.0721
  748MOL0     C  907   0.172   9.888   6.711  0.2098  0.0353  0.7410
  748MOL0     C  908   0.056   9.980   6.730  0.4068 -0.6012  0.6240
  748MOL0     C  909  -0.045  10.046   6.726  0.4585 -0.0108 -0.9197
  748MOL0     C  910   0.621  10.341   6.402  0.9769 -0.7992 -0.6301
  748MOL0     C  911   0.739  10.413   6.386  0.4295 -0.0130 -1.0233
  748MOL0     C  912   0.759  10.465   6.249  0.4750  0.8006  0.1205
  748MOL0     H  913   1.222  10.327   6.689  0.3873 -1.1700 -0.9109
  748MOL0     H  914   1.468  10.367   6.731  2.1285  2.8156  0.6731
  748MOL0     H  915   1.673  10.610   6.453  1.1705 -0.9944  0.8607
  748MOL0     H  916   1.653  10.753   6.550  1.7840  0.4754  0.8360
  748MOL0     H  917   1.862  10.547   6.599 -1.7314 -0.5497  0.4401
  748MOL0     H  918   1.810  10.668   6.710 -1.5239 -1.0378 -0.3450
  748MOL0     H  919   1.842  10.822   6.485 -1.0051  0.8385  1.8337
  748MOL0     H  920   1.950  10.681   6.457 -0.3563 -2.7495  2.3722
  748MOL0     H  921   2.062  10.897   6.591  1.6377 -1.3563 -2.2085
  748MOL0     H  922   1.976  10.829   6.731  1.1585 -0.5301  0.6562
  748MOL0     H  923   2.102  10.607   6.656 -2.8088  0.4943  1.0250
  748MOL0     H  924   2.191  10.707   6.554 -0.8388 -1.3576 -0.1972
  748MOL0     H  925   2.257  10.864   6.735  1.0494 -1.1883 -0.7539
  748MOL0     H  926   2.157  10.774   6.848  0.9216 -1.5457  0.8179
  748MOL0     H  927   2.389  10.633   6.720 -0.8482 -4.4127  0.6065
  748MOL0     H  928   2.297  10.590   6.865 -0.6617  0.2833 -0.4605
  748MOL0     H  929   2.477  10.836   6.825  0.3792  0.5190  0.5996
  748MOL0     H  930   2.373  10.810   6.960 -3.3834 -1.3719 -1.1952
  748MOL0     H  931   2.532  10.660   7.149  0.3622  4.3214  0.1069
  748MOL0     H  932   2.877  10.504   7.120  0.2819  0.3070 -0.6298
  748MOL0     H  933   2.761  10.549   7.246 -0.5078 -1.1207 -0.0675
  748MOL0     H  934   2.620  10.342   7.172 -0.3765 -2.1198 -3.2158
  748MOL0     H  935   2.765  10.299   7.071  0.1094  2.5315 -0.1857
  748MOL0     H  936   2.711  10.208   7.305 -0.7771 -0.0332  2.1178
  748MOL0     H  937   2.801  10.351   7.367  2.5030 -2.6632  1.9271
  748MOL0     H  938   2.905  10.141   7.163 -1.9381 -1.9829  1.7618
  748MOL0     H  939   2.976  10.156   7.326 -0.5269  1.3694  1.1254
  748MOL0     H  940   3.152  10.097   7.221  0.7495 -0.0445  3.3051
  748MOL0     H  941   3.404  10.082   7.213 -2.1783 -1.0498 -0.4659
  748MOL0     H  942   3.759  10.209   7.009 -3.8166 -0.6497  1.0450
  748MOL0     H  943   3.985  10.132   6.977  0.1207 -0.1752 -0.2399
  748MOL0     H  944   4.190   9.938   7.306  4.0632 -1.8879  1.3780
  748MOL0     H  945   4.333   9.960   7.194 -0.7835 -1.7055 -0.1975
  748MOL0     H  946   4.212  10.144   7.418 -0.3825 -0.2946  0.8826
  748MOL0     H  947   4.370  10.084   7.405 -0.3805 -1.0509 -1.5242
  748MOL0     H  948   4.324  10.245   7.164  1.9811 -1.1908 -0.3729
  748MOL0     H  949   4.255  10.329   7.307 -1.1003  1.0424 -1.8142
  748MOL0     H  950   4.538  10.216   7.350  0.3943  0.9653 -0.3008
  748MOL0     H  951   4.457  10.351   7.418 -0.7485  3.0966 -1.9973
  748MOL0     H  952   4.490  10.485   7.222 -0.7100 -0.3683 -1.0314
  748MOL0     H  953   4.546  10.344   7.129  0.8020  1.9732 -1.2058
  748MOL0     H  954   4.686  10.458   7.374 -0.1665 -1.8801  0.9226
  748MOL0     H  955   4.757  10.349   7.258 -1.2116 -0.3957 -0.6123
  748MOL0     H  956   4.816  10.612   7.248  0.8992  1.1239  0.0043
  748MOL0     H  957   4.659  10.611   7.151  0.4027 -1.8338 -4.3841
  748MOL0     H  958   4.893  10.447   7.085 -1.1386 -0.9485  1.0650
  748MOL0     H  959   4.738  10.417   7.011  1.0260  0.1471 -1.1848
  748MOL0     H  960   4.012  10.042   7.401 -1.4023 -1.5777  0.6696
  748MOL0     H  961   3.785  10.109   7.422 -1.4017  0.8541 -0.2133
  748MOL0     H  962   3.435  10.496   7.155 -2.5871  1.0169 -1.9723
  748MOL0     H  963   3.166  10.511   7.134 -0.7393  0.3395  1.7430
  748MOL0     H  964   1.435  10.705   6.462  0.2116 -0.1320  0.0765
  748MOL0     H  965   1.212  10.663   6.429  0.4126 -1.9140 -2.7639
  748MOL0     H  966   0.882  10.363   6.681  0.1087  0.0223 -0.6750
  748MOL0     H  967   0.686  10.224   6.711 -0.4280 -1.3975  0.6536
  748MOL0     H  968   0.476  10.165   6.730  0.1900  0.4843 -0.2363
  748MOL0     H  969   0.564  10.046   6.627  0.5693  1.5771 -2.5950
  748MOL0     H  970   0.342  10.007   6.519  2.9009 -0.1785 -0.1618
  748MOL0     H  971   0.269  10.124   6.625  0.9015 -0.2365 -0.7626
  748MOL0     H  972   0.321   9.976   6.833 -4.6068 -3.2467  2.3480
  748MOL0     H  973   0.385   9.857   6.715 -1.5826 -0.7377  0.3613
  748MOL0     H  974   0.165   9.855   6.607  0.8351  3.5882 -0.5703
  748MOL0     H  975   0.158   9.802   6.778 -0.7312  0.5612  1.2558
  748MOL0     H  976  -0.133  10.106   6.733 -0.3256 -1.2910  0.9626
  748MOL0     H  977   0.541  10.337   6.329  0.0651 -2.5241  0.3747
  748MOL0     H  978   0.755  10.574   6.256  0.6442  0.7682  0.8191
  748MOL0     H  979   0.864  10.454   6.220  0.9403  0.7776  1.7368
  748MOL0     H  980   0.684  10.426   6.179  0.1781  0.2844  0.7122
  749MOL0     O  981   8.279   7.023   7.142 -0.4598  0.6828  0.4045
  749MOL0     C  982   8.177   7.063   7.201  0.6904 -0.3129  0.0545
  749MOL0     O  983   8.174   7.126   7.323  0.2605  0.2608  0.1914
  749MOL0     C  984   8.287   7.173   7.383 -0.5987  0.0547  0.8426
  749MOL0     C  985   8.363   7.281   7.332  0.6646  0.0995  0.0971
  749MOL0     C  986   8.467   7.349   7.409 -0.5072 -0.0232  0.1451
  749MOL0     C  987   8.508   7.285   7.534  0.1995  0.4614  0.1854
  749MOL0     O  988   8.620   7.314   7.614  0.5148  0.1514  0.6919
  749MOL0     C  989   8.685   7.437   7.574 -0.2152  0.6601  0.7544
  749MOL0     C  990   8.809   7.447   7.657 -0.2090  0.0789 -0.3879
  749MOL0     C  991   8.918   7.366   7.586 -0.3554  0.3774 -0.5385
  749MOL0     C  992   9.046   7.371   7.679 -0.2977 -0.3023 -0.0190
  749MOL0     C  993   9.181   7.336   7.612 -1.0001  0.3418 -0.2123
  749MOL0     C  994   9.280   7.449   7.635 -1.4056 -0.2843  0.3052
  749MOL0     C  995   9.406   7.439   7.538  0.8336  0.4597 -1.1186
  749MOL0     C  996   9.500   7.555   7.563 -0.2931 -0.4767  0.3713
  749MOL0     N  997   9.478   7.665   7.468 -0.3899 -0.9683 -0.3409
  749MOL0     C  998   9.462   7.650   7.331 -0.7469  0.8271 -0.1721
  749MOL0     C  999   9.437   7.780   7.293  0.1133  0.4345 -0.7474
  749MOL0     C 1000   9.415   7.840   7.158  0.5003 -0.3065 -0.3128
  749MOL0     C 1001   9.552   7.856   7.085 -1.2392  0.5414  0.3943
  749MOL0     C 1002   9.542   7.958   6.969 -0.2682  0.3495  0.8211
  749MOL0     C 1003   9.688   7.991   6.927  0.4165 -0.1037  0.5340
  749MOL0     O 1004   9.756   7.886   6.851 -0.0417  0.3868 -0.8244
  749MOL0     C 1005   9.894   7.889   6.838 -0.4341 -0.8865 -0.6978
  749MOL0     C 1006   9.952   7.784   6.759 -1.2038 -0.4294 -0.3676
  749MOL0     C 1007  10.095   7.791   6.734 -0.1967 -0.1099 -0.8720
  749MOL0     C 1008  10.172   7.895   6.787 -0.1013  0.4271 -0.3962
  749MOL0     C 1009  10.322   7.891   6.765  0.7827 -0.4713  0.4038
  749MOL0     O 1010  10.388   7.992   6.827  0.6260 -0.2010  0.6434
  749MOL0     C 1011  10.523   7.999   6.809  1.2890  0.8557 -0.9937
  749MOL0     C 1012  10.610   7.934   6.901 -0.4681 -0.1049 -0.3651
  749MOL0     C 1013  10.747   7.955   6.892 -0.0188  0.3731  0.0154
  749MOL0     C 1014  10.792   8.051   6.794 -0.7225 -0.5578 -0.4571
  749MOL0     O 1015  10.921   8.082   6.801  0.2247 -0.2747  0.1863
  749MOL0     C 1016  10.981   8.193   6.733 -0.1703 -0.2034 -0.9901
  749MOL0     C 1017  11.085   8.255   6.825 -0.4456  0.1237  0.2092
  749MOL0     C 1018  11.023   8.323   6.951  0.2895  0.7394  0.7208
  749MOL0     C 1019  11.139   8.373   7.031  0.3567  0.0976 -0.0317
  749MOL0     C 1020  11.082   8.453   7.147  0.4454  0.4894  0.5212
  749MOL0     C 1021  11.191   8.493   7.245  0.6336 -0.3850  0.2880
  749MOL0     C 1022  11.141   8.590   7.354  0.5138  0.2505  0.1184
  749MOL0     C 1023  11.254   8.674   7.404  0.2434  0.9618  0.1143
  749MOL0    Cl 1024  11.371   8.576   7.503 -0.1643 -0.0405  0.1129
  749MOL0     C 1025  10.708   8.100   6.698 -0.1192 -1.3404 -0.0872
  749MOL0     C 1026  10.571   8.078   6.710 -0.1594  0.1715  0.6244
  749MOL0     O 1027  10.374   7.791   6.703 -0.9497  0.0226 -0.3884
  749MOL0     C 1028  10.109   7.997   6.866 -1.3434  0.8480  0.3877
  749MOL0     C 1029   9.969   7.993   6.890  0.4642 -0.4653  0.7164
  749MOL0     N 1030   9.437   7.860   7.408  1.1557 -0.2041 -0.3962
  749MOL0     N 1031   9.466   7.792   7.506 -0.0499  0.5198 -0.0153
  749MOL0     C 1032   8.432   7.180   7.582 -0.2371  0.7178  0.9971
  749MOL0     C 1033   8.324   7.128   7.504 -0.9338  0.3478 -0.1664
  749MOL0     C 1034   8.038   7.009   7.162 -0.3419  0.0147  1.1556
  749MOL0     C 1035   8.027   6.947   7.037 -0.0095  0.2048 -0.4774
  749MOL0     C 1036   7.910   6.892   6.990 -0.0050 -0.6015 -0.0926
  749MOL0     C 1037   7.797   6.881   7.076 -0.2821  0.8489 -0.3686
  749MOL0     O 1038   7.692   6.810   7.030  0.2870  0.0031  0.4322
  749MOL0     C 1039   7.565   6.819   7.095 -0.5692 -1.0133  0.2947
  749MOL0     C 1040   7.462   6.745   7.022  0.2113  0.5312 -0.3034
  749MOL0     C 1041   7.496   6.591   7.027 -0.6138 -0.5587  0.4131
  749MOL0     C 1042   7.389   6.524   6.944  0.3485 -0.7489 -0.2901
  749MOL0     C 1043   7.268   6.510   7.021  0.4885  0.6966 -0.0370
  749MOL0     C 1044   7.171   6.515   7.086 -0.0350 -0.2250 -0.2743
  749MOL0     C 1045   7.804   6.941   7.198 -0.3346  0.1700 -0.0508
  749MOL0     C 1046   7.920   7.010   7.240  0.6468 -0.3121 -0.6204
  749MOL0     C 1047   7.906   7.076   7.377 -0.0887  0.0189  0.0147
  749MOL0     H 1048   8.332   7.310   7.232  1.1842 -2.7618 -0.9823
  749MOL0     H 1049   8.513   7.439   7.369 -0.9767  0.5171  0.7848
  749MOL0     H 1050   8.713   7.450   7.469 -1.2538 -0.3899  0.3183
  749MOL0     H 1051   8.618   7.518   7.602 -3.3817 -0.8642 -1.7430
  749MOL0     H 1052   8.786   7.406   7.755 -0.8688  2.3298  0.4791
  749MOL0     H 1053   8.837   7.553   7.665 -3.8345  1.3184 -1.8216
  749MOL0     H 1054   8.948   7.401   7.487  1.3102  1.2021  0.2348
  749MOL0     H 1055   8.885   7.262   7.597 -1.7483  1.0580  2.7995
  749MOL0     H 1056   9.056   7.469   7.727 -1.7031 -0.0268 -0.2225
  749MOL0     H 1057   9.029   7.308   7.767  2.8400 -0.5693  0.5038
  749MOL0     H 1058   9.223   7.239   7.639 -2.0975  0.4377  2.1064
  749MOL0     H 1059   9.154   7.324   7.507 -3.0286 -0.1095  0.3247
  749MOL0     H 1060   9.235   7.547   7.619 -0.4743 -0.0259 -0.8461
  749MOL0     H 1061   9.315   7.458   7.738 -0.4674  2.5809 -0.1775
  749MOL0     H 1062   9.368   7.426   7.436  0.6004 -3.1554 -0.6966
  749MOL0     H 1063   9.461   7.346   7.558 -2.1511 -0.6954  3.0187
  749MOL0     H 1064   9.501   7.592   7.667 -0.5979  1.3573 -0.2387
  749MOL0     H 1065   9.600   7.522   7.536  0.2162  1.4258 -0.2283
  749MOL0     H 1066   9.466   7.558   7.274  0.9392 -0.3045  1.6365
  749MOL0     H 1067   9.351   7.770   7.105 -4.0422  1.6734  2.0139
  749MOL0     H 1068   9.358   7.930   7.184 -0.1131 -0.9765  0.7349
  749MOL0     H 1069   9.616   7.891   7.167 -2.3476  3.1376  0.2671
  749MOL0     H 1070   9.586   7.754   7.065  0.5586  0.7872  1.8654
  749MOL0     H 1071   9.486   8.050   6.989 -1.6802 -0.5914  1.3179
  749MOL0     H 1072   9.492   7.913   6.883  1.3825  1.0346 -0.5659
  749MOL0     H 1073   9.750   8.018   7.013  1.1101  3.7707 -0.9503
  749MOL0     H 1074   9.699   8.081   6.866 -0.6230  0.7994  1.6355
  749MOL0     H 1075   9.896   7.705   6.709  1.4634  0.2428 -5.0280
  749MOL0     H 1076  10.131   7.717   6.663 -0.3132 -0.3826 -0.6473
  749MOL0     H 1077  10.572   7.868   6.979  1.3962 -0.4875  0.2747
  749MOL0     H 1078  10.822   7.923   6.963  0.9429 -1.5692 -1.7776
  749MOL0     H 1079  11.030   8.160   6.641  0.9879  1.9602 -1.2210
  749MOL0     H 1080  10.912   8.276   6.712 -0.1271  0.7244  1.9880
  749MOL0     H 1081  11.163   8.184   6.852  0.0070 -0.5617 -2.6099
  749MOL0     H 1082  11.130   8.341   6.775 -0.2377 -0.0844  0.0346
  749MOL0     H 1083  10.956   8.397   6.906 -2.9268 -3.0390 -1.3759
  749MOL0     H 1084  10.955   8.256   7.005 -0.4304  0.2312 -0.7581
  749MOL0     H 1085  11.206   8.444   6.981  0.5283 -0.2092 -0.2389
  749MOL0     H 1086  11.192   8.284   7.067  0.8559  0.0631 -0.8408
  749MOL0     H 1087  11.004   8.399   7.201 -0.5407 -1.1771 -2.3699
  749MOL0     H 1088  11.040   8.543   7.102 -0.4625  0.5779  1.5090
  749MOL0     H 1089  11.216   8.396   7.290 -4.0322 -1.5016  1.0105
  749MOL0     H 1090  11.285   8.521   7.196  0.1524  1.1045  0.1752
  749MOL0     H 1091  11.114   8.514   7.428  0.4515 -3.2125 -3.2048
  749MOL0     H 1092  11.055   8.644   7.316 -0.1769 -0.4069  0.7101
  749MOL0     H 1093  11.301   8.734   7.325  1.3296 -1.0426 -0.8389
  749MOL0     H 1094  11.212   8.744   7.477 -0.1636 -2.8248  3.9496
  749MOL0     H 1095  10.738   8.158   6.611 -2.3194  0.2610  0.1304
  749MOL0     H 1096  10.514   8.120   6.628  0.3960  2.0279  1.1331
  749MOL0     H 1097  10.160   8.086   6.901 -0.1516  0.7902 -1.1504
  749MOL0     H 1098   9.924   8.075   6.945  0.7041  0.5449 -0.5600
  749MOL0     H 1099   8.464   7.126   7.671  1.2872 -0.4999 -0.2355
  749MOL0     H 1100   8.263   7.046   7.541  2.1085 -2.4972 -1.0044
  749MOL0     H 1101   8.102   6.935   6.959 -2.9116 -0.0721 -3.4976
  749MOL0     H 1102   7.904   6.841   6.894  0.5109  0.3292 -0.6288
  749MOL0     H 1103   7.539   6.924   7.110  0.7957 -0.9706  3.0733
  749MOL0     H 1104   7.573   6.766   7.190 -0.3289 -1.1422  0.2056
  749MOL0     H 1105   7.461   6.792   6.923  3.9394  1.5608 -0.0179
  749MOL0     H 1106   7.370   6.776   7.073 -1.0516 -2.7548 -0.3204
  749MOL0     H 1107   7.489   6.541   7.124 -0.6707 -2.2670 -0.4331
  749MOL0     H 1108   7.592   6.571   6.979 -0.6737  0.7809 -0.3309
  749MOL0     H 1109   7.375   6.574   6.848 -3.1823 -0.2587  0.3563
  749MOL0     H 1110   7.425   6.422   6.924 -0.8730 -1.6012  1.5512
  749MOL0     H 1111   7.086   6.507   7.150 -0.6836  1.5556 -0.8598
  749MOL0     H 1112   7.714   6.942   7.259  0.0201  1.8751  0.4677
  749MOL0     H 1113   7.806   7.057   7.416 -0.2141 -3.7022 -1.7171
  749MOL0     H 1114   7.983   7.033   7.442 -0.7549  0.4640  1.1275
  749MOL0     H 1115   7.933   7.178   7.351  0.4600 -0.6560 -2.2578
  750MOL0     O 1116   7.590   2.300   1.265  0.2642  0.3475  0.4426
  750MOL0     C 1117   7.529   2.366   1.188  1.2362  0.2468  0.6419
  750MOL0     O 1118   7.594   2.464   1.126 -0.2001 -0.3069 -0.3076
  750MOL0     C 1119   7.710   2.509   1.176  0.6698 -0.6616 -0.6739
  750MOL0     C 1120   7.824   2.427   1.141  0.6013 -0.0020 -0.5688
  750MOL0     C 1121   7.954   2.476   1.187  0.4852 -0.0292  1.0393
  750MOL0     C 1122   7.965   2.607   1.235  0.2469 -0.0682  0.4807
  750MOL0     O 1123   8.074   2.673   1.276 -0.2914 -0.5069 -0.5574
  750MOL0     C 1124   8.200   2.633   1.215  1.1118  0.7977 -0.1390
  750MOL0     C 1125   8.322   2.666   1.287 -0.0807  0.3445 -0.1958
  750MOL0     C 1126   8.335   2.818   1.321 -0.4048 -0.4487 -0.0940
  750MOL0     C 1127   8.471   2.850   1.392  0.5453 -0.6422 -0.4381
  750MOL0     C 1128   8.495   2.997   1.446  0.2383  0.5916  0.7971
  750MOL0     C 1129   8.643   3.021   1.471  0.3948  0.0301 -0.0671
  750MOL0     C 1130   8.704   2.930   1.575  0.0828  0.4026 -0.3871
  750MOL0     C 1131   8.841   2.970   1.618 -0.7009 -0.5079  0.4532
  750MOL0     N 1132   8.945   2.998   1.522 -0.4456 -0.1766  0.0300
  750MOL0     C 1133   9.048   3.096   1.538  0.5432  1.0610  1.0871
  750MOL0     C 1134   9.145   3.066   1.454 -0.1616  0.1417  0.3992
  750MOL0     C 1135   9.286   3.127   1.438  0.7383 -0.4111 -0.2411
  750MOL0     C 1136   9.354   3.130   1.576 -0.8135  0.3040  0.0020
  750MOL0     C 1137   9.494   3.175   1.561 -0.7308  0.3606  0.2713
  750MOL0     C 1138   9.593   3.065   1.527 -0.2651  0.3442 -0.4923
  750MOL0     O 1139   9.656   3.112   1.403  0.4665  0.3398  1.1289
  750MOL0     C 1140   9.792   3.107   1.386 -0.0582  0.2358 -0.3394
  750MOL0     C 1141   9.889   3.041   1.477 -0.7336  0.8434 -0.1946
  750MOL0     C 1142  10.022   3.045   1.442 -0.6870 -0.4007  0.3697
  750MOL0     C 1143  10.070   3.121   1.329  0.0448 -0.4676  0.7911
  750MOL0     C 1144  10.214   3.122   1.305  0.2961  0.0851  1.4143
  750MOL0     O 1145  10.294   3.042   1.391 -0.4489 -0.2258  0.8644
  750MOL0     C 1146  10.435   3.044   1.385  0.1637 -0.0173 -0.4615
  750MOL0     C 1147  10.517   3.155   1.330 -0.8031  0.6697 -0.9005
  750MOL0     C 1148  10.660   3.150   1.340  0.4276  0.3167 -0.1455
  750MOL0     C 1149  10.730   3.037   1.399 -0.3908  0.0653 -0.4397
  750MOL0     O 1150  10.867   3.027   1.411  1.5672 -0.1519  0.3663
  750MOL0     C 1151  10.945   3.133   1.362  0.8200  0.1996 -0.1941
  750MOL0     C 1152  11.087   3.113   1.410  0.0563 -0.0426  0.3144
  750MOL0     C 1153  11.165   3.241   1.366 -0.4146  0.5087 -1.4214
  750MOL0     C 1154  11.309   3.210   1.382  0.0541  0.3143 -0.4483
  750MOL0     C 1155  11.397   3.316   1.329 -0.4720  0.1252  0.1180
  750MOL0     C 1156  11.540   3.274   1.358 -0.4199  0.7892  0.1058
  750MOL0     C 1157  11.643   3.371   1.307  0.0760 -0.0811  0.4259
  750MOL0     C 1158  11.774   3.384   1.380 -0.0785  0.1198 -0.1477
  750MOL0    Cl 1159  11.756   3.412   1.560 -0.5061 -0.0443  0.0038
  750MOL0     C 1160  10.653   2.934   1.453  0.2849 -0.6742  0.7077
  750MOL0     C 1161  10.505   2.932   1.444  0.6579 -0.1500  0.8151
  750MOL0     O 1162  10.254   3.199   1.220  0.0157 -0.0797 -0.7802
  750MOL0     C 1163   9.975   3.176   1.244  0.8739  0.0390  0.0623
  750MOL0     C 1164   9.838   3.178   1.277 -0.2508  0.5334  0.7980
  750MOL0     N 1165   9.097   2.959   1.378 -0.0711 -0.2307 -0.6160
  750MOL0     N 1166   8.980   2.918   1.421 -0.4005  0.2899  0.1389
  750MOL0     C 1167   7.852   2.688   1.256 -0.3480 -0.9189 -0.5688
  750MOL0     C 1168   7.727   2.635   1.232 -0.5672 -0.1093  0.1508
  750MOL0     C 1169   7.391   2.328   1.148 -0.1720 -0.1844 -0.6530
  750MOL0     C 1170   7.341   2.391   1.037  0.3013  0.5109 -0.3227
  750MOL0     C 1171   7.209   2.362   0.997 -0.3540 -0.2053  0.1817
  750MOL0     C 1172   7.121   2.286   1.071  0.4410  0.0616  0.5463
  750MOL0     O 1173   6.995   2.278   1.018 -0.3843 -0.4266 -0.3916
  750MOL0     C 1174   6.911   2.180   1.081 -0.7130  0.2278 -0.3228
  750MOL0     C 1175   6.758   2.205   1.029  0.0900  0.5759  0.9326
  750MOL0     C 1176   6.674   2.090   1.078 -0.0404 -0.5304  0.1136
  750MOL0     C 1177   6.532   2.134   1.111 -0.0398 -0.4538 -1.0290
  750MOL0     C 1178   6.433   2.023   1.119 -0.3708  0.0430 -0.0020
  750MOL0     C 1179   6.353   1.928   1.128 -0.7239  0.2439  0.1110
  750MOL0     C 1180   7.171   2.224   1.182  0.9640 -0.5947  0.2316
  750MOL0     C 1181   7.304   2.238   1.221 -0.4346 -0.1573 -0.0895
  750MOL0     C 1182   7.350   2.158   1.335 -0.4100  0.0320 -0.5596
  750MOL0     H 1183   7.808   2.327   1.103 -1.6970 -0.5183  1.5114
  750MOL0     H 1184   8.039   2.414   1.164 -0.4692 -1.3976  1.0633
  750MOL0     H 1185   8.199   2.524   1.210  0.6161  0.3463  4.7603
  750MOL0     H 1186   8.196   2.670   1.112  0.9537 -0.0692 -0.4543
  750MOL0     H 1187   8.412   2.640   1.230 -0.8281 -3.7737  0.1655
  750MOL0     H 1188   8.321   2.614   1.384  1.7867  0.6078  0.0069
  750MOL0     H 1189   8.244   2.842   1.377  0.4873  0.1972  1.1205
  750MOL0     H 1190   8.340   2.869   1.224  1.8299 -1.0784 -0.3678
  750MOL0     H 1191   8.495   2.781   1.474 -1.8334 -1.0095  0.0075
  750MOL0     H 1192   8.545   2.833   1.312 -1.1432  2.0007 -2.7381
  750MOL0     H 1193   8.454   3.074   1.380 -1.0645  1.0340  2.0748
  750MOL0     H 1194   8.440   3.006   1.541  0.1516  2.2974  0.6174
  750MOL0     H 1195   8.696   3.008   1.376 -0.2334 -2.3043 -0.1676
  750MOL0     H 1196   8.662   3.126   1.496  0.2950 -0.4216  2.0418
  750MOL0     H 1197   8.695   2.826   1.543  0.4321  0.5156 -0.8722
  750MOL0     H 1198   8.651   2.942   1.669  2.3247  1.1959  0.8407
  750MOL0     H 1199   8.828   3.067   1.668 -0.2277  0.2535 -0.8704
  750MOL0     H 1200   8.887   2.896   1.685 -0.2125  0.4939  1.2509
  750MOL0     H 1201   9.051   3.173   1.614  1.7657  2.0964  0.0252
  750MOL0     H 1202   9.347   3.062   1.374 -0.5653 -0.4344 -1.5204
  750MOL0     H 1203   9.283   3.219   1.378  0.5219 -0.6429 -0.5927
  750MOL0     H 1204   9.303   3.199   1.644  0.5629  1.7704 -0.3880
  750MOL0     H 1205   9.346   3.032   1.625 -2.7030 -0.5135 -1.7972
  750MOL0     H 1206   9.537   3.225   1.648  0.8711  1.3874 -1.0493
  750MOL0     H 1207   9.497   3.250   1.481  1.3075 -0.6487 -0.6967
  750MOL0     H 1208   9.554   2.963   1.522 -0.7539  0.5727 -1.4133
  750MOL0     H 1209   9.667   3.065   1.608  2.2237 -1.6836 -2.5981
  750MOL0     H 1210   9.860   2.980   1.563  1.6049  0.6056  0.4983
  750MOL0     H 1211  10.092   3.001   1.512  0.5925  1.3013  0.2186
  750MOL0     H 1212  10.469   3.245   1.296 -1.6574  2.3541  3.9911
  750MOL0     H 1213  10.710   3.241   1.307 -0.6082 -0.0837 -3.1421
  750MOL0     H 1214  10.948   3.121   1.253  1.7781  2.2059 -0.4394
  750MOL0     H 1215  10.901   3.225   1.400 -3.5344 -2.2076  1.2227
  750MOL0     H 1216  11.093   3.086   1.516 -0.4453  1.3455  0.7068
  750MOL0     H 1217  11.124   3.022   1.361  0.3940  0.0802  0.3424
  750MOL0     H 1218  11.150   3.256   1.259 -2.7892 -0.1422 -1.2482
  750MOL0     H 1219  11.128   3.332   1.413  0.8922  0.4668 -0.2567
  750MOL0     H 1220  11.337   3.115   1.337 -3.2486 -1.5570  1.1432
  750MOL0     H 1221  11.335   3.200   1.488  2.2911  1.6766 -0.7806
  750MOL0     H 1222  11.381   3.409   1.385  0.6489 -0.0350  0.7256
  750MOL0     H 1223  11.379   3.330   1.222  2.3182  0.1665 -0.4031
  750MOL0     H 1224  11.555   3.245   1.463 -0.2713  0.8542  0.1028
  750MOL0     H 1225  11.555   3.180   1.305 -1.4856  0.1501  0.8803
  750MOL0     H 1226  11.599   3.471   1.308 -2.4861 -1.1355  1.2036
  750MOL0     H 1227  11.661   3.356   1.200 -2.3393  0.4852 -0.1136
  750MOL0     H 1228  11.839   3.297   1.366  0.4764  0.8738 -2.8221
  750MOL0     H 1229  11.828   3.467   1.336  0.3822 -0.6431 -1.0437
  750MOL0     H 1230  10.702   2.842   1.481  0.6796 -0.4844  0.6359
  750MOL0     H 1231  10.444   2.849   1.478 -0.7383  0.1082 -0.9217
  750MOL0     H 1232  10.004   3.223   1.150  0.2864  2.8575  1.1888
  750MOL0     H 1233   9.772   3.223   1.203  2.4706  1.0622 -1.4631
  750MOL0     H 1234   7.867   2.790   1.291  2.3356 -1.2287 -0.6039
  750MOL0     H 1235   7.634   2.683   1.260 -1.1743 -1.7925  1.1149
  750MOL0     H 1236   7.403   2.447   0.968  1.1058 -0.6636 -0.5812
  750MOL0     H 1237   7.177   2.415   0.907  0.1421  1.6698  1.0551
  750MOL0     H 1238   6.916   2.188   1.190 -1.3481 -2.1955 -0.0669
  750MOL0     H 1239   6.943   2.078   1.058 -2.3379 -0.2552 -0.5698
  750MOL0     H 1240   6.761   2.206   0.919  0.2206  3.0299  0.8983
  750MOL0     H 1241   6.719   2.304   1.054  0.1755  0.8433  0.0649
  750MOL0     H 1242   6.718   2.044   1.167  2.0367 -1.1484 -1.1536
  750MOL0     H 1243   6.683   2.011   1.002  0.3914 -1.1228  0.7644
  750MOL0     H 1244   6.525   2.198   1.200  2.2961  1.6430 -2.2236
  750MOL0     H 1245   6.502   2.196   1.027  0.9730 -0.5687 -1.4926
  750MOL0     H 1246   6.281   1.850   1.141 -0.1621 -0.0451  1.7158
  750MOL0     H 1247   7.108   2.166   1.249  0.0087 -1.1977 -1.1449
  750MOL0     H 1248   7.411   2.219   1.402  1.7809 -0.4311 -2.0288
  750MOL0     H 1249   7.259   2.123   1.385  1.3730 -1.4198  1.9082
  750MOL0     H 1250   7.410   2.071   1.308  1.5951  1.5952 -1.4142
  751MOL0     O 1251   8.775   8.488   4.836 -0.6877  0.5366  0.7575
  751MOL0     C 1252   8.825   8.372   4.819  1.5543  0.1592  0.2250
  751MOL0     O 1253   8.960   8.335   4.842  0.2346  0.3417 -0.2874
  751MOL0     C 1254   9.038   8.433   4.883 -0.1244  0.1026 -0.2881
  751MOL0     C 1255   9.142   8.471   4.794 -0.0889  0.1585  0.2130
  751MOL0     C 1256   9.232   8.567   4.834 -0.1207  0.1807 -0.4933
  751MOL0     C 1257   9.217   8.637   4.952 -0.6910 -0.9138  0.1783
  751MOL0     O 1258   9.288   8.737   5.009 -0.2488 -0.5617  0.5468
  751MOL0     C 1259   9.399   8.768   4.929  0.0722 -0.1680 -0.2248
  751MOL0     C 1260   9.459   8.904   4.970  0.2366  1.1221  0.5157
  751MOL0     C 1261   9.576   8.967   4.886  0.8582  0.2039 -0.8838
  751MOL0     C 1262   9.599   9.106   4.955  0.0550  0.6029 -0.0595
  751MOL0     C 1263   9.727   9.173   4.905  0.5064 -0.5223 -0.5211
  751MOL0     C 1264   9.851   9.094   4.951  0.1433  0.0181  0.6768
  751MOL0     C 1265   9.980   9.148   4.881 -0.4181  0.3629  0.6994
  751MOL0     C 1266  10.101   9.075   4.946 -0.0485  0.1542  0.1418
  751MOL0     N 1267  10.229   9.107   4.883  0.1074  0.0993  0.3772
  751MOL0     C 1268  10.282   9.038   4.778 -0.7395  0.0955  0.7823
  751MOL0     C 1269  10.385   9.109   4.727 -1.1851 -0.4237 -0.1998
  751MOL0     C 1270  10.465   9.074   4.595  0.5555  0.5805 -1.2788
  751MOL0     C 1271  10.611   9.030   4.622 -0.3455 -0.2659 -0.3122
  751MOL0     C 1272  10.704   9.013   4.501 -0.2702 -1.0937  0.8550
  751MOL0     C 1273  10.853   8.991   4.548 -0.2633  0.1894 -0.5047
  751MOL0     O 1274  10.941   8.981   4.436  0.0506  0.8396  0.0760
  751MOL0     C 1275  11.072   8.942   4.454  0.1817  0.9080  0.0588
  751MOL0     C 1276  11.131   8.913   4.581 -0.3100  0.1759  0.4098
  751MOL0     C 1277  11.260   8.864   4.593  0.4323  0.6308 -0.1455
  751MOL0     C 1278  11.342   8.861   4.474  0.5990  0.8827 -0.3326
  751MOL0     C 1279  11.481   8.809   4.479  0.0275  0.3605  0.2422
  751MOL0     O 1280  11.542   8.845   4.593  0.4418  0.9985  0.6922
  751MOL0     C 1281  11.672   8.808   4.613  0.2615  0.1836 -0.5606
  751MOL0     C 1282  11.778   8.808   4.511  0.2732  0.2245 -0.2671
  751MOL0     C 1283  11.908   8.761   4.541  0.1174 -0.4876  0.1056
  751MOL0     C 1284  11.939   8.734   4.674  0.9227 -0.2107  0.0500
  751MOL0     O 1285  12.068   8.686   4.693 -0.4682  0.0269  1.0637
  751MOL0     C 1286  12.142   8.737   4.803  0.4139  0.1958 -0.0152
  751MOL0     C 1287  12.295   8.722   4.800  1.3565 -0.1281  0.1322
  751MOL0     C 1288  12.349   8.760   4.660 -0.7515  0.1444 -0.4116
  751MOL0     C 1289  12.338   8.648   4.566  0.1490  0.4744  0.0931
  751MOL0     C 1290  12.462   8.638   4.475  1.2607 -0.4659 -0.3694
  751MOL0     C 1291  12.459   8.512   4.384 -0.1386 -0.0862 -0.6837
  751MOL0     C 1292  12.467   8.384   4.473  0.8066  0.4536 -0.3648
  751MOL0     C 1293  12.580   8.380   4.587 -0.0739 -0.6043  0.5101
  751MOL0    Cl 1294  12.741   8.340   4.509 -0.0567 -0.0923  0.2275
  751MOL0     C 1295  11.845   8.724   4.777  0.5798 -0.0005  0.4259
  751MOL0     C 1296  11.715   8.763   4.743  0.6704 -0.1149 -0.1296
  751MOL0     O 1297  11.526   8.738   4.391  0.0976  0.1615 -0.1161
  751MOL0     C 1298  11.281   8.881   4.351 -0.2298  0.3430 -0.5448
  751MOL0     C 1299  11.146   8.916   4.338  0.0343  0.5764  0.1814
  751MOL0     N 1300  10.402   9.221   4.809 -0.0557  0.2620  0.4812
  751MOL0     N 1301  10.312   9.220   4.904  0.7172  0.3736  0.1580
  751MOL0     C 1302   9.112   8.599   5.037  0.0958 -0.5651 -0.1592
  751MOL0     C 1303   9.023   8.499   5.004 -0.5831 -0.3662 -0.3733
  751MOL0     C 1304   8.732   8.259   4.775  0.3343 -0.0434  0.7701
  751MOL0     C 1305   8.790   8.134   4.772 -0.4477  0.1390 -0.3359
  751MOL0     C 1306   8.715   8.022   4.741 -0.5144  0.0991 -1.0428
  751MOL0     C 1307   8.581   8.034   4.696 -0.8321 -0.2590 -0.6603
  751MOL0     O 1308   8.496   7.931   4.664 -0.4337  0.1122 -0.0171
  751MOL0     C 1309   8.548   7.800   4.672  0.0581  1.0464 -0.3122
  751MOL0     C 1310   8.447   7.703   4.640 -0.3087  0.5743  0.5973
  751MOL0     C 1311   8.345   7.680   4.748 -0.3887 -0.1111 -0.8283
  751MOL0     C 1312   8.228   7.599   4.689  0.6965 -0.9574 -1.1125
  751MOL0     C 1313   8.121   7.584   4.797 -0.3332 -0.8446 -0.0540
  751MOL0     C 1314   8.042   7.569   4.888  0.5084  0.2270  0.0096
  751MOL0     C 1315   8.525   8.160   4.693  0.4807 -0.7233 -1.4740
  751MOL0     C 1316   8.593   8.279   4.734  0.0437  0.2610 -0.1034
  751MOL0     C 1317   8.518   8.411   4.711 -0.3606 -0.0776  0.5341
  751MOL0     H 1318   9.154   8.428   4.695 -2.8294 -0.8457  0.2280
  751MOL0     H 1319   9.318   8.582   4.769  2.4086 -0.0488  2.5852
  751MOL0     H 1320   9.487   8.703   4.934  1.2963  1.3508 -1.3153
  751MOL0     H 1321   9.364   8.784   4.827  1.0577  0.6433 -0.4498
  751MOL0     H 1322   9.492   8.889   5.073  0.7947  0.0932  0.1888
  751MOL0     H 1323   9.370   8.969   4.966 -1.3103 -0.9717 -1.5295
  751MOL0     H 1324   9.552   8.977   4.779  2.4376 -0.7330 -1.3585
  751MOL0     H 1325   9.660   8.898   4.895  1.5599  1.3587  2.7150
  751MOL0     H 1326   9.514   9.172   4.934 -1.5139 -1.7032 -1.3968
  751MOL0     H 1327   9.611   9.095   5.063 -0.5167 -0.1241 -0.0648
  751MOL0     H 1328   9.720   9.193   4.798 -0.6244 -2.5241 -0.8669
  751MOL0     H 1329   9.718   9.257   4.974 -0.0646 -1.2670  0.3408
  751MOL0     H 1330   9.855   9.089   5.060  1.3972 -3.7837  0.6109
  751MOL0     H 1331   9.839   8.987   4.931 -1.9897 -0.0039  1.7054
  751MOL0     H 1332   9.989   9.255   4.900  1.2500  0.1422  1.3258
  751MOL0     H 1333   9.977   9.121   4.775 -2.5009 -3.2045  1.4826
  751MOL0     H 1334  10.116   9.111   5.049  0.9204 -2.3872  0.9538
  751MOL0     H 1335  10.093   8.966   4.942 -2.1124  0.1551  1.9564
  751MOL0     H 1336  10.239   8.956   4.721  0.0709  0.8715 -1.0286
  751MOL0     H 1337  10.397   9.007   4.541 -2.3411 -0.0601  2.7110
  751MOL0     H 1338  10.468   9.172   4.548  0.2462  1.2020 -0.0475
  751MOL0     H 1339  10.655   9.096   4.697 -2.5504  0.1922  0.6388
  751MOL0     H 1340  10.615   8.940   4.683  1.6243 -0.2199 -0.3105
  751MOL0     H 1341  10.720   9.105   4.443  1.8772 -1.4211  0.8285
  751MOL0     H 1342  10.676   8.929   4.438  1.7207  1.4712 -3.9904
  751MOL0     H 1343  10.857   8.900   4.610 -1.6235 -1.3621 -2.5764
  751MOL0     H 1344  10.889   9.072   4.612 -0.2799 -0.2858  0.1220
  751MOL0     H 1345  11.079   8.923   4.676  1.6860 -2.8554  2.0059
  751MOL0     H 1346  11.303   8.846   4.691 -2.0134  3.7458  1.7202
  751MOL0     H 1347  11.746   8.828   4.409  2.1450  2.4123 -0.5250
  751MOL0     H 1348  11.981   8.751   4.461 -0.3313  0.6008 -0.4591
  751MOL0     H 1349  12.120   8.842   4.821  2.4904  0.8543 -0.9826
  751MOL0     H 1350  12.097   8.689   4.890  0.6717  3.5575  2.1486
  751MOL0     H 1351  12.339   8.779   4.883 -1.1204  0.7012  0.9550
  751MOL0     H 1352  12.322   8.618   4.820  0.0369 -0.5551 -0.2104
  751MOL0     H 1353  12.298   8.846   4.615  1.0465 -0.0415 -2.9770
  751MOL0     H 1354  12.454   8.775   4.687 -1.5595  0.8534  2.8043
  751MOL0     H 1355  12.248   8.662   4.506 -0.4491  2.2363  1.3220
  751MOL0     H 1356  12.325   8.561   4.632 -1.1019  0.5435 -0.0445
  751MOL0     H 1357  12.550   8.650   4.539  1.3920 -2.0950 -0.2009
  751MOL0     H 1358  12.447   8.730   4.418 -1.8197  0.4841  1.7396
  751MOL0     H 1359  12.368   8.507   4.324 -0.2076 -0.0390 -0.5835
  751MOL0     H 1360  12.540   8.526   4.313  1.3126  2.3167  1.2589
  751MOL0     H 1361  12.481   8.296   4.410 -0.7951 -0.7971  0.9395
  751MOL0     H 1362  12.371   8.374   4.525  2.0743  0.9235  2.2817
  751MOL0     H 1363  12.590   8.477   4.637 -2.4823  0.2664 -0.5226
  751MOL0     H 1364  12.556   8.306   4.664 -0.5400  2.2512  3.3245
  751MOL0     H 1365  11.879   8.691   4.875  1.4498  2.7792  1.1621
  751MOL0     H 1366  11.636   8.763   4.818 -0.8917  0.8361 -1.7254
  751MOL0     H 1367  11.329   8.862   4.256  0.1577  0.7984 -0.4475
  751MOL0     H 1368  11.091   8.925   4.244  1.0473 -2.0261 -0.7505
  751MOL0     H 1369   9.101   8.648   5.133 -3.5224  0.8995 -1.1284
  751MOL0     H 1370   8.927   8.482   5.053 -2.5475  0.0177 -3.7976
  751MOL0     H 1371   8.888   8.105   4.807 -0.8167 -0.0993  0.5177
  751MOL0     H 1372   8.752   7.921   4.751 -3.2625 -0.9141 -0.4500
  751MOL0     H 1373   8.586   7.768   4.769 -1.5765 -1.0830 -0.2932
  751MOL0     H 1374   8.629   7.785   4.600  1.5330 -0.4050  1.5434
  751MOL0     H 1375   8.501   7.607   4.637  1.5894  1.6107 -1.0727
  751MOL0     H 1376   8.404   7.725   4.542 -1.6259 -1.3161  0.6921
  751MOL0     H 1377   8.314   7.772   4.800 -2.6391 -0.8416 -0.7683
  751MOL0     H 1378   8.389   7.618   4.826 -1.2531  0.2881  0.0008
  751MOL0     H 1379   8.186   7.647   4.601 -0.1414  1.7570  0.6366
  751MOL0     H 1380   8.257   7.496   4.667  0.7512 -0.6019 -2.8162
  751MOL0     H 1381   7.961   7.568   4.958  0.0586  0.9513 -0.4922
  751MOL0     H 1382   8.423   8.180   4.662 -0.5091  0.6793  2.1948
  751MOL0     H 1383   8.481   8.447   4.807 -1.1947  1.0241 -0.1856
  751MOL0     H 1384   8.589   8.483   4.670  0.0788 -0.6064  0.3635
  751MOL0     H 1385   8.447   8.400   4.629  2.0431  3.2295 -2.2865
  752MOL0     O 1386   2.729   9.438   5.446  0.3081  0.1366  0.1900
  752MOL0     C 1387   2.742   9.391   5.337  0.1173 -0.3006  0.0838
  752MOL0     O 1388   2.860   9.368   5.264  0.1068  0.3310 -0.0655
  752MOL0     C 1389   2.973   9.360   5.325  0.4644 -0.5522 -0.1988
  752MOL0     C 1390   3.043   9.241   5.302 -0.2602 -0.9316  0.3606
  752MOL0     C 1391   3.166   9.219   5.362 -0.7064 -0.0215  0.1636
  752MOL0     C 1392   3.221   9.320   5.442 -0.3597 -0.1768  0.0313
  752MOL0     O 1393   3.343   9.299   5.506 -0.2647 -0.4679  0.2205
  752MOL0     C 1394   3.424   9.185   5.502 -0.3761  0.8504  0.3602
  752MOL0     C 1395   3.529   9.183   5.611 -0.1053 -0.5362 -0.0824
  752MOL0     C 1396   3.677   9.187   5.548  0.0442 -0.1845 -0.0644
  752MOL0     C 1397   3.777   9.208   5.665 -0.1413  0.5667 -0.0255
  752MOL0     C 1398   3.922   9.203   5.607 -0.8289  0.5439  0.6764
  752MOL0     C 1399   4.032   9.211   5.713 -0.5289 -0.5007 -0.4002
  752MOL0     C 1400   4.178   9.201   5.664  0.7376  0.0579 -0.2643
  752MOL0     C 1401   4.215   9.063   5.612 -0.1078  0.3097 -0.6032
  752MOL0     N 1402   4.363   9.046   5.575 -0.0808 -0.1269 -0.5230
  752MOL0     C 1403   4.464   9.017   5.662  0.2099  0.4145 -0.0755
  752MOL0     C 1404   4.566   8.972   5.586 -0.3238 -0.5049 -0.3469
  752MOL0     C 1405   4.691   8.912   5.630 -1.4442 -0.6850 -0.6070
  752MOL0     C 1406   4.798   9.023   5.661  0.6269  0.5125 -0.9284
  752MOL0     C 1407   4.941   8.974   5.701  0.7045 -0.3361  0.0117
  752MOL0     C 1408   5.032   9.091   5.721  0.2502  0.1188 -0.5266
  752MOL0     O 1409   5.161   9.033   5.751  0.2444  0.4576 -0.1842
  752MOL0     C 1410   5.275   9.110   5.717 -0.3345  0.1354 -0.2344
  752MOL0     C 1411   5.283   9.239   5.672 -0.3874 -0.8544  0.1235
  752MOL0     C 1412   5.407   9.292   5.646  0.1119  0.0310 -0.0747
  752MOL0     C 1413   5.523   9.228   5.680  0.3619 -0.4966  0.0228
  752MOL0     C 1414   5.650   9.284   5.660 -0.6387 -0.3565  0.3647
  752MOL0     O 1415   5.756   9.215   5.713  0.4052  0.4200  0.4183
  752MOL0     C 1416   5.879   9.262   5.682  0.3157  0.4740 -0.3128
  752MOL0     C 1417   5.945   9.204   5.574 -0.7600 -0.8499  0.5437
  752MOL0     C 1418   6.089   9.217   5.552  0.1351 -0.0949 -0.5730
  752MOL0     C 1419   6.156   9.306   5.634  0.0765  1.1278  0.3048
  752MOL0     O 1420   6.290   9.338   5.626 -0.0227  0.6331  0.2466
  752MOL0     C 1421   6.382   9.264   5.534 -0.4998  0.7475 -1.3653
  752MOL0     C 1422   6.511   9.335   5.512 -0.2362  0.0743 -0.2322
  752MOL0     C 1423   6.500   9.427   5.390  0.5977 -0.3896  0.8587
  752MOL0     C 1424   6.630   9.509   5.359  0.5760  1.0148  0.0287
  752MOL0     C 1425   6.662   9.612   5.460 -0.1354  0.3080  0.4338
  752MOL0     C 1426   6.819   9.630   5.472  0.2091 -0.6583 -0.0129
  752MOL0     C 1427   6.850   9.784   5.501 -0.1276 -0.3498  0.3543
  752MOL0     C 1428   6.998   9.803   5.505 -0.4304  0.1214 -0.3028
  752MOL0    Cl 1429   7.080   9.794   5.349  0.0802 -0.1880 -0.0742
  752MOL0     C 1430   6.087   9.372   5.740 -0.5531 -0.4274  0.0545
  752MOL0     C 1431   5.952   9.338   5.769 -0.3991 -0.4539 -0.0071
  752MOL0     O 1432   5.659   9.375   5.573  0.4659 -0.3427 -1.3524
  752MOL0     C 1433   5.518   9.090   5.726  0.1207 -0.0228 -0.2885
  752MOL0     C 1434   5.391   9.030   5.742 -0.0434  0.1200  0.6342
  752MOL0     N 1435   4.535   8.997   5.455 -0.3184  0.2771 -0.0865
  752MOL0     N 1436   4.412   9.050   5.450 -0.0279  0.1679  0.8036
  752MOL0     C 1437   3.145   9.435   5.474 -0.0596  0.1442 -1.2652
  752MOL0     C 1438   3.020   9.459   5.411 -1.2601  0.7560 -1.0472
  752MOL0     C 1439   2.619   9.365   5.253 -0.2656 -0.0698  0.7725
  752MOL0     C 1440   2.637   9.321   5.118 -0.6800 -0.7731  0.3339
  752MOL0     C 1441   2.533   9.305   5.023 -0.6904  0.0383 -0.4377
  752MOL0     C 1442   2.399   9.322   5.069 -0.3662 -0.5997  0.5762
  752MOL0     O 1443   2.291   9.295   4.991  0.6065  0.0961 -1.0724
  752MOL0     C 1444   2.260   9.160   4.951 -0.0263 -0.1738 -0.8493
  752MOL0     C 1445   2.180   9.102   5.070  0.0539 -0.5631  0.1887
  752MOL0     C 1446   2.058   9.188   5.075 -0.6094  0.0630 -0.5861
  752MOL0     C 1447   1.950   9.110   5.148  0.4081  1.0548 -0.2007
  752MOL0     C 1448   1.824   9.188   5.149 -1.1900 -0.8567  0.0023
  752MOL0     C 1449   1.712   9.240   5.151 -1.1220 -0.3595 -0.2800
  752MOL0     C 1450   2.375   9.361   5.204  0.2261  0.9589 -0.3276
  752MOL0     C 1451   2.481   9.385   5.290 -0.3145 -0.4839  0.7448
  752MOL0     C 1452   2.440   9.454   5.422 -0.3373 -0.5078 -0.5068
  752MOL0     H 1453   3.009   9.167   5.230 -1.5394  0.4503 -0.5214
  752MOL0     H 1454   3.207   9.121   5.336  1.1953  0.6113  0.6065
  752MOL0     H 1455   3.363   9.094   5.500  1.0735 -0.1495 -0.7043
  752MOL0     H 1456   3.471   9.186   5.403 -0.9133 -2.0182 -0.0197
  752MOL0     H 1457   3.521   9.083   5.653 -0.2870 -0.7135 -0.5459
  752MOL0     H 1458   3.501   9.259   5.685 -0.1998 -0.2241 -0.4378
  752MOL0     H 1459   3.686   9.268   5.474 -3.3155 -0.5061 -0.9731
  752MOL0     H 1460   3.713   9.096   5.499  0.1071 -1.2761  1.9051
  752MOL0     H 1461   3.751   9.300   5.719 -0.2764 -0.1854  1.2272
  752MOL0     H 1462   3.765   9.129   5.740  0.0929 -0.9950 -1.5842
  752MOL0     H 1463   3.934   9.109   5.552  1.1064  1.7083 -1.0032
  752MOL0     H 1464   3.940   9.278   5.530  2.1199 -2.9279 -2.4135
  752MOL0     H 1465   4.005   9.304   5.764 -1.0665 -1.2128  0.6696
  752MOL0     H 1466   4.028   9.128   5.785  1.5718 -0.1925  0.1394
  752MOL0     H 1467   4.251   9.241   5.735  2.8309 -1.2035 -1.5901
  752MOL0     H 1468   4.191   9.266   5.577  1.4110  1.3089  0.7353
  752MOL0     H 1469   4.190   8.983   5.683  4.1935 -1.2909 -0.5790
  752MOL0     H 1470   4.155   9.060   5.520 -0.7395  0.1332 -0.1918
  752MOL0     H 1471   4.460   9.017   5.770 -5.2568 -1.2783 -0.0073
  752MOL0     H 1472   4.664   8.854   5.719 -0.9898  0.1106  0.0644
  752MOL0     H 1473   4.737   8.841   5.562  0.7059 -2.4138  2.4143
  752MOL0     H 1474   4.805   9.082   5.568  2.7361 -0.6607 -1.5819
  752MOL0     H 1475   4.755   9.093   5.733 -1.1801 -2.6074  1.2434
  752MOL0     H 1476   4.959   8.901   5.621 -0.7517 -0.6302 -0.0859
  752MOL0     H 1477   4.948   8.921   5.797  0.4170 -1.8253 -0.7510
  752MOL0     H 1478   5.010   9.146   5.812  1.6292 -1.6876  0.9837
  752MOL0     H 1479   5.029   9.153   5.631  0.0430 -0.3146 -0.8188
  752MOL0     H 1480   5.201   9.306   5.647  1.0193 -0.3253 -3.9189
  752MOL0     H 1481   5.424   9.394   5.610  0.2360 -0.3112 -1.0147
  752MOL0     H 1482   5.903   9.121   5.520 -1.9525 -1.0416  1.7196
  752MOL0     H 1483   6.144   9.164   5.475  0.1065  0.2360 -0.8242
  752MOL0     H 1484   6.414   9.170   5.579 -0.1896  0.0769 -2.9086
  752MOL0     H 1485   6.331   9.243   5.439 -2.2713 -1.2888 -0.0459
  752MOL0     H 1486   6.524   9.398   5.600  0.0560 -1.1426  0.6231
  752MOL0     H 1487   6.595   9.265   5.505  0.4626  1.0609 -3.3037
  752MOL0     H 1488   6.498   9.371   5.296  0.5058  1.0705 -0.0388
  752MOL0     H 1489   6.412   9.492   5.392 -1.1021 -2.5748  0.3579
  752MOL0     H 1490   6.618   9.548   5.257  0.4057 -1.2851 -0.8973
  752MOL0     H 1491   6.711   9.436   5.358  0.5667  0.9684 -2.1010
  752MOL0     H 1492   6.628   9.582   5.560  2.4443 -2.7662  0.5588
  752MOL0     H 1493   6.606   9.704   5.440 -0.9928 -0.5677 -1.3869
  752MOL0     H 1494   6.859   9.569   5.554  0.5390  0.1824  0.4676
  752MOL0     H 1495   6.874   9.593   5.386  1.2398  1.4634 -0.3297
  752MOL0     H 1496   6.807   9.813   5.597 -0.4100 -0.9647  0.4136
  752MOL0     H 1497   6.826   9.848   5.415 -0.9975 -1.1460 -0.0131
  752MOL0     H 1498   7.012   9.906   5.540 -1.5907  0.7625 -1.6257
  752MOL0     H 1499   7.042   9.734   5.577  0.4972  2.3128  1.3488
  752MOL0     H 1500   6.146   9.437   5.803  0.3449 -1.3187  0.1483
  752MOL0     H 1501   5.892   9.382   5.847 -1.1103 -0.7526 -0.3813
  752MOL0     H 1502   5.602   9.022   5.740  1.2075  1.5830  1.5139
  752MOL0     H 1503   5.375   8.927   5.770 -2.2278 -0.0199 -0.8530
  752MOL0     H 1504   3.182   9.506   5.548  0.0656  1.0351 -2.1467
  752MOL0     H 1505   2.966   9.543   5.453 -0.5513  0.5783  0.2631
  752MOL0     H 1506   2.739   9.309   5.082 -1.1076  0.2553 -1.2846
  752MOL0     H 1507   2.559   9.300   4.918  0.2127 -0.5071 -0.2026
  752MOL0     H 1508   2.357   9.111   4.941  0.3273  0.3556 -0.0698
  752MOL0     H 1509   2.214   9.146   4.853 -0.5744  2.0172 -0.9458
  752MOL0     H 1510   2.232   9.116   5.165  1.9550 -0.6198 -0.7999
  752MOL0     H 1511   2.169   8.995   5.048  3.5415 -0.7542 -1.1933
  752MOL0     H 1512   2.017   9.211   4.976 -3.1540  1.5481  0.7222
  752MOL0     H 1513   2.083   9.282   5.124 -3.7960 -0.7853  3.1713
  752MOL0     H 1514   1.926   9.015   5.099 -1.1367  0.6016  1.3117
  752MOL0     H 1515   1.976   9.087   5.252  2.3110 -0.4668 -0.9480
  752MOL0     H 1516   1.625   9.303   5.157  0.1800  1.6532 -1.3016
  752MOL0     H 1517   2.273   9.381   5.236 -0.2902 -0.8274 -0.7581
  752MOL0     H 1518   2.334   9.478   5.434  0.0894  0.8722  0.8001
  752MOL0     H 1519   2.468   9.389   5.506  2.3964 -0.2609 -1.1414
  752MOL0     H 1520   2.497   9.546   5.434 -1.1052 -0.1723  0.7450
  753MOL0     O 1521   2.680  11.170   2.879 -0.0381  0.3022 -0.6280
  753MOL0     C 1522   2.671  11.290   2.883 -0.5955 -0.4132 -0.5623
  753MOL0     O 1523   2.563  11.360   2.937  0.0195 -0.0866 -0.4110
  753MOL0     C 1524   2.441  11.298   2.951  0.0603 -0.4622 -1.2411
  753MOL0     C 1525   2.395  11.201   2.856 -0.6410  0.3469  0.0076
  753MOL0     C 1526   2.270  11.144   2.870 -0.3863 -0.1197  0.5152
  753MOL0     C 1527   2.197  11.161   2.992  0.2070 -0.2719  0.8138
  753MOL0     O 1528   2.088  11.074   3.010 -0.5464  0.9749 -0.4241
  753MOL0     C 1529   1.975  11.092   3.104  0.0973 -0.1332  0.2348
  753MOL0     C 1530   1.856  11.017   3.048 -0.0726 -0.2751 -0.1768
  753MOL0     C 1531   1.732  11.058   3.140  0.0454 -0.1276 -0.3220
  753MOL0     C 1532   1.675  11.199   3.127 -1.0984 -0.2619  0.6833
  753MOL0     C 1533   1.549  11.201   3.209  0.1652  0.0403 -0.4351
  753MOL0     C 1534   1.457  11.308   3.172  0.2742  0.3359 -0.2722
  753MOL0     C 1535   1.510  11.445   3.160 -0.1698 -0.7669  0.5275
  753MOL0     C 1536   1.503  11.516   3.293  0.4235  0.3650  0.2548
  753MOL0     N 1537   1.530  11.664   3.285 -0.3389  1.0903  0.2291
  753MOL0     C 1538   1.650  11.723   3.314 -0.6038  0.5410  0.0382
  753MOL0     C 1539   1.624  11.857   3.311  0.2795  0.1505  0.0431
  753MOL0     C 1540   1.726  11.977   3.293 -0.0718  1.4039  0.2806
  753MOL0     C 1541   1.856  11.964   3.367 -0.1981 -0.1874 -0.4615
  753MOL0     C 1542   1.958  12.071   3.327 -0.1187  0.0357  0.4157
  753MOL0     C 1543   2.076  12.058   3.425 -0.1113 -0.1598  0.3467
  753MOL0     O 1544   2.185  12.145   3.390  0.3756 -0.2044 -0.0301
  753MOL0     C 1545   2.300  12.144   3.470 -0.4213  0.7800  0.4545
  753MOL0     C 1546   2.379  12.255   3.461 -0.6942  0.0742  0.2481
  753MOL0     C 1547   2.499  12.266   3.525 -0.8679 -0.7198 -0.1910
  753MOL0     C 1548   2.556  12.164   3.602 -0.0427  0.4274 -0.0264
  753MOL0     C 1549   2.694  12.170   3.649 -0.6364  0.8257  0.3352
  753MOL0     O 1550   2.777  12.251   3.579  0.4983 -0.7346 -0.4458
  753MOL0     C 1551   2.902  12.274   3.635 -0.4035  0.0864 -0.9481
  753MOL0     C 1552   2.962  12.401   3.614  0.5638 -0.1079 -1.3580
  753MOL0     C 1553   3.092  12.440   3.651  0.1720  0.3039  0.5369
  753MOL0     C 1554   3.171  12.348   3.717  0.4986  0.8323  0.1146
  753MOL0     O 1555   3.290  12.376   3.773 -0.7285  0.1685 -0.4505
  753MOL0     C 1556   3.368  12.489   3.729  0.3762  0.6377  0.5145
  753MOL0     C 1557   3.505  12.490   3.794 -0.5085  0.6318  0.6726
  753MOL0     C 1558   3.484  12.507   3.948  0.4141 -1.7055  0.0584
  753MOL0     C 1559   3.607  12.535   4.033  0.5511 -0.6039 -0.5676
  753MOL0     C 1560   3.569  12.630   4.140 -0.4097  0.8349  0.0253
  753MOL0     C 1561   3.696  12.679   4.208 -0.1063  0.7223 -0.1928
  753MOL0     C 1562   3.779  12.577   4.292  0.7294 -0.9026  0.3257
  753MOL0     C 1563   3.842  12.652   4.403 -0.2210  0.5325 -0.2242
  753MOL0    Cl 1564   3.935  12.552   4.517 -0.0628 -0.0657 -0.0420
  753MOL0     C 1565   3.122  12.216   3.743 -0.0771  1.0487  0.2702
  753MOL0     C 1566   2.991  12.182   3.700 -0.7644 -0.6380 -0.7861
  753MOL0     O 1567   2.724  12.094   3.740  0.4510 -0.3041 -0.5053
  753MOL0     C 1568   2.476  12.048   3.621  0.0503 -0.6918  0.4466
  753MOL0     C 1569   2.351  12.039   3.553  0.0839  0.1062  0.4028
  753MOL0     N 1570   1.492  11.877   3.277 -0.0706  0.5705 -0.1895
  753MOL0     N 1571   1.433  11.761   3.256 -0.3054 -0.5344  0.3843
  753MOL0     C 1572   2.240  11.261   3.083  0.7123  0.4503 -0.0766
  753MOL0     C 1573   2.359  11.326   3.061  0.0759 -0.3323  0.8894
  753MOL0     C 1574   2.783  11.375   2.827  0.2300 -0.4167  0.9957
  753MOL0     C 1575   2.763  11.517   2.821 -0.0993 -0.1738  0.7239
  753MOL0     C 1576   2.861  11.596   2.759 -0.5347  0.6146 -0.2222
  753MOL0     C 1577   2.972  11.541   2.707  0.1978 -0.7243  1.1417
  753MOL0     O 1578   3.062  11.630   2.643 -0.4229  0.0248  0.0875
  753MOL0     C 1579   3.189  11.623   2.707  0.0155  0.1783  0.2022
  753MOL0     C 1580   3.289  11.734   2.670  0.2016  0.2323 -0.5162
  753MOL0     C 1581   3.344  11.710   2.525  0.6085 -0.9132  0.8934
  753MOL0     C 1582   3.459  11.611   2.516  0.0122 -0.3483  0.6474
  753MOL0     C 1583   3.531  11.619   2.382  0.1242 -0.0996  0.2920
  753MOL0     C 1584   3.590  11.643   2.278 -0.2138 -0.6738  0.2196
  753MOL0     C 1585   2.988  11.401   2.715 -0.2247  0.7673 -0.4943
  753MOL0     C 1586   2.905  11.318   2.782 -0.2296 -0.2324  0.1694
  753MOL0     C 1587   2.938  11.173   2.773 -0.6304 -0.5837 -1.1081
  753MOL0     H 1588   2.458  11.177   2.772 -1.2799 -2.7852  0.2975
  753MOL0     H 1589   2.235  11.078   2.791  1.8444 -0.0739 -0.5623
  753MOL0     H 1590   2.000  11.073   3.209 -0.3194 -1.2593  0.1461
  753MOL0     H 1591   1.956  11.199   3.104 -3.8265 -0.6470 -1.1645
  753MOL0     H 1592   1.869  10.909   3.044  0.3939 -0.1967 -1.1352
  753MOL0     H 1593   1.845  11.054   2.945 -0.6656 -0.0921 -0.0481
  753MOL0     H 1594   1.757  11.045   3.246 -1.9118 -0.4220  0.1298
  753MOL0     H 1595   1.651  10.986   3.127 -1.0697  1.2206 -1.0954
  753MOL0     H 1596   1.753  11.267   3.162  0.9551 -2.7050  1.0980
  753MOL0     H 1597   1.641  11.233   3.028 -3.0343 -1.1766  0.9992
  753MOL0     H 1598   1.494  11.108   3.194 -0.3802  0.2327  0.3597
  753MOL0     H 1599   1.579  11.202   3.315  1.0852  2.2981 -0.6688
  753MOL0     H 1600   1.431  11.274   3.072  2.7874 -3.1313  0.0728
  753MOL0     H 1601   1.368  11.307   3.235  1.0632  0.4796  0.8866
  753MOL0     H 1602   1.445  11.498   3.091  1.8788 -1.8776 -2.4533
  753MOL0     H 1603   1.609  11.443   3.113 -0.2837 -1.6348  0.3116
  753MOL0     H 1604   1.403  11.502   3.334 -0.7821  0.5957 -2.4129
  753MOL0     H 1605   1.572  11.481   3.371  0.3377  2.2579  1.2650
  753MOL0     H 1606   1.738  11.664   3.336  1.0592  1.6933 -2.9886
  753MOL0     H 1607   1.756  11.984   3.189  1.6491  2.2592  0.8022
  753MOL0     H 1608   1.676  12.071   3.320  0.8136  1.9980 -0.1168
  753MOL0     H 1609   1.827  11.982   3.471  0.8401  0.2080 -0.2347
  753MOL0     H 1610   1.895  11.863   3.349  0.3075 -0.2879  1.0410
  753MOL0     H 1611   1.915  12.171   3.340 -0.3538  0.0313 -0.3221
  753MOL0     H 1612   1.995  12.049   3.227  0.2382  0.3797  0.4694
  753MOL0     H 1613   2.116  11.956   3.426 -0.5657 -0.3378  0.3325
  753MOL0     H 1614   2.044  12.067   3.529  0.0783 -0.2568  0.4140
  753MOL0     H 1615   2.356  12.335   3.391 -1.4612 -1.4446 -1.3047
  753MOL0     H 1616   2.561  12.352   3.504 -1.8847 -0.1764 -1.0687
  753MOL0     H 1617   2.899  12.479   3.573  0.6748  0.6495 -0.1064
  753MOL0     H 1618   3.131  12.536   3.620  1.8980 -0.5950 -0.2315
  753MOL0     H 1619   3.372  12.473   3.621  0.2212  2.6715  0.1749
  753MOL0     H 1620   3.316  12.583   3.751  0.4949  1.3512 -1.9978
  753MOL0     H 1621   3.561  12.402   3.761 -2.1051 -0.0840 -0.2282
  753MOL0     H 1622   3.562  12.577   3.758 -1.9284  1.0503 -0.6865
  753MOL0     H 1623   3.414  12.588   3.968  1.1330 -1.1514  0.3630
  753MOL0     H 1624   3.451  12.410   3.988 -1.7857  0.1486  3.1803
  753MOL0     H 1625   3.687  12.581   3.974  1.0428  1.1862  1.3391
  753MOL0     H 1626   3.643  12.443   4.080  1.8787  0.1597 -0.0149
  753MOL0     H 1627   3.511  12.573   4.214 -1.2844  1.0033 -0.5124
  753MOL0     H 1628   3.507  12.711   4.101 -1.7747 -0.7913 -1.3371
  753MOL0     H 1629   3.762  12.721   4.131  1.1796  0.7813  0.8988
  753MOL0     H 1630   3.662  12.762   4.271  0.2361 -0.4858  1.6741
  753MOL0     H 1631   3.853  12.539   4.221  0.3395  1.6051 -1.5454
  753MOL0     H 1632   3.716  12.491   4.320  0.9857 -0.5538  2.0598
  753MOL0     H 1633   3.913  12.725   4.363  0.6339 -0.0810  0.1619
  753MOL0     H 1634   3.765  12.707   4.457  0.6305  1.3834  0.1631
  753MOL0     H 1635   3.184  12.159   3.812 -1.8919 -0.0007  1.1061
  753MOL0     H 1636   2.972  12.075   3.702  3.2413 -1.4819 -0.0114
  753MOL0     H 1637   2.504  11.962   3.681  1.0111 -0.8345 -0.1948
  753MOL0     H 1638   2.286  11.954   3.573 -0.0741  0.0026 -0.4929
  753MOL0     H 1639   2.169  11.280   3.163  0.1422  0.1625 -0.5051
  753MOL0     H 1640   2.392  11.404   3.129 -1.2378  1.6142 -0.5509
  753MOL0     H 1641   2.676  11.568   2.862 -0.9084 -1.5618  0.8051
  753MOL0     H 1642   2.847  11.703   2.749 -1.7507  0.5813  0.9105
  753MOL0     H 1643   3.231  11.523   2.694 -0.3950 -0.1274  1.1280
  753MOL0     H 1644   3.167  11.619   2.814  0.7555 -0.6674  0.3291
  753MOL0     H 1645   3.367  11.733   2.747 -1.0442 -0.9347  0.8115
  753MOL0     H 1646   3.230  11.826   2.674 -3.2900 -1.7928 -1.1226
  753MOL0     H 1647   3.378  11.807   2.490 -0.8642 -0.3747  0.8608
  753MOL0     H 1648   3.257  11.678   2.467 -0.0487 -0.5634  1.6632
  753MOL0     H 1649   3.539  11.623   2.590 -2.3939 -1.1072  3.5670
  753MOL0     H 1650   3.418  11.512   2.536  1.7026 -0.5924  3.6065
  753MOL0     H 1651   3.649  11.675   2.195 -1.9163 -1.6740 -1.4438
  753MOL0     H 1652   3.073  11.367   2.657 -1.4437 -2.1067 -0.7519
  753MOL0     H 1653   2.866  11.118   2.710 -1.5339  0.5234 -1.0626
  753MOL0     H 1654   3.031  11.155   2.719  0.1550 -1.0294  0.3645
  753MOL0     H 1655   2.935  11.133   2.875 -0.9670 -0.1052 -0.9279
  754MOL0     O 1656   5.835   1.403   2.731 -0.2267 -0.3809  0.0974
  754MOL0     C 1657   5.762   1.304   2.744 -0.3738  0.0360 -0.0610
  754MOL0     O 1658   5.794   1.185   2.693  0.1933  0.1777 -0.4891
  754MOL0     C 1659   5.925   1.165   2.653 -0.4131  0.3548  0.1038
  754MOL0     C 1660   6.038   1.208   2.739  0.0262 -0.2519  0.1311
  754MOL0     C 1661   6.162   1.192   2.683 -0.2134 -0.6296  0.1138
  754MOL0     C 1662   6.187   1.125   2.565 -0.7706 -0.6708 -1.0150
  754MOL0     O 1663   6.320   1.106   2.528  0.2012 -0.2077 -0.0445
  754MOL0     C 1664   6.353   1.132   2.389  0.4979 -0.1183 -1.0333
  754MOL0     C 1665   6.507   1.139   2.374  0.4471 -0.0688 -0.6364
  754MOL0     C 1666   6.545   1.157   2.231 -0.0585  0.1026 -0.6663
  754MOL0     C 1667   6.680   1.229   2.215  0.1855 -1.4370  0.7561
  754MOL0     C 1668   6.706   1.258   2.067  0.3825  0.1725  0.4237
  754MOL0     C 1669   6.828   1.338   2.042  0.5007  0.1730  0.1459
  754MOL0     C 1670   6.811   1.477   2.097 -0.4381 -0.3485  0.3672
  754MOL0     C 1671   6.903   1.575   2.028  0.6063 -0.1939 -0.9317
  754MOL0     N 1672   6.862   1.713   2.041  0.5193 -0.5125  0.2885
  754MOL0     C 1673   6.865   1.786   2.154 -0.5134 -1.4792 -1.2013
  754MOL0     C 1674   6.827   1.914   2.121 -0.0389  0.3881 -0.0220
  754MOL0     C 1675   6.833   2.033   2.206  0.1868 -0.5979 -0.1255
  754MOL0     C 1676   6.932   2.143   2.151 -0.1838  0.9765  0.0076
  754MOL0     C 1677   7.071   2.093   2.171 -0.2809  0.1717  0.5991
  754MOL0     C 1678   7.173   2.210   2.159 -0.3635  0.3307 -0.2274
  754MOL0     O 1679   7.310   2.175   2.173 -0.6398 -0.2099  0.3237
  754MOL0     C 1680   7.399   2.268   2.210 -0.5416 -0.6307  0.4264
  754MOL0     C 1681   7.521   2.230   2.265  0.2321 -0.8952 -0.5805
  754MOL0     C 1682   7.606   2.329   2.321  0.3688 -0.0435  0.1907
  754MOL0     C 1683   7.575   2.464   2.320  0.3005  0.9809  0.2815
  754MOL0     C 1684   7.662   2.568   2.383  1.0729  0.5727 -1.0917
  754MOL0     O 1685   7.795   2.529   2.383 -0.8853  0.3217  0.2292
  754MOL0     C 1686   7.877   2.617   2.455 -0.5497  0.0758  0.7771
  754MOL0     C 1687   7.894   2.605   2.589 -0.3406  0.1978 -1.8519
  754MOL0     C 1688   7.973   2.690   2.668  0.7039 -0.4102 -0.1701
  754MOL0     C 1689   8.035   2.796   2.602  0.0243  0.1364 -0.6280
  754MOL0     O 1690   8.121   2.880   2.667 -0.2404  0.6591  0.1082
  754MOL0     C 1691   8.086   2.917   2.801 -0.1796  0.5723 -0.6731
  754MOL0     C 1692   8.186   3.018   2.856  0.5211 -0.2825 -0.5374
  754MOL0     C 1693   8.168   3.063   3.005 -0.5968  0.3775  0.8643
  754MOL0     C 1694   8.276   3.168   3.038  0.7308  0.2921  0.0415
  754MOL0     C 1695   8.301   3.193   3.180  0.2171 -0.0170  0.6124
  754MOL0     C 1696   8.394   3.320   3.202 -0.0018 -0.4527  1.2227
  754MOL0     C 1697   8.314   3.444   3.249  0.4841 -0.0613 -0.2227
  754MOL0     C 1698   8.422   3.564   3.278  0.0609 -0.2832 -0.6206
  754MOL0    Cl 1699   8.550   3.507   3.396 -0.2771  0.0466 -0.0086
  754MOL0     C 1700   8.025   2.811   2.461 -0.0851 -0.0582 -1.0978
  754MOL0     C 1701   7.948   2.720   2.391  0.5409 -0.5205  0.4093
  754MOL0     O 1702   7.616   2.666   2.439  0.9050 -0.5825  0.4979
  754MOL0     C 1703   7.451   2.504   2.256 -0.0238  0.3340 -0.3576
  754MOL0     C 1704   7.371   2.410   2.199 -0.1132 -0.0293  0.4907
  754MOL0     N 1705   6.795   1.910   1.984  0.3949 -0.0181 -0.2896
  754MOL0     N 1706   6.806   1.791   1.949  0.0673 -0.3676  0.4011
  754MOL0     C 1707   6.074   1.085   2.485 -0.4407  0.0781 -0.0026
  754MOL0     C 1708   5.945   1.107   2.526 -0.5032 -0.6935  0.5440
  754MOL0     C 1709   5.622   1.341   2.785 -0.5961  0.4632  0.1296
  754MOL0     C 1710   5.525   1.244   2.752  0.3341  0.3183 -0.5906
  754MOL0     C 1711   5.390   1.281   2.778  0.0459  0.4216  0.2127
  754MOL0     C 1712   5.350   1.399   2.835  1.0273 -0.7579  0.7444
  754MOL0     O 1713   5.219   1.419   2.865  0.2909  0.0178 -0.0657
  754MOL0     C 1714   5.160   1.541   2.823 -0.1282  0.3731 -0.0931
  754MOL0     C 1715   5.022   1.494   2.772 -0.7866 -0.0117 -0.4352
  754MOL0     C 1716   4.952   1.621   2.722  0.0793  0.1700 -0.5481
  754MOL0     C 1717   4.799   1.613   2.723 -0.3757  0.5284 -0.0492
  754MOL0     C 1718   4.728   1.728   2.682  0.5362 -0.0977 -0.2206
  754MOL0     C 1719   4.676   1.824   2.640  0.0372 -0.9791  0.5595
  754MOL0     C 1720   5.449   1.497   2.861 -0.1707  0.5208 -0.5971
  754MOL0     C 1721   5.582   1.463   2.846 -0.0430 -0.3180 -0.9335
  754MOL0     C 1722   5.681   1.558   2.900  0.8702 -0.1853  0.8304
  754MOL0     H 1723   6.024   1.264   2.831 -2.0894 -0.0973 -0.2389
  754MOL0     H 1724   6.251   1.237   2.725 -0.9338  1.9563 -0.9082
  754MOL0     H 1725   6.318   1.052   2.323 -1.1025 -2.3186  2.2413
  754MOL0     H 1726   6.300   1.221   2.353 -0.4679 -0.9247 -1.6705
  754MOL0     H 1727   6.557   1.047   2.404 -2.1722 -1.2769  0.2869
  754MOL0     H 1728   6.550   1.211   2.445  1.9221 -0.4079 -1.1375
  754MOL0     H 1729   6.459   1.216   2.199 -2.7124 -1.9036  2.1504
  754MOL0     H 1730   6.539   1.063   2.175 -1.5610 -0.7361  0.8148
  754MOL0     H 1731   6.680   1.323   2.271 -0.8848 -1.4937  0.8843
  754MOL0     H 1732   6.763   1.162   2.241  0.4825 -0.8965  1.2094
  754MOL0     H 1733   6.711   1.166   2.008 -0.6683 -1.5633  2.8460
  754MOL0     H 1734   6.616   1.316   2.043 -0.9831 -1.7562  0.6798
  754MOL0     H 1735   6.908   1.293   2.102 -0.4310 -0.0531  1.2456
  754MOL0     H 1736   6.858   1.328   1.937  0.4612  2.5405 -0.1566
  754MOL0     H 1737   6.828   1.469   2.205 -2.1890 -3.5148  0.5389
  754MOL0     H 1738   6.707   1.505   2.079 -0.1163  1.3494  0.9548
  754MOL0     H 1739   7.010   1.560   2.043  1.2523  2.1508 -2.6415
  754MOL0     H 1740   6.902   1.557   1.920  0.8247 -0.2370 -0.9258
  754MOL0     H 1741   6.904   1.747   2.247 -1.4024  2.3722  1.0338
  754MOL0     H 1742   6.732   2.076   2.209 -0.6772 -2.3686  4.0821
  754MOL0     H 1743   6.841   2.017   2.314 -1.7074  1.5040  0.3956
  754MOL0     H 1744   6.916   2.167   2.046 -1.5034 -0.1469 -0.0678
  754MOL0     H 1745   6.926   2.226   2.223  2.0327  0.0505  1.3716
  754MOL0     H 1746   7.106   2.008   2.111 -0.2417 -0.0731  0.9604
  754MOL0     H 1747   7.097   2.067   2.274 -1.9812 -0.1099  0.9923
  754MOL0     H 1748   7.138   2.277   2.238 -0.7081 -0.1426  0.0287
  754MOL0     H 1749   7.169   2.255   2.059 -1.4166  0.2676 -0.2230
  754MOL0     H 1750   7.550   2.125   2.267 -2.7818 -1.8206  0.0044
  754MOL0     H 1751   7.698   2.299   2.370  0.5739 -0.0636 -0.1947
  754MOL0     H 1752   7.844   2.520   2.636  1.8648 -0.1619  0.0481
  754MOL0     H 1753   7.988   2.685   2.776 -2.1465  0.8203  0.3851
  754MOL0     H 1754   7.986   2.961   2.792  0.9361  3.1143 -1.4614
  754MOL0     H 1755   8.092   2.841   2.879 -0.6168  2.0842  0.9084
  754MOL0     H 1756   8.283   2.970   2.840 -1.1442 -3.9178 -0.7234
  754MOL0     H 1757   8.177   3.112   2.801  0.9497  0.7807  1.1225
  754MOL0     H 1758   8.067   3.103   3.011 -0.3462  1.0471  0.8066
  754MOL0     H 1759   8.171   2.979   3.075  0.4015  0.4761  0.9556
  754MOL0     H 1760   8.242   3.258   2.986 -1.4419  0.5856  1.8064
  754MOL0     H 1761   8.372   3.136   2.995  0.2707  0.9852 -1.5886
  754MOL0     H 1762   8.364   3.109   3.213  0.8338  1.2799  3.0064
  754MOL0     H 1763   8.204   3.193   3.229 -2.3770  0.6634 -3.9675
  754MOL0     H 1764   8.473   3.300   3.274  1.1981 -0.7745 -0.1466
  754MOL0     H 1765   8.454   3.353   3.116 -0.8184 -0.3559  0.6685
  754MOL0     H 1766   8.257   3.436   3.342 -2.4349  1.1924 -1.7658
  754MOL0     H 1767   8.256   3.480   3.163  1.2796 -1.8688 -1.5835
  754MOL0     H 1768   8.474   3.602   3.190 -1.7613  0.2607 -1.5196
  754MOL0     H 1769   8.370   3.650   3.320  4.0220  1.6110  0.9380
  754MOL0     H 1770   8.080   2.891   2.412  3.4263 -1.4118  0.2481
  754MOL0     H 1771   7.930   2.732   2.285 -0.0447 -0.3519  0.5230
  754MOL0     H 1772   7.412   2.605   2.253  0.3028  0.5168  0.9616
  754MOL0     H 1773   7.277   2.440   2.153 -0.8801 -1.6122  0.9585
  754MOL0     H 1774   6.088   1.048   2.384 -0.5643  1.9965 -0.7647
  754MOL0     H 1775   5.854   1.075   2.475  0.6602 -2.3781 -0.5849
  754MOL0     H 1776   5.553   1.153   2.701  4.0334  0.8813  0.0960
  754MOL0     H 1777   5.307   1.215   2.755 -0.6611  2.1744 -2.7389
  754MOL0     H 1778   5.215   1.590   2.742 -1.8239  0.3537 -1.2997
  754MOL0     H 1779   5.140   1.608   2.908 -3.9886  1.8578 -1.9302
  754MOL0     H 1780   4.961   1.454   2.854  2.8085 -1.0409  1.9990
  754MOL0     H 1781   5.026   1.416   2.695 -1.2413  0.7426 -1.2301
  754MOL0     H 1782   4.980   1.650   2.620  0.6712  1.5783 -0.0087
  754MOL0     H 1783   4.975   1.708   2.785  1.9262  0.3573 -1.3939
  754MOL0     H 1784   4.771   1.530   2.658  0.6091  1.1241 -1.2795
  754MOL0     H 1785   4.756   1.604   2.824 -2.4912  0.1572 -0.9213
  754MOL0     H 1786   4.621   1.910   2.607  3.4463  0.7263 -1.2774
  754MOL0     H 1787   5.425   1.592   2.909  2.2987  1.5791 -1.2757
  754MOL0     H 1788   5.777   1.515   2.929  0.3998 -3.4535 -1.8662
  754MOL0     H 1789   5.710   1.627   2.820 -0.4989  0.0691  0.5269
  754MOL0     H 1790   5.648   1.622   2.982  0.4493  2.2482 -1.0975
  755MOL0     O 1791   5.822   6.438   3.881 -0.6127  0.3604  0.1470
  755MOL0     C 1792   5.789   6.436   3.998  0.3320 -0.1067  0.4547
  755MOL0     O 1793   5.873   6.439   4.107  0.3766 -0.0787 -0.1409
  755MOL0     C 1794   6.007   6.452   4.075 -0.4691  0.4158 -0.4742
  755MOL0     C 1795   6.078   6.345   4.015  0.2393  0.1000  0.4034
  755MOL0     C 1796   6.209   6.345   3.992  0.5474  0.0964  0.3276
  755MOL0     C 1797   6.278   6.466   4.014 -1.0094  0.4360 -0.5510
  755MOL0     O 1798   6.410   6.488   3.994 -0.6924 -0.1962  0.1568
  755MOL0     C 1799   6.503   6.404   3.930 -0.1187  0.1189 -0.1133
  755MOL0     C 1800   6.637   6.473   3.910  0.1463 -0.7873  0.2270
  755MOL0     C 1801   6.710   6.495   4.038 -0.4139 -0.3085  0.2944
  755MOL0     C 1802   6.853   6.548   4.030  0.3795  0.1090 -0.4183
  755MOL0     C 1803   6.955   6.448   3.997  0.3316  0.3188 -0.0532
  755MOL0     C 1804   7.089   6.501   4.035 -0.6361 -0.2064 -0.6330
  755MOL0     C 1805   7.146   6.581   3.914 -0.1683  0.3711  0.0657
  755MOL0     C 1806   7.249   6.681   3.969 -0.2869 -0.3735 -0.2780
  755MOL0     N 1807   7.383   6.619   3.996 -0.1003  0.0787 -0.3007
  755MOL0     C 1808   7.488   6.608   3.910 -0.2337 -0.1414  0.1133
  755MOL0     C 1809   7.590   6.548   3.980 -0.0298  0.2652  0.4348
  755MOL0     C 1810   7.729   6.515   3.944 -0.0964  0.7681  0.1123
  755MOL0     C 1811   7.831   6.602   4.009 -0.0246  0.0753 -0.0422
  755MOL0     C 1812   7.960   6.592   3.929  0.2931  0.7091 -0.8977
  755MOL0     C 1813   8.069   6.656   4.003  1.0913 -0.1566 -0.2479
  755MOL0     O 1814   8.197   6.654   3.939  0.1557  0.3971  0.0044
  755MOL0     C 1815   8.308   6.689   4.017 -0.0882 -0.2267  0.0404
  755MOL0     C 1816   8.331   6.727   4.150  0.5045  0.0783 -0.2038
  755MOL0     C 1817   8.449   6.780   4.195 -1.0062  0.3278 -0.9985
  755MOL0     C 1818   8.558   6.798   4.107  0.2334  0.0691 -0.7957
  755MOL0     C 1819   8.687   6.862   4.155 -0.1911  0.7921 -0.0483
  755MOL0     O 1820   8.782   6.903   4.067 -0.1123  0.2360 -0.9773
  755MOL0     C 1821   8.899   6.951   4.124 -0.1872 -0.6107 -0.8641
  755MOL0     C 1822   8.912   7.093   4.148  0.3661 -0.1748  0.6142
  755MOL0     C 1823   9.026   7.146   4.199 -0.5020 -0.5795 -0.3551
  755MOL0     C 1824   9.131   7.061   4.234  0.0582 -0.4674  0.1348
  755MOL0     O 1825   9.252   7.105   4.286  0.4067 -0.0013  0.6313
  755MOL0     C 1826   9.356   7.127   4.178 -0.3408 -0.6235 -0.2574
  755MOL0     C 1827   9.482   7.077   4.227 -0.5355  0.3677 -0.1982
  755MOL0     C 1828   9.603   7.155   4.151  0.5483  0.4351 -0.4629
  755MOL0     C 1829   9.610   7.115   4.000 -0.1867 -0.4844 -0.8828
  755MOL0     C 1830   9.560   7.239   3.915  0.7210  0.1826 -0.4496
  755MOL0     C 1831   9.570   7.221   3.762 -0.7664  0.1334  0.0536
  755MOL0     C 1832   9.717   7.229   3.727  0.2574  0.6254  0.3016
  755MOL0     C 1833   9.760   7.130   3.628 -0.4989  0.0291  0.1230
  755MOL0    Cl 1834   9.718   6.963   3.686  0.3127  0.3519  0.2089
  755MOL0     C 1835   9.116   6.923   4.228 -0.1986  0.8456  0.2436
  755MOL0     C 1836   9.000   6.863   4.176 -0.2545  0.1509  0.2446
  755MOL0     O 1837   8.699   6.867   4.275  0.3432 -0.3563 -0.6684
  755MOL0     C 1838   8.538   6.760   3.974  0.6095  0.3105  0.7912
  755MOL0     C 1839   8.417   6.707   3.927 -0.4994  0.3678  0.1681
  755MOL0     N 1840   7.541   6.521   4.103 -0.2606 -0.7049  0.0173
  755MOL0     N 1841   7.421   6.562   4.120 -0.1125  0.1933  1.0390
  755MOL0     C 1842   6.216   6.575   4.066  1.0738  0.7260  0.7520
  755MOL0     C 1843   6.082   6.567   4.098  0.3401 -0.2657  0.2081
  755MOL0     C 1844   5.657   6.398   4.023  0.7241 -0.2423  0.6139
  755MOL0     C 1845   5.636   6.291   4.111 -0.0881  0.0775 -0.5380
  755MOL0     C 1846   5.511   6.231   4.138 -0.4078 -0.5799  0.1481
  755MOL0     C 1847   5.396   6.270   4.072 -0.0879 -0.4777  0.7613
  755MOL0     O 1848   5.269   6.221   4.067  0.0851 -0.5054 -0.4200
  755MOL0     C 1849   5.235   6.144   4.183 -0.5671 -0.2882  0.0061
  755MOL0     C 1850   5.087   6.167   4.194  0.1383 -0.1124 -0.3795
  755MOL0     C 1851   5.018   6.060   4.268  0.7763  0.2577  0.3527
  755MOL0     C 1852   4.864   6.095   4.283  0.4694 -0.4073 -0.5611
  755MOL0     C 1853   4.782   5.979   4.272  0.1702 -0.0243  0.3409
  755MOL0     C 1854   4.720   5.872   4.279 -0.4784  0.0484 -0.6391
  755MOL0     C 1855   5.413   6.381   3.982 -0.2771  0.3166  0.4645
  755MOL0     C 1856   5.536   6.442   3.960  0.2677 -0.0635  0.3365
  755MOL0     C 1857   5.542   6.571   3.882  0.6345 -0.2334 -0.3638
  755MOL0     H 1858   6.019   6.259   3.983  0.6715  0.3468 -1.1481
  755MOL0     H 1859   6.267   6.264   3.948 -0.0055 -1.0658  1.6851
  755MOL0     H 1860   6.513   6.315   3.993  0.4497  0.0095 -0.3426
  755MOL0     H 1861   6.469   6.369   3.832  3.0003 -3.5108 -0.1476
  755MOL0     H 1862   6.611   6.568   3.861 -1.7782 -0.3548  1.9569
  755MOL0     H 1863   6.696   6.411   3.843 -1.2317 -0.3273 -1.5050
  755MOL0     H 1864   6.713   6.401   4.094  1.2886 -1.1048 -1.0447
  755MOL0     H 1865   6.651   6.568   4.094 -2.3633  0.1782 -2.2338
  755MOL0     H 1866   6.863   6.628   3.956  0.2630  2.0042  1.5392
  755MOL0     H 1867   6.881   6.592   4.126  4.0695  3.3816 -2.7189
  755MOL0     H 1868   6.929   6.354   4.045  3.9915 -0.4864  0.6861
  755MOL0     H 1869   6.952   6.430   3.889 -1.9483 -0.2555  0.0484
  755MOL0     H 1870   7.098   6.567   4.122 -1.9195 -1.4100  0.4669
  755MOL0     H 1871   7.161   6.420   4.039  0.6669  0.9581  1.0967
  755MOL0     H 1872   7.062   6.633   3.866 -1.3127 -1.0596  0.4234
  755MOL0     H 1873   7.187   6.509   3.843  1.6614  0.0034  1.4211
  755MOL0     H 1874   7.268   6.743   3.881  1.0476  0.4072  0.5250
  755MOL0     H 1875   7.213   6.740   4.054  0.9115 -0.3758  0.2461
  755MOL0     H 1876   7.490   6.641   3.807 -1.8131  0.6846  0.3217
  755MOL0     H 1877   7.752   6.415   3.983  0.5179  1.2274  0.9627
  755MOL0     H 1878   7.741   6.521   3.836  0.6489 -1.4899  0.0114
  755MOL0     H 1879   7.798   6.707   4.016 -2.1170 -0.6135  1.2668
  755MOL0     H 1880   7.841   6.581   4.116  0.6971  2.9262  0.5610
  755MOL0     H 1881   7.965   6.629   3.826  1.1977 -2.3405 -2.0452
  755MOL0     H 1882   7.976   6.484   3.922  2.3684  0.9708 -1.0375
  755MOL0     H 1883   8.079   6.607   4.101  1.0136  1.6925  0.7308
  755MOL0     H 1884   8.036   6.758   4.027 -0.6704 -0.6121 -0.6043
  755MOL0     H 1885   8.249   6.724   4.222  1.8108  2.6931  1.5384
  755MOL0     H 1886   8.471   6.802   4.299  1.1846 -2.1989 -0.8078
  755MOL0     H 1887   8.831   7.161   4.123  1.8949  1.9141  1.0436
  755MOL0     H 1888   9.045   7.250   4.225 -0.9088 -0.6175  0.0875
  755MOL0     H 1889   9.333   7.077   4.083 -2.8989  2.6509 -1.5633
  755MOL0     H 1890   9.364   7.234   4.156 -2.1770  0.2879  2.8933
  755MOL0     H 1891   9.492   7.095   4.335  0.7558 -2.3022  0.1989
  755MOL0     H 1892   9.489   6.969   4.213 -1.6925  0.4465 -1.5738
  755MOL0     H 1893   9.599   7.264   4.158  1.9318  0.6311 -2.1518
  755MOL0     H 1894   9.694   7.115   4.196 -0.7959 -1.1209  1.0244
  755MOL0     H 1895   9.546   7.027   3.986  0.9804 -1.3446 -0.9772
  755MOL0     H 1896   9.716   7.094   3.988  1.1451  2.3880  3.4852
  755MOL0     H 1897   9.624   7.324   3.939  0.8903 -0.5619  1.9315
  755MOL0     H 1898   9.464   7.274   3.953  2.4710  3.0116  1.7893
  755MOL0     H 1899   9.520   7.129   3.729  1.8702  0.0852 -4.6653
  755MOL0     H 1900   9.516   7.303   3.715  0.9783  2.5486  2.0307
  755MOL0     H 1901   9.782   7.229   3.815  3.2259  0.2638 -1.7575
  755MOL0     H 1902   9.734   7.322   3.672 -0.2011  1.0434  0.8537
  755MOL0     H 1903   9.720   7.142   3.527  2.6003 -1.0796 -1.3542
  755MOL0     H 1904   9.868   7.136   3.615 -0.2416 -1.1978  1.4373
  755MOL0     H 1905   9.185   6.859   4.284  1.1714  1.2335 -0.9497
  755MOL0     H 1906   8.979   6.757   4.184 -0.0596  0.1778  1.2496
  755MOL0     H 1907   8.621   6.774   3.905  0.2749 -1.3637  0.0045
  755MOL0     H 1908   8.417   6.692   3.819  0.3537  1.4338  0.0030
  755MOL0     H 1909   6.268   6.666   4.092  2.9815 -0.3306  0.7689
  755MOL0     H 1910   6.041   6.653   4.149  1.2461 -0.8004  1.9394
  755MOL0     H 1911   5.719   6.237   4.157  1.0066  0.6858 -1.7443
  755MOL0     H 1912   5.505   6.143   4.200 -0.7683  0.4720  1.6638
  755MOL0     H 1913   5.285   6.162   4.278 -0.8314 -1.8983  0.4736
  755MOL0     H 1914   5.250   6.039   4.157 -2.9672 -0.2606 -1.8101
  755MOL0     H 1915   5.048   6.167   4.092 -0.6767 -1.6899 -0.0953
  755MOL0     H 1916   5.070   6.266   4.238  3.9920  1.0816 -1.1954
  755MOL0     H 1917   5.063   6.050   4.367  1.7192 -1.9903 -0.2339
  755MOL0     H 1918   5.032   5.971   4.207 -0.4425  1.2856 -1.5191
  755MOL0     H 1919   4.847   6.123   4.388  0.1462 -0.1294 -0.6856
  755MOL0     H 1920   4.838   6.183   4.224 -0.1658 -0.0270  0.2669
  755MOL0     H 1921   4.661   5.785   4.298  0.2913 -0.4177 -0.3824
  755MOL0     H 1922   5.327   6.415   3.926 -0.0719 -1.2008 -0.8445
  755MOL0     H 1923   5.476   6.562   3.794 -1.8614  3.7814  0.8194
  755MOL0     H 1924   5.492   6.650   3.939  3.0253  1.0319  0.0929
  755MOL0     H 1925   5.644   6.608   3.876  0.4678  1.1504  3.0263
  756MOL0     O 1926   6.036   6.315  10.793  0.2199  0.2508 -0.0110
  756MOL0     C 1927   6.013   6.432  10.784  0.0336 -0.3217 -0.7602
  756MOL0     O 1928   5.901   6.486  10.729 -0.1319 -0.4378  0.1328
  756MOL0     C 1929   5.779   6.418  10.728 -0.2596 -0.2659  0.6025
  756MOL0     C 1930   5.718   6.368  10.840  0.2022 -0.2263 -0.0385
  756MOL0     C 1931   5.594   6.299  10.824 -0.5923 -0.6121  0.1490
  756MOL0     C 1932   5.528   6.293  10.700 -0.7702 -0.3161  0.2398
  756MOL0     O 1933   5.417   6.214  10.693  0.5372  0.2369 -0.1386
  756MOL0     C 1934   5.296   6.281  10.653  0.5827  0.1748 -0.3826
  756MOL0     C 1935   5.162   6.207  10.688  0.0419  0.7975  0.3541
  756MOL0     C 1936   5.049   6.302  10.692  1.2470 -0.8927 -0.1729
  756MOL0     C 1937   4.915   6.226  10.726 -0.2361 -0.2717  0.6631
  756MOL0     C 1938   4.783   6.319  10.723 -0.8635  0.0454 -0.4026
  756MOL0     C 1939   4.801   6.453  10.795 -0.0750 -0.7464  0.3881
  756MOL0     C 1940   4.815   6.444  10.941 -0.5234 -0.0290 -0.9069
  756MOL0     C 1941   4.887   6.569  10.992  0.2349  0.5283  0.2798
  756MOL0     N 1942   5.024   6.578  10.950  0.3523 -0.6984  0.4612
  756MOL0     C 1943   5.134   6.520  11.001 -0.9457  0.4959 -0.3102
  756MOL0     C 1944   5.242   6.576  10.943 -1.2428 -0.5959 -0.4087
  756MOL0     C 1945   5.377   6.524  10.956  0.2227 -0.4646  0.5229
  756MOL0     C 1946   5.476   6.567  11.069 -0.3329  0.4112 -0.4205
  756MOL0     C 1947   5.476   6.715  11.092 -0.4891  0.1537 -0.2400
  756MOL0     C 1948   5.576   6.755  11.201 -0.4623 -0.6819  0.2202
  756MOL0     O 1949   5.712   6.754  11.141 -0.3718 -0.4260 -0.2439
  756MOL0     C 1950   5.810   6.750  11.227 -0.8306 -0.4764 -0.2132
  756MOL0     C 1951   5.926   6.684  11.173  0.3511  0.3373  0.1531
  756MOL0     C 1952   6.035   6.668  11.248  0.0051  0.8117  0.5160
  756MOL0     C 1953   6.046   6.707  11.379 -0.5709  0.3123 -0.2214
  756MOL0     C 1954   6.163   6.683  11.458  0.2317  0.9850  0.3726
  756MOL0     O 1955   6.277   6.630  11.396 -0.3233 -0.4194 -0.4976
  756MOL0     C 1956   6.407   6.647  11.440 -0.1165 -0.3484 -0.7445
  756MOL0     C 1957   6.501   6.550  11.392 -0.6542  0.0132 -0.6070
  756MOL0     C 1958   6.637   6.563  11.423  0.4700 -0.4351 -0.9899
  756MOL0     C 1959   6.672   6.682  11.502 -1.2449 -0.1398  0.2632
  756MOL0     O 1960   6.796   6.706  11.560 -0.4392 -0.0297  0.5585
  756MOL0     C 1961   6.904   6.634  11.507 -0.5523  0.5871  0.0128
  756MOL0     C 1962   7.035   6.690  11.546 -0.2398 -0.3099 -0.4450
  756MOL0     C 1963   7.143   6.600  11.493 -0.7866 -1.0060 -0.6535
  756MOL0     C 1964   7.287   6.638  11.545 -0.2962 -0.3003  0.2495
  756MOL0     C 1965   7.385   6.519  11.529 -0.2546  0.4037 -0.0253
  756MOL0     C 1966   7.389   6.435  11.648 -0.5414  0.2657 -0.5193
  756MOL0     C 1967   7.474   6.307  11.635 -0.1403 -0.7358 -0.1042
  756MOL0     C 1968   7.388   6.192  11.579 -0.0487 -1.2792  1.4417
  756MOL0    Cl 1969   7.497   6.058  11.527 -0.2277  0.1628 -0.0733
  756MOL0     C 1970   6.578   6.765  11.555  0.2013  0.7903 -0.3098
  756MOL0     C 1971   6.447   6.745  11.528  0.4419  0.4327  0.4832
  756MOL0     O 1972   6.157   6.712  11.573 -0.2531 -0.3652 -0.8337
  756MOL0     C 1973   5.933   6.772  11.434 -0.3258  0.2531  0.2404
  756MOL0     C 1974   5.823   6.803  11.359  0.4722  0.6446 -0.7661
  756MOL0     N 1975   5.197   6.676  10.860  0.0383 -0.2868 -0.0152
  756MOL0     N 1976   5.068   6.675  10.859  0.0152  0.3688  0.8260
  756MOL0     C 1977   5.590   6.345  10.588 -0.0721  0.3876  1.4576
  756MOL0     C 1978   5.721   6.407  10.595  0.7768  0.0818 -0.0487
  756MOL0     C 1979   6.118   6.537  10.824  0.0257  0.1811 -0.2826
  756MOL0     C 1980   6.118   6.665  10.764 -0.0424 -0.0596 -0.2540
  756MOL0     C 1981   6.211   6.756  10.810  0.3601  0.6904  0.3277
  756MOL0     C 1982   6.313   6.730  10.897 -0.0653  0.8004 -0.6696
  756MOL0     O 1983   6.393   6.829  10.950 -0.1732  0.0689 -0.8488
  756MOL0     C 1984   6.441   6.928  10.852  0.3524 -0.1747 -0.2665
  756MOL0     C 1985   6.565   7.008  10.882 -1.0196 -0.5738 -0.6023
  756MOL0     C 1986   6.684   6.931  10.943 -0.6380  0.2785 -0.2269
  756MOL0     C 1987   6.667   6.883  11.091 -1.2404  0.0893 -0.1228
  756MOL0     C 1988   6.794   6.831  11.146  0.5481 -0.3790 -0.5088
  756MOL0     C 1989   6.899   6.791  11.191 -0.9675  0.2622 -0.2607
  756MOL0     C 1990   6.317   6.605  10.953 -0.0747 -0.1446 -0.5286
  756MOL0     C 1991   6.221   6.509  10.919 -0.7483  0.2710  0.0321
  756MOL0     C 1992   6.221   6.382  11.003  0.1854  0.1221  0.0454
  756MOL0     H 1993   5.775   6.382  10.931 -1.4550  0.0042  0.9893
  756MOL0     H 1994   5.559   6.239  10.908 -1.5030 -2.7847 -1.6857
  756MOL0     H 1995   5.289   6.370  10.717 -0.2483 -2.1479  3.0381
  756MOL0     H 1996   5.295   6.303  10.546  1.1925  1.7105 -0.1079
  756MOL0     H 1997   5.175   6.157  10.784  1.0750  1.9782  0.8692
  756MOL0     H 1998   5.145   6.128  10.615  2.7111 -0.6026  1.1163
  756MOL0     H 1999   5.048   6.347  10.592  1.9627 -3.1559 -1.2793
  756MOL0     H 2000   5.078   6.375  10.768  1.1983 -0.7581 -0.2852
  756MOL0     H 2001   4.900   6.139  10.661 -0.2521  0.1914  0.0349
  756MOL0     H 2002   4.924   6.188  10.828 -0.2187 -0.4014  0.6120
  756MOL0     H 2003   4.763   6.343  10.618 -3.2007  0.2152  0.0087
  756MOL0     H 2004   4.700   6.258  10.760  0.2363 -1.3355 -0.1485
  756MOL0     H 2005   4.885   6.492  10.737 -1.6700 -0.4318 -1.8491
  756MOL0     H 2006   4.715   6.519  10.781  2.4765  3.5267  2.7078
  756MOL0     H 2007   4.883   6.362  10.965  0.4001 -0.2662 -3.9520
  756MOL0     H 2008   4.720   6.430  10.994  0.3775 -1.1154  0.4801
  756MOL0     H 2009   4.826   6.655  10.962 -2.6825 -1.3747  0.3329
  756MOL0     H 2010   4.867   6.572  11.099 -1.1137  1.8688  0.0148
  756MOL0     H 2011   5.133   6.447  11.081 -3.0288  2.3579  1.5220
  756MOL0     H 2012   5.362   6.416  10.956  1.4834 -0.6890  2.4861
  756MOL0     H 2013   5.422   6.554  10.860 -0.4152  2.7163  1.0938
  756MOL0     H 2014   5.447   6.517  11.162  3.3534 -0.1814  0.5420
  756MOL0     H 2015   5.577   6.541  11.036  0.3323  2.7190 -0.3869
  756MOL0     H 2016   5.374   6.747  11.114 -1.7253 -3.4787  0.0556
  756MOL0     H 2017   5.512   6.773  11.007  0.4092  0.4200  0.3035
  756MOL0     H 2018   5.563   6.692  11.289 -4.0454 -0.3989  0.0337
  756MOL0     H 2019   5.546   6.856  11.231 -0.6658 -1.1727  1.7505
  756MOL0     H 2020   5.939   6.637  11.076  2.4957 -0.3937  0.7248
  756MOL0     H 2021   6.113   6.606  11.204 -1.9070 -1.6949  0.3859
  756MOL0     H 2022   6.465   6.466  11.335 -0.1061  0.4823 -1.6780
  756MOL0     H 2023   6.713   6.493  11.390 -1.0410 -4.3926  2.8690
  756MOL0     H 2024   6.891   6.533  11.545 -1.7049  2.2133  4.5474
  756MOL0     H 2025   6.910   6.626  11.398  1.6736 -0.6007  0.1636
  756MOL0     H 2026   7.044   6.790  11.502  2.6210 -0.2059  0.2337
  756MOL0     H 2027   7.048   6.692  11.655  2.2769 -1.2197 -0.6769
  756MOL0     H 2028   7.132   6.502  11.540  1.0779  0.7999  4.2097
  756MOL0     H 2029   7.142   6.601  11.383 -0.8848  1.3458 -0.6898
  756MOL0     H 2030   7.275   6.666  11.650 -1.3825  2.7092 -0.5746
  756MOL0     H 2031   7.335   6.715  11.482  0.2321 -2.7492 -2.5462
  756MOL0     H 2032   7.484   6.553  11.498 -0.2636  0.8280  0.4058
  756MOL0     H 2033   7.337   6.458  11.452  0.5849 -0.4366  0.0982
  756MOL0     H 2034   7.430   6.497  11.728  0.2357 -0.2330 -0.5216
  756MOL0     H 2035   7.287   6.401  11.670 -0.1545 -2.9283 -2.9808
  756MOL0     H 2036   7.505   6.270  11.733  3.9343 -0.3307 -1.0947
  756MOL0     H 2037   7.565   6.328  11.580  0.0864 -1.3941  0.0107
  756MOL0     H 2038   7.315   6.150  11.649 -1.2030 -2.4660 -0.3869
  756MOL0     H 2039   7.331   6.228  11.493  2.6676 -1.9589 -0.7791
  756MOL0     H 2040   6.606   6.853  11.612  1.1625  1.1871 -1.3375
  756MOL0     H 2041   6.374   6.815  11.568 -2.0898 -0.8356 -1.6310
  756MOL0     H 2042   5.936   6.796  11.540 -0.8527  1.8580 -0.0770
  756MOL0     H 2043   5.738   6.858  11.397  0.7063  0.9478 -0.6749
  756MOL0     H 2044   5.552   6.336  10.486  0.9487 -1.1612  1.1772
  756MOL0     H 2045   5.781   6.437  10.510  0.0746  0.2357 -0.4993
  756MOL0     H 2046   6.043   6.693  10.690 -1.2593 -0.9962  0.5868
  756MOL0     H 2047   6.210   6.858  10.773 -0.2643  0.9314  0.9810
  756MOL0     H 2048   6.367   7.004  10.827  1.5543  0.6877 -1.2976
  756MOL0     H 2049   6.468   6.869  10.764  0.0095 -1.0894  0.2237
  756MOL0     H 2050   6.538   7.093  10.945  0.3178 -0.9196  0.4758
  756MOL0     H 2051   6.598   7.052  10.787 -3.3577 -0.2803 -1.3585
  756MOL0     H 2052   6.776   6.991  10.934  0.1241 -0.3968  2.2830
  756MOL0     H 2053   6.709   6.842  10.885  2.0138  1.3825 -0.9315
  756MOL0     H 2054   6.626   6.962  11.154 -2.1413  3.1290 -4.0640
  756MOL0     H 2055   6.587   6.809  11.087  0.9018 -2.3335 -2.7072
  756MOL0     H 2056   6.986   6.759  11.244 -0.2805  2.0279 -0.2751
  756MOL0     H 2057   6.391   6.593  11.031 -1.0398 -1.0283  0.2935
  756MOL0     H 2058   6.288   6.383  11.089 -1.1713 -3.8867  1.3706
  756MOL0     H 2059   6.117   6.372  11.034 -0.2060 -0.5477 -1.3885
  756MOL0     H 2060   6.251   6.298  10.938 -1.0860  0.0923 -0.5385
  757MOL0     O 2061   4.265   0.335   1.460 -0.6514  0.3830 -0.1044
  757MOL0     C 2062   4.310   0.261   1.545 -0.5878  0.8560  0.0581
  757MOL0     O 2063   4.439   0.227   1.566  0.2475 -0.2164  0.3752
  757MOL0     C 2064   4.542   0.270   1.484 -0.8272 -0.2129  0.0319
  757MOL0     C 2065   4.629   0.173   1.438 -0.1234 -0.1357  0.3712
  757MOL0     C 2066   4.737   0.210   1.355 -0.3823 -0.0206  0.2099
  757MOL0     C 2067   4.774   0.346   1.330 -0.4473  0.2798  0.5174
  757MOL0     O 2068   4.880   0.385   1.251  0.1191  0.8965  0.4287
  757MOL0     C 2069   4.979   0.291   1.205 -0.1784  0.0738  0.5350
  757MOL0     C 2070   5.104   0.373   1.171  0.0410  0.4543  0.5040
  757MOL0     C 2071   5.243   0.321   1.227  0.9081 -0.0802  0.3065
  757MOL0     C 2072   5.366   0.406   1.191 -0.2613  0.4729  0.0493
  757MOL0     C 2073   5.484   0.336   1.252  0.1593  0.7656 -0.8624
  757MOL0     C 2074   5.619   0.403   1.210 -0.7425 -0.3884 -0.0165
  757MOL0     C 2075   5.640   0.528   1.296 -0.4964 -1.0010 -0.2457
  757MOL0     C 2076   5.757   0.620   1.243  0.0737 -0.2227 -0.6160
  757MOL0     N 2077   5.888   0.540   1.234 -0.5730  0.5879  0.2230
  757MOL0     C 2078   5.944   0.445   1.322 -0.4649  0.4463  0.2335
  757MOL0     C 2079   6.059   0.393   1.268  0.2898  0.2041  0.0304
  757MOL0     C 2080   6.150   0.291   1.326  0.8365  0.3465 -0.0471
  757MOL0     C 2081   6.293   0.312   1.266  0.4780  0.1180 -0.2908
  757MOL0     C 2082   6.376   0.191   1.314 -0.3272  0.2927  0.1997
  757MOL0     C 2083   6.535   0.204   1.307  0.6839 -0.5193 -0.8337
  757MOL0     O 2084   6.566   0.312   1.402  0.6078  0.0107 -0.2018
  757MOL0     C 2085   6.695   0.351   1.424 -0.3724 -0.1433  0.4504
  757MOL0     C 2086   6.727   0.442   1.523  0.3304 -0.0326  0.6647
  757MOL0     C 2087   6.859   0.496   1.539 -0.5633 -0.0271 -0.5272
  757MOL0     C 2088   6.966   0.438   1.466  0.1638  0.9957 -0.5361
  757MOL0     C 2089   7.103   0.491   1.478 -0.7630 -0.5360 -0.1071
  757MOL0     O 2090   7.192   0.449   1.381 -0.0228  0.1929 -0.6421
  757MOL0     C 2091   7.325   0.496   1.370  0.5400  0.2853  0.0764
  757MOL0     C 2092   7.361   0.634   1.391  0.1323  0.0927  0.3642
  757MOL0     C 2093   7.490   0.678   1.372 -0.2284 -0.3428  0.2580
  757MOL0     C 2094   7.593   0.589   1.341  0.1085  1.0281  0.1248
  757MOL0     O 2095   7.722   0.621   1.314  0.2922  0.2620  0.1973
  757MOL0     C 2096   7.740   0.751   1.261  0.9672 -0.1828  1.0424
  757MOL0     C 2097   7.878   0.767   1.199  0.6932 -0.5196 -0.2494
  757MOL0     C 2098   7.915   0.669   1.081 -0.7358  0.6290  0.4439
  757MOL0     C 2099   8.074   0.662   1.084  0.3222  0.2906 -0.6989
  757MOL0     C 2100   8.129   0.548   0.986  0.1614 -0.5384  0.4586
  757MOL0     C 2101   8.279   0.537   0.993  0.4580 -0.5935  0.1147
  757MOL0     C 2102   8.336   0.436   0.889  0.0692  0.2419  0.9741
  757MOL0     C 2103   8.489   0.417   0.892  1.0612  0.0794 -0.4567
  757MOL0    Cl 2104   8.516   0.328   0.744 -0.2210 -0.3866 -0.0576
  757MOL0     C 2105   7.565   0.443   1.338 -0.7182 -0.8138  0.6224
  757MOL0     C 2106   7.431   0.407   1.348 -0.4031  0.6924  0.5266
  757MOL0     O 2107   7.128   0.577   1.569 -0.3885 -0.0847 -0.0135
  757MOL0     C 2108   6.936   0.351   1.356  0.6130 -0.5955  0.1173
  757MOL0     C 2109   6.801   0.303   1.338  0.7382 -0.9144 -0.5416
  757MOL0     N 2110   6.067   0.444   1.137 -0.1795 -0.8279 -0.0546
  757MOL0     N 2111   5.984   0.543   1.135  0.5858 -0.0138 -0.0671
  757MOL0     C 2112   4.687   0.440   1.379 -0.4857  0.3575 -0.6972
  757MOL0     C 2113   4.572   0.401   1.457 -0.1959  0.3492  0.1824
  757MOL0     C 2114   4.212   0.192   1.635  0.7944  0.1881 -0.4104
  757MOL0     C 2115   4.081   0.163   1.587 -0.0224  1.1607  0.0563
  757MOL0     C 2116   3.984   0.110   1.671  0.2299 -0.5207 -0.3676
  757MOL0     C 2117   4.010   0.082   1.809 -0.0782  0.6240  0.5897
  757MOL0     O 2118   3.898   0.045   1.883  0.3149  0.6968 -0.4386
  757MOL0     C 2119   3.891   0.025   2.017 -0.0761 -0.8575 -0.1597
  757MOL0     C 2120   3.759   0.072   2.072 -0.3086  1.0706  0.4416
  757MOL0     C 2121   3.748   0.009   2.214 -0.3367 -0.8701 -0.2753
  757MOL0     C 2122   3.849   0.078   2.317 -0.7569  0.6669  0.4645
  757MOL0     C 2123   3.796   0.041   2.446 -0.2283 -0.4002 -1.0201
  757MOL0     C 2124   3.736   0.012   2.558 -0.7206 -0.3718 -0.1018
  757MOL0     C 2125   4.130   0.122   1.860 -0.2750  0.0491  0.7377
  757MOL0     C 2126   4.234   0.165   1.775 -1.2791  0.8277 -0.2991
  757MOL0     C 2127   4.370   0.187   1.839 -0.5992 -0.2785  0.1919
  757MOL0     H 2128   4.611   0.067   1.445  1.7214 -0.5709 -0.9112
  757MOL0     H 2129   4.793   0.134   1.301  2.1913  1.2520  0.9078
  757MOL0     H 2130   4.999   0.211   1.277 -1.5481 -1.7971 -1.0527
  757MOL0     H 2131   4.941   0.237   1.117  3.2951 -1.3435 -0.2527
  757MOL0     H 2132   5.095   0.467   1.226 -1.1419  0.1549  0.8654
  757MOL0     H 2133   5.113   0.393   1.064  0.4214  0.7023  0.5795
  757MOL0     H 2134   5.254   0.216   1.198 -1.8278  0.1625 -1.9953
  757MOL0     H 2135   5.238   0.325   1.336  0.6372 -0.0550  0.2923
  757MOL0     H 2136   5.377   0.416   1.083 -1.6126  0.1250 -0.1323
  757MOL0     H 2137   5.346   0.508   1.226 -0.2776  0.4363  0.1477
  757MOL0     H 2138   5.482   0.326   1.361  1.0092 -0.7260 -0.9498
  757MOL0     H 2139   5.496   0.231   1.224  2.3447 -0.4212  3.5261
  757MOL0     H 2140   5.708   0.340   1.216  0.8836  1.5172 -2.0644
  757MOL0     H 2141   5.613   0.442   1.108  2.0469  0.9335  0.2334
  757MOL0     H 2142   5.652   0.507   1.403  1.3045 -1.9182 -0.5796
  757MOL0     H 2143   5.560   0.601   1.280 -1.4546 -1.9155  0.2597
  757MOL0     H 2144   5.718   0.662   1.150 -1.7699 -0.9117 -0.1883
  757MOL0     H 2145   5.769   0.700   1.317  0.6672 -0.6465 -0.2363
  757MOL0     H 2146   5.916   0.420   1.424  2.7477 -3.4852  0.3935
  757MOL0     H 2147   6.138   0.287   1.435 -2.4370 -0.3616 -0.3500
  757MOL0     H 2148   6.113   0.195   1.287  0.9259  0.6436 -0.8682
  757MOL0     H 2149   6.308   0.326   1.158 -1.2658  3.9392 -0.2026
  757MOL0     H 2150   6.331   0.404   1.311  0.9939 -0.1556 -0.1591
  757MOL0     H 2151   6.335   0.109   1.255 -1.0163  0.9346 -0.2278
  757MOL0     H 2152   6.345   0.171   1.417 -2.7541  0.5661 -0.4274
  757MOL0     H 2153   6.576   0.228   1.208  3.3019 -1.4737 -0.0772
  757MOL0     H 2154   6.593   0.114   1.331  0.9710  0.2900  1.8159
  757MOL0     H 2155   6.650   0.483   1.588 -0.4048  1.4112 -1.0198
  757MOL0     H 2156   6.888   0.564   1.618  0.1501 -0.8035 -0.1022
  757MOL0     H 2157   7.280   0.705   1.398 -1.7135 -1.9387  0.4723
  757MOL0     H 2158   7.489   0.786   1.386 -2.1389 -0.5519  2.2065
  757MOL0     H 2159   7.671   0.774   1.179 -0.8191  0.8785  2.7469
  757MOL0     H 2160   7.738   0.829   1.338 -0.9840  0.4231  0.4353
  757MOL0     H 2161   7.882   0.871   1.167 -1.9004 -0.8464 -1.9107
  757MOL0     H 2162   7.949   0.756   1.282 -0.1622  1.2683  0.7873
  757MOL0     H 2163   7.882   0.565   1.091 -0.9185  0.3229 -2.5031
  757MOL0     H 2164   7.880   0.695   0.981 -4.0787 -2.5779  0.5557
  757MOL0     H 2165   8.108   0.630   1.183  0.1835 -0.5492 -0.9091
  757MOL0     H 2166   8.115   0.761   1.063 -0.1714  1.7459  4.1071
  757MOL0     H 2167   8.096   0.581   0.887 -1.2579 -1.7514  0.4955
  757MOL0     H 2168   8.082   0.452   1.008 -1.8147  0.5622  1.2513
  757MOL0     H 2169   8.321   0.635   0.970 -1.1943 -0.0595 -0.7654
  757MOL0     H 2170   8.312   0.508   1.094 -0.9822 -0.2320  0.7034
  757MOL0     H 2171   8.317   0.468   0.787 -0.9725  0.0297  1.0913
  757MOL0     H 2172   8.297   0.336   0.909  1.6648 -0.8093 -0.8117
  757MOL0     H 2173   8.532   0.518   0.894  0.0324  0.5124  0.3877
  757MOL0     H 2174   8.528   0.370   0.984  1.1632  2.9830  1.1016
  757MOL0     H 2175   7.646   0.375   1.311 -0.1340 -0.5379  1.6411
  757MOL0     H 2176   7.406   0.302   1.357  0.1237  0.4401 -0.7932
  757MOL0     H 2177   6.996   0.326   1.268  1.3507 -2.3946  1.0646
  757MOL0     H 2178   6.769   0.232   1.263 -2.5525  1.5759 -1.7557
  757MOL0     H 2179   4.719   0.542   1.360  1.0718 -0.0958 -0.6476
  757MOL0     H 2180   4.509   0.483   1.489  1.4044  0.8672  2.3060
  757MOL0     H 2181   4.062   0.188   1.483  1.4229  4.3141  0.4441
  757MOL0     H 2182   3.882   0.098   1.634 -0.6479  1.8426  1.0659
  757MOL0     H 2183   3.962   0.088   2.071 -0.4072 -2.7543  2.7221
  757MOL0     H 2184   3.918  -0.079   2.036  0.2046 -0.4896  1.6002
  757MOL0     H 2185   3.670   0.045   2.016 -1.2794 -2.4735  3.2643
  757MOL0     H 2186   3.763   0.181   2.080  1.0070  1.3441 -2.5368
  757MOL0     H 2187   3.764  -0.099   2.205 -2.0317 -1.0894 -1.0670
  757MOL0     H 2188   3.646   0.031   2.246  0.0515  1.2755 -0.3540
  757MOL0     H 2189   3.955   0.052   2.306 -0.6321  1.7350 -1.0159
  757MOL0     H 2190   3.840   0.187   2.310 -0.2018  0.6896  0.0799
  757MOL0     H 2191   3.704   0.003   2.659  2.5493 -0.8503  1.0020
  757MOL0     H 2192   4.160   0.106   1.963  1.4153  1.0620  0.4528
  757MOL0     H 2193   4.419   0.280   1.812  3.0992 -2.2906 -0.7594
  757MOL0     H 2194   4.359   0.191   1.948  1.1196 -2.1138  0.5049
  757MOL0     H 2195   4.431   0.100   1.810 -0.1652 -0.1165  0.6140
  758MOL0     O 2196   2.058   8.628   3.698  0.5324  0.2049  0.1733
  758MOL0     C 2197   2.033   8.609   3.818  0.2557 -1.3256  0.5617
  758MOL0     O 2198   2.117   8.624   3.919  0.2123 -0.4726  0.2583
  758MOL0     C 2199   2.259   8.620   3.905 -0.1316  0.4283 -0.9027
  758MOL0     C 2200   2.347   8.700   3.986  0.2292 -0.9557 -0.2103
  758MOL0     C 2201   2.483   8.711   3.966 -0.4319  0.4087  0.8739
  758MOL0     C 2202   2.540   8.620   3.879 -0.1058  0.0516 -0.1155
  758MOL0     O 2203   2.677   8.629   3.863  0.0004  0.7219 -0.5139
  758MOL0     C 2204   2.750   8.537   3.778 -0.3834  0.9078 -0.0140
  758MOL0     C 2205   2.892   8.542   3.828  0.1320  0.1540  0.1827
  758MOL0     C 2206   2.961   8.669   3.780 -0.2243 -0.9720  0.0374
  758MOL0     C 2207   3.086   8.685   3.856 -0.2286  0.6194  0.6971
  758MOL0     C 2208   3.160   8.804   3.823  0.7933  0.5598  1.4824
  758MOL0     C 2209   3.285   8.807   3.912 -0.8337  0.9118 -0.0296
  758MOL0     C 2210   3.349   8.943   3.892 -0.4704  0.2550  0.4008
  758MOL0     C 2211   3.473   8.966   3.986  0.3818  0.0504 -0.0436
  758MOL0     N 2212   3.488   9.111   4.007  0.1832 -0.5177 -0.2417
  758MOL0     C 2213   3.454   9.176   4.120  0.0931 -0.4127  0.1976
  758MOL0     C 2214   3.507   9.304   4.099 -0.2873 -0.5124  0.1030
  758MOL0     C 2215   3.534   9.417   4.195  0.8574 -0.1643 -0.5938
  758MOL0     C 2216   3.685   9.410   4.231  0.1478  0.0896 -0.2356
  758MOL0     C 2217   3.738   9.512   4.328 -0.3851 -0.0259  0.3271
  758MOL0     C 2218   3.706   9.654   4.281  0.1592 -0.2245 -0.2241
  758MOL0     O 2219   3.741   9.749   4.389 -0.3796  0.4464  0.5885
  758MOL0     C 2220   3.873   9.792   4.409 -0.0679 -0.2322  0.4134
  758MOL0     C 2221   3.986   9.742   4.346  0.0811  0.7349 -0.0148
  758MOL0     C 2222   4.111   9.803   4.353 -0.2109  1.1095  0.3217
  758MOL0     C 2223   4.137   9.898   4.459  0.8014 -0.0472  0.8177
  758MOL0     C 2224   4.273   9.941   4.487 -0.6243 -0.3964  0.5804
  758MOL0     O 2225   4.298  10.059   4.542 -0.2099 -0.0112  0.3732
  758MOL0     C 2226   4.424  10.098   4.566  0.1261  0.1739 -0.1910
  758MOL0     C 2227   4.515  10.033   4.649 -0.7632  0.1029  0.4174
  758MOL0     C 2228   4.643  10.075   4.677 -0.0404 -0.3896 -0.6248
  758MOL0     C 2229   4.695  10.180   4.602 -0.3384 -0.1393  0.0728
  758MOL0     O 2230   4.830  10.235   4.618  0.5221 -0.4468 -0.2809
  758MOL0     C 2231   4.890  10.198   4.742 -0.0002 -0.0967 -0.0822
  758MOL0     C 2232   5.014  10.293   4.762 -0.9911 -0.0905  1.1520
  758MOL0     C 2233   5.135  10.263   4.674  0.6417  0.4933 -0.5594
  758MOL0     C 2234   5.257  10.345   4.725  0.1758  0.2003 -0.0013
  758MOL0     C 2235   5.358  10.362   4.610  0.4505  0.6691  0.1074
  758MOL0     C 2236   5.468  10.455   4.660  0.5311  0.3380 -0.0194
  758MOL0     C 2237   5.558  10.490   4.551  0.1576 -0.1649  0.2315
  758MOL0     C 2238   5.708  10.492   4.605 -0.1424 -0.8280 -0.6526
  758MOL0    Cl 2239   5.840  10.519   4.488 -0.1315  0.4486  0.0968
  758MOL0     C 2240   4.601  10.246   4.520  0.3940 -0.2288  0.2894
  758MOL0     C 2241   4.464  10.206   4.504 -0.0878 -0.3998 -0.4584
  758MOL0     O 2242   4.364   9.878   4.437  0.3877  0.8503  0.1845
  758MOL0     C 2243   4.024   9.931   4.532 -0.4831  0.0733  0.3744
  758MOL0     C 2244   3.895   9.884   4.505  1.1411  0.3046 -0.1699
  758MOL0     N 2245   3.553   9.309   3.972 -0.5533 -0.4441 -1.3559
  758MOL0     N 2246   3.544   9.191   3.919  0.2797 -0.0770  0.0041
  758MOL0     C 2247   2.457   8.525   3.808 -0.6681  0.9432 -0.2882
  758MOL0     C 2248   2.317   8.530   3.821 -0.4803  0.0845 -1.1203
  758MOL0     C 2249   1.891   8.594   3.857  0.3909 -0.2254 -0.3233
  758MOL0     C 2250   1.863   8.542   3.987 -0.0727 -0.0362  0.6124
  758MOL0     C 2251   1.728   8.534   4.039  0.4211  0.6092 -0.0496
  758MOL0     C 2252   1.629   8.579   3.960  0.3810  0.4631 -1.1896
  758MOL0     O 2253   1.496   8.585   4.001  0.0722 -0.0724  0.4641
  758MOL0     C 2254   1.448   8.532   4.124 -0.2167  0.3483  0.7449
  758MOL0     C 2255   1.439   8.373   4.132  0.2269 -0.7509 -0.6376
  758MOL0     C 2256   1.319   8.335   4.053 -0.6255 -0.5055  0.7359
  758MOL0     C 2257   1.338   8.185   4.007  0.3252 -0.1857 -0.5085
  758MOL0     C 2258   1.350   8.085   4.113  0.1257  0.0690  0.4816
  758MOL0     C 2259   1.369   7.999   4.191 -0.6873  0.2508 -0.4534
  758MOL0     C 2260   1.659   8.626   3.831  0.6856  0.3016 -0.1897
  758MOL0     C 2261   1.785   8.631   3.774 -0.2737  0.2160 -0.2402
  758MOL0     C 2262   1.796   8.670   3.627  0.9185  0.0167  0.0153
  758MOL0     H 2263   2.305   8.769   4.058 -2.4673 -1.3639 -1.2811
  758MOL0     H 2264   2.535   8.779   4.033 -2.0129  0.2457  2.3306
  758MOL0     H 2265   2.710   8.436   3.791 -2.7150  1.6322 -0.9751
  758MOL0     H 2266   2.743   8.542   3.669  0.9225 -2.3466 -0.3764
  758MOL0     H 2267   2.958   8.458   3.804  2.2619  1.7984  0.0230
  758MOL0     H 2268   2.878   8.547   3.936 -0.6502  1.5628  0.0395
  758MOL0     H 2269   2.896   8.756   3.795  1.7446  1.6142 -4.5940
  758MOL0     H 2270   2.974   8.669   3.672  1.1584 -0.7168  0.1843
  758MOL0     H 2271   3.060   8.673   3.962 -3.5987 -3.9506 -0.3179
  758MOL0     H 2272   3.151   8.599   3.835  1.9020  2.4311 -0.5366
  758MOL0     H 2273   3.197   8.797   3.720  4.1019 -0.1587  2.5922
  758MOL0     H 2274   3.098   8.894   3.827  0.1360  0.5587 -3.1527
  758MOL0     H 2275   3.263   8.784   4.017  3.1435  1.6462  1.1399
  758MOL0     H 2276   3.354   8.731   3.876  0.8157  1.5638  1.6137
  758MOL0     H 2277   3.275   9.023   3.907  0.4015  1.0666  0.4811
  758MOL0     H 2278   3.379   8.938   3.787  0.8086 -1.3346  0.8018
  758MOL0     H 2279   3.452   8.914   4.080  0.2025  2.5855  1.3979
  758MOL0     H 2280   3.564   8.929   3.938 -1.1404 -0.5620 -2.6330
  758MOL0     H 2281   3.404   9.135   4.207  1.0341  0.0998  1.0036
  758MOL0     H 2282   3.506   9.513   4.151  0.8167 -0.7013 -1.7948
  758MOL0     H 2283   3.479   9.393   4.286 -3.2856  1.4523 -2.3809
  758MOL0     H 2284   3.703   9.307   4.262 -0.5639 -0.2770 -0.9825
  758MOL0     H 2285   3.738   9.425   4.136 -1.3784 -0.7438 -1.2650
  758MOL0     H 2286   3.844   9.486   4.324  0.1500  2.1107 -2.5707
  758MOL0     H 2287   3.703   9.499   4.431  0.6722  1.1438  0.8592
  758MOL0     H 2288   3.596   9.657   4.276  0.1194 -1.4315 -0.4442
  758MOL0     H 2289   3.753   9.689   4.188 -1.6656  2.0630 -0.3950
  758MOL0     H 2290   3.970   9.672   4.264 -1.1531  0.2151  0.6408
  758MOL0     H 2291   4.191   9.761   4.292 -1.3775 -0.2141 -0.3429
  758MOL0     H 2292   4.478   9.946   4.702  0.0298 -0.2143  0.4637
  758MOL0     H 2293   4.707  10.013   4.739 -0.2801 -1.1964 -1.1799
  758MOL0     H 2294   4.814  10.209   4.819 -1.2697  0.1009 -1.3137
  758MOL0     H 2295   4.912  10.091   4.732 -0.8383 -0.6672  3.0823
  758MOL0     H 2296   4.975  10.395   4.760 -2.1253 -0.5068  0.6689
  758MOL0     H 2297   5.037  10.286   4.868 -1.5069  3.4670  1.6237
  758MOL0     H 2298   5.156  10.156   4.682  0.0067  0.4827  1.5782
  758MOL0     H 2299   5.106  10.281   4.571  1.4072 -1.1376 -1.0891
  758MOL0     H 2300   5.298  10.298   4.814  0.8126  0.3111 -0.2313
  758MOL0     H 2301   5.231  10.445   4.761  0.9520  0.9175 -1.3661
  758MOL0     H 2302   5.306  10.409   4.526 -1.3505 -3.7522 -1.5971
  758MOL0     H 2303   5.400  10.270   4.567  4.9874  2.0730  1.0723
  758MOL0     H 2304   5.428  10.555   4.683 -1.0553 -0.1702 -0.4210
  758MOL0     H 2305   5.513  10.413   4.749 -0.0966  1.6981  0.9807
  758MOL0     H 2306   5.531  10.582   4.498  1.5359  0.8329  1.1646
  758MOL0     H 2307   5.555  10.408   4.478  2.1619  0.3507 -0.4938
  758MOL0     H 2308   5.712  10.568   4.684  3.0991 -2.6448  1.1776
  758MOL0     H 2309   5.733  10.406   4.667 -2.5570  0.9785  3.2698
  758MOL0     H 2310   4.632  10.344   4.484 -0.5483  0.6778  1.8475
  758MOL0     H 2311   4.401  10.275   4.450 -0.2960 -2.4570 -3.0188
  758MOL0     H 2312   4.033  10.004   4.611 -1.1666 -0.4044  0.9115
  758MOL0     H 2313   3.815   9.920   4.569 -0.5924 -3.0140 -0.2226
  758MOL0     H 2314   2.504   8.456   3.738  1.1105  2.0004 -0.1984
  758MOL0     H 2315   2.256   8.457   3.769 -0.1346 -0.9635 -0.1034
  758MOL0     H 2316   1.941   8.504   4.052  1.8638 -0.8751 -1.9941
  758MOL0     H 2317   1.714   8.506   4.143 -1.7007 -0.6185 -0.5864
  758MOL0     H 2318   1.350   8.574   4.149 -0.3658 -1.2171  3.1258
  758MOL0     H 2319   1.507   8.555   4.213 -0.6576  1.0996  0.8443
  758MOL0     H 2320   1.432   8.335   4.235 -1.8585 -0.1779 -0.5158
  758MOL0     H 2321   1.533   8.332   4.096  0.5369 -0.0010 -0.6942
  758MOL0     H 2322   1.302   8.399   3.965 -5.3420 -0.1601  1.6051
  758MOL0     H 2323   1.229   8.351   4.114 -1.0450 -0.8010  0.2039
  758MOL0     H 2324   1.250   8.151   3.952 -2.6860  1.0847  3.0907
  758MOL0     H 2325   1.429   8.180   3.947  0.9751  1.2332  0.3043
  758MOL0     H 2326   1.394   7.920   4.260  0.1086 -1.1734 -2.3000
  758MOL0     H 2327   1.569   8.653   3.776  0.1471  2.7556  1.7119
  758MOL0     H 2328   1.694   8.693   3.594  0.3339 -0.2212  1.6012
  758MOL0     H 2329   1.867   8.753   3.622  0.6748  0.2170 -0.1800
  758MOL0     H 2330   1.833   8.580   3.578 -2.9999 -0.0437 -3.3862
  759MOL0     O 2331   1.875   6.170  10.697  0.7990 -0.2285  0.0049
  759MOL0     C 2332   1.810   6.265  10.746 -0.0013  0.0133  0.1066
  759MOL0     O 2333   1.862   6.371  10.806  0.1921  0.1944  0.0011
  759MOL0     C 2334   1.997   6.377  10.817  0.3574 -0.2367 -0.1492
  759MOL0     C 2335   2.071   6.397  10.707  0.1091 -0.1817 -0.5754
  759MOL0     C 2336   2.202   6.434  10.721 -0.5795 -0.4659  0.6416
  759MOL0     C 2337   2.273   6.429  10.838  0.1055 -0.0190 -0.4209
  759MOL0     O 2338   2.405   6.466  10.833 -0.0560 -0.2478 -0.4368
  759MOL0     C 2339   2.478   6.476  10.954  0.4861 -0.2625  0.1139
  759MOL0     C 2340   2.636   6.473  10.915  0.5040  0.6491  0.3053
  759MOL0     C 2341   2.676   6.599  10.834  0.3712  0.1872 -0.7167
  759MOL0     C 2342   2.824   6.585  10.805  0.5525  0.2894  0.6448
  759MOL0     C 2343   2.868   6.717  10.747  0.5475  0.1634  0.2768
  759MOL0     C 2344   3.013   6.716  10.690  0.0272  1.2488  0.1146
  759MOL0     C 2345   3.045   6.864  10.654  0.7085  0.0477  0.7663
  759MOL0     C 2346   3.153   6.882  10.546 -0.3162  0.0606  0.2255
  759MOL0     N 2347   3.276   6.890  10.619  0.0849 -0.4526 -0.1640
  759MOL0     C 2348   3.353   6.999  10.610 -0.4267 -0.7482  0.1042
  759MOL0     C 2349   3.469   6.960  10.664 -0.2139 -0.3477 -0.2601
  759MOL0     C 2350   3.600   7.041  10.671 -0.2800 -0.6480  0.5572
  759MOL0     C 2351   3.659   7.060  10.528  0.0021  0.0633  0.3938
  759MOL0     C 2352   3.709   6.926  10.460  0.4432  0.1896  0.2040
  759MOL0     C 2353   3.801   6.945  10.332  0.2931 -0.0311  0.7004
  759MOL0     O 2354   3.898   7.046  10.362 -0.3853  0.2739  0.3248
  759MOL0     C 2355   4.019   7.032  10.304 -0.6045 -0.2301 -0.0821
  759MOL0     C 2356   4.040   7.012  10.166  0.0827 -0.2463  0.2344
  759MOL0     C 2357   4.167   6.991  10.107  0.4645  0.2634 -0.0338
  759MOL0     C 2358   4.278   6.997  10.191 -0.3330 -0.0116  0.5807
  759MOL0     C 2359   4.411   6.965  10.136 -0.5591 -0.9573 -0.4738
  759MOL0     O 2360   4.509   7.015  10.205  0.9440 -0.1596 -0.7517
  759MOL0     C 2361   4.646   6.990  10.199  0.4460 -0.0784 -0.2999
  759MOL0     C 2362   4.725   7.029  10.301 -0.1805 -0.1582 -0.3768
  759MOL0     C 2363   4.864   7.013  10.291 -0.6680 -0.1044  0.5438
  759MOL0     C 2364   4.924   6.932  10.190  0.4638  0.5172 -0.2379
  759MOL0     O 2365   5.056   6.884  10.185  0.0005  0.9582 -0.2419
  759MOL0     C 2366   5.162   6.972  10.224 -0.5569 -0.2632  0.0575
  759MOL0     C 2367   5.183   7.092  10.130  0.3806  0.0922 -0.9949
  759MOL0     C 2368   5.273   7.205  10.192 -0.2725  0.9725 -0.8773
  759MOL0     C 2369   5.276   7.313  10.087 -0.5161 -0.2488 -1.0212
  759MOL0     C 2370   5.335   7.446  10.127  0.3963  0.4347 -0.2825
  759MOL0     C 2371   5.382   7.536  10.006 -0.6313  0.1222 -0.2218
  759MOL0     C 2372   5.271   7.591   9.922  0.0285 -0.3248 -0.5592
  759MOL0     C 2373   5.312   7.666   9.801 -0.0411  0.8303 -0.1127
  759MOL0    Cl 2374   5.413   7.561   9.683  0.1701 -0.0484 -0.2544
  759MOL0     C 2375   4.836   6.891  10.088  0.0301 -0.4644 -0.3464
  759MOL0     C 2376   4.707   6.919  10.098 -0.2181 -0.5717  0.8302
  759MOL0     O 2377   4.421   6.887  10.045 -0.4376 -0.6565  0.0586
  759MOL0     C 2378   4.256   7.011  10.333 -1.8093  0.0811 -0.1216
  759MOL0     C 2379   4.125   7.029  10.383  0.5495 -0.3287 -0.0541
  759MOL0     N 2380   3.455   6.839  10.717  0.5478 -0.6576  0.7984
  759MOL0     N 2381   3.338   6.794  10.693 -0.0052 -0.0851  0.4448
  759MOL0     C 2382   2.199   6.412  10.957  0.3101 -0.3875 -0.2714
  759MOL0     C 2383   2.061   6.380  10.940  0.0679 -0.1135  0.8420
  759MOL0     C 2384   1.660   6.234  10.741 -0.3334  0.0799  0.4622
  759MOL0     C 2385   1.610   6.117  10.679  0.4160  0.2766 -0.2365
  759MOL0     C 2386   1.472   6.084  10.667  0.8509 -0.2367 -0.4272
  759MOL0     C 2387   1.379   6.166  10.731  0.2322 -0.0195 -0.5710
  759MOL0     O 2388   1.249   6.134  10.727  0.7984  0.6671 -0.2640
  759MOL0     C 2389   1.197   6.005  10.698  0.1844 -0.7226  1.0804
  759MOL0     C 2390   1.059   5.986  10.747  0.1552 -0.5838  0.9148
  759MOL0     C 2391   1.011   6.068  10.859  0.4045 -0.3266 -0.0621
  759MOL0     C 2392   0.872   6.025  10.909 -1.1685  0.5996  0.2653
  759MOL0     C 2393   0.811   6.101  11.011 -0.0701 -0.0496 -0.1883
  759MOL0     C 2394   0.753   6.152  11.102  0.2471  0.4894  0.6020
  759MOL0     C 2395   1.425   6.276  10.802  0.4987  0.1661  0.5142
  759MOL0     C 2396   1.557   6.320  10.803 -0.6401  0.1478 -0.9160
  759MOL0     C 2397   1.587   6.442  10.895 -0.3182 -0.0223  0.7044
  759MOL0     H 2398   2.021   6.404  10.610 -0.1140  1.0527 -0.3863
  759MOL0     H 2399   2.249   6.460  10.626 -0.7146 -2.3036  0.0301
  759MOL0     H 2400   2.435   6.570  10.990 -1.4534 -1.9104  2.4397
  759MOL0     H 2401   2.457   6.395  11.025  2.6077 -1.8351 -0.9127
  759MOL0     H 2402   2.653   6.382  10.855 -2.2987 -0.6434  1.3180
  759MOL0     H 2403   2.690   6.462  11.010 -0.2380  0.2339  0.6931
  759MOL0     H 2404   2.650   6.689  10.891 -0.8296  0.5309 -1.7691
  759MOL0     H 2405   2.620   6.608  10.741 -1.4086 -1.6128  0.1076
  759MOL0     H 2406   2.872   6.569  10.902  0.0252 -2.2388  0.5565
  759MOL0     H 2407   2.842   6.495  10.744  0.5793  0.0314  1.0314
  759MOL0     H 2408   2.790   6.746  10.677  0.2466  1.0734  0.9692
  759MOL0     H 2409   2.871   6.799  10.820  5.4136  2.6636 -2.2290
  759MOL0     H 2410   3.084   6.667  10.757  0.5650  1.2676 -0.4224
  759MOL0     H 2411   3.009   6.642  10.609 -4.9909 -2.2623  3.0148
  759MOL0     H 2412   3.075   6.919  10.744 -1.7194 -1.7032  2.7858
  759MOL0     H 2413   2.958   6.919  10.616  1.1297  1.8542  2.2689
  759MOL0     H 2414   3.157   6.786  10.493  4.2295 -0.5594  1.2845
  759MOL0     H 2415   3.153   6.968  10.479  2.7900 -0.0973 -0.1388
  759MOL0     H 2416   3.326   7.093  10.562 -0.7427 -0.4796  0.7863
  759MOL0     H 2417   3.587   7.141  10.715  3.6750  0.3498 -0.1424
  759MOL0     H 2418   3.665   6.974  10.729 -2.8525 -2.9581  0.9643
  759MOL0     H 2419   3.595   7.121  10.463 -0.2917 -0.1020  0.5274
  759MOL0     H 2420   3.743   7.127  10.545 -2.8081  4.8544 -2.3492
  759MOL0     H 2421   3.621   6.865  10.436  1.1435 -0.6232 -0.3652
  759MOL0     H 2422   3.770   6.866  10.528  1.9966  0.5409 -0.8144
  759MOL0     H 2423   3.740   6.983  10.250  0.5335 -0.7341  0.1889
  759MOL0     H 2424   3.855   6.852  10.311 -0.1545 -0.8242  2.7565
  759MOL0     H 2425   3.951   7.008  10.103 -1.2817  0.1012  2.0526
  759MOL0     H 2426   4.166   6.965  10.002 -2.2968 -2.0221  0.4139
  759MOL0     H 2427   4.691   7.087  10.386 -1.1125 -1.7518  0.3704
  759MOL0     H 2428   4.927   7.039  10.375 -1.4319 -1.8149  1.7048
  759MOL0     H 2429   5.131   7.007  10.323 -3.0453 -2.4801  0.1673
  759MOL0     H 2430   5.255   6.915  10.232 -0.0169  0.6297  0.2754
  759MOL0     H 2431   5.225   7.061  10.034 -1.5512 -2.4166 -1.1315
  759MOL0     H 2432   5.081   7.126  10.109 -1.2706 -2.0217  2.6412
  759MOL0     H 2433   5.239   7.245  10.288  0.6525 -0.3446  0.0301
  759MOL0     H 2434   5.372   7.163  10.207 -0.3085  1.1228 -0.1961
  759MOL0     H 2435   5.170   7.334  10.072 -0.1876  2.2056 -0.2355
  759MOL0     H 2436   5.327   7.272   9.999 -2.3012 -1.5966 -1.4795
  759MOL0     H 2437   5.414   7.429  10.201 -0.6655  2.6542  1.4781
  759MOL0     H 2438   5.255   7.496  10.183  0.5839 -1.4240  1.8094
  759MOL0     H 2439   5.440   7.620  10.046 -0.6036  0.3519 -0.7390
  759MOL0     H 2440   5.448   7.482   9.936 -0.4149 -0.8436  0.6897
  759MOL0     H 2441   5.222   7.663   9.988 -1.0564 -0.4212 -1.2341
  759MOL0     H 2442   5.191   7.520   9.900 -1.4955  0.0400  3.0876
  759MOL0     H 2443   5.219   7.693   9.749 -1.0461 -2.5462 -0.3414
  759MOL0     H 2444   5.374   7.753   9.823 -1.7090  2.0935 -0.2175
  759MOL0     H 2445   4.871   6.830  10.005  0.4620 -0.8410  0.1036
  759MOL0     H 2446   4.647   6.890  10.012  1.3270  0.7917 -0.7952
  759MOL0     H 2447   4.338   7.007  10.403 -0.7162 -1.5166 -1.3893
  759MOL0     H 2448   4.125   7.048  10.490 -1.3171  3.8108 -0.5954
  759MOL0     H 2449   2.235   6.422  11.058 -2.9624  0.3986  0.9453
  759MOL0     H 2450   2.016   6.390  11.038  1.2019  1.9513  1.2117
  759MOL0     H 2451   1.668   6.039  10.632 -3.4715 -2.9814 -0.1268
  759MOL0     H 2452   1.441   5.994  10.614 -1.4456 -0.0326  0.4527
  759MOL0     H 2453   1.260   5.922  10.732  2.0809 -0.0037 -0.5071
  759MOL0     H 2454   1.192   6.006  10.588  3.1125 -0.3930  0.8702
  759MOL0     H 2455   1.035   5.880  10.760 -0.1346 -0.8038 -0.9934
  759MOL0     H 2456   0.993   6.000  10.660  0.2022  2.0785  1.2157
  759MOL0     H 2457   1.014   6.171  10.820 -1.4720  0.4034  1.5854
  759MOL0     H 2458   1.089   6.066  10.935  0.1365  1.5467  0.3160
  759MOL0     H 2459   0.800   6.035  10.828  1.0757  0.4816 -1.8390
  759MOL0     H 2460   0.874   5.920  10.939  1.6373  0.5426  0.1281
  759MOL0     H 2461   0.688   6.195  11.176 -0.8555  1.3498 -0.7882
  759MOL0     H 2462   1.342   6.321  10.856 -0.1181  0.8172 -0.9266
  759MOL0     H 2463   1.495   6.498  10.913  0.7336  2.3340 -0.7829
  759MOL0     H 2464   1.619   6.402  10.992  3.8232 -0.5667 -0.6974
  759MOL0     H 2465   1.670   6.501  10.856  0.3675 -1.1553  0.4019
  760MOL0     O 2466   0.184   8.070   2.228 -0.0023 -0.5642 -0.0254
  760MOL0     C 2467   0.207   8.023   2.115  0.5465  0.2723 -1.0461
  760MOL0     O 2468   0.325   8.047   2.046  0.2691  0.0045 -0.3495
  760MOL0     C 2469   0.417   8.136   2.091  0.0317 -0.4168 -0.6516
  760MOL0     C 2470   0.479   8.102   2.204  0.3075 -0.4040 -0.1279
  760MOL0     C 2471   0.575   8.201   2.256  0.0757 -0.3345 -0.3618
  760MOL0     C 2472   0.603   8.321   2.183 -1.2744  1.1250 -1.2646
  760MOL0     O 2473   0.682   8.408   2.257  0.0413 -0.5269  0.5751
  760MOL0     C 2474   0.752   8.515   2.186 -0.3178 -0.7754 -1.3541
  760MOL0     C 2475   0.886   8.480   2.105  0.0541  0.1337 -0.0500
  760MOL0     C 2476   1.009   8.561   2.162  0.2190  0.4704  0.6200
  760MOL0     C 2477   1.126   8.533   2.060 -0.0355 -0.4100 -0.6479
  760MOL0     C 2478   1.258   8.595   2.116  0.6320 -0.4716 -0.4688
  760MOL0     C 2479   1.321   8.510   2.228  0.6296 -0.5606  0.3422
  760MOL0     C 2480   1.451   8.563   2.293 -0.3589 -0.3155 -0.7289
  760MOL0     C 2481   1.574   8.547   2.199  0.2280 -0.4295 -0.7461
  760MOL0     N 2482   1.682   8.611   2.271  0.4696 -0.1750 -0.2207
  760MOL0     C 2483   1.764   8.537   2.347  0.2501 -0.6591 -0.3459
  760MOL0     C 2484   1.837   8.629   2.419 -0.1816 -0.0079  0.4845
  760MOL0     C 2485   1.965   8.591   2.489 -1.2438 -0.5488 -0.3044
  760MOL0     C 2486   2.092   8.664   2.431 -0.6355  0.5293 -0.6637
  760MOL0     C 2487   2.110   8.657   2.275 -0.9126  0.2507 -0.3139
  760MOL0     C 2488   2.254   8.694   2.227  0.4029 -0.1651  0.6791
  760MOL0     O 2489   2.290   8.835   2.277 -0.2396  0.3174  0.3177
  760MOL0     C 2490   2.412   8.886   2.244 -0.1765 -0.0071  0.6881
  760MOL0     C 2491   2.442   9.011   2.305 -0.5719 -0.4253  0.3990
  760MOL0     C 2492   2.573   9.070   2.295  0.1070  0.4603 -0.1868
  760MOL0     C 2493   2.679   8.993   2.238  0.3102  0.1497 -0.5205
  760MOL0     C 2494   2.818   9.029   2.259  0.3305  0.1870 -0.5948
  760MOL0     O 2495   2.832   9.136   2.351 -0.5371  0.0896 -0.1551
  760MOL0     C 2496   2.958   9.188   2.366  0.5362  0.8181 -0.7015
  760MOL0     C 2497   3.060   9.114   2.416  0.5692  0.1736  0.9670
  760MOL0     C 2498   3.187   9.176   2.431  0.7565 -1.1677  0.2678
  760MOL0     C 2499   3.197   9.315   2.417 -0.3489  0.1610 -0.0797
  760MOL0     O 2500   3.313   9.369   2.455  0.6395 -0.1632  0.4696
  760MOL0     C 2501   3.328   9.387   2.597  0.1917 -0.0380  0.5818
  760MOL0     C 2502   3.470   9.435   2.631 -0.1040  0.1102  0.5804
  760MOL0     C 2503   3.476   9.490   2.773  0.7893  0.3888  0.0661
  760MOL0     C 2504   3.599   9.579   2.805 -0.0897  0.3428  0.6855
  760MOL0     C 2505   3.733   9.499   2.798  0.0798  0.1666 -0.9002
  760MOL0     C 2506   3.853   9.591   2.815 -0.5623  0.0134  0.7784
  760MOL0     C 2507   3.862   9.655   2.957 -0.5360 -0.2384 -0.7970
  760MOL0     C 2508   3.998   9.718   2.978  0.4264 -0.3472 -0.0962
  760MOL0    Cl 2509   4.012   9.808   3.140  0.1452 -0.3578  0.0926
  760MOL0     C 2510   3.089   9.386   2.370 -0.8077 -1.2274 -0.4874
  760MOL0     C 2511   2.969   9.325   2.343  0.9083 -0.2306 -0.0602
  760MOL0     O 2512   2.907   8.965   2.206  0.0125 -0.7391  0.5659
  760MOL0     C 2513   2.644   8.865   2.181 -0.8041 -0.3524 -1.1731
  760MOL0     C 2514   2.513   8.817   2.172 -0.2129 -0.1832 -0.3024
  760MOL0     N 2515   1.785   8.753   2.383  0.0727  0.4939 -0.3154
  760MOL0     N 2516   1.684   8.734   2.314  0.1555 -0.4068  0.4454
  760MOL0     C 2517   0.553   8.338   2.061  0.6399 -0.0023 -0.2128
  760MOL0     C 2518   0.450   8.249   2.025  0.1038 -0.1905 -0.5025
  760MOL0     C 2519   0.102   7.933   2.061 -0.0687  0.0130 -0.7991
  760MOL0     C 2520   0.031   7.858   2.146 -0.2692  0.2609 -0.8004
  760MOL0     C 2521  -0.051   7.757   2.107  0.8267 -0.0821 -0.0023
  760MOL0     C 2522  -0.079   7.729   1.970 -0.0736 -0.2700 -0.8365
  760MOL0     O 2523  -0.169   7.644   1.903 -0.5251  0.3204 -0.0267
  760MOL0     C 2524  -0.243   7.551   1.985 -0.2914 -1.0411 -0.7601
  760MOL0     C 2525  -0.366   7.622   2.040 -0.0633  0.3503 -1.1698
  760MOL0     C 2526  -0.413   7.564   2.170  0.1368 -0.0866 -0.1854
  760MOL0     C 2527  -0.543   7.637   2.205 -0.0624 -0.4728  0.2155
  760MOL0     C 2528  -0.592   7.593   2.340  0.5294 -0.1841  0.7243
  760MOL0     C 2529  -0.651   7.579   2.443  0.6237 -1.0497  0.3412
  760MOL0     C 2530  -0.004   7.816   1.882  0.3216  0.7413 -0.9199
  760MOL0     C 2531   0.084   7.916   1.925 -0.0399 -0.5530 -1.0959
  760MOL0     C 2532   0.145   8.004   1.819 -0.7607  0.6822 -0.0715
  760MOL0     H 2533   0.458   8.006   2.251  1.0193 -0.1004  0.8384
  760MOL0     H 2534   0.628   8.185   2.349 -0.0947 -1.5298 -0.4455
  760MOL0     H 2535   0.679   8.564   2.121  1.2783  2.9793 -0.5903
  760MOL0     H 2536   0.769   8.589   2.264 -1.1717 -1.3447 -0.5961
  760MOL0     H 2537   0.871   8.496   1.998 -0.5604 -0.1142 -0.0075
  760MOL0     H 2538   0.905   8.373   2.107  0.0507  0.1021 -1.0439
  760MOL0     H 2539   1.031   8.526   2.264 -0.6244  1.4081  1.1381
  760MOL0     H 2540   0.982   8.667   2.163 -0.9947  0.2305 -1.4746
  760MOL0     H 2541   1.130   8.423   2.066 -0.7711 -0.3614  2.0032
  760MOL0     H 2542   1.098   8.576   1.963 -1.5369  0.3624  0.0981
  760MOL0     H 2543   1.322   8.609   2.029  2.8616 -0.1202  1.1302
  760MOL0     H 2544   1.227   8.689   2.163 -0.3406 -1.3867  0.7959
  760MOL0     H 2545   1.241   8.483   2.297  1.6293 -4.1812  0.2984
  760MOL0     H 2546   1.342   8.415   2.178 -0.0671 -1.1760  1.2048
  760MOL0     H 2547   1.466   8.509   2.387 -0.7092 -2.1016 -1.6467
  760MOL0     H 2548   1.446   8.668   2.324  0.8989 -0.6489  0.7761
  760MOL0     H 2549   1.601   8.442   2.182  1.2007 -1.1595  3.9114
  760MOL0     H 2550   1.556   8.604   2.108  0.6367 -1.4213 -1.4704
  760MOL0     H 2551   1.776   8.429   2.349  1.6071 -0.5181  0.1375
  760MOL0     H 2552   1.958   8.621   2.594  0.3300 -0.3595 -0.2307
  760MOL0     H 2553   1.978   8.482   2.495  2.2835 -0.1708  2.8509
  760MOL0     H 2554   2.087   8.772   2.450  0.1044 -0.0117  3.3561
  760MOL0     H 2555   2.182   8.628   2.483 -1.3069  4.1503  3.5672
  760MOL0     H 2556   2.045   8.731   2.227 -2.1143 -0.8130 -0.3810
  760MOL0     H 2557   2.092   8.556   2.238  1.5110  0.4640 -2.4019
  760MOL0     H 2558   2.259   8.689   2.118 -0.7566 -0.5212  0.6323
  760MOL0     H 2559   2.325   8.617   2.260 -0.2669 -0.8146  0.6394
  760MOL0     H 2560   2.367   9.065   2.360 -1.7349 -1.5005 -0.0676
  760MOL0     H 2561   2.591   9.172   2.328  2.1425 -0.1087  0.6069
  760MOL0     H 2562   3.037   9.009   2.429  1.2565  0.0138  0.9338
  760MOL0     H 2563   3.264   9.111   2.471 -0.1751 -3.3885 -1.3685
  760MOL0     H 2564   3.252   9.463   2.618  0.6292  0.2990  0.9769
  760MOL0     H 2565   3.316   9.298   2.658  1.9204  0.5697  1.8740
  760MOL0     H 2566   3.537   9.348   2.637 -0.2601 -0.0937 -0.4558
  760MOL0     H 2567   3.512   9.495   2.550  0.4647 -3.0197 -1.6069
  760MOL0     H 2568   3.392   9.556   2.796  0.2143 -0.9074  1.9100
  760MOL0     H 2569   3.489   9.406   2.842 -0.0614  1.3565  1.4757
  760MOL0     H 2570   3.587   9.628   2.902 -3.5450 -0.5627  0.8375
  760MOL0     H 2571   3.600   9.660   2.732  1.2232  0.6446  1.0041
  760MOL0     H 2572   3.750   9.439   2.708 -2.1646 -3.1172  0.6667
  760MOL0     H 2573   3.738   9.424   2.877  2.3172  1.5322  0.3607
  760MOL0     H 2574   3.948   9.540   2.798  0.0142  1.4475 -0.6231
  760MOL0     H 2575   3.847   9.666   2.735 -1.6247  0.2474  1.0589
  760MOL0     H 2576   3.843   9.577   3.031 -3.4680  2.6156  1.8003
  760MOL0     H 2577   3.786   9.734   2.964 -0.4513  0.1110 -2.9764
  760MOL0     H 2578   4.083   9.649   2.984  0.9814  0.2304 -1.0423
  760MOL0     H 2579   4.010   9.790   2.896 -2.1192  0.8737  0.5169
  760MOL0     H 2580   3.092   9.494   2.358  0.1110 -1.0682  0.8949
  760MOL0     H 2581   2.879   9.379   2.316  1.4125  1.2309  1.0353
  760MOL0     H 2582   2.734   8.817   2.144  0.2256  1.4235 -1.0874
  760MOL0     H 2583   2.491   8.719   2.131  0.1671  0.4650 -2.1767
  760MOL0     H 2584   0.580   8.419   1.994  1.3696  1.6538  1.9583
  760MOL0     H 2585   0.396   8.249   1.932  0.6800 -0.4898 -0.8430
  760MOL0     H 2586   0.027   7.871   2.254 -0.7732 -0.6259 -0.7030
  760MOL0     H 2587  -0.100   7.698   2.184 -1.7856 -3.0904 -3.5882
  760MOL0     H 2588  -0.176   7.517   2.065 -0.5878 -1.0083 -0.4984
  760MOL0     H 2589  -0.276   7.468   1.922 -3.4296 -0.3997 -0.1080
  760MOL0     H 2590  -0.442   7.605   1.963  1.9202  0.3906 -3.2368
  760MOL0     H 2591  -0.346   7.729   2.048 -1.5827  0.5873  0.1273
  760MOL0     H 2592  -0.339   7.572   2.250  0.5573 -0.3012 -0.5518
  760MOL0     H 2593  -0.439   7.459   2.157  1.8615 -0.7240  1.1486
  760MOL0     H 2594  -0.517   7.744   2.204 -0.5022 -0.3671  0.0946
  760MOL0     H 2595  -0.622   7.625   2.131 -1.4848 -1.7328  1.8638
  760MOL0     H 2596  -0.715   7.564   2.527 -0.6270  0.9676 -0.1760
  760MOL0     H 2597  -0.021   7.807   1.775 -2.1024  0.2971 -0.5541
  760MOL0     H 2598   0.184   8.100   1.852  1.1349 -0.8620  2.5546
  760MOL0     H 2599   0.234   7.957   1.777  0.1079  0.5233  1.8195
  760MOL0     H 2600   0.071   8.029   1.743  0.3659 -1.4162 -1.9600
  761MOL0     O 2601   7.413  10.077  10.503 -0.1577  0.6815 -0.8304
  761MOL0     C 2602   7.377  10.197  10.493  0.2538  0.0322  0.6821
  761MOL0     O 2603   7.435  10.298  10.568  0.6615  0.2022 -0.0598
  761MOL0     C 2604   7.577  10.319  10.577 -0.7002  0.0897  0.1281
  761MOL0     C 2605   7.616  10.435  10.641  0.4915 -0.2700  0.6727
  761MOL0     C 2606   7.748  10.483  10.640 -0.4621 -0.0336  0.2389
  761MOL0     C 2607   7.849  10.402  10.586  0.2078 -0.0411  0.1063
  761MOL0     O 2608   7.974  10.450  10.610  0.3431  0.0311  0.2941
  761MOL0     C 2609   8.082  10.402  10.533 -0.3620  0.5338  0.2634
  761MOL0     C 2610   8.202  10.497  10.563  0.3311  0.7086 -0.8090
  761MOL0     C 2611   8.335  10.443  10.524 -0.5426  0.4530 -0.3206
  761MOL0     C 2612   8.346  10.372  10.388  0.0531  0.8750  0.4551
  761MOL0     C 2613   8.494  10.357  10.349  0.6600  0.3027  0.4133
  761MOL0     C 2614   8.510  10.333  10.187  0.1970 -0.2355 -0.9753
  761MOL0     C 2615   8.656  10.297  10.159 -0.3201  0.9590  0.1480
  761MOL0     C 2616   8.760  10.407  10.200 -0.0024  0.4087 -0.9477
  761MOL0     N 2617   8.881  10.398  10.117 -0.9701 -0.2167  0.3760
  761MOL0     C 2618   8.970  10.298  10.146  0.2634  0.1580  0.3601
  761MOL0     C 2619   9.058  10.303  10.037 -0.4199 -0.8949  0.0015
  761MOL0     C 2620   9.177  10.221  10.024  0.6212  0.3065 -0.5905
  761MOL0     C 2621   9.303  10.285  10.088  0.6087  0.2808  0.9114
  761MOL0     C 2622   9.437  10.210  10.091  0.4913  1.2960 -0.1857
  761MOL0     C 2623   9.540  10.293  10.171  0.8883 -0.1043  0.5873
  761MOL0     O 2624   9.589  10.414  10.116  0.5109 -0.5174 -0.1377
  761MOL0     C 2625   9.704  10.465  10.159 -0.4705 -0.4657  0.0972
  761MOL0     C 2626   9.781  10.414  10.273  0.4558 -1.0991  0.5727
  761MOL0     C 2627   9.903  10.470  10.302 -0.3595 -0.2722  0.0602
  761MOL0     C 2628   9.962  10.556  10.215  0.8501  0.4224 -0.0719
  761MOL0     C 2629  10.097  10.613  10.251  0.2323  0.6059 -0.0071
  761MOL0     O 2630  10.166  10.687  10.156  0.5179 -0.6687  0.1066
  761MOL0     C 2631  10.288  10.755  10.181 -0.2073 -0.5423  0.0216
  761MOL0     C 2632  10.354  10.776  10.296  0.0410  0.0867 -0.0169
  761MOL0     C 2633  10.476  10.845  10.300 -0.4207  0.0848  0.0681
  761MOL0     C 2634  10.528  10.911  10.186  0.3473 -1.0851 -0.4237
  761MOL0     O 2635  10.625  10.997  10.218 -0.0412  0.0763  0.3808
  761MOL0     C 2636  10.647  11.097  10.116 -0.6237  0.3551 -0.3851
  761MOL0     C 2637  10.751  11.196  10.177  0.4948  0.5973 -0.7006
  761MOL0     C 2638  10.791  11.285  10.063  0.0839 -0.2856  0.1977
  761MOL0     C 2639  10.811  11.425  10.116 -0.6892 -1.1675  0.9222
  761MOL0     C 2640  10.876  11.530  10.019  0.4064  1.0618  0.1808
  761MOL0     C 2641  11.033  11.491  10.011 -0.0473  0.0858  0.2272
  761MOL0     C 2642  11.107  11.570   9.911  0.4335 -1.2423 -0.3549
  761MOL0     C 2643  11.095  11.717   9.946  0.9709 -0.6116  0.7921
  761MOL0    Cl 2644  10.964  11.790   9.842  0.3093  0.0390 -0.1404
  761MOL0     C 2645  10.455  10.891  10.065  0.0044 -0.2281 -0.5149
  761MOL0     C 2646  10.346  10.809  10.068  0.2322  0.0277  0.7065
  761MOL0     O 2647  10.140  10.582  10.365 -0.2478 -0.0396 -0.1900
  761MOL0     C 2648   9.892  10.598  10.104  0.0549 -0.0815 -0.2040
  761MOL0     C 2649   9.763  10.553  10.071  0.4119  0.1929 -0.7028
  761MOL0     N 2650   9.017  10.405   9.949 -0.1947  0.2718 -0.7447
  761MOL0     N 2651   8.908  10.450   9.998 -0.2173 -0.2279  0.1108
  761MOL0     C 2652   7.814  10.281  10.521  0.1106  0.0639 -0.5834
  761MOL0     C 2653   7.677  10.251  10.511 -0.0041  0.5684 -0.3464
  761MOL0     C 2654   7.263  10.239  10.414 -0.5448  0.0168 -0.6047
  761MOL0     C 2655   7.187  10.350  10.461  0.3341  0.2022 -0.3183
  761MOL0     C 2656   7.070  10.385  10.394  1.0500 -1.1026 -0.0309
  761MOL0     C 2657   7.044  10.335  10.267  0.3379 -0.6828 -0.2275
  761MOL0     O 2658   6.946  10.387  10.182  0.8774 -0.1564  0.3221
  761MOL0     C 2659   6.869  10.486  10.251  0.5816 -0.9000 -0.1208
  761MOL0     C 2660   6.773  10.542  10.153  0.2617 -0.5916 -0.3142
  761MOL0     C 2661   6.665  10.444  10.115 -0.0548  0.8495  0.1396
  761MOL0     C 2662   6.539  10.515  10.046  0.3517 -0.8546 -0.5758
  761MOL0     C 2663   6.451  10.569  10.156  0.1995  1.1341 -0.7969
  761MOL0     C 2664   6.367  10.605  10.239 -0.9453  0.7350 -0.3321
  761MOL0     C 2665   7.127  10.231  10.218  0.3100  0.4007  0.1574
  761MOL0     C 2666   7.234  10.181  10.297  0.2665  0.5856  0.8320
  761MOL0     C 2667   7.325  10.073  10.235  1.1696 -0.6977 -0.1246
  761MOL0     H 2668   7.534  10.501  10.667 -0.9139 -0.8202 -2.0369
  761MOL0     H 2669   7.767  10.577  10.691 -0.9595 -0.0318  0.4280
  761MOL0     H 2670   8.121  10.303  10.558  0.5234  0.0816 -2.5559
  761MOL0     H 2671   8.061  10.399  10.426  0.8238 -1.7452  0.0306
  761MOL0     H 2672   8.203  10.515  10.670  0.5145  0.2733 -0.7358
  761MOL0     H 2673   8.186  10.597  10.520  1.0277 -0.0345 -2.9250
  761MOL0     H 2674   8.375  10.379  10.604  0.8536  0.4092 -1.0128
  761MOL0     H 2675   8.410  10.523  10.519  1.2502 -1.1989 -1.2162
  761MOL0     H 2676   8.306  10.271  10.383  3.2747 -0.5265  0.8119
  761MOL0     H 2677   8.294  10.433  10.313 -1.3696 -0.2887  0.4576
  761MOL0     H 2678   8.543  10.448  10.386 -1.6859  0.5511  3.3398
  761MOL0     H 2679   8.535  10.270  10.401  1.0667 -0.0545 -0.4992
  761MOL0     H 2680   8.444  10.252  10.153  1.4405 -0.7835 -2.1954
  761MOL0     H 2681   8.490  10.421  10.126 -1.4771 -0.3700 -0.6639
  761MOL0     H 2682   8.671  10.268  10.054  4.3581  1.4856  0.4688
  761MOL0     H 2683   8.683  10.205  10.210  0.3226  1.3970  0.6121
  761MOL0     H 2684   8.706  10.501  10.184 -2.1179 -0.3936  0.8906
  761MOL0     H 2685   8.794  10.399  10.304  4.5119 -0.4121 -2.2444
  761MOL0     H 2686   8.963  10.223  10.224 -2.0285 -1.9143 -1.6755
  761MOL0     H 2687   9.160  10.129  10.081 -1.9481 -0.7952 -2.9294
  761MOL0     H 2688   9.193  10.202   9.917 -0.3995 -2.3924 -0.3319
  761MOL0     H 2689   9.327  10.380  10.040  1.6856  0.1608  1.1728
  761MOL0     H 2690   9.278  10.310  10.191  0.3461 -0.5447  1.0604
  761MOL0     H 2691   9.466  10.191   9.987  1.7242  2.5581 -0.1141
  761MOL0     H 2692   9.425  10.112  10.137 -3.0716  2.1858  1.0810
  761MOL0     H 2693   9.629  10.231  10.183  3.4061  3.4194  1.8555
  761MOL0     H 2694   9.500  10.306  10.272  0.9883  0.7212  0.5305
  761MOL0     H 2695   9.739  10.339  10.340  0.2360 -2.4960 -1.0785
  761MOL0     H 2696   9.949  10.434  10.394 -1.4458  1.4796  1.3673
  761MOL0     H 2697  10.321  10.725  10.386 -2.7040  3.3814  1.0381
  761MOL0     H 2698  10.535  10.854  10.390 -0.0243 -0.8149 -0.0879
  761MOL0     H 2699  10.680  11.059  10.019 -0.8576  0.5951 -0.5596
  761MOL0     H 2700  10.556  11.151  10.087  0.4802  1.7732 -1.3448
  761MOL0     H 2701  10.703  11.245  10.262  0.8853 -0.4937  0.1785
  761MOL0     H 2702  10.836  11.140  10.215 -1.6030 -1.3871  1.4634
  761MOL0     H 2703  10.889  11.246  10.032  1.0913  0.9026  1.7148
  761MOL0     H 2704  10.731  11.279   9.972 -0.6459 -0.8193  0.7065
  761MOL0     H 2705  10.869  11.437  10.208 -1.3805  0.4625  1.1836
  761MOL0     H 2706  10.718  11.469  10.154  0.7637 -0.6252  4.2456
  761MOL0     H 2707  10.863  11.629  10.064  0.0735  0.5615  1.2192
  761MOL0     H 2708  10.831  11.520   9.920  2.8958  2.7017 -1.2277
  761MOL0     H 2709  11.073  11.509  10.111 -2.4367 -3.0503  1.9298
  761MOL0     H 2710  11.045  11.384   9.990 -1.2358 -0.0499  0.1953
  761MOL0     H 2711  11.066  11.556   9.811  0.5602  2.8322 -1.1492
  761MOL0     H 2712  11.210  11.533   9.906  0.1176 -2.9256  2.9143
  761MOL0     H 2713  11.096  11.735  10.053  1.4963  1.8151  0.4264
  761MOL0     H 2714  11.185  11.769   9.911  1.2169 -1.2665  0.4268
  761MOL0     H 2715  10.485  10.933   9.970  0.2421  3.9522  1.1747
  761MOL0     H 2716  10.289  10.794   9.976  0.7073  1.4003  0.1652
  761MOL0     H 2717   9.943  10.667  10.038  2.3917 -1.4939  0.0156
  761MOL0     H 2718   9.710  10.584   9.982  0.1707 -2.1501 -1.4400
  761MOL0     H 2719   7.887  10.213  10.478 -1.5994 -2.1737 -0.0770
  761MOL0     H 2720   7.652  10.164  10.451  1.6796 -0.8666  0.9539
  761MOL0     H 2721   7.208  10.396  10.557  1.7328 -1.8406  0.4024
  761MOL0     H 2722   7.005  10.452  10.449 -0.7516 -1.4593 -1.6026
  761MOL0     H 2723   6.936  10.569  10.278 -0.1982  0.8979 -3.1564
  761MOL0     H 2724   6.826  10.441  10.341 -2.0000 -0.1287 -0.8974
  761MOL0     H 2725   6.831  10.574  10.065  1.3993 -0.5202  0.4316
  761MOL0     H 2726   6.728  10.630  10.199  2.0754  0.1187  0.1839
  761MOL0     H 2727   6.631  10.387  10.202 -2.1038  1.0703 -0.4632
  761MOL0     H 2728   6.707  10.366  10.051  0.6399  1.0100  0.3872
  761MOL0     H 2729   6.578  10.599   9.989  2.8010 -1.1890  0.5100
  761MOL0     H 2730   6.495  10.443   9.976 -0.5259 -2.1260  1.1953
  761MOL0     H 2731   6.287  10.646  10.298 -0.6256  0.6136  0.1938
  761MOL0     H 2732   7.097  10.195  10.120 -1.7833 -3.3320  1.9498
  761MOL0     H 2733   7.433  10.090  10.243  1.4045 -2.8727  3.6873
  761MOL0     H 2734   7.308   9.978  10.287 -2.6222  0.1518  0.4428
  761MOL0     H 2735   7.298  10.059  10.130  2.1574 -0.8423 -0.3671
  762MOL0     O 2736   7.870   2.000   0.469 -0.0480  0.2440  0.3555
  762MOL0     C 2737   7.876   1.898   0.408  0.1051 -0.1161 -0.6545
  762MOL0     O 2738   7.982   1.815   0.410  0.4843  0.0878  0.0645
  762MOL0     C 2739   8.103   1.838   0.466  0.1319 -0.2949 -0.4302
  762MOL0     C 2740   8.145   1.959   0.535 -0.4114  0.4517 -0.3369
  762MOL0     C 2741   8.269   1.965   0.600 -0.0332 -0.6217  0.5592
  762MOL0     C 2742   8.365   1.863   0.580  0.1951 -0.4838  0.2066
  762MOL0     O 2743   8.491   1.897   0.638 -0.1510  0.1075 -0.5893
  762MOL0     C 2744   8.600   1.812   0.620 -0.1097  1.3995  0.7197
  762MOL0     C 2745   8.727   1.884   0.659 -0.1905  0.0478 -0.1440
  762MOL0     C 2746   8.848   1.793   0.667  0.0015 -0.1416 -0.1568
  762MOL0     C 2747   8.970   1.880   0.651 -0.4284 -0.7476  0.2937
  762MOL0     C 2748   9.092   1.797   0.691 -0.2189 -0.4690 -0.1179
  762MOL0     C 2749   9.150   1.700   0.586 -0.7457  0.6649  0.4751
  762MOL0     C 2750   9.290   1.645   0.617 -0.5960 -0.4593  0.6479
  762MOL0     C 2751   9.356   1.584   0.492 -0.6836 -0.8663  0.9152
  762MOL0     N 2752   9.499   1.567   0.515 -0.2900 -0.1261  0.1256
  762MOL0     C 2753   9.552   1.468   0.594 -0.0452 -0.7476  0.1669
  762MOL0     C 2754   9.688   1.489   0.583  0.8477 -0.8051  0.1702
  762MOL0     C 2755   9.799   1.405   0.624 -0.6575 -0.2934 -0.1590
  762MOL0     C 2756   9.923   1.434   0.537 -0.9201  0.0678 -0.3369
  762MOL0     C 2757   9.910   1.418   0.389 -0.1786 -0.0690  0.7086
  762MOL0     C 2758  10.041   1.423   0.323 -0.9175 -0.1065 -0.9621
  762MOL0     O 2759  10.108   1.298   0.330 -0.8760 -0.3439  0.2032
  762MOL0     C 2760  10.238   1.290   0.283  0.0490 -0.4983 -0.5294
  762MOL0     C 2761  10.321   1.181   0.312  0.0963  0.2932 -0.4777
  762MOL0     C 2762  10.442   1.143   0.245 -0.0352  1.1165 -0.7106
  762MOL0     C 2763  10.486   1.219   0.138 -0.5292 -0.0694 -0.3057
  762MOL0     C 2764  10.607   1.182   0.061  0.4052  0.8926 -1.0465
  762MOL0     O 2765  10.662   1.283  -0.012  0.0408 -0.1061 -0.1623
  762MOL0     C 2766  10.778   1.258  -0.074 -0.7237  0.5954  0.8515
  762MOL0     C 2767  10.785   1.160  -0.176 -0.3451  0.0276  0.5110
  762MOL0     C 2768  10.892   1.120  -0.250 -1.2134 -0.5799  0.0681
  762MOL0     C 2769  11.013   1.197  -0.235  0.1221 -0.7232  0.0235
  762MOL0     O 2770  11.116   1.187  -0.327  0.2836 -0.3352 -0.1201
  762MOL0     C 2771  11.170   1.053  -0.355 -1.0875 -0.5272  0.5971
  762MOL0     C 2772  11.228   1.047  -0.495  0.1938 -0.1139  0.6894
  762MOL0     C 2773  11.289   0.919  -0.548 -0.2369  0.6053 -0.4566
  762MOL0     C 2774  11.319   0.921  -0.694  0.1593 -0.4374 -0.5960
  762MOL0     C 2775  11.375   0.784  -0.737  0.6455 -0.9541  0.2288
  762MOL0     C 2776  11.443   0.781  -0.871  0.8040  0.3025 -0.3574
  762MOL0     C 2777  11.575   0.854  -0.872  0.5110  0.0560  0.4824
  762MOL0     C 2778  11.658   0.851  -1.002 -0.4165 -0.3168  0.2519
  762MOL0    Cl 2779  11.571   0.882  -1.154 -0.0674 -0.1923 -0.0648
  762MOL0     C 2780  11.015   1.295  -0.135 -0.5488 -0.3987  0.8042
  762MOL0     C 2781  10.895   1.333  -0.065 -0.0532 -0.1165  0.2257
  762MOL0     O 2782  10.654   1.067   0.071  0.0232  0.3053 -0.2136
  762MOL0     C 2783  10.422   1.345   0.121 -0.1134 -0.0174 -0.3837
  762MOL0     C 2784  10.300   1.377   0.187 -0.4049 -0.4231  0.4076
  762MOL0     N 2785   9.709   1.612   0.522  0.1640  0.1656  0.7207
  762MOL0     N 2786   9.601   1.660   0.479 -0.1004  0.0396 -0.3779
  762MOL0     C 2787   8.322   1.742   0.520  0.3948  1.0769  0.0822
  762MOL0     C 2788   8.195   1.737   0.464  0.2832 -0.1570  0.2676
  762MOL0     C 2789   7.747   1.842   0.351  0.4041 -0.0414 -0.1502
  762MOL0     C 2790   7.730   1.702   0.350  0.6970 -0.4985 -0.1823
  762MOL0     C 2791   7.616   1.645   0.291 -0.7210  0.6257  0.0145
  762MOL0     C 2792   7.525   1.713   0.213  0.1794  0.2741 -0.6023
  762MOL0     O 2793   7.423   1.640   0.148 -0.5959 -0.0871 -0.2054
  762MOL0     C 2794   7.354   1.692   0.030 -0.2727  0.2844 -0.2807
  762MOL0     C 2795   7.447   1.710  -0.096  1.3643 -0.0758 -0.1868
  762MOL0     C 2796   7.535   1.601  -0.145  0.3307  0.4811 -0.4967
  762MOL0     C 2797   7.468   1.526  -0.266 -0.1749  0.2363 -0.3326
  762MOL0     C 2798   7.339   1.476  -0.226 -0.5872 -0.4319  0.6972
  762MOL0     C 2799   7.229   1.435  -0.210 -0.1571 -0.5022  0.7514
  762MOL0     C 2800   7.546   1.848   0.213 -0.9841  0.5306 -0.0645
  762MOL0     C 2801   7.651   1.915   0.281  0.7907  0.1718 -0.1861
  762MOL0     C 2802   7.654   2.071   0.276  0.1275 -0.2428 -0.4103
  762MOL0     H 2803   8.073   2.040   0.544 -0.0446  0.8161 -0.6827
  762MOL0     H 2804   8.311   2.059   0.634  0.4654  0.1751 -2.0409
  762MOL0     H 2805   8.582   1.729   0.689 -0.2805  0.8157 -0.0128
  762MOL0     H 2806   8.593   1.771   0.519  0.0556 -0.6126  1.4806
  762MOL0     H 2807   8.708   1.920   0.761  0.1047  0.1415 -0.1225
  762MOL0     H 2808   8.730   1.964   0.584 -0.9099 -0.6717 -0.9562
  762MOL0     H 2809   8.847   1.708   0.598 -2.8068 -0.6212  0.3499
  762MOL0     H 2810   8.848   1.742   0.764 -0.3034 -0.0534 -0.1092
  762MOL0     H 2811   8.977   1.915   0.548 -2.9695 -2.5367 -0.5798
  762MOL0     H 2812   8.967   1.969   0.716  3.3021 -0.6248  0.4850
  762MOL0     H 2813   9.169   1.869   0.719  0.1403 -0.1440 -1.8353
  762MOL0     H 2814   9.072   1.739   0.782  2.5413 -1.6000 -0.1152
  762MOL0     H 2815   9.082   1.614   0.584  1.5165 -1.2415  0.7931
  762MOL0     H 2816   9.159   1.747   0.488  0.2687 -2.5831 -1.1302
  762MOL0     H 2817   9.286   1.573   0.699  1.0668 -0.0991  1.1038
  762MOL0     H 2818   9.352   1.730   0.648 -1.0362  0.2867 -0.4616
  762MOL0     H 2819   9.307   1.487   0.479  0.0853 -1.1243 -0.2183
  762MOL0     H 2820   9.338   1.647   0.406 -0.7556 -1.4546  0.4925
  762MOL0     H 2821   9.498   1.389   0.645 -1.4062 -0.0220 -0.1123
  762MOL0     H 2822   9.825   1.420   0.729  0.5113 -1.2457 -0.2826
  762MOL0     H 2823   9.780   1.298   0.613 -1.3436 -0.6919  3.5524
  762MOL0     H 2824   9.951   1.536   0.563  0.6621 -1.1166  3.0993
  762MOL0     H 2825   9.997   1.366   0.579  0.9307  0.8482 -2.1607
  762MOL0     H 2826   9.858   1.506   0.351 -2.9424 -1.7073  0.4206
  762MOL0     H 2827   9.870   1.319   0.366  0.9811  0.0743 -2.3866
  762MOL0     H 2828  10.112   1.489   0.372  0.2226 -0.8388 -1.5961
  762MOL0     H 2829  10.016   1.457   0.222 -3.4552 -0.6737 -0.6137
  762MOL0     H 2830  10.288   1.125   0.399  1.2874 -0.5533 -0.5440
  762MOL0     H 2831  10.505   1.063   0.281  0.7209  0.9904 -2.2057
  762MOL0     H 2832  10.698   1.095  -0.190  1.4473 -1.9066 -3.4072
  762MOL0     H 2833  10.887   1.033  -0.314  1.0040 -2.6251  2.4900
  762MOL0     H 2834  11.255   1.024  -0.293 -1.8279 -3.6337  0.3390
  762MOL0     H 2835  11.092   0.976  -0.353 -0.4999 -1.1373  0.5309
  762MOL0     H 2836  11.143   1.076  -0.558  1.8340  1.3285 -0.9809
  762MOL0     H 2837  11.307   1.122  -0.488  0.8320 -0.8467  1.5618
  762MOL0     H 2838  11.386   0.899  -0.502  0.1218 -1.4912 -1.9435
  762MOL0     H 2839  11.223   0.832  -0.534 -0.1576 -0.0254 -3.3839
  762MOL0     H 2840  11.387   1.006  -0.707 -0.8623  1.5666  4.4413
  762MOL0     H 2841  11.227   0.948  -0.747 -0.4059 -0.6716  0.2388
  762MOL0     H 2842  11.294   0.712  -0.727 -0.0330 -0.0100  1.6996
  762MOL0     H 2843  11.449   0.747  -0.666 -0.1613 -1.8051  0.6316
  762MOL0     H 2844  11.453   0.678  -0.905  0.4106  0.8272 -2.1853
  762MOL0     H 2845  11.375   0.830  -0.942  2.5416 -0.4912 -2.7112
  762MOL0     H 2846  11.647   0.828  -0.793  0.3432 -0.2480  0.5378
  762MOL0     H 2847  11.555   0.962  -0.869 -0.6382 -0.0511 -1.5560
  762MOL0     H 2848  11.737   0.923  -0.979 -0.8913  0.0929  0.6176
  762MOL0     H 2849  11.710   0.755  -1.009 -1.0840 -1.1039  4.0046
  762MOL0     H 2850  11.106   1.352  -0.119 -0.9015  0.7740 -1.1398
  762MOL0     H 2851  10.894   1.402   0.018  0.0905  0.6171 -0.3652
  762MOL0     H 2852  10.472   1.412   0.052  0.6191  1.5860  1.6179
  762MOL0     H 2853  10.239   1.462   0.158 -2.5873 -1.2702  2.2000
  762MOL0     H 2854   8.386   1.655   0.513  2.3219  2.1102  2.9818
  762MOL0     H 2855   8.159   1.645   0.420 -0.0320 -1.7470  3.5259
  762MOL0     H 2856   7.800   1.634   0.396  0.6075 -0.5986 -0.1924
  762MOL0     H 2857   7.599   1.538   0.299  0.2350  0.4893  0.3234
  762MOL0     H 2858   7.296   1.780   0.061 -0.4901  0.3200 -0.7758
  762MOL0     H 2859   7.280   1.618  -0.000  0.0848  0.3393 -1.3265
  762MOL0     H 2860   7.524   1.784  -0.071  0.0390  1.6099 -0.8462
  762MOL0     H 2861   7.376   1.744  -0.172  0.0334 -0.1495  0.9722
  762MOL0     H 2862   7.544   1.524  -0.068  2.8760 -1.2322 -2.3598
  762MOL0     H 2863   7.636   1.638  -0.163  0.9420 -1.5256 -1.5776
  762MOL0     H 2864   7.460   1.596  -0.350  2.7875  1.3931  0.2355
  762MOL0     H 2865   7.535   1.448  -0.304  0.0344 -0.0724  0.6434
  762MOL0     H 2866   7.125   1.409  -0.207 -0.6978  1.5331  1.7337
  762MOL0     H 2867   7.476   1.907   0.155  0.3310  2.6433  0.3519
  762MOL0     H 2868   7.555   2.113   0.252  0.1514 -1.2181 -2.3637
  762MOL0     H 2869   7.689   2.106   0.373  0.8792 -2.5668  0.2181
  762MOL0     H 2870   7.719   2.106   0.196 -3.2313  2.0714 -2.3948
  763MOL0     O 2871   5.226  11.183  10.158  0.7415 -0.1283 -0.3115
  763MOL0     C 2872   5.246  11.288  10.091  0.2722  1.1266 -0.6176
  763MOL0     O 2873   5.357  11.328  10.024  0.2007  0.2066 -0.2046
  763MOL0     C 2874   5.479  11.272  10.053 -0.0324 -0.5797 -0.2316
  763MOL0     C 2875   5.520  11.246  10.189  0.3100  1.1156  0.7806
  763MOL0     C 2876   5.646  11.199  10.209 -0.6622 -0.0160  1.3217
  763MOL0     C 2877   5.736  11.176  10.110 -0.8311 -0.2222  0.3387
  763MOL0     O 2878   5.863  11.124  10.150 -0.5408  0.1135 -0.2300
  763MOL0     C 2879   5.972  11.135  10.058 -0.4398  0.2019  0.5256
  763MOL0     C 2880   6.104  11.059  10.100 -0.8196  0.0429  0.6462
  763MOL0     C 2881   6.184  11.135  10.201 -0.3022 -0.0006  0.3694
  763MOL0     C 2882   6.309  11.058  10.231  0.3824 -0.0734 -0.1274
  763MOL0     C 2883   6.374  11.129  10.349 -0.0497  0.2850  0.1067
  763MOL0     C 2884   6.514  11.075  10.375  0.9514 -0.4875 -0.3993
  763MOL0     C 2885   6.490  10.940  10.439 -0.7009 -0.2176 -1.5556
  763MOL0     C 2886   6.627  10.892  10.488 -0.2421 -0.5282  0.5540
  763MOL0     N 2887   6.620  10.773  10.572  0.4671  0.1006 -0.9220
  763MOL0     C 2888   6.590  10.648  10.525  0.1187 -0.8625 -0.1606
  763MOL0     C 2889   6.551  10.574  10.635  1.0745  0.2586  0.5914
  763MOL0     C 2890   6.490  10.435  10.616  0.0236  0.0959  0.1762
  763MOL0     C 2891   6.585  10.337  10.552 -0.5847  0.1663  0.3051
  763MOL0     C 2892   6.704  10.326  10.642 -0.0119 -0.6977 -0.1523
  763MOL0     C 2893   6.782  10.196  10.625 -0.9385 -0.5508  0.7274
  763MOL0     O 2894   6.821  10.180  10.488 -0.7038 -0.2323  0.1533
  763MOL0     C 2895   6.853  10.049  10.450  0.2056  0.9488 -0.4007
  763MOL0     C 2896   6.882   9.937  10.538 -0.6829  0.0198  0.3246
  763MOL0     C 2897   6.928   9.814  10.490  0.8903 -0.6668  0.0202
  763MOL0     C 2898   6.942   9.797  10.350  0.4571 -0.0644  0.3478
  763MOL0     C 2899   6.993   9.665  10.305  0.7755  1.3863  0.2438
  763MOL0     O 2900   7.069   9.670  10.192 -0.0486  0.2380  0.5065
  763MOL0     C 2901   7.196   9.624  10.212  0.3364 -0.2979 -0.7507
  763MOL0     C 2902   7.246   9.527  10.131  0.0408  0.4440 -0.0412
  763MOL0     C 2903   7.376   9.485  10.144  0.2909 -0.7754 -0.1237
  763MOL0     C 2904   7.472   9.544  10.234  0.3029 -0.3957  0.3454
  763MOL0     O 2905   7.604   9.512  10.239  0.1874 -0.2364  0.0497
  763MOL0     C 2906   7.661   9.422  10.128  0.3212 -1.0544 -0.2148
  763MOL0     C 2907   7.810   9.396  10.139 -0.3865 -0.2305 -0.1798
  763MOL0     C 2908   7.883   9.531  10.135  0.5658  0.3834  0.7353
  763MOL0     C 2909   8.034   9.508  10.111 -0.3367  0.6960 -0.1248
  763MOL0     C 2910   8.116   9.634  10.127  0.4090 -0.0054 -0.1958
  763MOL0     C 2911   8.267   9.614  10.118 -0.0979  0.2025 -0.4948
  763MOL0     C 2912   8.355   9.732  10.179  0.6853  0.7936  0.6700
  763MOL0     C 2913   8.349   9.869  10.091 -0.7211  0.1691 -0.4280
  763MOL0    Cl 2914   8.457   9.984  10.183 -0.3081  0.2395 -0.4172
  763MOL0     C 2915   7.421   9.647  10.316  0.1609  0.0464  0.4414
  763MOL0     C 2916   7.286   9.683  10.304  0.6320 -0.1426  0.6640
  763MOL0     O 2917   6.987   9.564  10.381  0.1071  0.4768 -0.6203
  763MOL0     C 2918   6.918   9.900  10.264 -0.1496  0.3735 -0.2534
  763MOL0     C 2919   6.873  10.027  10.316 -0.1644 -0.0630  0.1016
  763MOL0     N 2920   6.568  10.658  10.743  0.0988  0.1615 -0.4877
  763MOL0     N 2921   6.601  10.774  10.707 -0.0094  0.5265  0.4151
  763MOL0     C 2922   5.706  11.212   9.971  0.3896 -0.2438 -0.7088
  763MOL0     C 2923   5.574  11.266   9.951  0.1995 -0.4877  0.2656
  763MOL0     C 2924   5.113  11.358  10.057 -0.0944 -0.4824  0.0951
  763MOL0     C 2925   5.107  11.414   9.935  0.9262  0.1141  0.1692
  763MOL0     C 2926   4.999  11.481   9.878  0.4212  0.8066 -0.4629
  763MOL0     C 2927   4.884  11.482   9.952  0.0367 -0.7192  0.3166
  763MOL0     O 2928   4.770  11.539   9.898 -0.2542 -0.3070  0.5081
  763MOL0     C 2929   4.648  11.538   9.964  0.2881 -0.0942  0.0157
  763MOL0     C 2930   4.536  11.593   9.873 -0.6897  0.0465  0.6413
  763MOL0     C 2931   4.566  11.561   9.727  0.0251 -0.1528 -0.4111
  763MOL0     C 2932   4.444  11.585   9.645 -0.7587 -0.7165 -0.6473
  763MOL0     C 2933   4.389  11.723   9.653 -0.0551 -0.4160 -0.3154
  763MOL0     C 2934   4.347  11.832   9.672  0.1375  0.1970 -0.7690
  763MOL0     C 2935   4.886  11.442  10.088 -0.2823  1.0249 -0.1591
  763MOL0     C 2936   4.995  11.363  10.134 -0.4930 -0.1989  1.1482
  763MOL0     C 2937   4.977  11.321  10.278  1.1710  0.6375  0.0329
  763MOL0     H 2938   5.457  11.273  10.273  0.6162  0.3587  1.2605
  763MOL0     H 2939   5.679  11.187  10.311 -0.8309  0.9658  1.5040
  763MOL0     H 2940   5.946  11.088   9.962 -2.6893  2.1313  0.0954
  763MOL0     H 2941   5.999  11.240  10.041  3.6281 -1.0020 -1.9374
  763MOL0     H 2942   6.162  11.042  10.009  1.7480  0.6909  2.0437
  763MOL0     H 2943   6.086  10.958  10.137  1.7218 -0.9872 -0.6713
  763MOL0     H 2944   6.116  11.165  10.281 -1.6969  0.9206 -1.0850
  763MOL0     H 2945   6.223  11.219  10.143  2.1346 -1.1561  0.2221
  763MOL0     H 2946   6.281  10.957  10.264  4.5916 -1.0600  1.0311
  763MOL0     H 2947   6.366  11.059  10.138 -1.2583  1.5214 -1.1769
  763MOL0     H 2948   6.380  11.237  10.339  3.7512  0.1014 -1.0294
  763MOL0     H 2949   6.311  11.114  10.437 -0.7029  1.5779 -0.1131
  763MOL0     H 2950   6.570  11.073  10.281  2.3644  1.5246  0.3193
  763MOL0     H 2951   6.573  11.135  10.444  0.2246  2.2051 -1.9782
  763MOL0     H 2952   6.446  10.869  10.369  0.0208 -1.1108 -1.1150
  763MOL0     H 2953   6.428  10.957  10.527 -0.2138  0.8246 -1.4013
  763MOL0     H 2954   6.686  10.874  10.398  0.5901 -0.0638  0.9963
  763MOL0     H 2955   6.682  10.970  10.541 -1.1581  0.7396 -0.3097
  763MOL0     H 2956   6.564  10.619  10.424 -0.7838  0.3475 -0.2900
  763MOL0     H 2957   6.454  10.400  10.714  0.6810  0.6466  0.6192
  763MOL0     H 2958   6.406  10.449  10.548  0.3539 -1.2010 -0.5305
  763MOL0     H 2959   6.546  10.235  10.546  0.3910 -0.1184 -2.2629
  763MOL0     H 2960   6.618  10.372  10.454  0.3445  2.1326  1.2555
  763MOL0     H 2961   6.672  10.329  10.747 -3.4924 -0.1289 -1.1148
  763MOL0     H 2962   6.768  10.411  10.617 -1.3857 -0.2385 -2.3707
  763MOL0     H 2963   6.738  10.107  10.670  0.5864 -1.6349  0.1949
  763MOL0     H 2964   6.875  10.220  10.677 -0.4403  0.8135 -0.6986
  763MOL0     H 2965   6.881   9.950  10.646 -2.6948  1.1767  0.2194
  763MOL0     H 2966   6.957   9.726  10.547  1.1205 -1.1850 -0.8653
  763MOL0     H 2967   7.188   9.493  10.045  0.7252 -1.6339  0.2776
  763MOL0     H 2968   7.410   9.404  10.080  0.1828 -2.1654  1.5009
  763MOL0     H 2969   7.602   9.332  10.109 -2.5455  0.8994 -1.2265
  763MOL0     H 2970   7.645   9.479  10.036 -0.8620 -1.7454 -0.4588
  763MOL0     H 2971   7.818   9.354  10.240 -4.0916 -1.0941 -0.0762
  763MOL0     H 2972   7.839   9.331  10.056 -1.1608 -1.1686  0.2587
  763MOL0     H 2973   7.851   9.602  10.057  0.9732  1.4324  1.5005
  763MOL0     H 2974   7.860   9.590  10.224 -0.1136  0.7869  0.3076
  763MOL0     H 2975   8.054   9.483  10.006  0.1410 -2.9462  0.6984
  763MOL0     H 2976   8.069   9.425  10.173  1.9656  1.7472  0.1132
  763MOL0     H 2977   8.079   9.682  10.218 -1.3194  0.9319 -1.3293
  763MOL0     H 2978   8.093   9.697  10.041  1.4807 -0.5373 -0.9001
  763MOL0     H 2979   8.290   9.522  10.172  1.9764 -0.7662 -2.8541
  763MOL0     H 2980   8.297   9.591  10.016  1.1659 -0.1826 -0.0522
  763MOL0     H 2981   8.453   9.688  10.198  1.2425  1.3679 -0.7411
  763MOL0     H 2982   8.311   9.749  10.278 -2.6157 -1.1422 -0.3106
  763MOL0     H 2983   8.384   9.861   9.988  2.5843  0.5490  0.5407
  763MOL0     H 2984   8.245   9.902  10.086 -0.7016  0.3869  0.4439
  763MOL0     H 2985   7.486   9.709  10.377  0.3262  0.9495 -0.6166
  763MOL0     H 2986   7.233   9.759  10.360 -0.4391  0.3590 -0.9388
  763MOL0     H 2987   6.926   9.888  10.157 -0.7446 -0.0232 -0.2606
  763MOL0     H 2988   6.856  10.099  10.236 -0.1496 -0.4057 -0.2167
  763MOL0     H 2989   5.778  11.193   9.892  0.7186  1.2095 -0.7829
  763MOL0     H 2990   5.538  11.303   9.856  0.8361  2.9715  1.1959
  763MOL0     H 2991   5.183  11.407   9.858 -0.8166 -1.1342 -1.5600
  763MOL0     H 2992   4.990  11.506   9.773  1.0963 -0.5947 -0.8726
  763MOL0     H 2993   4.648  11.594  10.058  3.1495 -1.6301  1.0519
  763MOL0     H 2994   4.620  11.434   9.984 -0.5556 -0.6965 -3.5473
  763MOL0     H 2995   4.526  11.701   9.881 -2.9660  0.2822 -2.9817
  763MOL0     H 2996   4.439  11.549   9.900 -0.8019 -0.1065  0.0184
  763MOL0     H 2997   4.585  11.454   9.718 -0.8874 -0.4363  0.6931
  763MOL0     H 2998   4.648  11.622   9.688  0.7314 -1.5407 -1.1639
  763MOL0     H 2999   4.479  11.564   9.543  2.6620  1.1072  0.0238
  763MOL0     H 3000   4.360  11.517   9.663 -2.4658  0.7455 -2.6189
  763MOL0     H 3001   4.314  11.930   9.701  1.7326  0.5640 -0.0912
  763MOL0     H 3002   4.794  11.448  10.145 -0.1022 -1.4517  0.5010
  763MOL0     H 3003   5.072  11.319  10.331  1.4472 -1.1806 -0.4636
  763MOL0     H 3004   4.903  11.385  10.327  0.0938 -1.1448  0.8377
  763MOL0     H 3005   4.935  11.221  10.292 -1.9555  2.0257  1.4713
  764MOL0     O 3006   7.677   5.115  10.332 -0.8657 -0.0802  0.1617
  764MOL0     C 3007   7.631   5.183  10.421 -0.1137  0.4318 -0.1865
  764MOL0     O 3008   7.691   5.283  10.494  0.8087 -0.1845  0.2009
  764MOL0     C 3009   7.829   5.299  10.503  0.4892  0.2284 -0.8049
  764MOL0     C 3010   7.925   5.262  10.414  0.4832 -0.6538 -0.2074
  764MOL0     C 3011   8.063   5.263  10.440  0.7803 -0.4218  0.4358
  764MOL0     C 3012   8.108   5.325  10.553 -0.2405  0.3539  0.5545
  764MOL0     O 3013   8.243   5.338  10.573 -0.3232  0.2618 -0.4222
  764MOL0     C 3014   8.284   5.457  10.643 -0.3063 -0.2993  0.6301
  764MOL0     C 3015   8.436   5.472  10.622  0.4020  0.3545  0.9801
  764MOL0     C 3016   8.490   5.599  10.687 -1.0060  0.0635 -0.6085
  764MOL0     C 3017   8.645   5.615  10.677 -0.3054 -0.5227 -0.6211
  764MOL0     C 3018   8.704   5.727  10.772 -0.3242 -0.1992 -0.8685
  764MOL0     C 3019   8.681   5.866  10.700  0.0199 -0.0050 -0.7781
  764MOL0     C 3020   8.700   5.991  10.788 -0.1518  0.5683 -0.2395
  764MOL0     C 3021   8.854   5.996  10.823 -0.2412  0.6731  0.5745
  764MOL0     N 3022   8.931   6.034  10.701  0.2399  0.7713 -0.0813
  764MOL0     C 3023   9.060   5.981  10.685  0.2072 -0.1735 -0.7460
  764MOL0     C 3024   9.094   6.016  10.558  0.7539  0.3808  0.5463
  764MOL0     C 3025   9.220   5.962  10.487  0.0472  0.0444  0.0961
  764MOL0     C 3026   9.318   6.066  10.448 -0.5134  0.4436 -0.3890
  764MOL0     C 3027   9.381   6.156  10.562 -0.2094  0.2288 -0.4655
  764MOL0     C 3028   9.512   6.225  10.539  0.1803 -0.0257 -0.1569
  764MOL0     O 3029   9.621   6.131  10.561  0.0713 -0.6957  0.2127
  764MOL0     C 3030   9.759   6.166  10.548  0.4232  0.6515  1.0198
  764MOL0     C 3031   9.806   6.295  10.522 -0.2248  0.1058  0.1318
  764MOL0     C 3032   9.944   6.328  10.511 -0.2876  0.1520 -0.5614
  764MOL0     C 3033  10.041   6.226  10.510  0.4929  0.0716 -0.5249
  764MOL0     C 3034  10.178   6.262  10.483 -0.0483  0.2177  0.2649
  764MOL0     O 3035  10.278   6.168  10.513 -0.5418 -0.2871 -0.2231
  764MOL0     C 3036  10.407   6.200  10.495  0.1579 -0.0055 -0.2107
  764MOL0     C 3037  10.484   6.094  10.454  0.2656  0.1102  0.4126
  764MOL0     C 3038  10.628   6.104  10.432  0.2126 -0.1349  0.1662
  764MOL0     C 3039  10.689   6.230  10.461  0.6183  0.4514 -0.5237
  764MOL0     O 3040  10.817   6.264  10.442  0.1980 -0.2351  0.3907
  764MOL0     C 3041  10.907   6.165  10.414  0.8207  0.2540 -0.6377
  764MOL0     C 3042  11.031   6.246  10.376  0.7349  0.2476  0.1668
  764MOL0     C 3043  11.132   6.166  10.300  0.0629  0.1458 -0.1464
  764MOL0     C 3044  11.084   6.127  10.156 -0.2799  0.2528 -0.6758
  764MOL0     C 3045  11.152   6.207  10.047 -0.4447  0.3152 -0.4023
  764MOL0     C 3046  11.161   6.122   9.910 -0.0805 -0.4156 -0.2310
  764MOL0     C 3047  11.230   6.202   9.794 -0.1247 -0.2777 -0.3401
  764MOL0     C 3048  11.382   6.233   9.816  0.7169  0.5679 -1.1815
  764MOL0    Cl 3049  11.466   6.071   9.819  0.1817  0.1435 -0.3001
  764MOL0     C 3050  10.599   6.341  10.503 -0.7430  0.5697 -0.1061
  764MOL0     C 3051  10.464   6.320  10.529  0.1545 -0.6751 -0.2766
  764MOL0     O 3052  10.198   6.369  10.421  0.2756 -0.4210  0.3118
  764MOL0     C 3053   9.999   6.092  10.525 -0.8082 -0.2690  0.0494
  764MOL0     C 3054   9.856   6.065  10.551 -0.7826 -0.8318  0.4406
  764MOL0     N 3055   8.987   6.084  10.507  0.1400 -0.2008 -0.0299
  764MOL0     N 3056   8.888   6.104  10.591 -1.0504 -0.4139  0.2439
  764MOL0     C 3057   8.015   5.378  10.649 -0.7016 -0.1861  0.4773
  764MOL0     C 3058   7.874   5.359  10.628 -0.5472 -0.5438  0.3723
  764MOL0     C 3059   7.490   5.163  10.432 -0.1411 -0.6430  0.6918
  764MOL0     C 3060   7.412   5.180  10.311  0.0218  0.4573 -0.2896
  764MOL0     C 3061   7.276   5.171  10.316  0.9219  0.7615  0.3228
  764MOL0     C 3062   7.201   5.151  10.439 -0.3017  0.0170  0.6346
  764MOL0     O 3063   7.058   5.144  10.455 -1.0710 -0.0898  0.4328
  764MOL0     C 3064   6.986   5.233  10.377 -0.6456  1.0974  0.4318
  764MOL0     C 3065   6.898   5.163  10.278 -0.0058 -0.0612 -0.1893
  764MOL0     C 3066   6.797   5.054  10.338  0.0822 -0.8647  1.5209
  764MOL0     C 3067   6.734   4.966  10.222 -0.5277 -0.5850  0.3119
  764MOL0     C 3068   6.634   4.877  10.272 -0.5691  0.8976  0.0341
  764MOL0     C 3069   6.534   4.809  10.305  0.3551 -0.4137  0.0555
  764MOL0     C 3070   7.276   5.136  10.551 -0.0743 -0.2686  0.6457
  764MOL0     C 3071   7.421   5.138  10.550  0.1538  0.7918  0.0153
  764MOL0     C 3072   7.487   5.086  10.675 -0.1275  0.3063 -0.2551
  764MOL0     H 3073   7.889   5.225  10.319 -1.2539 -0.8808  0.4942
  764MOL0     H 3074   8.138   5.229  10.370  0.1481 -1.4640  0.2412
  764MOL0     H 3075   8.232   5.544  10.604  1.4055 -0.2617 -1.8197
  764MOL0     H 3076   8.273   5.446  10.751  1.2832 -0.7170  0.7821
  764MOL0     H 3077   8.446   5.471  10.513 -1.4396 -0.4916  0.7782
  764MOL0     H 3078   8.490   5.384  10.660 -0.6937 -1.8448 -2.1368
  764MOL0     H 3079   8.459   5.612  10.791 -0.0575  0.2342 -0.3361
  764MOL0     H 3080   8.443   5.683  10.636 -0.4733  0.3460 -0.6334
  764MOL0     H 3081   8.695   5.521  10.704 -0.9840  0.1752  4.0609
  764MOL0     H 3082   8.675   5.640  10.575 -1.1182 -1.5705 -1.1369
  764MOL0     H 3083   8.662   5.716  10.872 -2.6267  0.7591 -1.6658
  764MOL0     H 3084   8.809   5.698  10.783 -0.4817 -0.8777 -1.0709
  764MOL0     H 3085   8.745   5.865  10.612 -1.9571 -1.1994 -2.2760
  764MOL0     H 3086   8.575   5.872  10.672  0.1214  1.5893 -0.9024
  764MOL0     H 3087   8.645   5.992  10.882 -1.6606 -1.7095 -1.0392
  764MOL0     H 3088   8.667   6.078  10.730  1.3406 -0.1671 -2.3383
  764MOL0     H 3089   8.871   6.083  10.888  2.0256  0.0431  0.9074
  764MOL0     H 3090   8.896   5.904  10.864  4.6645  1.1933 -2.4641
  764MOL0     H 3091   9.124   5.915  10.743  3.7255  0.4070 -3.5476
  764MOL0     H 3092   9.266   5.890  10.556  1.7840  1.3124  0.3549
  764MOL0     H 3093   9.172   5.902  10.410 -0.6850 -1.2790  1.5181
  764MOL0     H 3094   9.403   6.019  10.397  0.4341 -0.3589  1.8252
  764MOL0     H 3095   9.268   6.139  10.383 -2.5198  0.8698  1.5045
  764MOL0     H 3096   9.406   6.086  10.642 -1.1024  0.8082  0.3328
  764MOL0     H 3097   9.311   6.229  10.604  0.2612 -0.0146  0.7864
  764MOL0     H 3098   9.516   6.321  10.591  3.5552 -1.0044  1.6467
  764MOL0     H 3099   9.519   6.226  10.430  0.2932 -1.7034 -0.1904
  764MOL0     H 3100   9.736   6.375  10.499  0.4254  0.5885 -0.2017
  764MOL0     H 3101   9.967   6.431  10.487  0.4094  0.2114  0.3217
  764MOL0     H 3102  10.431   6.000  10.442 -0.7449  0.9188 -2.0037
  764MOL0     H 3103  10.688   6.033  10.377  1.8174  1.7001 -0.5836
  764MOL0     H 3104  10.922   6.097  10.499 -1.2582 -3.1397 -2.7120
  764MOL0     H 3105  10.879   6.102  10.329 -1.9672  1.9468 -1.1188
  764MOL0     H 3106  11.003   6.330  10.312 -3.9973 -1.9462 -1.0733
  764MOL0     H 3107  11.074   6.292  10.465 -1.5515 -0.3147  1.6364
  764MOL0     H 3108  11.227   6.221  10.296 -0.3138  0.8796  0.7622
  764MOL0     H 3109  11.147   6.069  10.350 -1.0556 -0.7822 -1.5233
  764MOL0     H 3110  10.977   6.143  10.146 -0.4947  1.6235  2.4416
  764MOL0     H 3111  11.116   6.023  10.147 -0.0769  0.1737  0.6724
  764MOL0     H 3112  11.255   6.222  10.080 -0.9932 -1.2469  2.2857
  764MOL0     H 3113  11.104   6.305  10.032 -0.1351  0.3645 -1.0991
  764MOL0     H 3114  11.209   6.024   9.919  2.1658  0.5972 -0.4568
  764MOL0     H 3115  11.058   6.096   9.885 -0.6675  0.7711  0.8232
  764MOL0     H 3116  11.177   6.298   9.791  1.0820  0.5784  2.1958
  764MOL0     H 3117  11.212   6.139   9.707 -0.6949 -1.7637  0.8020
  764MOL0     H 3118  11.420   6.303   9.741 -0.6613  2.2961 -0.3332
  764MOL0     H 3119  11.379   6.277   9.916 -2.3003 -2.8456  0.4390
  764MOL0     H 3120  10.637   6.442  10.513  1.3572 -0.1568 -0.1554
  764MOL0     H 3121  10.410   6.410  10.556 -0.9993 -1.8599  1.6763
  764MOL0     H 3122  10.066   6.008  10.514 -3.0460 -2.2086  0.5356
  764MOL0     H 3123   9.830   5.960  10.558 -2.5623 -0.5213 -0.8990
  764MOL0     H 3124   8.048   5.434  10.736 -0.9866 -0.6790  0.9099
  764MOL0     H 3125   7.797   5.395  10.695 -0.2064 -0.7668  0.9009
  764MOL0     H 3126   7.465   5.190  10.217  0.5468 -0.0616 -0.0551
  764MOL0     H 3127   7.228   5.192  10.221 -0.9931 -2.2846  0.5157
  764MOL0     H 3128   7.058   5.297  10.325  1.2868 -0.3499  1.1811
  764MOL0     H 3129   6.915   5.289  10.439 -3.0193  1.9874 -2.8283
  764MOL0     H 3130   6.960   5.125  10.196  0.4268  1.0498 -0.3834
  764MOL0     H 3131   6.839   5.240  10.227  1.3557  0.9104 -0.3504
  764MOL0     H 3132   6.713   5.097  10.393  0.5906  1.8756  0.3597
  764MOL0     H 3133   6.850   4.984  10.404  1.3866 -0.6220  0.7747
  764MOL0     H 3134   6.692   5.035  10.148  3.3603  0.3670 -1.2953
  764MOL0     H 3135   6.803   4.912  10.157 -2.2154  0.4302 -2.4933
  764MOL0     H 3136   6.448   4.747  10.321 -0.6264  0.9432  0.2147
  764MOL0     H 3137   7.232   5.099  10.643  1.7754 -2.0273  0.8928
  764MOL0     H 3138   7.529   4.986  10.660 -1.0453  0.1443 -1.8979
  764MOL0     H 3139   7.564   5.153  10.714  1.5959 -2.5114  1.6518
  764MOL0     H 3140   7.414   5.079  10.757 -0.4255 -0.5796 -0.5785
  765MOL0     O 3141  10.999   1.851   5.635  0.3745  0.2280  0.2448
  765MOL0     C 3142  10.946   1.913   5.733 -0.5079  0.2669  0.7678
  765MOL0     O 3143  11.015   1.969   5.839 -0.7234 -0.2342  0.2208
  765MOL0     C 3144  11.149   1.983   5.831 -0.5818 -0.5761 -0.8699
  765MOL0     C 3145  11.237   1.882   5.869 -0.4453  0.5412  0.1800
  765MOL0     C 3146  11.377   1.898   5.862  0.7557 -0.1963  0.0552
  765MOL0     C 3147  11.427   2.023   5.834  0.7933 -0.4017  0.3781
  765MOL0     O 3148  11.566   2.044   5.861  0.8890 -0.2308 -0.4867
  765MOL0     C 3149  11.611   2.170   5.809  1.0673  0.1684  0.3323
  765MOL0     C 3150  11.755   2.200   5.809  0.1210  0.1992 -0.0135
  765MOL0     C 3151  11.793   2.332   5.736  0.3873 -0.0461  0.1610
  765MOL0     C 3152  11.747   2.444   5.828  0.3586  0.3157 -0.1537
  765MOL0     C 3153  11.771   2.572   5.754 -0.3521 -0.0872 -0.6508
  765MOL0     C 3154  11.807   2.681   5.857 -0.5967  0.0733 -0.3533
  765MOL0     C 3155  11.942   2.685   5.932 -0.2157  0.2738 -0.1259
  765MOL0     C 3156  11.962   2.784   6.048 -0.1672  0.7220  0.4258
  765MOL0     N 3157  12.105   2.804   6.079  0.0940 -0.7470  0.2099
  765MOL0     C 3158  12.181   2.711   6.135  0.3334  0.5474 -0.5526
  765MOL0     C 3159  12.304   2.774   6.155  0.7038  0.4816 -0.3440
  765MOL0     C 3160  12.429   2.717   6.230  0.6530  0.2987  0.8054
  765MOL0     C 3161  12.556   2.721   6.147  0.1333  0.4055  1.1142
  765MOL0     C 3162  12.659   2.617   6.170  0.3550 -0.3674  0.2854
  765MOL0     C 3163  12.730   2.623   6.304  0.2107  0.4027  0.5491
  765MOL0     O 3164  12.774   2.488   6.328 -0.3998 -0.2577  0.4405
  765MOL0     C 3165  12.903   2.460   6.296 -0.1865  0.8523  0.1610
  765MOL0     C 3166  12.959   2.346   6.345  0.0817  0.3790 -0.0226
  765MOL0     C 3167  13.089   2.308   6.332 -0.5297 -0.3998 -0.0056
  765MOL0     C 3168  13.173   2.394   6.264 -0.4010 -0.1425  0.6224
  765MOL0     C 3169  13.317   2.362   6.252 -0.1527  0.2569  0.5265
  765MOL0     O 3170  13.375   2.399   6.135 -0.4842  0.2824  0.8786
  765MOL0     C 3171  13.515   2.387   6.114 -0.4950 -0.6240 -0.3048
  765MOL0     C 3172  13.582   2.479   6.043  0.6003 -0.4657  0.7076
  765MOL0     C 3173  13.725   2.465   6.018 -0.0891  0.8172  0.0340
  765MOL0     C 3174  13.792   2.350   6.051 -0.1456 -0.1186  0.0077
  765MOL0     O 3175  13.921   2.322   6.011 -0.8652  0.4800  0.6585
  765MOL0     C 3176  14.004   2.432   5.962  0.4116 -0.3435 -0.2182
  765MOL0     C 3177  14.147   2.376   5.969 -1.2396 -0.7057 -0.0374
  765MOL0     C 3178  14.234   2.486   5.913 -0.6218  0.1850 -0.7989
  765MOL0     C 3179  14.377   2.423   5.914 -0.3232  0.2673  0.8832
  765MOL0     C 3180  14.481   2.536   5.892 -0.7560  0.1445  0.0018
  765MOL0     C 3181  14.617   2.489   5.952  1.3779  0.2564  0.2742
  765MOL0     C 3182  14.734   2.569   5.890 -0.2405 -0.0377  0.4055
  765MOL0     C 3183  14.874   2.489   5.906  0.3065 -0.5295 -0.2353
  765MOL0    Cl 3184  14.867   2.350   5.801 -0.2145  0.1353  0.1887
  765MOL0     C 3185  13.726   2.250   6.122  0.0471 -0.2180 -0.6705
  765MOL0     C 3186  13.590   2.269   6.150 -0.4942 -0.8930 -0.3196
  765MOL0     O 3187  13.362   2.292   6.343 -0.1526  0.0991  0.6331
  765MOL0     C 3188  13.117   2.498   6.190 -0.1913 -0.2278 -0.1273
  765MOL0     C 3189  12.981   2.533   6.214  0.1557  0.3344  0.4244
  765MOL0     N 3190  12.293   2.907   6.107  0.0313  0.1605 -0.2281
  765MOL0     N 3191  12.171   2.916   6.066 -0.7429  0.4211 -0.7558
  765MOL0     C 3192  11.339   2.126   5.794 -0.6115  0.0023  0.4681
  765MOL0     C 3193  11.202   2.108   5.793  0.1628 -0.6188 -0.4695
  765MOL0     C 3194  10.805   1.915   5.728  0.5414 -0.1523 -0.4829
  765MOL0     C 3195  10.744   1.791   5.726 -0.0668  1.1724 -0.5607
  765MOL0     C 3196  10.607   1.781   5.755  0.0357 -0.4246 -0.3363
  765MOL0     C 3197  10.535   1.904   5.766 -0.8201  0.1281  0.0546
  765MOL0     O 3198  10.403   1.899   5.812 -0.6917 -0.3479  0.2908
  765MOL0     C 3199  10.303   1.839   5.732 -0.3122  0.7875 -0.8424
  765MOL0     C 3200  10.268   1.937   5.618 -0.1118 -0.5353 -0.9234
  765MOL0     C 3201  10.178   1.856   5.531  0.8237  1.0689  0.8968
  765MOL0     C 3202  10.151   1.930   5.394 -0.3042  0.6319 -1.2347
  765MOL0     C 3203  10.263   1.910   5.304 -0.2344 -0.6045  0.4473
  765MOL0     C 3204  10.360   1.899   5.231  0.1841  0.5687 -0.0406
  765MOL0     C 3205  10.596   2.026   5.757 -0.1451  0.2751  1.1082
  765MOL0     C 3206  10.735   2.031   5.751  0.1131 -0.2908 -0.4998
  765MOL0     C 3207  10.795   2.164   5.737  0.0559  0.8354  0.8341
  765MOL0     H 3208  11.205   1.788   5.913 -1.1254  1.2983  1.3661
  765MOL0     H 3209  11.441   1.814   5.890 -1.1944 -1.7885 -0.0608
  765MOL0     H 3210  11.586   2.175   5.703  0.1169  4.0152  0.5787
  765MOL0     H 3211  11.549   2.249   5.853 -0.8178  0.3719 -2.4365
  765MOL0     H 3212  11.811   2.111   5.780 -0.2492  0.7370 -2.6516
  765MOL0     H 3213  11.775   2.214   5.916 -2.9702 -2.6124  1.1125
  765MOL0     H 3214  11.736   2.344   5.643 -0.6818 -3.4854  0.2437
  765MOL0     H 3215  11.901   2.330   5.723  0.6383 -1.7696  1.9895
  765MOL0     H 3216  11.640   2.437   5.851  0.3706  2.3203  0.6908
  765MOL0     H 3217  11.804   2.445   5.921  1.0666  0.4005 -0.5804
  765MOL0     H 3218  11.854   2.568   5.682  0.9216  0.6672  0.7217
  765MOL0     H 3219  11.680   2.602   5.700  0.4803  0.5561 -1.7558
  765MOL0     H 3220  11.799   2.776   5.803  3.1251 -1.4323 -4.0765
  765MOL0     H 3221  11.729   2.681   5.934 -0.4568  0.9722 -0.2065
  765MOL0     H 3222  12.005   2.710   5.845  0.1045  0.3173  0.1163
  765MOL0     H 3223  11.957   2.584   5.972 -3.3064 -1.2852 -2.4225
  765MOL0     H 3224  11.926   2.881   6.012  0.3751  0.7616 -0.0283
  765MOL0     H 3225  11.908   2.745   6.135  0.8210 -2.6430 -0.2898
  765MOL0     H 3226  12.155   2.611   6.166  0.1125 -0.3320 -3.2715
  765MOL0     H 3227  12.454   2.766   6.324  2.9512  1.3695 -0.3052
  765MOL0     H 3228  12.413   2.609   6.242  1.1205  0.2087  0.6150
  765MOL0     H 3229  12.545   2.714   6.039  0.3188 -0.1437  1.1279
  765MOL0     H 3230  12.598   2.818   6.176 -0.6468  0.5754  1.7227
  765MOL0     H 3231  12.734   2.611   6.091  0.0346 -1.9828  0.0532
  765MOL0     H 3232  12.610   2.519   6.159  2.5998 -1.3634 -1.6505
  765MOL0     H 3233  12.652   2.638   6.379  0.9240  2.0190  1.0112
  765MOL0     H 3234  12.803   2.704   6.316 -1.4628  1.8782  1.2378
  765MOL0     H 3235  12.900   2.278   6.405  0.7858 -1.1640 -1.0021
  765MOL0     H 3236  13.138   2.220   6.373 -0.0417  0.3314  1.0288
  765MOL0     H 3237  13.523   2.566   6.015  1.5832  0.5702  1.7896
  765MOL0     H 3238  13.780   2.543   5.967  1.0313  0.8404  1.2239
  765MOL0     H 3239  13.977   2.454   5.858  3.6400  1.0330 -0.8813
  765MOL0     H 3240  13.991   2.519   6.027 -3.6360 -2.0933  1.6629
  765MOL0     H 3241  14.178   2.369   6.074 -0.5406 -1.1541 -0.2720
  765MOL0     H 3242  14.171   2.282   5.919  3.6229 -0.6321  1.6203
  765MOL0     H 3243  14.202   2.499   5.810 -1.9922 -0.1886 -0.4389
  765MOL0     H 3244  14.218   2.576   5.973 -0.1179  1.9122 -3.1311
  765MOL0     H 3245  14.390   2.341   5.843 -0.0437  1.1816 -0.1632
  765MOL0     H 3246  14.410   2.383   6.010 -1.0718  0.9605  1.4360
  765MOL0     H 3247  14.452   2.627   5.945  2.1197  0.4851  1.2062
  765MOL0     H 3248  14.486   2.554   5.784  2.8391 -1.7869 -0.3041
  765MOL0     H 3249  14.619   2.499   6.061  2.5901 -0.8149  0.3848
  765MOL0     H 3250  14.640   2.384   5.931  2.4004  0.3405  0.9334
  765MOL0     H 3251  14.745   2.667   5.938  2.3717  0.6254 -1.3508
  765MOL0     H 3252  14.715   2.598   5.786  0.3224 -1.3441 -0.0789
  765MOL0     H 3253  14.954   2.553   5.867  2.2321 -1.8379  1.3918
  765MOL0     H 3254  14.893   2.466   6.011  0.9822 -0.1167 -0.2617
  765MOL0     H 3255  13.770   2.153   6.145  3.0502  1.1252 -0.3084
  765MOL0     H 3256  13.542   2.193   6.210 -0.3552  1.2485  2.7154
  765MOL0     H 3257  13.178   2.571   6.138 -2.4143 -0.0668 -2.7796
  765MOL0     H 3258  12.941   2.619   6.160  1.3364  1.8506  1.8385
  765MOL0     H 3259  11.371   2.226   5.766  0.8588 -0.0614  1.7861
  765MOL0     H 3260  11.134   2.184   5.757  0.9727  0.4137  0.1565
  765MOL0     H 3261  10.804   1.701   5.717 -2.2740 -0.2731 -1.9235
  765MOL0     H 3262  10.552   1.689   5.769 -0.2174 -0.4897 -1.6604
  765MOL0     H 3263  10.208   1.827   5.787  0.2747  2.5217  0.6517
  765MOL0     H 3264  10.334   1.740   5.697 -1.3499 -0.1306  0.6936
  765MOL0     H 3265  10.360   1.973   5.571 -1.1840  2.0143 -1.2486
  765MOL0     H 3266  10.218   2.026   5.658  2.7873  1.0367 -0.5451
  765MOL0     H 3267  10.084   1.832   5.581 -1.9491  0.2669 -4.0444
  765MOL0     H 3268  10.215   1.756   5.507 -2.2694 -0.5908  2.5092
  765MOL0     H 3269  10.066   1.883   5.345 -1.0354 -0.1140  0.6658
  765MOL0     H 3270  10.131   2.037   5.408 -0.8060  0.4659 -0.6575
  765MOL0     H 3271  10.451   1.896   5.174  0.5862  1.7914  0.4842
  765MOL0     H 3272  10.531   2.113   5.766 -0.4480  0.1087  0.6077
  765MOL0     H 3273  10.734   2.224   5.669  0.1056  0.1980  0.2190
  765MOL0     H 3274  10.785   2.214   5.834  1.5294  0.5759  1.1458
  765MOL0     H 3275  10.900   2.164   5.708 -0.7842  1.6950 -2.6269
  766MOL0     O 3276   9.247   4.528   8.259 -0.2589  0.5911 -0.0432
  766MOL0     C 3277   9.161   4.575   8.192 -0.7738  0.3165  0.3230
  766MOL0     O 3278   9.171   4.583   8.055 -0.2780 -0.5577  0.0743
  766MOL0     C 3279   9.278   4.532   7.982  0.8110  0.2599  0.0675
  766MOL0     C 3280   9.349   4.620   7.901  0.3759  0.3378 -0.9995
  766MOL0     C 3281   9.452   4.579   7.822 -0.0361  0.7974  0.2281
  766MOL0     C 3282   9.482   4.447   7.817 -0.6610  1.1362 -0.7902
  766MOL0     O 3283   9.590   4.422   7.733 -0.5475  0.7161  0.0730
  766MOL0     C 3284   9.611   4.289   7.686  0.0635 -0.7654 -0.3378
  766MOL0     C 3285   9.714   4.263   7.572  0.4468 -0.2697  0.0470
  766MOL0     C 3286   9.852   4.262   7.629 -0.8317  0.1899  0.7564
  766MOL0     C 3287   9.965   4.223   7.534  0.7205  0.6169  0.3908
  766MOL0     C 3288  10.096   4.203   7.601 -0.1387  0.0419  0.1031
  766MOL0     C 3289  10.219   4.202   7.504 -0.3048  0.0356  0.2496
  766MOL0     C 3290  10.352   4.171   7.573  0.1545  0.1220  0.2686
  766MOL0     C 3291  10.473   4.191   7.486  0.4813 -0.0306  0.2692
  766MOL0     N 3292  10.593   4.155   7.561  0.2234 -0.4685  0.7531
  766MOL0     C 3293  10.671   4.244   7.624 -0.5168  0.3872 -0.3111
  766MOL0     C 3294  10.766   4.170   7.682 -1.2125 -0.2939 -0.7669
  766MOL0     C 3295  10.874   4.218   7.777  0.2666 -0.0687  0.2046
  766MOL0     C 3296  11.011   4.185   7.719 -0.5123 -0.1509 -0.6866
  766MOL0     C 3297  11.120   4.197   7.825  0.6381 -1.0039 -0.8290
  766MOL0     C 3298  11.257   4.204   7.778 -0.1410  0.5599 -1.0867
  766MOL0     O 3299  11.351   4.223   7.886  0.5669 -0.4586 -0.2211
  766MOL0     C 3300  11.487   4.236   7.849 -0.1312  0.0458 -0.8013
  766MOL0     C 3301  11.581   4.239   7.951  1.0902  0.5754 -0.2004
  766MOL0     C 3302  11.716   4.239   7.918 -0.0779 -0.0820  0.0159
  766MOL0     C 3303  11.766   4.232   7.785 -0.0195 -0.4435 -0.4383
  766MOL0     C 3304  11.910   4.244   7.764 -0.2267 -0.9374 -0.0302
  766MOL0     O 3305  11.939   4.343   7.671 -0.4904 -0.3806  0.2741
  766MOL0     C 3306  12.072   4.366   7.631  0.5823 -0.3689 -0.4586
  766MOL0     C 3307  12.075   4.489   7.565 -0.1132  0.2983 -0.5074
  766MOL0     C 3308  12.189   4.538   7.517 -0.5379  1.3857  0.7375
  766MOL0     C 3309  12.310   4.471   7.526 -0.6128 -0.5501  0.0752
  766MOL0     O 3310  12.424   4.543   7.475  0.4184  0.4347  0.0624
  766MOL0     C 3311  12.554   4.520   7.518 -0.0336  0.2554 -0.4818
  766MOL0     C 3312  12.626   4.405   7.443  0.3583 -0.2817  0.3066
  766MOL0     C 3313  12.638   4.439   7.286 -0.3881  0.7132 -0.1361
  766MOL0     C 3314  12.769   4.518   7.257 -0.1447  0.6358  1.0488
  766MOL0     C 3315  12.786   4.524   7.110 -1.0106 -0.0650 -0.1425
  766MOL0     C 3316  12.904   4.618   7.065  0.1382  0.3606  0.6923
  766MOL0     C 3317  12.907   4.643   6.911 -1.1229 -0.2069  0.5913
  766MOL0     C 3318  13.046   4.694   6.878 -1.1285  0.8698  0.7057
  766MOL0    Cl 3319  13.074   4.834   6.993  0.2801  0.1437 -0.2100
  766MOL0     C 3320  12.312   4.343   7.588  0.1435  0.8517 -0.7034
  766MOL0     C 3321  12.189   4.294   7.647 -0.3742 -0.8322 -0.1315
  766MOL0     O 3322  11.990   4.171   7.828  1.0206  0.0977  0.2064
  766MOL0     C 3323  11.666   4.252   7.689 -0.5183 -0.2498  0.0083
  766MOL0     C 3324  11.532   4.264   7.718 -0.1646  0.3023 -0.5082
  766MOL0     N 3325  10.757   4.046   7.652  0.0407 -0.3191 -0.7187
  766MOL0     N 3326  10.642   4.030   7.589 -0.7836 -0.0397 -0.2426
  766MOL0     C 3327   9.403   4.352   7.894  0.1641 -0.7136 -0.4273
  766MOL0     C 3328   9.303   4.398   7.972 -0.2006 -0.6142 -0.5356
  766MOL0     C 3329   9.046   4.632   8.255  0.1423  0.5229  0.1952
  766MOL0     C 3330   8.932   4.642   8.175  0.0450 -0.1904  0.6099
  766MOL0     C 3331   8.821   4.716   8.220  0.2271 -0.7346 -0.1177
  766MOL0     C 3332   8.820   4.778   8.346  1.2279 -0.1284  0.0060
  766MOL0     O 3333   8.707   4.839   8.397  0.3902 -0.2623  0.3906
  766MOL0     C 3334   8.577   4.782   8.367 -0.3030  0.2071 -1.0679
  766MOL0     C 3335   8.554   4.656   8.452 -0.5708  0.1921 -0.2726
  766MOL0     C 3336   8.546   4.700   8.593 -0.6650 -0.3546 -0.0065
  766MOL0     C 3337   8.571   4.585   8.698 -0.7669  0.8530 -0.1951
  766MOL0     C 3338   8.716   4.541   8.712  0.1989  0.0384 -0.1620
  766MOL0     C 3339   8.826   4.502   8.724 -0.3342 -0.6568 -0.8062
  766MOL0     C 3340   8.925   4.751   8.437  0.4316 -0.9102 -0.2493
  766MOL0     C 3341   9.041   4.686   8.388 -0.0011  0.0063 -0.1041
  766MOL0     C 3342   9.150   4.674   8.499 -0.3195 -0.8531 -0.7973
  766MOL0     H 3343   9.327   4.726   7.915 -2.2766 -0.0666 -1.5929
  766MOL0     H 3344   9.515   4.653   7.775  0.8657  0.0892  0.2833
  766MOL0     H 3345   9.625   4.221   7.770 -0.7991 -0.3876  0.1238
  766MOL0     H 3346   9.517   4.264   7.635 -0.5701 -0.2644  0.5658
  766MOL0     H 3347   9.712   4.336   7.491  0.4321  1.2725  1.3980
  766MOL0     H 3348   9.690   4.162   7.535 -0.9227 -0.1297  0.4858
  766MOL0     H 3349   9.858   4.204   7.722 -1.3196  1.2183  1.4486
  766MOL0     H 3350   9.875   4.361   7.670 -0.1488 -0.7038  2.6497
  766MOL0     H 3351   9.936   4.127   7.489  1.6868  1.3577 -1.9926
  766MOL0     H 3352   9.971   4.300   7.457  0.4378  0.8782  0.6285
  766MOL0     H 3353  10.115   4.291   7.664  2.5350  1.6857 -2.6947
  766MOL0     H 3354  10.093   4.105   7.649 -1.8186 -0.2347 -0.5240
  766MOL0     H 3355  10.211   4.117   7.436  1.4518 -0.6124  0.7898
  766MOL0     H 3356  10.228   4.291   7.441 -3.2630 -0.1236 -0.5293
  766MOL0     H 3357  10.351   4.066   7.603  2.8303 -0.3018 -0.7895
  766MOL0     H 3358  10.364   4.240   7.658 -1.9278  1.3418 -0.3507
  766MOL0     H 3359  10.460   4.119   7.404 -0.2054  0.2051  0.1632
  766MOL0     H 3360  10.484   4.288   7.437  1.2788 -0.4822 -0.4852
  766MOL0     H 3361  10.668   4.352   7.618  0.0054  0.4599  0.5256
  766MOL0     H 3362  10.852   4.323   7.800 -0.9564 -0.0430 -0.9567
  766MOL0     H 3363  10.863   4.164   7.872  0.1035  1.7303  1.2592
  766MOL0     H 3364  11.004   4.082   7.683 -2.3808 -0.5810  0.7738
  766MOL0     H 3365  11.022   4.245   7.628  3.3587  0.8903  0.3001
  766MOL0     H 3366  11.110   4.118   7.901 -0.5523 -2.0640 -2.0339
  766MOL0     H 3367  11.098   4.290   7.878 -1.4644 -2.3383  0.7975
  766MOL0     H 3368  11.239   4.272   7.694 -0.0393  1.5817 -0.2878
  766MOL0     H 3369  11.283   4.106   7.736  0.2725 -0.3468  1.1371
  766MOL0     H 3370  11.551   4.226   8.054  0.4666  1.1073 -0.3100
  766MOL0     H 3371  11.794   4.233   7.994  1.0476 -1.5443 -1.1872
  766MOL0     H 3372  11.985   4.550   7.561  0.0029  0.4505 -0.9328
  766MOL0     H 3373  12.190   4.635   7.469  2.6210  1.4158  0.6798
  766MOL0     H 3374  12.620   4.604   7.491  1.0473 -0.8890 -1.5807
  766MOL0     H 3375  12.541   4.504   7.625  1.1937 -0.1899 -0.3861
  766MOL0     H 3376  12.722   4.373   7.483  0.1645 -1.6180 -0.2226
  766MOL0     H 3377  12.565   4.315   7.455 -1.9802  1.4428  2.4900
  766MOL0     H 3378  12.641   4.338   7.245 -3.1198  0.2698  0.5287
  766MOL0     H 3379  12.543   4.475   7.245 -1.3600 -2.3258 -0.8038
  766MOL0     H 3380  12.854   4.469   7.305 -2.1747 -0.6071  3.6609
  766MOL0     H 3381  12.767   4.622   7.289 -0.2191  0.0630  3.0617
  766MOL0     H 3382  12.698   4.559   7.057 -2.1349  0.2942  1.8533
  766MOL0     H 3383  12.813   4.426   7.071  0.5557  0.3479 -0.1828
  766MOL0     H 3384  12.888   4.715   7.112 -2.9973  1.9391 -3.0460
  766MOL0     H 3385  12.997   4.573   7.101  0.3755  2.0542  2.3572
  766MOL0     H 3386  12.842   4.721   6.871 -0.3980 -1.2659 -2.9645
  766MOL0     H 3387  12.886   4.557   6.847 -2.1862 -0.2419  0.9578
  766MOL0     H 3388  13.126   4.620   6.888  0.6930  2.1817 -2.6289
  766MOL0     H 3389  13.050   4.733   6.776  0.8085  0.5463  0.6159
  766MOL0     H 3390  12.407   4.291   7.582  0.7396  1.9557 -1.0082
  766MOL0     H 3391  12.183   4.202   7.704  3.3481 -0.0529  1.8232
  766MOL0     H 3392  11.679   4.268   7.582 -1.8629 -1.2657 -0.3340
  766MOL0     H 3393  11.468   4.282   7.632  1.4568 -0.6894 -1.9935
  766MOL0     H 3394   9.434   4.248   7.895 -2.4563 -1.5764 -0.6591
  766MOL0     H 3395   9.247   4.328   8.033 -0.4515 -0.3469 -0.4563
  766MOL0     H 3396   8.929   4.605   8.073  3.7625  3.2287 -1.0132
  766MOL0     H 3397   8.741   4.725   8.147  2.7827  0.4759 -2.9988
  766MOL0     H 3398   8.555   4.754   8.263 -2.0717 -0.4607 -0.5471
  766MOL0     H 3399   8.514   4.867   8.391 -0.0899  0.4307 -1.2988
  766MOL0     H 3400   8.629   4.577   8.447 -1.0084 -0.2084 -0.6428
  766MOL0     H 3401   8.458   4.612   8.422 -0.6766  0.5121 -0.4123
  766MOL0     H 3402   8.447   4.740   8.616 -1.0180 -1.6018  0.6824
  766MOL0     H 3403   8.613   4.785   8.612 -1.3044  0.1408  0.0523
  766MOL0     H 3404   8.531   4.600   8.799  0.5590 -1.5427  0.7880
  766MOL0     H 3405   8.509   4.502   8.662 -1.5068  1.5970 -0.6728
  766MOL0     H 3406   8.929   4.472   8.722 -0.3116 -1.1820  2.5459
  766MOL0     H 3407   8.914   4.793   8.536 -2.3107  1.7514 -1.4813
  766MOL0     H 3408   9.180   4.569   8.511  0.4868 -0.4874  0.6256
  766MOL0     H 3409   9.239   4.726   8.464 -0.8561 -0.4876 -1.6480
  766MOL0     H 3410   9.112   4.703   8.598 -1.7123 -0.6778 -1.3613
  767MOL0     O 3411   2.624   3.005   1.088 -0.7980 -0.0832  0.2076
  767MOL0     C 3412   2.722   2.984   1.154  0.8623  0.0986 -0.0483
  767MOL0     O 3413   2.725   3.009   1.288  1.0618  0.5379  0.5745
  767MOL0     C 3414   2.615   3.036   1.367  0.7309  0.2389 -0.0519
  767MOL0     C 3415   2.478   3.004   1.331  0.4268  0.1999 -1.0476
  767MOL0     C 3416   2.377   3.043   1.415 -0.8614  0.2218 -0.2539
  767MOL0     C 3417   2.402   3.111   1.539  0.6733 -0.6181 -0.5310
  767MOL0     O 3418   2.294   3.149   1.619 -0.9594  0.1319  0.0930
  767MOL0     C 3419   2.310   3.209   1.753 -0.6317  0.2185 -0.0851
  767MOL0     C 3420   2.177   3.271   1.802 -0.8883  0.0252  0.0690
  767MOL0     C 3421   2.071   3.162   1.832 -0.2344  1.3486  0.9539
  767MOL0     C 3422   1.935   3.226   1.829  0.6327  0.5306  0.2187
  767MOL0     C 3423   1.819   3.136   1.799  0.0530  0.0793  0.4692
  767MOL0     C 3424   1.680   3.209   1.793 -0.5740  0.0314 -0.5361
  767MOL0     C 3425   1.548   3.122   1.810 -0.1455  0.3616  0.9959
  767MOL0     C 3426   1.423   3.211   1.825 -0.3435  0.3508  0.6519
  767MOL0     N 3427   1.306   3.135   1.872 -0.1647  0.3227 -0.4808
  767MOL0     C 3428   1.294   2.997   1.882 -0.7299  0.3812  0.9177
  767MOL0     C 3429   1.175   2.973   1.945  0.6544 -1.1392  0.1780
  767MOL0     C 3430   1.119   2.842   2.008  0.8270  0.8386  0.1341
  767MOL0     C 3431   1.229   2.759   2.071 -0.3295  0.3587  0.6889
  767MOL0     C 3432   1.287   2.822   2.195 -1.0262 -0.0851  0.6083
  767MOL0     C 3433   1.432   2.775   2.216  0.0626  0.0366  0.4357
  767MOL0     O 3434   1.526   2.807   2.111  0.2904 -0.0066 -0.7135
  767MOL0     C 3435   1.658   2.775   2.125 -0.5881 -0.5369  0.5641
  767MOL0     C 3436   1.738   2.811   2.022 -1.1834 -0.7221  1.7249
  767MOL0     C 3437   1.875   2.790   2.021 -0.1756 -0.5368 -0.3262
  767MOL0     C 3438   1.939   2.730   2.131 -0.6109 -0.1140  0.0557
  767MOL0     C 3439   2.081   2.700   2.132 -0.8615 -0.6048  0.4963
  767MOL0     O 3440   2.160   2.729   2.019  0.2199  0.2103  1.0859
  767MOL0     C 3441   2.290   2.681   2.005  0.3509 -0.0390 -1.2293
  767MOL0     C 3442   2.355   2.578   2.079  0.4216  0.3365  0.0818
  767MOL0     C 3443   2.494   2.548   2.061 -0.0061 -1.2314 -0.0917
  767MOL0     C 3444   2.564   2.618   1.961  0.0548 -0.5456  0.2860
  767MOL0     O 3445   2.699   2.610   1.950 -0.1563  0.1288  0.1406
  767MOL0     C 3446   2.766   2.609   1.825  0.7201  0.2181  0.5666
  767MOL0     C 3447   2.887   2.517   1.822 -0.1467  0.1733  0.6242
  767MOL0     C 3448   2.995   2.569   1.918 -0.4743 -0.1258  1.0771
  767MOL0     C 3449   3.122   2.476   1.931  0.4042 -0.2541  0.4770
  767MOL0     C 3450   3.228   2.546   2.013 -0.4412  0.3738  0.3713
  767MOL0     C 3451   3.356   2.465   2.030  0.9232  0.1775  0.9359
  767MOL0     C 3452   3.436   2.442   1.902 -0.5556  0.2879  0.4613
  767MOL0     C 3453   3.577   2.395   1.931 -0.2515  0.6078 -0.3257
  767MOL0    Cl 3454   3.681   2.525   1.999 -0.2062  0.1150  0.4091
  767MOL0     C 3455   2.496   2.710   1.877  0.1888 -0.0642  0.1511
  767MOL0     C 3456   2.362   2.747   1.907 -0.3833 -0.0977 -0.7345
  767MOL0     O 3457   2.121   2.655   2.236  0.2773  0.0774 -0.6914
  767MOL0     C 3458   1.856   2.690   2.246 -0.7104 -0.7070 -0.6678
  767MOL0     C 3459   1.718   2.726   2.239  0.1669  1.2470 -0.6610
  767MOL0     N 3460   1.121   3.100   1.969  0.2681  0.8894  0.1438
  767MOL0     N 3461   1.196   3.194   1.929  0.5635  0.1604 -0.6161
  767MOL0     C 3462   2.536   3.144   1.564  1.2118  0.0398 -0.2268
  767MOL0     C 3463   2.635   3.106   1.481 -0.5774 -0.8817 -0.2301
  767MOL0     C 3464   2.832   2.911   1.086 -0.0127 -0.3576  1.2144
  767MOL0     C 3465   2.951   2.914   1.160  0.4698 -0.1894  0.2562
  767MOL0     C 3466   3.065   2.861   1.100 -0.0536 -0.6095  0.7143
  767MOL0     C 3467   3.062   2.784   0.982 -0.5523  0.3886 -0.4299
  767MOL0     O 3468   3.185   2.725   0.932 -0.6012  0.0229 -0.4150
  767MOL0     C 3469   3.154   2.598   0.869  0.0064  0.4639 -0.6986
  767MOL0     C 3470   3.289   2.525   0.853 -0.2391 -0.2338  0.2649
  767MOL0     C 3471   3.369   2.507   0.981 -0.2420 -0.5237 -0.2729
  767MOL0     C 3472   3.509   2.460   0.934  0.8233  0.3203  0.2188
  767MOL0     C 3473   3.579   2.379   1.033  0.1987  0.9744 -0.0183
  767MOL0     C 3474   3.634   2.307   1.112  0.1800  0.4030  0.1925
  767MOL0     C 3475   2.936   2.777   0.912 -0.0537 -0.0603 -0.8183
  767MOL0     C 3476   2.823   2.844   0.962  1.0707  0.3218  0.5469
  767MOL0     C 3477   2.694   2.822   0.883  0.2614  1.2606 -0.2182
  767MOL0     H 3478   2.465   2.941   1.244  0.4280 -0.0309 -0.8838
  767MOL0     H 3479   2.273   3.016   1.400 -0.8655  0.1951 -0.1765
  767MOL0     H 3480   2.339   3.123   1.814 -1.2131 -1.0064 -1.4495
  767MOL0     H 3481   2.393   3.279   1.761 -0.4972  0.0609 -0.0765
  767MOL0     H 3482   2.152   3.339   1.720  0.0762  0.5466  0.1947
  767MOL0     H 3483   2.191   3.333   1.891 -0.0759 -0.5806  0.3786
  767MOL0     H 3484   2.090   3.117   1.930 -0.5163  0.6680  0.7018
  767MOL0     H 3485   2.072   3.084   1.755  1.3130  0.7348  1.5562
  767MOL0     H 3486   1.915   3.257   1.932 -0.1017  1.1210 -0.0887
  767MOL0     H 3487   1.929   3.314   1.764  1.6065  1.0251  0.7633
  767MOL0     H 3488   1.827   3.076   1.707  1.0177  1.5347 -0.4280
  767MOL0     H 3489   1.817   3.051   1.868 -2.2623  0.1523  0.5655
  767MOL0     H 3490   1.681   3.291   1.865  1.5709  1.6605 -2.2632
  767MOL0     H 3491   1.671   3.265   1.699  3.7626 -0.1690 -1.2792
  767MOL0     H 3492   1.560   3.039   1.880  0.8499 -3.9155 -3.5936
  767MOL0     H 3493   1.536   3.062   1.719 -0.0666 -1.5299  2.1763
  767MOL0     H 3494   1.439   3.288   1.900 -1.3607 -1.4948  2.8783
  767MOL0     H 3495   1.404   3.264   1.731  0.4028  1.0817  0.8971
  767MOL0     H 3496   1.364   2.919   1.855 -0.7935 -0.1952  2.2936
  767MOL0     H 3497   1.043   2.859   2.084  0.1501  0.2257 -0.3964
  767MOL0     H 3498   1.066   2.793   1.926  0.5100  0.6741  0.4356
  767MOL0     H 3499   1.183   2.668   2.111 -1.5903  0.6536 -0.0343
  767MOL0     H 3500   1.307   2.741   1.997 -0.1659  1.9112  0.4514
  767MOL0     H 3501   1.230   2.808   2.288 -1.5676  2.7642  0.8078
  767MOL0     H 3502   1.285   2.930   2.175  0.3220 -0.2722 -0.6622
  767MOL0     H 3503   1.429   2.666   2.225 -0.4829  0.0193  0.0406
  767MOL0     H 3504   1.463   2.815   2.313 -3.3116  0.6798  1.3744
  767MOL0     H 3505   1.693   2.846   1.930  0.6569 -2.4680  0.0413
  767MOL0     H 3506   1.925   2.812   1.927 -0.7116 -1.9782 -0.9822
  767MOL0     H 3507   2.299   2.517   2.148  1.5839 -0.9641 -0.0814
  767MOL0     H 3508   2.548   2.477   2.122  1.9808  1.2847  1.3008
  767MOL0     H 3509   2.705   2.565   1.745  1.4613  0.9934 -0.4461
  767MOL0     H 3510   2.783   2.712   1.791  1.1413 -0.1668 -0.4162
  767MOL0     H 3511   2.849   2.421   1.857  1.1290 -0.7330 -0.3318
  767MOL0     H 3512   2.930   2.501   1.722  2.7942  1.5762  1.5454
  767MOL0     H 3513   3.026   2.666   1.879  0.5201 -0.1731  1.7023
  767MOL0     H 3514   2.952   2.583   2.018  5.5873  0.7666  4.0621
  767MOL0     H 3515   3.171   2.451   1.837 -2.8434 -1.2475 -1.1141
  767MOL0     H 3516   3.094   2.381   1.977 -0.9153 -0.0908  0.0420
  767MOL0     H 3517   3.181   2.570   2.109 -1.7351 -1.3009  0.2116
  767MOL0     H 3518   3.263   2.633   1.956  0.6921 -0.0512  0.4110
  767MOL0     H 3519   3.419   2.516   2.104  1.5010  1.7929 -0.5809
  767MOL0     H 3520   3.330   2.363   2.058 -1.3592 -0.2740 -2.1918
  767MOL0     H 3521   3.435   2.528   1.835  1.0184  0.8569  1.1209
  767MOL0     H 3522   3.395   2.356   1.849  2.9249 -1.5298  0.3755
  767MOL0     H 3523   3.569   2.311   2.001 -0.9416  1.7004  0.9509
  767MOL0     H 3524   3.629   2.347   1.848  1.5469  0.6996  0.6948
  767MOL0     H 3525   2.550   2.773   1.807  0.2492 -1.8067 -1.4566
  767MOL0     H 3526   2.327   2.831   1.847  1.3295  1.1418 -0.1135
  767MOL0     H 3527   1.897   2.643   2.335 -1.9343 -0.0910  0.2450
  767MOL0     H 3528   1.657   2.700   2.324 -0.4443 -1.8370 -1.8953
  767MOL0     H 3529   2.569   3.217   1.637 -0.3341  0.8612 -0.2971
  767MOL0     H 3530   2.735   3.134   1.515 -0.5705  2.0906 -2.2818
  767MOL0     H 3531   2.962   2.982   1.244 -0.5287 -0.0034  0.2480
  767MOL0     H 3532   3.158   2.877   1.153 -0.1765  0.9946  0.4874
  767MOL0     H 3533   3.105   2.605   0.771 -0.5340 -0.1983 -0.4796
  767MOL0     H 3534   3.088   2.541   0.934 -0.2734  2.2138  0.6205
  767MOL0     H 3535   3.347   2.592   0.789 -1.4267 -0.4089 -1.0520
  767MOL0     H 3536   3.276   2.430   0.801  1.3406 -0.0731 -0.4980
  767MOL0     H 3537   3.312   2.442   1.047 -2.0355  0.8116 -0.4341
  767MOL0     H 3538   3.383   2.602   1.034  1.2512 -0.1538 -1.2654
  767MOL0     H 3539   3.500   2.402   0.842 -1.1963  0.0012  0.5697
  767MOL0     H 3540   3.570   2.545   0.904 -0.3614  0.8163 -0.8688
  767MOL0     H 3541   3.689   2.242   1.177 -0.4962 -1.9963 -1.5171
  767MOL0     H 3542   2.927   2.716   0.823  1.0704  1.6827 -2.2090
  767MOL0     H 3543   2.635   2.913   0.870 -4.0028 -1.3863 -1.2485
  767MOL0     H 3544   2.723   2.792   0.782  2.5339 -0.6171  0.8994
  767MOL0     H 3545   2.625   2.743   0.912  0.3470  0.7375 -1.3878
  768MOL0     O 3546   3.874   7.658   7.378 -0.6726 -0.8875  0.1165
  768MOL0     C 3547   3.848   7.715   7.483 -0.2140 -1.0604 -1.0534
  768MOL0     O 3548   3.904   7.832   7.533 -0.2502 -0.2584  0.0483
  768MOL0     C 3549   3.990   7.896   7.448  0.2862 -0.6627 -0.8213
  768MOL0     C 3550   3.928   7.969   7.343  0.1301 -0.2716  0.5141
  768MOL0     C 3551   4.015   8.045   7.263 -0.4408  0.1053  0.0012
  768MOL0     C 3552   4.152   8.038   7.267  0.2177 -0.0093 -0.7864
  768MOL0     O 3553   4.214   8.119   7.175  0.3699  0.8782 -0.3966
  768MOL0     C 3554   4.334   8.191   7.211 -1.1227  0.2374  0.7038
  768MOL0     C 3555   4.372   8.283   7.096 -0.3826 -0.4809 -0.2098
  768MOL0     C 3556   4.487   8.381   7.114 -0.2360 -0.5173 -0.2349
  768MOL0     C 3557   4.617   8.307   7.163  0.6527 -0.6405  0.0691
  768MOL0     C 3558   4.735   8.400   7.180 -0.1935  0.9941 -0.6336
  768MOL0     C 3559   4.824   8.411   7.057  0.5689 -0.0157 -0.2305
  768MOL0     C 3560   4.907   8.543   7.066  0.5274  0.2378 -0.3237
  768MOL0     C 3561   4.993   8.549   7.191  1.1144 -0.9095 -0.2022
  768MOL0     N 3562   5.079   8.429   7.210  0.0331  0.1693  0.1687
  768MOL0     C 3563   5.196   8.401   7.154 -0.8312  0.1725 -0.1930
  768MOL0     C 3564   5.219   8.273   7.195 -0.0470 -0.1901  0.5960
  768MOL0     C 3565   5.351   8.186   7.189  0.4869  0.0033 -0.6944
  768MOL0     C 3566   5.441   8.226   7.070 -0.0832  1.0413  0.1133
  768MOL0     C 3567   5.563   8.134   7.052  0.5186  0.2656 -0.5380
  768MOL0     C 3568   5.637   8.127   7.179 -0.4626 -0.2790  0.3784
  768MOL0     O 3569   5.779   8.093   7.149 -0.5186 -0.5744 -0.6567
  768MOL0     C 3570   5.852   8.205   7.175 -0.2970 -0.3542  0.4058
  768MOL0     C 3571   5.950   8.203   7.274  0.3019  1.0461  0.6556
  768MOL0     C 3572   6.025   8.309   7.314  0.9111  0.1233 -0.6161
  768MOL0     C 3573   6.011   8.429   7.251  0.5939  0.4712 -0.2160
  768MOL0     C 3574   6.093   8.549   7.287 -0.5809 -0.1497 -1.0154
  768MOL0     O 3575   6.183   8.526   7.388 -0.0217 -0.5365  0.4595
  768MOL0     C 3576   6.239   8.619   7.474  0.9657 -0.0565 -0.1723
  768MOL0     C 3577   6.194   8.751   7.488  0.1808 -0.4673  0.1841
  768MOL0     C 3578   6.252   8.840   7.583  0.6876 -0.7921  0.1551
  768MOL0     C 3579   6.360   8.801   7.658 -0.3965 -0.0973  1.5893
  768MOL0     O 3580   6.438   8.877   7.747  0.3364  0.3196  0.0936
  768MOL0     C 3581   6.461   9.017   7.714 -0.0237  0.3592 -1.0790
  768MOL0     C 3582   6.362   9.111   7.793 -0.1285 -0.1736  0.1004
  768MOL0     C 3583   6.347   9.082   7.943 -0.3428  0.6350 -1.0314
  768MOL0     C 3584   6.245   9.168   8.028  0.1823  0.8382 -0.3487
  768MOL0     C 3585   6.292   9.172   8.168 -0.9657 -0.7011 -0.0306
  768MOL0     C 3586   6.236   9.283   8.250  0.6346  0.4674  0.2731
  768MOL0     C 3587   6.077   9.273   8.253  0.1758 -0.3233  0.0615
  768MOL0     C 3588   6.021   9.160   8.333 -0.4614 -0.4516  0.5117
  768MOL0    Cl 3589   6.036   9.001   8.251 -0.0539  0.1103  0.0727
  768MOL0     C 3590   6.406   8.671   7.635 -0.0389  1.3509  0.0629
  768MOL0     C 3591   6.347   8.577   7.544  0.1417 -0.8810 -0.2230
  768MOL0     O 3592   6.088   8.654   7.232  0.3822 -0.4926  1.0528
  768MOL0     C 3593   5.912   8.435   7.154 -0.3211  0.2361  0.1435
  768MOL0     C 3594   5.840   8.329   7.103 -0.1952  0.1373 -0.6107
  768MOL0     N 3595   5.115   8.221   7.266 -0.3912  0.0625 -0.9169
  768MOL0     N 3596   5.037   8.324   7.286 -0.3623 -0.0390 -0.7504
  768MOL0     C 3597   4.206   7.966   7.367  0.1846  0.1856  0.6576
  768MOL0     C 3598   4.130   7.892   7.463 -0.5981  0.5336  0.0169
  768MOL0     C 3599   3.756   7.641   7.576  0.0839 -1.2760 -0.4205
  768MOL0     C 3600   3.759   7.683   7.714 -0.7612  0.9116 -0.3863
  768MOL0     C 3601   3.668   7.638   7.809 -0.5093 -0.1414 -0.2990
  768MOL0     C 3602   3.585   7.539   7.766  0.3813  0.2376  0.0795
  768MOL0     O 3603   3.505   7.476   7.858 -0.2389  0.0409  0.0716
  768MOL0     C 3604   3.458   7.539   7.987 -1.0041 -0.1752  0.0183
  768MOL0     C 3605   3.367   7.653   7.951  0.0840 -0.0996 -0.1323
  768MOL0     C 3606   3.246   7.613   7.864 -0.0117 -0.0212  0.0158
  768MOL0     C 3607   3.192   7.737   7.793 -0.6394  0.2189  0.4186
  768MOL0     C 3608   3.052   7.725   7.759  1.0276 -0.7098 -0.5325
  768MOL0     C 3609   2.935   7.708   7.743 -0.0079  0.3765  0.3446
  768MOL0     C 3610   3.582   7.487   7.632  0.4566  0.9457 -0.5169
  768MOL0     C 3611   3.662   7.543   7.529  0.1397 -0.1363  0.3063
  768MOL0     C 3612   3.633   7.503   7.386 -0.5844  0.2345 -0.0832
  768MOL0     H 3613   3.822   7.985   7.327 -0.0829  2.3823  3.5628
  768MOL0     H 3614   3.973   8.112   7.189  1.2384  0.4879 -0.6283
  768MOL0     H 3615   4.330   8.266   7.290  2.3523 -1.6253  2.8842
  768MOL0     H 3616   4.417   8.123   7.230  2.2751  4.0861  1.1290
  768MOL0     H 3617   4.283   8.344   7.075  0.2337  1.3951  2.2052
  768MOL0     H 3618   4.402   8.218   7.013 -2.4406 -1.9639  0.1145
  768MOL0     H 3619   4.464   8.465   7.181  1.0744  0.8174 -1.3829
  768MOL0     H 3620   4.500   8.432   7.018 -0.7213  0.5523  0.2511
  768MOL0     H 3621   4.587   8.264   7.259 -0.2319  2.9430  1.5615
  768MOL0     H 3622   4.643   8.223   7.098 -0.2354 -0.5649 -0.3993
  768MOL0     H 3623   4.704   8.499   7.214  1.2013  1.5827 -1.0194
  768MOL0     H 3624   4.798   8.361   7.261 -0.0004  1.8551 -0.3572
  768MOL0     H 3625   4.869   8.312   7.042 -0.1728 -0.2180 -1.2027
  768MOL0     H 3626   4.761   8.435   6.971  0.1960  0.0452  0.0587
  768MOL0     H 3627   4.836   8.625   7.053 -0.3430 -0.5926 -0.9685
  768MOL0     H 3628   4.981   8.548   6.985  0.4031 -1.1693 -0.5446
  768MOL0     H 3629   5.059   8.636   7.184  0.6657 -0.6909 -2.2700
  768MOL0     H 3630   4.942   8.559   7.287 -2.7045 -4.0924 -1.6547
  768MOL0     H 3631   5.269   8.464   7.105  0.6198 -0.3736  1.1511
  768MOL0     H 3632   5.401   8.188   7.286  2.3888  1.0238 -1.6479
  768MOL0     H 3633   5.317   8.083   7.173  0.9172  0.0753 -2.1544
  768MOL0     H 3634   5.390   8.238   6.975 -0.9148  0.5078  0.4821
  768MOL0     H 3635   5.482   8.324   7.094 -0.0213  0.6524  1.7902
  768MOL0     H 3636   5.626   8.181   6.975  1.0161 -1.2526 -1.0801
  768MOL0     H 3637   5.533   8.038   7.011 -2.0983  1.5224 -1.7626
  768MOL0     H 3638   5.589   8.047   7.237 -0.4506 -1.3819 -1.0610
  768MOL0     H 3639   5.637   8.225   7.227  3.7430  1.3502 -2.4006
  768MOL0     H 3640   5.973   8.107   7.319 -0.0927  1.1783  1.1408
  768MOL0     H 3641   6.091   8.299   7.400 -1.3767  1.3225  1.4045
  768MOL0     H 3642   6.116   8.791   7.424 -0.5055  1.2214  1.9713
  768MOL0     H 3643   6.226   8.945   7.577  1.4201 -0.6932 -2.8876
  768MOL0     H 3644   6.560   9.039   7.755 -0.7565 -1.0491  1.7262
  768MOL0     H 3645   6.457   9.026   7.605 -0.0461  1.6925 -0.9805
  768MOL0     H 3646   6.388   9.217   7.787  0.6265 -0.3323  0.4394
  768MOL0     H 3647   6.262   9.109   7.749 -0.6259 -2.9844  1.1346
  768MOL0     H 3648   6.313   8.978   7.947 -0.2661  0.5977  2.8526
  768MOL0     H 3649   6.445   9.088   7.992  0.2597  2.2905 -2.3531
  768MOL0     H 3650   6.144   9.127   8.019  1.6491 -3.0250 -0.9141
  768MOL0     H 3651   6.240   9.272   7.996  0.2335  0.6891 -0.8485
  768MOL0     H 3652   6.398   9.197   8.171 -0.7753 -1.4607 -0.3475
  768MOL0     H 3653   6.267   9.078   8.218  1.4283 -0.7784  1.1632
  768MOL0     H 3654   6.279   9.264   8.348 -0.6446 -1.1981  0.5567
  768MOL0     H 3655   6.263   9.383   8.214 -3.1360  1.2104 -0.9845
  768MOL0     H 3656   6.034   9.282   8.153 -0.3106 -0.4177  0.2617
  768MOL0     H 3657   6.041   9.366   8.297 -1.3095 -0.4732 -0.7685
  768MOL0     H 3658   6.067   9.142   8.431  1.3949 -2.6374 -0.6594
  768MOL0     H 3659   5.912   9.170   8.339 -0.2173  2.3395  2.3816
  768MOL0     H 3660   6.480   8.636   7.706  1.2568 -0.8268 -2.1746
  768MOL0     H 3661   6.372   8.471   7.542 -1.2278 -1.2046 -1.2481
  768MOL0     H 3662   5.915   8.532   7.105  1.2045 -0.1943 -0.6850
  768MOL0     H 3663   5.777   8.339   7.015  0.0113 -1.4637 -0.9647
  768MOL0     H 3664   4.315   7.960   7.371  0.5001  2.4311 -1.7999
  768MOL0     H 3665   4.178   7.831   7.539 -1.1834 -3.4378 -2.5540
  768MOL0     H 3666   3.841   7.748   7.743 -1.2323  1.0356  0.6956
  768MOL0     H 3667   3.657   7.668   7.913 -3.1720  2.1265 -1.1535
  768MOL0     H 3668   3.536   7.575   8.054 -1.8251  2.8371 -0.4877
  768MOL0     H 3669   3.404   7.458   8.037 -2.0578  0.7343  0.3949
  768MOL0     H 3670   3.420   7.733   7.899  0.6121 -0.5824 -0.3400
  768MOL0     H 3671   3.326   7.699   8.041 -3.3911 -2.1426 -0.4728
  768MOL0     H 3672   3.163   7.570   7.921 -0.4485 -0.1750 -0.7205
  768MOL0     H 3673   3.293   7.549   7.789  1.8136 -0.2880  1.3165
  768MOL0     H 3674   3.208   7.831   7.845  1.1523  0.6196 -0.7744
  768MOL0     H 3675   3.256   7.747   7.704 -1.9675 -1.6236 -0.8241
  768MOL0     H 3676   2.836   7.682   7.712  0.2819  3.5101 -4.1444
  768MOL0     H 3677   3.518   7.411   7.589  1.1761  0.6585 -1.1187
  768MOL0     H 3678   3.619   7.602   7.342 -2.1755  0.9054  1.7768
  768MOL0     H 3679   3.720   7.446   7.352 -1.4472 -0.9771 -0.3228
  768MOL0     H 3680   3.546   7.437   7.378  0.1357 -0.6399 -0.8605
  769MOL0     O 3681   6.915   3.834   2.035 -0.8013  0.1709 -0.0238
  769MOL0     C 3682   6.883   3.817   2.155 -0.4007 -0.4691  0.5066
  769MOL0     O 3683   6.940   3.874   2.262 -0.0836  0.1545 -0.0807
  769MOL0     C 3684   7.065   3.929   2.252 -0.7089  0.2197  1.0913
  769MOL0     C 3685   7.085   4.039   2.338 -0.2255 -0.3064 -0.0619
  769MOL0     C 3686   7.199   4.110   2.336 -0.2225 -0.1996  0.1779
  769MOL0     C 3687   7.318   4.069   2.264  0.3237 -0.2291 -0.5121
  769MOL0     O 3688   7.427   4.149   2.276 -0.2111 -0.2056 -0.1499
  769MOL0     C 3689   7.545   4.105   2.207 -0.1290  0.0802 -0.2750
  769MOL0     C 3690   7.652   4.211   2.214 -0.5893 -0.2599  0.7053
  769MOL0     C 3691   7.737   4.205   2.346  0.8228 -0.0921  0.8926
  769MOL0     C 3692   7.838   4.317   2.342  0.7193 -0.2011  1.2581
  769MOL0     C 3693   7.936   4.307   2.461 -0.4587 -0.5591  0.1791
  769MOL0     C 3694   8.017   4.437   2.485 -0.5207  0.5172 -0.2418
  769MOL0     C 3695   8.119   4.442   2.596 -0.4618  0.8057  0.2051
  769MOL0     C 3696   8.247   4.382   2.544 -0.9394 -0.1022  0.3250
  769MOL0     N 3697   8.340   4.482   2.495  0.3088  0.1842 -0.7599
  769MOL0     C 3698   8.480   4.478   2.490 -0.5728  0.5191 -0.2974
  769MOL0     C 3699   8.524   4.577   2.407  1.4903  0.1888 -0.5681
  769MOL0     C 3700   8.662   4.624   2.378  0.3225 -0.4332 -0.6170
  769MOL0     C 3701   8.703   4.620   2.228  0.1889 -0.4157  0.8456
  769MOL0     C 3702   8.841   4.676   2.204 -0.4626 -0.3728 -0.1110
  769MOL0     C 3703   8.886   4.676   2.061  0.1627  0.2114 -0.5118
  769MOL0     O 3704   8.885   4.536   2.021 -0.5706 -0.6366 -0.0230
  769MOL0     C 3705   8.992   4.458   2.063  0.2813 -0.1630 -0.4074
  769MOL0     C 3706   9.116   4.494   2.124  0.2007 -0.5531  0.8791
  769MOL0     C 3707   9.220   4.403   2.138 -0.5375  0.9182  0.4450
  769MOL0     C 3708   9.196   4.271   2.109 -0.4248 -0.3020  0.0802
  769MOL0     C 3709   9.310   4.176   2.116  0.4727  0.1555 -0.9012
  769MOL0     O 3710   9.429   4.222   2.164  1.1799  0.8489  0.1206
  769MOL0     C 3711   9.523   4.134   2.210 -0.0550  0.0790 -0.5121
  769MOL0     C 3712   9.503   3.999   2.237  0.1244 -0.3531 -0.4242
  769MOL0     C 3713   9.599   3.919   2.299 -0.1756  0.3557 -0.7337
  769MOL0     C 3714   9.714   3.971   2.353 -0.5019 -0.2369  0.6452
  769MOL0     O 3715   9.803   3.908   2.433 -0.0951  0.6686 -0.5675
  769MOL0     C 3716   9.800   3.764   2.444  0.2409 -0.8980  0.6237
  769MOL0     C 3717   9.950   3.720   2.462 -0.0126 -0.0775  0.3050
  769MOL0     C 3718   9.971   3.575   2.502  0.2641  0.3821 -0.1238
  769MOL0     C 3719  10.123   3.539   2.477  0.7315  0.0101  0.3286
  769MOL0     C 3720  10.167   3.399   2.525 -1.0782 -1.0707  0.6930
  769MOL0     C 3721  10.085   3.294   2.465  0.0926 -0.3742 -0.5817
  769MOL0     C 3722  10.161   3.159   2.462 -0.6881 -0.8577 -0.5567
  769MOL0     C 3723  10.068   3.042   2.458 -0.5317  0.2084  0.2241
  769MOL0    Cl 3724  10.178   2.904   2.508  0.5073  0.6983 -0.1654
  769MOL0     C 3725   9.730   4.110   2.337 -0.7392  0.0373  0.2482
  769MOL0     C 3726   9.647   4.184   2.253  1.3390 -0.0522  0.3655
  769MOL0     O 3727   9.286   4.062   2.069 -0.0535 -0.2531 -0.7322
  769MOL0     C 3728   9.070   4.228   2.069  0.1861  0.9705  0.0523
  769MOL0     C 3729   8.967   4.318   2.039 -0.2370 -0.1901 -0.0094
  769MOL0     N 3730   8.413   4.645   2.365 -0.0533  0.0676 -0.5379
  769MOL0     N 3731   8.303   4.593   2.416  0.7056  0.0352  0.2977
  769MOL0     C 3732   7.305   3.950   2.192  0.1093 -0.3035 -0.1791
  769MOL0     C 3733   7.179   3.888   2.181  0.0587 -0.1309 -0.3999
  769MOL0     C 3734   6.775   3.720   2.177  0.0267 -0.0582  0.3224
  769MOL0     C 3735   6.715   3.719   2.302 -0.1410 -0.3102 -0.4330
  769MOL0     C 3736   6.601   3.643   2.331  0.0775  0.6630  1.6608
  769MOL0     C 3737   6.546   3.557   2.232  1.2824  0.2838 -0.0868
  769MOL0     O 3738   6.446   3.465   2.251  0.4011 -0.2481  0.0587
  769MOL0     C 3739   6.363   3.462   2.368  0.2386  0.0952 -0.0516
  769MOL0     C 3740   6.259   3.576   2.353 -0.0509 -0.3002  0.8358
  769MOL0     C 3741   6.154   3.567   2.241 -0.2858 -0.4371 -0.6886
  769MOL0     C 3742   6.045   3.667   2.257 -0.0119 -0.7807  0.1936
  769MOL0     C 3743   5.916   3.597   2.220 -1.1046  0.7729 -0.0017
  769MOL0     C 3744   5.807   3.556   2.202 -0.0795  0.1342 -0.8583
  769MOL0     C 3745   6.609   3.554   2.109 -0.8196 -0.7905 -0.1509
  769MOL0     C 3746   6.717   3.638   2.071 -1.3044 -0.2363  0.0493
  769MOL0     C 3747   6.779   3.600   1.943 -0.4966 -0.2477 -0.3194
  769MOL0     H 3748   7.003   4.086   2.392 -1.2637 -1.8472 -0.2509
  769MOL0     H 3749   7.208   4.209   2.380 -2.3113 -1.0246  2.7031
  769MOL0     H 3750   7.589   4.015   2.251  1.1451  0.4694 -0.6967
  769MOL0     H 3751   7.516   4.089   2.103 -0.9919  1.2248 -0.2335
  769MOL0     H 3752   7.614   4.310   2.188 -0.6255 -0.5403 -0.3414
  769MOL0     H 3753   7.718   4.187   2.130 -1.3975  1.7817 -0.5914
  769MOL0     H 3754   7.789   4.109   2.354  0.4856 -0.4035 -0.4456
  769MOL0     H 3755   7.667   4.215   2.429 -3.3834 -1.0004 -2.2070
  769MOL0     H 3756   7.903   4.304   2.256 -0.7233 -0.9140  0.2350
  769MOL0     H 3757   7.785   4.412   2.334  1.0941 -0.1025 -0.3809
  769MOL0     H 3758   7.882   4.288   2.554  1.4316  0.0332  1.4433
  769MOL0     H 3759   8.004   4.226   2.433 -0.6507 -0.8517  0.5507
  769MOL0     H 3760   8.056   4.468   2.387 -1.8752  2.2148 -0.2880
  769MOL0     H 3761   7.957   4.524   2.511 -0.1737  0.6653  0.0734
  769MOL0     H 3762   8.077   4.391   2.683  0.3290  2.5032  1.6336
  769MOL0     H 3763   8.128   4.548   2.621 -2.9843  1.1465 -0.0363
  769MOL0     H 3764   8.295   4.339   2.633  1.0265  0.7618 -0.2764
  769MOL0     H 3765   8.239   4.297   2.475  1.5208 -0.9444  0.9754
  769MOL0     H 3766   8.547   4.414   2.546 -0.9537  0.8624  0.5717
  769MOL0     H 3767   8.670   4.728   2.411  0.1088 -0.7152  0.3604
  769MOL0     H 3768   8.733   4.578   2.447 -2.8179  0.8966  3.9662
  769MOL0     H 3769   8.697   4.518   2.190  4.2456 -0.2478 -0.7654
  769MOL0     H 3770   8.627   4.671   2.169 -1.6244 -1.4277  2.2141
  769MOL0     H 3771   8.913   4.627   2.271 -0.8036 -1.3134 -0.4100
  769MOL0     H 3772   8.834   4.783   2.225  2.5684  0.2664 -1.8117
  769MOL0     H 3773   8.985   4.721   2.049  0.0862  0.1223 -1.6239
  769MOL0     H 3774   8.812   4.725   1.998 -0.7410 -0.5479 -0.0577
  769MOL0     H 3775   9.138   4.597   2.149  0.9737 -0.2692 -0.8116
  769MOL0     H 3776   9.319   4.439   2.165  0.3185 -0.4546 -0.6736
  769MOL0     H 3777   9.411   3.949   2.210 -0.5420  0.8957 -0.5407
  769MOL0     H 3778   9.575   3.814   2.305  1.7951 -0.0819  0.4885
  769MOL0     H 3779   9.738   3.731   2.528 -0.6788 -0.1978  0.2448
  769MOL0     H 3780   9.756   3.723   2.352 -2.0725  1.5635  0.5048
  769MOL0     H 3781  10.008   3.740   2.372  1.3958  1.4527  1.4883
  769MOL0     H 3782   9.986   3.787   2.541 -2.0604  0.2242  1.0565
  769MOL0     H 3783   9.942   3.562   2.607  0.2739  0.7926 -0.0676
  769MOL0     H 3784   9.907   3.508   2.443 -3.7054  3.0716  0.7161
  769MOL0     H 3785  10.180   3.615   2.531 -1.6823  1.5719  0.8438
  769MOL0     H 3786  10.141   3.539   2.369 -1.9669  1.4286 -0.2014
  769MOL0     H 3787  10.167   3.402   2.634 -0.7091 -0.1568  0.6734
  769MOL0     H 3788  10.266   3.379   2.483 -0.9030  0.5727  0.2688
  769MOL0     H 3789   9.993   3.296   2.525  0.0550 -0.5066 -0.6353
  769MOL0     H 3790  10.060   3.318   2.361  0.1270 -0.6975 -0.6662
  769MOL0     H 3791  10.221   3.150   2.553 -1.7419 -0.8172  0.1532
  769MOL0     H 3792  10.234   3.144   2.382  1.1774 -3.3332  1.4338
  769MOL0     H 3793   9.998   3.042   2.543  0.0363 -4.2036  0.9517
  769MOL0     H 3794  10.008   3.024   2.368 -1.2569 -3.3991  1.2438
  769MOL0     H 3795   9.822   4.147   2.381 -0.4000 -0.9988  0.4192
  769MOL0     H 3796   9.660   4.287   2.221  0.3557 -0.8425 -2.9294
  769MOL0     H 3797   9.054   4.124   2.045 -2.0205  1.4591 -0.8076
  769MOL0     H 3798   8.882   4.274   1.986 -1.0465 -0.1484  1.2097
  769MOL0     H 3799   7.386   3.895   2.145  0.8022 -2.9152  3.6701
  769MOL0     H 3800   7.162   3.804   2.115 -3.1998  2.3145 -3.0476
  769MOL0     H 3801   6.758   3.777   2.383  3.2075 -1.2603 -1.3739
  769MOL0     H 3802   6.558   3.645   2.430 -1.3751 -0.0209  1.0686
  769MOL0     H 3803   6.419   3.475   2.461 -0.2946 -1.8166  0.5759
  769MOL0     H 3804   6.307   3.369   2.369 -0.3982  0.3692 -2.5644
  769MOL0     H 3805   6.291   3.681   2.357 -1.3019  0.1492 -0.5435
  769MOL0     H 3806   6.198   3.555   2.442  1.9165 -2.8648  1.7038
  769MOL0     H 3807   6.121   3.463   2.234  0.6230 -0.7785 -0.0226
  769MOL0     H 3808   6.207   3.595   2.149 -1.2703  0.0916 -1.1137
  769MOL0     H 3809   6.043   3.700   2.361  3.7708 -1.1253  0.5153
  769MOL0     H 3810   6.059   3.755   2.194 -0.3509 -2.0531 -1.7467
  769MOL0     H 3811   5.711   3.522   2.170 -0.3031 -0.0955  0.0328
  769MOL0     H 3812   6.558   3.495   2.033 -1.1758 -1.1254  0.3362
  769MOL0     H 3813   6.772   3.676   1.865 -3.0982  0.4820  0.5333
  769MOL0     H 3814   6.882   3.573   1.967  0.2512  1.3001 -1.5951
  769MOL0     H 3815   6.724   3.516   1.901  0.1892 -0.8449 -0.0352
  770MOL0     O 3816   5.402   5.898   5.273  0.0652 -0.8366 -0.1901
  770MOL0     C 3817   5.350   5.962   5.367 -0.0423 -0.1612 -0.1608
  770MOL0     O 3818   5.368   5.939   5.503 -0.0609 -0.8403  0.2173
  770MOL0     C 3819   5.409   5.815   5.545  0.2673 -0.0758  0.0320
  770MOL0     C 3820   5.321   5.705   5.582 -0.9503 -0.2322  0.8198
  770MOL0     C 3821   5.378   5.581   5.620 -0.7444  0.0001  0.3705
  770MOL0     C 3822   5.516   5.561   5.623  0.0719  0.1996 -0.7079
  770MOL0     O 3823   5.550   5.440   5.670  0.1384 -0.0079 -0.2947
  770MOL0     C 3824   5.683   5.397   5.677 -0.1857  0.0406 -0.2984
  770MOL0     C 3825   5.729   5.396   5.822 -0.9580 -0.3614 -0.1869
  770MOL0     C 3826   5.884   5.368   5.850  0.4839  0.0871  0.2756
  770MOL0     C 3827   5.926   5.231   5.810  0.1994 -0.4646  0.1018
  770MOL0     C 3828   6.063   5.183   5.857 -0.0199 -0.6721 -0.2349
  770MOL0     C 3829   6.171   5.286   5.804  0.2451 -0.8071 -0.1138
  770MOL0     C 3830   6.312   5.242   5.841  0.0328 -0.0132 -0.3586
  770MOL0     C 3831   6.370   5.122   5.754  0.2121  0.3969 -0.2324
  770MOL0     N 3832   6.510   5.105   5.766 -0.0277 -0.1922 -0.4771
  770MOL0     C 3833   6.614   5.175   5.697  0.3192 -0.2835  0.2508
  770MOL0     C 3834   6.715   5.164   5.777 -0.3183  0.1192 -0.6680
  770MOL0     C 3835   6.852   5.214   5.745  0.0013  0.7761 -0.4188
  770MOL0     C 3836   6.962   5.101   5.787  0.1673 -0.9102  0.5479
  770MOL0     C 3837   7.096   5.148   5.728 -0.4583 -0.9558  0.2656
  770MOL0     C 3838   7.221   5.084   5.793  0.2785  0.0991 -0.6318
  770MOL0     O 3839   7.339   5.113   5.721 -0.1549 -0.2147  0.1895
  770MOL0     C 3840   7.455   5.051   5.758 -0.5688  0.2901 -0.7286
  770MOL0     C 3841   7.569   5.068   5.680 -0.3347 -0.3593 -0.4681
  770MOL0     C 3842   7.700   5.016   5.709  0.6276 -0.1852  0.0748
  770MOL0     C 3843   7.722   4.939   5.826 -1.0687  0.4008 -0.7556
  770MOL0     C 3844   7.848   4.874   5.865  0.8110 -0.5731  0.2042
  770MOL0     O 3845   7.838   4.763   5.940  0.7112  0.2382 -0.5255
  770MOL0     C 3846   7.959   4.697   5.960  0.6522  0.1537 -0.5513
  770MOL0     C 3847   8.080   4.753   6.004 -0.8578  0.7802 -0.6748
  770MOL0     C 3848   8.203   4.678   5.997 -0.3474  0.1639  0.0045
  770MOL0     C 3849   8.198   4.544   5.955  0.2356 -0.2740  0.3889
  770MOL0     O 3850   8.316   4.482   5.936 -0.0177  0.0606  0.5193
  770MOL0     C 3851   8.312   4.344   5.897 -0.3825 -0.2511 -0.0152
  770MOL0     C 3852   8.446   4.277   5.857 -0.2949 -0.4902 -0.2327
  770MOL0     C 3853   8.520   4.349   5.743  0.6492 -0.6059  0.1946
  770MOL0     C 3854   8.646   4.279   5.712  0.0921 -0.1551  0.3243
  770MOL0     C 3855   8.747   4.340   5.804  0.0299  0.6745 -0.7401
  770MOL0     C 3856   8.884   4.281   5.781  0.7602 -1.0976 -0.0107
  770MOL0     C 3857   8.975   4.309   5.906  0.3976 -0.3003  0.1917
  770MOL0     C 3858   9.120   4.278   5.865  0.0366  0.3993 -0.5217
  770MOL0    Cl 3859   9.236   4.300   6.004  0.0895  0.3340 -0.1920
  770MOL0     C 3860   8.072   4.487   5.928 -0.5553 -0.0174 -0.3461
  770MOL0     C 3861   7.951   4.564   5.934  0.8294 -0.2912  0.8786
  770MOL0     O 3862   7.952   4.924   5.833 -0.5571 -1.1428 -0.3361
  770MOL0     C 3863   7.605   4.921   5.907  0.0363  0.4919 -0.3192
  770MOL0     C 3864   7.481   4.979   5.876 -0.2988  0.4990  0.3842
  770MOL0     N 3865   6.688   5.099   5.895 -0.4174  0.1366  0.9108
  770MOL0     N 3866   6.563   5.052   5.876 -0.1796  0.8327 -0.1175
  770MOL0     C 3867   5.604   5.670   5.579  0.0444 -0.6489 -0.0518
  770MOL0     C 3868   5.547   5.793   5.540 -0.0440  0.9631  0.5790
  770MOL0     C 3869   5.261   6.081   5.333 -0.4918  1.2696  0.4976
  770MOL0     C 3870   5.186   6.136   5.427  0.8632 -0.3114  0.8570
  770MOL0     C 3871   5.090   6.237   5.406 -0.5605  0.1434  0.0725
  770MOL0     C 3872   5.081   6.287   5.276  0.1231  0.2032  0.1933
  770MOL0     O 3873   4.999   6.392   5.232  0.0743 -0.8169 -0.9561
  770MOL0     C 3874   4.946   6.486   5.328 -0.2330  0.7591 -0.6401
  770MOL0     C 3875   5.057   6.565   5.411  1.2695 -0.4951  0.0936
  770MOL0     C 3876   4.978   6.672   5.486 -0.1248  0.2563 -0.0845
  770MOL0     C 3877   5.030   6.701   5.620  0.7945 -0.4802 -0.6942
  770MOL0     C 3878   5.180   6.718   5.639  0.7192  0.5434  0.2882
  770MOL0     C 3879   5.298   6.719   5.640 -0.1963 -1.1554  0.5407
  770MOL0     C 3880   5.147   6.222   5.170  0.2440 -0.8017 -0.0163
  770MOL0     C 3881   5.242   6.124   5.196 -0.9501 -0.6177 -0.2959
  770MOL0     C 3882   5.314   6.066   5.076 -0.8077  0.4147 -0.5703
  770MOL0     H 3883   5.214   5.721   5.577 -0.8409  0.3722 -3.6802
  770MOL0     H 3884   5.310   5.500   5.648  2.4516 -2.4209  1.6881
  770MOL0     H 3885   5.697   5.291   5.654  0.7545  0.0611  0.1165
  770MOL0     H 3886   5.753   5.447   5.610  0.9050  1.4613  1.7780
  770MOL0     H 3887   5.674   5.323   5.882  1.1720 -2.6505 -0.8754
  770MOL0     H 3888   5.702   5.496   5.859 -0.4537  0.3563 -1.6727
  770MOL0     H 3889   5.910   5.377   5.956 -0.7613 -0.5597  0.6597
  770MOL0     H 3890   5.945   5.443   5.799  0.5273  1.4800  2.2640
  770MOL0     H 3891   5.842   5.164   5.833 -1.3042  1.0845 -0.6746
  770MOL0     H 3892   5.906   5.228   5.702 -3.0019  2.6637  0.4310
  770MOL0     H 3893   6.070   5.196   5.966  1.2813 -1.7490 -0.1797
  770MOL0     H 3894   6.081   5.083   5.818  1.9202 -0.4051 -0.1027
  770MOL0     H 3895   6.167   5.310   5.698 -0.6315  1.1704  0.3197
  770MOL0     H 3896   6.145   5.382   5.849 -1.1989 -0.7538 -1.0006
  770MOL0     H 3897   6.319   5.213   5.947  3.3962  1.9531  0.0819
  770MOL0     H 3898   6.380   5.327   5.827  0.8819 -0.3592  1.3923
  770MOL0     H 3899   6.323   5.029   5.785 -0.9719  0.5084 -1.5584
  770MOL0     H 3900   6.345   5.139   5.648  0.6941  0.5567 -0.3233
  770MOL0     H 3901   6.616   5.218   5.597  1.1014 -0.9789 -0.0558
  770MOL0     H 3902   6.855   5.229   5.636 -1.3176 -1.7906 -0.8929
  770MOL0     H 3903   6.882   5.306   5.796  2.8080 -0.2644 -0.0244
  770MOL0     H 3904   6.978   5.102   5.896  0.6884  0.4670  0.4893
  770MOL0     H 3905   6.928   5.007   5.745  3.2308 -0.7823 -2.6434
  770MOL0     H 3906   7.098   5.257   5.732 -0.1568 -0.9695  0.5848
  770MOL0     H 3907   7.096   5.127   5.621  0.8647 -1.0145  0.2493
  770MOL0     H 3908   7.206   4.976   5.803  2.8480 -0.3805 -1.2940
  770MOL0     H 3909   7.229   5.115   5.898  0.5006 -1.6834 -0.0829
  770MOL0     H 3910   7.558   5.134   5.595 -2.7243 -0.1449 -0.0424
  770MOL0     H 3911   7.777   5.038   5.636  1.2817 -0.5163  0.6552
  770MOL0     H 3912   8.063   4.859   6.016  0.1201  1.2857 -3.2147
  770MOL0     H 3913   8.295   4.730   6.025 -0.5374  0.5098 -0.0086
  770MOL0     H 3914   8.274   4.275   5.974 -3.1456 -1.5232 -2.3551
  770MOL0     H 3915   8.246   4.337   5.810  1.5323  0.8121 -1.6376
  770MOL0     H 3916   8.510   4.255   5.942 -1.4063  2.2337  1.4384
  770MOL0     H 3917   8.416   4.183   5.810  0.2062 -1.4285  1.2493
  770MOL0     H 3918   8.459   4.345   5.652  1.4806 -0.8579 -0.3615
  770MOL0     H 3919   8.523   4.453   5.779  0.0244 -0.7945  0.8277
  770MOL0     H 3920   8.675   4.290   5.607 -0.1024  0.5177  0.3376
  770MOL0     H 3921   8.641   4.173   5.740  1.3007 -0.7503 -1.5490
  770MOL0     H 3922   8.717   4.316   5.906 -2.7115  0.8030 -1.4314
  770MOL0     H 3923   8.748   4.449   5.794 -0.4504  1.0677  2.5392
  770MOL0     H 3924   8.871   4.174   5.766 -2.3976 -1.1759  2.1909
  770MOL0     H 3925   8.924   4.325   5.689 -0.8559  0.9121  0.1681
  770MOL0     H 3926   8.948   4.246   5.991  1.2972 -0.2513  0.5203
  770MOL0     H 3927   8.969   4.412   5.943 -0.1263 -1.4966  3.7458
  770MOL0     H 3928   9.126   4.175   5.828 -2.1586  0.1435 -0.2771
  770MOL0     H 3929   9.162   4.347   5.791  2.5300  2.2524  2.3262
  770MOL0     H 3930   8.059   4.382   5.901 -2.0735  0.1206 -0.2337
  770MOL0     H 3931   7.862   4.509   5.905  1.1110  0.3671 -1.3551
  770MOL0     H 3932   7.626   4.870   6.001  2.4742 -1.2739 -1.7263
  770MOL0     H 3933   7.401   4.951   5.943 -0.6383 -2.2008 -1.0059
  770MOL0     H 3934   5.712   5.664   5.580  0.0684 -0.1753  0.2556
  770MOL0     H 3935   5.605   5.874   5.495 -1.4945  1.9895  0.5018
  770MOL0     H 3936   5.206   6.097   5.526  1.9864 -0.4530  0.5791
  770MOL0     H 3937   5.037   6.277   5.491  1.3129  1.9876  0.4522
  770MOL0     H 3938   4.871   6.440   5.394 -1.8646  1.2218 -2.0814
  770MOL0     H 3939   4.900   6.561   5.262 -0.2649 -0.2682 -1.8230
  770MOL0     H 3940   5.125   6.617   5.342 -1.0497  1.7282 -0.7016
  770MOL0     H 3941   5.109   6.501   5.482 -0.4025 -1.9044  0.1231
  770MOL0     H 3942   4.869   6.664   5.488 -0.0360 -1.3113 -0.1073
  770MOL0     H 3943   4.991   6.767   5.433 -0.5440  1.5412  1.9845
  770MOL0     H 3944   4.996   6.801   5.651 -0.1127 -0.7203 -0.8979
  770MOL0     H 3945   4.978   6.635   5.691  0.3385  0.3659 -0.2169
  770MOL0     H 3946   5.405   6.722   5.641 -0.0736 -3.4557  0.4134
  770MOL0     H 3947   5.133   6.257   5.068  0.8459 -2.0187 -0.5378
  770MOL0     H 3948   5.290   6.115   4.981  1.5541 -0.0655 -1.5019
  770MOL0     H 3949   5.423   6.068   5.090 -1.0222  0.3555  1.4176
  770MOL0     H 3950   5.284   5.962   5.061  2.8786 -1.2940  2.3272
  771MOL0     O 3951   2.399   7.453   1.970  0.2024 -0.1822  0.1180
  771MOL0     C 3952   2.391   7.444   1.846 -0.0837  0.4248 -0.0614
  771MOL0     O 3953   2.503   7.472   1.756 -0.0968 -0.1694  0.0700
  771MOL0     C 3954   2.624   7.491   1.813 -1.1129  0.5523 -0.3761
  771MOL0     C 3955   2.681   7.398   1.907  0.5370  0.9991 -0.1345
  771MOL0     C 3956   2.803   7.431   1.970 -0.0898  0.1453 -0.5956
  771MOL0     C 3957   2.885   7.534   1.932 -0.8640 -0.4362  0.2879
  771MOL0     O 3958   3.006   7.547   1.993  0.0035 -0.4179 -0.2373
  771MOL0     C 3959   3.107   7.634   1.932 -0.4569  0.5353  0.0079
  771MOL0     C 3960   3.240   7.619   2.006  0.4362  0.1001  0.1829
  771MOL0     C 3961   3.342   7.669   1.910 -0.1584  0.1429  0.3710
  771MOL0     C 3962   3.481   7.690   1.973  0.8107  0.0114  0.1468
  771MOL0     C 3963   3.574   7.742   1.873 -0.6051  0.1975 -0.3805
  771MOL0     C 3964   3.714   7.769   1.941  0.1856  0.0667  0.8656
  771MOL0     C 3965   3.780   7.875   1.855  0.1544  0.1056  0.6329
  771MOL0     C 3966   3.803   7.862   1.695 -0.3475 -0.2204 -0.3262
  771MOL0     N 3967   3.902   7.758   1.668 -0.1148 -0.8281  0.4318
  771MOL0     C 3968   4.041   7.755   1.685  0.3041 -0.0952 -0.4313
  771MOL0     C 3969   4.083   7.628   1.647  0.2769 -0.7663 -0.1908
  771MOL0     C 3970   4.220   7.572   1.645 -0.3636 -0.5143  1.0032
  771MOL0     C 3971   4.247   7.516   1.787 -0.1418  0.1603  0.3258
  771MOL0     C 3972   4.337   7.605   1.872  0.3298  0.3810  0.0920
  771MOL0     C 3973   4.317   7.575   2.025 -0.0784  0.2211  0.4503
  771MOL0     O 3974   4.374   7.445   2.047 -0.1155 -0.2813  0.2593
  771MOL0     C 3975   4.500   7.421   2.101 -0.0608  0.1197 -0.0759
  771MOL0     C 3976   4.530   7.309   2.172  0.7313  1.2061  0.3743
  771MOL0     C 3977   4.663   7.282   2.219  0.9456  0.2755  1.0142
  771MOL0     C 3978   4.766   7.371   2.190 -0.1877 -0.4536  0.1129
  771MOL0     C 3979   4.907   7.335   2.226 -0.3627 -0.9727  0.7504
  771MOL0     O 3980   5.006   7.406   2.173 -0.5805 -0.1381  0.0517
  771MOL0     C 3981   5.141   7.371   2.182 -0.2124  0.0184  0.0815
  771MOL0     C 3982   5.201   7.358   2.308 -0.8767  0.0561 -0.0461
  771MOL0     C 3983   5.335   7.330   2.317  0.0116  0.1333 -0.1812
  771MOL0     C 3984   5.421   7.321   2.210 -0.5027  0.2864 -0.5978
  771MOL0     O 3985   5.557   7.317   2.241  0.7233 -0.1350 -0.5086
  771MOL0     C 3986   5.641   7.382   2.136  0.0276  0.3919 -0.0869
  771MOL0     C 3987   5.779   7.386   2.206 -0.4243 -0.2099  0.0963
  771MOL0     C 3988   5.861   7.495   2.133  0.0758 -0.3922 -0.0758
  771MOL0     C 3989   5.988   7.529   2.205 -0.6338 -0.1855 -0.1688
  771MOL0     C 3990   6.061   7.647   2.142 -0.3312  0.0767  0.0374
  771MOL0     C 3991   6.134   7.622   2.007 -1.2443 -0.2973 -0.1317
  771MOL0     C 3992   6.180   7.744   1.938  2.0077  0.6320  0.0546
  771MOL0     C 3993   6.277   7.833   2.019  0.5815  0.6744 -0.1771
  771MOL0    Cl 3994   6.419   7.734   2.066  0.5637  0.1527  0.1669
  771MOL0     C 3995   5.371   7.335   2.082  0.0197 -0.2165  0.7099
  771MOL0     C 3996   5.227   7.352   2.072  0.1555  0.5100  0.2477
  771MOL0     O 3997   4.929   7.241   2.303 -0.2536 -0.4855  0.3784
  771MOL0     C 3998   4.738   7.490   2.133 -0.2629  0.0492  0.4646
  771MOL0     C 3999   4.610   7.509   2.086  0.1053  0.5629 -0.0997
  771MOL0     N 4000   3.970   7.546   1.610 -0.1903 -0.2535 -0.4659
  771MOL0     N 4001   3.867   7.624   1.641  0.4314  1.3535 -0.7730
  771MOL0     C 4002   2.835   7.619   1.829 -0.7537 -0.6475  0.8011
  771MOL0     C 4003   2.709   7.599   1.776 -0.6281 -0.3564 -0.2413
  771MOL0     C 4004   2.254   7.412   1.783  0.4961  0.4286  0.1584
  771MOL0     C 4005   2.156   7.373   1.874  0.0839  0.9566  0.5012
  771MOL0     C 4006   2.028   7.333   1.829  0.6191  0.2709  0.4237
  771MOL0     C 4007   2.003   7.326   1.690 -0.9319  0.0590 -0.2627
  771MOL0     O 4008   1.885   7.281   1.629 -0.9857  0.0734 -0.2925
  771MOL0     C 4009   1.780   7.223   1.707  0.3237 -0.9994 -0.0452
  771MOL0     C 4010   1.827   7.088   1.752 -0.1780  0.6813  0.1973
  771MOL0     C 4011   1.723   7.007   1.826  0.3370 -0.8909  0.3053
  771MOL0     C 4012   1.666   7.084   1.951 -0.2540 -0.0972 -0.8224
  771MOL0     C 4013   1.545   7.024   2.012  0.1088  0.4568  0.5137
  771MOL0     C 4014   1.437   6.987   2.056  0.3431 -0.0261  0.4884
  771MOL0     C 4015   2.098   7.367   1.597 -0.0758 -0.0310 -0.1619
  771MOL0     C 4016   2.227   7.414   1.638 -0.6848  0.1801 -0.4469
  771MOL0     C 4017   2.321   7.459   1.527  0.7025  0.8094  0.0340
  771MOL0     H 4018   2.628   7.308   1.936  2.3526  0.3702  1.4134
  771MOL0     H 4019   2.841   7.371   2.051  1.9660  3.2824  0.9582
  771MOL0     H 4020   3.112   7.619   1.824  0.3721 -1.2137  0.2550
  771MOL0     H 4021   3.067   7.734   1.950 -0.8776  0.5007 -0.7069
  771MOL0     H 4022   3.257   7.517   2.041 -1.4838 -0.4501 -0.3349
  771MOL0     H 4023   3.249   7.686   2.092 -2.0001  2.0473 -0.9550
  771MOL0     H 4024   3.317   7.771   1.878  2.3308  1.0912  1.1762
  771MOL0     H 4025   3.349   7.604   1.823 -0.1058  1.3997 -0.6005
  771MOL0     H 4026   3.460   7.762   2.053 -0.5728 -0.3431  0.1116
  771MOL0     H 4027   3.524   7.592   1.996  0.1281  0.1403  2.1862
  771MOL0     H 4028   3.587   7.664   1.796  1.3546 -0.0296  0.1437
  771MOL0     H 4029   3.538   7.831   1.820  0.1238  0.4235 -0.4983
  771MOL0     H 4030   3.690   7.806   2.042 -2.5454  2.8105 -0.6152
  771MOL0     H 4031   3.784   7.686   1.945  1.8431  1.2434 -1.5238
  771MOL0     H 4032   3.883   7.890   1.889 -0.4203  1.7452  1.8105
  771MOL0     H 4033   3.726   7.970   1.866 -3.2759 -1.6396  0.2172
  771MOL0     H 4034   3.710   7.845   1.640  0.2282  1.9433 -2.1236
  771MOL0     H 4035   3.840   7.958   1.659 -0.2341 -0.7310 -1.5991
  771MOL0     H 4036   4.107   7.830   1.727  2.6963 -1.8971 -0.7538
  771MOL0     H 4037   4.217   7.487   1.577  0.9727 -0.4245  0.8128
  771MOL0     H 4038   4.294   7.645   1.611 -1.4293  0.1603  0.0522
  771MOL0     H 4039   4.150   7.502   1.834  0.9124 -0.0194  2.5786
  771MOL0     H 4040   4.283   7.412   1.785  0.0111  0.1717  1.7438
  771MOL0     H 4041   4.313   7.707   1.842 -0.4938  0.5490  1.2396
  771MOL0     H 4042   4.441   7.578   1.850 -0.9101 -3.5501 -1.8154
  771MOL0     H 4043   4.214   7.586   2.059  0.0352 -0.2506  0.9615
  771MOL0     H 4044   4.369   7.649   2.087 -0.5384  1.1855 -0.2910
  771MOL0     H 4045   4.449   7.240   2.191 -0.8313  3.0255  0.5456
  771MOL0     H 4046   4.691   7.204   2.288 -3.8396 -1.1162  1.7249
  771MOL0     H 4047   5.135   7.370   2.394 -1.2848  0.3476 -0.3938
  771MOL0     H 4048   5.381   7.318   2.414  0.2445 -2.4520 -0.5463
  771MOL0     H 4049   5.650   7.325   2.043 -3.9577  0.2170 -0.5215
  771MOL0     H 4050   5.606   7.485   2.124 -2.7218 -0.2172  1.7362
  771MOL0     H 4051   5.775   7.425   2.308 -1.2973 -0.8645  0.3194
  771MOL0     H 4052   5.827   7.288   2.217 -1.4885 -0.7860 -0.3342
  771MOL0     H 4053   5.895   7.453   2.038  1.0879 -1.6147  0.7927
  771MOL0     H 4054   5.807   7.590   2.126  2.5444  1.4801  3.2547
  771MOL0     H 4055   6.062   7.450   2.216  0.1220  0.7052  1.6129
  771MOL0     H 4056   5.958   7.563   2.305 -1.6125  1.2785 -0.9234
  771MOL0     H 4057   6.132   7.681   2.218  0.4930 -3.5299  1.1015
  771MOL0     H 4058   5.985   7.723   2.119 -0.9617 -0.3077  0.7761
  771MOL0     H 4059   6.221   7.558   2.027 -3.5281 -3.1954  1.2345
  771MOL0     H 4060   6.063   7.565   1.946 -1.1226  0.9413 -1.4720
  771MOL0     H 4061   6.087   7.801   1.923  0.3957 -1.6830  0.7494
  771MOL0     H 4062   6.230   7.717   1.845 -0.6682  0.4338 -1.4039
  771MOL0     H 4063   6.300   7.914   1.950 -0.2141 -2.2029 -4.2102
  771MOL0     H 4064   6.239   7.870   2.114 -0.4087 -0.3854 -0.1273
  771MOL0     H 4065   5.442   7.348   2.002  0.4403  0.3309  1.1652
  771MOL0     H 4066   5.173   7.362   1.978 -2.1776 -2.4106  1.1200
  771MOL0     H 4067   4.820   7.549   2.092 -0.5484 -1.1811 -2.0775
  771MOL0     H 4068   4.590   7.595   2.023  1.2813  1.1864  0.3394
  771MOL0     H 4069   2.886   7.702   1.782 -0.3951 -3.1861 -3.9515
  771MOL0     H 4070   2.674   7.667   1.699 -3.6763  0.0619  1.3691
  771MOL0     H 4071   2.164   7.376   1.982  0.5639  2.0898  0.4401
  771MOL0     H 4072   1.952   7.310   1.903  0.0583 -0.0571 -0.2543
  771MOL0     H 4073   1.691   7.200   1.646 -1.7210  0.8171  2.0643
  771MOL0     H 4074   1.761   7.298   1.784  2.1965  0.7634 -1.1850
  771MOL0     H 4075   1.914   7.102   1.817  0.7013 -0.5461 -0.6838
  771MOL0     H 4076   1.857   7.023   1.669  0.8101 -1.3998  2.0829
  771MOL0     H 4077   1.763   6.913   1.866  0.3359 -0.0966  2.3145
  771MOL0     H 4078   1.639   6.988   1.759  1.1977 -0.7447 -0.8521
  771MOL0     H 4079   1.741   7.094   2.030 -1.5788 -1.3694  0.6647
  771MOL0     H 4080   1.644   7.190   1.935  2.5743  0.6389 -0.3750
  771MOL0     H 4081   1.346   6.969   2.110 -1.1544  1.8729 -1.2293
  771MOL0     H 4082   2.067   7.356   1.493 -0.5027 -5.0974  0.2478
  771MOL0     H 4083   2.267   7.456   1.432 -0.2133  0.7982  0.5499
  771MOL0     H 4084   2.352   7.563   1.543 -0.6300  1.2174  0.1058
  771MOL0     H 4085   2.401   7.385   1.522 -1.5181 -1.8484  1.3549
  772MOL0     O 4086   0.066   3.784   7.667 -0.0754  0.1492  0.3072
  772MOL0     C 4087   0.040   3.709   7.759 -0.7651 -0.4405 -0.6859
  772MOL0     O 4088   0.143   3.647   7.827 -0.0753 -0.0863 -0.0861
  772MOL0     C 4089   0.278   3.683   7.818  0.7538  0.4381 -0.3269
  772MOL0     C 4090   0.359   3.575   7.843 -0.0957 -0.3148 -0.9164
  772MOL0     C 4091   0.499   3.592   7.835 -0.4203  0.3236  0.0305
  772MOL0     C 4092   0.557   3.717   7.808 -0.6837 -0.4151 -0.3655
  772MOL0     O 4093   0.694   3.729   7.787 -0.5327  0.2700 -0.4750
  772MOL0     C 4094   0.757   3.850   7.732 -1.2563  0.9104 -0.1017
  772MOL0     C 4095   0.906   3.805   7.734  0.1128  0.0888  0.8318
  772MOL0     C 4096   1.007   3.919   7.738 -0.5003 -0.3408  1.0092
  772MOL0     C 4097   1.000   4.013   7.861 -0.4041  0.4985 -0.3215
  772MOL0     C 4098   1.134   4.099   7.866  1.0964 -0.4275  0.3148
  772MOL0     C 4099   1.133   4.193   7.988 -1.0246 -0.7415  0.5997
  772MOL0     C 4100   1.250   4.292   7.988 -0.4448 -0.6373  0.2279
  772MOL0     C 4101   1.383   4.224   8.012 -0.1255 -0.3721 -0.2674
  772MOL0     N 4102   1.495   4.319   7.995  0.2360 -0.4212 -0.3482
  772MOL0     C 4103   1.589   4.306   7.901 -1.1609 -0.0736 -0.3544
  772MOL0     C 4104   1.674   4.404   7.924  0.5288 -0.4511 -0.0266
  772MOL0     C 4105   1.793   4.424   7.831  0.0146 -0.2504  0.0705
  772MOL0     C 4106   1.929   4.388   7.899 -0.3573  0.0186  0.3792
  772MOL0     C 4107   1.970   4.479   8.008  1.0512 -0.2822  0.5043
  772MOL0     C 4108   2.014   4.617   7.962  0.2208 -0.6974 -0.0568
  772MOL0     O 4109   2.127   4.596   7.874  0.0641  0.7383 -0.3682
  772MOL0     C 4110   2.257   4.588   7.928  0.0066  0.2850  0.0297
  772MOL0     C 4111   2.283   4.592   8.065  0.1207 -0.3948 -0.1782
  772MOL0     C 4112   2.410   4.578   8.116 -0.5937 -0.7477  0.6589
  772MOL0     C 4113   2.522   4.550   8.036  0.0684  0.3415  0.1916
  772MOL0     C 4114   2.656   4.539   8.094 -0.7728 -0.5660  0.3331
  772MOL0     O 4115   2.753   4.531   8.009  0.7184  1.0431  0.3368
  772MOL0     C 4116   2.882   4.518   8.064  0.5278  0.3777  0.3960
  772MOL0     C 4117   2.967   4.631   8.049 -1.0994  0.7281 -0.0655
  772MOL0     C 4118   3.095   4.628   8.108 -0.4721 -0.4860  0.0560
  772MOL0     C 4119   3.143   4.516   8.175  0.0973  0.2551  0.2135
  772MOL0     O 4120   3.271   4.529   8.226  0.3272 -0.0455  0.0120
  772MOL0     C 4121   3.328   4.408   8.291  0.1765 -0.8366  0.1090
  772MOL0     C 4122   3.462   4.440   8.347 -0.2521 -1.0384 -0.0309
  772MOL0     C 4123   3.572   4.412   8.241 -0.7563  0.0445  0.0568
  772MOL0     C 4124   3.698   4.331   8.300  0.2151  0.1637  0.7717
  772MOL0     C 4125   3.780   4.422   8.379  0.8530 -1.0035  0.9950
  772MOL0     C 4126   3.898   4.346   8.444  0.2715 -0.6341  0.5231
  772MOL0     C 4127   3.990   4.284   8.336  0.6051 -0.0571  0.0689
  772MOL0     C 4128   4.123   4.231   8.409 -0.1790 -0.1325 -0.4066
  772MOL0    Cl 4129   4.242   4.362   8.414  0.5251  0.0042  0.2053
  772MOL0     C 4130   3.056   4.404   8.193 -0.4614 -0.3863 -0.1121
  772MOL0     C 4131   2.926   4.407   8.140 -0.5647  0.1255 -0.8524
  772MOL0     O 4132   2.675   4.554   8.213 -1.1643  0.6697 -0.7958
  772MOL0     C 4133   2.497   4.535   7.903  0.8575  0.3025  0.2661
  772MOL0     C 4134   2.366   4.555   7.845  0.3492 -0.2024  0.7436
  772MOL0     N 4135   1.636   4.480   8.032  0.4199 -0.7310 -0.1893
  772MOL0     N 4136   1.536   4.417   8.083  0.1560  0.0939 -0.2732
  772MOL0     C 4137   0.471   3.828   7.787  0.1076 -0.0791 -0.2484
  772MOL0     C 4138   0.332   3.807   7.787 -0.1496  0.6330  0.8227
  772MOL0     C 4139  -0.093   3.650   7.770 -0.1434 -0.8293  0.7029
  772MOL0     C 4140  -0.208   3.716   7.720 -0.6118  0.7687 -1.1839
  772MOL0     C 4141  -0.332   3.662   7.714 -0.2266 -0.3015  1.1569
  772MOL0     C 4142  -0.355   3.533   7.751  0.1642 -0.0663  0.6285
  772MOL0     O 4143  -0.473   3.462   7.735  0.2384  0.3993  0.3338
  772MOL0     C 4144  -0.572   3.502   7.821 -0.5148 -1.2868  0.6594
  772MOL0     C 4145  -0.562   3.427   7.950  0.6139  0.0611 -0.2827
  772MOL0     C 4146  -0.548   3.272   7.924 -0.0393 -0.7467  0.1838
  772MOL0     C 4147  -0.441   3.231   8.024 -0.6971  0.3547 -1.1153
  772MOL0     C 4148  -0.435   3.078   8.014  0.8131 -0.7058  0.0363
  772MOL0     C 4149  -0.436   2.960   7.995 -0.4594 -0.8826 -0.8232
  772MOL0     C 4150  -0.245   3.462   7.791  0.0100  0.3913  0.0483
  772MOL0     C 4151  -0.121   3.519   7.815  0.8532 -0.8769  0.7223
  772MOL0     C 4152  -0.029   3.429   7.881  0.0608  0.2018 -0.2329
  772MOL0     H 4153   0.321   3.477   7.873  0.7259  0.3053  2.6470
  772MOL0     H 4154   0.571   3.511   7.842 -0.3491  0.2749 -1.0519
  772MOL0     H 4155   0.716   3.874   7.633  2.2241  1.4684 -1.5383
  772MOL0     H 4156   0.757   3.935   7.800  3.7894  0.9235  0.2062
  772MOL0     H 4157   0.929   3.747   7.644  1.5773  2.0425 -0.1191
  772MOL0     H 4158   0.924   3.748   7.826  2.0832  1.5010  1.3819
  772MOL0     H 4159   1.018   3.981   7.649  1.0897  0.0762  1.4556
  772MOL0     H 4160   1.105   3.872   7.752 -0.4059 -1.8242 -3.2683
  772MOL0     H 4161   0.911   4.075   7.854 -0.9312 -0.4147 -3.6714
  772MOL0     H 4162   0.984   3.945   7.945 -1.0394 -2.5284 -2.6757
  772MOL0     H 4163   1.216   4.028   7.876 -0.7486 -2.6090  0.8969
  772MOL0     H 4164   1.143   4.161   7.776 -0.5961  0.9208  1.0079
  772MOL0     H 4165   1.040   4.251   7.989  0.3469  1.5991 -0.3801
  772MOL0     H 4166   1.136   4.129   8.077 -2.2495 -1.1597  0.3565
  772MOL0     H 4167   1.231   4.366   8.067 -3.3905 -0.5230 -0.4594
  772MOL0     H 4168   1.240   4.351   7.897 -0.7773  0.1777  0.7799
  772MOL0     H 4169   1.382   4.200   8.119 -3.2391  0.0889 -0.0892
  772MOL0     H 4170   1.390   4.128   7.961  0.0223 -0.7254  0.4062
  772MOL0     H 4171   1.587   4.238   7.817 -0.5427  2.6317 -2.7341
  772MOL0     H 4172   1.783   4.355   7.747 -1.5020 -1.1280  0.9140
  772MOL0     H 4173   1.775   4.525   7.794 -2.3880 -0.2646  1.0428
  772MOL0     H 4174   1.912   4.288   7.939 -0.8449  0.1161  0.4216
  772MOL0     H 4175   2.009   4.376   7.825 -1.0380  0.5141 -0.4611
  772MOL0     H 4176   2.047   4.434   8.071  0.5257  2.9111  3.7614
  772MOL0     H 4177   1.888   4.496   8.077  1.1332  3.3619 -0.0639
  772MOL0     H 4178   2.036   4.687   8.042  0.0585  0.8855 -1.3377
  772MOL0     H 4179   1.934   4.669   7.907  2.0091 -0.5895 -2.7748
  772MOL0     H 4180   2.202   4.617   8.133 -1.1740 -1.8222 -1.1307
  772MOL0     H 4181   2.415   4.589   8.224  1.6310 -0.4589  0.5814
  772MOL0     H 4182   2.926   4.721   8.003  0.3479  1.9460  0.9630
  772MOL0     H 4183   3.164   4.710   8.089 -0.2500 -0.1495  2.0940
  772MOL0     H 4184   3.269   4.387   8.381 -3.0994 -3.4377 -2.4109
  772MOL0     H 4185   3.338   4.324   8.222 -1.7520 -0.4896 -0.6501
  772MOL0     H 4186   3.463   4.543   8.385 -1.5651 -1.1217  0.2815
  772MOL0     H 4187   3.482   4.375   8.432  2.1749 -2.5222 -1.6199
  772MOL0     H 4188   3.536   4.351   8.158 -0.2831 -0.5704  0.2937
  772MOL0     H 4189   3.621   4.500   8.197  3.9243  0.6071  5.2316
  772MOL0     H 4190   3.755   4.300   8.212 -3.3449 -2.2154 -0.9356
  772MOL0     H 4191   3.668   4.244   8.359  1.1755  0.4958  1.7912
  772MOL0     H 4192   3.719   4.468   8.457  1.2748  3.2154 -0.9013
  772MOL0     H 4193   3.813   4.507   8.319 -1.2494 -1.2177 -0.5888
  772MOL0     H 4194   3.946   4.416   8.512 -0.1035  0.1208  0.0277
  772MOL0     H 4195   3.867   4.256   8.499  0.9431 -1.9536 -1.1552
  772MOL0     H 4196   4.027   4.349   8.256  2.6174 -0.9016  0.2438
  772MOL0     H 4197   3.939   4.197   8.293  2.0515  0.6477 -3.4371
  772MOL0     H 4198   4.109   4.192   8.510  0.9852  1.9949  0.6429
  772MOL0     H 4199   4.167   4.148   8.353 -0.5167 -0.8147  0.3282
  772MOL0     H 4200   3.086   4.321   8.256 -3.5369  0.2294  2.3774
  772MOL0     H 4201   2.880   4.309   8.141  1.2247 -0.7557  0.2018
  772MOL0     H 4202   2.580   4.498   7.843  0.9099 -1.4024  1.3117
  772MOL0     H 4203   2.339   4.544   7.740 -3.2555  1.0630  1.4044
  772MOL0     H 4204   0.502   3.931   7.772 -0.4926  0.4656  1.8794
  772MOL0     H 4205   0.258   3.886   7.775 -1.3713 -0.3139  1.8300
  772MOL0     H 4206  -0.190   3.817   7.685  0.9131  0.9611  0.0619
  772MOL0     H 4207  -0.410   3.723   7.669  1.9754  1.6114 -0.2975
  772MOL0     H 4208  -0.670   3.469   7.788 -1.3036 -2.3811  3.7222
  772MOL0     H 4209  -0.571   3.610   7.838  1.7155 -0.8782 -1.4649
  772MOL0     H 4210  -0.651   3.453   8.008 -0.6996 -1.1074 -1.6840
  772MOL0     H 4211  -0.473   3.467   7.999  1.3903 -1.3118 -0.5248
  772MOL0     H 4212  -0.527   3.233   7.824 -1.8626  2.2331 -1.5268
  772MOL0     H 4213  -0.641   3.216   7.936 -1.2223  0.7356 -1.5255
  772MOL0     H 4214  -0.344   3.275   7.999  1.3028 -0.0619  4.5030
  772MOL0     H 4215  -0.457   3.254   8.130  1.5900  1.5635 -0.9705
  772MOL0     H 4216  -0.445   2.857   7.967 -3.8882 -1.2702  1.1403
  772MOL0     H 4217  -0.254   3.355   7.803  1.0574  0.0220 -2.0032
  772MOL0     H 4218   0.046   3.392   7.811  1.7906  0.0815  1.5780
  772MOL0     H 4219   0.034   3.473   7.959  0.8496 -1.2386 -0.0339
  772MOL0     H 4220  -0.075   3.339   7.923 -1.3631  1.2611  0.5978
  773MOL0     O 4221   3.707   8.553  10.179 -0.5121 -0.3099  0.8367
  773MOL0     C 4222   3.631   8.559  10.080  0.3049 -0.2514 -0.2439
  773MOL0     O 4223   3.675   8.584   9.950  0.7843 -0.1101 -0.8120
  773MOL0     C 4224   3.804   8.571   9.912  0.1734  0.2297 -0.2747
  773MOL0     C 4225   3.827   8.515   9.786  0.4178  0.5774  0.4725
  773MOL0     C 4226   3.953   8.528   9.728 -0.2931  0.8130  0.0402
  773MOL0     C 4227   4.063   8.567   9.800 -0.3862 -0.4062  0.2393
  773MOL0     O 4228   4.181   8.567   9.739 -0.4774 -0.4778 -0.5699
  773MOL0     C 4229   4.217   8.450   9.667 -0.2810  0.0694 -0.2754
  773MOL0     C 4230   4.356   8.462   9.619 -0.2175 -0.1127 -0.0478
  773MOL0     C 4231   4.455   8.437   9.733  0.6542  0.3298  0.2241
  773MOL0     C 4232   4.601   8.431   9.665 -0.5011 -0.0886  0.3388
  773MOL0     C 4233   4.697   8.381   9.767  0.7507 -0.1268 -0.5961
  773MOL0     C 4234   4.843   8.412   9.738  0.2549 -0.4054 -0.1764
  773MOL0     C 4235   4.935   8.377   9.861 -0.1598  0.9724  0.4468
  773MOL0     C 4236   5.083   8.392   9.840 -0.0959 -0.1124  0.2106
  773MOL0     N 4237   5.157   8.358   9.953 -0.0173 -0.2350 -0.8198
  773MOL0     C 4238   5.187   8.231  10.000  0.4531 -0.4730  0.5145
  773MOL0     C 4239   5.288   8.246  10.091  0.2675  0.1185 -0.1346
  773MOL0     C 4240   5.365   8.128  10.150 -0.7227 -0.1901  0.3897
  773MOL0     C 4241   5.432   8.043  10.042  0.2834  0.3515  0.1631
  773MOL0     C 4242   5.504   7.910  10.096  0.3931 -0.9856 -0.9538
  773MOL0     C 4243   5.606   7.861   9.998 -0.1594 -0.2755  1.4138
  773MOL0     O 4244   5.670   7.750  10.050  0.1164  0.2994  0.1467
  773MOL0     C 4245   5.774   7.704   9.971 -0.3602 -0.2562  0.4095
  773MOL0     C 4246   5.907   7.722  10.011 -0.8166  0.4693 -0.8123
  773MOL0     C 4247   6.008   7.668   9.934 -0.3716  0.2974  0.0331
  773MOL0     C 4248   5.984   7.602   9.814 -0.6175 -0.3697 -0.2917
  773MOL0     C 4249   6.088   7.551   9.735  0.5175 -0.2243 -0.4814
  773MOL0     O 4250   6.056   7.481   9.622 -0.2569  0.4721  0.3242
  773MOL0     C 4251   6.152   7.456   9.529 -0.0433 -0.6739  0.7345
  773MOL0     C 4252   6.211   7.559   9.453 -1.0166  0.0026  0.1247
  773MOL0     C 4253   6.328   7.537   9.365 -0.4186 -0.2703  1.0947
  773MOL0     C 4254   6.391   7.411   9.378 -0.2754 -0.9269  0.0864
  773MOL0     O 4255   6.505   7.378   9.305  0.0119  0.4261 -0.3409
  773MOL0     C 4256   6.590   7.490   9.258  0.4116  0.8401 -0.8549
  773MOL0     C 4257   6.705   7.452   9.172  1.3428 -0.5598  0.1596
  773MOL0     C 4258   6.786   7.355   9.251  1.2435 -0.9444  0.0236
  773MOL0     C 4259   6.923   7.322   9.187 -0.1697  0.2098  0.2213
  773MOL0     C 4260   7.003   7.230   9.276 -0.7585  0.3442  0.4038
  773MOL0     C 4261   7.133   7.185   9.212  0.1952  0.1353 -0.8360
  773MOL0     C 4262   7.245   7.290   9.198 -0.4227 -1.4071  0.0871
  773MOL0     C 4263   7.372   7.219   9.173 -1.0145 -0.0577 -0.5049
  773MOL0    Cl 4264   7.424   7.261   8.999  0.1275  0.1799  0.2724
  773MOL0     C 4265   6.324   7.311   9.457 -0.5716 -0.0257 -0.5261
  773MOL0     C 4266   6.212   7.328   9.529  0.2466 -0.6005  0.4747
  773MOL0     O 4267   6.205   7.556   9.775  0.7531  0.2845 -0.3096
  773MOL0     C 4268   5.855   7.580   9.771  0.8083  0.3523 -0.3168
  773MOL0     C 4269   5.753   7.625   9.862  0.0994 -0.0392 -0.6047
  773MOL0     N 4270   5.308   8.381  10.107 -0.2278  0.4468  0.4721
  773MOL0     N 4271   5.233   8.446  10.026 -0.2588 -0.0293  0.1198
  773MOL0     C 4272   4.039   8.635   9.920  0.0157  0.5130 -0.2994
  773MOL0     C 4273   3.906   8.639   9.980 -0.1917  0.0010  0.2128
  773MOL0     C 4274   3.484   8.536  10.093  0.3404 -0.7891  0.1135
  773MOL0     C 4275   3.406   8.551   9.976 -0.6701 -0.1680 -0.2274
  773MOL0     C 4276   3.268   8.536   9.979  0.0828  0.5783 -0.4500
  773MOL0     C 4277   3.197   8.512  10.100  0.1903  0.4161  0.2291
  773MOL0     O 4278   3.065   8.485  10.100  0.4834 -0.2547 -0.0883
  773MOL0     C 4279   2.988   8.555  10.191 -0.2898 -0.7680 -0.0129
  773MOL0     C 4280   2.841   8.530  10.172  0.1992  0.5440 -0.9309
  773MOL0     C 4281   2.793   8.537  10.024 -0.9850  0.5092  0.2786
  773MOL0     C 4282   2.639   8.528   9.990 -0.1259 -0.0545 -0.5245
  773MOL0     C 4283   2.579   8.404  10.049 -0.2401 -0.1365  0.0517
  773MOL0     C 4284   2.518   8.310  10.091 -1.5748 -0.0095  0.1334
  773MOL0     C 4285   3.272   8.493  10.217 -0.5465 -0.4845 -0.6526
  773MOL0     C 4286   3.412   8.500  10.213  0.0224 -0.0521  0.5608
  773MOL0     C 4287   3.480   8.483  10.337 -0.3091 -0.0505  0.1156
  773MOL0     H 4288   3.742   8.477   9.732 -1.1506  3.1435  0.9363
  773MOL0     H 4289   3.956   8.489   9.627  1.2109 -1.1012  0.7590
  773MOL0     H 4290   4.224   8.366   9.737 -0.5784  1.4309  1.4587
  773MOL0     H 4291   4.156   8.430   9.579  0.8254  1.0470 -1.3026
  773MOL0     H 4292   4.366   8.564   9.579  2.4440 -0.8854 -1.6180
  773MOL0     H 4293   4.367   8.393   9.535  1.7667  0.4779 -0.3328
  773MOL0     H 4294   4.433   8.341   9.781  1.3627 -0.8358 -1.6480
  773MOL0     H 4295   4.453   8.512   9.813  0.5980 -0.9296  1.4435
  773MOL0     H 4296   4.602   8.365   9.577 -0.9725  1.8844 -1.2085
  773MOL0     H 4297   4.626   8.529   9.625 -2.1047 -0.0244 -0.5846
  773MOL0     H 4298   4.671   8.426   9.864  0.8380 -0.9889 -0.1634
  773MOL0     H 4299   4.690   8.273   9.775 -1.5643  0.0527  0.8961
  773MOL0     H 4300   4.875   8.363   9.645  1.2413  1.6250 -0.9565
  773MOL0     H 4301   4.861   8.518   9.721  0.3794  0.1966  3.0852
  773MOL0     H 4302   4.920   8.272   9.885  0.0347  0.7157 -0.5142
  773MOL0     H 4303   4.898   8.429   9.950 -2.7186 -2.1914  1.4444
  773MOL0     H 4304   5.105   8.325   9.757  0.7669  1.3063 -0.7572
  773MOL0     H 4305   5.101   8.498   9.816 -1.3685  0.3916  1.3600
  773MOL0     H 4306   5.147   8.137   9.964  0.6810 -0.8671  1.2666
  773MOL0     H 4307   5.427   8.173  10.229 -0.1314  1.8158 -1.1218
  773MOL0     H 4308   5.288   8.064  10.192 -1.6231  0.5675 -0.0686
  773MOL0     H 4309   5.364   8.016   9.961 -2.3460 -0.3396  2.4734
  773MOL0     H 4310   5.508   8.108   9.997 -1.1574  1.2630 -1.0495
  773MOL0     H 4311   5.430   7.834  10.124  0.2575 -0.4286  0.2652
  773MOL0     H 4312   5.551   7.936  10.191 -3.1242  2.5664  0.1042
  773MOL0     H 4313   5.665   7.948   9.968 -1.3421  1.0436  2.7108
  773MOL0     H 4314   5.550   7.835   9.908  2.6909  0.0363 -0.5377
  773MOL0     H 4315   5.913   7.778  10.104 -1.4231 -1.3205  0.3556
  773MOL0     H 4316   6.115   7.686   9.945 -0.3778  1.4926 -1.5601
  773MOL0     H 4317   6.166   7.656   9.466  0.1362  0.2781  2.6163
  773MOL0     H 4318   6.362   7.622   9.307 -0.2920 -0.2452  1.2063
  773MOL0     H 4319   6.519   7.546   9.197 -1.2684  0.5324  0.6948
  773MOL0     H 4320   6.632   7.546   9.342 -1.8445  1.3593  0.0227
  773MOL0     H 4321   6.663   7.414   9.079  0.6840  2.2068 -0.7940
  773MOL0     H 4322   6.752   7.547   9.143 -0.0248 -0.1214 -0.7107
  773MOL0     H 4323   6.800   7.390   9.354 -2.5320  0.5274  0.1719
  773MOL0     H 4324   6.729   7.262   9.257  0.4635 -0.4433  0.5167
  773MOL0     H 4325   6.972   7.418   9.167 -1.8654  1.9153  3.4716
  773MOL0     H 4326   6.897   7.269   9.095 -2.4223 -0.9748  1.4639
  773MOL0     H 4327   6.945   7.140   9.294  1.4861 -2.0058 -2.9059
  773MOL0     H 4328   7.024   7.285   9.369 -1.1775  1.7242 -0.2779
  773MOL0     H 4329   7.170   7.098   9.267  3.6065  1.5005 -0.6797
  773MOL0     H 4330   7.102   7.159   9.110 -1.1169  3.2966 -1.3570
  773MOL0     H 4331   7.254   7.342   9.294 -1.5442 -1.0626  0.0212
  773MOL0     H 4332   7.228   7.367   9.121  3.4145  2.4676  2.6178
  773MOL0     H 4333   7.450   7.243   9.246 -2.0665 -3.5041  2.0258
  773MOL0     H 4334   7.364   7.111   9.190  0.2481  0.1789  2.0224
  773MOL0     H 4335   6.370   7.213   9.455  1.8665  0.9909  1.4213
  773MOL0     H 4336   6.156   7.253   9.583  0.8559 -1.8478 -0.5518
  773MOL0     H 4337   5.816   7.529   9.684  0.9036 -1.3233  0.5778
  773MOL0     H 4338   5.650   7.594   9.847  0.5280 -1.0009 -1.7957
  773MOL0     H 4339   4.123   8.682   9.969  0.4572 -1.2857  0.7439
  773MOL0     H 4340   3.890   8.689  10.075 -0.7892 -1.3188  0.8330
  773MOL0     H 4341   3.444   8.586   9.881 -1.0113  0.1089 -0.2628
  773MOL0     H 4342   3.227   8.528   9.879  1.8008  2.0258 -1.3213
  773MOL0     H 4343   3.011   8.660  10.168  2.3907 -1.3428 -0.2175
  773MOL0     H 4344   3.012   8.520  10.292 -0.8256 -1.4579 -0.1140
  773MOL0     H 4345   2.780   8.597  10.233 -3.1488 -1.0766 -2.2378
  773MOL0     H 4346   2.815   8.429  10.206  1.0187  0.8234  0.5869
  773MOL0     H 4347   2.838   8.456   9.966 -0.0223  1.1267  0.1393
  773MOL0     H 4348   2.831   8.629   9.980  0.4213  0.0319  0.4248
  773MOL0     H 4349   2.588   8.613  10.037  0.2477 -0.0060 -0.2027
  773MOL0     H 4350   2.622   8.539   9.882  1.3868 -0.0943 -0.7976
  773MOL0     H 4351   2.465   8.218  10.108  1.6931 -2.6852 -2.6317
  773MOL0     H 4352   3.217   8.482  10.309 -1.5462  2.0087 -0.8872
  773MOL0     H 4353   3.410   8.444  10.411 -0.7353  0.6419  0.0845
  773MOL0     H 4354   3.573   8.425  10.337 -0.4017 -0.2229 -1.0056
  773MOL0     H 4355   3.509   8.584  10.368  0.7266 -0.4615  0.5462
  774MOL0     O 4356  10.966   6.931   3.367 -0.0585 -0.2746  0.0406
  774MOL0     C 4357  10.901   6.850   3.425  1.0793  0.3308  0.0327
  774MOL0     O 4358  10.942   6.722   3.462  0.6179  0.6480  0.1778
  774MOL0     C 4359  11.070   6.692   3.466 -0.1377 -0.3600  0.2818
  774MOL0     C 4360  11.120   6.579   3.405  0.0982 -0.2404 -0.1429
  774MOL0     C 4361  11.260   6.549   3.420 -0.6095  0.1102  1.0411
  774MOL0     C 4362  11.344   6.619   3.504  0.2034 -0.4053 -0.7076
  774MOL0     O 4363  11.475   6.564   3.515 -0.1030 -0.1269 -0.3783
  774MOL0     C 4364  11.586   6.655   3.537  0.3677  0.3042  0.7482
  774MOL0     C 4365  11.632   6.664   3.679  0.4527  0.6359  1.2411
  774MOL0     C 4366  11.746   6.765   3.700  0.6681 -0.5285 -0.7404
  774MOL0     C 4367  11.763   6.780   3.855  0.9949 -0.0860 -0.2952
  774MOL0     C 4368  11.880   6.867   3.900 -0.4448 -0.3235  0.4618
  774MOL0     C 4369  12.008   6.786   3.926  0.5377  0.9381  0.1172
  774MOL0     C 4370  12.123   6.853   4.001  0.1934 -0.2124 -0.2691
  774MOL0     C 4371  12.250   6.762   4.016 -0.1166  0.5616 -0.0717
  774MOL0     N 4372  12.367   6.843   4.062 -0.2573 -1.2747 -0.2606
  774MOL0     C 4373  12.464   6.788   4.145  0.1578  0.2572  0.1963
  774MOL0     C 4374  12.557   6.888   4.155  0.3388  0.7952 -0.3465
  774MOL0     C 4375  12.695   6.892   4.220  0.1213  0.0352 -0.9298
  774MOL0     C 4376  12.724   7.037   4.256 -0.5370  0.7407  0.4120
  774MOL0     C 4377  12.857   7.047   4.329  0.2805 -0.5920  0.0375
  774MOL0     C 4378  12.899   7.202   4.352  0.5168 -0.4727  0.1159
  774MOL0     O 4379  13.027   7.205   4.431  0.5590  0.5669 -0.0306
  774MOL0     C 4380  13.148   7.195   4.369 -0.2082 -0.4630  0.2727
  774MOL0     C 4381  13.170   7.183   4.232  0.2422 -0.1250 -0.0857
  774MOL0     C 4382  13.304   7.190   4.183 -0.0464 -0.4155 -0.1029
  774MOL0     C 4383  13.413   7.201   4.271 -0.0884  0.4795 -1.1821
  774MOL0     C 4384  13.560   7.196   4.227  0.5016  0.6746 -0.6377
  774MOL0     O 4385  13.653   7.192   4.326 -0.0150 -0.2332  0.3336
  774MOL0     C 4386  13.789   7.202   4.297  0.1021 -0.4436  0.4260
  774MOL0     C 4387  13.839   7.310   4.222  0.0621 -0.9340  0.1283
  774MOL0     C 4388  13.978   7.325   4.200  0.2742  0.3902  0.2801
  774MOL0     C 4389  14.074   7.239   4.259  0.9118 -0.4188 -0.0774
  774MOL0     O 4390  14.212   7.238   4.238 -0.4905 -0.0703 -0.2358
  774MOL0     C 4391  14.274   7.356   4.179  0.5139 -0.4654  0.1625
  774MOL0     C 4392  14.285   7.466   4.287  0.9890 -0.4847 -0.2102
  774MOL0     C 4393  14.396   7.432   4.389  0.2070 -0.7903 -0.8475
  774MOL0     C 4394  14.530   7.465   4.337 -0.2423 -0.2472  0.4250
  774MOL0     C 4395  14.566   7.618   4.370  0.1660  0.5211 -0.0940
  774MOL0     C 4396  14.686   7.661   4.278  0.2116 -0.0824 -0.0683
  774MOL0     C 4397  14.743   7.805   4.299 -0.3599  0.0255  0.0605
  774MOL0     C 4398  14.888   7.822   4.257 -0.0402 -0.4053  0.1995
  774MOL0    Cl 4399  14.948   7.987   4.294  0.1846  0.0312 -0.3272
  774MOL0     C 4400  14.016   7.132   4.334  0.5986 -0.4316  0.4189
  774MOL0     C 4401  13.881   7.111   4.352  0.6227  0.5015 -0.1247
  774MOL0     O 4402  13.584   7.208   4.105  0.2010  0.4363  0.4889
  774MOL0     C 4403  13.384   7.190   4.404 -0.1340 -0.6722 -0.0282
  774MOL0     C 4404  13.256   7.199   4.458  0.7989 -0.0536 -0.3500
  774MOL0     N 4405  12.498   7.001   4.099 -0.0308  0.4470 -0.7739
  774MOL0     N 4406  12.385   6.980   4.044 -0.5502  0.3414  0.0911
  774MOL0     C 4407  11.293   6.735   3.567  0.3165 -0.2943  0.2891
  774MOL0     C 4408  11.159   6.769   3.545 -0.9183 -0.6244 -1.1418
  774MOL0     C 4409  10.754   6.875   3.444 -0.3621  0.5066  0.1449
  774MOL0     C 4410  10.666   6.769   3.429 -0.0640 -0.6590 -0.3438
  774MOL0     C 4411  10.527   6.780   3.443  0.6390 -0.1915  0.5236
  774MOL0     C 4412  10.468   6.900   3.471 -1.3470 -0.0181  0.0524
  774MOL0     O 4413  10.337   6.913   3.503 -0.0037  0.1605  0.2322
  774MOL0     C 4414  10.227   6.875   3.404 -0.4581 -0.9964  0.4769
  774MOL0     C 4415  10.120   6.993   3.397  0.0457  0.2937  0.2435
  774MOL0     C 4416  10.042   6.984   3.265  0.2550  0.0082 -0.7302
  774MOL0     C 4417   9.892   7.040   3.261  0.8213 -0.0086 -0.0671
  774MOL0     C 4418   9.881   7.179   3.295  0.0352  0.4928 -0.6223
  774MOL0     C 4419   9.884   7.299   3.326  0.0217 -0.0815  0.5925
  774MOL0     C 4420  10.549   7.013   3.471  0.8193  0.9747 -0.1032
  774MOL0     C 4421  10.693   7.008   3.453 -0.0010 -0.1688 -0.3397
  774MOL0     C 4422  10.774   7.131   3.472 -0.1154 -0.2007 -0.1620
  774MOL0     H 4423  11.063   6.498   3.361  0.7864 -0.3613 -0.8588
  774MOL0     H 4424  11.299   6.461   3.371 -0.2741  1.4377 -1.2640
  774MOL0     H 4425  11.664   6.618   3.470 -1.1764 -0.7188 -0.5698
  774MOL0     H 4426  11.554   6.756   3.509 -4.8501 -0.4956  2.5486
  774MOL0     H 4427  11.670   6.566   3.709 -1.2958 -0.4302  0.1360
  774MOL0     H 4428  11.551   6.669   3.753  0.6821 -1.2961  1.6598
  774MOL0     H 4429  11.724   6.862   3.652  1.7697  0.7354  1.1869
  774MOL0     H 4430  11.840   6.732   3.655 -0.2051 -1.6421 -1.8239
  774MOL0     H 4431  11.670   6.825   3.890  1.9773  3.1624 -1.5217
  774MOL0     H 4432  11.783   6.678   3.892  0.4994 -0.3372 -0.7092
  774MOL0     H 4433  11.887   6.950   3.829 -1.9594 -0.8917 -0.3944
  774MOL0     H 4434  11.851   6.906   3.998  1.3465  0.7489  0.6029
  774MOL0     H 4435  11.984   6.691   3.974  1.4651 -0.8839 -2.7893
  774MOL0     H 4436  12.046   6.768   3.825 -0.3370 -1.3935  0.1431
  774MOL0     H 4437  12.091   6.875   4.103  1.3567  2.2831 -0.3726
  774MOL0     H 4438  12.145   6.947   3.950 -3.6579 -0.3117 -2.4807
  774MOL0     H 4439  12.226   6.692   4.096 -0.6228 -1.7245 -2.1036
  774MOL0     H 4440  12.283   6.710   3.925  1.5169  0.9771  0.2378
  774MOL0     H 4441  12.479   6.686   4.180  0.0148  0.4311  0.7691
  774MOL0     H 4442  12.693   6.839   4.316  0.7607 -2.1714 -2.0831
  774MOL0     H 4443  12.769   6.838   4.161 -0.3440  0.4133 -1.8759
  774MOL0     H 4444  12.723   7.101   4.167  0.1550 -1.9188 -1.6381
  774MOL0     H 4445  12.644   7.074   4.321  0.9625 -0.7026  3.2253
  774MOL0     H 4446  12.933   6.984   4.282  0.0138 -0.8778 -0.0111
  774MOL0     H 4447  12.849   7.002   4.428 -0.2358  0.9512  0.7274
  774MOL0     H 4448  12.817   7.257   4.399  1.3395  0.8163  0.0864
  774MOL0     H 4449  12.920   7.252   4.257 -2.7091 -0.3788 -0.6549
  774MOL0     H 4450  13.091   7.194   4.158 -0.0879  1.1731  0.4360
  774MOL0     H 4451  13.324   7.172   4.078 -0.1862  0.1928 -0.2336
  774MOL0     H 4452  13.765   7.385   4.195 -0.6030 -1.1049  1.4219
  774MOL0     H 4453  13.998   7.414   4.141 -1.4046 -0.0839 -1.1282
  774MOL0     H 4454  14.378   7.338   4.151  1.4121  0.4669  2.6966
  774MOL0     H 4455  14.211   7.384   4.093 -0.9277  1.6162  1.7930
  774MOL0     H 4456  14.307   7.564   4.245  0.6064 -0.6326 -0.7668
  774MOL0     H 4457  14.184   7.477   4.327 -1.0334 -4.8840 -3.2821
  774MOL0     H 4458  14.373   7.494   4.476 -1.1943  2.1486 -3.1482
  774MOL0     H 4459  14.384   7.327   4.416  1.3775 -0.7697 -0.1605
  774MOL0     H 4460  14.529   7.453   4.228 -0.5164  3.7870 -0.1746
  774MOL0     H 4461  14.612   7.411   4.386  0.8405  1.0891  0.1718
  774MOL0     H 4462  14.588   7.633   4.476  0.1289 -0.1025  0.0039
  774MOL0     H 4463  14.472   7.669   4.344  0.3827  2.5515  2.6557
  774MOL0     H 4464  14.774   7.599   4.301  0.4982  0.2408 -0.2846
  774MOL0     H 4465  14.673   7.638   4.172  1.0857 -2.9070  0.3524
  774MOL0     H 4466  14.728   7.843   4.400  1.4209 -1.0498  0.7584
  774MOL0     H 4467  14.690   7.869   4.227  0.5811  0.5396 -0.1878
  774MOL0     H 4468  14.950   7.751   4.313  0.6759  1.2236  1.5725
  774MOL0     H 4469  14.904   7.804   4.151  0.9959  3.7977 -0.5563
  774MOL0     H 4470  14.068   7.047   4.378  0.6755  0.3038  1.8002
  774MOL0     H 4471  13.851   7.020   4.402  1.7675  0.5210  0.6361
  774MOL0     H 4472  13.468   7.182   4.472  0.5403  0.2655 -0.7193
  774MOL0     H 4473  13.257   7.189   4.566  1.3508 -0.7198 -0.4109
  774MOL0     H 4474  11.345   6.791   3.644  2.2719 -2.5126  0.7064
  774MOL0     H 4475  11.134   6.857   3.604  1.4511 -0.3252 -0.4909
  774MOL0     H 4476  10.696   6.667   3.404 -0.3112 -0.6353 -0.7394
  774MOL0     H 4477  10.461   6.699   3.413 -2.0203  1.9123  0.2887
  774MOL0     H 4478  10.171   6.782   3.420 -3.7447  0.5001 -1.4580
  774MOL0     H 4479  10.272   6.866   3.305  0.1736  0.4724  0.6025
  774MOL0     H 4480  10.167   7.091   3.410  3.7690 -1.2331 -0.4234
  774MOL0     H 4481  10.052   6.980   3.482 -1.0589 -1.1499 -0.8261
  774MOL0     H 4482  10.034   6.877   3.240 -0.5521 -0.6899  2.0938
  774MOL0     H 4483  10.106   7.032   3.191 -0.7445  3.4091  0.4279
  774MOL0     H 4484   9.839   7.039   3.165 -1.8628 -2.3861  1.2870
  774MOL0     H 4485   9.828   6.979   3.326  2.2579 -0.4385  0.9724
  774MOL0     H 4486   9.898   7.403   3.350  0.5510 -0.3198  1.3490
  774MOL0     H 4487  10.502   7.110   3.483  0.1023  0.5926  0.2348
  774MOL0     H 4488  10.719   7.223   3.493  1.9769  0.9840  0.3544
  774MOL0     H 4489  10.844   7.123   3.556  0.9078 -0.0411 -0.9870
  774MOL0     H 4490  10.825   7.129   3.376  0.3864 -0.7759  0.1140
  775MOL0     O 4491   3.712   0.932   5.946  0.2215  0.9465 -0.5183
  775MOL0     C 4492   3.669   0.966   6.058  0.3575 -0.3699  0.0490
  775MOL0     O 4493   3.738   0.958   6.175  0.1459 -0.0696 -0.3478
  775MOL0     C 4494   3.858   0.889   6.175 -0.4921  0.1446  0.6740
  775MOL0     C 4495   3.868   0.761   6.232 -0.3851  0.2096 -0.0528
  775MOL0     C 4496   3.982   0.690   6.222  0.3097  0.8902  0.6368
  775MOL0     C 4497   4.094   0.750   6.174 -0.8103  0.2454 -0.8141
  775MOL0     O 4498   4.220   0.688   6.169 -0.1271  0.1697  0.0200
  775MOL0     C 4499   4.234   0.546   6.174  0.6488 -0.2150 -0.2465
  775MOL0     C 4500   4.381   0.515   6.142  0.6482  0.1761  0.2276
  775MOL0     C 4501   4.406   0.376   6.111 -0.0620 -0.0450 -0.1377
  775MOL0     C 4502   4.551   0.356   6.057  0.1712 -0.1677 -0.5263
  775MOL0     C 4503   4.656   0.351   6.175 -0.3138 -0.3274 -0.2257
  775MOL0     C 4504   4.785   0.273   6.134  0.2602  0.3640 -0.0854
  775MOL0     C 4505   4.871   0.243   6.259 -0.9593 -0.2937  0.6785
  775MOL0     C 4506   4.980   0.138   6.219  0.5849  0.3595 -0.2284
  775MOL0     N 4507   5.091   0.187   6.136  0.3619  0.3098 -0.7921
  775MOL0     C 4508   5.106   0.156   6.006 -0.1906 -0.0981  0.4118
  775MOL0     C 4509   5.195   0.248   5.960 -0.2095 -0.3309 -0.1776
  775MOL0     C 4510   5.232   0.274   5.822 -0.1409 -0.1929 -0.4566
  775MOL0     C 4511   5.370   0.212   5.795 -0.1119  0.8843  0.6363
  775MOL0     C 4512   5.417   0.231   5.650  0.2894  0.5083 -0.7930
  775MOL0     C 4513   5.504   0.105   5.608  0.8488  0.1827 -0.5057
  775MOL0     O 4514   5.625   0.112   5.683 -0.2498  0.3302 -0.0683
  775MOL0     C 4515   5.734   0.035   5.635  0.4240 -0.6875 -0.3372
  775MOL0     C 4516   5.852   0.071   5.695 -0.3609  1.1578  0.1811
  775MOL0     C 4517   5.974   0.006   5.673  0.0872 -0.1790  0.6784
  775MOL0     C 4518   5.975  -0.095   5.576 -0.3314 -0.0159 -0.1495
  775MOL0     C 4519   6.112  -0.148   5.539 -0.0164 -0.3079  0.4360
  775MOL0     O 4520   6.137  -0.174   5.408  0.4724 -0.3516  0.2752
  775MOL0     C 4521   6.264  -0.200   5.363 -0.0685 -0.4412  0.0304
  775MOL0     C 4522   6.380  -0.121   5.407  0.7189  0.6424  0.1255
  775MOL0     C 4523   6.506  -0.146   5.348  0.2088 -0.0086  0.0961
  775MOL0     C 4524   6.514  -0.253   5.255  0.1270 -0.5410 -0.2328
  775MOL0     O 4525   6.626  -0.305   5.196  0.0110 -0.1115 -0.1384
  775MOL0     C 4526   6.754  -0.245   5.233 -0.8222  0.4530 -0.7365
  775MOL0     C 4527   6.855  -0.305   5.132  0.4281 -0.3341  0.1055
  775MOL0     C 4528   6.999  -0.296   5.160 -0.8172  0.5297  0.0541
  775MOL0     C 4529   7.063  -0.401   5.257 -0.0452  0.8872 -0.0380
  775MOL0     C 4530   7.212  -0.381   5.282  0.3091 -0.0915 -0.1715
  775MOL0     C 4531   7.293  -0.438   5.163 -0.3636 -0.1498 -0.2367
  775MOL0     C 4532   7.446  -0.438   5.183  0.7768  0.5963 -0.9612
  775MOL0     C 4533   7.506  -0.555   5.115 -0.1335  0.3567  0.9612
  775MOL0    Cl 4534   7.689  -0.532   5.139  0.1631  0.0427 -0.1238
  775MOL0     C 4535   6.399  -0.331   5.224  0.6456  0.4720 -0.4002
  775MOL0     C 4536   6.276  -0.306   5.277  0.3147  0.3661  0.2937
  775MOL0     O 4537   6.191  -0.147   5.626 -0.3479 -0.1539 -0.1819
  775MOL0     C 4538   5.857  -0.131   5.510  0.3573 -0.3542 -0.7738
  775MOL0     C 4539   5.733  -0.072   5.540 -1.0325 -0.1741 -1.4801
  775MOL0     N 4540   5.225   0.339   6.051  0.2518 -0.7189 -0.4907
  775MOL0     N 4541   5.167   0.297   6.165  1.2629 -0.6364  0.0945
  775MOL0     C 4542   4.100   0.875   6.125 -0.1410 -0.3742 -0.0261
  775MOL0     C 4543   3.981   0.948   6.127  0.0160  0.7803  0.3975
  775MOL0     C 4544   3.525   1.003   6.071  0.2738  0.5446 -0.6828
  775MOL0     C 4545   3.453   0.972   6.193  0.7450 -0.3070  1.0170
  775MOL0     C 4546   3.312   0.995   6.203 -0.2253 -0.3146 -0.5112
  775MOL0     C 4547   3.243   1.038   6.099  0.2957 -0.4047  0.7457
  775MOL0     O 4548   3.106   1.052   6.121  0.2290  0.1173 -0.7945
  775MOL0     C 4549   3.025   1.066   6.005 -1.2388  0.6305 -0.5540
  775MOL0     C 4550   3.024   1.209   5.979  0.3581 -0.4002  0.5179
  775MOL0     C 4551   2.886   1.266   5.957  0.1524  0.2747 -0.6121
  775MOL0     C 4552   2.828   1.204   5.833  1.2322 -1.8446 -0.1690
  775MOL0     C 4553   2.712   1.283   5.783  0.5769  0.3729  0.2596
  775MOL0     C 4554   2.614   1.356   5.757  0.7149  0.2947 -0.4593
  775MOL0     C 4555   3.317   1.083   5.986 -0.2285  0.2939 -0.9512
  775MOL0     C 4556   3.457   1.070   5.969 -0.4335 -0.1830  0.2302
  775MOL0     C 4557   3.518   1.136   5.846 -1.0285 -0.6669 -0.0661
  775MOL0     H 4558   3.783   0.711   6.277 -1.2430  1.3993 -0.3201
  775MOL0     H 4559   3.974   0.586   6.253 -0.8691  1.0707  0.9788
  775MOL0     H 4560   4.201   0.511   6.272  1.1832 -0.2331 -0.0685
  775MOL0     H 4561   4.168   0.507   6.097  2.2899  0.4858 -2.0779
  775MOL0     H 4562   4.430   0.542   6.235 -0.7056  1.2098  0.6730
  775MOL0     H 4563   4.412   0.578   6.058 -0.4828  2.3538  1.3471
  775MOL0     H 4564   4.341   0.339   6.031  2.7693 -3.4406 -1.1637
  775MOL0     H 4565   4.385   0.311   6.197 -0.5266  0.9329  0.4953
  775MOL0     H 4566   4.559   0.269   5.991  2.4513  1.1231 -2.1223
  775MOL0     H 4567   4.576   0.445   5.999 -0.5226  1.2372  1.2228
  775MOL0     H 4568   4.686   0.453   6.201  2.8061 -0.7594 -1.6472
  775MOL0     H 4569   4.610   0.308   6.264 -0.4184 -0.9149 -0.5551
  775MOL0     H 4570   4.767   0.180   6.079 -0.0147 -0.2074  0.9412
  775MOL0     H 4571   4.840   0.327   6.057  1.2419 -1.3532 -0.6605
  775MOL0     H 4572   4.805   0.209   6.339 -0.8312  1.6337  1.6684
  775MOL0     H 4573   4.930   0.329   6.294  2.5265 -2.2384  0.0952
  775MOL0     H 4574   5.016   0.102   6.316 -1.6711  3.6828  2.0636
  775MOL0     H 4575   4.926   0.055   6.172 -3.6598  1.3693  2.2508
  775MOL0     H 4576   5.057   0.080   5.946  1.4371 -0.1256 -0.9888
  775MOL0     H 4577   5.155   0.231   5.757  1.5440 -1.5122 -1.7012
  775MOL0     H 4578   5.239   0.383   5.812  0.9206 -0.0139  1.6421
  775MOL0     H 4579   5.448   0.257   5.856  1.8570  0.2660 -1.2760
  775MOL0     H 4580   5.370   0.106   5.823  2.6795  0.4886 -0.5438
  775MOL0     H 4581   5.481   0.320   5.653 -0.2119  0.8620 -0.4958
  775MOL0     H 4582   5.333   0.243   5.580 -1.4818  2.5314  1.5080
  775MOL0     H 4583   5.512   0.109   5.499 -1.7777  0.7998 -0.7533
  775MOL0     H 4584   5.447   0.012   5.621 -1.3567  1.2886 -1.7144
  775MOL0     H 4585   5.859   0.158   5.760 -2.8390  1.0199  0.7505
  775MOL0     H 4586   6.069   0.035   5.716 -0.4115 -1.1945  2.6078
  775MOL0     H 4587   6.368  -0.043   5.482  1.0751  1.7509 -0.9293
  775MOL0     H 4588   6.584  -0.074   5.373  0.3870 -0.0857 -0.2373
  775MOL0     H 4589   6.743  -0.137   5.228 -0.0811  0.5618 -0.0781
  775MOL0     H 4590   6.771  -0.276   5.336 -1.1651 -2.3955 -1.4282
  775MOL0     H 4591   6.836  -0.413   5.123  1.3035 -0.4813 -0.1184
  775MOL0     H 4592   6.826  -0.258   5.038 -2.7050 -0.6706  0.7862
  775MOL0     H 4593   7.048  -0.314   5.063  2.0457 -0.5564  1.5964
  775MOL0     H 4594   7.030  -0.195   5.187 -0.9222  1.1164 -1.8772
  775MOL0     H 4595   7.050  -0.498   5.209  1.5758  1.1641 -1.1051
  775MOL0     H 4596   7.012  -0.399   5.354 -1.4524  1.8099 -0.7619
  775MOL0     H 4597   7.251  -0.421   5.375  3.2558  2.0388 -0.3717
  775MOL0     H 4598   7.235  -0.276   5.303  0.1648 -0.4447  1.8825
  775MOL0     H 4599   7.259  -0.542   5.160 -4.3438  0.9470  1.3455
  775MOL0     H 4600   7.265  -0.382   5.073 -2.5120  0.1581  0.5629
  775MOL0     H 4601   7.467  -0.454   5.289  1.1736  0.5460 -1.0459
  775MOL0     H 4602   7.498  -0.349   5.147  1.8659 -0.2475 -1.5284
  775MOL0     H 4603   7.484  -0.646   5.172  3.1413 -0.0985  1.6666
  775MOL0     H 4604   7.489  -0.545   5.007  0.8877  1.1048  0.8561
  775MOL0     H 4605   6.415  -0.410   5.151  1.1657  2.1012 -2.1499
  775MOL0     H 4606   6.196  -0.366   5.236 -0.6811  0.4194  2.0581
  775MOL0     H 4607   5.850  -0.217   5.443 -1.5488 -2.1744  1.6001
  775MOL0     H 4608   5.641  -0.113   5.499 -2.0471  0.5694 -0.0309
  775MOL0     H 4609   4.198   0.900   6.086 -0.7026 -0.7342 -1.7597
  775MOL0     H 4610   3.990   1.051   6.095  4.7331 -0.0157 -1.7124
  775MOL0     H 4611   3.497   0.922   6.279 -0.0806 -1.0428  1.0194
  775MOL0     H 4612   3.272   0.964   6.299  2.3022  2.5650  1.7029
  775MOL0     H 4613   2.929   1.022   6.033 -0.2491  0.4279  2.9408
  775MOL0     H 4614   3.073   1.008   5.925  2.4460  1.5202  0.7890
  775MOL0     H 4615   3.083   1.237   5.891 -1.8180  0.4985 -0.7342
  775MOL0     H 4616   3.069   1.262   6.064  0.9387 -0.9912  0.5843
  775MOL0     H 4617   2.900   1.373   5.943  0.6447  0.3334  0.2253
  775MOL0     H 4618   2.828   1.248   6.049  1.6439  2.5688  0.8833
  775MOL0     H 4619   2.898   1.199   5.749  0.7393 -1.3475 -0.6138
  775MOL0     H 4620   2.802   1.099   5.850 -1.2682 -1.1395  0.6238
  775MOL0     H 4621   2.548   1.435   5.727 -0.9330 -0.3932  1.1451
  775MOL0     H 4622   3.252   1.125   5.910 -4.7133 -0.5798  2.0120
  775MOL0     H 4623   3.534   1.067   5.763 -3.1801 -1.6372  0.2837
  775MOL0     H 4624   3.465   1.228   5.819  3.5844  2.4257  0.1472
  775MOL0     H 4625   3.615   1.178   5.875 -2.1795  1.8026  0.4705
  776MOL0     O 4626   7.039   5.981  10.714  0.1230 -0.0584 -0.1490
  776MOL0     C 4627   6.941   6.038  10.757  0.8592  0.1887 -0.1140
  776MOL0     O 4628   6.932   6.173  10.776  0.3558 -0.0771 -0.4728
  776MOL0     C 4629   7.050   6.244  10.758  0.2329 -0.3676 -0.0555
  776MOL0     C 4630   7.054   6.363  10.678  0.3461  0.3777 -0.5600
  776MOL0     C 4631   7.169   6.440  10.673  0.6237 -0.1617 -0.7151
  776MOL0     C 4632   7.285   6.398  10.739  0.3962 -0.6108 -1.0627
  776MOL0     O 4633   7.397   6.470  10.737 -0.6478  0.6555 -0.3711
  776MOL0     C 4634   7.460   6.505  10.610  0.0361 -0.3371 -0.6200
  776MOL0     C 4635   7.591   6.565  10.647 -0.0006  0.3777  0.1611
  776MOL0     C 4636   7.664   6.501  10.768 -0.7164  0.5239  0.9066
  776MOL0     C 4637   7.817   6.523  10.770 -0.0570 -0.3421 -0.1089
  776MOL0     C 4638   7.880   6.402  10.842 -0.1050 -0.0599  0.1575
  776MOL0     C 4639   8.034   6.423  10.854 -0.7095 -0.4620  0.0407
  776MOL0     C 4640   8.098   6.296  10.927  0.3232  0.5391 -0.2305
  776MOL0     C 4641   8.255   6.305  10.929  0.6854 -0.5268 -1.0002
  776MOL0     N 4642   8.307   6.228  10.818  0.3853  0.6358  0.6105
  776MOL0     C 4643   8.354   6.286  10.703 -0.2145  0.5780  0.1060
  776MOL0     C 4644   8.386   6.186  10.620 -0.5220 -0.3476 -1.0852
  776MOL0     C 4645   8.436   6.211  10.478  0.3829 -0.1183  0.2921
  776MOL0     C 4646   8.580   6.258  10.476  0.1914 -0.5856 -1.0259
  776MOL0     C 4647   8.610   6.345  10.352  0.1068  1.2457  0.0228
  776MOL0     C 4648   8.750   6.392  10.352  0.0847  0.8345 -1.4679
  776MOL0     O 4649   8.770   6.490  10.250 -0.0047  0.7245  0.5126
  776MOL0     C 4650   8.898   6.515  10.224 -0.4666  0.4563  0.2035
  776MOL0     C 4651   8.927   6.597  10.109  0.2853  0.1820  0.1401
  776MOL0     C 4652   9.059   6.624  10.061  0.5511 -0.8240  1.0205
  776MOL0     C 4653   9.168   6.574  10.135  0.0366  0.0720 -0.0086
  776MOL0     C 4654   9.308   6.590  10.092  0.1108 -0.1316  0.1074
  776MOL0     O 4655   9.415   6.538  10.167 -0.8373  0.4812 -0.1355
  776MOL0     C 4656   9.547   6.567  10.141 -0.1058 -0.6698  0.6278
  776MOL0     C 4657   9.648   6.546  10.242 -0.2999 -1.2415 -0.9324
  776MOL0     C 4658   9.782   6.572  10.213  0.1268  1.2007  1.1574
  776MOL0     C 4659   9.826   6.613  10.085  0.2160 -0.1299 -1.3449
  776MOL0     O 4660   9.951   6.626  10.052 -0.5060  0.1415  0.8770
  776MOL0     C 4661  10.057   6.611  10.142 -0.3872 -0.2767 -0.0067
  776MOL0     C 4662  10.187   6.628  10.073 -0.1257  0.4349 -0.2138
  776MOL0     C 4663  10.296   6.592  10.170 -0.6712  0.1626  0.0132
  776MOL0     C 4664  10.442   6.608  10.119  0.3152  0.0615 -0.7606
  776MOL0     C 4665  10.546   6.559  10.221  0.2628  0.6426 -0.5691
  776MOL0     C 4666  10.686   6.542  10.159  0.9815 -0.5173  0.4066
  776MOL0     C 4667  10.736   6.658  10.078  0.1970  0.3394  0.7942
  776MOL0     C 4668  10.893   6.630  10.044 -0.0698 -0.5156  0.1896
  776MOL0    Cl 4669  10.984   6.664  10.188 -0.0700  0.7119  0.2708
  776MOL0     C 4670   9.730   6.626   9.988 -0.1886  0.1113 -0.2804
  776MOL0     C 4671   9.596   6.606  10.018 -0.0630 -0.5015 -0.0103
  776MOL0     O 4672   9.323   6.665  10.000 -0.0979  0.0165  0.3308
  776MOL0     C 4673   9.148   6.491  10.246  0.7592  0.8336 -1.3330
  776MOL0     C 4674   9.017   6.460  10.288  0.2726 -0.9274 -0.5236
  776MOL0     N 4675   8.354   6.066  10.678 -0.3953 -0.5416 -0.0765
  776MOL0     N 4676   8.313   6.093  10.796  0.8876 -0.3286 -0.0813
  776MOL0     C 4677   7.282   6.279  10.815  0.6287 -0.0598 -0.1582
  776MOL0     C 4678   7.167   6.204  10.823  0.7684 -0.8118  0.2106
  776MOL0     C 4679   6.822   5.944  10.760  0.9657  0.0696 -0.1064
  776MOL0     C 4680   6.846   5.806  10.783  0.8881  0.8132  0.4211
  776MOL0     C 4681   6.742   5.717  10.814  0.3676  0.1861  0.6002
  776MOL0     C 4682   6.611   5.760  10.815 -0.0608 -0.1461  0.1269
  776MOL0     O 4683   6.519   5.666  10.849  0.5227  0.1233  0.1590
  776MOL0     C 4684   6.380   5.700  10.822  0.4020  0.1943  0.1547
  776MOL0     C 4685   6.291   5.591  10.892 -0.7530 -0.3618  0.5057
  776MOL0     C 4686   6.329   5.448  10.839  1.0542  0.0773 -0.6296
  776MOL0     C 4687   6.214   5.347  10.857 -0.7050  0.4821  0.2114
  776MOL0     C 4688   6.179   5.347  10.999 -0.0272 -0.3627  0.6102
  776MOL0     C 4689   6.174   5.324  11.118 -0.6553 -0.3301 -0.7994
  776MOL0     C 4690   6.588   5.894  10.783 -0.0756 -0.1838 -0.0511
  776MOL0     C 4691   6.687   5.991  10.758  0.5746  0.1484  1.0060
  776MOL0     C 4692   6.645   6.133  10.720 -0.1266 -0.4672  0.3364
  776MOL0     H 4693   6.969   6.398  10.621 -0.9749  1.0478  1.7058
  776MOL0     H 4694   7.163   6.527  10.608 -1.1827  0.0015 -0.3970
  776MOL0     H 4695   7.477   6.412  10.556 -0.0461 -0.4933 -0.3796
  776MOL0     H 4696   7.407   6.576  10.547 -0.9406  0.3142  0.8809
  776MOL0     H 4697   7.577   6.671  10.670  0.7176  0.3330  0.8438
  776MOL0     H 4698   7.656   6.555  10.559  2.0673  0.8741  1.5518
  776MOL0     H 4699   7.656   6.396  10.739 -2.9677  0.3851  1.8263
  776MOL0     H 4700   7.614   6.516  10.864  1.5765  0.3500  2.1962
  776MOL0     H 4701   7.861   6.539  10.672 -2.0707 -0.4278 -1.0726
  776MOL0     H 4702   7.831   6.614  10.829  0.0862  0.2421 -1.0362
  776MOL0     H 4703   7.848   6.392  10.946 -0.4619 -2.5749 -0.1402
  776MOL0     H 4704   7.870   6.302  10.800  0.9992 -1.8970  3.8295
  776MOL0     H 4705   8.080   6.451  10.760  1.5019  1.0534  1.4746
  776MOL0     H 4706   8.052   6.507  10.922 -0.2374 -0.4464 -0.1049
  776MOL0     H 4707   8.065   6.200  10.885 -0.1030  1.2287 -1.5158
  776MOL0     H 4708   8.058   6.289  11.028  1.1568 -1.7850  0.0188
  776MOL0     H 4709   8.293   6.407  10.935 -2.0019  0.4757  0.5982
  776MOL0     H 4710   8.282   6.253  11.021 -3.0353 -0.2460  0.4443
  776MOL0     H 4711   8.349   6.393  10.685  1.0481  0.5869 -0.2793
  776MOL0     H 4712   8.423   6.122  10.415  0.7255 -0.5632  0.8383
  776MOL0     H 4713   8.374   6.286  10.428 -0.0759 -1.4717 -1.2643
  776MOL0     H 4714   8.616   6.318  10.560  0.0791  0.6596 -1.8466
  776MOL0     H 4715   8.640   6.167  10.470  0.7630 -0.1658 -1.8293
  776MOL0     H 4716   8.534   6.423  10.342  0.0794  1.3305  0.8274
  776MOL0     H 4717   8.603   6.287  10.260 -0.7040 -0.1167  0.9060
  776MOL0     H 4718   8.808   6.300  10.341 -0.8592  0.2260 -1.4485
  776MOL0     H 4719   8.786   6.432  10.448 -0.3542  0.7821 -1.2815
  776MOL0     H 4720   8.843   6.647  10.062  0.0741  1.4876  1.7760
  776MOL0     H 4721   9.069   6.676   9.965 -0.7243  0.1494  1.3795
  776MOL0     H 4722   9.628   6.521  10.345  2.0494 -2.9385 -0.7953
  776MOL0     H 4723   9.852   6.545  10.291 -0.2454  2.7518  2.0670
  776MOL0     H 4724  10.063   6.697  10.209  1.4731  0.5692 -1.1648
  776MOL0     H 4725  10.056   6.517  10.197 -0.5529  0.0002  0.4669
  776MOL0     H 4726  10.194   6.558   9.989 -3.0956  0.3671 -0.4968
  776MOL0     H 4727  10.193   6.729  10.033  0.4771  0.0549 -1.1286
  776MOL0     H 4728  10.289   6.638  10.269  1.8208 -0.9880  0.8087
  776MOL0     H 4729  10.277   6.486  10.188  2.4450 -0.4634  0.2257
  776MOL0     H 4730  10.468   6.710  10.090  1.4370 -0.1679 -0.6069
  776MOL0     H 4731  10.445   6.540  10.033 -0.3978 -0.1953 -0.5925
  776MOL0     H 4732  10.512   6.469  10.273 -1.9567  2.5171  1.4254
  776MOL0     H 4733  10.558   6.638  10.296  1.8299  0.3199 -0.4418
  776MOL0     H 4734  10.763   6.525  10.235  3.2284 -2.2363 -2.0617
  776MOL0     H 4735  10.690   6.448  10.103 -1.3946 -0.1998 -0.3931
  776MOL0     H 4736  10.729   6.760  10.119 -2.1870 -0.9020  3.8869
  776MOL0     H 4737  10.671   6.656   9.990  0.2830 -0.0346  0.7412
  776MOL0     H 4738  10.903   6.528  10.007 -4.3967 -1.2327  0.4612
  776MOL0     H 4739  10.935   6.701   9.972  2.7218 -2.8255 -0.6194
  776MOL0     H 4740   9.760   6.657   9.889 -1.0141 -1.8871 -1.2109
  776MOL0     H 4741   9.537   6.631   9.930 -0.0559  0.4902  0.2569
  776MOL0     H 4742   9.228   6.442  10.299  0.9207  1.9428 -0.5138
  776MOL0     H 4743   8.992   6.397  10.373  0.9787  1.2072  1.3472
  776MOL0     H 4744   7.376   6.249  10.860  1.4196  2.7916  0.2655
  776MOL0     H 4745   7.158   6.107  10.872 -3.3554 -1.6789 -1.8228
  776MOL0     H 4746   6.944   5.759  10.793 -0.6404 -2.9326 -0.5488
  776MOL0     H 4747   6.766   5.612  10.815  0.6361  0.2279 -0.4256
  776MOL0     H 4748   6.352   5.703  10.716  1.6945  0.3184 -0.2087
  776MOL0     H 4749   6.348   5.792  10.871  0.6337 -0.3608  1.3705
  776MOL0     H 4750   6.188   5.620  10.868 -0.4998 -0.8020 -1.2573
  776MOL0     H 4751   6.310   5.604  10.999 -0.5834  2.8578  0.1745
  776MOL0     H 4752   6.413   5.419  10.903  1.7047  4.0025  0.5951
  776MOL0     H 4753   6.353   5.445  10.732  2.2892 -1.3023 -0.3482
  776MOL0     H 4754   6.128   5.372  10.793  0.4638 -0.8007 -1.9890
  776MOL0     H 4755   6.235   5.245  10.826 -1.3663  0.3176  0.2803
  776MOL0     H 4756   6.179   5.300  11.222 -0.2093  0.0057 -0.7399
  776MOL0     H 4757   6.483   5.914  10.765 -0.6141 -2.5436  0.1363
  776MOL0     H 4758   6.651   6.210  10.798 -1.2237  2.8896 -2.6219
  776MOL0     H 4759   6.714   6.165  10.642  1.6523 -0.2070  1.9351
  776MOL0     H 4760   6.544   6.135  10.677  0.0515  2.5827 -0.1496
  777MOL0     O 4761   1.216   4.337   2.040  0.3041  0.3563 -0.7396
  777MOL0     C 4762   1.186   4.457   2.049  0.0820 -0.0636 -0.5801
  777MOL0     O 4763   1.268   4.557   2.069 -0.2415  0.3659  0.2450
  777MOL0     C 4764   1.402   4.527   2.092 -0.4767 -0.8312  0.4172
  777MOL0     C 4765   1.442   4.477   2.211 -0.0992 -0.4610 -0.2237
  777MOL0     C 4766   1.576   4.454   2.250 -0.2298 -0.5913 -0.0068
  777MOL0     C 4767   1.671   4.485   2.155  0.2189  0.9812  0.8465
  777MOL0     O 4768   1.808   4.476   2.172 -0.5501 -0.0516 -0.2220
  777MOL0     C 4769   1.856   4.388   2.274  0.5912 -0.8639  0.2467
  777MOL0     C 4770   1.880   4.473   2.405  0.5642  0.9109  0.6376
  777MOL0     C 4771   1.995   4.567   2.401 -1.3631  0.4300 -0.8083
  777MOL0     C 4772   2.024   4.628   2.539 -0.0193 -0.3387  0.3386
  777MOL0     C 4773   2.174   4.668   2.573 -0.6155  0.1112 -0.0261
  777MOL0     C 4774   2.256   4.544   2.612  0.6595  0.0177 -0.1752
  777MOL0     C 4775   2.406   4.573   2.594 -1.0224  0.0483 -0.4554
  777MOL0     C 4776   2.485   4.466   2.676 -0.6704 -0.0681 -0.1308
  777MOL0     N 4777   2.631   4.502   2.668  0.2065  0.3417  0.4602
  777MOL0     C 4778   2.696   4.590   2.749  0.1611  0.9118 -0.2350
  777MOL0     C 4779   2.825   4.564   2.719 -0.3689 -0.8967  0.0292
  777MOL0     C 4780   2.941   4.625   2.778  0.1452  0.1151  0.2865
  777MOL0     C 4781   3.068   4.540   2.761  0.4573  0.1849 -0.2844
  777MOL0     C 4782   3.188   4.606   2.834 -0.6554 -0.5840 -0.5283
  777MOL0     C 4783   3.328   4.563   2.803 -0.2750  0.6474  0.6932
  777MOL0     O 4784   3.337   4.559   2.661  0.3905  0.2903  0.1910
  777MOL0     C 4785   3.464   4.536   2.616 -0.3121 -0.5245 -0.3340
  777MOL0     C 4786   3.556   4.447   2.673  0.1963 -0.1319  0.8211
  777MOL0     C 4787   3.691   4.430   2.630 -0.3208 -0.2544  0.3147
  777MOL0     C 4788   3.733   4.497   2.512 -0.6242  0.3701  0.6311
  777MOL0     C 4789   3.866   4.483   2.458 -0.4208  0.1297 -0.2502
  777MOL0     O 4790   3.890   4.552   2.341 -0.4221  0.3299 -0.2145
  777MOL0     C 4791   3.999   4.523   2.267 -0.3457  0.2152 -0.1001
  777MOL0     C 4792   3.980   4.448   2.148  0.1773 -0.0151 -0.0061
  777MOL0     C 4793   4.084   4.410   2.069 -0.4027  0.4074  0.1955
  777MOL0     C 4794   4.210   4.438   2.101  0.5969  0.1059 -0.5322
  777MOL0     O 4795   4.309   4.386   2.026  0.1543  0.1036 -0.2045
  777MOL0     C 4796   4.449   4.403   2.046  0.1090 -0.5960 -0.6239
  777MOL0     C 4797   4.512   4.526   1.984 -0.2090 -0.9094  0.5107
  777MOL0     C 4798   4.662   4.533   1.997  0.4194 -0.5351  0.0166
  777MOL0     C 4799   4.721   4.652   1.936  0.1199 -0.4252 -0.5298
  777MOL0     C 4800   4.849   4.690   2.004 -0.7113  0.7034 -0.1194
  777MOL0     C 4801   4.960   4.577   1.981 -0.6626 -0.3868 -0.2000
  777MOL0     C 4802   5.107   4.619   2.011  0.0117  0.2776 -0.0676
  777MOL0     C 4803   5.166   4.733   1.924 -0.4574 -0.3189  0.2505
  777MOL0    Cl 4804   5.321   4.807   2.004  0.1536 -0.1830 -0.0569
  777MOL0     C 4805   4.237   4.509   2.217  0.4717  0.8779 -0.0519
  777MOL0     C 4806   4.133   4.544   2.305  0.2959  0.6591  0.2065
  777MOL0     O 4807   3.953   4.430   2.526 -0.2801  0.0913 -0.2028
  777MOL0     C 4808   3.645   4.587   2.452 -0.0213 -0.0015  0.9626
  777MOL0     C 4809   3.511   4.608   2.500  0.0302  0.2244 -0.0880
  777MOL0     N 4810   2.835   4.479   2.615 -0.6844  0.0023  0.0799
  777MOL0     N 4811   2.715   4.456   2.575 -0.4463  0.5429 -0.5699
  777MOL0     C 4812   1.634   4.543   2.028 -0.0788 -0.2437  0.1189
  777MOL0     C 4813   1.503   4.563   2.002  0.6444 -0.1764 -0.1155
  777MOL0     C 4814   1.045   4.481   2.050  0.0497 -0.7584 -0.4027
  777MOL0     C 4815   0.961   4.405   1.970 -0.3687 -0.9262  0.0891
  777MOL0     C 4816   0.830   4.437   1.969 -0.3053 -0.1633 -0.3923
  777MOL0     C 4817   0.776   4.538   2.042 -0.5356 -0.0242 -0.2664
  777MOL0     O 4818   0.643   4.556   2.025  1.0599  0.1048 -0.1158
  777MOL0     C 4819   0.579   4.662   2.104  0.3552  0.0601  0.4207
  777MOL0     C 4820   0.459   4.705   2.026 -0.1178 -0.3679  0.0693
  777MOL0     C 4821   0.395   4.824   2.096  0.1495  0.1112  0.3209
  777MOL0     C 4822   0.249   4.832   2.056  0.1239  0.2641 -0.6935
  777MOL0     C 4823   0.171   4.762   2.155  0.1906 -0.6093 -0.7856
  777MOL0     C 4824   0.112   4.707   2.246 -0.6178  0.5816 -0.5652
  777MOL0     C 4825   0.857   4.612   2.131  0.3694 -0.1545 -0.3628
  777MOL0     C 4826   0.992   4.589   2.140 -0.2663 -0.0043  0.1337
  777MOL0     C 4827   1.070   4.668   2.245  0.9494  0.4827 -0.0448
  777MOL0     H 4828   1.373   4.452   2.291 -1.5722 -1.8294 -1.8457
  777MOL0     H 4829   1.604   4.412   2.346 -1.3499 -1.2526  0.0467
  777MOL0     H 4830   1.779   4.312   2.289 -0.7622 -0.0666 -2.0749
  777MOL0     H 4831   1.955   4.349   2.251  2.0907  2.0775  1.1806
  777MOL0     H 4832   1.904   4.391   2.473  0.6738  0.1574 -0.3093
  777MOL0     H 4833   1.781   4.519   2.416 -0.6684 -1.2014 -1.0479
  777MOL0     H 4834   1.982   4.643   2.324  0.3400  2.8053  1.0854
  777MOL0     H 4835   2.079   4.505   2.369 -1.3377  0.4015 -0.6888
  777MOL0     H 4836   1.954   4.709   2.562 -2.2318 -2.7811  2.9765
  777MOL0     H 4837   2.005   4.555   2.618  0.0174 -0.0590  0.6091
  777MOL0     H 4838   2.209   4.699   2.474 -0.1251 -1.3884 -0.3498
  777MOL0     H 4839   2.182   4.746   2.649  1.0581 -0.1197  0.0750
  777MOL0     H 4840   2.224   4.507   2.710 -1.3973 -2.6158 -1.6887
  777MOL0     H 4841   2.236   4.468   2.536  3.7840 -0.0638 -1.0542
  777MOL0     H 4842   2.427   4.673   2.634  3.2436 -0.1626 -1.6743
  777MOL0     H 4843   2.441   4.585   2.491 -0.1269  0.1243 -0.1583
  777MOL0     H 4844   2.449   4.473   2.779 -1.7114 -1.2306 -0.3965
  777MOL0     H 4845   2.476   4.367   2.630  1.6072 -1.3656  2.0211
  777MOL0     H 4846   2.652   4.665   2.813  1.7847  2.2014 -0.5459
  777MOL0     H 4847   2.961   4.720   2.728 -0.7742 -0.3976 -1.0946
  777MOL0     H 4848   2.920   4.639   2.885  2.0960  1.7471  0.5122
  777MOL0     H 4849   3.051   4.443   2.809 -3.4017  0.8079 -0.0836
  777MOL0     H 4850   3.088   4.535   2.654  4.0948  0.1635  0.2509
  777MOL0     H 4851   3.183   4.584   2.941 -0.2444 -1.6132 -0.7188
  777MOL0     H 4852   3.181   4.712   2.808  0.3102 -1.2182 -3.7878
  777MOL0     H 4853   3.342   4.463   2.844  0.8357 -0.2166 -1.6293
  777MOL0     H 4854   3.399   4.625   2.859 -0.1060  0.8429  0.2674
  777MOL0     H 4855   3.519   4.389   2.757  2.0785  1.2298  2.6937
  777MOL0     H 4856   3.743   4.350   2.681 -0.4452  1.2681  2.9727
  777MOL0     H 4857   3.878   4.414   2.134  0.2685 -1.1416  1.7850
  777MOL0     H 4858   4.057   4.358   1.978  0.4682 -2.2833  1.3778
  777MOL0     H 4859   4.482   4.400   2.150 -1.0367  1.7041 -0.1122
  777MOL0     H 4860   4.500   4.322   1.993  1.5159  1.0852 -1.9722
  777MOL0     H 4861   4.480   4.540   1.880  4.2357 -1.1831 -1.1481
  777MOL0     H 4862   4.475   4.618   2.030  1.5031  0.0124  0.1426
  777MOL0     H 4863   4.684   4.538   2.104 -0.3179  4.2233  0.1473
  777MOL0     H 4864   4.699   4.438   1.957  1.1024 -0.1042 -0.3839
  777MOL0     H 4865   4.666   4.747   1.939  0.2650 -0.3686  1.1206
  777MOL0     H 4866   4.731   4.621   1.832  1.8487  0.0149 -0.5370
  777MOL0     H 4867   4.844   4.718   2.110  1.3345 -0.9651  0.5000
  777MOL0     H 4868   4.884   4.778   1.949  0.5333 -1.1336 -2.4649
  777MOL0     H 4869   4.928   4.484   2.030  0.7891 -1.1282 -0.5836
  777MOL0     H 4870   4.967   4.549   1.875 -0.5235  1.8135 -0.8161
  777MOL0     H 4871   5.168   4.529   2.016  0.9136  0.9462  1.8634
  777MOL0     H 4872   5.129   4.650   2.113  3.1773  0.0508 -0.5679
  777MOL0     H 4873   5.187   4.686   1.827  1.3979 -1.8826  1.3611
  777MOL0     H 4874   5.088   4.808   1.905 -0.0134  0.0972  0.0506
  777MOL0     H 4875   4.338   4.531   2.250  0.1612 -1.3640  2.8171
  777MOL0     H 4876   4.151   4.595   2.399 -0.2054  1.1146  0.0579
  777MOL0     H 4877   3.678   4.645   2.365 -1.5870  1.6892  1.4387
  777MOL0     H 4878   3.441   4.677   2.453 -3.3126 -2.9828 -0.2847
  777MOL0     H 4879   1.712   4.568   1.957  1.4655 -0.0270  1.8012
  777MOL0     H 4880   1.467   4.616   1.914 -0.6216  2.1580  1.6661
  777MOL0     H 4881   0.989   4.325   1.902 -1.9997  0.3236 -2.1661
  777MOL0     H 4882   0.767   4.404   1.887 -2.4737  4.8767 -1.1607
  777MOL0     H 4883   0.644   4.747   2.126  0.2574  0.0963  0.5689
  777MOL0     H 4884   0.539   4.614   2.194 -2.9616  2.8562  0.6359
  777MOL0     H 4885   0.385   4.626   2.010  1.1600 -1.6102  0.1888
  777MOL0     H 4886   0.496   4.738   1.929  1.2098 -0.9821  0.3497
  777MOL0     H 4887   0.448   4.914   2.062 -2.0064  1.4852  0.3835
  777MOL0     H 4888   0.403   4.823   2.205  1.8763  0.1510  0.2327
  777MOL0     H 4889   0.217   4.936   2.065 -3.3379 -0.6701 -0.5140
  777MOL0     H 4890   0.239   4.792   1.954  2.7542  1.0641 -1.3311
  777MOL0     H 4891   0.074   4.673   2.340  0.6511  3.3968  1.0995
  777MOL0     H 4892   0.826   4.703   2.181 -0.5289  1.4936 -3.6473
  777MOL0     H 4893   1.128   4.610   2.317  0.4177  1.1721  0.9636
  777MOL0     H 4894   1.136   4.742   2.198  2.5574 -0.2072  1.0459
  777MOL0     H 4895   1.002   4.710   2.319  1.2664 -0.7826  1.0039
  778MOL0     O 4896   5.403   5.504   4.011 -0.7267 -0.6538 -0.0194
  778MOL0     C 4897   5.444   5.445   3.907  0.5464  0.0397 -0.2424
  778MOL0     O 4898   5.574   5.448   3.856 -0.6868  0.2408  0.3789
  778MOL0     C 4899   5.680   5.469   3.940  0.6021  0.5305  0.1548
  778MOL0     C 4900   5.766   5.363   3.976 -0.1895  0.1122  0.5844
  778MOL0     C 4901   5.868   5.396   4.066  0.0798  0.0449  0.3259
  778MOL0     C 4902   5.886   5.522   4.126  0.9670  0.1725 -0.2315
  778MOL0     O 4903   5.987   5.544   4.222  0.4211  0.0573 -0.6823
  778MOL0     C 4904   6.046   5.436   4.292 -0.3595 -0.2140  0.7047
  778MOL0     C 4905   6.066   5.483   4.436 -0.2076  0.3550 -0.6582
  778MOL0     C 4906   6.140   5.610   4.445  0.1305 -0.9878  0.7273
  778MOL0     C 4907   6.158   5.666   4.595  0.3204  1.0149 -0.7358
  778MOL0     C 4908   6.231   5.801   4.591 -0.3146 -0.4968 -0.1225
  778MOL0     C 4909   6.372   5.798   4.546 -1.5897  0.1889 -0.0692
  778MOL0     C 4910   6.461   5.719   4.637 -0.6747 -0.0337  0.6578
  778MOL0     C 4911   6.612   5.753   4.601  0.2984 -0.0844 -0.4940
  778MOL0     N 4912   6.667   5.876   4.667 -0.8421  0.4590  0.7879
  778MOL0     C 4913   6.785   5.942   4.628  0.1040  0.0406  0.4447
  778MOL0     C 4914   6.776   6.060   4.682 -0.3209 -0.2985 -0.3336
  778MOL0     C 4915   6.856   6.185   4.658  0.5799  0.5979 -0.2174
  778MOL0     C 4916   6.993   6.196   4.713 -0.8258 -0.5897  0.1573
  778MOL0     C 4917   7.105   6.177   4.603  0.5376  1.0385  0.1687
  778MOL0     C 4918   7.245   6.173   4.674 -0.5843  0.2046 -0.0766
  778MOL0     O 4919   7.291   6.045   4.648 -0.0090 -0.1057  0.4597
  778MOL0     C 4920   7.420   6.005   4.666  0.0036 -0.9051  0.2722
  778MOL0     C 4921   7.455   5.886   4.603  0.0888  0.2324  0.2437
  778MOL0     C 4922   7.592   5.844   4.616  0.8679  0.1934 -0.2112
  778MOL0     C 4923   7.692   5.919   4.683  0.2415 -0.0932  0.0473
  778MOL0     C 4924   7.835   5.882   4.690 -0.0027  0.3656 -0.0058
  778MOL0     O 4925   7.920   5.968   4.752  0.2892  0.6758  0.1920
  778MOL0     C 4926   8.052   5.959   4.734 -0.6277 -0.9195 -0.5228
  778MOL0     C 4927   8.133   6.072   4.704  0.6667  0.8992  0.0606
  778MOL0     C 4928   8.273   6.059   4.705  0.6616 -0.2258  0.2349
  778MOL0     C 4929   8.341   5.938   4.739  0.1820  0.2001 -0.1885
  778MOL0     O 4930   8.475   5.922   4.746  0.8336 -1.0152  0.1835
  778MOL0     C 4931   8.566   6.009   4.666  0.3172  0.2586  1.0367
  778MOL0     C 4932   8.600   6.131   4.755 -0.7106  0.7840 -0.2891
  778MOL0     C 4933   8.725   6.196   4.699 -0.0362  0.3822  0.5585
  778MOL0     C 4934   8.863   6.127   4.726  0.3173 -0.6522  0.5395
  778MOL0     C 4935   8.980   6.184   4.659  0.1570  0.7609  0.3960
  778MOL0     C 4936   9.109   6.101   4.676  0.3671 -0.3223 -0.1577
  778MOL0     C 4937   9.234   6.173   4.625 -0.1156  0.5970 -0.5305
  778MOL0     C 4938   9.266   6.121   4.480 -0.3143  0.3832  0.5937
  778MOL0    Cl 4939   9.419   6.203   4.404 -0.1640  0.2134 -0.3466
  778MOL0     C 4940   8.263   5.837   4.790  0.2094 -1.2487 -0.1553
  778MOL0     C 4941   8.122   5.845   4.790 -0.7905  0.1090  0.1779
  778MOL0     O 4942   7.879   5.783   4.624 -0.9756  0.6645  0.2432
  778MOL0     C 4943   7.650   6.035   4.756 -0.2011  0.8093  0.8799
  778MOL0     C 4944   7.517   6.076   4.749  0.4115  0.0188  0.2426
  778MOL0     N 4945   6.669   6.065   4.762 -0.2065  0.3426  0.5220
  778MOL0     N 4946   6.596   5.954   4.750  0.6878 -0.7310  0.2720
  778MOL0     C 4947   5.814   5.627   4.070 -0.7245  0.3226  0.7057
  778MOL0     C 4948   5.704   5.596   3.981 -0.2587 -0.8931  0.0847
  778MOL0     C 4949   5.350   5.411   3.801  0.4410  0.8463 -0.2254
  778MOL0     C 4950   5.383   5.413   3.666 -0.4044  0.3018 -0.1309
  778MOL0     C 4951   5.296   5.380   3.562  0.2491  0.3188  1.1202
  778MOL0     C 4952   5.160   5.362   3.596  0.7261  0.4919 -0.0868
  778MOL0     O 4953   5.061   5.338   3.503  0.2712 -0.1087 -0.5007
  778MOL0     C 4954   5.096   5.286   3.382 -0.5221  0.9076 -0.4863
  778MOL0     C 4955   4.973   5.234   3.311  0.2085  0.5757  0.0780
  778MOL0     C 4956   4.879   5.153   3.402  0.0475  0.0976 -0.5135
  778MOL0     C 4957   4.787   5.243   3.489  0.5230 -0.9729 -0.2643
  778MOL0     C 4958   4.657   5.185   3.511 -0.1180  0.4460  0.0507
  778MOL0     C 4959   4.538   5.148   3.513  0.0699  0.0944 -0.1688
  778MOL0     C 4960   5.121   5.378   3.731  0.0346  0.0993  0.3519
  778MOL0     C 4961   5.219   5.382   3.833  0.1754  0.5797  1.3468
  778MOL0     C 4962   5.153   5.386   3.967  0.2243 -0.7867 -0.0653
  778MOL0     H 4963   5.748   5.259   3.953 -3.9607  0.6583  0.3620
  778MOL0     H 4964   5.920   5.309   4.106 -0.9698 -0.3874  0.7871
  778MOL0     H 4965   5.986   5.345   4.289 -2.2299  0.9712 -1.7162
  778MOL0     H 4966   6.143   5.420   4.244 -0.2528  3.0481 -0.4492
  778MOL0     H 4967   6.125   5.409   4.492 -1.1973  1.5086  2.1071
  778MOL0     H 4968   5.970   5.498   4.485  0.3624 -1.8285  1.3516
  778MOL0     H 4969   6.095   5.692   4.388 -0.3511 -1.8142 -0.0983
  778MOL0     H 4970   6.241   5.587   4.411 -0.0237 -0.8692  0.1777
  778MOL0     H 4971   6.058   5.670   4.639  0.2007 -0.1646 -0.8653
  778MOL0     H 4972   6.212   5.592   4.654 -1.3026 -0.0949 -0.5707
  778MOL0     H 4973   6.190   5.881   4.530  3.9189  1.9175 -0.1721
  778MOL0     H 4974   6.235   5.842   4.693  4.0497 -0.3703 -0.1853
  778MOL0     H 4975   6.386   5.771   4.441 -1.0011 -0.5919  0.2033
  778MOL0     H 4976   6.405   5.903   4.541 -2.3300  0.4825  0.8933
  778MOL0     H 4977   6.444   5.612   4.626 -0.0739  0.0002 -0.9123
  778MOL0     H 4978   6.459   5.744   4.743  0.6806  0.0880  0.6695
  778MOL0     H 4979   6.671   5.667   4.634 -1.8680 -1.0961  0.9875
  778MOL0     H 4980   6.615   5.760   4.492  0.3130 -0.6393 -0.5302
  778MOL0     H 4981   6.875   5.903   4.580 -0.3478 -0.4430 -0.0240
  778MOL0     H 4982   6.864   6.197   4.550  1.1095 -3.7405 -0.8188
  778MOL0     H 4983   6.805   6.273   4.699  0.1371  0.8161 -1.2041
  778MOL0     H 4984   7.011   6.292   4.761 -0.0207 -1.1347  0.9862
  778MOL0     H 4985   7.008   6.112   4.782 -0.6392 -0.3165  0.4563
  778MOL0     H 4986   7.107   6.266   4.539 -0.5067 -1.1122 -3.0711
  778MOL0     H 4987   7.091   6.090   4.538 -0.4984  1.7389 -0.5796
  778MOL0     H 4988   7.242   6.190   4.782 -1.3428 -0.7023  0.0636
  778MOL0     H 4989   7.314   6.242   4.625  0.7594 -1.8677 -1.2649
  778MOL0     H 4990   7.376   5.830   4.554  0.2028 -0.5519  0.9374
  778MOL0     H 4991   7.618   5.748   4.573  2.8867  0.8560 -0.5783
  778MOL0     H 4992   8.091   6.168   4.675 -1.3852  0.6049  1.7619
  778MOL0     H 4993   8.324   6.149   4.672  0.2389  1.1454  3.0002
  778MOL0     H 4994   8.650   5.942   4.644  1.1173  1.6589 -0.3614
  778MOL0     H 4995   8.523   6.035   4.569 -1.2200  2.1543  2.1710
  778MOL0     H 4996   8.524   6.210   4.751  1.4824  2.9858 -1.0025
  778MOL0     H 4997   8.612   6.105   4.860 -1.5547  2.1907  0.1819
  778MOL0     H 4998   8.713   6.205   4.591 -0.4109 -0.1374  0.5528
  778MOL0     H 4999   8.725   6.297   4.741  3.0919 -0.0719  1.9374
  778MOL0     H 5000   8.853   6.025   4.688 -1.0951  0.4661 -2.3372
  778MOL0     H 5001   8.896   6.122   4.830  1.6082  1.3650  0.2902
  778MOL0     H 5002   8.989   6.282   4.707 -1.8715  0.5739  1.2433
  778MOL0     H 5003   8.960   6.188   4.552  0.9837 -4.2689 -0.2088
  778MOL0     H 5004   9.122   6.084   4.783 -1.7842 -0.9876  0.0366
  778MOL0     H 5005   9.103   6.009   4.616 -0.1591 -0.0981 -0.4495
  778MOL0     H 5006   9.316   6.157   4.696 -0.4511  0.1827 -0.2333
  778MOL0     H 5007   9.217   6.281   4.623  1.9200  1.0320  1.5111
  778MOL0     H 5008   9.284   6.013   4.476 -1.0864  0.2612 -3.6602
  778MOL0     H 5009   9.179   6.138   4.415  0.3371 -2.2399 -1.0744
  778MOL0     H 5010   8.316   5.755   4.838  0.8445 -1.4049 -1.0828
  778MOL0     H 5011   8.050   5.775   4.832 -0.7113 -1.1371 -1.6391
  778MOL0     H 5012   7.722   6.091   4.816  2.3398 -0.5207 -0.7235
  778MOL0     H 5013   7.491   6.170   4.797 -0.1064  0.4175 -0.7664
  778MOL0     H 5014   5.826   5.732   4.096 -1.1464  0.3077  0.9833
  778MOL0     H 5015   5.643   5.681   3.954  1.4532  0.5331  0.4753
  778MOL0     H 5016   5.490   5.421   3.648 -0.0506  1.9438  2.2268
  778MOL0     H 5017   5.317   5.368   3.456 -0.6242 -0.0739  0.9845
  778MOL0     H 5018   5.170   5.206   3.392  2.2373  3.3423 -0.0680
  778MOL0     H 5019   5.144   5.369   3.330 -2.0314  2.3779  0.3541
  778MOL0     H 5020   5.007   5.164   3.234 -0.5601  0.3546 -0.0684
  778MOL0     H 5021   4.926   5.320   3.263 -1.2013  0.6794  1.5354
  778MOL0     H 5022   4.934   5.090   3.473 -1.5127 -0.3531  0.3526
  778MOL0     H 5023   4.822   5.091   3.333  0.4031 -2.0765  1.0242
  778MOL0     H 5024   4.834   5.251   3.588 -2.2319  1.1690  1.0153
  778MOL0     H 5025   4.770   5.344   3.451  0.6601  0.0625  2.2337
  778MOL0     H 5026   4.438   5.113   3.531 -0.0211  0.3315 -0.1994
  778MOL0     H 5027   5.018   5.364   3.761  0.1865  1.3398  1.5753
  778MOL0     H 5028   5.120   5.488   3.991 -0.2364 -0.8209 -0.5295
  778MOL0     H 5029   5.060   5.329   3.961 -1.0280  1.1237  0.3071
  778MOL0     H 5030   5.219   5.353   4.048 -0.2289 -0.4259  0.4547
  779MOL0     O 5031   1.552   9.994   5.924 -0.3014  0.0193 -0.2120
  779MOL0     C 5032   1.449   9.944   5.883 -0.1533  1.2045  0.1763
  779MOL0     O 5033   1.426   9.807   5.882  0.8057 -0.1412 -0.3792
  779MOL0     C 5034   1.533   9.728   5.873  0.0684 -0.0161  0.3768
  779MOL0     C 5035   1.601   9.711   5.991 -0.1601 -0.7271  0.4292
  779MOL0     C 5036   1.731   9.642   5.990 -0.2193 -0.1603  0.3570
  779MOL0     C 5037   1.791   9.613   5.866  0.5162  0.5078 -0.7742
  779MOL0     O 5038   1.913   9.557   5.850  0.3061  0.1905 -0.3104
  779MOL0     C 5039   1.985   9.499   5.961  0.4238  0.3071 -0.6459
  779MOL0     C 5040   2.120   9.444   5.919 -0.3809 -0.4471  0.0442
  779MOL0     C 5041   2.208   9.560   5.875  0.8098  0.0063  0.4664
  779MOL0     C 5042   2.342   9.489   5.850  0.2245  0.1674 -0.1342
  779MOL0     C 5043   2.462   9.580   5.836  0.2161 -0.5096  0.8506
  779MOL0     C 5044   2.593   9.499   5.827  0.4019 -0.7419  0.8770
  779MOL0     C 5045   2.692   9.591   5.760  0.7629  0.5786 -0.3534
  779MOL0     C 5046   2.838   9.537   5.741  0.0755 -0.2227 -0.8778
  779MOL0     N 5047   2.899   9.510   5.877  1.2411 -0.4740 -0.4447
  779MOL0     C 5048   2.971   9.592   5.962  0.4923 -1.2158  0.5085
  779MOL0     C 5049   2.963   9.531   6.079  0.8214 -0.4953  0.0631
  779MOL0     C 5050   3.029   9.587   6.202 -0.1099 -0.1446  1.2604
  779MOL0     C 5051   3.182   9.555   6.202  0.5663 -0.1862 -0.0861
  779MOL0     C 5052   3.188   9.420   6.272 -0.5863 -0.1264 -0.6205
  779MOL0     C 5053   3.337   9.387   6.292  0.2031 -0.3927 -0.0982
  779MOL0     O 5054   3.397   9.381   6.161  0.0061  0.3785 -0.0584
  779MOL0     C 5055   3.525   9.314   6.162 -0.1279 -1.1792 -0.5515
  779MOL0     C 5056   3.557   9.257   6.044  0.1222  0.1042 -0.2872
  779MOL0     C 5057   3.662   9.166   6.041 -0.0827  0.3791 -0.2805
  779MOL0     C 5058   3.750   9.149   6.154 -0.2046 -0.1620 -0.4498
  779MOL0     C 5059   3.867   9.066   6.135 -0.8930 -0.2478 -0.8573
  779MOL0     O 5060   3.888   9.012   6.011 -0.4387  0.6476 -0.2144
  779MOL0     C 5061   3.999   8.935   5.978  0.5686 -0.2921  0.5025
  779MOL0     C 5062   3.980   8.854   5.852 -0.5366  0.2618 -0.8019
  779MOL0     C 5063   4.073   8.765   5.814  1.1439  0.5553 -0.4080
  779MOL0     C 5064   4.197   8.763   5.876 -0.2637 -0.0092 -0.3521
  779MOL0     O 5065   4.291   8.673   5.814  0.4469  0.1255  0.4097
  779MOL0     C 5066   4.415   8.658   5.880  0.5721  0.0380  0.2909
  779MOL0     C 5067   4.495   8.547   5.811 -0.0022  0.8370  0.1049
  779MOL0     C 5068   4.626   8.502   5.890  0.3654 -0.6774 -0.7881
  779MOL0     C 5069   4.749   8.557   5.822 -0.5259  0.0974 -0.2468
  779MOL0     C 5070   4.884   8.520   5.892 -0.3765  0.4543  0.0255
  779MOL0     C 5071   4.984   8.569   5.782  0.2081 -0.2885  0.1860
  779MOL0     C 5072   5.131   8.532   5.822  0.7144 -1.1557 -0.0935
  779MOL0     C 5073   5.238   8.578   5.733  0.4961  0.0264 -0.0466
  779MOL0    Cl 5074   5.387   8.551   5.817 -0.4300 -0.1984  0.3715
  779MOL0     C 5075   4.220   8.852   5.986 -0.0638 -0.3362  0.0444
  779MOL0     C 5076   4.123   8.931   6.047 -0.4310  0.1274 -0.5498
  779MOL0     O 5077   3.945   9.062   6.230  0.3743 -0.5964  0.0524
  779MOL0     C 5078   3.721   9.218   6.279 -0.2060  0.4129 -0.1333
  779MOL0     C 5079   3.611   9.306   6.279  0.8865  0.1710 -0.0211
  779MOL0     N 5080   2.901   9.401   6.068 -0.6507  0.1847 -0.0107
  779MOL0     N 5081   2.865   9.398   5.938 -0.4953  0.5906 -0.5470
  779MOL0     C 5082   1.727   9.648   5.746 -0.0858  0.3608 -0.0369
  779MOL0     C 5083   1.593   9.692   5.754 -0.3853 -0.3650  0.3452
  779MOL0     C 5084   1.338  10.036   5.856 -0.0836 -0.7143  0.6455
  779MOL0     C 5085   1.349  10.159   5.925  0.7282 -0.4352  0.4997
  779MOL0     C 5086   1.246  10.251   5.896  0.9772  0.2609 -0.0542
  779MOL0     C 5087   1.140  10.224   5.812 -0.0772 -0.8513  0.3969
  779MOL0     O 5088   1.050  10.330   5.798 -0.1434  0.6431  0.2399
  779MOL0     C 5089   0.926  10.300   5.731 -0.2240 -0.4860  0.0748
  779MOL0     C 5090   0.840  10.416   5.774  0.1197  0.7531 -0.4002
  779MOL0     C 5091   0.799  10.409   5.924 -0.3857  0.4801  0.8446
  779MOL0     C 5092   0.699  10.284   5.940  0.3047  0.2310 -0.0219
  779MOL0     C 5093   0.571  10.316   5.877  0.8459  1.0093  0.2402
  779MOL0     C 5094   0.470  10.315   5.806 -0.0968  0.3545  0.0522
  779MOL0     C 5095   1.132  10.101   5.748  0.1177  0.3854  0.7888
  779MOL0     C 5096   1.232  10.006   5.768  0.4370  0.0644 -0.5294
  779MOL0     C 5097   1.219   9.875   5.694 -0.0051  0.4957  0.1578
  779MOL0     H 5098   1.544   9.747   6.076 -0.9010  0.6599 -0.6210
  779MOL0     H 5099   1.782   9.610   6.081 -0.0362  0.1277  0.3590
  779MOL0     H 5100   2.005   9.578   6.034 -1.3880 -0.8506  1.2198
  779MOL0     H 5101   1.929   9.418   6.008  1.5168  1.1333  2.2833
  779MOL0     H 5102   2.100   9.371   5.840  1.6520  0.6845 -1.6337
  779MOL0     H 5103   2.167   9.388   6.000 -0.9782 -1.1883 -0.1109
  779MOL0     H 5104   2.221   9.634   5.955  2.8065  0.5423 -0.2920
  779MOL0     H 5105   2.186   9.616   5.784  1.9360 -2.3088 -1.3341
  779MOL0     H 5106   2.367   9.411   5.923  1.7629 -0.5043 -1.3132
  779MOL0     H 5107   2.330   9.430   5.758 -0.3494 -1.0545  0.6974
  779MOL0     H 5108   2.445   9.634   5.742 -0.7910 -1.6306  0.3483
  779MOL0     H 5109   2.466   9.649   5.920 -1.4350  0.1034  0.4603
  779MOL0     H 5110   2.622   9.489   5.932 -1.0863 -1.9225  1.2085
  779MOL0     H 5111   2.593   9.406   5.769  0.4292  0.2425 -0.7316
  779MOL0     H 5112   2.699   9.679   5.825  0.6613  1.1949 -1.1599
  779MOL0     H 5113   2.648   9.622   5.665  0.3906  2.2923  0.3269
  779MOL0     H 5114   2.823   9.442   5.689 -1.5125 -0.2821 -0.3354
  779MOL0     H 5115   2.903   9.601   5.680  3.4338 -2.5636 -0.0786
  779MOL0     H 5116   3.005   9.689   5.927  0.4300 -1.6329 -0.7499
  779MOL0     H 5117   3.022   9.696   6.201  0.0744 -0.0678  3.7876
  779MOL0     H 5118   2.973   9.550   6.288  0.8208  0.5699  2.1957
  779MOL0     H 5119   3.224   9.556   6.100 -0.0014 -0.1732 -0.3221
  779MOL0     H 5120   3.233   9.636   6.255 -1.6217  2.1300 -1.2882
  779MOL0     H 5121   3.137   9.350   6.204 -2.8360 -1.0557  1.8085
  779MOL0     H 5122   3.134   9.437   6.365 -0.5066  2.1853 -0.9486
  779MOL0     H 5123   3.349   9.288   6.338  0.2833 -0.3871 -0.1068
  779MOL0     H 5124   3.375   9.463   6.361 -1.4711  1.7335 -1.3974
  779MOL0     H 5125   3.496   9.264   5.954  0.7039  2.0309 -0.5866
  779MOL0     H 5126   3.679   9.103   5.954  1.5409  2.4208 -1.5463
  779MOL0     H 5127   3.888   8.865   5.796  0.4272 -0.0926 -2.5307
  779MOL0     H 5128   4.058   8.697   5.731 -0.7027  2.6567 -1.8811
  779MOL0     H 5129   4.470   8.751   5.898  0.3359  0.0113  1.1800
  779MOL0     H 5130   4.397   8.625   5.983 -1.5754 -1.2816 -0.4535
  779MOL0     H 5131   4.432   8.461   5.784  1.0232 -0.2606  1.0959
  779MOL0     H 5132   4.533   8.581   5.715 -0.9997  0.9668 -0.2562
  779MOL0     H 5133   4.632   8.521   5.998  2.3903 -0.2723 -0.9198
  779MOL0     H 5134   4.625   8.393   5.884 -1.0944 -0.6190 -2.2606
  779MOL0     H 5135   4.741   8.666   5.830 -3.2366 -0.1435  3.7440
  779MOL0     H 5136   4.753   8.525   5.718  1.2830  0.1005 -0.2056
  779MOL0     H 5137   4.889   8.414   5.919 -0.1706  0.4364 -0.0761
  779MOL0     H 5138   4.896   8.588   5.976 -1.1150 -1.1039  1.4517
  779MOL0     H 5139   4.965   8.514   5.689  0.0416  1.9603 -1.1918
  779MOL0     H 5140   4.984   8.672   5.747 -0.1986 -0.5033 -0.4766
  779MOL0     H 5141   5.135   8.423   5.835 -1.5410 -1.3560 -0.6962
  779MOL0     H 5142   5.149   8.578   5.919  1.5759  0.4709 -0.9866
  779MOL0     H 5143   5.235   8.518   5.641  1.2802  1.6733 -1.2078
  779MOL0     H 5144   5.217   8.682   5.707 -0.1860 -0.2860 -0.8047
  779MOL0     H 5145   4.321   8.854   6.026 -0.1024  1.7262  0.1582
  779MOL0     H 5146   4.145   8.998   6.130 -3.4976 -1.2413  1.5704
  779MOL0     H 5147   3.795   9.217   6.359  0.8335  1.7193 -1.0147
  779MOL0     H 5148   3.590   9.360   6.371 -0.4079 -1.0708  0.4496
  779MOL0     H 5149   1.769   9.628   5.648 -2.4233 -2.0984 -0.6648
  779MOL0     H 5150   1.533   9.716   5.667 -0.0357 -0.4464  0.0841
  779MOL0     H 5151   1.440  10.191   5.975  1.1586  1.7140 -1.4272
  779MOL0     H 5152   1.235  10.339   5.959 -1.6465 -1.6606  2.4080
  779MOL0     H 5153   0.895  10.200   5.762 -0.5305 -0.2538  0.5148
  779MOL0     H 5154   0.945  10.301   5.623  3.4136 -3.2500  0.4963
  779MOL0     H 5155   0.759  10.416   5.700  0.2858  0.1712 -0.5890
  779MOL0     H 5156   0.898  10.508   5.762  0.1042  0.4744 -3.7882
  779MOL0     H 5157   0.746  10.497   5.962 -1.0812  0.3079  0.2938
  779MOL0     H 5158   0.889  10.395   5.984  0.2700  0.7923 -0.0468
  779MOL0     H 5159   0.743  10.193   5.899  2.7118  0.8162  1.0598
  779MOL0     H 5160   0.686  10.263   6.047  0.8370 -0.5887 -0.1106
  779MOL0     H 5161   0.380  10.314   5.747  0.2067  0.7307 -0.4275
  779MOL0     H 5162   1.066  10.077   5.665  3.9627 -1.0100 -2.1663
  779MOL0     H 5163   1.310   9.849   5.639 -0.2417 -5.0010  1.8050
  779MOL0     H 5164   1.196   9.801   5.771  0.8036  2.0169  1.9239
  779MOL0     H 5165   1.129   9.866   5.632  0.1029 -1.3055  0.1928
  780MOL0     O 5166   3.694   4.436  10.159 -0.5080 -0.3770  0.3220
  780MOL0     C 5167   3.584   4.493  10.149 -0.4992  0.1669 -1.1619
  780MOL0     O 5168   3.484   4.474  10.249  0.5320 -0.0415  0.3274
  780MOL0     C 5169   3.489   4.400  10.363 -0.5436  0.4701 -0.6291
  780MOL0     C 5170   3.364   4.362  10.411 -0.2315  0.2811 -0.3765
  780MOL0     C 5171   3.349   4.288  10.532 -0.6599  0.1136  0.8447
  780MOL0     C 5172   3.462   4.256  10.602  0.2609  0.0555  0.0237
  780MOL0     O 5173   3.439   4.212  10.735 -0.3841 -0.6244 -0.1857
  780MOL0     C 5174   3.515   4.259  10.850  0.3443 -0.5541 -0.6502
  780MOL0     C 5175   3.506   4.408  10.883 -0.0028 -0.2346  1.0152
  780MOL0     C 5176   3.370   4.455  10.926  0.1569 -1.0432 -0.6837
  780MOL0     C 5177   3.322   4.376  11.051 -0.7890  0.2696 -0.4900
  780MOL0     C 5178   3.215   4.435  11.140 -0.0678  0.0610  0.2015
  780MOL0     C 5179   3.080   4.417  11.074  0.4429  0.1318  0.0082
  780MOL0     C 5180   2.975   4.472  11.169  0.4495 -0.1483  0.3780
  780MOL0     C 5181   2.839   4.493  11.097  0.4776 -0.5232  0.8269
  780MOL0     N 5182   2.756   4.373  11.090  0.1666 -0.4581  0.9385
  780MOL0     C 5183   2.754   4.272  11.183 -0.3204  0.2831 -0.0316
  780MOL0     C 5184   2.679   4.168  11.127  0.8813 -0.7187 -0.4391
  780MOL0     C 5185   2.642   4.035  11.194 -0.7213 -0.3203  0.9979
  780MOL0     C 5186   2.504   3.995  11.238  0.1377  0.1814  0.6097
  780MOL0     C 5187   2.406   4.004  11.124 -0.3421 -0.7613 -0.7681
  780MOL0     C 5188   2.264   3.950  11.145 -0.1574  0.2108  0.0105
  780MOL0     O 5189   2.270   3.812  11.164 -0.9513 -0.2489  0.2151
  780MOL0     C 5190   2.151   3.745  11.201 -0.8125  0.1324  0.5280
  780MOL0     C 5191   2.158   3.606  11.210  0.3227 -0.6466  0.9894
  780MOL0     C 5192   2.048   3.536  11.256 -0.2664  0.8091  0.1291
  780MOL0     C 5193   1.925   3.601  11.283 -0.3700 -0.7288 -0.3149
  780MOL0     C 5194   1.811   3.531  11.345  0.0224  0.5240 -0.2732
  780MOL0     O 5195   1.818   3.391  11.340  0.0135  0.1514  0.7089
  780MOL0     C 5196   1.726   3.325  11.417 -0.3577 -0.3991  0.0982
  780MOL0     C 5197   1.750   3.303  11.554  0.3230  0.3348 -0.3090
  780MOL0     C 5198   1.656   3.237  11.632 -0.1463  0.1872  0.8033
  780MOL0     C 5199   1.529   3.198  11.578 -0.3944 -0.0964  1.0940
  780MOL0     O 5200   1.423   3.163  11.658  0.1955 -0.6245  0.5233
  780MOL0     C 5201   1.378   3.261  11.751  0.1918  0.1697 -0.0069
  780MOL0     C 5202   1.262   3.189  11.837 -0.2725 -0.2835  0.2143
  780MOL0     C 5203   1.306   3.105  11.960  0.2312  0.2859 -0.3411
  780MOL0     C 5204   1.189   3.018  12.010 -0.6423 -0.1988  0.5214
  780MOL0     C 5205   1.215   2.942  12.143  0.7744 -0.9319  0.6634
  780MOL0     C 5206   1.259   2.805  12.113  0.0690 -0.0847 -0.1640
  780MOL0     C 5207   1.237   2.701  12.219  0.8881 -0.0599  0.2854
  780MOL0     C 5208   1.093   2.659  12.265  0.0779  0.6463 -0.0697
  780MOL0    Cl 5209   1.020   2.560  12.146  0.1126  0.2399 -0.1838
  780MOL0     C 5210   1.509   3.228  11.437  0.3683  0.9604 -0.1333
  780MOL0     C 5211   1.608   3.286  11.354 -0.1714 -0.0562 -0.0267
  780MOL0     O 5212   1.714   3.591  11.381 -0.9714  0.1867 -0.2020
  780MOL0     C 5213   1.924   3.743  11.273 -0.5865 -0.5056 -0.3076
  780MOL0     C 5214   2.033   3.812  11.224  0.5388  0.2715  0.5172
  780MOL0     N 5215   2.636   4.216  11.000 -0.4830 -0.0859 -0.4409
  780MOL0     N 5216   2.685   4.330  10.981  0.6404  0.2177 -0.1666
  780MOL0     C 5217   3.587   4.288  10.554 -0.2635  0.1455 -0.3537
  780MOL0     C 5218   3.606   4.362  10.436  0.8282 -0.9441  0.9493
  780MOL0     C 5219   3.539   4.581  10.043  0.3447  0.0586  0.1376
  780MOL0     C 5220   3.397   4.579  10.006 -0.1395  0.1004  0.2295
  780MOL0     C 5221   3.351   4.671   9.909  0.8018  0.7907 -0.8647
  780MOL0     C 5222   3.431   4.759   9.845 -0.8653 -0.6403  0.1092
  780MOL0     O 5223   3.383   4.856   9.763  0.2583  0.9934  0.1825
  780MOL0     C 5224   3.367   4.988   9.818  0.3588 -0.0017  0.2422
  780MOL0     C 5225   3.445   5.092   9.729  1.1678  0.2763  0.0757
  780MOL0     C 5226   3.428   5.066   9.580 -0.0758  0.4079 -0.2357
  780MOL0     C 5227   3.476   5.187   9.496 -0.0194 -0.5823 -0.0683
  780MOL0     C 5228   3.613   5.235   9.513  0.0208  0.0944 -0.8181
  780MOL0     C 5229   3.729   5.276   9.535 -0.0891  0.2221 -0.1912
  780MOL0     C 5230   3.571   4.765   9.876 -0.0923  1.0808 -0.0741
  780MOL0     C 5231   3.622   4.672   9.971 -1.5350  0.0827 -0.9757
  780MOL0     C 5232   3.771   4.668   9.983  1.1698  0.7059  0.3993
  780MOL0     H 5233   3.269   4.385  10.363  0.3034  1.5028 -0.8881
  780MOL0     H 5234   3.247   4.274  10.566 -0.4430 -1.3201  0.9810
  780MOL0     H 5235   3.488   4.198  10.937 -3.2133 -0.3541 -1.4516
  780MOL0     H 5236   3.622   4.247  10.836  1.2616  1.0289  3.3623
  780MOL0     H 5237   3.529   4.460  10.789  0.3693  1.0105  1.7639
  780MOL0     H 5238   3.567   4.438  10.969 -2.2376 -1.3284  3.1170
  780MOL0     H 5239   3.294   4.457  10.847  1.4385 -1.4335 -1.9942
  780MOL0     H 5240   3.376   4.558  10.961 -2.4505 -1.1898  0.3779
  780MOL0     H 5241   3.298   4.276  11.014 -1.6544  0.4391 -0.3901
  780MOL0     H 5242   3.406   4.364  11.121  1.4076  0.0112 -3.0156
  780MOL0     H 5243   3.216   4.377  11.232  2.3022  0.8758  0.7639
  780MOL0     H 5244   3.234   4.542  11.153  1.8932 -0.0012 -1.5629
  780MOL0     H 5245   3.065   4.475  10.983 -2.5052 -2.1028 -1.0907
  780MOL0     H 5246   3.063   4.310  11.061  0.4057  0.2656 -1.1136
  780MOL0     H 5247   2.998   4.574  11.201  0.0442  0.1683 -0.3130
  780MOL0     H 5248   2.974   4.397  11.249 -1.2317  0.6591  1.1838
  780MOL0     H 5249   2.779   4.562  11.157  1.2134  1.4176 -0.5834
  780MOL0     H 5250   2.851   4.543  11.001 -1.6676 -1.0927  0.2031
  780MOL0     H 5251   2.810   4.271  11.276 -1.5075  0.7155  0.7143
  780MOL0     H 5252   2.683   3.962  11.123  1.1980  2.4504 -0.9860
  780MOL0     H 5253   2.708   4.032  11.281 -2.2711  1.1638  2.3054
  780MOL0     H 5254   2.513   3.895  11.281  0.5588 -1.0943 -2.1985
  780MOL0     H 5255   2.453   4.059  11.311 -2.1686 -1.4411  0.5292
  780MOL0     H 5256   2.437   3.949  11.034 -0.8825 -2.5189  0.0857
  780MOL0     H 5257   2.401   4.113  11.114 -2.2224 -0.8272 -0.9174
  780MOL0     H 5258   2.188   3.970  11.068  0.3918  0.4805 -0.4680
  780MOL0     H 5259   2.229   3.989  11.241 -1.0925  0.4205 -0.4008
  780MOL0     H 5260   2.246   3.551  11.179  0.4644 -0.0020  0.1961
  780MOL0     H 5261   2.048   3.428  11.247 -0.7947  0.9385 -1.6018
  780MOL0     H 5262   1.849   3.322  11.595  0.8039 -0.0542 -1.2656
  780MOL0     H 5263   1.672   3.212  11.737 -1.0208 -0.2384  0.8466
  780MOL0     H 5264   1.462   3.290  11.814  1.5967  0.3393 -1.8837
  780MOL0     H 5265   1.331   3.349  11.707  0.2368  0.3230  0.2507
  780MOL0     H 5266   1.203   3.273  11.874  1.5695  1.2218 -0.0747
  780MOL0     H 5267   1.204   3.128  11.768  1.6654 -1.5706 -0.3651
  780MOL0     H 5268   1.387   3.037  11.933 -0.6998 -0.2358 -1.9899
  780MOL0     H 5269   1.343   3.176  12.034 -0.7329  0.7001 -0.2353
  780MOL0     H 5270   1.169   2.949  11.927  2.1782  1.4039 -1.6861
  780MOL0     H 5271   1.097   3.076  12.014  0.6506  1.9518  0.3909
  780MOL0     H 5272   1.112   2.940  12.179  0.6188 -1.1584  0.2181
  780MOL0     H 5273   1.279   3.006  12.203 -1.2802  0.6402  1.3058
  780MOL0     H 5274   1.218   2.758  12.023 -0.6122  0.2652 -0.0454
  780MOL0     H 5275   1.367   2.815  12.097  0.3540  0.5173  1.8222
  780MOL0     H 5276   1.279   2.737  12.314 -1.4329  1.3271  0.8688
  780MOL0     H 5277   1.294   2.610  12.197 -0.2161 -1.4121  2.5319
  780MOL0     H 5278   1.113   2.598  12.353  1.6229 -0.2261 -0.9870
  780MOL0     H 5279   1.028   2.741  12.297  1.0530  2.0833 -1.5786
  780MOL0     H 5280   1.419   3.209  11.379  0.5101 -0.9589  0.2044
  780MOL0     H 5281   1.584   3.298  11.249  2.3760 -0.9392 -0.7702
  780MOL0     H 5282   1.841   3.808  11.298 -0.0266  0.6866 -1.4231
  780MOL0     H 5283   2.013   3.918  11.217 -1.3106  0.2367  3.3743
  780MOL0     H 5284   3.678   4.257  10.604  1.4656  0.2527 -3.2268
  780MOL0     H 5285   3.706   4.379  10.396 -0.4378  2.0142 -1.3001
  780MOL0     H 5286   3.321   4.507  10.036  1.5148 -1.7343  0.2167
  780MOL0     H 5287   3.248   4.675   9.876  0.8045 -1.2286 -1.2831
  780MOL0     H 5288   3.398   5.004   9.921 -1.1034  1.6826  0.4590
  780MOL0     H 5289   3.261   5.014   9.808  0.4612 -0.1550 -1.6854
  780MOL0     H 5290   3.548   5.094   9.767  1.4410 -0.8199 -0.5453
  780MOL0     H 5291   3.403   5.189   9.755  0.8858  0.7202 -1.9402
  780MOL0     H 5292   3.323   5.037   9.566 -0.4914  0.8459  1.6808
  780MOL0     H 5293   3.490   4.982   9.547 -0.6687 -0.4878  0.8634
  780MOL0     H 5294   3.472   5.163   9.389  1.8852  5.0367 -1.7550
  780MOL0     H 5295   3.406   5.268   9.519 -1.5927 -1.8821 -0.1419
  780MOL0     H 5296   3.826   5.306   9.567 -0.8334  4.5399 -1.3319
  780MOL0     H 5297   3.631   4.842   9.828  0.0473 -0.0716 -1.8027
  780MOL0     H 5298   3.817   4.574   9.954 -0.2413  0.0402  0.2309
  780MOL0     H 5299   3.803   4.743   9.910  3.8601 -0.1005  0.6382
  780MOL0     H 5300   3.806   4.703  10.080  0.4439 -0.1117  0.9672
  781MOL0     O 5301   9.285   4.323  10.030 -0.6003  0.1931 -0.2821
  781MOL0     C 5302   9.186   4.391  10.042 -0.4386 -0.9151 -0.2522
  781MOL0     O 5303   9.175   4.525   9.996 -0.6773  0.0855 -0.1159
  781MOL0     C 5304   9.290   4.601   9.976  0.4499 -0.5174  0.1162
  781MOL0     C 5305   9.278   4.714   9.884 -0.0274  1.1709  0.6157
  781MOL0     C 5306   9.389   4.795   9.858  0.5383 -0.0015 -0.5134
  781MOL0     C 5307   9.511   4.770   9.936  0.7648  0.1439  0.3123
  781MOL0     O 5308   9.620   4.841   9.923 -0.3710 -0.3848  0.3339
  781MOL0     C 5309   9.606   4.982   9.900  0.1196 -0.4771 -0.4661
  781MOL0     C 5310   9.743   5.057   9.911  0.2296  0.3724 -0.3089
  781MOL0     C 5311   9.807   5.023  10.043 -0.0261  0.1239 -0.9514
  781MOL0     C 5312   9.923   5.109  10.075 -0.7815  0.1566 -0.4786
  781MOL0     C 5313   9.993   5.062  10.211 -0.3114  0.4606 -0.6022
  781MOL0     C 5314  10.134   5.125  10.223 -0.5950  0.1823 -0.1445
  781MOL0     C 5315  10.209   5.089  10.353 -0.2260 -0.4192  0.7325
  781MOL0     C 5316  10.232   4.934  10.384  0.2937  0.4395 -0.3309
  781MOL0     N 5317  10.341   4.866  10.309 -0.3337  0.3828  0.5083
  781MOL0     C 5318  10.372   4.889  10.178  0.1103  0.4561  0.2526
  781MOL0     C 5319  10.491   4.826  10.150 -0.2799 -0.1251  0.6015
  781MOL0     C 5320  10.558   4.812  10.019 -0.0282 -0.0796 -0.6275
  781MOL0     C 5321  10.681   4.893   9.994 -0.4889 -0.3510  0.2834
  781MOL0     C 5322  10.789   4.872  10.098  0.8220 -0.1223 -0.1327
  781MOL0     C 5323  10.857   4.733  10.115  0.7706  0.5849 -0.1280
  781MOL0     O 5324  10.977   4.752  10.194 -0.5733  0.5142 -0.7224
  781MOL0     C 5325  11.039   4.644  10.248  0.0209  0.0665 -0.7584
  781MOL0     C 5326  11.155   4.664  10.330 -0.8803 -0.5846  0.4269
  781MOL0     C 5327  11.218   4.554  10.375 -0.0241  0.4597 -0.6290
  781MOL0     C 5328  11.180   4.423  10.355 -0.1010 -0.0934 -0.1247
  781MOL0     C 5329  11.250   4.308  10.414  0.1699  0.2863 -0.5740
  781MOL0     O 5330  11.233   4.198  10.336 -0.4988 -0.8130  0.2037
  781MOL0     C 5331  11.298   4.077  10.366 -0.3416 -0.0159 -0.2691
  781MOL0     C 5332  11.227   3.962  10.397 -0.0236 -0.2590  0.4288
  781MOL0     C 5333  11.282   3.837  10.433  0.7152  0.0972  0.7341
  781MOL0     C 5334  11.419   3.829  10.454 -0.2968 -0.0287  0.3262
  781MOL0     O 5335  11.488   3.714  10.499  0.0731 -0.1600 -0.1245
  781MOL0     C 5336  11.418   3.601  10.574 -0.7759 -0.3849  0.0629
  781MOL0     C 5337  11.527   3.524  10.641  0.5834 -0.0813  0.0500
  781MOL0     C 5338  11.623   3.463  10.536 -0.4269 -0.4727 -0.6738
  781MOL0     C 5339  11.724   3.365  10.595  0.1331  0.1246 -0.2460
  781MOL0     C 5340  11.824   3.333  10.477 -0.2512  0.2750  0.1846
  781MOL0     C 5341  11.947   3.259  10.504 -0.7071  0.0182  0.4779
  781MOL0     C 5342  12.057   3.335  10.579  0.6391 -0.1283 -0.5490
  781MOL0     C 5343  12.184   3.267  10.599  0.3951  0.5537 -0.2568
  781MOL0    Cl 5344  12.245   3.233  10.427  0.2730 -0.2271  0.2641
  781MOL0     C 5345  11.494   3.938  10.430 -0.9622 -0.2431 -0.1522
  781MOL0     C 5346  11.438   4.061  10.379  0.8814  1.0169 -0.4250
  781MOL0     O 5347  11.321   4.314  10.516 -0.3927 -0.1770 -0.0764
  781MOL0     C 5348  11.057   4.405  10.293 -0.4520  0.1834 -0.2169
  781MOL0     C 5349  10.989   4.514  10.240  0.8893  0.3257 -0.1269
  781MOL0     N 5350  10.540   4.774  10.272  0.2858 -0.1321  0.1916
  781MOL0     N 5351  10.445   4.797  10.363  0.0309 -1.2191 -0.3628
  781MOL0     C 5352   9.513   4.663  10.027  0.3195  0.3579 -0.5962
  781MOL0     C 5353   9.407   4.578  10.052  0.1659 -0.2805  0.4702
  781MOL0     C 5354   9.089   4.337  10.131 -1.0516 -0.5600 -0.4428
  781MOL0     C 5355   8.951   4.386  10.131  0.2582  0.2169  0.6217
  781MOL0     C 5356   8.852   4.328  10.206  0.2300  0.0722  0.1784
  781MOL0     C 5357   8.887   4.219  10.291 -0.7883 -0.5556 -0.9541
  781MOL0     O 5358   8.789   4.160  10.366 -0.4289  0.1751  0.1333
  781MOL0     C 5359   8.699   4.251  10.432  1.4827 -0.3124  0.3655
  781MOL0     C 5360   8.622   4.174  10.542 -0.0200  0.8033 -0.0347
  781MOL0     C 5361   8.722   4.159  10.664 -0.2212 -0.0379 -0.0128
  781MOL0     C 5362   8.735   4.015  10.724 -0.0065  0.3842 -1.2572
  781MOL0     C 5363   8.604   3.963  10.770 -0.6006  0.3694  0.4125
  781MOL0     C 5364   8.502   3.913  10.806 -0.1566 -0.3701 -0.8485
  781MOL0     C 5365   9.014   4.177  10.309  0.8664 -0.0824  0.3479
  781MOL0     C 5366   9.121   4.237  10.234  0.3994 -0.2599 -0.0338
  781MOL0     C 5367   9.262   4.178  10.284 -0.1490  0.5507  0.2717
  781MOL0     H 5368   9.191   4.724   9.820  0.0829  0.0359  0.2635
  781MOL0     H 5369   9.398   4.871   9.781  1.3161  2.4948  1.8551
  781MOL0     H 5370   9.562   4.999   9.802  0.2272  0.8265 -0.2995
  781MOL0     H 5371   9.537   5.021   9.975  0.5678 -0.5632 -0.0035
  781MOL0     H 5372   9.732   5.165   9.913  1.2492  0.4720  0.5138
  781MOL0     H 5373   9.812   5.034   9.829  1.1031 -0.0658  0.5336
  781MOL0     H 5374   9.831   4.916  10.041 -1.9984 -0.5065  2.1476
  781MOL0     H 5375   9.742   5.032  10.130  1.3787  0.3212  0.1073
  781MOL0     H 5376   9.995   5.111   9.993  0.0509  2.4645  0.2155
  781MOL0     H 5377   9.898   5.214  10.094 -1.0667  0.4955 -2.5042
  781MOL0     H 5378   9.930   5.091  10.295  0.5683 -2.0789  1.0684
  781MOL0     H 5379   9.992   4.952  10.211 -0.2739  0.4458 -1.6777
  781MOL0     H 5380  10.193   5.106  10.133 -0.5894  0.5569 -0.2186
  781MOL0     H 5381  10.121   5.233  10.230  1.2974  0.3303  2.4845
  781MOL0     H 5382  10.149   5.129  10.435  1.1062  0.6591  1.2370
  781MOL0     H 5383  10.308   5.136  10.364 -0.4941  0.6069 -0.9142
  781MOL0     H 5384  10.254   4.934  10.491  0.7680 -0.5873 -0.4176
  781MOL0     H 5385  10.144   4.878  10.350  0.5599 -0.1177 -0.1067
  781MOL0     H 5386  10.329   4.939  10.092 -1.0958 -3.6041 -1.7771
  781MOL0     H 5387  10.579   4.705  10.008  1.9915  0.1923  0.0358
  781MOL0     H 5388  10.489   4.836   9.938 -0.9160  0.2835  0.2162
  781MOL0     H 5389  10.720   4.868   9.895 -2.5153 -1.7815 -0.2266
  781MOL0     H 5390  10.659   5.000   9.996  0.8248 -0.0769  1.7486
  781MOL0     H 5391  10.762   4.921  10.192 -0.7102  1.7044 -1.4479
  781MOL0     H 5392  10.869   4.933  10.057  2.6326 -1.7397  0.8313
  781MOL0     H 5393  10.898   4.704  10.018 -0.1454  4.2275 -1.7509
  781MOL0     H 5394  10.778   4.669  10.156 -0.2828  0.6235 -1.9701
  781MOL0     H 5395  11.198   4.763  10.339 -0.5904 -0.5791 -0.8070
  781MOL0     H 5396  11.319   4.562  10.413 -0.7217 -1.5599  1.8924
  781MOL0     H 5397  11.119   3.969  10.409 -0.2413 -2.8528  0.6513
  781MOL0     H 5398  11.214   3.755  10.451 -1.0218  1.4844  0.8200
  781MOL0     H 5399  11.359   3.646  10.655 -0.8303 -0.4757  0.0729
  781MOL0     H 5400  11.353   3.535  10.516  0.4109 -3.4062  1.9790
  781MOL0     H 5401  11.582   3.596  10.703  0.8761  2.5089 -2.9760
  781MOL0     H 5402  11.479   3.447  10.701 -0.2453  1.2454  1.1606
  781MOL0     H 5403  11.567   3.419  10.452  1.7206 -0.9858 -1.9002
  781MOL0     H 5404  11.679   3.548  10.498  1.8263 -1.7590 -0.4042
  781MOL0     H 5405  11.677   3.272  10.630 -0.6027  0.5300 -0.1623
  781MOL0     H 5406  11.769   3.417  10.681 -1.7215  0.0036  0.8606
  781MOL0     H 5407  11.850   3.428  10.429 -0.5297 -0.5839 -1.7506
  781MOL0     H 5408  11.774   3.280  10.396 -0.4089  0.0673  0.4167
  781MOL0     H 5409  11.926   3.165  10.556 -0.3542  1.3780  3.2638
  781MOL0     H 5410  11.989   3.219  10.411 -1.0704 -1.2748  0.8537
  781MOL0     H 5411  12.018   3.360  10.679  2.3532 -0.0578  0.1385
  781MOL0     H 5412  12.085   3.430  10.533  2.0815  1.7814  3.7488
  781MOL0     H 5413  12.255   3.335  10.646 -0.9043  0.8870  1.3195
  781MOL0     H 5414  12.176   3.178  10.661  1.3102  0.3773 -0.3775
  781MOL0     H 5415  11.603   3.929  10.429 -0.9890 -0.6778  0.3011
  781MOL0     H 5416  11.492   4.144  10.335  2.0102  1.9155  2.4110
  781MOL0     H 5417  11.012   4.306  10.289 -1.3447  0.5831 -0.2629
  781MOL0     H 5418  10.898   4.496  10.184 -0.6330  3.8948  0.9435
  781MOL0     H 5419   9.602   4.659  10.089 -1.2797  4.7742  2.5033
  781MOL0     H 5420   9.427   4.509  10.133  0.9987  0.3735  0.8395
  781MOL0     H 5421   8.920   4.463  10.061 -1.0447  0.3533  1.3206
  781MOL0     H 5422   8.746   4.346  10.190  0.0363 -1.2994 -0.2194
  781MOL0     H 5423   8.627   4.293  10.362  0.5516  0.5213  1.7749
  781MOL0     H 5424   8.750   4.340  10.470  1.3938 -0.1093  0.0093
  781MOL0     H 5425   8.572   4.084  10.504 -1.2605  1.1377  0.7602
  781MOL0     H 5426   8.539   4.239  10.571 -0.0415  0.6121  0.3408
  781MOL0     H 5427   8.703   4.228  10.747 -1.3271 -0.2603 -0.0664
  781MOL0     H 5428   8.825   4.173  10.630  0.8677 -0.2301  2.9122
  781MOL0     H 5429   8.778   3.946  10.651  0.8748 -0.1833 -0.2269
  781MOL0     H 5430   8.804   4.016  10.809 -2.6798  2.8482  1.1021
  781MOL0     H 5431   8.413   3.865  10.839 -0.6540  0.9182 -0.2642
  781MOL0     H 5432   9.031   4.099  10.382 -0.3276 -0.2622  0.4654
  781MOL0     H 5433   9.274   4.079  10.239 -0.0706  0.5436  0.3086
  781MOL0     H 5434   9.350   4.237  10.259  0.3930 -0.6094 -0.6003
  781MOL0     H 5435   9.262   4.168  10.393  1.8007 -2.4720  0.1138
  782MOL0     O 5436   7.937   3.664   4.399 -0.8856 -0.2780 -0.2601
  782MOL0     C 5437   7.863   3.630   4.493 -0.0205  0.2638 -1.0933
  782MOL0     O 5438   7.904   3.560   4.603  0.5473  0.4996 -0.6350
  782MOL0     C 5439   8.035   3.517   4.607  0.2746  0.4337 -0.9133
  782MOL0     C 5440   8.111   3.537   4.721  0.3433  0.0640  0.2154
  782MOL0     C 5441   8.247   3.483   4.725  0.8119 -0.3401 -0.3671
  782MOL0     C 5442   8.300   3.412   4.618 -1.9635  0.6123 -0.0903
  782MOL0     O 5443   8.432   3.358   4.617  0.4578 -0.1241  0.6766
  782MOL0     C 5444   8.516   3.393   4.497  0.1115  0.5301  0.1564
  782MOL0     C 5445   8.670   3.403   4.519 -0.7249  0.0002  0.5018
  782MOL0     C 5446   8.754   3.435   4.393  0.8273 -0.7334  0.0087
  782MOL0     C 5447   8.900   3.393   4.416  0.6552 -0.1915  0.5186
  782MOL0     C 5448   8.981   3.417   4.285 -0.0823  0.0354 -0.3918
  782MOL0     C 5449   9.135   3.382   4.317 -0.1913  0.1404  1.7100
  782MOL0     C 5450   9.197   3.387   4.181 -0.4469  0.0414 -0.2852
  782MOL0     C 5451   9.347   3.356   4.168 -0.2171  0.3557 -0.0544
  782MOL0     N 5452   9.434   3.473   4.192  0.4158  0.6059  0.1995
  782MOL0     C 5453   9.521   3.483   4.294 -0.0241  0.1889  0.2364
  782MOL0     C 5454   9.598   3.595   4.254  1.0351 -0.4123  1.0398
  782MOL0     C 5455   9.695   3.672   4.344 -0.1023  0.3903  0.1757
  782MOL0     C 5456   9.817   3.581   4.365  0.2191 -0.0562 -0.3360
  782MOL0     C 5457   9.846   3.558   4.517  0.2373 -0.1950 -0.9392
  782MOL0     C 5458   9.983   3.500   4.546  0.5641 -0.2662 -0.3076
  782MOL0     O 5459  10.062   3.608   4.504 -0.0272  0.0624  0.8219
  782MOL0     C 5460  10.202   3.607   4.508  0.4625  0.3288 -0.3457
  782MOL0     C 5461  10.261   3.725   4.473  0.6234  0.6585  0.6517
  782MOL0     C 5462  10.398   3.738   4.472  1.0114  0.0813 -0.0825
  782MOL0     C 5463  10.478   3.624   4.505 -0.5340  0.5671  0.7939
  782MOL0     C 5464  10.625   3.616   4.482  0.4695  0.6788 -0.0136
  782MOL0     O 5465  10.684   3.493   4.489 -0.8710 -0.0652 -0.3369
  782MOL0     C 5466  10.822   3.495   4.480 -0.3114  0.5298  1.6228
  782MOL0     C 5467  10.880   3.387   4.405 -0.1570  0.0991  0.4803
  782MOL0     C 5468  11.021   3.377   4.396 -0.4003 -0.5144  0.0548
  782MOL0     C 5469  11.108   3.470   4.456  0.5881 -0.1395 -0.1989
  782MOL0     O 5470  11.246   3.444   4.453  0.3311 -0.0564 -0.2131
  782MOL0     C 5471  11.341   3.545   4.506  0.4049  0.2856  0.1535
  782MOL0     C 5472  11.456   3.468   4.546 -1.0080  0.6257  0.2613
  782MOL0     C 5473  11.572   3.553   4.597 -0.6703  0.5170  0.1931
  782MOL0     C 5474  11.673   3.484   4.694 -0.4367  0.2108 -0.0135
  782MOL0     C 5475  11.769   3.396   4.617 -1.0408 -1.0397  0.4373
  782MOL0     C 5476  11.869   3.337   4.715 -0.2929  0.7149 -0.1271
  782MOL0     C 5477  11.973   3.253   4.642 -1.3165 -0.4141  0.7270
  782MOL0     C 5478  11.933   3.107   4.594 -0.2883 -0.1312  0.2490
  782MOL0    Cl 5479  11.947   3.080   4.419 -0.2680  0.3084 -0.0354
  782MOL0     C 5480  11.046   3.578   4.526 -0.3587  0.3002  0.1194
  782MOL0     C 5481  10.911   3.588   4.539  0.3101 -0.6675 -0.0369
  782MOL0     O 5482  10.674   3.717   4.437  0.3214 -0.7084  0.1561
  782MOL0     C 5483  10.412   3.508   4.540  0.1112 -0.1530  0.2888
  782MOL0     C 5484  10.276   3.498   4.546 -0.8867 -0.4302  0.6308
  782MOL0     N 5485   9.551   3.643   4.134 -0.0688 -0.6240 -0.6653
  782MOL0     N 5486   9.459   3.572   4.099 -0.2698 -0.3271  0.6541
  782MOL0     C 5487   8.213   3.388   4.506 -0.6461 -1.0539 -0.6823
  782MOL0     C 5488   8.086   3.443   4.504  0.0863  1.0622  0.6209
  782MOL0     C 5489   7.721   3.671   4.485 -0.0021 -0.5766  0.1313
  782MOL0     C 5490   7.629   3.608   4.564  0.0223 -0.4762  0.2973
  782MOL0     C 5491   7.492   3.646   4.572 -0.0943  0.2714  1.2399
  782MOL0     C 5492   7.439   3.750   4.488 -0.8132  0.4265  0.0572
  782MOL0     O 5493   7.310   3.800   4.489 -0.4222  0.6136  0.2846
  782MOL0     C 5494   7.211   3.690   4.502  1.1441  0.4245  0.3119
  782MOL0     C 5495   7.077   3.740   4.560  0.5311  0.3363  0.3858
  782MOL0     C 5496   7.023   3.833   4.448 -0.0793  0.7794 -0.5448
  782MOL0     C 5497   6.884   3.884   4.490  0.0522 -0.3906 -0.2270
  782MOL0     C 5498   6.829   3.997   4.418  0.9972 -1.0622 -0.0055
  782MOL0     C 5499   6.776   4.086   4.349 -0.1104  0.0874  0.3413
  782MOL0     C 5500   7.537   3.809   4.409  0.1575  0.2765  0.2514
  782MOL0     C 5501   7.673   3.770   4.393  0.0678  0.0844  0.3123
  782MOL0     C 5502   7.764   3.847   4.295  0.6266 -0.3326  0.1382
  782MOL0     H 5503   8.067   3.593   4.803  0.6218 -0.5121  0.7648
  782MOL0     H 5504   8.315   3.504   4.808 -1.5026  2.6934  0.9550
  782MOL0     H 5505   8.508   3.304   4.434  2.4779 -0.8587  1.6559
  782MOL0     H 5506   8.487   3.487   4.450 -2.8876 -0.5094 -0.2784
  782MOL0     H 5507   8.700   3.308   4.565 -2.2658  0.4590  2.5892
  782MOL0     H 5508   8.683   3.489   4.585 -0.4875  1.2496 -1.1129
  782MOL0     H 5509   8.740   3.541   4.367  0.4686 -0.8100 -0.1182
  782MOL0     H 5510   8.709   3.385   4.307 -0.6047 -1.3563  1.0813
  782MOL0     H 5511   8.941   3.445   4.504  2.7861 -0.7303 -0.0880
  782MOL0     H 5512   8.898   3.287   4.443 -0.4989  0.0248  1.3558
  782MOL0     H 5513   8.940   3.352   4.207  0.5555 -0.0546 -0.6626
  782MOL0     H 5514   8.956   3.519   4.256 -3.6506  0.0056  2.0130
  782MOL0     H 5515   9.172   3.457   4.388  1.0609 -1.2041  2.5414
  782MOL0     H 5516   9.136   3.283   4.362  0.5076  0.1728  1.7744
  782MOL0     H 5517   9.182   3.488   4.141 -2.1439  0.7042  1.8601
  782MOL0     H 5518   9.144   3.312   4.121  0.0078  0.7913 -1.6613
  782MOL0     H 5519   9.379   3.280   4.240  2.3282  0.9010 -0.5010
  782MOL0     H 5520   9.370   3.314   4.070  0.8362 -1.1648  0.8041
  782MOL0     H 5521   9.533   3.421   4.382 -4.1626 -1.4202 -0.1178
  782MOL0     H 5522   9.724   3.767   4.299 -2.0461  1.7368  1.5645
  782MOL0     H 5523   9.646   3.689   4.441 -1.1001 -0.9057 -0.0773
  782MOL0     H 5524   9.795   3.481   4.327  0.0992 -0.3258  0.4277
  782MOL0     H 5525   9.908   3.622   4.320  1.5960 -2.3750  0.1902
  782MOL0     H 5526   9.773   3.487   4.558 -0.5236  0.2769 -1.4594
  782MOL0     H 5527   9.821   3.646   4.577 -0.3599 -0.6141 -0.5645
  782MOL0     H 5528  10.000   3.409   4.488  0.8880 -0.3272 -0.1164
  782MOL0     H 5529  10.000   3.481   4.652  0.5653 -0.1054 -0.2783
  782MOL0     H 5530  10.197   3.811   4.456  3.0269  1.9944 -2.6391
  782MOL0     H 5531  10.448   3.830   4.441 -2.5426  2.4346  0.4577
  782MOL0     H 5532  10.816   3.319   4.350  0.1041  0.6339 -0.5224
  782MOL0     H 5533  11.082   3.305   4.342  0.7632  0.6473 -0.2122
  782MOL0     H 5534  11.367   3.616   4.426 -0.0776 -1.0288 -1.2294
  782MOL0     H 5535  11.304   3.602   4.592  0.7519 -0.9665  1.1486
  782MOL0     H 5536  11.428   3.408   4.633  1.4710 -2.2227 -0.7350
  782MOL0     H 5537  11.487   3.396   4.469  0.3119  0.5703  0.8203
  782MOL0     H 5538  11.630   3.599   4.517  1.7871 -1.4723  0.6846
  782MOL0     H 5539  11.527   3.638   4.648  0.3163  1.6170 -0.7213
  782MOL0     H 5540  11.611   3.439   4.772  0.2577  1.6333  1.4365
  782MOL0     H 5541  11.725   3.565   4.748  0.6564  0.7117 -1.7426
  782MOL0     H 5542  11.814   3.458   4.539 -2.7282 -0.1056  0.1583
  782MOL0     H 5543  11.717   3.317   4.562 -3.1293  1.6278 -1.7335
  782MOL0     H 5544  11.920   3.417   4.769  3.6158 -3.3660  2.9597
  782MOL0     H 5545  11.824   3.279   4.796 -4.3319  2.9237 -0.5336
  782MOL0     H 5546  12.053   3.233   4.713 -0.8984 -1.4527 -0.0044
  782MOL0     H 5547  12.001   3.312   4.554 -1.2117 -0.8856  0.4356
  782MOL0     H 5548  11.993   3.029   4.643 -3.6965 -1.5418  2.5708
  782MOL0     H 5549  11.831   3.080   4.625 -1.2324  3.7706  1.0610
  782MOL0     H 5550  11.107   3.652   4.578  0.7372  1.8237 -3.0748
  782MOL0     H 5551  10.876   3.679   4.585  0.6569 -0.3038 -0.4857
  782MOL0     H 5552  10.471   3.423   4.570 -0.5943  0.1400  2.7509
  782MOL0     H 5553  10.234   3.398   4.560  2.4451 -2.6213 -2.8764
  782MOL0     H 5554   8.232   3.324   4.420 -1.0872 -3.8921  1.2079
  782MOL0     H 5555   8.019   3.398   4.431  0.8406 -0.3858  0.7707
  782MOL0     H 5556   7.665   3.527   4.626  0.6376 -0.3670  0.0925
  782MOL0     H 5557   7.432   3.598   4.648 -2.1821 -1.3829 -1.2592
  782MOL0     H 5558   7.245   3.609   4.567  3.6687 -0.7998 -2.3147
  782MOL0     H 5559   7.200   3.635   4.408 -3.0338  0.9517  0.3206
  782MOL0     H 5560   7.099   3.796   4.651 -2.6689 -0.1936  1.6184
  782MOL0     H 5561   7.005   3.663   4.588  3.5548 -2.2469  1.6614
  782MOL0     H 5562   7.006   3.779   4.355 -1.6550  0.5576 -0.1554
  782MOL0     H 5563   7.096   3.912   4.426 -0.4136  0.5433 -2.7210
  782MOL0     H 5564   6.807   3.808   4.473 -1.6190  1.6293 -2.2759
  782MOL0     H 5565   6.897   3.909   4.596  0.1772 -0.9581 -0.1025
  782MOL0     H 5566   6.722   4.153   4.285  0.0579 -0.7111 -0.6662
  782MOL0     H 5567   7.507   3.890   4.343  4.3355  2.0569  0.2577
  782MOL0     H 5568   7.806   3.791   4.210  2.2479  2.0667 -0.7268
  782MOL0     H 5569   7.701   3.915   4.237 -0.0629 -1.9874 -1.1530
  782MOL0     H 5570   7.843   3.903   4.345 -2.5027  2.2152  2.5664
  783MOL0     O 5571  10.240   2.069   2.704  0.4291  0.2857  0.6674
  783MOL0     C 5572  10.187   1.951   2.717 -0.2217 -0.4525  0.5118
  783MOL0     O 5573  10.253   1.846   2.790 -0.3942  0.4008  0.8496
  783MOL0     C 5574  10.374   1.872   2.844 -0.5429  0.4056  0.0892
  783MOL0     C 5575  10.382   1.910   2.980 -0.7976  0.1544 -0.4397
  783MOL0     C 5576  10.508   1.950   3.035 -0.5959 -0.7918  0.3888
  783MOL0     C 5577  10.623   1.943   2.953 -0.1991 -0.7565  0.2685
  783MOL0     O 5578  10.737   1.998   2.993  0.1828 -0.3965 -0.8758
  783MOL0     C 5579  10.802   1.925   3.103  0.0780  0.4290 -0.4125
  783MOL0     C 5580  10.930   1.988   3.166  0.7707  0.2290  0.2970
  783MOL0     C 5581  11.058   1.953   3.075  1.2959 -0.0764 -0.5749
  783MOL0     C 5582  11.173   2.046   3.091 -0.0484 -0.3420  0.3450
  783MOL0     C 5583  11.233   2.036   3.236 -0.0066 -0.2900  0.6939
  783MOL0     C 5584  11.348   2.147   3.251  0.7181  0.0582  0.3566
  783MOL0     C 5585  11.404   2.168   3.389 -0.0094  0.1959  0.0214
  783MOL0     C 5586  11.449   2.042   3.459  0.4167 -0.2225 -0.7320
  783MOL0     N 5587  11.573   1.986   3.407  0.2457  0.9054 -0.4424
  783MOL0     C 5588  11.695   2.029   3.435  0.2559  0.4917 -1.1409
  783MOL0     C 5589  11.769   1.978   3.342 -0.5519 -0.1370  0.3898
  783MOL0     C 5590  11.913   1.997   3.316  0.4262 -0.4484 -0.1654
  783MOL0     C 5591  12.007   1.905   3.389 -1.1953 -0.2255  0.1520
  783MOL0     C 5592  12.132   1.861   3.310 -0.0649 -0.5313  0.3812
  783MOL0     C 5593  12.232   1.982   3.274 -0.1185 -0.6874  0.0353
  783MOL0     O 5594  12.272   2.048   3.394  0.5216  0.2908  0.3488
  783MOL0     C 5595  12.405   2.090   3.402 -0.7891 -0.1676  0.4226
  783MOL0     C 5596  12.469   2.162   3.297  0.8127 -0.6082 -0.2570
  783MOL0     C 5597  12.598   2.206   3.308  0.0289  1.1326  0.1015
  783MOL0     C 5598  12.675   2.174   3.421  0.5283 -0.8098  0.3432
  783MOL0     C 5599  12.812   2.225   3.432  0.4375  0.1219  0.1332
  783MOL0     O 5600  12.845   2.319   3.344  0.0078 -0.3133 -0.0754
  783MOL0     C 5601  12.981   2.353   3.323 -0.3005  0.6037  0.2521
  783MOL0     C 5602  13.038   2.439   3.417 -0.8017 -0.5213  0.2318
  783MOL0     C 5603  13.184   2.451   3.414 -0.1138 -0.0810  0.0536
  783MOL0     C 5604  13.260   2.400   3.311  0.0610 -0.7201  0.3948
  783MOL0     O 5605  13.392   2.416   3.308 -0.1473 -0.3780  0.3976
  783MOL0     C 5606  13.481   2.301   3.301  0.4650  0.2196  0.7759
  783MOL0     C 5607  13.625   2.337   3.270 -0.0609 -0.5153 -0.2772
  783MOL0     C 5608  13.718   2.223   3.224  0.1325 -0.2332 -1.2240
  783MOL0     C 5609  13.860   2.267   3.198 -0.0518  0.1704  0.9139
  783MOL0     C 5610  13.941   2.163   3.118 -0.0911 -0.5322 -0.2430
  783MOL0     C 5611  13.959   2.046   3.214 -0.2939 -0.7226  0.3402
  783MOL0     C 5612  14.053   1.949   3.139  0.1423  0.8452 -0.3275
  783MOL0     C 5613  14.201   1.990   3.113 -0.0631 -0.2577 -0.1294
  783MOL0    Cl 5614  14.285   1.829   3.064 -0.1165 -0.3651 -0.0168
  783MOL0     C 5615  13.196   2.328   3.211 -0.4403  0.0172  0.5999
  783MOL0     C 5616  13.061   2.299   3.221  0.0888 -0.1483  0.3248
  783MOL0     O 5617  12.885   2.173   3.513  1.0760  0.2082  0.3941
  783MOL0     C 5618  12.613   2.107   3.521 -0.0247  0.1207 -0.6434
  783MOL0     C 5619  12.479   2.063   3.513  0.6128 -0.6907  0.2546
  783MOL0     N 5620  11.694   1.892   3.265 -0.2785  0.2863  0.0575
  783MOL0     N 5621  11.570   1.894   3.305 -0.0170 -0.3204  0.2916
  783MOL0     C 5622  10.611   1.909   2.818  0.5606  0.7278  0.0375
  783MOL0     C 5623  10.489   1.869   2.763 -0.3393  0.7676  0.1457
  783MOL0     C 5624  10.046   1.923   2.671  0.3003 -0.3325 -0.5657
  783MOL0     C 5625   9.997   1.994   2.565  0.2003  1.2178  0.5199
  783MOL0     C 5626   9.870   1.970   2.507  0.9544  0.0817 -0.1072
  783MOL0     C 5627   9.787   1.872   2.569 -0.2133  0.5183  0.0895
  783MOL0     O 5628   9.662   1.835   2.522 -0.0437 -0.2479 -0.4028
  783MOL0     C 5629   9.568   1.941   2.492  0.0126  0.4870 -0.4672
  783MOL0     C 5630   9.428   1.925   2.555  0.0260 -0.7988  0.2874
  783MOL0     C 5631   9.346   1.820   2.478 -0.1246 -0.0140  0.3070
  783MOL0     C 5632   9.212   1.789   2.553  0.4961 -0.4724  0.1114
  783MOL0     C 5633   9.138   1.672   2.499 -0.2915  0.3491  0.6253
  783MOL0     C 5634   9.080   1.568   2.467 -0.4079 -0.3796  0.1159
  783MOL0     C 5635   9.837   1.800   2.686 -0.7158 -0.2654 -0.6450
  783MOL0     C 5636   9.962   1.837   2.736  0.2644 -0.4845 -0.9577
  783MOL0     C 5637   9.992   1.774   2.868  0.3650 -0.3312 -0.2736
  783MOL0     H 5638  10.303   1.914   3.056  2.5981  0.0236  3.4483
  783MOL0     H 5639  10.513   1.998   3.133 -2.5555  0.1124  0.1011
  783MOL0     H 5640  10.731   1.898   3.182 -2.6451 -2.1776 -3.4703
  783MOL0     H 5641  10.832   1.829   3.060  1.0435  0.8326 -0.6608
  783MOL0     H 5642  10.944   1.963   3.272  0.7734  2.5671  0.8952
  783MOL0     H 5643  10.923   2.097   3.164 -1.3527  0.1337  0.4078
  783MOL0     H 5644  11.026   1.958   2.971  0.9692  0.7731 -0.4419
  783MOL0     H 5645  11.092   1.854   3.107 -0.1389 -0.2962  0.3455
  783MOL0     H 5646  11.248   2.016   3.017 -0.2774 -0.0601 -0.0021
  783MOL0     H 5647  11.140   2.147   3.067  1.4600  0.1356  0.1624
  783MOL0     H 5648  11.155   2.058   3.309  1.0678 -0.1293  1.8369
  783MOL0     H 5649  11.277   1.939   3.257 -0.0560 -0.0498  1.9716
  783MOL0     H 5650  11.427   2.107   3.187 -0.2571 -0.2889 -0.6749
  783MOL0     H 5651  11.310   2.241   3.209  1.2228 -0.3009 -0.9524
  783MOL0     H 5652  11.325   2.223   3.440 -0.4451  1.1939 -1.6369
  783MOL0     H 5653  11.487   2.239   3.388  0.8883 -0.6311  3.2757
  783MOL0     H 5654  11.470   2.068   3.563  1.3552 -0.9761 -0.7183
  783MOL0     H 5655  11.366   1.970   3.457  0.0674  0.1244  0.3308
  783MOL0     H 5656  11.727   2.100   3.510  1.8931 -0.8077 -0.5438
  783MOL0     H 5657  11.932   1.987   3.209  2.0780 -0.0444  0.0568
  783MOL0     H 5658  11.933   2.102   3.339 -0.2745 -0.9359  3.3296
  783MOL0     H 5659  12.044   1.946   3.483 -0.1231  1.5361 -0.9760
  783MOL0     H 5660  11.959   1.809   3.410  2.9519 -1.8577  3.5193
  783MOL0     H 5661  12.104   1.800   3.224 -0.6222 -0.9250  0.8281
  783MOL0     H 5662  12.187   1.790   3.373  0.3185 -1.1949 -0.6746
  783MOL0     H 5663  12.174   2.046   3.208  0.6999 -0.8992 -0.9108
  783MOL0     H 5664  12.322   1.945   3.224  1.5267  2.1513  0.6727
  783MOL0     H 5665  12.401   2.180   3.214 -1.2708 -1.9282  1.0452
  783MOL0     H 5666  12.637   2.276   3.235 -1.7098  2.0078 -0.0450
  783MOL0     H 5667  12.974   2.465   3.501  1.0490 -0.4018  1.6529
  783MOL0     H 5668  13.219   2.500   3.505 -1.0171  0.5327  0.0944
  783MOL0     H 5669  13.472   2.241   3.392 -2.6372 -2.1304 -0.8613
  783MOL0     H 5670  13.447   2.240   3.216 -0.6447 -0.7951  1.9036
  783MOL0     H 5671  13.624   2.417   3.196 -0.0718 -1.3523 -1.2033
  783MOL0     H 5672  13.664   2.396   3.354  0.7327  0.0069 -1.0054
  783MOL0     H 5673  13.711   2.162   3.314 -0.7166  1.7356  0.1245
  783MOL0     H 5674  13.675   2.167   3.140  0.6406 -0.0574 -1.6047
  783MOL0     H 5675  13.904   2.293   3.295  1.2168 -0.1368  0.4305
  783MOL0     H 5676  13.854   2.356   3.134  0.2805  0.0626  0.7331
  783MOL0     H 5677  14.042   2.194   3.092 -1.2230  4.2617  0.1233
  783MOL0     H 5678  13.879   2.147   3.029 -1.2883 -0.6909  0.5884
  783MOL0     H 5679  14.001   2.064   3.313  0.9917  1.9465 -0.5965
  783MOL0     H 5680  13.862   1.997   3.225 -0.9461  0.2691 -0.7749
  783MOL0     H 5681  14.009   1.939   3.040 -0.5973 -0.6454  0.1277
  783MOL0     H 5682  14.056   1.850   3.186 -1.6802  1.5165  1.3511
  783MOL0     H 5683  14.213   2.067   3.036  0.0722  0.3478  0.4858
  783MOL0     H 5684  14.250   2.028   3.204  1.9967 -1.4112 -0.6768
  783MOL0     H 5685  13.243   2.277   3.127 -0.3065 -2.3141  1.9884
  783MOL0     H 5686  12.999   2.236   3.158 -2.0336  0.2978  1.8625
  783MOL0     H 5687  12.656   2.100   3.621  1.3912  1.7883 -1.0738
  783MOL0     H 5688  12.429   2.030   3.604  0.1071 -1.1308 -0.1733
  783MOL0     H 5689  10.706   1.921   2.767  1.3973 -0.7209  1.1839
  783MOL0     H 5690  10.483   1.848   2.657 -1.7239  0.6662  0.2239
  783MOL0     H 5691  10.056   2.065   2.508  0.2611  1.3563  0.7541
  783MOL0     H 5692   9.822   2.033   2.433  1.6381  0.1939 -0.4615
  783MOL0     H 5693   9.569   1.960   2.385  0.9202 -1.5784 -0.8588
  783MOL0     H 5694   9.608   2.027   2.547  0.7944 -1.6460  2.5501
  783MOL0     H 5695   9.369   2.017   2.555 -1.5752 -1.7940 -0.0651
  783MOL0     H 5696   9.446   1.908   2.662 -0.3065  0.3062  0.5252
  783MOL0     H 5697   9.399   1.725   2.476 -0.9219 -0.5246  1.7030
  783MOL0     H 5698   9.330   1.849   2.374 -1.1204 -4.4389 -0.9760
  783MOL0     H 5699   9.216   1.783   2.662 -0.0650  0.1672  0.1718
  783MOL0     H 5700   9.150   1.878   2.537  0.9728 -0.1915 -0.1982
  783MOL0     H 5701   9.045   1.479   2.420 -0.9190 -0.0343 -0.1676
  783MOL0     H 5702   9.785   1.717   2.734  0.2357 -0.9258 -0.7272
  783MOL0     H 5703   9.899   1.779   2.926  0.7594 -1.2188  0.4561
  783MOL0     H 5704  10.027   1.671   2.865  2.3651  0.1686  2.2435
  783MOL0     H 5705  10.067   1.826   2.928 -1.8049  2.6575  0.0784
  784MOL0     O 5706   4.304   1.196   0.726 -0.0071 -0.6070 -0.1292
  784MOL0     C 5707   4.233   1.098   0.680 -0.0319 -1.3790 -0.4725
  784MOL0     O 5708   4.267   0.970   0.680 -0.2628  0.1670 -0.1595
  784MOL0     C 5709   4.383   0.925   0.739 -0.3932 -0.0401  0.4780
  784MOL0     C 5710   4.361   0.812   0.815  0.0506 -0.2870  0.1358
  784MOL0     C 5711   4.468   0.750   0.886  0.1662 -0.1162  0.1904
  784MOL0     C 5712   4.598   0.803   0.881 -0.9998 -0.0654  0.6306
  784MOL0     O 5713   4.701   0.735   0.945  0.3514 -0.9142 -0.2937
  784MOL0     C 5714   4.833   0.769   0.926 -0.0032 -0.3704  0.0002
  784MOL0     C 5715   4.911   0.695   1.041 -0.3093 -0.2043  0.0312
  784MOL0     C 5716   5.043   0.766   1.081 -0.0220  0.3060  0.2987
  784MOL0     C 5717   5.143   0.768   0.958  0.3456  0.8189 -0.5823
  784MOL0     C 5718   5.276   0.834   0.995  0.6017 -0.1864  0.4047
  784MOL0     C 5719   5.273   0.989   1.003  0.7910  0.9005 -0.1315
  784MOL0     C 5720   5.380   1.039   1.100  0.2617  0.1886  0.3463
  784MOL0     C 5721   5.522   1.016   1.045 -0.4416  0.1661  0.4867
  784MOL0     N 5722   5.618   1.112   1.107  0.3023 -0.7102  0.6215
  784MOL0     C 5723   5.608   1.251   1.113  0.0045  0.2114  0.5427
  784MOL0     C 5724   5.697   1.295   1.201  0.5692  0.1599 -1.2261
  784MOL0     C 5725   5.701   1.444   1.237  0.3070 -0.5188  0.3196
  784MOL0     C 5726   5.585   1.489   1.325  0.6695 -0.1066  0.0227
  784MOL0     C 5727   5.615   1.607   1.416 -0.4835 -1.2877 -0.4261
  784MOL0     C 5728   5.686   1.728   1.364 -0.1263 -0.6136  1.3790
  784MOL0     O 5729   5.609   1.817   1.275  0.2232  0.3945  0.8299
  784MOL0     C 5730   5.485   1.849   1.329  0.0376  0.1040 -0.7347
  784MOL0     C 5731   5.479   1.942   1.443 -0.4093  0.1526  0.4146
  784MOL0     C 5732   5.354   1.995   1.481 -0.1277  1.1864 -0.0901
  784MOL0     C 5733   5.239   1.953   1.418  0.6219  0.3943 -0.2815
  784MOL0     C 5734   5.102   2.011   1.460  0.1919 -0.1468  0.5557
  784MOL0     O 5735   4.986   1.939   1.426 -0.7495  0.9668  0.2264
  784MOL0     C 5736   4.876   2.015   1.421  0.4012  0.1522  0.0713
  784MOL0     C 5737   4.804   2.048   1.531  0.0642 -0.5215 -0.5131
  784MOL0     C 5738   4.684   2.125   1.515  0.7006 -0.5399 -0.1217
  784MOL0     C 5739   4.653   2.190   1.397  0.2595 -0.0025  1.3781
  784MOL0     O 5740   4.526   2.253   1.383  0.4932  0.2389 -0.3776
  784MOL0     C 5741   4.516   2.357   1.290 -0.0069  0.4474  0.2932
  784MOL0     C 5742   4.377   2.425   1.309 -0.0930 -0.1301  0.6048
  784MOL0     C 5743   4.324   2.506   1.190  0.2278 -0.4456  0.4636
  784MOL0     C 5744   4.192   2.579   1.231 -0.0628 -0.8281  0.7136
  784MOL0     C 5745   4.144   2.684   1.127  0.2030 -0.0830 -0.3116
  784MOL0     C 5746   4.024   2.761   1.177 -0.0246 -0.3968  0.3185
  784MOL0     C 5747   3.955   2.856   1.078  0.8649  0.0931 -0.0625
  784MOL0     C 5748   3.840   2.947   1.132  0.4026  0.3265  0.5906
  784MOL0    Cl 5749   3.719   2.825   1.196 -0.3001  0.1305  0.1864
  784MOL0     C 5750   4.734   2.154   1.284  0.1912 -0.4130  0.3166
  784MOL0     C 5751   4.846   2.070   1.293  0.9889 -0.6446 -0.7935
  784MOL0     O 5752   5.105   2.131   1.500  0.8151  0.7561 -0.0316
  784MOL0     C 5753   5.253   1.846   1.324 -0.5962 -0.2556 -0.0925
  784MOL0     C 5754   5.368   1.791   1.284 -0.7881 -0.3424 -0.4248
  784MOL0     N 5755   5.784   1.186   1.229 -0.4528 -0.2671 -0.3997
  784MOL0     N 5756   5.734   1.081   1.168 -0.9394  0.2156 -0.2968
  784MOL0     C 5757   4.623   0.921   0.801 -0.1717  1.0209 -0.5479
  784MOL0     C 5758   4.517   0.980   0.727  0.2773 -0.2534  0.8073
  784MOL0     C 5759   4.102   1.141   0.633  1.0404  0.6202  0.4131
  784MOL0     C 5760   4.077   1.277   0.612  0.5280 -0.1661  0.0692
  784MOL0     C 5761   3.952   1.326   0.571  0.2577 -1.3376 -0.1825
  784MOL0     C 5762   3.841   1.243   0.553  0.2059 -0.2641 -0.3067
  784MOL0     O 5763   3.723   1.305   0.516 -0.0816  0.1870  0.0040
  784MOL0     C 5764   3.602   1.229   0.496 -0.6541  0.3056  0.1199
  784MOL0     C 5765   3.502   1.332   0.463  0.3674 -0.0770 -0.6208
  784MOL0     C 5766   3.479   1.436   0.578 -0.5715  0.5340  0.9249
  784MOL0     C 5767   3.375   1.547   0.543  0.4492  0.1532  0.4682
  784MOL0     C 5768   3.247   1.480   0.538 -0.2482  0.0341  0.6506
  784MOL0     C 5769   3.126   1.448   0.541  0.1634  0.2175  0.6686
  784MOL0     C 5770   3.856   1.111   0.582 -0.8691  0.7353 -0.0351
  784MOL0     C 5771   3.990   1.059   0.616  0.2893  0.4556 -0.7223
  784MOL0     C 5772   3.996   0.908   0.651 -0.1425 -0.4191  0.7090
  784MOL0     H 5773   4.265   0.760   0.813 -0.8159  1.2633 -2.2952
  784MOL0     H 5774   4.445   0.671   0.956 -4.6746 -1.1291 -2.1424
  784MOL0     H 5775   4.872   0.732   0.830  0.0867  0.5378 -0.3274
  784MOL0     H 5776   4.845   0.878   0.930 -0.7802 -0.2785 -0.0849
  784MOL0     H 5777   4.927   0.590   1.014 -5.7090 -1.0715 -0.7937
  784MOL0     H 5778   4.856   0.686   1.135 -1.6027  1.8102 -0.4757
  784MOL0     H 5779   5.089   0.701   1.156  1.2487 -1.2472 -1.7339
  784MOL0     H 5780   5.022   0.863   1.127  1.4681  1.5163 -1.4576
  784MOL0     H 5781   5.170   0.663   0.938 -1.4024  0.4696 -1.2682
  784MOL0     H 5782   5.101   0.815   0.869  0.0841 -0.0123 -0.9100
  784MOL0     H 5783   5.295   0.788   1.092  0.7041 -1.2050 -0.0912
  784MOL0     H 5784   5.356   0.806   0.926 -0.1350  2.8391 -1.8783
  784MOL0     H 5785   5.289   1.036   0.905  1.2439 -2.3008 -1.7223
  784MOL0     H 5786   5.170   1.014   1.032 -0.1911 -3.3923  0.7594
  784MOL0     H 5787   5.356   1.005   1.201 -2.3129 -2.1221 -0.9243
  784MOL0     H 5788   5.364   1.147   1.101 -1.3271  0.1359  5.1179
  784MOL0     H 5789   5.572   0.924   1.075  0.7581  0.7323  0.2942
  784MOL0     H 5790   5.530   1.028   0.936 -0.9218 -0.5351  0.3691
  784MOL0     H 5791   5.538   1.315   1.060  0.0835  1.0138  1.3783
  784MOL0     H 5792   5.790   1.456   1.300  0.7062 -0.6142 -0.2203
  784MOL0     H 5793   5.709   1.511   1.151  0.4145  0.1268  0.8237
  784MOL0     H 5794   5.494   1.507   1.267 -0.1490 -1.5477  0.8010
  784MOL0     H 5795   5.549   1.406   1.386  0.4720  0.2083  0.3438
  784MOL0     H 5796   5.689   1.566   1.485  0.2005  0.3141 -0.1737
  784MOL0     H 5797   5.518   1.636   1.457 -0.1186  0.0008 -0.4260
  784MOL0     H 5798   5.777   1.699   1.309 -0.8342  1.3452 -0.9769
  784MOL0     H 5799   5.720   1.792   1.446  0.1438  0.3708  0.5158
  784MOL0     H 5800   5.574   1.981   1.476 -0.6605  2.7063 -1.6089
  784MOL0     H 5801   5.356   2.067   1.563  0.8282 -0.4700  1.3978
  784MOL0     H 5802   4.828   2.015   1.632 -2.9458  0.6024  0.6915
  784MOL0     H 5803   4.609   2.138   1.592 -0.2496  2.6200 -1.3846
  784MOL0     H 5804   4.586   2.439   1.306 -0.1496  0.7255 -0.4640
  784MOL0     H 5805   4.531   2.315   1.190  2.1298 -1.1246  1.1782
  784MOL0     H 5806   4.308   2.347   1.340  0.8149 -0.5142  1.7206
  784MOL0     H 5807   4.382   2.495   1.393 -1.1952  0.9091 -0.1624
  784MOL0     H 5808   4.389   2.582   1.145  0.0873 -0.6063 -0.0244
  784MOL0     H 5809   4.293   2.442   1.107  1.2443 -1.7497  1.0721
  784MOL0     H 5810   4.202   2.631   1.327 -2.3089  0.5759  0.2544
  784MOL0     H 5811   4.111   2.506   1.241  0.0815 -0.9141  1.3028
  784MOL0     H 5812   4.112   2.634   1.035 -0.4214  2.0018 -1.2896
  784MOL0     H 5813   4.222   2.753   1.093  0.3372 -1.2700 -2.5749
  784MOL0     H 5814   3.951   2.686   1.208 -0.9348 -0.1582 -1.1582
  784MOL0     H 5815   4.052   2.823   1.263 -3.1083  3.1989 -1.0051
  784MOL0     H 5816   3.914   2.804   0.991 -1.4230  2.8559 -0.7899
  784MOL0     H 5817   4.027   2.926   1.035 -0.4418  0.3782 -1.8725
  784MOL0     H 5818   3.878   3.009   1.213  0.1556 -1.0197  1.7675
  784MOL0     H 5819   3.799   3.016   1.058 -1.1602  0.5840  1.6643
  784MOL0     H 5820   4.712   2.196   1.186  0.3411 -1.4113 -0.1544
  784MOL0     H 5821   4.912   2.040   1.212 -0.9518 -1.7396 -2.0549
  784MOL0     H 5822   5.162   1.814   1.273 -2.0357  3.4609 -0.2187
  784MOL0     H 5823   5.367   1.709   1.213  3.1429 -2.9249  2.1524
  784MOL0     H 5824   4.723   0.958   0.784  0.8754 -1.9542 -1.6513
  784MOL0     H 5825   4.523   1.073   0.672 -0.0662 -0.2698  0.7428
  784MOL0     H 5826   4.165   1.341   0.612  0.0399  0.5326  0.6860
  784MOL0     H 5827   3.941   1.432   0.549  0.1027 -1.8063 -2.6101
  784MOL0     H 5828   3.586   1.172   0.588 -0.1424 -1.0889 -0.6307
  784MOL0     H 5829   3.603   1.161   0.411  1.2724  0.7291 -0.2562
  784MOL0     H 5830   3.412   1.276   0.437  0.4731  0.0784 -1.3552
  784MOL0     H 5831   3.525   1.393   0.375  2.3636  0.7508  0.4042
  784MOL0     H 5832   3.576   1.477   0.606 -0.4581  0.0322  1.2859
  784MOL0     H 5833   3.451   1.376   0.665 -0.7784  3.1826  2.7987
  784MOL0     H 5834   3.380   1.623   0.622 -0.7622 -0.5191  1.2209
  784MOL0     H 5835   3.402   1.596   0.449  0.2433 -0.9987 -0.2045
  784MOL0     H 5836   3.027   1.407   0.548  0.8836 -1.3870  2.0424
  784MOL0     H 5837   3.777   1.037   0.573 -0.8240  0.4240  1.6915
  784MOL0     H 5838   3.897   0.866   0.631 -0.2992  0.5727 -0.7234
  784MOL0     H 5839   4.065   0.856   0.585 -0.2319  1.7113 -1.1750
  784MOL0     H 5840   4.010   0.896   0.759  1.5065  1.6402  0.7735
  785MOL0     O 5841   9.190   1.447   1.104  0.1584  0.3603  0.1409
  785MOL0     C 5842   9.215   1.346   1.046  0.1864  0.0337  0.0927
  785MOL0     O 5843   9.117   1.283   0.970  0.4301  0.1300  0.2515
  785MOL0     C 5844   8.982   1.293   0.990  0.3702  0.0099 -0.4022
  785MOL0     C 5845   8.908   1.402   0.943 -0.5008 -0.1224 -0.1852
  785MOL0     C 5846   8.768   1.407   0.949  0.8236  0.4005 -0.0877
  785MOL0     C 5847   8.696   1.303   1.008  0.5640  0.0320  0.0413
  785MOL0     O 5848   8.558   1.312   1.014  0.1646 -0.1674  0.6708
  785MOL0     C 5849   8.494   1.206   1.085  0.1234  0.2135 -0.1519
  785MOL0     C 5850   8.353   1.268   1.102 -0.4357  0.1651  0.2110
  785MOL0     C 5851   8.350   1.362   1.224 -0.0286 -0.0248 -0.4814
  785MOL0     C 5852   8.218   1.392   1.291 -0.6586  0.2694 -0.3009
  785MOL0     C 5853   8.119   1.448   1.188 -0.4742 -0.8833  0.5707
  785MOL0     C 5854   8.007   1.539   1.255 -0.2500 -0.5853 -0.4377
  785MOL0     C 5855   7.926   1.468   1.365 -0.6414 -0.0964  0.8393
  785MOL0     C 5856   7.804   1.551   1.417 -0.2972  0.3273 -0.0470
  785MOL0     N 5857   7.746   1.484   1.532  0.6434 -0.1270 -0.4765
  785MOL0     C 5858   7.807   1.457   1.649 -0.0906 -0.9300 -0.8388
  785MOL0     C 5859   7.701   1.400   1.721  0.2369  0.1140  0.1923
  785MOL0     C 5860   7.691   1.343   1.864 -0.4073  0.1289 -0.1078
  785MOL0     C 5861   7.804   1.248   1.883 -0.9226  0.4213 -0.2437
  785MOL0     C 5862   7.830   1.218   2.033 -0.4978 -0.4245 -0.0224
  785MOL0     C 5863   7.970   1.200   2.074 -0.4542 -0.0964  1.0995
  785MOL0     O 5864   8.032   1.087   2.015 -0.7312 -0.1242 -1.0319
  785MOL0     C 5865   8.170   1.090   2.023 -0.4213  0.1568  0.3486
  785MOL0     C 5866   8.236   1.028   1.923  0.2910 -0.0578 -0.0797
  785MOL0     C 5867   8.374   1.014   1.917  0.1685  1.1518  0.2627
  785MOL0     C 5868   8.451   1.074   2.014 -0.2307 -0.1752 -0.3109
  785MOL0     C 5869   8.599   1.085   2.009  0.2465 -0.2440  0.9324
  785MOL0     O 5870   8.654   1.000   1.913 -0.1010 -0.2932  0.2638
  785MOL0     C 5871   8.796   0.993   1.914 -0.5760 -0.1500  0.2533
  785MOL0     C 5872   8.842   0.971   1.791  1.1394  0.3418 -0.1927
  785MOL0     C 5873   8.976   0.971   1.766 -0.3693 -0.0604 -0.5362
  785MOL0     C 5874   9.070   1.000   1.868 -0.0988  1.1281  0.0958
  785MOL0     O 5875   9.200   1.010   1.833 -0.1135  0.1772  0.8567
  785MOL0     C 5876   9.292   0.916   1.896  0.6776 -0.4142  0.0665
  785MOL0     C 5877   9.408   0.888   1.807 -0.0871  0.3579  0.1108
  785MOL0     C 5878   9.511   0.790   1.854  1.0419 -0.6353  0.0118
  785MOL0     C 5879   9.613   0.744   1.752  0.2455 -0.1565 -0.4834
  785MOL0     C 5880   9.711   0.645   1.819 -0.1139  0.6621 -0.2034
  785MOL0     C 5881   9.850   0.640   1.753 -0.0614  0.0545  0.2381
  785MOL0     C 5882   9.944   0.550   1.825 -0.8908 -0.1390 -0.1467
  785MOL0     C 5883  10.086   0.553   1.759 -0.4216 -0.5156  1.1097
  785MOL0    Cl 5884  10.194   0.435   1.845  0.1535  0.2091 -0.1823
  785MOL0     C 5885   9.025   0.995   2.001  0.1584 -0.2935  0.4075
  785MOL0     C 5886   8.887   0.997   2.025 -0.2553 -0.4274 -0.6880
  785MOL0     O 5887   8.654   1.178   2.072  0.5452  0.1014 -0.0774
  785MOL0     C 5888   8.382   1.150   2.111 -0.2994  0.8891 -0.2528
  785MOL0     C 5889   8.247   1.148   2.123  0.1457  0.4016 -0.1807
  785MOL0     N 5890   7.585   1.391   1.643 -0.6412  0.4141 -0.6043
  785MOL0     N 5891   7.617   1.430   1.528 -0.3116 -0.4104  1.6032
  785MOL0     C 5892   8.775   1.189   1.052  0.0232  0.8300 -0.1558
  785MOL0     C 5893   8.912   1.190   1.039  1.1016  0.9008 -0.2532
  785MOL0     C 5894   9.359   1.299   1.030  0.6902 -0.9264  0.1667
  785MOL0     C 5895   9.382   1.159   1.049  0.7499 -0.2756 -0.1440
  785MOL0     C 5896   9.516   1.113   1.036  0.3373  1.0253 -0.0548
  785MOL0     C 5897   9.616   1.197   1.012  0.2206 -0.5935 -0.8081
  785MOL0     O 5898   9.739   1.145   1.014  0.0568 -0.3180 -0.5236
  785MOL0     C 5899   9.856   1.232   0.988 -0.1881  0.5466  0.8372
  785MOL0     C 5900   9.985   1.144   1.001  0.0290 -0.5069  0.2096
  785MOL0     C 5901   9.988   1.004   0.937  0.7183  0.1352  0.4974
  785MOL0     C 5902   9.976   1.003   0.778  0.7293 -0.2558  0.1310
  785MOL0     C 5903  10.081   1.086   0.711  0.0399 -0.1895 -0.1261
  785MOL0     C 5904  10.178   1.145   0.670 -0.0775 -0.1533 -0.0203
  785MOL0     C 5905   9.585   1.335   0.985  0.1297 -0.6448 -0.4919
  785MOL0     C 5906   9.457   1.394   0.998  0.5014 -0.7071 -0.4830
  785MOL0     C 5907   9.427   1.545   0.978  0.1931  0.0640  0.3556
  785MOL0     H 5908   8.968   1.485   0.906  0.0261 -0.6009 -0.4231
  785MOL0     H 5909   8.718   1.494   0.909  0.3458 -0.3672 -1.1953
  785MOL0     H 5910   8.492   1.111   1.031 -0.2238  0.8053 -1.1997
  785MOL0     H 5911   8.549   1.188   1.178  3.1803 -0.8020 -2.0012
  785MOL0     H 5912   8.283   1.187   1.120 -1.5606  0.4597 -2.3782
  785MOL0     H 5913   8.319   1.310   1.007  1.5725 -1.4100 -1.3028
  785MOL0     H 5914   8.390   1.459   1.193 -3.4982  1.4775 -0.7579
  785MOL0     H 5915   8.408   1.321   1.307 -1.2637 -1.8864 -0.4578
  785MOL0     H 5916   8.189   1.299   1.341  0.9099  0.0965  0.3599
  785MOL0     H 5917   8.225   1.462   1.375 -0.7909  0.1924 -0.2250
  785MOL0     H 5918   8.177   1.509   1.119 -0.5584 -1.1138  0.2980
  785MOL0     H 5919   8.078   1.363   1.134 -1.8504  0.4271 -0.5426
  785MOL0     H 5920   8.047   1.628   1.305  0.9862  0.1777 -2.6483
  785MOL0     H 5921   7.936   1.565   1.176 -2.1557  1.1750  1.6867
  785MOL0     H 5922   7.993   1.440   1.447  0.7833  0.3713 -0.1420
  785MOL0     H 5923   7.879   1.376   1.327 -2.7471  1.4702 -0.5440
  785MOL0     H 5924   7.839   1.647   1.456 -1.0982  0.2665  0.8804
  785MOL0     H 5925   7.731   1.552   1.335 -1.8735 -1.9001  1.2268
  785MOL0     H 5926   7.913   1.460   1.676 -0.8227 -0.6309  2.3733
  785MOL0     H 5927   7.706   1.426   1.933  0.2213 -0.8507  0.9731
  785MOL0     H 5928   7.591   1.300   1.876 -1.4317  1.6828 -2.2714
  785MOL0     H 5929   7.770   1.157   1.833 -1.6803  0.5055  0.0944
  785MOL0     H 5930   7.892   1.275   1.825 -0.3088  0.3847  0.6434
  785MOL0     H 5931   7.771   1.135   2.071 -3.1586  1.5514  0.4524
  785MOL0     H 5932   7.786   1.302   2.088  1.9937  1.1762 -0.3105
  785MOL0     H 5933   7.985   1.188   2.181  1.1449 -2.0542  0.7079
  785MOL0     H 5934   8.032   1.286   2.045 -0.4849 -0.4212  0.0228
  785MOL0     H 5935   8.170   0.989   1.846  0.2732 -0.8529  0.3262
  785MOL0     H 5936   8.421   0.966   1.832 -0.8268  1.2994 -0.3851
  785MOL0     H 5937   8.769   0.958   1.711 -1.2921  3.7964  1.2400
  785MOL0     H 5938   9.014   0.958   1.665  0.2476  0.3962 -0.3696
  785MOL0     H 5939   9.328   0.962   1.988  2.4069 -0.2298 -0.6545
  785MOL0     H 5940   9.234   0.826   1.921 -1.8638  0.8569 -0.8672
  785MOL0     H 5941   9.370   0.849   1.712  0.1721 -0.2492  0.2579
  785MOL0     H 5942   9.452   0.984   1.777 -0.5958  1.4426  2.5911
  785MOL0     H 5943   9.563   0.836   1.939  0.6629 -0.2841  0.0612
  785MOL0     H 5944   9.450   0.701   1.871  1.3524 -1.5215 -2.9058
  785MOL0     H 5945   9.676   0.829   1.729  1.7921 -1.7044 -2.2914
  785MOL0     H 5946   9.569   0.711   1.657 -2.2048  0.9072  0.2047
  785MOL0     H 5947   9.663   0.548   1.802 -2.6132  1.9130 -0.5917
  785MOL0     H 5948   9.710   0.662   1.927  0.1555 -1.8298  0.2599
  785MOL0     H 5949   9.845   0.616   1.647  2.6801  3.9905 -1.0100
  785MOL0     H 5950   9.890   0.742   1.754  0.0719  0.0045 -0.0828
  785MOL0     H 5951   9.902   0.449   1.824 -0.4280 -0.3257 -0.7254
  785MOL0     H 5952   9.960   0.566   1.932 -0.1056 -0.9026 -0.1458
  785MOL0     H 5953  10.082   0.517   1.656 -1.7431  0.6256  0.7403
  785MOL0     H 5954  10.117   0.657   1.766 -0.8080 -0.3549  0.4359
  785MOL0     H 5955   9.102   0.992   2.077  0.4864  1.6632  0.1840
  785MOL0     H 5956   8.858   1.013   2.129  4.5572  0.9578  0.7408
  785MOL0     H 5957   8.436   1.206   2.186 -0.0640  0.5110 -0.1371
  785MOL0     H 5958   8.201   1.182   2.215  1.5388 -1.0335  1.1131
  785MOL0     H 5959   8.725   1.106   1.102  0.5534  0.3158 -0.4699
  785MOL0     H 5960   8.962   1.104   1.082 -2.0312 -1.0332 -0.1456
  785MOL0     H 5961   9.304   1.090   1.078 -0.5323  1.0587 -0.3127
  785MOL0     H 5962   9.536   1.007   1.031 -2.1710  0.5039 -0.7546
  785MOL0     H 5963   9.868   1.326   1.044  2.4239 -0.2113  1.6759
  785MOL0     H 5964   9.865   1.262   0.883 -3.2978 -0.6292  0.1311
  785MOL0     H 5965  10.008   1.135   1.108  0.7997  2.8175  0.4318
  785MOL0     H 5966  10.071   1.202   0.965 -0.2247 -0.1247  0.2178
  785MOL0     H 5967   9.902   0.947   0.974 -0.9809  1.2860 -1.4325
  785MOL0     H 5968  10.079   0.952   0.968  0.4289  0.4817  2.0146
  785MOL0     H 5969   9.986   0.898   0.750  3.1245 -0.1406  0.3793
  785MOL0     H 5970   9.877   1.037   0.746  0.7698 -0.4765 -0.2320
  785MOL0     H 5971  10.268   1.181   0.624  0.7919  0.5717  2.0955
  785MOL0     H 5972   9.665   1.403   0.960  1.3589 -1.2513  1.5595
  785MOL0     H 5973   9.333   1.564   0.926 -2.6433  1.2420  5.2545
  785MOL0     H 5974   9.437   1.599   1.073 -0.6206  0.1919  0.3699
  785MOL0     H 5975   9.508   1.586   0.916  0.3748  1.3740  1.4041
  786MOL0     O 5976   6.716   4.544   7.661  0.9546 -0.0431  0.2344
  786MOL0     C 5977   6.644   4.645   7.660  0.5011 -0.0509 -0.0766
  786MOL0     O 5978   6.686   4.772   7.618 -0.2188 -0.4852  0.0648
  786MOL0     C 5979   6.808   4.773   7.558 -0.0000  0.4643  0.7891
  786MOL0     C 5980   6.927   4.748   7.622 -0.0042  0.4945 -0.5047
  786MOL0     C 5981   7.051   4.739   7.558  0.0326 -0.1286 -0.2412
  786MOL0     C 5982   7.052   4.762   7.419 -0.2281 -0.0078  1.0715
  786MOL0     O 5983   7.155   4.754   7.324  0.1168  0.6093 -0.1477
  786MOL0     C 5984   7.280   4.715   7.374 -0.4735  0.2980  0.5373
  786MOL0     C 5985   7.363   4.663   7.261 -0.3548  0.0431  0.1235
  786MOL0     C 5986   7.514   4.676   7.301  0.0386 -0.6424 -0.0767
  786MOL0     C 5987   7.556   4.585   7.415  0.0693  0.2609  0.6470
  786MOL0     C 5988   7.685   4.642   7.486  0.1270 -0.0401  0.0230
  786MOL0     C 5989   7.823   4.642   7.407 -0.0398  0.3037 -0.7057
  786MOL0     C 5990   7.866   4.502   7.366  0.1407 -0.1201 -0.4689
  786MOL0     C 5991   7.990   4.513   7.274  0.6354 -0.1138 -0.5329
  786MOL0     N 5992   8.042   4.378   7.238  0.2606 -0.0878  0.3168
  786MOL0     C 5993   8.169   4.327   7.270 -0.0589 -0.3090  0.7033
  786MOL0     C 5994   8.172   4.212   7.195 -0.7323 -0.0313  0.8831
  786MOL0     C 5995   8.273   4.107   7.196  0.2678  0.0892  0.1047
  786MOL0     C 5996   8.417   4.152   7.143  0.0534  0.3450 -0.7827
  786MOL0     C 5997   8.420   4.207   7.006 -0.0613 -0.9317 -0.1082
  786MOL0     C 5998   8.551   4.264   6.967 -0.3186  0.0363  0.4955
  786MOL0     O 5999   8.634   4.157   6.940  0.4799 -0.4509 -0.0321
  786MOL0     C 6000   8.762   4.173   6.934 -0.2814 -1.0236  0.0764
  786MOL0     C 6001   8.835   4.290   6.897  0.4553 -0.1499 -0.0973
  786MOL0     C 6002   8.984   4.283   6.890  0.5853 -0.3456 -0.3358
  786MOL0     C 6003   9.055   4.167   6.921  0.5746 -0.3444  0.6392
  786MOL0     C 6004   9.193   4.165   6.889  0.2580 -0.5890  0.7396
  786MOL0     O 6005   9.255   4.284   6.880 -0.3204  0.0741 -0.1603
  786MOL0     C 6006   9.391   4.283   6.835  1.3361  0.1266  0.1921
  786MOL0     C 6007   9.494   4.323   6.916 -0.2677  0.3080 -0.4831
  786MOL0     C 6008   9.627   4.317   6.870 -0.4353 -0.2351  0.0903
  786MOL0     C 6009   9.662   4.263   6.752  0.6152  0.0746  0.4492
  786MOL0     O 6010   9.781   4.262   6.699  0.5806  0.5663  0.1261
  786MOL0     C 6011   9.893   4.227   6.782  0.3544 -0.5311 -0.8844
  786MOL0     C 6012  10.018   4.216   6.696  0.2628  0.7324  0.0458
  786MOL0     C 6013  10.078   4.348   6.643  0.4353  0.4371  0.3161
  786MOL0     C 6014   9.990   4.400   6.526 -0.4887  0.1790 -0.2775
  786MOL0     C 6015  10.048   4.511   6.440 -0.3350 -0.2801 -0.6207
  786MOL0     C 6016  10.052   4.646   6.519 -0.2354 -0.3957 -0.0766
  786MOL0     C 6017  10.090   4.760   6.424  0.2631 -0.8335  0.3974
  786MOL0     C 6018  10.240   4.775   6.431 -0.1638 -0.3124 -0.1764
  786MOL0    Cl 6019  10.299   4.929   6.348 -0.0520 -0.3835 -0.1823
  786MOL0     C 6020   9.562   4.223   6.670  0.8752 -0.2383 -0.2396
  786MOL0     C 6021   9.424   4.234   6.701  0.7302  0.3240 -0.1635
  786MOL0     O 6022   9.239   4.054   6.865 -0.1384 -0.2302  0.9114
  786MOL0     C 6023   8.977   4.061   6.957  0.0210 -0.1813 -0.4569
  786MOL0     C 6024   8.841   4.064   6.970  0.4823  0.2992 -0.0291
  786MOL0     N 6025   8.054   4.202   7.126 -0.3445  0.1764 -0.3649
  786MOL0     N 6026   7.976   4.294   7.157 -0.1745 -0.3038  0.1891
  786MOL0     C 6027   6.932   4.790   7.354 -0.3322 -0.1921  0.9043
  786MOL0     C 6028   6.810   4.800   7.423 -0.0351  0.8270  0.6687
  786MOL0     C 6029   6.511   4.626   7.713  0.1749 -0.0062 -0.2161
  786MOL0     C 6030   6.472   4.500   7.771  0.9043  1.0130  0.5233
  786MOL0     C 6031   6.348   4.480   7.822 -0.6494  0.3474 -0.7230
  786MOL0     C 6032   6.251   4.582   7.831  0.1351  0.1180 -0.0452
  786MOL0     O 6033   6.125   4.576   7.894 -0.3774 -0.1334  0.2732
  786MOL0     C 6034   6.077   4.443   7.943 -0.4657 -0.9235  0.0291
  786MOL0     C 6035   5.928   4.432   7.953 -0.1506 -0.4658 -0.4656
  786MOL0     C 6036   5.857   4.481   7.824 -0.4794  0.3267  0.2691
  786MOL0     C 6037   5.701   4.442   7.825  0.5892  0.4101  0.1154
  786MOL0     C 6038   5.616   4.521   7.914 -0.6965  0.3925 -0.0983
  786MOL0     C 6039   5.548   4.579   7.993 -0.2697 -0.0724  0.2437
  786MOL0     C 6040   6.280   4.704   7.768 -0.0409  0.5438 -0.2516
  786MOL0     C 6041   6.412   4.729   7.715  0.1866 -0.2646 -0.4550
  786MOL0     C 6042   6.424   4.862   7.655 -0.5292 -0.2924 -0.7896
  786MOL0     H 6043   6.929   4.727   7.728  2.1771 -0.3571 -0.6630
  786MOL0     H 6044   7.144   4.717   7.608  0.0081 -0.1424 -0.2022
  786MOL0     H 6045   7.337   4.800   7.411 -0.5286  0.5409  0.0783
  786MOL0     H 6046   7.270   4.638   7.451 -2.3929  0.0502  0.1145
  786MOL0     H 6047   7.335   4.725   7.175 -0.2531  1.5095  1.1234
  786MOL0     H 6048   7.330   4.561   7.239  1.5662 -0.3631 -1.1260
  786MOL0     H 6049   7.536   4.781   7.322 -0.9900 -0.3111 -0.5945
  786MOL0     H 6050   7.570   4.653   7.210 -0.9922  0.8206 -1.1182
  786MOL0     H 6051   7.476   4.573   7.488  0.0474  2.6944  1.1145
  786MOL0     H 6052   7.572   4.494   7.357 -2.1151 -0.4620  1.1035
  786MOL0     H 6053   7.646   4.737   7.525 -1.1900 -1.2271  1.7419
  786MOL0     H 6054   7.706   4.585   7.577  0.4242 -0.7600 -0.4927
  786MOL0     H 6055   7.809   4.700   7.316  1.1615 -0.3115 -1.3020
  786MOL0     H 6056   7.899   4.678   7.477  0.1422 -4.4613  1.9542
  786MOL0     H 6057   7.792   4.443   7.311  0.1936  0.5543 -1.2699
  786MOL0     H 6058   7.887   4.452   7.461 -1.7697 -0.2597 -0.0899
  786MOL0     H 6059   7.975   4.565   7.179  1.1152  0.5913 -0.2339
  786MOL0     H 6060   8.062   4.574   7.330  1.5393 -0.2817 -1.4800
  786MOL0     H 6061   8.240   4.348   7.350 -2.4395  1.5956  2.4801
  786MOL0     H 6062   8.290   4.063   7.295  0.3018 -0.9767 -0.3528
  786MOL0     H 6063   8.252   4.020   7.132  1.7710  0.7256 -1.3264
  786MOL0     H 6064   8.457   4.227   7.212  0.2871 -0.3988 -0.0924
  786MOL0     H 6065   8.483   4.064   7.142 -0.0376  0.2776 -0.8525
  786MOL0     H 6066   8.357   4.296   6.993 -2.4545 -2.4346  0.5092
  786MOL0     H 6067   8.387   4.130   6.935  1.7096 -3.2427  1.4170
  786MOL0     H 6068   8.591   4.325   7.049 -1.0122 -0.0348  0.8916
  786MOL0     H 6069   8.539   4.331   6.882  1.1388  0.5325  0.6430
  786MOL0     H 6070   8.777   4.379   6.875 -0.6157 -1.1854 -1.6825
  786MOL0     H 6071   9.027   4.372   6.846  0.3566  0.2431  0.6139
  786MOL0     H 6072   9.479   4.358   7.017 -1.4991 -0.2456 -0.4503
  786MOL0     H 6073   9.703   4.334   6.946 -0.9166  0.6863  0.3701
  786MOL0     H 6074   9.909   4.303   6.859 -1.4621 -0.3551 -0.6406
  786MOL0     H 6075   9.888   4.127   6.828  3.8279 -0.1624  0.6259
  786MOL0     H 6076  10.094   4.169   6.759 -1.0688 -0.7283  0.6239
  786MOL0     H 6077   9.999   4.141   6.619  0.3684  1.7614 -0.9983
  786MOL0     H 6078  10.079   4.435   6.710  2.0657  1.1171 -0.5338
  786MOL0     H 6079  10.183   4.333   6.618 -0.2309 -1.6739 -1.5441
  786MOL0     H 6080   9.896   4.433   6.572 -0.9977 -1.5882  0.0204
  786MOL0     H 6081   9.970   4.318   6.456 -2.1021  0.8778 -0.6644
  786MOL0     H 6082   9.965   4.513   6.368 -2.5768  2.2520  1.8214
  786MOL0     H 6083  10.140   4.481   6.389 -0.1308  2.9178 -2.4056
  786MOL0     H 6084   9.949   4.665   6.550 -0.7179  4.3044 -3.3927
  786MOL0     H 6085  10.118   4.643   6.606 -0.1900 -0.9888 -0.1269
  786MOL0     H 6086  10.030   4.846   6.454 -2.1561 -1.9157 -1.0965
  786MOL0     H 6087  10.066   4.733   6.321  1.5844  0.4473 -0.2809
  786MOL0     H 6088  10.278   4.771   6.534  0.5333  0.5488 -0.3822
  786MOL0     H 6089  10.279   4.680   6.392 -1.7584 -1.3311  0.6220
  786MOL0     H 6090   9.591   4.194   6.569  0.7874 -0.1491 -0.2914
  786MOL0     H 6091   9.343   4.209   6.632  0.5824  0.5198 -0.0625
  786MOL0     H 6092   9.028   3.968   6.981 -0.8157 -0.3369  0.8630
  786MOL0     H 6093   8.780   3.979   6.998  0.7352  0.1251 -0.0092
  786MOL0     H 6094   6.937   4.797   7.245 -0.3010 -1.0491  0.8446
  786MOL0     H 6095   6.717   4.806   7.367  0.3513  0.0789 -0.0843
  786MOL0     H 6096   6.540   4.415   7.767 -0.6513 -0.2201 -0.8211
  786MOL0     H 6097   6.333   4.381   7.863  5.2618 -1.5236 -2.0732
  786MOL0     H 6098   6.119   4.420   8.041 -1.2540 -1.4461  0.2523
  786MOL0     H 6099   6.109   4.363   7.875  2.8904  0.7289 -0.5678
  786MOL0     H 6100   5.904   4.499   8.036 -1.0929 -0.0876 -1.0245
  786MOL0     H 6101   5.911   4.325   7.964  2.4014 -0.8838 -0.0912
  786MOL0     H 6102   5.906   4.428   7.742 -1.9543  1.2238 -1.2630
  786MOL0     H 6103   5.873   4.587   7.801  0.6894 -0.0443 -0.7459
  786MOL0     H 6104   5.658   4.448   7.724 -0.0836 -6.1968 -0.4639
  786MOL0     H 6105   5.695   4.335   7.848  1.7315  0.5153  0.9331
  786MOL0     H 6106   5.485   4.630   8.062 -0.4361  1.2514 -0.8442
  786MOL0     H 6107   6.203   4.779   7.780 -3.7499 -2.7823 -1.0793
  786MOL0     H 6108   6.482   4.927   7.722 -3.9391 -1.0504  3.3600
  786MOL0     H 6109   6.478   4.865   7.560  1.9657 -0.9241  0.5127
  786MOL0     H 6110   6.329   4.915   7.644  0.1214  0.5592 -2.8122
  787MOL0     O 6111   6.553   0.783   2.422 -0.0595  0.1257  0.0840
  787MOL0     C 6112   6.564   0.663   2.457  0.6678 -0.2672 -0.2963
  787MOL0     O 6113   6.680   0.608   2.502 -0.6145  0.5017  0.3936
  787MOL0     C 6114   6.797   0.679   2.499  0.4301 -1.1862  0.1804
  787MOL0     C 6115   6.818   0.813   2.552  0.7373 -0.1999  0.3193
  787MOL0     C 6116   6.953   0.859   2.549  0.2104 -0.0913  0.4255
  787MOL0     C 6117   7.062   0.796   2.491  0.1751 -0.5944  0.4804
  787MOL0     O 6118   7.184   0.860   2.482 -0.4662  0.4065 -0.1816
  787MOL0     C 6119   7.293   0.814   2.395 -0.0720 -0.5937 -0.3417
  787MOL0     C 6120   7.422   0.773   2.466  0.6098 -0.4187  0.4300
  787MOL0     C 6121   7.556   0.803   2.389  0.2049  0.1947 -0.6283
  787MOL0     C 6122   7.560   0.734   2.251 -0.4691 -1.0674  0.0697
  787MOL0     C 6123   7.700   0.723   2.184  0.1968  0.3133 -0.6467
  787MOL0     C 6124   7.810   0.664   2.271  0.6203  0.5254  0.5339
  787MOL0     C 6125   7.921   0.596   2.198 -0.0942  0.0443  0.3947
  787MOL0     C 6126   8.024   0.705   2.150  0.1817 -0.4057 -0.6454
  787MOL0     N 6127   8.144   0.637   2.109  0.2789  0.3682 -0.3875
  787MOL0     C 6128   8.230   0.690   2.019 -0.1443  0.0303 -0.0685
  787MOL0     C 6129   8.351   0.638   2.046 -0.4421  0.4474  0.3707
  787MOL0     C 6130   8.480   0.652   1.970  0.0559 -0.8547  0.0911
  787MOL0     C 6131   8.498   0.571   1.837  0.1773  0.1763 -0.6172
  787MOL0     C 6132   8.638   0.595   1.781  0.1653 -0.4160  0.2038
  787MOL0     C 6133   8.749   0.505   1.810 -0.4014 -0.2284 -0.2265
  787MOL0     O 6134   8.861   0.578   1.773  0.7859  0.3280 -0.3585
  787MOL0     C 6135   8.984   0.526   1.761  0.6416 -0.0909  0.3636
  787MOL0     C 6136   9.093   0.602   1.728  0.5141 -0.0512  0.4003
  787MOL0     C 6137   9.226   0.550   1.722 -0.0784 -0.3163  0.3658
  787MOL0     C 6138   9.250   0.414   1.757  0.4178  0.9611  0.0208
  787MOL0     C 6139   9.387   0.363   1.732  0.9056 -0.6298 -0.4735
  787MOL0     O 6140   9.420   0.250   1.800  0.2888 -0.3594 -0.0596
  787MOL0     C 6141   9.550   0.192   1.797  0.0828 -0.6308  0.0408
  787MOL0     C 6142   9.664   0.235   1.735 -0.0328 -0.6808 -0.5679
  787MOL0     C 6143   9.791   0.175   1.748  0.3922  0.1956  0.5527
  787MOL0     C 6144   9.802   0.054   1.812  0.5889  0.4361 -0.1964
  787MOL0     O 6145   9.916  -0.020   1.831  0.6247 -0.0125 -0.3213
  787MOL0     C 6146  10.041   0.048   1.808  0.0600 -0.2866  0.1952
  787MOL0     C 6147  10.159  -0.041   1.824 -0.3632 -0.6404 -0.3523
  787MOL0     C 6148  10.159  -0.174   1.739  0.3581 -0.0901  1.2316
  787MOL0     C 6149  10.264  -0.271   1.783 -0.0090  0.2246  0.6325
  787MOL0     C 6150  10.275  -0.382   1.676 -0.3484  0.7473 -0.0562
  787MOL0     C 6151  10.422  -0.424   1.650 -0.6739  0.0918 -0.0955
  787MOL0     C 6152  10.492  -0.458   1.784 -0.0031 -0.2564  0.2714
  787MOL0     C 6153  10.627  -0.527   1.764  0.3938 -0.4653 -0.0019
  787MOL0    Cl 6154  10.741  -0.437   1.653 -0.0763  0.0021 -0.0526
  787MOL0     C 6155   9.687   0.001   1.862 -0.2068 -0.7741 -0.1001
  787MOL0     C 6156   9.567   0.072   1.869 -0.4453  0.3037  0.0837
  787MOL0     O 6157   9.450   0.427   1.651  0.5602 -0.3395 -0.1829
  787MOL0     C 6158   9.139   0.334   1.789 -0.4717  0.1597  0.0649
  787MOL0     C 6159   9.013   0.391   1.787  0.5759 -0.5589  0.1075
  787MOL0     N 6160   8.338   0.553   2.157 -0.2309 -0.6069  0.2775
  787MOL0     N 6161   8.216   0.558   2.191  0.0687 -0.1918  1.1188
  787MOL0     C 6162   7.042   0.664   2.448  0.2295 -0.0801 -0.0816
  787MOL0     C 6163   6.910   0.614   2.455 -0.7080  0.0830  0.1933
  787MOL0     C 6164   6.435   0.583   2.466 -0.4528  0.2375 -0.4317
  787MOL0     C 6165   6.437   0.453   2.527 -0.4802 -0.2345  0.6233
  787MOL0     C 6166   6.336   0.376   2.550 -0.0369 -0.1533  0.1074
  787MOL0     C 6167   6.213   0.427   2.526  0.3813 -1.0964  0.1326
  787MOL0     O 6168   6.095   0.361   2.551  0.6332 -0.3999 -0.7272
  787MOL0     C 6169   6.101   0.280   2.672 -0.7106 -0.0449  0.3869
  787MOL0     C 6170   5.976   0.310   2.757  0.4885  0.0305  0.0829
  787MOL0     C 6171   5.909   0.178   2.806 -0.0807 -0.5144 -0.0596
  787MOL0     C 6172   5.951   0.141   2.943 -0.7502  0.6216 -0.5322
  787MOL0     C 6173   6.102   0.132   2.967 -0.4698 -0.2915  0.4485
  787MOL0     C 6174   6.219   0.123   2.991 -1.0955 -0.1660  0.9719
  787MOL0     C 6175   6.199   0.552   2.461  0.1076  0.7269  0.9064
  787MOL0     C 6176   6.308   0.629   2.432  0.1981  0.3169 -0.2016
  787MOL0     C 6177   6.279   0.757   2.354  0.5650 -0.4849 -0.0569
  787MOL0     H 6178   6.733   0.868   2.592 -0.2175  0.7036 -2.6520
  787MOL0     H 6179   6.964   0.960   2.586 -0.9571  0.5258 -0.8500
  787MOL0     H 6180   7.259   0.734   2.328  0.5870  0.6759 -2.2946
  787MOL0     H 6181   7.328   0.899   2.336  2.1890 -1.5468 -0.4436
  787MOL0     H 6182   7.429   0.666   2.486  0.3835 -0.9793 -2.1751
  787MOL0     H 6183   7.422   0.839   2.553 -2.5599  4.2672 -2.6688
  787MOL0     H 6184   7.635   0.756   2.449 -1.2803 -0.5875  0.8234
  787MOL0     H 6185   7.566   0.911   2.378  0.5965  0.2383  0.0978
  787MOL0     H 6186   7.507   0.639   2.254  2.4829 -2.8299 -0.3611
  787MOL0     H 6187   7.501   0.800   2.186 -0.1236 -0.8549 -0.0293
  787MOL0     H 6188   7.686   0.659   2.096 -1.6561  0.9491 -0.8505
  787MOL0     H 6189   7.741   0.818   2.150  3.4233 -0.8388 -0.4055
  787MOL0     H 6190   7.847   0.747   2.331 -1.0524  0.0567  2.3234
  787MOL0     H 6191   7.769   0.591   2.341 -1.4979  0.6104 -0.5125
  787MOL0     H 6192   7.883   0.545   2.108 -0.1976  3.1638 -1.4540
  787MOL0     H 6193   7.977   0.529   2.265  1.1291  2.3547  1.7925
  787MOL0     H 6194   7.992   0.754   2.058  3.3185  1.6442 -0.7921
  787MOL0     H 6195   8.047   0.784   2.223  0.0862 -0.6117 -0.3909
  787MOL0     H 6196   8.200   0.747   1.932 -1.0395  1.5262  1.1676
  787MOL0     H 6197   8.487   0.758   1.946 -0.7229 -0.9586 -0.6745
  787MOL0     H 6198   8.565   0.631   2.035  1.6758  2.9070 -0.5693
  787MOL0     H 6199   8.479   0.463   1.840 -0.9429  0.2187 -3.2986
  787MOL0     H 6200   8.424   0.624   1.777 -0.1816  2.3637  1.6099
  787MOL0     H 6201   8.659   0.697   1.815  1.1351  0.0941 -1.8153
  787MOL0     H 6202   8.619   0.610   1.674 -0.7388  1.0118  0.5274
  787MOL0     H 6203   8.730   0.418   1.746  0.0291 -0.3382 -0.2094
  787MOL0     H 6204   8.763   0.476   1.915  0.5781  1.4809  0.1608
  787MOL0     H 6205   9.079   0.706   1.700  0.4779 -0.5000 -1.3792
  787MOL0     H 6206   9.301   0.618   1.685 -1.3325  0.4858 -0.7631
  787MOL0     H 6207   9.661   0.328   1.677  1.0872  0.5051  1.2024
  787MOL0     H 6208   9.871   0.231   1.702  1.5447 -1.3097  0.6300
  787MOL0     H 6209  10.041   0.103   1.714  0.2392  2.9401  1.9461
  787MOL0     H 6210  10.057   0.130   1.879  1.0901  0.4868 -0.8793
  787MOL0     H 6211  10.252   0.007   1.794 -1.3621  1.1203 -0.7168
  787MOL0     H 6212  10.162  -0.060   1.932  0.8706 -2.5626 -0.6734
  787MOL0     H 6213  10.063  -0.227   1.742  0.3414 -0.0451  1.4617
  787MOL0     H 6214  10.177  -0.141   1.636 -0.1893 -0.0760  1.1364
  787MOL0     H 6215  10.243  -0.313   1.882  3.4867 -1.7527  0.7161
  787MOL0     H 6216  10.362  -0.223   1.777 -0.0266  0.1910  0.0409
  787MOL0     H 6217  10.233  -0.354   1.579 -1.5167 -1.5657 -0.2749
  787MOL0     H 6218  10.221  -0.470   1.713  0.2209 -0.6695 -2.4153
  787MOL0     H 6219  10.422  -0.510   1.582 -2.9193  0.2610 -0.3919
  787MOL0     H 6220  10.488  -0.346   1.611 -0.3554  1.2025  2.4439
  787MOL0     H 6221  10.427  -0.527   1.838 -0.7877  0.4719  0.2761
  787MOL0     H 6222  10.507  -0.364   1.838  0.5684 -0.2847  0.1761
  787MOL0     H 6223  10.666  -0.526   1.866 -3.5189  0.6501  1.6817
  787MOL0     H 6224  10.614  -0.630   1.729  0.5469 -1.2117  1.9764
  787MOL0     H 6225   9.697  -0.094   1.914 -1.3994 -0.5261  0.6403
  787MOL0     H 6226   9.483   0.037   1.928 -1.8772  0.9832 -1.4380
  787MOL0     H 6227   9.158   0.229   1.808 -0.0801  0.1710 -0.2602
  787MOL0     H 6228   8.935   0.328   1.830 -1.9970  1.2693 -1.6055
  787MOL0     H 6229   7.119   0.599   2.407  0.5760  0.5660 -0.4711
  787MOL0     H 6230   6.884   0.513   2.424  2.4769 -0.7067 -0.2232
  787MOL0     H 6231   6.535   0.421   2.560  0.8088  4.2435  1.8853
  787MOL0     H 6232   6.357   0.280   2.596  0.8587  0.0872  0.2164
  787MOL0     H 6233   6.187   0.297   2.737  0.3269  2.5086 -1.5215
  787MOL0     H 6234   6.124   0.178   2.640  1.4214  1.0602 -1.9511
  787MOL0     H 6235   5.903   0.367   2.698  0.4852  1.2225  1.2087
  787MOL0     H 6236   5.999   0.378   2.839 -0.1576  0.2652  0.0776
  787MOL0     H 6237   5.928   0.096   2.736  1.2839  0.2225 -0.5957
  787MOL0     H 6238   5.800   0.186   2.811  0.0269  0.6446  1.0176
  787MOL0     H 6239   5.919   0.212   3.020 -2.2800 -1.4293  0.8100
  787MOL0     H 6240   5.902   0.050   2.978  0.1353 -0.7441 -2.6876
  787MOL0     H 6241   6.326   0.117   3.001 -0.9778  2.1130  1.6805
  787MOL0     H 6242   6.100   0.580   2.425 -0.9235 -2.7174  0.6879
  787MOL0     H 6243   6.173   0.756   2.331 -0.4045 -3.2669  3.5183
  787MOL0     H 6244   6.298   0.841   2.421  1.7042 -0.5407 -0.2914
  787MOL0     H 6245   6.351   0.764   2.272  1.7231  1.6035  1.0395
  788MOL0     O 6246   3.889   7.752   5.712 -0.1506  1.0619  0.4119
  788MOL0     C 6247   3.841   7.783   5.819 -0.0826  0.0800  0.1747
  788MOL0     O 6248   3.920   7.805   5.932 -0.1315  0.3324 -0.0252
  788MOL0     C 6249   4.061   7.782   5.931  0.7954  0.1091 -0.3394
  788MOL0     C 6250   4.162   7.817   5.838 -0.4059  0.3179 -0.3340
  788MOL0     C 6251   4.299   7.779   5.859 -1.0960  0.0425  0.6024
  788MOL0     C 6252   4.338   7.702   5.977 -0.0081 -0.1862  0.5066
  788MOL0     O 6253   4.464   7.645   6.005  0.9005 -0.4290  0.1545
  788MOL0     C 6254   4.578   7.714   5.948  1.0214  0.3877 -0.3500
  788MOL0     C 6255   4.686   7.699   6.057  0.4603  0.4048  0.3554
  788MOL0     C 6256   4.737   7.554   6.070 -0.2980  0.2080 -0.0927
  788MOL0     C 6257   4.847   7.540   6.175 -0.6301  0.3148 -0.4867
  788MOL0     C 6258   4.849   7.406   6.239  0.1475 -0.0346 -0.1304
  788MOL0     C 6259   4.963   7.377   6.330  0.0159  0.4286  0.2328
  788MOL0     C 6260   5.002   7.219   6.357  0.4230 -1.2490 -0.2330
  788MOL0     C 6261   4.882   7.131   6.379  0.3683  0.3544  0.4198
  788MOL0     N 6262   4.913   6.993   6.434  0.9477  0.4929  0.7578
  788MOL0     C 6263   4.978   6.900   6.358 -0.4022  0.6148 -0.3819
  788MOL0     C 6264   4.972   6.788   6.434 -0.9068  0.4612 -0.8507
  788MOL0     C 6265   5.034   6.663   6.395  1.0472  0.2132  0.0174
  788MOL0     C 6266   5.187   6.663   6.401 -0.4981  0.5238  0.2478
  788MOL0     C 6267   5.239   6.523   6.374 -0.5159 -0.9100  0.2683
  788MOL0     C 6268   5.384   6.505   6.416 -0.2284  0.2869  0.2189
  788MOL0     O 6269   5.427   6.389   6.356 -0.1354 -0.6092 -0.2331
  788MOL0     C 6270   5.552   6.337   6.379  0.0178 -0.8044 -0.2011
  788MOL0     C 6271   5.600   6.235   6.290 -0.4965  0.4106 -0.1853
  788MOL0     C 6272   5.739   6.195   6.295  0.4411  1.3956  0.3707
  788MOL0     C 6273   5.826   6.236   6.399  0.0837 -0.1278  0.0798
  788MOL0     C 6274   5.952   6.152   6.427  0.1501 -0.4575  0.5242
  788MOL0     O 6275   6.016   6.090   6.322 -0.0471  0.0493  0.6252
  788MOL0     C 6276   6.141   6.031   6.343  0.0793  0.2550 -0.1398
  788MOL0     C 6277   6.165   5.907   6.286  0.2003 -0.3120 -0.2607
  788MOL0     C 6278   6.294   5.849   6.288 -0.7366 -0.0711 -0.1532
  788MOL0     C 6279   6.398   5.917   6.354 -0.2029  0.0107 -0.6023
  788MOL0     O 6280   6.526   5.865   6.360 -0.3356 -0.6869  0.7875
  788MOL0     C 6281   6.594   5.796   6.252  0.1698 -0.8408 -0.0215
  788MOL0     C 6282   6.730   5.758   6.301 -0.2282  0.4079  0.3973
  788MOL0     C 6283   6.832   5.870   6.323 -0.8207 -0.9581 -0.5873
  788MOL0     C 6284   6.976   5.811   6.353 -0.2371  0.5607 -0.3794
  788MOL0     C 6285   7.088   5.914   6.385 -0.6741  1.2432  0.1072
  788MOL0     C 6286   7.216   5.834   6.418  0.2700  0.0419  0.6267
  788MOL0     C 6287   7.326   5.932   6.474 -0.0520 -0.2721  0.2942
  788MOL0     C 6288   7.415   5.880   6.585  0.0525 -0.4290 -0.5631
  788MOL0    Cl 6289   7.515   5.750   6.515  0.2519 -0.1317 -0.6107
  788MOL0     C 6290   6.370   6.040   6.412  0.2190 -1.0922 -0.0500
  788MOL0     C 6291   6.241   6.098   6.407  0.2447  0.2967 -0.7078
  788MOL0     O 6292   5.994   6.154   6.544  0.6058 -0.3779 -0.6753
  788MOL0     C 6293   5.783   6.338   6.486 -0.0006 -0.2295 -0.4972
  788MOL0     C 6294   5.647   6.390   6.475  0.0133  0.3628 -0.2499
  788MOL0     N 6295   4.903   6.821   6.556  0.1825 -0.1277 -0.0317
  788MOL0     N 6296   4.861   6.944   6.549  0.3246 -0.2834  0.1269
  788MOL0     C 6297   4.234   7.677   6.070 -0.3790 -0.8405 -0.0673
  788MOL0     C 6298   4.105   7.723   6.052 -0.6894 -0.0835 -0.0639
  788MOL0     C 6299   3.696   7.790   5.831  0.7118  0.4009  0.2692
  788MOL0     C 6300   3.633   7.754   5.957  0.6455  0.8131  0.8252
  788MOL0     C 6301   3.490   7.754   5.954  0.0506 -0.4022  0.1164
  788MOL0     C 6302   3.413   7.801   5.838  0.2312  0.8717  0.6901
  788MOL0     O 6303   3.267   7.813   5.841  0.4539 -0.0784 -0.0614
  788MOL0     C 6304   3.200   7.931   5.886 -0.1491  0.0367 -0.6143
  788MOL0     C 6305   3.178   7.923   6.036 -0.5709  0.5391  0.4976
  788MOL0     C 6306   3.074   8.015   6.100 -1.0883  0.4934  0.2626
  788MOL0     C 6307   3.058   7.987   6.248  0.3810 -0.4803  0.2540
  788MOL0     C 6308   2.923   8.029   6.300 -0.3901  0.0198 -1.0407
  788MOL0     C 6309   2.811   8.052   6.339  0.1705 -0.2507 -0.7413
  788MOL0     C 6310   3.480   7.849   5.726  0.4900 -0.0101 -0.5732
  788MOL0     C 6311   3.617   7.839   5.721  0.4072 -0.0879 -0.1324
  788MOL0     C 6312   3.683   7.894   5.599 -0.2699  0.3364 -0.1509
  788MOL0     H 6313   4.144   7.884   5.754  1.7543  2.3780  0.7054
  788MOL0     H 6314   4.382   7.813   5.796  0.2703 -0.2748  2.1624
  788MOL0     H 6315   4.604   7.684   5.847  3.4718  4.1282 -1.0530
  788MOL0     H 6316   4.572   7.823   5.946 -2.1736  0.3177 -0.5739
  788MOL0     H 6317   4.661   7.748   6.151  1.6769  1.7849 -0.0111
  788MOL0     H 6318   4.779   7.748   6.028  1.2471 -0.7734  0.7658
  788MOL0     H 6319   4.775   7.512   5.976  1.3341 -1.9665  1.4473
  788MOL0     H 6320   4.655   7.486   6.093  0.4483 -1.1658 -1.2913
  788MOL0     H 6321   4.946   7.569   6.140  0.8181 -0.4026  2.6150
  788MOL0     H 6322   4.811   7.603   6.257 -1.5408  0.7331 -1.1913
  788MOL0     H 6323   4.751   7.387   6.285  0.6237 -2.1155  0.0944
  788MOL0     H 6324   4.867   7.340   6.154  0.8303 -0.1131  0.0732
  788MOL0     H 6325   5.055   7.413   6.282  0.1042 -0.8210 -0.5850
  788MOL0     H 6326   4.931   7.428   6.421  0.1831  1.3363 -0.2065
  788MOL0     H 6327   5.067   7.211   6.445  0.3871  1.4771  0.1295
  788MOL0     H 6328   5.057   7.178   6.272  1.3224 -0.0636 -0.2616
  788MOL0     H 6329   4.809   7.175   6.447  1.0837 -0.6101  1.8501
  788MOL0     H 6330   4.840   7.117   6.279  1.0052  0.9154  0.0670
  788MOL0     H 6331   5.013   6.924   6.259 -1.7816  1.7177 -0.6279
  788MOL0     H 6332   4.980   6.577   6.436  1.3592  0.4136  0.8695
  788MOL0     H 6333   5.006   6.653   6.290  0.0106 -1.3345  0.4098
  788MOL0     H 6334   5.223   6.732   6.324  0.9377 -0.7776 -0.2897
  788MOL0     H 6335   5.215   6.687   6.504  0.7187 -3.9869  1.1947
  788MOL0     H 6336   5.226   6.515   6.266 -0.5967  2.2123 -0.0659
  788MOL0     H 6337   5.168   6.449   6.413 -4.2152 -0.5539 -4.7436
  788MOL0     H 6338   5.382   6.484   6.523 -2.0012 -2.2737 -0.2126
  788MOL0     H 6339   5.442   6.592   6.382  1.0969 -0.3429  0.8046
  788MOL0     H 6340   5.545   6.201   6.204  1.6253 -2.4485 -0.5651
  788MOL0     H 6341   5.763   6.118   6.223  1.4187  0.5428  1.5902
  788MOL0     H 6342   6.092   5.839   6.243  0.8417 -0.7873 -0.6283
  788MOL0     H 6343   6.307   5.752   6.241 -2.5119 -1.3415  1.7728
  788MOL0     H 6344   6.545   5.705   6.216  0.2808 -1.6038  1.6434
  788MOL0     H 6345   6.608   5.865   6.168  0.1886 -0.3397  0.3903
  788MOL0     H 6346   6.724   5.707   6.397  0.1681  2.5451  1.6244
  788MOL0     H 6347   6.768   5.698   6.218  1.8938  1.6460  0.4025
  788MOL0     H 6348   6.852   5.939   6.242  3.2884 -1.3957 -0.1692
  788MOL0     H 6349   6.799   5.929   6.409  0.8210  2.0920 -1.9007
  788MOL0     H 6350   7.016   5.759   6.265  2.0376  2.7047 -0.7181
  788MOL0     H 6351   6.959   5.743   6.437 -0.7041  0.2322 -0.7302
  788MOL0     H 6352   7.062   5.978   6.470 -2.1128  0.0219  0.6100
  788MOL0     H 6353   7.101   5.976   6.295 -2.0243  1.5828  0.1202
  788MOL0     H 6354   7.201   5.759   6.497  1.3488  0.2396  1.0391
  788MOL0     H 6355   7.258   5.784   6.331 -2.5939 -3.1254  0.8379
  788MOL0     H 6356   7.287   6.027   6.511  0.6630 -0.3184  1.1927
  788MOL0     H 6357   7.394   5.967   6.396  0.8912  0.3060  1.3522
  788MOL0     H 6358   7.477   5.964   6.619 -1.4071  1.7417 -2.9336
  788MOL0     H 6359   7.363   5.855   6.678 -2.2055  1.0106 -1.3625
  788MOL0     H 6360   6.448   6.087   6.471  0.3836  0.3537 -1.3742
  788MOL0     H 6361   6.214   6.180   6.472  0.2300 -0.4976  0.3228
  788MOL0     H 6362   5.831   6.383   6.573 -1.5210 -2.4835  1.6655
  788MOL0     H 6363   5.611   6.478   6.528 -1.2840 -0.9910  1.2391
  788MOL0     H 6364   4.259   7.615   6.155  2.7316 -0.8257 -0.8379
  788MOL0     H 6365   4.025   7.714   6.125 -1.5512 -0.3251 -1.0240
  788MOL0     H 6366   3.683   7.711   6.042 -1.4842  0.0681  1.7660
  788MOL0     H 6367   3.441   7.713   6.042 -1.3604 -0.1027 -0.5059
  788MOL0     H 6368   3.106   7.938   5.831  0.6130 -1.8833 -2.2797
  788MOL0     H 6369   3.263   8.019   5.865 -0.0851 -0.0258 -0.6866
  788MOL0     H 6370   3.269   7.934   6.095  1.6347 -3.3624 -1.7659
  788MOL0     H 6371   3.149   7.818   6.041  0.8281 -0.0506 -2.0974
  788MOL0     H 6372   2.983   7.992   6.045  0.7945  0.0367 -2.8975
  788MOL0     H 6373   3.093   8.122   6.090 -1.6198  0.7627  1.8192
  788MOL0     H 6374   3.060   7.878   6.264 -3.3989 -0.5628  0.9791
  788MOL0     H 6375   3.136   8.041   6.303  0.0083  0.8037 -0.4547
  788MOL0     H 6376   2.710   8.073   6.367  1.9755  2.5517  5.4649
  788MOL0     H 6377   3.427   7.894   5.643  0.4608 -0.7835 -0.9859
  788MOL0     H 6378   3.722   7.801   5.558  1.2681  0.9626 -0.1925
  788MOL0     H 6379   3.615   7.948   5.531 -0.6128 -0.6757 -0.6340
  788MOL0     H 6380   3.765   7.960   5.627 -0.0417 -0.4361  1.0631
  789MOL0     O 6381   4.005   2.631   8.680  0.6129  0.0863  0.1143
  789MOL0     C 6382   3.982   2.707   8.587  0.6360 -0.2196 -0.0053
  789MOL0     O 6383   4.076   2.747   8.497  0.1638 -0.1049  0.6345
  789MOL0     C 6384   4.209   2.703   8.496  0.2319 -0.9281 -0.1275
  789MOL0     C 6385   4.283   2.617   8.585  0.2625  0.0689  0.5447
  789MOL0     C 6386   4.422   2.604   8.564  0.2335  1.2445  0.5739
  789MOL0     C 6387   4.493   2.663   8.455 -0.0377  0.0501  0.4612
  789MOL0     O 6388   4.624   2.653   8.423  0.6224 -0.6311  0.4514
  789MOL0     C 6389   4.703   2.571   8.503  1.2606  0.6553  0.6082
  789MOL0     C 6390   4.852   2.584   8.485  0.2378  0.6423 -0.1968
  789MOL0     C 6391   4.917   2.528   8.609 -0.0146 -0.0039 -0.2311
  789MOL0     C 6392   5.069   2.549   8.602 -0.8344  0.0490  0.2584
  789MOL0     C 6393   5.139   2.441   8.689 -0.3825 -0.0584 -0.1628
  789MOL0     C 6394   5.291   2.472   8.713 -0.3551  0.3563  0.1321
  789MOL0     C 6395   5.356   2.368   8.797  0.0771  0.0852 -0.0565
  789MOL0     C 6396   5.501   2.408   8.816  0.0220  0.6542  0.2527
  789MOL0     N 6397   5.584   2.327   8.911  0.6410  0.8137  0.1875
  789MOL0     C 6398   5.681   2.235   8.867  0.4053  0.9058  0.3077
  789MOL0     C 6399   5.747   2.201   8.978  0.2510  0.2370 -1.2638
  789MOL0     C 6400   5.846   2.089   8.998 -0.3612 -0.0195  0.6113
  789MOL0     C 6401   5.942   2.081   8.881 -0.3304 -0.3562  1.1929
  789MOL0     C 6402   6.048   2.198   8.879  0.5503 -0.8078 -0.9452
  789MOL0     C 6403   6.137   2.205   8.750  0.1941  0.0402  0.5408
  789MOL0     O 6404   6.244   2.123   8.778  0.0152 -0.0474  0.3522
  789MOL0     C 6405   6.336   2.114   8.674  0.6527 -0.5031  0.3184
  789MOL0     C 6406   6.361   2.213   8.569  0.2301  0.0242  0.4989
  789MOL0     C 6407   6.472   2.182   8.485 -0.3167 -0.1996  0.5213
  789MOL0     C 6408   6.560   2.076   8.499  0.0367  0.1596 -1.1947
  789MOL0     C 6409   6.685   2.065   8.421  0.4564 -0.4047 -0.6928
  789MOL0     O 6410   6.769   1.962   8.461  0.4023  0.3000  0.8942
  789MOL0     C 6411   6.896   1.956   8.405  0.2221 -0.0125 -0.1677
  789MOL0     C 6412   6.987   2.063   8.380 -0.8144  0.0696  1.1481
  789MOL0     C 6413   7.112   2.044   8.325  0.4037 -0.4255  0.5401
  789MOL0     C 6414   7.155   1.918   8.291 -0.0921  0.3231 -0.0461
  789MOL0     O 6415   7.288   1.916   8.250  0.0791  0.1555  0.2120
  789MOL0     C 6416   7.363   1.793   8.256 -0.2077 -0.2194  0.1536
  789MOL0     C 6417   7.483   1.822   8.170  0.7943 -0.5230  0.5118
  789MOL0     C 6418   7.599   1.880   8.249  0.0176  0.4887 -0.4216
  789MOL0     C 6419   7.724   1.914   8.151  1.7246  0.1816 -0.6371
  789MOL0     C 6420   7.835   1.981   8.240 -0.3957  0.5673  0.5455
  789MOL0     C 6421   7.951   2.018   8.153  0.2276  0.0661 -0.1367
  789MOL0     C 6422   8.073   2.063   8.240 -0.6668  0.1731  0.9476
  789MOL0     C 6423   8.051   2.202   8.312  0.1942  0.1746 -0.0653
  789MOL0    Cl 6424   7.946   2.197   8.469  0.0171 -0.1300 -0.1514
  789MOL0     C 6425   7.074   1.807   8.333 -0.0623 -0.0292  0.3892
  789MOL0     C 6426   6.942   1.821   8.379 -0.4296 -0.5041 -0.1789
  789MOL0     O 6427   6.702   2.154   8.338 -0.0189 -0.1538 -0.5037
  789MOL0     C 6428   6.533   1.980   8.600 -0.1418 -0.7372 -0.8024
  789MOL0     C 6429   6.421   2.004   8.684 -0.1791  0.2077  0.1636
  789MOL0     N 6430   5.697   2.273   9.088  0.0322  0.1088  0.0298
  789MOL0     N 6431   5.595   2.351   9.047 -0.5983  0.0473 -0.6099
  789MOL0     C 6432   4.420   2.740   8.367  0.1334 -0.0513  0.4558
  789MOL0     C 6433   4.286   2.763   8.384 -0.7959  0.7354  0.5223
  789MOL0     C 6434   3.845   2.778   8.563 -0.8075 -0.1134  0.0494
  789MOL0     C 6435   3.831   2.870   8.455 -0.4690  0.4283 -0.7631
  789MOL0     C 6436   3.717   2.946   8.446  0.1939 -0.3628 -0.3071
  789MOL0     C 6437   3.619   2.942   8.547 -0.0801 -0.9044  0.6156
  789MOL0     O 6438   3.503   3.011   8.551 -0.3175 -0.0513  0.0053
  789MOL0     C 6439   3.482   3.124   8.462 -0.8041  0.4399  0.5246
  789MOL0     C 6440   3.357   3.202   8.489 -0.6481  0.1571 -0.2671
  789MOL0     C 6441   3.231   3.133   8.444 -0.7402  0.3291  0.1811
  789MOL0     C 6442   3.227   2.984   8.477 -0.7950 -0.8218 -0.4247
  789MOL0     C 6443   3.097   2.932   8.434  0.4098 -0.1569  0.4885
  789MOL0     C 6444   2.990   2.890   8.404 -0.2380  0.5074 -0.1964
  789MOL0     C 6445   3.631   2.852   8.656 -0.5093 -0.3728  0.3468
  789MOL0     C 6446   3.746   2.776   8.665  0.4234 -0.3138 -0.2102
  789MOL0     C 6447   3.761   2.694   8.779  0.3986 -0.1296  0.1087
  789MOL0     H 6448   4.239   2.572   8.673 -1.2139 -1.3256 -0.8269
  789MOL0     H 6449   4.474   2.541   8.636 -2.0667  0.7803  1.9016
  789MOL0     H 6450   4.685   2.609   8.604 -4.1830  1.4636 -0.3666
  789MOL0     H 6451   4.672   2.467   8.488 -0.9347  1.2263  0.8055
  789MOL0     H 6452   4.886   2.688   8.486  3.3644 -0.1851  3.4646
  789MOL0     H 6453   4.883   2.525   8.398 -0.9117  0.9430 -0.8221
  789MOL0     H 6454   4.899   2.420   8.601  3.6160 -0.6240 -1.5339
  789MOL0     H 6455   4.876   2.572   8.700  1.4090  0.6671  0.0988
  789MOL0     H 6456   5.108   2.541   8.500  0.8184  0.8529  0.7918
  789MOL0     H 6457   5.090   2.653   8.628 -0.8822 -0.0063  0.5165
  789MOL0     H 6458   5.083   2.440   8.782 -2.7920  0.2186 -1.5146
  789MOL0     H 6459   5.131   2.343   8.640  0.1070 -0.5821  0.7680
  789MOL0     H 6460   5.346   2.483   8.619 -0.3210  1.8510  0.2955
  789MOL0     H 6461   5.297   2.564   8.773  1.9851 -0.6516  1.6195
  789MOL0     H 6462   5.345   2.269   8.751 -4.2097  1.3034 -2.1207
  789MOL0     H 6463   5.306   2.374   8.894  1.1386  2.0444  0.4236
  789MOL0     H 6464   5.556   2.405   8.722 -1.0793  1.2508 -0.4382
  789MOL0     H 6465   5.496   2.513   8.846  2.1782  0.3760  1.8585
  789MOL0     H 6466   5.695   2.195   8.767  0.7496  0.2792  0.6037
  789MOL0     H 6467   5.900   2.097   9.093 -0.3204  0.5260  0.5436
  789MOL0     H 6468   5.792   1.994   8.992 -0.5500  0.1169  0.0304
  789MOL0     H 6469   5.995   1.986   8.879 -1.3933 -0.9709 -0.9932
  789MOL0     H 6470   5.892   2.089   8.784 -1.9724  2.0567  2.1294
  789MOL0     H 6471   6.115   2.192   8.965 -0.0162  1.7026 -0.2301
  789MOL0     H 6472   6.004   2.297   8.898 -0.8575 -1.6151  0.2493
  789MOL0     H 6473   6.182   2.304   8.741  0.6459  0.1613  3.3580
  789MOL0     H 6474   6.087   2.189   8.654  1.2066 -0.8497  0.1318
  789MOL0     H 6475   6.297   2.300   8.559 -0.1401 -0.2953  0.0463
  789MOL0     H 6476   6.505   2.256   8.413  0.5958 -1.8481 -0.8360
  789MOL0     H 6477   6.946   2.163   8.392  0.1383  0.4953  0.9595
  789MOL0     H 6478   7.176   2.127   8.297 -2.6294  1.8986  0.0042
  789MOL0     H 6479   7.382   1.773   8.362 -1.5210  1.3015  0.7054
  789MOL0     H 6480   7.310   1.708   8.214  0.8179 -0.1538 -1.3811
  789MOL0     H 6481   7.503   1.723   8.128  1.2249 -0.1005 -0.3073
  789MOL0     H 6482   7.446   1.880   8.085  1.7865 -0.9547 -0.2349
  789MOL0     H 6483   7.562   1.971   8.298  1.2844  0.4985  0.5735
  789MOL0     H 6484   7.634   1.806   8.322 -0.4885  0.6352 -0.0246
  789MOL0     H 6485   7.696   1.972   8.064  1.3076  1.8429  0.5539
  789MOL0     H 6486   7.759   1.817   8.115 -1.8027 -1.5218  0.0557
  789MOL0     H 6487   7.862   1.911   8.319 -1.4455 -0.0103  0.4060
  789MOL0     H 6488   7.806   2.080   8.278  0.6905  0.5978  1.3181
  789MOL0     H 6489   7.978   1.924   8.103 -0.1928 -0.4306  0.5541
  789MOL0     H 6490   7.920   2.093   8.079 -1.2691  1.3161  1.6752
  789MOL0     H 6491   8.144   2.082   8.159 -1.9681  1.4142  0.0415
  789MOL0     H 6492   8.107   1.988   8.311  0.0566 -0.0522  0.3790
  789MOL0     H 6493   8.151   2.238   8.336  0.1615  1.8478 -2.1110
  789MOL0     H 6494   8.008   2.269   8.237  0.4726  0.0863 -0.3023
  789MOL0     H 6495   7.100   1.708   8.298 -1.7734  0.2275 -1.8113
  789MOL0     H 6496   6.866   1.743   8.384 -0.6588 -0.4219 -1.8449
  789MOL0     H 6497   6.605   1.902   8.620  1.2111  1.3166  3.4502
  789MOL0     H 6498   6.414   1.934   8.767  2.4736 -0.2676  0.1037
  789MOL0     H 6499   4.476   2.763   8.277  0.9019 -1.3472  0.5747
  789MOL0     H 6500   4.241   2.836   8.317 -0.0039  4.1761  3.4777
  789MOL0     H 6501   3.908   2.870   8.379 -1.2775  0.0951 -1.5974
  789MOL0     H 6502   3.707   3.016   8.363  0.0254  1.3568  1.1071
  789MOL0     H 6503   3.494   3.082   8.362  3.7173 -0.3861  1.1749
  789MOL0     H 6504   3.564   3.197   8.468 -0.7410  0.3024  1.4113
  789MOL0     H 6505   3.347   3.300   8.442 -0.6575 -0.0812 -0.7668
  789MOL0     H 6506   3.349   3.220   8.597 -3.6294 -0.2295 -0.3377
  789MOL0     H 6507   3.223   3.139   8.335 -1.3213 -2.0415  0.0353
  789MOL0     H 6508   3.148   3.194   8.479 -1.0708  1.0013 -1.6721
  789MOL0     H 6509   3.317   2.944   8.429  3.2684  3.0276  3.0507
  789MOL0     H 6510   3.240   2.957   8.582  0.7220 -1.0959 -0.6570
  789MOL0     H 6511   2.901   2.849   8.361 -1.4756  1.5485  1.2453
  789MOL0     H 6512   3.560   2.837   8.736  0.0969 -1.9268  0.6202
  789MOL0     H 6513   3.846   2.703   8.847 -0.8097 -2.5213  2.1227
  789MOL0     H 6514   3.674   2.707   8.844 -1.0590 -0.5149 -1.6777
  789MOL0     H 6515   3.754   2.588   8.751 -0.6385 -0.2032  0.6098
  790MOL0     O 6516   0.493   9.406   2.336  0.5822 -0.6047  0.0121
  790MOL0     C 6517   0.393   9.340   2.355 -0.2429 -0.0731 -0.1109
  790MOL0     O 6518   0.390   9.222   2.414  0.2284 -0.1670  0.8058
  790MOL0     C 6519   0.497   9.145   2.463  0.2886 -0.3465  0.0721
  790MOL0     C 6520   0.480   9.005   2.470  0.9055 -0.2947  0.6288
  790MOL0     C 6521   0.578   8.914   2.502 -0.1896 -0.8305 -0.3581
  790MOL0     C 6522   0.705   8.964   2.525 -0.6865  0.4998 -0.2512
  790MOL0     O 6523   0.817   8.891   2.571 -0.4692  0.1286  0.0150
  790MOL0     C 6524   0.814   8.758   2.523  0.5464  0.6959  0.9945
  790MOL0     C 6525   0.938   8.695   2.585 -0.6681 -0.0580  0.5605
  790MOL0     C 6526   1.059   8.783   2.548  0.5342 -0.1862  0.6432
  790MOL0     C 6527   1.184   8.696   2.588  0.0617  0.1396  0.0484
  790MOL0     C 6528   1.302   8.785   2.635  1.0009 -0.0872 -0.7957
  790MOL0     C 6529   1.425   8.704   2.677  0.0230  0.4680 -0.4779
  790MOL0     C 6530   1.548   8.786   2.693  0.0328 -0.7716  0.1855
  790MOL0     C 6531   1.655   8.701   2.758  0.0853  0.1555  0.8793
  790MOL0     N 6532   1.769   8.784   2.792 -0.3300  0.6107 -0.5411
  790MOL0     C 6533   1.841   8.857   2.705  0.2341  0.1997 -0.1654
  790MOL0     C 6534   1.938   8.917   2.786 -0.6010  0.8545  0.2630
  790MOL0     C 6535   2.049   9.001   2.742 -0.0888 -0.0181 -0.1721
  790MOL0     C 6536   2.185   8.923   2.752 -0.8282  0.4905  0.1337
  790MOL0     C 6537   2.292   9.012   2.688  0.0168  0.0224  0.2423
  790MOL0     C 6538   2.436   8.963   2.706  0.2207 -0.1707 -0.4474
  790MOL0     O 6539   2.498   9.002   2.827  0.4859 -0.1978  0.0581
  790MOL0     C 6540   2.632   9.044   2.833  0.1581 -0.2355 -0.9150
  790MOL0     C 6541   2.697   9.039   2.962  0.5907 -0.0935  0.2539
  790MOL0     C 6542   2.831   9.083   2.978 -1.2612  0.2561  0.5488
  790MOL0     C 6543   2.904   9.133   2.873  0.8254 -0.3066  0.6913
  790MOL0     C 6544   3.050   9.179   2.895  0.6611 -0.1792 -0.4255
  790MOL0     O 6545   3.120   9.128   3.002  0.0943 -0.1570 -0.6654
  790MOL0     C 6546   3.253   9.152   3.022 -0.6871  0.1020 -0.2241
  790MOL0     C 6547   3.347   9.122   2.921 -1.1702  0.1578 -0.4074
  790MOL0     C 6548   3.485   9.151   2.945 -0.7782 -0.0703 -1.1408
  790MOL0     C 6549   3.527   9.218   3.069 -0.2190 -0.5654  0.6186
  790MOL0     O 6550   3.661   9.260   3.096  0.1775 -0.2096  0.3903
  790MOL0     C 6551   3.754   9.148   3.103  0.1375 -0.1773  0.1958
  790MOL0     C 6552   3.894   9.188   3.053  1.0202  0.0855 -0.2912
  790MOL0     C 6553   3.966   9.258   3.168 -0.5037 -0.1838  0.0031
  790MOL0     C 6554   4.102   9.319   3.119 -0.1335  0.0546  0.5793
  790MOL0     C 6555   4.191   9.400   3.219  0.3862  0.0576  0.2330
  790MOL0     C 6556   4.331   9.428   3.151  0.7110  1.2197 -0.4647
  790MOL0     C 6557   4.409   9.519   3.247 -0.0007  0.0562 -0.1079
  790MOL0     C 6558   4.552   9.531   3.200  0.4890 -0.3040  0.3534
  790MOL0    Cl 6559   4.643   9.614   3.340 -0.6178 -0.2099 -0.5714
  790MOL0     C 6560   3.427   9.244   3.159  0.3537  1.2013  0.5910
  790MOL0     C 6561   3.290   9.216   3.145 -0.2921 -0.2795  0.4711
  790MOL0     O 6562   3.098   9.253   2.812 -0.0054  0.1713 -0.4161
  790MOL0     C 6563   2.833   9.153   2.747 -0.3166 -1.0314  0.1605
  790MOL0     C 6564   2.705   9.111   2.730 -0.6316  0.6627  0.8461
  790MOL0     N 6565   1.916   8.872   2.917  0.2110 -0.1927  0.3513
  790MOL0     N 6566   1.822   8.789   2.917 -0.3615  0.1559  0.0790
  790MOL0     C 6567   0.731   9.106   2.520 -0.3203 -0.2023 -0.1101
  790MOL0     C 6568   0.630   9.196   2.483  0.0310  0.7057 -0.7166
  790MOL0     C 6569   0.271   9.395   2.313  0.1149  0.7876  0.6507
  790MOL0     C 6570   0.161   9.313   2.278  0.2531  0.1526  1.1302
  790MOL0     C 6571   0.036   9.371   2.241 -0.1230  0.0157  0.0376
  790MOL0     C 6572   0.025   9.515   2.231  0.6295  1.1213  0.1020
  790MOL0     O 6573  -0.094   9.567   2.182  0.0145  0.5197  0.4934
  790MOL0     C 6574  -0.211   9.483   2.163 -1.5304 -0.4274  0.5171
  790MOL0     C 6575  -0.207   9.409   2.036 -0.0267  1.0172  0.1055
  790MOL0     C 6576  -0.245   9.513   1.926 -0.3565 -0.8714 -0.0138
  790MOL0     C 6577  -0.381   9.582   1.931 -0.1991  0.1417 -0.0537
  790MOL0     C 6578  -0.497   9.488   1.954 -1.0140 -0.7023 -0.6130
  790MOL0     C 6579  -0.576   9.402   1.958  0.3251 -0.4420 -0.5063
  790MOL0     C 6580   0.130   9.592   2.261 -0.3955  0.1921  0.6851
  790MOL0     C 6581   0.254   9.542   2.297 -0.2897  0.8810 -0.1502
  790MOL0     C 6582   0.348   9.648   2.345  0.1376  0.5948 -0.2645
  790MOL0     H 6583   0.379   8.967   2.461  1.2534 -0.9239 -0.8855
  790MOL0     H 6584   0.554   8.809   2.517 -0.3115 -0.5744  1.4505
  790MOL0     H 6585   0.732   8.704   2.573  1.7182 -0.4796  1.7159
  790MOL0     H 6586   0.819   8.753   2.414  0.7027 -0.2267  1.0310
  790MOL0     H 6587   0.946   8.596   2.538 -2.3473 -1.1913  2.5108
  790MOL0     H 6588   0.938   8.689   2.694 -0.2147  0.4681  0.5943
  790MOL0     H 6589   1.057   8.872   2.612 -3.9641 -1.1049  2.1462
  790MOL0     H 6590   1.067   8.806   2.442  2.9331  2.2077  1.2193
  790MOL0     H 6591   1.162   8.623   2.667  1.9470  0.4980  0.9874
  790MOL0     H 6592   1.225   8.641   2.503  0.0939  2.8736 -1.8351
  790MOL0     H 6593   1.329   8.847   2.549  0.3993  0.0972 -0.8506
  790MOL0     H 6594   1.266   8.855   2.709 -1.4364  2.1097 -3.8088
  790MOL0     H 6595   1.401   8.667   2.777 -0.0177  2.8075  0.4434
  790MOL0     H 6596   1.434   8.620   2.607 -2.1101 -0.3759  0.1686
  790MOL0     H 6597   1.527   8.880   2.745 -0.3720 -1.2476  0.8939
  790MOL0     H 6598   1.570   8.804   2.587  1.3516 -0.6932  0.4532
  790MOL0     H 6599   1.622   8.638   2.841  0.6393 -1.3468 -0.0015
  790MOL0     H 6600   1.688   8.627   2.684 -2.5668 -2.2749  1.9442
  790MOL0     H 6601   1.822   8.875   2.600  1.2333 -1.1970 -0.6219
  790MOL0     H 6602   2.026   9.046   2.645  1.4253 -0.2839 -0.6845
  790MOL0     H 6603   2.050   9.090   2.806 -2.1784 -0.6694  0.8711
  790MOL0     H 6604   2.218   8.908   2.855  4.3866 -2.2227 -1.5442
  790MOL0     H 6605   2.161   8.827   2.705  0.8726  0.1427 -0.1108
  790MOL0     H 6606   2.280   9.107   2.741  0.7943  0.2374  0.0479
  790MOL0     H 6607   2.268   9.020   2.581  1.1911 -3.7752 -0.4518
  790MOL0     H 6608   2.500   9.004   2.627  2.3208 -0.8835  0.8022
  790MOL0     H 6609   2.444   8.855   2.690  0.6447 -0.7392  2.9300
  790MOL0     H 6610   2.653   9.011   3.057  2.4855 -0.3556  1.1181
  790MOL0     H 6611   2.867   9.072   3.079  2.0591  0.6037 -0.4898
  790MOL0     H 6612   3.322   9.088   2.821 -3.1768  1.1558 -0.2888
  790MOL0     H 6613   3.564   9.136   2.871  0.7150 -0.4239  0.4639
  790MOL0     H 6614   3.768   9.113   3.206  1.5319  0.4789  0.2610
  790MOL0     H 6615   3.719   9.062   3.045  2.2130 -1.1154  0.2064
  790MOL0     H 6616   3.940   9.091   3.030 -0.4220 -0.8545  0.5747
  790MOL0     H 6617   3.891   9.247   2.961 -3.1025 -0.8226 -0.9735
  790MOL0     H 6618   3.905   9.340   3.207 -2.3557 -0.9737 -1.0882
  790MOL0     H 6619   3.991   9.191   3.252 -0.2861 -1.2620 -0.8990
  790MOL0     H 6620   4.091   9.367   3.021 -0.5592 -1.9958 -0.4300
  790MOL0     H 6621   4.166   9.236   3.088  0.0251 -0.7413  2.8636
  790MOL0     H 6622   4.198   9.352   3.317 -2.1273 -0.0478  0.4300
  790MOL0     H 6623   4.139   9.491   3.247  1.1150 -0.0288  1.9580
  790MOL0     H 6624   4.375   9.335   3.116  0.0239  0.4341  0.6938
  790MOL0     H 6625   4.319   9.468   3.050  1.3667 -0.5384 -1.2844
  790MOL0     H 6626   4.409   9.480   3.349  0.8202  0.4274  0.0417
  790MOL0     H 6627   4.359   9.616   3.252 -1.3398 -0.3729 -3.1641
  790MOL0     H 6628   4.587   9.431   3.173 -0.7747 -0.3546 -1.2075
  790MOL0     H 6629   4.545   9.598   3.114  2.6619 -0.3442  0.0720
  790MOL0     H 6630   3.455   9.300   3.248  0.4939  3.2575 -0.6921
  790MOL0     H 6631   3.224   9.251   3.224  0.7775 -0.5621  1.5239
  790MOL0     H 6632   2.889   9.197   2.665  0.2200  0.7089  1.4133
  790MOL0     H 6633   2.659   9.109   2.632  1.2914 -1.2940 -0.1101
  790MOL0     H 6634   0.831   9.145   2.534 -0.8463  1.1205  0.0769
  790MOL0     H 6635   0.654   9.302   2.474 -2.1199  1.6412  2.7940
  790MOL0     H 6636   0.177   9.206   2.285 -0.7702 -0.1404 -0.3969
  790MOL0     H 6637  -0.046   9.305   2.211  0.7371 -0.5470 -1.1642
  790MOL0     H 6638  -0.300   9.545   2.180 -0.0863  2.0526 -0.3102
  790MOL0     H 6639  -0.216   9.412   2.246  2.7215  0.7196  1.9878
  790MOL0     H 6640  -0.287   9.334   2.036 -2.2683  3.2678  0.7571
  790MOL0     H 6641  -0.115   9.353   2.016  0.5210  2.3853 -1.4117
  790MOL0     H 6642  -0.236   9.467   1.827  2.1479 -0.0534 -0.2432
  790MOL0     H 6643  -0.164   9.584   1.906 -1.9750  0.6443 -1.4784
  790MOL0     H 6644  -0.379   9.669   1.998 -0.4951  2.1674 -2.5187
  790MOL0     H 6645  -0.387   9.643   1.840 -1.1146  0.3255  0.1119
  790MOL0     H 6646  -0.647   9.322   1.963 -1.1515  0.9111  2.9183
  790MOL0     H 6647   0.117   9.699   2.251 -1.5271 -0.0342 -0.6245
  790MOL0     H 6648   0.291   9.734   2.382 -1.3839 -0.1128 -0.8570
  790MOL0     H 6649   0.396   9.608   2.434 -1.3738 -1.3391 -0.2582
  790MOL0     H 6650   0.422   9.681   2.272  1.0321  0.7912  0.7170
  791MOL0     O 6651   5.985   1.407   7.738 -0.3857 -0.2232  0.0385
  791MOL0     C 6652   6.017   1.299   7.784  0.4439 -1.5002 -0.1532
  791MOL0     O 6653   5.923   1.204   7.819  0.1484 -0.4126 -0.0795
  791MOL0     C 6654   5.794   1.229   7.844 -0.1981 -0.4338 -0.7746
  791MOL0     C 6655   5.720   1.119   7.863  0.4839 -0.2144  1.1970
  791MOL0     C 6656   5.582   1.120   7.896  0.1711 -0.5576 -0.2692
  791MOL0     C 6657   5.526   1.248   7.929 -1.4274  0.0165  0.4584
  791MOL0     O 6658   5.394   1.249   7.965  0.5685 -0.3681 -0.2255
  791MOL0     C 6659   5.323   1.364   7.927 -0.2428 -0.3591  0.6474
  791MOL0     C 6660   5.177   1.337   7.936  0.7431  0.1435 -0.8971
  791MOL0     C 6661   5.088   1.446   7.880 -0.2737  0.0574  0.2152
  791MOL0     C 6662   5.089   1.418   7.727  0.7561 -0.1193  0.4890
  791MOL0     C 6663   4.990   1.506   7.651 -0.8563  0.1908  0.4200
  791MOL0     C 6664   4.962   1.448   7.510 -0.1968  0.3439 -0.7970
  791MOL0     C 6665   4.859   1.533   7.439 -0.7685  0.3749 -0.2767
  791MOL0     C 6666   4.899   1.682   7.408 -0.2667 -0.1882  0.5266
  791MOL0     N 6667   5.028   1.690   7.340 -0.2643  0.4656 -0.2780
  791MOL0     C 6668   5.138   1.762   7.379  0.2532 -0.5060  0.1374
  791MOL0     C 6669   5.235   1.729   7.283 -0.2226 -0.5749  0.0799
  791MOL0     C 6670   5.378   1.771   7.275 -0.0536  0.0404 -0.1056
  791MOL0     C 6671   5.468   1.739   7.391 -0.6693 -0.1872  0.5574
  791MOL0     C 6672   5.609   1.795   7.366  0.2683 -0.6825 -0.3605
  791MOL0     C 6673   5.680   1.763   7.234  0.1282 -0.2140  0.2768
  791MOL0     O 6674   5.695   1.622   7.232 -0.1831  0.2377  0.0858
  791MOL0     C 6675   5.830   1.579   7.238  0.3271  0.0223 -0.9737
  791MOL0     C 6676   5.904   1.583   7.358  0.3818 -0.7470 -0.2125
  791MOL0     C 6677   6.032   1.542   7.361  0.4580 -0.9819 -0.9045
  791MOL0     C 6678   6.098   1.497   7.246 -0.1526  0.1215  0.2608
  791MOL0     C 6679   6.231   1.440   7.259  0.3204  0.1131 -0.5593
  791MOL0     O 6680   6.300   1.472   7.374 -0.1527 -0.1054 -0.0796
  791MOL0     C 6681   6.439   1.464   7.368  0.0853 -0.9966  0.0084
  791MOL0     C 6682   6.511   1.576   7.415 -0.2220  0.7963 -0.5973
  791MOL0     C 6683   6.649   1.571   7.435 -0.4600  0.1731 -0.4121
  791MOL0     C 6684   6.720   1.442   7.421  0.5823 -1.1098  0.2146
  791MOL0     O 6685   6.862   1.430   7.429  0.1974 -0.2050 -0.0705
  791MOL0     C 6686   6.949   1.543   7.452 -0.9347 -0.4356 -0.0962
  791MOL0     C 6687   7.093   1.490   7.496 -0.0254 -0.4939  0.3493
  791MOL0     C 6688   7.123   1.341   7.506 -0.6881 -0.8453  1.0289
  791MOL0     C 6689   7.127   1.278   7.359 -0.3582  0.3333 -0.4859
  791MOL0     C 6690   7.119   1.124   7.362  1.3897 -0.4699  0.3436
  791MOL0     C 6691   7.221   1.063   7.461 -0.6249  0.1928  0.6800
  791MOL0     C 6692   7.219   0.912   7.449 -0.3880  0.0549  0.4022
  791MOL0     C 6693   7.305   0.843   7.558 -0.2623  0.5006 -0.2448
  791MOL0    Cl 6694   7.485   0.878   7.526 -0.0815  0.3052 -0.6563
  791MOL0     C 6695   6.645   1.335   7.371  0.4830  0.0428 -0.0175
  791MOL0     C 6696   6.511   1.346   7.346  0.3175 -0.4368  0.9038
  791MOL0     O 6697   6.276   1.384   7.162  0.4537  0.6332 -0.2348
  791MOL0     C 6698   6.023   1.487   7.124  0.1753  0.3296  0.0295
  791MOL0     C 6699   5.892   1.531   7.120 -0.2966 -0.4818 -0.5856
  791MOL0     N 6700   5.172   1.657   7.188  0.7013  0.4035  0.6176
  791MOL0     N 6701   5.054   1.639   7.220 -0.2412 -0.2372 -0.1699
  791MOL0     C 6702   5.611   1.359   7.921 -0.9117 -0.0148  0.3889
  791MOL0     C 6703   5.738   1.357   7.863  0.0316 -0.3143 -1.0423
  791MOL0     C 6704   6.159   1.278   7.793 -0.3294 -0.2005 -0.0359
  791MOL0     C 6705   6.254   1.344   7.709  0.3835 -0.4008  0.2260
  791MOL0     C 6706   6.387   1.337   7.729 -0.3383 -0.1253 -0.5067
  791MOL0     C 6707   6.448   1.260   7.822 -0.2138 -0.7781 -0.1130
  791MOL0     O 6708   6.578   1.250   7.851  0.1678 -0.0415 -0.0223
  791MOL0     C 6709   6.669   1.312   7.763 -0.1986  0.0261 -0.2909
  791MOL0     C 6710   6.803   1.241   7.779  0.1374 -0.2393  0.2912
  791MOL0     C 6711   6.789   1.103   7.717 -0.0869  0.5740  0.1247
  791MOL0     C 6712   6.920   1.025   7.715  0.2954 -1.0921  1.0937
  791MOL0     C 6713   6.897   0.896   7.780  0.3264 -0.7130  0.2008
  791MOL0     C 6714   6.852   0.794   7.826  0.6563  0.5614  0.8096
  791MOL0     C 6715   6.358   1.184   7.901 -0.0810  0.1615 -0.3848
  791MOL0     C 6716   6.217   1.200   7.900 -0.1676  0.0103 -1.1266
  791MOL0     C 6717   6.135   1.119   7.996  0.7217 -1.0884  0.8543
  791MOL0     H 6718   5.766   1.021   7.855 -1.8637 -1.2819 -0.4447
  791MOL0     H 6719   5.509   1.040   7.900  0.6171 -1.0208 -1.1017
  791MOL0     H 6720   5.350   1.447   7.994  0.5868  0.8883 -1.1417
  791MOL0     H 6721   5.358   1.381   7.825  2.2910 -2.0339  1.1517
  791MOL0     H 6722   5.148   1.339   8.041  0.2217 -2.0546 -0.9602
  791MOL0     H 6723   5.145   1.240   7.898  1.2046  0.6741 -2.7271
  791MOL0     H 6724   5.135   1.545   7.888  0.6734 -0.3045 -0.6009
  791MOL0     H 6725   4.991   1.437   7.928  0.9620  1.1607  3.1378
  791MOL0     H 6726   5.186   1.423   7.677 -0.7653 -0.1139 -2.7716
  791MOL0     H 6727   5.066   1.312   7.711  1.1722  0.1345 -2.3702
  791MOL0     H 6728   4.898   1.525   7.707 -1.4528  1.6448 -0.9659
  791MOL0     H 6729   5.038   1.604   7.641 -1.4050  0.3979 -0.3524
  791MOL0     H 6730   5.051   1.430   7.450  0.3418 -0.2463  0.1553
  791MOL0     H 6731   4.922   1.348   7.528 -0.0114  0.8159  3.1754
  791MOL0     H 6732   4.775   1.537   7.508  1.7049 -1.2885  3.1202
  791MOL0     H 6733   4.827   1.495   7.342 -0.2994  0.0316 -0.3033
  791MOL0     H 6734   4.822   1.727   7.344  1.7110  0.6931 -1.3394
  791MOL0     H 6735   4.885   1.736   7.502 -5.1105  2.0534 -1.1404
  791MOL0     H 6736   5.149   1.820   7.470 -2.8006 -1.4123  1.2118
  791MOL0     H 6737   5.423   1.722   7.189  0.2790 -0.8982  0.5867
  791MOL0     H 6738   5.381   1.878   7.253  1.0532 -0.2040 -1.2441
  791MOL0     H 6739   5.426   1.774   7.486  0.5279  3.9593 -0.2311
  791MOL0     H 6740   5.482   1.632   7.411 -0.4417  0.1587  2.4033
  791MOL0     H 6741   5.676   1.768   7.448 -1.5034 -2.5246  0.5578
  791MOL0     H 6742   5.592   1.903   7.368  1.3382 -0.4829 -1.1681
  791MOL0     H 6743   5.777   1.814   7.230  1.0583 -1.9701 -1.7887
  791MOL0     H 6744   5.614   1.797   7.154 -1.5623 -2.1164  0.7646
  791MOL0     H 6745   5.863   1.620   7.451 -2.5171  2.8994 -2.5960
  791MOL0     H 6746   6.086   1.542   7.456  0.4028  0.0994 -0.8549
  791MOL0     H 6747   6.454   1.666   7.436 -0.9214  0.2536 -0.1021
  791MOL0     H 6748   6.706   1.661   7.455  0.7428 -0.7256  0.2978
  791MOL0     H 6749   6.953   1.612   7.367  0.9509  3.5892  2.9137
  791MOL0     H 6750   6.902   1.587   7.541 -2.2449 -1.2101 -0.3871
  791MOL0     H 6751   7.166   1.533   7.427 -0.5003 -0.2103  0.0203
  791MOL0     H 6752   7.115   1.527   7.597  3.0957 -0.2663 -0.3057
  791MOL0     H 6753   7.218   1.313   7.552  0.1750 -2.9264 -1.7407
  791MOL0     H 6754   7.036   1.298   7.556 -1.9688 -2.3234 -2.1846
  791MOL0     H 6755   7.219   1.302   7.305  0.3631 -0.5914  0.2973
  791MOL0     H 6756   7.039   1.315   7.306 -2.1625 -1.6585  0.9784
  791MOL0     H 6757   7.123   1.078   7.262  0.6167 -5.8434  2.4586
  791MOL0     H 6758   7.017   1.102   7.392  0.2791  3.4281 -0.0396
  791MOL0     H 6759   7.321   1.106   7.454 -0.6568  0.1729  0.0255
  791MOL0     H 6760   7.196   1.083   7.565  2.2407  2.9248  0.9654
  791MOL0     H 6761   7.251   0.875   7.352 -0.1646 -2.2330  1.2766
  791MOL0     H 6762   7.116   0.878   7.462 -0.4985  0.4173  0.4896
  791MOL0     H 6763   7.269   0.879   7.654  2.0423  0.1913  0.8218
  791MOL0     H 6764   7.296   0.734   7.555 -0.8469  0.4392  1.8904
  791MOL0     H 6765   6.696   1.242   7.350  1.5504  0.0328  2.2747
  791MOL0     H 6766   6.444   1.267   7.315  0.8470  0.1236 -1.8817
  791MOL0     H 6767   6.055   1.434   7.035  0.1894 -1.9990  1.3450
  791MOL0     H 6768   5.844   1.531   7.022 -0.0565 -1.4517 -0.7123
  791MOL0     H 6769   5.579   1.458   7.951  2.1703  1.3985 -0.5030
  791MOL0     H 6770   5.786   1.453   7.854 -0.3503 -0.0024  0.0250
  791MOL0     H 6771   6.217   1.398   7.623  1.3198  1.5961  1.0166
  791MOL0     H 6772   6.450   1.394   7.661 -1.6555  1.0938 -0.7504
  791MOL0     H 6773   6.683   1.417   7.790  2.7512  0.0505 -1.5426
  791MOL0     H 6774   6.645   1.302   7.657  4.0592  0.6743 -1.5250
  791MOL0     H 6775   6.826   1.231   7.885 -1.7601 -0.0818  0.7400
  791MOL0     H 6776   6.877   1.291   7.715  1.3266 -3.2812 -0.8965
  791MOL0     H 6777   6.759   1.113   7.612 -1.6983 -2.1857  0.2239
  791MOL0     H 6778   6.710   1.049   7.770 -1.3873  0.8593 -1.4451
  791MOL0     H 6779   6.945   1.024   7.609  0.7827  2.3951  1.0571
  791MOL0     H 6780   6.994   1.081   7.774  0.4053 -0.3978  0.3184
  791MOL0     H 6781   6.796   0.713   7.868 -0.3943  0.9628  0.2236
  791MOL0     H 6782   6.401   1.112   7.970 -0.5052 -0.6038 -0.8965
  791MOL0     H 6783   6.201   1.068   8.067 -0.3214 -4.8043 -0.5917
  791MOL0     H 6784   6.072   1.179   8.062 -1.6824 -0.1236 -2.0743
  791MOL0     H 6785   6.077   1.050   7.934 -0.9148  1.1408 -0.2161
  792MOL0     O 6786   7.470   7.458   4.599 -0.5119 -0.3687  1.1438
  792MOL0     C 6787   7.424   7.437   4.488  0.1425  0.2706 -1.0557
  792MOL0     O 6788   7.492   7.426   4.369 -0.2990 -0.2475 -0.1941
  792MOL0     C 6789   7.637   7.416   4.368  0.2210  0.6818  0.0069
  792MOL0     C 6790   7.738   7.429   4.468  0.5270 -0.3374  0.2282
  792MOL0     C 6791   7.871   7.427   4.435 -0.4574  0.0864  0.4214
  792MOL0     C 6792   7.916   7.402   4.301 -0.5054 -0.1291 -0.1254
  792MOL0     O 6793   8.053   7.400   4.256 -0.2111  0.1410  0.3873
  792MOL0     C 6794   8.158   7.394   4.349  0.3366 -0.2383 -0.5542
  792MOL0     C 6795   8.287   7.385   4.277 -0.2030  0.5078 -0.9615
  792MOL0     C 6796   8.396   7.358   4.382  0.5297  0.3661 -0.5588
  792MOL0     C 6797   8.509   7.461   4.365  1.1260 -0.2675 -0.4850
  792MOL0     C 6798   8.628   7.441   4.451  0.0809  0.4510 -0.3587
  792MOL0     C 6799   8.720   7.338   4.389  0.1430 -0.2107  0.1235
  792MOL0     C 6800   8.842   7.305   4.477  0.7399  0.3866 -0.0963
  792MOL0     C 6801   8.951   7.409   4.462  0.3385 -0.2567 -0.0145
  792MOL0     N 6802   8.950   7.519   4.560  1.0091 -0.5434  0.2558
  792MOL0     C 6803   8.943   7.497   4.698  0.8206  0.2257 -0.6415
  792MOL0     C 6804   8.914   7.622   4.750 -0.5753 -0.6623  0.3921
  792MOL0     C 6805   8.898   7.660   4.898  0.0636 -0.4151  0.4939
  792MOL0     C 6806   8.819   7.572   4.992 -0.1407  0.0963 -0.3746
  792MOL0     C 6807   8.668   7.586   4.990 -0.1726  0.1635  0.1505
  792MOL0     C 6808   8.606   7.508   5.111 -0.0197  0.4222 -0.2241
  792MOL0     O 6809   8.610   7.365   5.087  0.7939 -0.6103  0.1996
  792MOL0     C 6810   8.497   7.331   5.018  0.1349  0.2148  0.1714
  792MOL0     C 6811   8.498   7.311   4.873 -0.2740 -0.0707 -0.9310
  792MOL0     C 6812   8.378   7.278   4.808 -0.2702  1.6329  0.1211
  792MOL0     C 6813   8.263   7.246   4.884  0.1505 -0.2601  0.5862
  792MOL0     C 6814   8.147   7.213   4.804 -0.8241  0.0050 -0.3180
  792MOL0     O 6815   8.037   7.173   4.883 -0.1285 -0.3862 -0.0836
  792MOL0     C 6816   7.925   7.132   4.825  0.1085  0.6917  0.5972
  792MOL0     C 6817   7.854   7.202   4.725 -0.6821  0.5068  0.1787
  792MOL0     C 6818   7.732   7.147   4.676  0.2070 -0.2586  0.3274
  792MOL0     C 6819   7.685   7.024   4.733 -0.1280 -0.0620  0.8553
  792MOL0     O 6820   7.555   6.983   4.691  0.5447 -0.5052 -0.4463
  792MOL0     C 6821   7.455   6.949   4.795 -0.0636  0.1900 -0.3634
  792MOL0     C 6822   7.325   7.023   4.805  0.1725 -0.3441  0.8031
  792MOL0     C 6823   7.349   7.172   4.819  0.2656  0.7790  0.5354
  792MOL0     C 6824   7.423   7.212   4.951  0.5008  0.4843 -0.8640
  792MOL0     C 6825   7.446   7.363   4.966  0.1212  0.3096 -0.9513
  792MOL0     C 6826   7.553   7.397   5.073  0.5860  0.4691 -0.4963
  792MOL0     C 6827   7.562   7.548   5.098 -0.0874 -0.1689  0.2426
  792MOL0     C 6828   7.470   7.605   5.211  0.5315  0.8227 -0.3055
  792MOL0    Cl 6829   7.506   7.521   5.369  0.3882 -0.1383  0.3077
  792MOL0     C 6830   7.761   6.956   4.831 -0.8756 -0.4255  0.6373
  792MOL0     C 6831   7.882   7.006   4.868  0.3164  0.0836  0.0183
  792MOL0     O 6832   8.150   7.220   4.679 -0.5219  0.5663 -0.4766
  792MOL0     C 6833   8.261   7.271   5.025 -0.0474 -0.8523 -0.2103
  792MOL0     C 6834   8.380   7.317   5.093  0.1204 -0.0003  0.0822
  792MOL0     N 6835   8.894   7.711   4.642 -0.9640  0.2575 -0.2567
  792MOL0     N 6836   8.925   7.645   4.529 -0.4078 -0.5359 -0.3595
  792MOL0     C 6837   7.824   7.372   4.206 -0.2090 -0.0339  0.1450
  792MOL0     C 6838   7.685   7.379   4.240  0.3246 -0.4528 -0.0991
  792MOL0     C 6839   7.277   7.418   4.489 -0.7008  0.0878  0.0730
  792MOL0     C 6840   7.199   7.462   4.597  0.4563 -0.6165 -0.6685
  792MOL0     C 6841   7.061   7.458   4.591 -0.4025 -0.0881 -0.8340
  792MOL0     C 6842   6.998   7.389   4.487  0.7383  0.1338  1.1535
  792MOL0     O 6843   6.868   7.362   4.488 -0.1470 -0.9384 -0.2055
  792MOL0     C 6844   6.777   7.462   4.452  0.5348 -0.7160  0.6617
  792MOL0     C 6845   6.764   7.484   4.306 -0.0804 -0.0745 -0.4140
  792MOL0     C 6846   6.727   7.345   4.234  0.6812  0.3156  1.1310
  792MOL0     C 6847   6.576   7.298   4.239  0.4469 -0.3669 -0.1815
  792MOL0     C 6848   6.486   7.384   4.157 -0.0382 -0.4579 -0.1795
  792MOL0     C 6849   6.422   7.467   4.096  0.6804  0.4272 -0.3500
  792MOL0     C 6850   7.079   7.332   4.389 -0.1275 -0.0582 -0.2538
  792MOL0     C 6851   7.215   7.348   4.381  0.3857  0.6398  0.0593
  792MOL0     C 6852   7.278   7.285   4.258  0.3979 -0.2398 -0.0160
  792MOL0     H 6853   7.725   7.425   4.576  1.7709  0.3564  0.4204
  792MOL0     H 6854   7.942   7.436   4.517  1.6636 -0.4220 -1.2916
  792MOL0     H 6855   8.158   7.485   4.410  2.6301 -1.4110  1.3423
  792MOL0     H 6856   8.145   7.303   4.407  1.2607 -0.1094 -0.1304
  792MOL0     H 6857   8.298   7.474   4.214  0.0253 -0.5316 -2.4264
  792MOL0     H 6858   8.268   7.297   4.215  1.3495 -0.3391 -0.2993
  792MOL0     H 6859   8.433   7.257   4.361  0.5215 -0.0123  1.1366
  792MOL0     H 6860   8.366   7.347   4.486 -0.3501 -0.3829 -0.8738
  792MOL0     H 6861   8.548   7.474   4.263 -0.6375 -0.9833 -1.2914
  792MOL0     H 6862   8.456   7.554   4.391  0.1318 -1.0176  0.2501
  792MOL0     H 6863   8.688   7.532   4.463  0.4056 -0.1034  3.2710
  792MOL0     H 6864   8.603   7.406   4.551  2.3385  1.3681  0.5975
  792MOL0     H 6865   8.663   7.244   4.384 -1.3850  0.7065 -0.5453
  792MOL0     H 6866   8.749   7.358   4.286  0.3206 -0.7810  0.0605
  792MOL0     H 6867   8.887   7.210   4.447 -0.3434 -0.6737  1.5602
  792MOL0     H 6868   8.799   7.294   4.576 -3.4414  1.0444 -1.6475
  792MOL0     H 6869   9.045   7.354   4.474  0.1108 -0.3647  1.4593
  792MOL0     H 6870   8.954   7.449   4.360 -1.0601  0.1782  0.1075
  792MOL0     H 6871   8.950   7.404   4.754 -3.1768  0.6550  0.9146
  792MOL0     H 6872   8.996   7.679   4.941  2.1183  0.7421 -4.0858
  792MOL0     H 6873   8.846   7.757   4.899  3.4271  1.5247  1.0290
  792MOL0     H 6874   8.858   7.470   4.979  0.6537  0.2636  0.5938
  792MOL0     H 6875   8.851   7.603   5.092 -0.3570 -0.6930 -0.0527
  792MOL0     H 6876   8.636   7.556   4.889  2.6983 -1.3969 -0.3843
  792MOL0     H 6877   8.639   7.691   5.003  3.1503  1.0663  1.2228
  792MOL0     H 6878   8.506   7.540   5.141 -1.8633 -3.6772 -1.4081
  792MOL0     H 6879   8.673   7.526   5.196 -2.1855  1.9101  1.2604
  792MOL0     H 6880   8.595   7.308   4.823 -0.0230  0.5422 -0.4923
  792MOL0     H 6881   8.391   7.251   4.703 -0.1306 -2.0665  0.9512
  792MOL0     H 6882   7.893   7.298   4.691  2.7505 -0.7186  0.2456
  792MOL0     H 6883   7.672   7.206   4.608  0.8971 -1.6261 -1.5618
  792MOL0     H 6884   7.418   6.850   4.767 -0.0423  0.1974 -0.4174
  792MOL0     H 6885   7.501   6.946   4.895 -1.9033  0.2016  0.5248
  792MOL0     H 6886   7.272   7.000   4.713  0.9995 -2.2955  0.7595
  792MOL0     H 6887   7.272   6.974   4.887 -0.5581  0.2612  0.7010
  792MOL0     H 6888   7.403   7.202   4.729 -1.2883  0.7001 -0.4581
  792MOL0     H 6889   7.248   7.215   4.823 -0.3639 -0.4889 -0.9257
  792MOL0     H 6890   7.524   7.169   4.949  0.4148  0.2455 -0.2195
  792MOL0     H 6891   7.375   7.171   5.040  1.2061  1.0587 -0.2043
  792MOL0     H 6892   7.352   7.404   5.004  0.9186  1.0617  0.2846
  792MOL0     H 6893   7.472   7.411   4.872 -1.9228 -0.0218 -1.7471
  792MOL0     H 6894   7.543   7.344   5.169  1.0818  3.1005  1.1043
  792MOL0     H 6895   7.648   7.360   5.032  2.7108  1.5557  2.9910
  792MOL0     H 6896   7.527   7.597   5.007 -1.8664 -2.8394 -0.6366
  792MOL0     H 6897   7.667   7.575   5.109 -0.5359  1.8655 -0.1692
  792MOL0     H 6898   7.485   7.713   5.203 -0.2962  0.7812 -3.7710
  792MOL0     H 6899   7.364   7.587   5.190  0.9348 -0.0584 -1.6978
  792MOL0     H 6900   7.725   6.863   4.873  1.8683 -4.0835 -4.0670
  792MOL0     H 6901   7.950   6.947   4.929 -0.2896  0.0990  0.7347
  792MOL0     H 6902   8.177   7.250   5.091 -1.6966  2.9684 -0.8093
  792MOL0     H 6903   8.386   7.322   5.202  6.1830 -0.4288  0.0960
  792MOL0     H 6904   7.861   7.347   4.107 -1.6033 -1.3078 -0.0906
  792MOL0     H 6905   7.600   7.364   4.173 -2.4820 -1.6963  3.4408
  792MOL0     H 6906   7.239   7.506   4.687 -2.1678  1.9245 -0.5726
  792MOL0     H 6907   6.999   7.497   4.671  0.4106  1.4840 -0.9244
  792MOL0     H 6908   6.799   7.558   4.498 -1.2576 -1.3351  2.9960
  792MOL0     H 6909   6.678   7.438   4.492  1.3616 -2.9243  1.5528
  792MOL0     H 6910   6.858   7.524   4.267  0.9924 -0.4048  1.6458
  792MOL0     H 6911   6.683   7.555   4.292 -1.0590 -1.0027  0.3183
  792MOL0     H 6912   6.788   7.262   4.271  2.6262  1.2674  0.2517
  792MOL0     H 6913   6.754   7.357   4.129  2.2258 -0.2512  1.4344
  792MOL0     H 6914   6.560   7.192   4.217  0.1669 -0.1629 -0.9765
  792MOL0     H 6915   6.541   7.311   4.342 -2.2896  0.1631 -1.1034
  792MOL0     H 6916   6.366   7.550   4.058  0.9734  0.4542 -0.7331
  792MOL0     H 6917   7.023   7.272   4.318  1.7863 -4.4935  1.5580
  792MOL0     H 6918   7.323   7.367   4.202  0.0151 -0.0427 -0.0416
  792MOL0     H 6919   7.358   7.216   4.286  2.3403  1.3463 -1.3728
  792MOL0     H 6920   7.205   7.231   4.196  1.7573 -1.9249 -0.2321
  793MOL0     O 6921   6.509   3.165  10.634  0.1147  0.4669 -0.7600
  793MOL0     C 6922   6.490   3.260  10.555 -0.2094 -0.0300  0.2571
  793MOL0     O 6923   6.586   3.308  10.473  0.8849  1.0366  0.3023
  793MOL0     C 6924   6.720   3.266  10.483  0.3921  1.1690 -0.2196
  793MOL0     C 6925   6.783   3.272  10.611 -0.4168 -0.2325  0.5578
  793MOL0     C 6926   6.908   3.219  10.624  0.3035  0.3871  0.5338
  793MOL0     C 6927   6.964   3.153  10.521  0.2876  0.1889 -0.0667
  793MOL0     O 6928   7.092   3.090  10.521  0.4461 -0.1402  0.7637
  793MOL0     C 6929   7.190   3.157  10.600 -0.1315  0.8698 -0.1923
  793MOL0     C 6930   7.326   3.099  10.592 -0.9925 -0.7892  0.6414
  793MOL0     C 6931   7.439   3.191  10.651  0.6978 -1.3349 -0.0578
  793MOL0     C 6932   7.562   3.114  10.659  0.9003 -0.1840 -0.3293
  793MOL0     C 6933   7.683   3.202  10.681 -0.4083 -0.4445 -1.3228
  793MOL0     C 6934   7.809   3.113  10.687 -0.7197  0.1043  0.2681
  793MOL0     C 6935   7.930   3.208  10.698 -0.6350 -0.1724  0.7597
  793MOL0     C 6936   7.933   3.287  10.832 -0.5880 -0.5036  0.0812
  793MOL0     N 6937   8.063   3.354  10.855 -0.0983  0.2051 -0.0441
  793MOL0     C 6938   8.145   3.415  10.765  0.6321 -0.4825  0.1494
  793MOL0     C 6939   8.244   3.475  10.825  0.7976  0.0352  0.1885
  793MOL0     C 6940   8.359   3.542  10.750 -0.0189 -0.4826  0.6438
  793MOL0     C 6941   8.475   3.571  10.839 -0.2606  0.2174  0.3629
  793MOL0     C 6942   8.556   3.446  10.854  0.0631 -0.9137 -0.3224
  793MOL0     C 6943   8.665   3.462  10.968 -0.0397 -0.0103 -0.4550
  793MOL0     O 6944   8.773   3.554  10.930 -0.0195  0.4083  0.0732
  793MOL0     C 6945   8.897   3.557  10.996  1.0193  0.0102 -0.7556
  793MOL0     C 6946   8.947   3.449  11.077 -0.2642  0.5853  0.7829
  793MOL0     C 6947   9.074   3.449  11.136 -0.4992  0.5312 -0.0532
  793MOL0     C 6948   9.167   3.550  11.106 -0.1349 -0.3742  0.7803
  793MOL0     C 6949   9.304   3.551  11.167  0.5064 -0.6784 -0.8254
  793MOL0     O 6950   9.330   3.444  11.255  0.3454  0.4870 -0.2492
  793MOL0     C 6951   9.437   3.435  11.339 -0.2436  0.2238  0.0748
  793MOL0     C 6952   9.572   3.446  11.290 -0.2360 -0.5371  0.5408
  793MOL0     C 6953   9.677   3.432  11.380 -0.3358  0.2564 -0.0080
  793MOL0     C 6954   9.658   3.385  11.509  0.0802  0.6053 -0.9989
  793MOL0     O 6955   9.775   3.341  11.576 -0.4261  0.3245  0.0955
  793MOL0     C 6956   9.756   3.273  11.704 -0.1802  0.2714 -0.1423
  793MOL0     C 6957   9.887   3.220  11.772 -0.5267 -0.5185 -0.2904
  793MOL0     C 6958   9.862   3.092  11.862  0.1489 -0.4299  1.2913
  793MOL0     C 6959   9.777   3.116  11.983  0.0515  0.7384 -0.3075
  793MOL0     C 6960   9.620   3.096  11.964  0.6195 -0.2397 -0.1398
  793MOL0     C 6961   9.524   3.123  12.085 -0.2431 -0.1228  0.1740
  793MOL0     C 6962   9.543   3.027  12.201 -0.6061  0.1025  0.4655
  793MOL0     C 6963   9.437   3.058  12.310  0.6748  0.8042  0.4084
  793MOL0    Cl 6964   9.444   3.220  12.372  0.1618 -0.0153  0.0114
  793MOL0     C 6965   9.525   3.379  11.553 -0.6315  0.5438 -0.0220
  793MOL0     C 6966   9.420   3.410  11.472  0.5095  0.2775  0.0176
  793MOL0     O 6967   9.386   3.630  11.130  0.8788 -0.6200  0.0882
  793MOL0     C 6968   9.119   3.664  11.022  0.0470  1.0080 -0.3351
  793MOL0     C 6969   8.990   3.660  10.970 -0.6080 -0.7567 -0.0230
  793MOL0     N 6970   8.238   3.444  10.963  0.2141 -0.8412 -0.1339
  793MOL0     N 6971   8.123   3.373  10.979  0.1253 -0.5619  0.4161
  793MOL0     C 6972   6.901   3.149  10.394 -0.4309  0.6623 -0.6035
  793MOL0     C 6973   6.778   3.208  10.373  0.1164  0.0529  0.4645
  793MOL0     C 6974   6.349   3.312  10.528  0.3629  0.2184  0.1034
  793MOL0     C 6975   6.310   3.335  10.393  0.6988 -0.0942 -0.2130
  793MOL0     C 6976   6.174   3.381  10.373  0.5813 -0.1529 -1.0737
  793MOL0     C 6977   6.085   3.401  10.480  0.3838  0.5907 -0.3753
  793MOL0     O 6978   5.954   3.438  10.465  0.2976 -0.2154 -0.3878
  793MOL0     C 6979   5.894   3.453  10.329  0.0018  0.3035  0.1253
  793MOL0     C 6980   5.767   3.528  10.351  0.7785 -0.9687 -0.2515
  793MOL0     C 6981   5.666   3.469  10.451  0.1928  0.1598  0.4562
  793MOL0     C 6982   5.565   3.575  10.497 -0.3944 -0.3939  0.0138
  793MOL0     C 6983   5.631   3.647  10.603  0.9878 -0.4378 -0.0065
  793MOL0     C 6984   5.689   3.706  10.692  0.6237 -0.2491  0.4508
  793MOL0     C 6985   6.127   3.369  10.607  0.4932 -0.2370 -0.6889
  793MOL0     C 6986   6.253   3.315  10.627 -0.0689 -0.4457 -0.2785
  793MOL0     C 6987   6.299   3.308  10.775 -0.8766 -0.6500  0.7381
  793MOL0     H 6988   6.733   3.320  10.694  0.7826  1.7961  0.1798
  793MOL0     H 6989   6.950   3.209  10.724 -0.4167 -2.0854  0.6570
  793MOL0     H 6990   7.199   3.264  10.581 -1.1766  0.7603 -1.4584
  793MOL0     H 6991   7.170   3.145  10.707  2.5862  1.0497  0.4045
  793MOL0     H 6992   7.349   3.081  10.486 -2.1721 -0.3376  0.2895
  793MOL0     H 6993   7.337   2.998  10.631  1.4053 -0.0490  2.1172
  793MOL0     H 6994   7.400   3.226  10.747  0.1150 -3.4772  0.5364
  793MOL0     H 6995   7.464   3.271  10.581  0.7554  2.5365  3.9904
  793MOL0     H 6996   7.566   3.044  10.743  0.3875  0.6976  0.4438
  793MOL0     H 6997   7.568   3.055  10.567  0.7242  1.2011 -1.2548
  793MOL0     H 6998   7.690   3.275  10.599  1.3878 -0.1281 -0.9346
  793MOL0     H 6999   7.671   3.261  10.773 -1.8934 -0.4375 -1.4898
  793MOL0     H 7000   7.802   3.040  10.768  0.3922 -0.0127  0.2681
  793MOL0     H 7001   7.810   3.065  10.589 -1.1382  0.2276  0.1986
  793MOL0     H 7002   7.939   3.285  10.621  2.3498 -1.1391 -0.0128
  793MOL0     H 7003   8.021   3.151  10.677  0.5533  1.8515  0.1297
  793MOL0     H 7004   7.861   3.368  10.819 -0.2139 -0.2071 -0.1827
  793MOL0     H 7005   7.917   3.219  10.916  1.5368 -2.6958 -1.1529
  793MOL0     H 7006   8.140   3.404  10.657  2.4687  2.6438 -0.3710
  793MOL0     H 7007   8.383   3.473  10.669  0.6782 -1.8423  1.9493
  793MOL0     H 7008   8.324   3.634  10.703  0.9686  0.3117  1.4269
  793MOL0     H 7009   8.540   3.639  10.783 -0.2613 -0.6083 -0.6796
  793MOL0     H 7010   8.445   3.610  10.936  1.5090  0.1510  0.9629
  793MOL0     H 7011   8.600   3.417  10.758  2.7000  3.0670 -0.5467
  793MOL0     H 7012   8.493   3.364  10.890  0.4693 -0.4311  1.6107
  793MOL0     H 7013   8.711   3.363  10.975  2.6612  0.9866 -2.4470
  793MOL0     H 7014   8.617   3.495  11.060  0.4943  0.8298 -0.4645
  793MOL0     H 7015   8.888   3.362  11.102  0.5349  0.0378  0.7663
  793MOL0     H 7016   9.087   3.361  11.199  0.1927  0.5407 -0.1798
  793MOL0     H 7017   9.607   3.469  11.190 -0.4186 -2.1447  0.0836
  793MOL0     H 7018   9.781   3.450  11.355  0.7148 -2.7586  1.6706
  793MOL0     H 7019   9.710   3.335  11.780 -0.3056  0.0951 -0.0756
  793MOL0     H 7020   9.700   3.182  11.680  0.3205 -1.1913  3.5901
  793MOL0     H 7021   9.952   3.186  11.691  0.1879  1.8024 -0.7913
  793MOL0     H 7022   9.933   3.302  11.828  2.1213 -2.4340  0.5183
  793MOL0     H 7023   9.827   3.005  11.805 -0.0557  1.1871 -1.1881
  793MOL0     H 7024   9.963   3.074  11.902 -0.6287 -1.7983  2.7760
  793MOL0     H 7025   9.801   3.209  12.035  1.1203  0.4210 -0.2095
  793MOL0     H 7026   9.804   3.044  12.061  0.1854  1.9004  0.7524
  793MOL0     H 7027   9.596   2.991  11.944 -3.4331 -0.0447  2.6517
  793MOL0     H 7028   9.589   3.158  11.880  0.7497 -2.5418 -2.0011
  793MOL0     H 7029   9.530   3.225  12.123 -0.7762 -0.4064  1.0667
  793MOL0     H 7030   9.422   3.102  12.052 -0.3819 -0.3379  0.7102
  793MOL0     H 7031   9.644   3.042  12.240 -0.2231 -2.8685  0.8791
  793MOL0     H 7032   9.539   2.920  12.179 -0.5137 -0.3651  2.4753
  793MOL0     H 7033   9.338   3.024  12.278  1.1783  0.6408 -1.0267
  793MOL0     H 7034   9.467   2.991  12.392  0.9152  0.4811  0.0605
  793MOL0     H 7035   9.500   3.343  11.652  0.1954  0.1576  0.0591
  793MOL0     H 7036   9.323   3.410  11.519  1.3527  0.7040  1.8192
  793MOL0     H 7037   9.190   3.740  10.994 -0.4264  1.7286  0.3588
  793MOL0     H 7038   8.957   3.749  10.917 -0.3257  0.1263  1.2235
  793MOL0     H 7039   6.959   3.101  10.316  0.1267 -0.3020  0.3816
  793MOL0     H 7040   6.720   3.211  10.281  0.4622  3.0052  0.2265
  793MOL0     H 7041   6.384   3.328  10.314 -0.3924 -0.6737 -1.2087
  793MOL0     H 7042   6.139   3.416  10.276 -5.3993  1.6557  1.2956
  793MOL0     H 7043   5.883   3.350  10.294 -0.4784 -1.0523  3.8154
  793MOL0     H 7044   5.950   3.504  10.250  0.5064 -1.2811 -0.5661
  793MOL0     H 7045   5.718   3.547  10.256 -0.7507 -0.4998  0.5931
  793MOL0     H 7046   5.806   3.626  10.380 -1.4426  0.8770 -3.0450
  793MOL0     H 7047   5.721   3.426  10.535 -0.0638 -0.8252  0.1364
  793MOL0     H 7048   5.610   3.384  10.411 -0.5132  0.5082  0.6918
  793MOL0     H 7049   5.542   3.639  10.412 -2.1249 -1.8211 -0.6524
  793MOL0     H 7050   5.475   3.528  10.539  0.1065 -1.4631 -0.0642
  793MOL0     H 7051   5.760   3.759  10.753  0.0506  1.4588 -0.3152
  793MOL0     H 7052   6.054   3.379  10.687  0.5978  1.5736 -0.7753
  793MOL0     H 7053   6.265   3.210  10.810  1.3202 -0.6841  3.0360
  793MOL0     H 7054   6.407   3.305  10.793 -0.0742 -0.9184 -3.1532
  793MOL0     H 7055   6.265   3.397  10.828  2.8684  0.2029  2.0253
  794MOL0     O 7056   4.707   7.000   0.654  1.1360  0.0056 -0.2170
  794MOL0     C 7057   4.701   6.877   0.628 -0.7674  0.6308 -0.4491
  794MOL0     O 7058   4.799   6.795   0.566  0.4846 -0.6307 -0.8248
  794MOL0     C 7059   4.923   6.850   0.566  0.1274  0.5796  0.1519
  794MOL0     C 7060   5.008   6.845   0.674 -0.9865  0.3774  0.4065
  794MOL0     C 7061   5.132   6.901   0.674 -0.1970 -0.9700 -0.4218
  794MOL0     C 7062   5.174   6.960   0.550 -0.4795 -0.9825 -0.3846
  794MOL0     O 7063   5.291   7.021   0.553 -0.6618 -0.4458 -0.3955
  794MOL0     C 7064   5.275   7.166   0.529  0.0066  0.1498  0.8071
  794MOL0     C 7065   5.400   7.247   0.572  0.0425 -0.0970 -1.2711
  794MOL0     C 7066   5.439   7.219   0.718 -0.1848 -1.1612 -0.7108
  794MOL0     C 7067   5.547   7.312   0.778 -0.3541 -0.2762  0.0152
  794MOL0     C 7068   5.689   7.252   0.756 -0.3540 -0.7141 -0.1550
  794MOL0     C 7069   5.798   7.342   0.813  0.0439 -0.9265 -0.3265
  794MOL0     C 7070   5.786   7.382   0.961  0.0742  0.4080  0.2321
  794MOL0     C 7071   5.928   7.436   1.007  0.2284  0.6654 -0.0786
  794MOL0     N 7072   6.035   7.330   1.014  0.1009  0.0835  0.2608
  794MOL0     C 7073   6.056   7.250   1.123  0.6123 -1.4561  0.1464
  794MOL0     C 7074   6.161   7.172   1.081 -0.0026  0.2104  0.5303
  794MOL0     C 7075   6.224   7.067   1.168 -0.0737  0.1090 -0.2560
  794MOL0     C 7076   6.360   7.003   1.113 -0.1423 -0.2005  0.1742
  794MOL0     C 7077   6.399   6.863   1.177 -1.0835  0.6328  0.8104
  794MOL0     C 7078   6.511   6.792   1.094  0.0483 -0.7058 -0.2106
  794MOL0     O 7079   6.623   6.879   1.075  0.5414  0.4630  0.2888
  794MOL0     C 7080   6.745   6.830   1.107 -0.2769 -0.0041 -0.0150
  794MOL0     C 7081   6.807   6.889   1.211  0.0535 -0.0401 -0.1326
  794MOL0     C 7082   6.937   6.848   1.248 -0.0519 -0.3343 -0.2217
  794MOL0     C 7083   6.991   6.736   1.174 -0.2383  0.4584  0.7832
  794MOL0     C 7084   7.129   6.690   1.217  0.4386 -0.0227 -0.4006
  794MOL0     O 7085   7.210   6.640   1.124 -0.2227  0.1644 -0.0243
  794MOL0     C 7086   7.319   6.566   1.168  0.8183  0.6296  0.0669
  794MOL0     C 7087   7.303   6.438   1.228 -0.3348  0.2630  0.2217
  794MOL0     C 7088   7.423   6.371   1.274  1.2268 -0.3054 -0.1087
  794MOL0     C 7089   7.550   6.418   1.258  0.5462 -0.7706  0.3019
  794MOL0     O 7090   7.651   6.344   1.308  0.1313  0.1648 -0.3875
  794MOL0     C 7091   7.693   6.386   1.436  0.6033  0.5929 -0.3488
  794MOL0     C 7092   7.812   6.301   1.468 -0.6590  0.7882 -0.6418
  794MOL0     C 7093   7.934   6.338   1.378 -0.9926 -0.1975 -1.0532
  794MOL0     C 7094   8.013   6.441   1.468 -0.5033  1.1785 -0.4553
  794MOL0     C 7095   8.125   6.510   1.388  0.5212 -0.1447 -0.1452
  794MOL0     C 7096   8.089   6.596   1.266 -0.6570  0.4787 -0.1385
  794MOL0     C 7097   7.966   6.674   1.281  0.1890 -0.2575  0.1892
  794MOL0     C 7098   7.935   6.795   1.194 -0.0983  0.0767  0.1307
  794MOL0    Cl 7099   7.855   6.753   1.033 -0.0114  0.3212 -0.0716
  794MOL0     C 7100   7.567   6.545   1.190  0.1925 -0.3921 -0.5221
  794MOL0     C 7101   7.453   6.617   1.156 -0.0675 -0.0379  0.4177
  794MOL0     O 7102   7.151   6.690   1.342 -0.0963 -0.2456  0.3777
  794MOL0     C 7103   6.927   6.673   1.068  0.2666 -0.5239 -0.5918
  794MOL0     C 7104   6.797   6.718   1.036 -0.4287  0.6713  0.3163
  794MOL0     N 7105   6.198   7.204   0.955  0.3100  0.2491 -0.3740
  794MOL0     N 7106   6.133   7.308   0.920  0.2268 -0.0984 -0.2230
  794MOL0     C 7107   5.099   6.959   0.435  0.0517  0.4557  0.2048
  794MOL0     C 7108   4.967   6.912   0.441  0.4863  0.0667  0.0290
  794MOL0     C 7109   4.578   6.808   0.666 -0.0280 -0.0672 -0.8655
  794MOL0     C 7110   4.504   6.738   0.576  0.0373  1.0653 -0.4645
  794MOL0     C 7111   4.381   6.677   0.612  0.1324 -0.4290 -0.7957
  794MOL0     C 7112   4.332   6.697   0.739  0.2611 -1.2982 -0.7457
  794MOL0     O 7113   4.219   6.618   0.765 -0.1837  0.1649 -0.1798
  794MOL0     C 7114   4.179   6.581   0.900  0.6681 -0.4155 -0.1551
  794MOL0     C 7115   4.034   6.632   0.917 -0.2215 -0.2807 -0.3517
  794MOL0     C 7116   4.011   6.784   0.909 -0.2350  0.6592 -1.2213
  794MOL0     C 7117   3.864   6.820   0.947 -0.9835  0.1201 -0.3353
  794MOL0     C 7118   3.761   6.765   0.857  0.5336  0.3256  0.6287
  794MOL0     C 7119   3.659   6.721   0.805 -0.5357  0.5895 -0.2294
  794MOL0     C 7120   4.406   6.774   0.829 -0.3625 -0.1313  1.3753
  794MOL0     C 7121   4.530   6.831   0.794  0.7324 -0.8654 -0.0112
  794MOL0     C 7122   4.598   6.916   0.900  0.5211 -0.5190 -0.0355
  794MOL0     H 7123   4.970   6.792   0.761 -0.3364  0.8389  0.9826
  794MOL0     H 7124   5.176   6.895   0.773 -1.2001  2.4181  0.3821
  794MOL0     H 7125   5.263   7.171   0.420  3.2502  2.2244  0.4184
  794MOL0     H 7126   5.186   7.198   0.584 -0.7363 -0.5604  0.0641
  794MOL0     H 7127   5.384   7.354   0.563  1.4488  0.3086  0.3994
  794MOL0     H 7128   5.481   7.219   0.503 -0.6577  0.0979 -2.1839
  794MOL0     H 7129   5.477   7.117   0.725  0.4284 -0.8988 -0.0940
  794MOL0     H 7130   5.347   7.231   0.778  0.8674  0.6459  0.6646
  794MOL0     H 7131   5.540   7.413   0.736  1.6270  1.4434  3.4460
  794MOL0     H 7132   5.523   7.319   0.884  0.3194  1.2889  0.0837
  794MOL0     H 7133   5.706   7.152   0.797 -1.0977 -0.9754 -0.4632
  794MOL0     H 7134   5.697   7.251   0.647 -1.9551  0.8641 -0.3392
  794MOL0     H 7135   5.894   7.297   0.785  1.6684  1.9148  0.2409
  794MOL0     H 7136   5.789   7.437   0.759 -2.1718  0.7407  2.7082
  794MOL0     H 7137   5.741   7.306   1.025 -2.8355 -0.9543 -3.1447
  794MOL0     H 7138   5.729   7.475   0.966  2.1420  2.3135 -4.9513
  794MOL0     H 7139   5.957   7.517   0.940  0.1199  0.0472 -0.8918
  794MOL0     H 7140   5.931   7.476   1.108 -2.0150 -0.3746  0.4702
  794MOL0     H 7141   6.012   7.259   1.221  0.2643 -0.2371 -0.1097
  794MOL0     H 7142   6.233   7.101   1.271  0.4644 -0.9513  0.0636
  794MOL0     H 7143   6.147   6.990   1.180 -0.4868  0.6228  0.4483
  794MOL0     H 7144   6.347   6.992   1.005  2.4288  1.9054 -0.4644
  794MOL0     H 7145   6.442   7.074   1.124 -0.8032  0.3344  1.8643
  794MOL0     H 7146   6.321   6.786   1.179 -1.9254  1.3932 -0.7713
  794MOL0     H 7147   6.441   6.853   1.278  0.6439 -0.9422 -0.0000
  794MOL0     H 7148   6.478   6.761   0.994  1.2876 -1.8308 -0.2970
  794MOL0     H 7149   6.541   6.695   1.134  0.6371 -0.7463 -0.7243
  794MOL0     H 7150   6.773   6.984   1.252 -1.7706  0.0035 -1.6112
  794MOL0     H 7151   6.988   6.890   1.334 -3.0510 -1.7511  2.4269
  794MOL0     H 7152   7.198   6.410   1.237 -0.4756  1.1699  1.6461
  794MOL0     H 7153   7.402   6.278   1.326 -0.5885 -0.3967 -0.9268
  794MOL0     H 7154   7.719   6.492   1.426 -1.4846  1.1177 -0.5400
  794MOL0     H 7155   7.610   6.383   1.508  1.2758  0.1761  0.4262
  794MOL0     H 7156   7.826   6.327   1.573 -1.8887  1.9641 -0.7441
  794MOL0     H 7157   7.797   6.193   1.464 -0.8358  0.6143  2.5267
  794MOL0     H 7158   7.995   6.253   1.347  0.1522  1.3574 -3.3621
  794MOL0     H 7159   7.898   6.393   1.291 -0.3915  2.6491  0.3585
  794MOL0     H 7160   8.053   6.389   1.555  1.0016 -0.9643 -2.3191
  794MOL0     H 7161   7.942   6.514   1.508 -0.3837  0.5730  0.9302
  794MOL0     H 7162   8.199   6.436   1.357  0.2209 -0.8371  0.7464
  794MOL0     H 7163   8.175   6.573   1.462 -0.8311  1.5962 -0.6497
  794MOL0     H 7164   8.171   6.660   1.234  0.9427 -0.7145  1.3922
  794MOL0     H 7165   8.073   6.520   1.189 -0.8575 -0.6675  0.9809
  794MOL0     H 7166   7.980   6.719   1.380  0.2204 -1.4806  0.7603
  794MOL0     H 7167   7.874   6.615   1.286 -0.4871  0.6509 -1.0561
  794MOL0     H 7168   7.879   6.871   1.249 -0.9866  1.4410 -2.4972
  794MOL0     H 7169   8.030   6.844   1.169 -0.1560 -0.1372 -0.5220
  794MOL0     H 7170   7.667   6.584   1.174  0.7411 -2.2382 -1.9483
  794MOL0     H 7171   7.470   6.711   1.104  0.2220 -1.5813 -2.4604
  794MOL0     H 7172   6.965   6.590   1.008  0.6350  1.2496 -2.9271
  794MOL0     H 7173   6.735   6.666   0.964 -0.2593 -0.4637  0.9641
  794MOL0     H 7174   5.137   6.984   0.336 -0.8077 -1.0675 -0.5521
  794MOL0     H 7175   4.913   6.911   0.348 -0.1345 -0.6594  0.3896
  794MOL0     H 7176   4.541   6.714   0.477 -0.7448 -0.7076 -0.3635
  794MOL0     H 7177   4.330   6.613   0.541 -0.0909 -1.9815  0.7226
  794MOL0     H 7178   4.255   6.619   0.968  1.8551  0.0834 -1.6884
  794MOL0     H 7179   4.164   6.473   0.909 -0.9884 -0.0333  3.0544
  794MOL0     H 7180   3.999   6.592   1.013  1.6287 -0.2777  0.3616
  794MOL0     H 7181   3.965   6.587   0.846 -1.3395  0.7683  0.0358
  794MOL0     H 7182   4.032   6.815   0.806 -0.9870  0.2256 -1.5153
  794MOL0     H 7183   4.082   6.832   0.976 -0.6438  0.6032 -0.7438
  794MOL0     H 7184   3.847   6.777   1.047 -0.0159  0.7309  0.1058
  794MOL0     H 7185   3.857   6.929   0.945 -2.4465  0.0695  0.5476
  794MOL0     H 7186   3.580   6.675   0.748  0.8485 -3.6818  0.9358
  794MOL0     H 7187   4.373   6.802   0.928  3.2958  1.5864  2.2700
  794MOL0     H 7188   4.569   6.879   0.999 -1.2193  4.7807  1.7544
  794MOL0     H 7189   4.707   6.913   0.887  0.5529  1.5220 -0.4619
  794MOL0     H 7190   4.575   7.022   0.886  1.7719 -0.3633 -1.1503
  795MOL0     O 7191   0.233   4.641   9.645  0.1049 -0.0213  0.1165
  795MOL0     C 7192   0.146   4.714   9.595  1.1012  0.3734 -0.3238
  795MOL0     O 7193   0.168   4.839   9.557  0.0952 -0.2012  0.3817
  795MOL0     C 7194   0.305   4.874   9.543  0.3103 -0.2809  0.2766
  795MOL0     C 7195   0.387   4.823   9.442  0.9285 -0.6031  0.4659
  795MOL0     C 7196   0.524   4.855   9.441 -0.0534  0.9225  0.8919
  795MOL0     C 7197   0.575   4.936   9.534 -0.3070 -0.4266  0.3692
  795MOL0     O 7198   0.710   4.958   9.522  0.2666  0.2180 -0.0558
  795MOL0     C 7199   0.785   5.029   9.621 -0.1317 -0.0520 -0.4323
  795MOL0     C 7200   0.926   5.056   9.564  0.7358 -0.4681  0.0182
  795MOL0     C 7201   1.008   5.137   9.671  0.1630  0.4518  0.1877
  795MOL0     C 7202   1.154   5.152   9.617  0.6954  0.1101  1.0695
  795MOL0     C 7203   1.162   5.271   9.516  0.0113  0.0502  0.2533
  795MOL0     C 7204   1.298   5.333   9.484 -0.5597 -0.3765 -0.1955
  795MOL0     C 7205   1.297   5.473   9.417 -0.2626  0.0200 -0.3520
  795MOL0     C 7206   1.269   5.460   9.267  0.2688  0.5078 -0.7832
  795MOL0     N 7207   1.247   5.587   9.207  0.3354  0.0767  0.4112
  795MOL0     C 7208   1.336   5.687   9.204 -0.3052  0.0341  0.3649
  795MOL0     C 7209   1.262   5.794   9.147 -0.8053 -0.7182  0.4382
  795MOL0     C 7210   1.322   5.924   9.105 -0.5968 -0.1969 -0.3657
  795MOL0     C 7211   1.402   5.895   8.977  0.6290 -0.2632  0.4388
  795MOL0     C 7212   1.440   6.034   8.903 -0.2554  0.5925 -0.2628
  795MOL0     C 7213   1.505   6.023   8.771  0.2218  0.5215  0.2588
  795MOL0     O 7214   1.623   5.941   8.776  0.5157 -0.5493  0.4937
  795MOL0     C 7215   1.732   5.982   8.843  0.2203  0.6050  0.6121
  795MOL0     C 7216   1.817   5.876   8.886 -0.0954 -0.1490 -1.1471
  795MOL0     C 7217   1.940   5.906   8.939 -0.4812  0.0777  0.2907
  795MOL0     C 7218   1.989   6.041   8.962  0.1891 -0.0688  0.4858
  795MOL0     C 7219   2.120   6.075   9.013 -0.1210  0.0297 -0.2228
  795MOL0     O 7220   2.161   6.210   9.005  0.2026 -1.4173 -0.3123
  795MOL0     C 7221   2.283   6.231   9.061  0.0404 -0.3168 -0.2867
  795MOL0     C 7222   2.394   6.260   8.980 -0.5618  0.1478 -0.3298
  795MOL0     C 7223   2.527   6.293   9.031  1.1700  0.5289  0.2183
  795MOL0     C 7224   2.540   6.297   9.173 -0.4974 -0.2141  0.8355
  795MOL0     O 7225   2.669   6.325   9.216  0.2035 -0.3001 -0.2692
  795MOL0     C 7226   2.681   6.348   9.358  0.7663  0.4609  0.1345
  795MOL0     C 7227   2.824   6.394   9.388 -0.1335 -0.2225 -0.7490
  795MOL0     C 7228   2.927   6.280   9.409  1.0577  0.1355 -0.1495
  795MOL0     C 7229   2.964   6.238   9.270 -1.1737  0.6468  0.2994
  795MOL0     C 7230   3.067   6.120   9.251  0.1521  0.5110 -0.0570
  795MOL0     C 7231   3.198   6.137   9.323 -0.9164 -0.3893 -0.1264
  795MOL0     C 7232   3.286   6.010   9.295 -0.3062 -0.8702  0.0256
  795MOL0     C 7233   3.394   6.053   9.193 -0.1832  0.0616  0.5177
  795MOL0    Cl 7234   3.373   6.002   9.020 -0.2506  0.2222 -0.2369
  795MOL0     C 7235   2.428   6.259   9.252 -0.0950  0.0499 -0.2418
  795MOL0     C 7236   2.298   6.232   9.197 -0.2076 -0.0065 -0.3468
  795MOL0     O 7237   2.191   5.982   9.058 -0.1609 -0.1980 -0.3656
  795MOL0     C 7238   1.891   6.143   8.929 -0.1413 -0.4373  0.2091
  795MOL0     C 7239   1.770   6.117   8.865 -0.3114  0.6360 -0.0380
  795MOL0     N 7240   1.137   5.746   9.122  0.3470  0.0581 -0.0713
  795MOL0     N 7241   1.129   5.629   9.166  0.8260  0.1700  0.7076
  795MOL0     C 7242   0.496   5.000   9.631 -0.3033  0.5768  0.5996
  795MOL0     C 7243   0.358   4.971   9.633 -0.5161  0.3769 -0.5469
  795MOL0     C 7244   0.012   4.663   9.591  0.7081 -0.3273  0.3606
  795MOL0     C 7245  -0.083   4.747   9.524 -0.8661  0.8202  0.4996
  795MOL0     C 7246  -0.210   4.715   9.501 -0.6839 -0.3711 -0.3836
  795MOL0     C 7247  -0.259   4.602   9.562  0.3857  0.2926  0.3745
  795MOL0     O 7248  -0.395   4.582   9.555 -0.3037 -0.4509  0.2215
  795MOL0     C 7249  -0.482   4.685   9.603 -0.7412  0.4932  0.0117
  795MOL0     C 7250  -0.627   4.643   9.589 -0.3927  0.0575 -0.7264
  795MOL0     C 7251  -0.680   4.640   9.450  0.1344  0.5661  0.7229
  795MOL0     C 7252  -0.814   4.569   9.438 -0.6932 -0.1713 -0.0914
  795MOL0     C 7253  -0.866   4.576   9.307  0.4701 -0.8012 -0.8009
  795MOL0     C 7254  -0.922   4.588   9.202 -0.0151 -0.4259  0.0138
  795MOL0     C 7255  -0.173   4.512   9.628  0.0117 -0.5371 -0.1289
  795MOL0     C 7256  -0.039   4.538   9.630 -0.9787 -0.4435  0.1521
  795MOL0     C 7257   0.048   4.431   9.682  0.6004 -0.0956  0.1299
  795MOL0     H 7258   0.338   4.758   9.370 -0.9880  1.1611  0.0726
  795MOL0     H 7259   0.585   4.794   9.375 -3.8624 -3.3892  0.8612
  795MOL0     H 7260   0.728   5.121   9.634 -1.5524 -0.6165 -2.2601
  795MOL0     H 7261   0.806   4.975   9.714  1.8917 -0.4514 -1.0678
  795MOL0     H 7262   0.914   5.112   9.471  0.5282  0.7982  0.7769
  795MOL0     H 7263   0.972   4.958   9.546  1.0606 -0.4422  0.6774
  795MOL0     H 7264   1.013   5.075   9.761 -0.7169 -2.8153 -1.8164
  795MOL0     H 7265   0.971   5.237   9.693 -0.0343  0.9562 -2.1068
  795MOL0     H 7266   1.226   5.171   9.697  0.8952 -1.5363  1.3145
  795MOL0     H 7267   1.194   5.070   9.556 -2.0228 -1.1575  0.8236
  795MOL0     H 7268   1.134   5.232   9.418  0.5942 -0.5408  0.3188
  795MOL0     H 7269   1.092   5.349   9.547 -0.1080  1.3192 -2.9226
  795MOL0     H 7270   1.350   5.339   9.581 -0.8608 -1.8966  0.0736
  795MOL0     H 7271   1.356   5.265   9.422  2.3173  1.3888  0.3868
  795MOL0     H 7272   1.393   5.522   9.437 -0.8705  0.9028  0.4731
  795MOL0     H 7273   1.215   5.534   9.457  0.3311  1.4988 -1.3057
  795MOL0     H 7274   1.354   5.414   9.216  0.3493  0.6373 -0.7646
  795MOL0     H 7275   1.177   5.404   9.248  1.2124 -1.0246 -1.0680
  795MOL0     H 7276   1.438   5.690   9.242  0.0119 -2.4482 -0.1267
  795MOL0     H 7277   1.242   5.993   9.075 -0.7065 -0.8800 -1.6753
  795MOL0     H 7278   1.396   5.957   9.178  0.3873 -1.4860 -0.7456
  795MOL0     H 7279   1.498   5.852   9.004  0.3754 -0.2195  1.4642
  795MOL0     H 7280   1.338   5.832   8.913 -1.4555  2.3942 -0.2817
  795MOL0     H 7281   1.503   6.095   8.969  1.5557  1.5189 -2.7092
  795MOL0     H 7282   1.350   6.093   8.883  1.2892  2.4525 -2.1338
  795MOL0     H 7283   1.536   6.118   8.727  0.2926  0.5257  0.3179
  795MOL0     H 7284   1.432   5.986   8.699 -0.7573 -0.5310  1.7489
  795MOL0     H 7285   1.785   5.772   8.889  1.4456 -0.6300  0.7909
  795MOL0     H 7286   1.995   5.816   8.964 -1.0339 -1.1872 -2.6456
  795MOL0     H 7287   2.388   6.266   8.872  1.2904 -2.1176 -0.6416
  795MOL0     H 7288   2.614   6.323   8.973  0.7253  0.5252 -0.4589
  795MOL0     H 7289   2.610   6.419   9.400  0.6946  0.0011  0.8158
  795MOL0     H 7290   2.657   6.252   9.406 -0.5843  0.0222 -1.3448
  795MOL0     H 7291   2.852   6.458   9.305  0.3495 -1.3420 -1.4718
  795MOL0     H 7292   2.835   6.456   9.478 -1.9515  1.4141 -1.5941
  795MOL0     H 7293   3.022   6.310   9.455  0.0670  0.0248  2.0777
  795MOL0     H 7294   2.886   6.200   9.472  3.5687 -2.1734 -1.2151
  795MOL0     H 7295   3.006   6.326   9.222 -1.2177 -0.1352 -1.2338
  795MOL0     H 7296   2.882   6.203   9.207 -0.6501 -1.9460  0.9505
  795MOL0     H 7297   3.096   6.099   9.147  0.6354  1.2113 -0.0693
  795MOL0     H 7298   3.021   6.031   9.294  1.4223  0.5855  1.5062
  795MOL0     H 7299   3.247   6.232   9.301 -0.0456 -0.8841 -0.4089
  795MOL0     H 7300   3.180   6.157   9.429  3.5746  2.3672  0.3718
  795MOL0     H 7301   3.227   5.935   9.243  0.4494 -0.6536 -1.1670
  795MOL0     H 7302   3.325   5.970   9.389 -1.6046 -1.6241  0.2715
  795MOL0     H 7303   3.431   6.156   9.207  1.8433 -0.6551  0.7650
  795MOL0     H 7304   3.479   5.989   9.220  0.2174  0.2777 -0.1808
  795MOL0     H 7305   2.433   6.257   9.361  2.2097  1.4796 -0.2564
  795MOL0     H 7306   2.219   6.202   9.264 -0.4279 -1.2860 -1.1551
  795MOL0     H 7307   1.912   6.249   8.940 -1.5598 -0.0995 -0.0756
  795MOL0     H 7308   1.716   6.203   8.827 -0.8886 -0.0037 -0.7312
  795MOL0     H 7309   0.530   5.075   9.702 -0.1602 -1.9617  3.4372
  795MOL0     H 7310   0.294   4.997   9.717  2.5259 -0.4314  2.2253
  795MOL0     H 7311  -0.053   4.831   9.461  0.0060  0.1699  0.0193
  795MOL0     H 7312  -0.273   4.786   9.448 -0.0015 -0.0521 -0.7782
  795MOL0     H 7313  -0.466   4.781   9.552  0.2774 -1.0027 -2.7050
  795MOL0     H 7314  -0.455   4.692   9.709 -0.1992  0.6698 -0.1329
  795MOL0     H 7315  -0.684   4.704   9.660 -1.1320 -0.3328 -0.9688
  795MOL0     H 7316  -0.637   4.542   9.631  1.8793  0.3107  0.5581
  795MOL0     H 7317  -0.609   4.604   9.375  0.0887  1.3492  0.3004
  795MOL0     H 7318  -0.697   4.743   9.416 -1.9626  0.3644  1.0178
  795MOL0     H 7319  -0.808   4.462   9.460 -1.9740 -0.2235  0.0283
  795MOL0     H 7320  -0.890   4.612   9.504 -0.9213 -0.8073  0.0699
  795MOL0     H 7321  -0.982   4.585   9.113 -1.4235  0.9541  0.8649
  795MOL0     H 7322  -0.207   4.421   9.676 -0.2195  0.3826  1.5239
  795MOL0     H 7323   0.127   4.412   9.609  2.7042  1.5701  1.8285
  795MOL0     H 7324   0.104   4.458   9.772 -1.5917  1.1391  1.2196
  795MOL0     H 7325  -0.015   4.343   9.697  0.8426  0.0062  2.0023
  796MOL0     O 7326   2.388  10.514   0.965 -0.4781  0.3096 -0.1756
  796MOL0     C 7327   2.318  10.499   1.059 -0.5679  0.3328  0.0060
  796MOL0     O 7328   2.366  10.498   1.188 -0.2716  0.6914 -0.0096
  796MOL0     C 7329   2.487  10.543   1.226 -0.2250 -1.0456 -0.4809
  796MOL0     C 7330   2.595  10.588   1.151  0.1468  0.0329  0.0837
  796MOL0     C 7331   2.707  10.638   1.214 -0.2034 -0.1826 -0.2481
  796MOL0     C 7332   2.721  10.651   1.350  0.7064  0.5307  1.2290
  796MOL0     O 7333   2.835  10.711   1.399 -0.1427  0.0655  0.0517
  796MOL0     C 7334   2.854  10.685   1.545 -0.8575  0.0162 -0.5036
  796MOL0     C 7335   2.990  10.731   1.598 -0.8542  0.0911 -0.5620
  796MOL0     C 7336   3.111  10.662   1.531 -0.2423 -0.7340 -0.1983
  796MOL0     C 7337   3.235  10.741   1.567 -0.5769 -0.1506  0.9307
  796MOL0     C 7338   3.351  10.700   1.469  0.0344 -0.0480  0.3025
  796MOL0     C 7339   3.480  10.784   1.495 -0.1564 -0.8073  0.5401
  796MOL0     C 7340   3.551  10.762   1.626  1.0596  0.3504  0.1113
  796MOL0     C 7341   3.591  10.616   1.643  0.1172 -0.7428  0.6369
  796MOL0     N 7342   3.726  10.594   1.594 -0.0242 -1.2204 -0.1120
  796MOL0     C 7343   3.754  10.548   1.475 -0.4176  0.1456 -0.1647
  796MOL0     C 7344   3.890  10.554   1.471 -1.0408 -0.5193  0.3381
  796MOL0     C 7345   3.981  10.485   1.376  0.0731  0.2271  0.0241
  796MOL0     C 7346   4.122  10.553   1.355 -0.2795 -0.0263  0.4011
  796MOL0     C 7347   4.197  10.487   1.249 -0.6186 -0.8179 -0.1408
  796MOL0     C 7348   4.343  10.548   1.235  0.4328 -0.2965 -0.7435
  796MOL0     O 7349   4.410  10.476   1.133 -0.2902  0.4490 -0.2537
  796MOL0     C 7350   4.548  10.492   1.137 -0.2337 -0.2311  0.6398
  796MOL0     C 7351   4.604  10.419   1.035 -0.4715  0.1242  0.4590
  796MOL0     C 7352   4.734  10.447   0.994 -0.8315 -0.6423 -0.7616
  796MOL0     C 7353   4.811  10.536   1.063 -0.3212 -0.2209 -0.0658
  796MOL0     C 7354   4.959  10.549   1.031  0.8292 -0.6252 -0.0504
  796MOL0     O 7355   5.036  10.577   1.136  0.0086 -0.3487  0.3235
  796MOL0     C 7356   5.170  10.582   1.121 -0.3898 -1.0250  0.5570
  796MOL0     C 7357   5.233  10.689   1.052 -0.3720 -0.2465  0.3376
  796MOL0     C 7358   5.369  10.687   1.029 -0.5392  0.2836  0.6124
  796MOL0     C 7359   5.444  10.566   1.058 -0.3783 -1.0546  0.1894
  796MOL0     O 7360   5.580  10.559   1.016 -0.7627  0.5233  0.4352
  796MOL0     C 7361   5.636  10.424   1.029 -0.0856 -0.1619 -1.0412
  796MOL0     C 7362   5.772  10.423   0.968  0.1663  0.1959  0.0606
  796MOL0     C 7363   5.831  10.284   0.974  0.4237 -0.1631 -0.5072
  796MOL0     C 7364   5.976  10.286   0.947 -0.0885  0.3725  0.1051
  796MOL0     C 7365   6.045  10.146   0.969  0.2029 -0.3589 -1.2359
  796MOL0     C 7366   6.179  10.173   1.041  0.1462 -0.5234  0.6746
  796MOL0     C 7367   6.260  10.053   1.002 -0.3826  0.2376  0.8742
  796MOL0     C 7368   6.385  10.036   1.079  0.4697 -0.8450  0.4962
  796MOL0    Cl 7369   6.353  10.041   1.261  0.3182 -0.1758  0.4095
  796MOL0     C 7370   5.383  10.471   1.142 -0.2071  0.2061  0.3997
  796MOL0     C 7371   5.245  10.480   1.175  0.2891  0.7002 -0.1722
  796MOL0     O 7372   4.998  10.514   0.919 -0.5381  0.2460  0.0944
  796MOL0     C 7373   4.753  10.608   1.172 -0.1809  0.2707 -0.8389
  796MOL0     C 7374   4.622  10.580   1.211  0.4578 -0.4330 -0.8134
  796MOL0     N 7375   3.941  10.609   1.587  0.3701 -0.2076  0.3746
  796MOL0     N 7376   3.836  10.629   1.658 -0.4262  0.0342 -0.2436
  796MOL0     C 7377   2.625  10.586   1.425 -0.7997  0.3274 -0.4305
  796MOL0     C 7378   2.505  10.540   1.367  0.7376  0.6277 -0.3695
  796MOL0     C 7379   2.179  10.459   1.048  0.0106 -0.1787  0.8055
  796MOL0     C 7380   2.134  10.366   1.136  0.0616  0.1332 -0.2909
  796MOL0     C 7381   2.000  10.325   1.137  0.2020 -0.5739  0.1835
  796MOL0     C 7382   1.907  10.387   1.057  0.9439  0.4466 -0.7463
  796MOL0     O 7383   1.769  10.360   1.061  0.4469 -0.0662  0.4232
  796MOL0     C 7384   1.712  10.280   1.172  0.2280  0.5934  0.1783
  796MOL0     C 7385   1.560  10.294   1.178  0.6133  0.0335  0.8538
  796MOL0     C 7386   1.476  10.256   1.053  0.0763 -0.8940 -0.2637
  796MOL0     C 7387   1.501  10.112   0.999  0.2264 -0.7748 -0.4861
  796MOL0     C 7388   1.489  10.011   1.107  0.0225 -0.1856 -1.1401
  796MOL0     C 7389   1.491   9.921   1.197 -0.6705 -0.3565  0.3385
  796MOL0     C 7390   1.949  10.484   0.971 -0.0468 -0.9186 -0.0257
  796MOL0     C 7391   2.087  10.515   0.951  0.3262 -0.4120 -0.1160
  796MOL0     C 7392   2.122  10.620   0.846  0.4540 -0.3801  0.6856
  796MOL0     H 7393   2.602  10.597   1.043  0.4593  0.6503  0.1497
  796MOL0     H 7394   2.780  10.684   1.149 -0.7808 -0.3801 -1.0615
  796MOL0     H 7395   2.777  10.734   1.605  0.7283 -0.1697  1.8140
  796MOL0     H 7396   2.851  10.578   1.568  2.2472 -0.5556 -2.1599
  796MOL0     H 7397   3.002  10.714   1.705  1.4941  1.8402 -0.4674
  796MOL0     H 7398   2.992  10.840   1.585  1.8602  0.2385  0.3317
  796MOL0     H 7399   3.092  10.667   1.424  0.3211  0.1146 -0.2738
  796MOL0     H 7400   3.114  10.556   1.557  3.3923 -0.4225  1.2769
  796MOL0     H 7401   3.206  10.845   1.552  0.8420  0.0368 -0.9218
  796MOL0     H 7402   3.262  10.725   1.672  0.8426 -0.5245  0.5348
  796MOL0     H 7403   3.363  10.591   1.479  2.3239  0.3758  4.9076
  796MOL0     H 7404   3.311  10.731   1.373  0.2409  0.6496  0.4385
  796MOL0     H 7405   3.552  10.771   1.413 -1.3100  1.4697 -0.9401
  796MOL0     H 7406   3.461  10.891   1.499  2.6918 -0.1653 -0.4982
  796MOL0     H 7407   3.475  10.794   1.698 -0.8758 -0.4155 -1.4961
  796MOL0     H 7408   3.640  10.822   1.647  1.6612 -1.0270  1.8206
  796MOL0     H 7409   3.584  10.592   1.750 -2.2533  1.6123  1.0967
  796MOL0     H 7410   3.523  10.551   1.588 -0.4294 -1.5792  2.2340
  796MOL0     H 7411   3.690  10.501   1.401  0.6409  0.9398 -1.6064
  796MOL0     H 7412   3.997  10.381   1.407  0.9120  1.1334  2.8906
  796MOL0     H 7413   3.932  10.486   1.278  1.6646  0.8104 -0.7944
  796MOL0     H 7414   4.104  10.659   1.334  0.2516 -0.2127 -1.0671
  796MOL0     H 7415   4.182  10.545   1.446  1.3550  0.6656 -0.5737
  796MOL0     H 7416   4.150  10.519   1.156 -0.1100 -0.7886 -0.3891
  796MOL0     H 7417   4.193  10.378   1.253  1.6478 -0.9212  0.9351
  796MOL0     H 7418   4.398  10.530   1.328  0.7146 -1.4381 -1.1161
  796MOL0     H 7419   4.342  10.655   1.214 -1.9850  0.3694  2.1168
  796MOL0     H 7420   4.543  10.358   0.969 -0.6806  0.6726  0.1420
  796MOL0     H 7421   4.769  10.393   0.907  1.3716  1.4014 -1.2684
  796MOL0     H 7422   5.162  10.766   1.024  0.7369  0.8648  0.4794
  796MOL0     H 7423   5.411  10.775   0.982 -1.4188 -0.5109 -1.8649
  796MOL0     H 7424   5.654  10.398   1.134  3.4609 -2.0400 -1.9365
  796MOL0     H 7425   5.569  10.348   0.989 -1.8845  1.2642 -0.8901
  796MOL0     H 7426   5.772  10.447   0.862  4.4567 -1.0646 -0.4271
  796MOL0     H 7427   5.841  10.488   1.023  2.1197 -1.1273 -0.7227
  796MOL0     H 7428   5.808  10.234   1.068 -0.2676  0.9594 -0.0465
  796MOL0     H 7429   5.779  10.222   0.900 -1.4046 -0.8294  1.2583
  796MOL0     H 7430   6.017  10.363   1.013  0.4138 -0.1525  0.4170
  796MOL0     H 7431   5.987  10.318   0.843 -0.4942 -0.9666 -0.3726
  796MOL0     H 7432   6.072  10.101   0.873  0.9257  2.1233 -2.2750
  796MOL0     H 7433   5.990  10.087   1.043  0.1504  0.9000 -0.2224
  796MOL0     H 7434   6.234  10.265   1.021 -1.1889  0.5480  1.6828
  796MOL0     H 7435   6.153  10.165   1.147 -2.2736 -1.1681  0.1029
  796MOL0     H 7436   6.291  10.055   0.897  3.2838  2.1910  1.8143
  796MOL0     H 7437   6.195   9.966   1.015 -1.3608  0.7335 -0.5516
  796MOL0     H 7438   6.413   9.932   1.059 -0.6297 -1.4641  1.9960
  796MOL0     H 7439   6.462  10.107   1.046 -1.1129  0.1892 -1.2000
  796MOL0     H 7440   5.442  10.396   1.193  0.0590 -0.4894 -0.8911
  796MOL0     H 7441   5.200  10.394   1.225  0.3457 -0.1065 -1.4668
  796MOL0     H 7442   4.809  10.683   1.227 -1.2140  1.2642 -1.1106
  796MOL0     H 7443   4.582  10.626   1.301  0.8191 -0.4902 -0.6220
  796MOL0     H 7444   2.632  10.583   1.533  1.5612 -0.2123 -0.5527
  796MOL0     H 7445   2.425  10.503   1.430  0.8635 -3.3557 -2.2754
  796MOL0     H 7446   2.200  10.333   1.216 -1.1083 -1.4114  0.0770
  796MOL0     H 7447   1.962  10.257   1.213 -2.1836 -0.7793 -1.0761
  796MOL0     H 7448   1.768  10.303   1.263  2.6062 -0.9656 -0.7833
  796MOL0     H 7449   1.741  10.178   1.145 -0.2688  0.1309  1.3270
  796MOL0     H 7450   1.527  10.393   1.212 -0.9216  0.1926 -0.9615
  796MOL0     H 7451   1.512  10.239   1.261 -2.2924  1.2247  0.0913
  796MOL0     H 7452   1.521  10.327   0.982  0.4453  1.0725  1.8005
  796MOL0     H 7453   1.370  10.281   1.047 -0.0116 -1.4061 -0.8481
  796MOL0     H 7454   1.433  10.091   0.917 -2.5395  3.5658  0.3345
  796MOL0     H 7455   1.600  10.103   0.953 -0.4909 -0.0203 -2.2807
  796MOL0     H 7456   1.506   9.859   1.283  2.0302 -1.4618 -0.8334
  796MOL0     H 7457   1.867  10.533   0.921  0.2644 -0.1349  0.2092
  796MOL0     H 7458   2.182  10.568   0.771 -0.5180 -1.1575  0.4162
  796MOL0     H 7459   2.035  10.666   0.797  1.0985  0.7847  0.6096
  796MOL0     H 7460   2.169  10.706   0.893  2.6397 -0.6774 -0.8056
  797MOL0     O 7461  10.643   0.992   1.642 -0.1254  1.0793  0.8221
  797MOL0     C 7462  10.527   0.958   1.643 -0.1470 -0.5276  0.2231
  797MOL0     O 7463  10.483   0.825   1.654  0.1053  0.0555 -0.6457
  797MOL0     C 7464  10.581   0.723   1.659  0.0078 -0.1163 -0.2747
  797MOL0     C 7465  10.683   0.725   1.753  0.2000  0.4684  0.1558
  797MOL0     C 7466  10.781   0.625   1.751  0.0963  0.4267 -0.7404
  797MOL0     C 7467  10.777   0.525   1.660 -0.8547  0.0991 -0.4298
  797MOL0     O 7468  10.874   0.435   1.640  0.7561 -0.0558  0.8468
  797MOL0     C 7469  10.999   0.447   1.714 -0.5364 -0.0528 -0.1034
  797MOL0     C 7470  11.099   0.348   1.644  0.5010  1.1053 -0.4197
  797MOL0     C 7471  11.232   0.358   1.727  0.1357  0.7290  0.0779
  797MOL0     C 7472  11.345   0.270   1.667 -0.2843 -0.1223  0.0901
  797MOL0     C 7473  11.476   0.296   1.752  0.8541 -0.3404 -0.2683
  797MOL0     C 7474  11.586   0.195   1.708  0.6015  0.4889  0.3201
  797MOL0     C 7475  11.563   0.054   1.746 -0.0454  0.0955 -0.3513
  797MOL0     C 7476  11.681  -0.040   1.712 -0.0672  0.2817 -0.5292
  797MOL0     N 7477  11.654  -0.177   1.746  0.4239  0.0224  0.7325
  797MOL0     C 7478  11.611  -0.215   1.867  0.2258  0.6917  0.0773
  797MOL0     C 7479  11.626  -0.350   1.867 -0.6748 -0.4864 -0.2379
  797MOL0     C 7480  11.598  -0.429   1.988 -0.4117  0.7641 -0.8120
  797MOL0     C 7481  11.540  -0.571   1.957 -0.4443 -1.1406 -0.2995
  797MOL0     C 7482  11.393  -0.549   1.915  0.2121 -0.1609  0.5545
  797MOL0     C 7483  11.332  -0.668   1.839  0.0796  0.1305 -0.4379
  797MOL0     O 7484  11.191  -0.647   1.818 -0.1628 -0.5093 -0.7226
  797MOL0     C 7485  11.121  -0.708   1.728 -0.4378  0.8227  0.2216
  797MOL0     C 7486  10.997  -0.657   1.710 -0.0613  0.1133 -0.2041
  797MOL0     C 7487  10.906  -0.738   1.636 -0.3246 -1.1504 -0.2233
  797MOL0     C 7488  10.938  -0.853   1.569 -0.0071  1.1297 -0.2875
  797MOL0     C 7489  10.845  -0.922   1.483 -0.1961  0.3568 -0.2965
  797MOL0     O 7490  10.732  -0.848   1.447  0.5257 -0.4808  0.0658
  797MOL0     C 7491  10.634  -0.904   1.371 -0.4029 -0.0270  0.9411
  797MOL0     C 7492  10.514  -0.837   1.376  0.0358 -0.6875 -0.1367
  797MOL0     C 7493  10.406  -0.865   1.290  0.4188 -0.6075  0.3392
  797MOL0     C 7494  10.431  -0.950   1.178  0.3743  0.1589 -0.6757
  797MOL0     O 7495  10.324  -0.983   1.100  0.3505  0.6723  0.3948
  797MOL0     C 7496  10.354  -1.056   0.991 -0.0181  0.1585  0.2349
  797MOL0     C 7497  10.229  -1.094   0.917  0.5561 -0.5469 -0.0555
  797MOL0     C 7498  10.182  -0.965   0.846  0.2554 -0.3622  0.4399
  797MOL0     C 7499  10.072  -1.003   0.743  0.4017 -0.8477 -0.4466
  797MOL0     C 7500   9.962  -0.902   0.746  0.0601  0.9225  0.1231
  797MOL0     C 7501  10.010  -0.774   0.682 -0.6083 -0.3351 -0.2674
  797MOL0     C 7502   9.923  -0.644   0.709  0.5790 -0.1058 -0.2318
  797MOL0     C 7503   9.881  -0.624   0.855 -0.1904 -0.2615 -0.2627
  797MOL0    Cl 7504   9.820  -0.457   0.869 -0.0506  0.4139  0.2316
  797MOL0     C 7505  10.544  -1.023   1.179  0.2022 -0.3959  0.2617
  797MOL0     C 7506  10.648  -1.005   1.271  0.2350  0.0601  0.2359
  797MOL0     O 7507  10.865  -1.039   1.455 -0.0450  0.3145 -0.1721
  797MOL0     C 7508  11.064  -0.906   1.592 -0.9034 -0.2337 -0.0220
  797MOL0     C 7509  11.157  -0.832   1.667  0.0481  0.1991  0.5894
  797MOL0     N 7510  11.661  -0.390   1.737 -0.0546 -1.0573  0.0209
  797MOL0     N 7511  11.676  -0.288   1.665  0.0935  0.7099 -0.1377
  797MOL0     C 7512  10.667   0.512   1.578 -0.5021  0.0511 -0.2974
  797MOL0     C 7513  10.570   0.616   1.581  0.0774  0.2268  0.8022
  797MOL0     C 7514  10.418   1.060   1.650  1.0161 -0.7153  0.1579
  797MOL0     C 7515  10.289   1.010   1.679  0.3019 -0.1319  0.2269
  797MOL0     C 7516  10.178   1.097   1.693  0.0274  0.4200 -1.1864
  797MOL0     C 7517  10.194   1.233   1.679  0.2589 -0.4702 -0.7945
  797MOL0     O 7518  10.093   1.310   1.700  0.2285  0.1406  0.2380
  797MOL0     C 7519  10.089   1.436   1.638  0.0912  0.2559 -0.1532
  797MOL0     C 7520   9.941   1.475   1.658 -0.7010  0.2112 -0.3405
  797MOL0     C 7521   9.914   1.545   1.793  0.2485  0.1476  0.3866
  797MOL0     C 7522   9.784   1.500   1.849 -0.2198  0.4696  0.3063
  797MOL0     C 7523   9.673   1.521   1.763  0.1365  0.0801  0.3967
  797MOL0     C 7524   9.580   1.531   1.686  0.3383  0.2795  0.4224
  797MOL0     C 7525  10.315   1.289   1.654 -0.0625 -0.1786 -0.3721
  797MOL0     C 7526  10.433   1.204   1.650  0.3178  0.5024 -0.2374
  797MOL0     C 7527  10.562   1.280   1.627  0.4830  0.7230  0.6754
  797MOL0     H 7528  10.681   0.804   1.828 -3.6241  2.1963 -1.5056
  797MOL0     H 7529  10.847   0.633   1.836 -1.0542 -1.2277  0.3726
  797MOL0     H 7530  11.037   0.548   1.696 -2.4884  0.5964 -0.7524
  797MOL0     H 7531  10.988   0.423   1.820  1.2776 -1.1125 -0.1225
  797MOL0     H 7532  11.124   0.367   1.539  0.2665  0.3310 -0.6212
  797MOL0     H 7533  11.065   0.245   1.657  0.6886  1.1443  0.3985
  797MOL0     H 7534  11.227   0.317   1.828  2.8405 -3.0492 -1.0761
  797MOL0     H 7535  11.257   0.464   1.739 -2.4325  1.9874 -3.7663
  797MOL0     H 7536  11.320   0.164   1.671 -1.4283  0.1690  1.7379
  797MOL0     H 7537  11.368   0.292   1.562  0.0241  0.1977  0.2230
  797MOL0     H 7538  11.521   0.394   1.738 -0.1887  0.5145  1.8170
  797MOL0     H 7539  11.462   0.287   1.860  0.2858  2.4784 -0.0218
  797MOL0     H 7540  11.583   0.202   1.599  1.5630  0.1473  0.2546
  797MOL0     H 7541  11.685   0.228   1.742  1.7840 -2.7718  0.4160
  797MOL0     H 7542  11.476   0.003   1.704  1.4517 -4.4639  1.4571
  797MOL0     H 7543  11.553   0.063   1.854  1.0736  4.7544 -0.4002
  797MOL0     H 7544  11.695  -0.021   1.605 -2.3000  2.5283 -0.5128
  797MOL0     H 7545  11.765  -0.001   1.771 -1.2997  3.2423 -0.5410
  797MOL0     H 7546  11.585  -0.147   1.949 -0.5774  3.3504 -2.2111
  797MOL0     H 7547  11.687  -0.438   2.051 -1.7118 -2.0501  0.7850
  797MOL0     H 7548  11.531  -0.367   2.049  2.4031  1.7416  1.4940
  797MOL0     H 7549  11.596  -0.621   1.878  0.2025 -0.9707  0.0483
  797MOL0     H 7550  11.546  -0.631   2.048  1.4753 -0.9713 -0.2778
  797MOL0     H 7551  11.394  -0.466   1.844  0.8587 -0.8709 -0.2843
  797MOL0     H 7552  11.338  -0.521   2.005  1.9265  0.3509  1.5098
  797MOL0     H 7553  11.343  -0.761   1.895 -1.6836 -0.1762 -0.5527
  797MOL0     H 7554  11.380  -0.691   1.743 -0.0203  0.1297 -0.4885
  797MOL0     H 7555  10.970  -0.577   1.778  0.5247  1.5078 -1.5374
  797MOL0     H 7556  10.806  -0.695   1.640  0.0507 -0.3220  0.8654
  797MOL0     H 7557  10.511  -0.760   1.453 -1.4004  0.0617 -0.9193
  797MOL0     H 7558  10.309  -0.819   1.307  1.3950  2.5119 -1.5273
  797MOL0     H 7559  10.418  -0.995   0.927 -0.4378 -0.6625 -0.9939
  797MOL0     H 7560  10.396  -1.154   1.017 -1.8592 -0.6757  0.2321
  797MOL0     H 7561  10.269  -1.165   0.844 -0.3559 -3.0722  1.7356
  797MOL0     H 7562  10.146  -1.153   0.957 -2.5999  2.4783 -1.5184
  797MOL0     H 7563  10.155  -0.882   0.912 -1.3453 -0.5081  0.0209
  797MOL0     H 7564  10.267  -0.927   0.789 -0.5874 -0.9278 -1.2512
  797MOL0     H 7565  10.021  -1.097   0.765 -0.4821 -0.3240 -0.1831
  797MOL0     H 7566  10.125  -0.996   0.648  2.1918  3.1962  0.6120
  797MOL0     H 7567   9.927  -0.886   0.848  2.2254  0.5155  0.9811
  797MOL0     H 7568   9.879  -0.941   0.687  1.6878  0.2634 -1.8407
  797MOL0     H 7569  10.110  -0.753   0.721  0.4153 -2.1373 -1.7746
  797MOL0     H 7570  10.019  -0.793   0.575  2.0155  1.3377 -0.4251
  797MOL0     H 7571   9.831  -0.675   0.659 -0.5725  3.0020 -0.2735
  797MOL0     H 7572   9.960  -0.555   0.657 -1.6311  0.1316 -1.5195
  797MOL0     H 7573   9.811  -0.697   0.897  0.7349  0.1791  2.2775
  797MOL0     H 7574   9.966  -0.628   0.925  0.0773 -0.2854 -0.5893
  797MOL0     H 7575  10.562  -1.099   1.103 -3.3740  0.7631 -1.9833
  797MOL0     H 7576  10.730  -1.074   1.256 -0.0283 -0.3938  0.8170
  797MOL0     H 7577  11.087  -1.009   1.567 -1.4510 -0.4725  0.4191
  797MOL0     H 7578  11.252  -0.879   1.693  1.0060 -0.4405 -3.3908
  797MOL0     H 7579  10.666   0.432   1.504  0.5095  1.1662 -1.5837
  797MOL0     H 7580  10.493   0.591   1.509  0.7948  0.3343 -0.0186
  797MOL0     H 7581  10.267   0.904   1.690 -0.3026  0.0226  0.5315
  797MOL0     H 7582  10.075   1.064   1.702 -0.7120  2.2328 -2.3603
  797MOL0     H 7583  10.118   1.435   1.533  2.2223  3.0120  0.2876
  797MOL0     H 7584  10.152   1.513   1.684 -2.2385  2.3795 -0.3027
  797MOL0     H 7585   9.879   1.386   1.642 -0.9918 -0.6855  4.2678
  797MOL0     H 7586   9.914   1.537   1.572 -2.6535 -1.5990 -1.1351
  797MOL0     H 7587   9.906   1.652   1.772  0.1760  0.0543 -0.0827
  797MOL0     H 7588   9.985   1.524   1.873  0.9461 -0.3333 -0.3394
  797MOL0     H 7589   9.775   1.393   1.870 -2.7740  0.7971  1.2152
  797MOL0     H 7590   9.771   1.558   1.941 -0.9012 -1.2973  1.3684
  797MOL0     H 7591   9.491   1.540   1.627 -0.4004  0.0683  1.4845
  797MOL0     H 7592  10.332   1.396   1.661 -2.2655  0.1379  1.4968
  797MOL0     H 7593  10.555   1.387   1.610  1.6675  1.3531  3.5302
  797MOL0     H 7594  10.621   1.279   1.719  1.2377  1.9290  0.2277
  797MOL0     H 7595  10.612   1.228   1.545  1.5708  1.1793  1.0395
  798MOL0     O 7596  10.134   3.364   3.854  0.0879 -0.2178  0.3449
  798MOL0     C 7597  10.051   3.275   3.844  0.0702 -0.1581  0.2266
  798MOL0     O 7598  10.074   3.143   3.877  0.0138  0.6017 -0.3788
  798MOL0     C 7599  10.204   3.092   3.886 -0.1914 -0.0269 -0.2237
  798MOL0     C 7600  10.308   3.118   3.797 -0.2819 -0.9853 -0.4527
  798MOL0     C 7601  10.432   3.056   3.802  0.8800  0.0196 -0.6568
  798MOL0     C 7602  10.445   2.947   3.893 -0.5482 -0.1287  0.1550
  798MOL0     O 7603  10.571   2.905   3.887  0.7502  0.2799  0.3901
  798MOL0     C 7604  10.612   2.778   3.941 -0.3515 -0.4815 -0.4227
  798MOL0     C 7605  10.736   2.718   3.874 -0.0867 -1.1602  0.6564
  798MOL0     C 7606  10.781   2.586   3.938  0.4617  0.9738 -0.3310
  798MOL0     C 7607  10.682   2.473   3.912 -0.5839 -0.5802  0.3705
  798MOL0     C 7608  10.749   2.333   3.931 -0.2562  0.3757 -0.4564
  798MOL0     C 7609  10.812   2.304   4.076 -0.0365  0.2040  0.1676
  798MOL0     C 7610  10.858   2.158   4.101  0.4075 -0.5113  0.3441
  798MOL0     C 7611  11.010   2.165   4.066  0.0469  0.1072 -1.1847
  798MOL0     N 7612  11.080   2.052   4.130  0.0685  0.4581 -0.6685
  798MOL0     C 7613  11.089   1.925   4.080 -0.5732 -0.2991 -0.2853
  798MOL0     C 7614  11.157   1.864   4.180 -0.4444 -0.3741 -0.5623
  798MOL0     C 7615  11.218   1.725   4.148  0.4341  0.5095  0.1905
  798MOL0     C 7616  11.217   1.632   4.266  0.3577 -0.0760 -0.3785
  798MOL0     C 7617  11.282   1.492   4.234  0.4949 -0.4087 -0.4585
  798MOL0     C 7618  11.428   1.481   4.265 -0.3888  0.6551  0.7540
  798MOL0     O 7619  11.495   1.482   4.136  0.4036 -0.4226 -0.4448
  798MOL0     C 7620  11.624   1.435   4.139 -0.2265  0.9587 -0.1771
  798MOL0     C 7621  11.707   1.429   4.254 -0.2663  0.0045 -0.0018
  798MOL0     C 7622  11.849   1.395   4.247 -0.1625  0.0288  0.4652
  798MOL0     C 7623  11.905   1.368   4.117  0.9384 -0.0429  0.8553
  798MOL0     C 7624  12.045   1.341   4.106  0.4729  0.6113 -0.2941
  798MOL0     O 7625  12.115   1.381   4.000 -0.4058  0.6929  0.3299
  798MOL0     C 7626  12.258   1.369   3.992  0.3496 -1.1804 -0.6362
  798MOL0     C 7627  12.321   1.281   3.905 -0.1028  0.0013  0.8747
  798MOL0     C 7628  12.459   1.263   3.905  0.2808  0.1328 -0.0621
  798MOL0     C 7629  12.543   1.327   3.998  0.0791  0.4178 -0.4695
  798MOL0     O 7630  12.675   1.292   3.994 -0.0049  0.2970  0.0604
  798MOL0     C 7631  12.775   1.352   4.076 -0.0503  0.5533 -0.4130
  798MOL0     C 7632  12.901   1.305   4.018 -0.8509  0.1152 -1.1851
  798MOL0     C 7633  13.023   1.371   4.087 -0.0827 -0.2247 -0.4110
  798MOL0     C 7634  13.145   1.315   4.020 -0.3475  0.3233 -0.5641
  798MOL0     C 7635  13.275   1.369   4.085  0.4525  0.2758 -0.1716
  798MOL0     C 7636  13.405   1.292   4.051 -0.9977 -0.2734  0.2861
  798MOL0     C 7637  13.520   1.300   4.151  0.3845  0.4030  0.7225
  798MOL0     C 7638  13.563   1.442   4.172  0.4125 -0.2405 -0.4946
  798MOL0    Cl 7639  13.680   1.492   4.038  0.2017 -0.0394  0.5837
  798MOL0     C 7640  12.483   1.414   4.088  0.4307  0.4348 -0.2350
  798MOL0     C 7641  12.347   1.443   4.079  0.4052  0.4905 -0.8668
  798MOL0     O 7642  12.087   1.280   4.199  0.2502 -0.6207  1.0366
  798MOL0     C 7643  11.803   1.350   4.013 -1.0227 -0.1208 -0.0022
  798MOL0     C 7644  11.673   1.379   4.029 -0.1340  0.0400  1.0723
  798MOL0     N 7645  11.195   1.944   4.285 -0.0311 -0.4079 -0.0743
  798MOL0     N 7646  11.143   2.055   4.255  0.5089  0.2560 -0.2250
  798MOL0     C 7647  10.346   2.915   3.981  0.1924 -0.7423 -0.4581
  798MOL0     C 7648  10.225   2.994   3.986  0.7063 -0.1443 -0.0989
  798MOL0     C 7649   9.903   3.304   3.823 -0.3313 -0.1252 -0.8105
  798MOL0     C 7650   9.844   3.204   3.747 -0.0858  0.6888  0.2622
  798MOL0     C 7651   9.705   3.204   3.746  0.7051  0.1914  0.4759
  798MOL0     C 7652   9.624   3.293   3.808 -0.2125 -0.1955  0.5057
  798MOL0     O 7653   9.485   3.290   3.791  0.1454  0.2530 -0.7474
  798MOL0     C 7654   9.442   3.353   3.671  0.4605 -0.1283 -0.6280
  798MOL0     C 7655   9.381   3.492   3.707 -0.0329 -0.0497 -0.0628
  798MOL0     C 7656   9.259   3.475   3.797  0.4955 -1.2694  0.2353
  798MOL0     C 7657   9.211   3.614   3.842 -0.1419  0.7726 -0.2058
  798MOL0     C 7658   9.168   3.702   3.735  0.3733  0.7770  0.5958
  798MOL0     C 7659   9.145   3.780   3.657 -1.0716  0.5033 -0.7310
  798MOL0     C 7660   9.680   3.390   3.882 -0.7503  0.2770 -0.3891
  798MOL0     C 7661   9.822   3.393   3.891  0.1620 -0.6469  0.4071
  798MOL0     C 7662   9.878   3.494   3.995  0.6980  0.5332  0.0233
  798MOL0     H 7663  10.296   3.185   3.712  0.8617  0.6283  0.5955
  798MOL0     H 7664  10.514   3.088   3.738  1.1316  1.4585  0.3290
  798MOL0     H 7665  10.631   2.800   4.047 -1.8636  1.6701 -0.5415
  798MOL0     H 7666  10.530   2.707   3.928  0.8392 -1.5291 -2.8399
  798MOL0     H 7667  10.816   2.791   3.891 -0.1493 -1.0008  0.2821
  798MOL0     H 7668  10.726   2.717   3.765  0.8780 -0.1105  0.5460
  798MOL0     H 7669  10.807   2.611   4.041 -0.8894 -1.8291  0.7721
  798MOL0     H 7670  10.877   2.552   3.897 -0.7252 -0.9322 -1.6866
  798MOL0     H 7671  10.592   2.479   3.975  0.3639  2.2029  1.6208
  798MOL0     H 7672  10.648   2.484   3.809 -0.5133 -0.2695  0.3789
  798MOL0     H 7673  10.663   2.268   3.912 -0.2520  0.7734 -1.9929
  798MOL0     H 7674  10.829   2.313   3.859  0.2100 -2.0588  0.6065
  798MOL0     H 7675  10.894   2.377   4.088  1.6059 -1.6447  0.7783
  798MOL0     H 7676  10.732   2.321   4.149 -2.1667  0.9569 -2.2267
  798MOL0     H 7677  10.799   2.088   4.040 -0.3324 -0.2132  0.7053
  798MOL0     H 7678  10.843   2.136   4.207 -1.9894  1.8604  0.6113
  798MOL0     H 7679  11.021   2.179   3.958  1.2795 -0.9934 -1.2237
  798MOL0     H 7680  11.051   2.251   4.118  1.4384  1.1903 -3.8755
  798MOL0     H 7681  11.061   1.883   3.984 -1.4153  1.4138 -0.8312
  798MOL0     H 7682  11.163   1.681   4.064  0.4213 -1.5339  1.2119
  798MOL0     H 7683  11.318   1.751   4.112  0.2264  1.4803  0.2924
  798MOL0     H 7684  11.255   1.676   4.358 -0.3928  0.4781 -0.3228
  798MOL0     H 7685  11.112   1.609   4.288  0.3436  0.9403  0.7065
  798MOL0     H 7686  11.267   1.458   4.131 -1.9909 -0.9647  0.0312
  798MOL0     H 7687  11.234   1.407   4.284  2.5587 -2.2749 -1.4445
  798MOL0     H 7688  11.447   1.389   4.321 -2.2498  1.6967  3.3231
  798MOL0     H 7689  11.453   1.562   4.335 -3.4962  1.0149  1.6177
  798MOL0     H 7690  11.686   1.467   4.354  1.0611 -1.5172  0.8947
  798MOL0     H 7691  11.913   1.417   4.332  0.2636 -0.4338  0.2696
  798MOL0     H 7692  12.257   1.219   3.843  0.2787 -0.1476  0.6284
  798MOL0     H 7693  12.498   1.176   3.852 -0.8967  0.7582 -2.0678
  798MOL0     H 7694  12.764   1.460   4.066 -1.2846  0.2062 -4.4760
  798MOL0     H 7695  12.769   1.336   4.184 -1.2681  1.2943 -0.3492
  798MOL0     H 7696  12.907   1.196   4.021 -1.5128 -0.0801 -3.8964
  798MOL0     H 7697  12.912   1.335   3.913  2.0336  0.5454 -0.8531
  798MOL0     H 7698  13.021   1.480   4.082 -2.3211 -0.0298  2.2656
  798MOL0     H 7699  13.016   1.346   4.193 -0.0993 -0.3494 -0.4417
  798MOL0     H 7700  13.139   1.325   3.911  1.3196 -0.6588 -0.7785
  798MOL0     H 7701  13.150   1.209   4.047  0.7135  0.1131 -1.5112
  798MOL0     H 7702  13.257   1.369   4.193 -2.0175 -2.8643 -0.4129
  798MOL0     H 7703  13.282   1.475   4.057  0.6962  0.6917  1.4041
  798MOL0     H 7704  13.372   1.188   4.043 -2.1845  0.1405 -0.4827
  798MOL0     H 7705  13.438   1.320   3.950  0.9496  0.4532  1.0721
  798MOL0     H 7706  13.605   1.241   4.113  0.3002  2.0122 -2.2228
  798MOL0     H 7707  13.477   1.268   4.246 -1.4560  1.4577  0.2755
  798MOL0     H 7708  13.478   1.511   4.176  1.2858  1.0716 -2.4431
  798MOL0     H 7709  13.612   1.445   4.269 -0.0414  1.9287 -0.2698
  798MOL0     H 7710  12.540   1.475   4.157 -2.5353  0.9160  2.0164
  798MOL0     H 7711  12.311   1.515   4.153 -0.4389  0.9177 -1.6659
  798MOL0     H 7712  11.838   1.302   3.922 -0.6169 -1.6877  0.9410
  798MOL0     H 7713  11.603   1.371   3.946 -0.4212  2.1978  1.0584
  798MOL0     H 7714  10.372   2.838   4.052 -1.4545 -0.0963  0.9093
  798MOL0     H 7715  10.144   2.986   4.058  2.2361  0.8914  1.8738
  798MOL0     H 7716   9.898   3.122   3.700 -0.4428  0.8968 -0.5139
  798MOL0     H 7717   9.654   3.122   3.695  0.0612  2.0990 -2.1405
  798MOL0     H 7718   9.365   3.286   3.631 -0.1583 -0.2493  0.7020
  798MOL0     H 7719   9.523   3.365   3.598 -0.5797 -0.5066 -1.8917
  798MOL0     H 7720   9.364   3.540   3.611 -0.8502 -0.0998  0.0465
  798MOL0     H 7721   9.455   3.545   3.767  1.2093  0.0540 -1.6200
  798MOL0     H 7722   9.293   3.416   3.883  0.5167 -1.1511  0.3071
  798MOL0     H 7723   9.177   3.416   3.755 -1.7729  2.0031 -0.2713
  798MOL0     H 7724   9.144   3.605   3.928  2.3781 -2.0165  1.6848
  798MOL0     H 7725   9.300   3.669   3.874  0.0444 -0.2617  1.0944
  798MOL0     H 7726   9.119   3.855   3.585 -2.1487 -0.9758 -1.9370
  798MOL0     H 7727   9.616   3.462   3.932 -2.9499 -1.6736 -0.2049
  798MOL0     H 7728   9.891   3.596   3.959  0.0502  1.0978  1.3574
  798MOL0     H 7729   9.814   3.507   4.082 -1.9801  0.3491 -1.7743
  798MOL0     H 7730   9.978   3.460   4.024 -0.4095 -0.2020  3.4277
  799MOL0     O 7731   8.582   3.766   8.096 -0.5413 -0.0117 -0.0722
  799MOL0     C 7732   8.620   3.708   8.199  0.1891 -0.1937  0.0851
  799MOL0     O 7733   8.539   3.622   8.279 -0.6558 -0.4977 -0.2537
  799MOL0     C 7734   8.415   3.595   8.244  0.0657  0.1298 -0.0530
  799MOL0     C 7735   8.373   3.459   8.244  0.4812  0.1175 -0.6881
  799MOL0     C 7736   8.244   3.422   8.220  0.1605  0.1693  0.1391
  799MOL0     C 7737   8.158   3.518   8.168  0.2860  0.9817  0.1280
  799MOL0     O 7738   8.027   3.491   8.147 -0.1522  0.6044 -0.5542
  799MOL0     C 7739   7.970   3.368   8.201 -0.0724  0.1105  0.2824
  799MOL0     C 7740   7.818   3.371   8.185  0.2289 -0.7380 -0.0038
  799MOL0     C 7741   7.762   3.376   8.047  0.2985 -0.1007  0.0352
  799MOL0     C 7742   7.615   3.374   8.038 -0.0073  0.5498  0.5631
  799MOL0     C 7743   7.535   3.503   8.073 -0.5647 -0.6914  0.0789
  799MOL0     C 7744   7.373   3.496   8.057 -0.2942 -0.5613 -0.8159
  799MOL0     C 7745   7.302   3.460   8.186 -1.0589  0.2172  0.2945
  799MOL0     C 7746   7.298   3.565   8.303 -0.7132  0.3383 -0.2886
  799MOL0     N 7747   7.404   3.543   8.405 -0.6233  0.2110  0.0137
  799MOL0     C 7748   7.452   3.648   8.483  0.5368  0.5483  0.2891
  799MOL0     C 7749   7.534   3.585   8.572  0.2455  0.4751  1.4222
  799MOL0     C 7750   7.626   3.650   8.673  0.1817 -0.3661  0.3582
  799MOL0     C 7751   7.767   3.683   8.619 -0.4340  0.3791 -0.6542
  799MOL0     C 7752   7.853   3.561   8.604  0.7048 -1.0252  0.0293
  799MOL0     C 7753   7.892   3.489   8.729  0.1474  1.0389 -1.1551
  799MOL0     O 7754   7.944   3.572   8.840  0.3885 -0.0214  0.5960
  799MOL0     C 7755   8.072   3.616   8.825 -0.3391  0.4985 -0.2569
  799MOL0     C 7756   8.118   3.710   8.917  0.0903  0.5490 -0.4216
  799MOL0     C 7757   8.254   3.748   8.925 -0.0450 -0.1725 -0.2770
  799MOL0     C 7758   8.348   3.696   8.832 -0.1161  0.9144 -0.2230
  799MOL0     C 7759   8.488   3.736   8.842  0.3945  0.3553  0.4695
  799MOL0     O 7760   8.519   3.802   8.958  0.0363 -0.9287 -0.2697
  799MOL0     C 7761   8.648   3.866   8.958  0.1886 -0.4034 -0.2341
  799MOL0     C 7762   8.711   3.879   9.081  0.1445  0.0354  0.4363
  799MOL0     C 7763   8.833   3.937   9.098 -0.8067  0.1668  0.4007
  799MOL0     C 7764   8.907   3.992   8.987 -0.2499  0.2959 -1.0777
  799MOL0     O 7765   9.032   4.051   8.999  0.0188 -0.1556  0.3855
  799MOL0     C 7766   9.119   4.002   9.098  0.9163  0.2836  1.0322
  799MOL0     C 7767   9.265   4.030   9.050 -0.8036 -0.8248  0.5022
  799MOL0     C 7768   9.317   4.172   9.088 -0.1388 -0.2715  0.7132
  799MOL0     C 7769   9.446   4.201   9.019 -0.3205 -0.7171  0.1794
  799MOL0     C 7770   9.514   4.333   9.085  0.1406  0.4694  0.2408
  799MOL0     C 7771   9.664   4.302   9.112  0.2864  0.3526 -0.1816
  799MOL0     C 7772   9.751   4.427   9.093  0.2097  0.1253  0.2584
  799MOL0     C 7773   9.891   4.416   9.161 -0.5829  1.1905  0.0412
  799MOL0    Cl 7774   9.999   4.544   9.102  0.2411  0.0154 -0.2181
  799MOL0     C 7775   8.841   3.987   8.862  0.0807 -0.2142 -0.2029
  799MOL0     C 7776   8.722   3.925   8.849 -0.3145 -0.2764  0.9115
  799MOL0     O 7777   8.563   3.714   8.752 -0.8660  0.1240 -0.6326
  799MOL0     C 7778   8.300   3.607   8.731 -1.0022 -0.1439  0.5109
  799MOL0     C 7779   8.167   3.572   8.729 -0.3045  0.5310  0.0731
  799MOL0     N 7780   7.524   3.450   8.559 -0.1151 -0.4767  0.1480
  799MOL0     N 7781   7.450   3.427   8.461  0.3711 -0.4185  0.0996
  799MOL0     C 7782   8.196   3.654   8.159  1.3135  0.2786 -0.8624
  799MOL0     C 7783   8.322   3.696   8.205  0.3514 -0.2272 -0.5724
  799MOL0     C 7784   8.750   3.750   8.264  0.5580  0.7163 -0.0288
  799MOL0     C 7785   8.761   3.779   8.401 -0.4608 -1.1561 -0.3338
  799MOL0     C 7786   8.880   3.804   8.458  0.2570 -0.4323 -0.3362
  799MOL0     C 7787   9.001   3.795   8.386 -0.0435 -0.7473  0.3771
  799MOL0     O 7788   9.133   3.800   8.429 -0.3288 -0.1445 -0.0123
  799MOL0     C 7789   9.161   3.850   8.558 -0.2164  0.0941  0.2199
  799MOL0     C 7790   9.305   3.887   8.560 -0.1287  0.3326  0.0240
  799MOL0     C 7791   9.376   3.756   8.553  0.1289  0.3461  0.5750
  799MOL0     C 7792   9.531   3.768   8.570  0.5551 -0.2662 -0.4209
  799MOL0     C 7793   9.564   3.840   8.697 -0.2554 -0.1448 -0.7129
  799MOL0     C 7794   9.586   3.890   8.810  0.1236 -0.8149  0.5745
  799MOL0     C 7795   8.986   3.772   8.251 -0.0600 -0.1631 -0.6262
  799MOL0     C 7796   8.866   3.734   8.193  0.6568 -0.3263 -0.0366
  799MOL0     C 7797   8.863   3.666   8.053 -0.4572 -0.7446  0.1512
  799MOL0     H 7798   8.450   3.389   8.275  0.2613  0.6024  1.1010
  799MOL0     H 7799   8.219   3.319   8.242  3.2156 -0.6762  0.1562
  799MOL0     H 7800   8.012   3.281   8.150 -0.1134  1.6842 -2.7041
  799MOL0     H 7801   7.993   3.366   8.308  0.1349  2.6356  0.3332
  799MOL0     H 7802   7.783   3.461   8.236  1.1999 -1.5644  2.3028
  799MOL0     H 7803   7.772   3.284   8.233 -2.9186  1.0832  0.5596
  799MOL0     H 7804   7.802   3.283   8.004  0.4082  0.1092 -0.3242
  799MOL0     H 7805   7.806   3.456   7.986  0.0183 -0.5455 -0.7720
  799MOL0     H 7806   7.580   3.349   7.938  0.6138  0.4875  0.3547
  799MOL0     H 7807   7.582   3.294   8.105  0.8190  0.0495  0.3928
  799MOL0     H 7808   7.566   3.529   8.175  0.4767 -1.1818 -0.0934
  799MOL0     H 7809   7.577   3.568   7.996 -0.4676 -2.8146 -1.7678
  799MOL0     H 7810   7.331   3.592   8.027  0.3613  1.1088  3.0398
  799MOL0     H 7811   7.359   3.426   7.974 -0.7572  0.3740 -1.5503
  799MOL0     H 7812   7.338   3.361   8.215 -0.8086  0.2980  0.2686
  799MOL0     H 7813   7.197   3.449   8.159 -1.5984 -1.8762  2.8754
  799MOL0     H 7814   7.316   3.666   8.265  1.7505  0.3561  0.7766
  799MOL0     H 7815   7.199   3.561   8.350 -1.3105  0.6540 -1.4519
  799MOL0     H 7816   7.429   3.752   8.463  0.3810 -0.1665 -4.0497
  799MOL0     H 7817   7.584   3.746   8.703  0.1293  0.6271 -2.5576
  799MOL0     H 7818   7.637   3.587   8.762  3.6009  0.6915  0.8273
  799MOL0     H 7819   7.759   3.748   8.532  1.9241  1.7606  0.0379
  799MOL0     H 7820   7.828   3.736   8.693 -1.4634 -1.2454  1.4652
  799MOL0     H 7821   7.941   3.600   8.552 -0.5473  1.0097 -0.6680
  799MOL0     H 7822   7.810   3.492   8.531 -0.2500  0.0772 -0.4881
  799MOL0     H 7823   7.960   3.408   8.701 -1.6480 -0.7933 -0.4214
  799MOL0     H 7824   7.799   3.443   8.763 -0.4873  1.0539 -2.7725
  799MOL0     H 7825   8.049   3.753   8.989 -0.4229 -0.1555 -0.4826
  799MOL0     H 7826   8.270   3.823   9.002 -1.8364 -0.4827  0.4633
  799MOL0     H 7827   8.659   3.841   9.168 -1.5303  0.9893 -0.1122
  799MOL0     H 7828   8.865   3.934   9.202 -2.3079 -0.7518  0.8796
  799MOL0     H 7829   9.103   4.048   9.196  1.1947 -0.4044  1.4059
  799MOL0     H 7830   9.110   3.893   9.104 -2.0139  0.4872  1.7647
  799MOL0     H 7831   9.327   3.958   9.104  2.1116  0.4568 -0.9031
  799MOL0     H 7832   9.270   4.010   8.943  2.4202 -2.1893  0.7763
  799MOL0     H 7833   9.240   4.244   9.059  0.0750  0.2347  1.3906
  799MOL0     H 7834   9.324   4.183   9.197 -1.6370 -1.2772  0.9530
  799MOL0     H 7835   9.423   4.216   8.913  2.3359  1.9490 -0.1664
  799MOL0     H 7836   9.515   4.117   9.029  1.6117  0.6911 -0.6353
  799MOL0     H 7837   9.463   4.377   9.171 -1.2333  1.0687 -0.8524
  799MOL0     H 7838   9.506   4.411   9.009 -0.8784  2.2266  2.0590
  799MOL0     H 7839   9.676   4.262   9.213  1.3229  0.9811 -0.0511
  799MOL0     H 7840   9.692   4.231   9.034  0.4811  0.5192 -0.2632
  799MOL0     H 7841   9.686   4.511   9.121 -1.1449 -1.1258  1.0417
  799MOL0     H 7842   9.769   4.442   8.986 -0.1067 -0.8184  0.0644
  799MOL0     H 7843   9.898   4.410   9.270  0.6576 -2.7304 -0.0714
  799MOL0     H 7844   9.937   4.321   9.129  2.7876  3.1224 -1.4264
  799MOL0     H 7845   8.886   4.046   8.783  0.6225  2.1127  1.7111
  799MOL0     H 7846   8.673   3.952   8.756 -1.6504  2.1074  2.2176
  799MOL0     H 7847   8.367   3.564   8.657  0.3584 -0.9871  2.1669
  799MOL0     H 7848   8.141   3.512   8.643 -2.3697  0.7779  0.4805
  799MOL0     H 7849   8.117   3.721   8.127 -0.5689 -1.4156  0.0040
  799MOL0     H 7850   8.353   3.800   8.206 -1.8127  0.4867  0.7426
  799MOL0     H 7851   8.676   3.772   8.467  1.1006 -0.2444  1.8970
  799MOL0     H 7852   8.875   3.817   8.565  1.5777  1.2534 -0.4392
  799MOL0     H 7853   9.123   3.780   8.634 -0.9717 -0.9954 -1.1188
  799MOL0     H 7854   9.110   3.945   8.577 -0.3572  0.6492 -2.6126
  799MOL0     H 7855   9.335   3.949   8.645 -0.0793  0.0232  0.2349
  799MOL0     H 7856   9.324   3.945   8.469  1.5088  0.5937  0.4909
  799MOL0     H 7857   9.357   3.714   8.454  1.4580  0.4516  0.2576
  799MOL0     H 7858   9.330   3.689   8.626 -3.4891  1.4879 -0.4227
  799MOL0     H 7859   9.569   3.665   8.572  0.7454 -0.1913  1.6041
  799MOL0     H 7860   9.574   3.828   8.490 -1.3572 -0.2232 -1.4656
  799MOL0     H 7861   9.614   3.924   8.908 -0.5131 -0.9956  0.8219
  799MOL0     H 7862   9.064   3.760   8.176 -0.2755  0.0403 -0.8869
  799MOL0     H 7863   8.801   3.576   8.059  0.4325 -1.2977  2.2688
  799MOL0     H 7864   8.834   3.733   7.972  1.0710  0.4883  0.5622
  799MOL0     H 7865   8.965   3.633   8.030  0.0100  2.2200 -2.7752
  800MOL0     O 7866   9.823   3.612   5.814 -0.5371  0.4323  0.5154
  800MOL0     C 7867   9.870   3.519   5.885  0.0004 -0.8641  0.0280
  800MOL0     O 7868   9.996   3.527   5.949 -0.9930  0.4426  0.3339
  800MOL0     C 7869  10.082   3.635   5.942  0.9625 -0.4851  0.0011
  800MOL0     C 7870  10.150   3.667   5.827  0.2423 -0.8744  0.7946
  800MOL0     C 7871  10.233   3.779   5.818 -0.0339  1.0222  0.0183
  800MOL0     C 7872  10.250   3.869   5.931 -0.3781 -0.4749  0.1634
  800MOL0     O 7873  10.334   3.975   5.937  0.6183 -0.0623  0.2830
  800MOL0     C 7874  10.449   3.961   5.854 -0.7855 -0.2918 -0.5695
  800MOL0     C 7875  10.566   4.025   5.930 -0.1924 -0.5951  0.9429
  800MOL0     C 7876  10.677   4.068   5.829  0.3173  0.1794  0.2270
  800MOL0     C 7877  10.813   4.015   5.871 -0.2813  0.5757  0.2969
  800MOL0     C 7878  10.927   4.058   5.778 -0.0133 -0.1480 -0.5734
  800MOL0     C 7879  11.062   4.023   5.823 -0.6441 -1.1230 -0.2550
  800MOL0     C 7880  11.156   4.040   5.704 -0.8320 -0.2856  0.0113
  800MOL0     C 7881  11.164   4.185   5.653  0.0019  0.6822 -0.7248
  800MOL0     N 7882  11.224   4.281   5.745 -0.3214 -0.0538 -0.1354
  800MOL0     C 7883  11.324   4.252   5.840  0.2499 -0.6292 -0.3363
  800MOL0     C 7884  11.342   4.368   5.907  0.3971 -0.4679  0.0560
  800MOL0     C 7885  11.439   4.382   6.016 -0.1391  0.0062 -0.0336
  800MOL0     C 7886  11.568   4.450   5.985  0.4322 -0.8230  0.8786
  800MOL0     C 7887  11.655   4.352   5.908  0.6840 -0.1546  0.1590
  800MOL0     C 7888  11.807   4.381   5.915  0.3900 -0.1250 -0.5092
  800MOL0     O 7889  11.828   4.510   5.851 -0.5354  0.1139  0.4712
  800MOL0     C 7890  11.953   4.538   5.794  0.1753 -0.0769  0.8028
  800MOL0     C 7891  11.958   4.663   5.727 -0.1279 -0.8060 -0.7489
  800MOL0     C 7892  12.076   4.711   5.674  0.2933  0.9408 -0.3915
  800MOL0     C 7893  12.189   4.634   5.670  0.0898  0.0512  0.0861
  800MOL0     C 7894  12.325   4.678   5.623 -0.3984  0.3993 -0.4877
  800MOL0     O 7895  12.429   4.590   5.618  0.1938 -0.2401 -0.1034
  800MOL0     C 7896  12.560   4.616   5.572  0.3427 -0.0653 -0.3653
  800MOL0     C 7897  12.597   4.701   5.465  0.6488  0.3694 -0.0489
  800MOL0     C 7898  12.731   4.725   5.435 -0.5330  0.5759 -0.0715
  800MOL0     C 7899  12.837   4.654   5.500  0.0372 -0.3046  0.1143
  800MOL0     O 7900  12.961   4.661   5.456  0.4590  0.2057  0.2732
  800MOL0     C 7901  12.983   4.656   5.312 -0.1716  0.5765 -0.1702
  800MOL0     C 7902  13.111   4.573   5.285  0.1321 -0.5712 -0.4309
  800MOL0     C 7903  13.235   4.632   5.359 -0.8413  0.8016  0.3814
  800MOL0     C 7904  13.359   4.556   5.319  0.4347  0.7265  0.2229
  800MOL0     C 7905  13.479   4.588   5.406 -0.3513  0.1469 -0.4449
  800MOL0     C 7906  13.576   4.474   5.443 -1.5295 -0.1123 -0.1321
  800MOL0     C 7907  13.656   4.431   5.324 -0.0321  0.9695  0.3916
  800MOL0     C 7908  13.760   4.534   5.288 -0.2339 -0.0516  0.0955
  800MOL0    Cl 7909  13.886   4.473   5.177 -0.0248 -0.0525  0.1277
  800MOL0     C 7910  12.796   4.567   5.603 -0.0243 -0.3223 -0.5888
  800MOL0     C 7911  12.666   4.557   5.650  0.1308  0.2986 -0.1516
  800MOL0     O 7912  12.338   4.795   5.602 -0.1397  0.1010 -0.0328
  800MOL0     C 7913  12.174   4.501   5.717 -0.0055  0.7351  0.1149
  800MOL0     C 7914  12.057   4.449   5.767 -0.3196  0.9879  0.1394
  800MOL0     N 7915  11.259   4.458   5.855 -0.1418 -0.5270  0.3745
  800MOL0     N 7916  11.177   4.411   5.758  0.3253  0.0342  0.0637
  800MOL0     C 7917  10.184   3.829   6.047 -0.5254 -0.2856 -0.5545
  800MOL0     C 7918  10.101   3.715   6.054  0.1359 -0.2595  0.1239
  800MOL0     C 7919   9.791   3.402   5.902  0.1009 -0.0891 -0.1804
  800MOL0     C 7920   9.652   3.402   5.882  0.7492 -0.6611  0.3139
  800MOL0     C 7921   9.566   3.291   5.904  0.3746  0.2606 -0.8265
  800MOL0     C 7922   9.616   3.186   5.989 -0.0110  0.3228 -0.6060
  800MOL0     O 7923   9.547   3.078   6.045 -0.0211  0.3926 -0.0405
  800MOL0     C 7924   9.407   3.081   6.031  0.4358 -0.3622 -0.8863
  800MOL0     C 7925   9.325   2.978   6.104 -0.2912  0.0531  0.4629
  800MOL0     C 7926   9.302   3.007   6.249  0.4183 -0.1756 -0.1581
  800MOL0     C 7927   9.289   2.879   6.319  0.6315 -0.0599  0.3671
  800MOL0     C 7928   9.419   2.810   6.327  0.0988  0.1115 -0.2890
  800MOL0     C 7929   9.529   2.756   6.328 -0.1439 -0.4284 -0.3351
  800MOL0     C 7930   9.754   3.180   6.013  0.4466  0.2039 -0.3126
  800MOL0     C 7931   9.840   3.276   5.958 -0.5843 -0.0741 -0.4390
  800MOL0     C 7932   9.987   3.250   5.975  0.3862  0.9802 -0.2350
  800MOL0     H 7933  10.144   3.605   5.738  3.1077 -0.0175 -0.1126
  800MOL0     H 7934  10.269   3.810   5.721 -0.1509 -0.2698 -0.4664
  800MOL0     H 7935  10.482   3.860   5.831 -0.1940 -0.0426 -0.8385
  800MOL0     H 7936  10.427   4.008   5.758 -1.5410  0.8894  0.1498
  800MOL0     H 7937  10.608   3.956   6.004 -0.0057 -3.1636 -1.3855
  800MOL0     H 7938  10.532   4.119   5.973  0.0679 -0.5306  1.0056
  800MOL0     H 7939  10.693   4.176   5.831  1.1411  0.0598  0.6509
  800MOL0     H 7940  10.658   4.036   5.726  0.5283 -0.2865  0.3312
  800MOL0     H 7941  10.836   4.042   5.974  0.7838  1.1170 -0.0684
  800MOL0     H 7942  10.813   3.906   5.859 -0.8584  0.4766  1.1050
  800MOL0     H 7943  10.915   4.025   5.674  1.8597 -2.3977 -0.1635
  800MOL0     H 7944  10.924   4.167   5.768  0.5658  0.0158  0.8770
  800MOL0     H 7945  11.101   4.089   5.901  2.0339 -1.3221 -1.2943
  800MOL0     H 7946  11.070   3.929   5.880  0.8343  0.0238  1.5470
  800MOL0     H 7947  11.138   3.968   5.623 -0.6276  0.8068 -1.0292
  800MOL0     H 7948  11.253   4.009   5.744 -0.9288 -0.9739 -0.2603
  800MOL0     H 7949  11.222   4.180   5.560  0.2073  0.0079 -0.5619
  800MOL0     H 7950  11.066   4.223   5.619 -0.3512  1.1071  0.7084
  800MOL0     H 7951  11.384   4.169   5.877  0.1532  1.5190  5.6703
  800MOL0     H 7952  11.392   4.450   6.088  3.4637  2.1873  0.4880
  800MOL0     H 7953  11.451   4.284   6.063 -2.1477  0.0505  0.6930
  800MOL0     H 7954  11.553   4.542   5.928  1.4139 -1.2595 -0.1210
  800MOL0     H 7955  11.630   4.473   6.072  1.3345 -0.3764  0.1296
  800MOL0     H 7956  11.620   4.354   5.804 -0.0880 -0.4267  0.4095
  800MOL0     H 7957  11.647   4.249   5.944  0.3833 -0.8592 -1.7840
  800MOL0     H 7958  11.853   4.296   5.862 -1.0717 -1.6496  0.5485
  800MOL0     H 7959  11.844   4.388   6.017  1.0515  1.8156 -0.8530
  800MOL0     H 7960  11.875   4.732   5.738  1.2553  1.0564 -1.4865
  800MOL0     H 7961  12.082   4.814   5.641  1.5802  1.3346  0.9737
  800MOL0     H 7962  12.520   4.753   5.409  1.5750  0.8316 -0.9216
  800MOL0     H 7963  12.748   4.796   5.355 -1.4388  2.3995  1.2677
  800MOL0     H 7964  12.898   4.598   5.274  1.1266 -1.0173 -0.7744
  800MOL0     H 7965  12.997   4.755   5.269  0.0188  0.5163 -0.2491
  800MOL0     H 7966  13.085   4.472   5.316 -4.6703  0.1794 -1.2403
  800MOL0     H 7967  13.133   4.567   5.178  1.5291  1.3315 -0.3084
  800MOL0     H 7968  13.255   4.734   5.325 -0.8877  1.1152  1.2810
  800MOL0     H 7969  13.212   4.640   5.466  1.3473  1.8736  0.8210
  800MOL0     H 7970  13.386   4.586   5.217 -0.0576 -0.3418 -0.2310
  800MOL0     H 7971  13.337   4.449   5.321 -0.9244  0.9973  1.6883
  800MOL0     H 7972  13.433   4.612   5.502  1.0776 -2.7421  1.0945
  800MOL0     H 7973  13.536   4.674   5.370 -0.4602 -1.1265 -4.0610
  800MOL0     H 7974  13.645   4.509   5.520  0.6889 -1.4251 -1.3902
  800MOL0     H 7975  13.519   4.389   5.482 -1.9182  1.0601  1.9922
  800MOL0     H 7976  13.592   4.412   5.238  2.0271  2.3669 -1.5618
  800MOL0     H 7977  13.709   4.339   5.347  1.7058  2.1948  1.5156
  800MOL0     H 7978  13.714   4.624   5.247  0.0305  1.4462  2.8290
  800MOL0     H 7979  13.805   4.577   5.378 -3.6796  1.6393  1.1976
  800MOL0     H 7980  12.872   4.519   5.664 -1.5446  1.6275  3.1873
  800MOL0     H 7981  12.635   4.491   5.731  0.3491 -0.4088 -0.6282
  800MOL0     H 7982  12.263   4.438   5.715  0.1509  0.9127 -2.8514
  800MOL0     H 7983  12.056   4.346   5.802  0.0225  0.4835 -1.2930
  800MOL0     H 7984  10.194   3.888   6.138  1.5146 -1.8717  0.3352
  800MOL0     H 7985  10.058   3.686   6.149 -1.2369 -0.8069 -0.6280
  800MOL0     H 7986   9.606   3.492   5.841 -0.2364 -0.5671  1.5485
  800MOL0     H 7987   9.460   3.299   5.886  0.4866  0.4610 -1.4121
  800MOL0     H 7988   9.398   3.051   5.926  1.0417 -1.7518 -0.5701
  800MOL0     H 7989   9.368   3.183   6.041  1.0721 -0.1031 -1.0119
  800MOL0     H 7990   9.367   2.879   6.087  3.9020  1.5185  0.9369
  800MOL0     H 7991   9.224   2.982   6.063 -0.4716  3.3751  0.9266
  800MOL0     H 7992   9.204   3.054   6.252 -1.0598 -2.8550 -2.1113
  800MOL0     H 7993   9.385   3.066   6.290  0.6796 -0.2565 -0.5668
  800MOL0     H 7994   9.245   2.891   6.419 -0.8736  1.3171 -0.4058
  800MOL0     H 7995   9.230   2.818   6.251  0.3278 -0.6881  1.1771
  800MOL0     H 7996   9.626   2.711   6.327  1.2106  2.2841  0.0334
  800MOL0     H 7997   9.803   3.106   6.076  1.2356  1.0871  0.1416
  800MOL0     H 7998  10.027   3.307   6.060  1.9917  0.6121 -0.7196
  800MOL0     H 7999  10.007   3.143   5.978  0.5194  1.0076  2.1851
  800MOL0     H 8000  10.036   3.292   5.886  0.4865  1.9117  0.2482
  801MOL0     O 8001   3.630   8.769   2.888  0.2745  0.2100 -0.1576
  801MOL0     C 8002   3.601   8.833   2.786 -0.4842  0.2925 -0.9820
  801MOL0     O 8003   3.692   8.907   2.709 -0.0423 -0.0403 -0.5878
  801MOL0     C 8004   3.823   8.912   2.736 -0.5594 -0.1636 -0.2998
  801MOL0     C 8005   3.900   8.820   2.807 -0.4734 -0.2062 -0.5404
  801MOL0     C 8006   4.038   8.836   2.822  0.0925 -0.1765 -0.0827
  801MOL0     C 8007   4.102   8.956   2.779  0.8432 -1.1920  0.1079
  801MOL0     O 8008   4.237   8.965   2.800  0.0028 -0.2839 -0.1895
  801MOL0     C 8009   4.279   9.102   2.806 -0.1905  0.7813 -0.8948
  801MOL0     C 8010   4.418   9.119   2.867  0.7756  1.0351  0.0852
  801MOL0     C 8011   4.518   9.042   2.785 -0.7194  0.2835 -0.6312
  801MOL0     C 8012   4.666   9.074   2.813  0.3359 -0.6953 -0.4845
  801MOL0     C 8013   4.759   8.968   2.755 -0.3945 -0.3281  0.5483
  801MOL0     C 8014   4.771   8.989   2.602  0.4256  0.5272  0.0360
  801MOL0     C 8015   4.810   8.854   2.537 -0.3226  0.5672 -0.6217
  801MOL0     C 8016   4.939   8.793   2.601  0.3372  0.2579  0.1515
  801MOL0     N 8017   4.993   8.683   2.517  1.3052  0.4927  0.2619
  801MOL0     C 8018   5.074   8.689   2.405 -0.1425 -1.0268 -0.2758
  801MOL0     C 8019   5.104   8.564   2.372 -0.6792  0.5625  0.0910
  801MOL0     C 8020   5.192   8.529   2.255 -0.5886  0.3815  0.4214
  801MOL0     C 8021   5.344   8.486   2.282  0.2615 -0.0526 -0.7510
  801MOL0     C 8022   5.347   8.376   2.386 -0.5483  0.0777  0.3346
  801MOL0     C 8023   5.460   8.283   2.370 -0.4116  0.1492  0.0124
  801MOL0     O 8024   5.575   8.366   2.396 -0.1431 -0.4488 -0.2650
  801MOL0     C 8025   5.696   8.315   2.355 -0.3681 -0.6443 -0.6321
  801MOL0     C 8026   5.726   8.172   2.341 -0.4225 -0.3257 -0.6418
  801MOL0     C 8027   5.849   8.129   2.292 -0.3048 -0.5362 -0.8177
  801MOL0     C 8028   5.951   8.228   2.258  0.0054  0.5001 -0.1280
  801MOL0     C 8029   6.078   8.186   2.198  0.3345 -0.3340  0.2243
  801MOL0     O 8030   6.179   8.279   2.175 -0.4360 -0.5764  0.6005
  801MOL0     C 8031   6.292   8.222   2.129 -0.3011  0.0955  0.0473
  801MOL0     C 8032   6.404   8.209   2.214 -0.0273 -0.0382  0.6207
  801MOL0     C 8033   6.528   8.170   2.161 -0.6419  0.5337  0.4156
  801MOL0     C 8034   6.543   8.146   2.025  0.2004  0.1146  0.0746
  801MOL0     O 8035   6.652   8.108   1.947 -0.9100  0.4789  0.3513
  801MOL0     C 8036   6.767   8.049   1.999  0.6165 -0.2610  0.3477
  801MOL0     C 8037   6.761   7.895   2.016 -0.0368  0.1480 -0.3135
  801MOL0     C 8038   6.875   7.833   2.094 -0.5350  0.7547  0.3337
  801MOL0     C 8039   6.965   7.753   1.995 -0.1491 -0.3138  0.3562
  801MOL0     C 8040   7.039   7.842   1.901  0.6454  0.0839 -0.4478
  801MOL0     C 8041   7.183   7.793   1.865 -0.9964  0.1537 -0.8782
  801MOL0     C 8042   7.213   7.825   1.721 -0.3894 -0.2893  0.3465
  801MOL0     C 8043   7.337   7.751   1.672 -0.8332  0.2242 -0.3032
  801MOL0    Cl 8044   7.485   7.816   1.735 -0.3132 -0.5747  0.5184
  801MOL0     C 8045   6.432   8.175   1.938 -0.5370 -0.3328 -0.2247
  801MOL0     C 8046   6.310   8.218   1.991 -0.7106 -0.1070 -0.8776
  801MOL0     O 8047   6.085   8.067   2.174 -0.7004 -0.4684  0.2136
  801MOL0     C 8048   5.934   8.359   2.291  0.0137 -0.8229  0.4616
  801MOL0     C 8049   5.806   8.399   2.333 -0.2675 -0.5596 -0.6172
  801MOL0     N 8050   5.037   8.477   2.465 -0.5965 -0.4447  0.8481
  801MOL0     N 8051   4.976   8.552   2.548  0.4695  0.3768  0.1992
  801MOL0     C 8052   4.023   9.044   2.692  0.2630 -0.2091 -0.4027
  801MOL0     C 8053   3.884   9.024   2.679 -0.3818 -0.9811 -0.3578
  801MOL0     C 8054   3.466   8.823   2.729  0.0051  0.2644  1.0976
  801MOL0     C 8055   3.449   8.853   2.590 -0.0808 -0.7362 -0.2110
  801MOL0     C 8056   3.324   8.832   2.527 -0.3293 -0.3730 -0.6605
  801MOL0     C 8057   3.210   8.799   2.602 -0.2346  0.3559 -0.0722
  801MOL0     O 8058   3.098   8.775   2.532 -0.8351  0.4379 -0.3277
  801MOL0     C 8059   2.987   8.727   2.608  0.5412 -0.3716  0.5714
  801MOL0     C 8060   2.870   8.735   2.518 -0.1532 -0.4151  0.4009
  801MOL0     C 8061   2.756   8.649   2.572  0.4274  0.3788  0.2903
  801MOL0     C 8062   2.636   8.661   2.483  0.4714  0.1189 -0.2143
  801MOL0     C 8063   2.520   8.583   2.529  0.2815  0.1172  0.5600
  801MOL0     C 8064   2.423   8.514   2.555 -0.9519  0.3609  0.9159
  801MOL0     C 8065   3.230   8.786   2.739  0.9318  0.0230 -1.0162
  801MOL0     C 8066   3.348   8.800   2.803  0.2505  1.0064  0.1887
  801MOL0     C 8067   3.328   8.767   2.952 -0.1880 -0.5921 -0.3895
  801MOL0     H 8068   3.854   8.728   2.842 -0.6289 -0.6501 -1.8618
  801MOL0     H 8069   4.102   8.762   2.870  0.2603  0.3989  0.6047
  801MOL0     H 8070   4.270   9.147   2.706 -3.9694  1.5246 -0.4080
  801MOL0     H 8071   4.205   9.161   2.862 -2.0289 -0.9046 -1.4351
  801MOL0     H 8072   4.418   9.088   2.972  0.9841 -2.2479 -0.7580
  801MOL0     H 8073   4.443   9.225   2.856  0.1710  0.9374 -3.4394
  801MOL0     H 8074   4.508   9.056   2.677 -3.4403  2.5387 -0.2064
  801MOL0     H 8075   4.496   8.940   2.817  2.5745 -0.9051 -1.7423
  801MOL0     H 8076   4.691   9.171   2.768  1.4504 -0.8820 -0.2984
  801MOL0     H 8077   4.680   9.078   2.922 -1.2567 -1.6516 -0.2081
  801MOL0     H 8078   4.860   8.971   2.797 -0.2053 -0.2934  0.0980
  801MOL0     H 8079   4.718   8.868   2.769 -1.3123  0.0422  0.5573
  801MOL0     H 8080   4.678   9.021   2.555  0.8526  0.8063 -0.6446
  801MOL0     H 8081   4.843   9.068   2.579 -0.9363  1.3938 -1.4465
  801MOL0     H 8082   4.838   8.872   2.433  2.1782  0.7264  0.0031
  801MOL0     H 8083   4.734   8.775   2.542 -0.5283  0.8347  1.3953
  801MOL0     H 8084   5.011   8.875   2.593  0.2054  0.3576 -0.0365
  801MOL0     H 8085   4.925   8.759   2.704  1.8192  0.4627  0.4301
  801MOL0     H 8086   5.105   8.778   2.351  0.0915 -0.9971 -0.0950
  801MOL0     H 8087   5.131   8.451   2.208 -0.4576  1.2553 -1.2594
  801MOL0     H 8088   5.201   8.609   2.182  0.5641 -0.0917  0.0317
  801MOL0     H 8089   5.381   8.440   2.190  1.5806 -1.9044  0.6214
  801MOL0     H 8090   5.395   8.578   2.314 -0.2400 -0.4115  1.1994
  801MOL0     H 8091   5.256   8.317   2.396 -1.2043  0.5588 -2.1194
  801MOL0     H 8092   5.367   8.433   2.478 -1.0624 -0.9620  1.1122
  801MOL0     H 8093   5.448   8.238   2.271 -2.0088 -0.7761  0.5805
  801MOL0     H 8094   5.448   8.194   2.433 -1.6431  0.1483 -0.2054
  801MOL0     H 8095   5.650   8.104   2.378  0.4751 -1.2653 -0.4695
  801MOL0     H 8096   5.869   8.023   2.285 -3.1040 -1.2557  0.7568
  801MOL0     H 8097   6.383   8.212   2.320 -0.5521 -3.1000  0.7005
  801MOL0     H 8098   6.616   8.168   2.224 -0.3423  0.7581  0.0087
  801MOL0     H 8099   6.851   8.074   1.933  0.9572 -1.1638  0.4317
  801MOL0     H 8100   6.785   8.100   2.094 -1.5015  1.6060 -0.1554
  801MOL0     H 8101   6.673   7.872   2.077 -0.6509 -2.7150 -2.1035
  801MOL0     H 8102   6.744   7.842   1.922  1.2960  0.5398 -0.7933
  801MOL0     H 8103   6.938   7.907   2.143  2.1176 -0.9551 -0.2814
  801MOL0     H 8104   6.840   7.760   2.168  1.3794 -2.1391 -1.4093
  801MOL0     H 8105   6.904   7.683   1.938  1.1100 -1.1035 -0.0748
  801MOL0     H 8106   7.034   7.689   2.052  0.3965 -0.4591 -0.4563
  801MOL0     H 8107   7.046   7.939   1.951 -1.2637 -0.4509  0.9943
  801MOL0     H 8108   6.973   7.855   1.814 -0.3518 -1.5682  0.0130
  801MOL0     H 8109   7.250   7.838   1.939 -1.2254 -1.0583  0.0891
  801MOL0     H 8110   7.196   7.686   1.885  2.0656  0.7258  0.8253
  801MOL0     H 8111   7.209   7.933   1.701 -1.2693 -0.3081  0.3705
  801MOL0     H 8112   7.122   7.796   1.667 -0.4953  0.4932  0.0931
  801MOL0     H 8113   7.320   7.647   1.702 -4.1575  1.0049  0.9469
  801MOL0     H 8114   7.350   7.778   1.567  2.2278  3.6410  0.7606
  801MOL0     H 8115   6.439   8.154   1.832  0.4875  1.7208 -0.6120
  801MOL0     H 8116   6.229   8.247   1.924 -0.9435  1.6068  0.0825
  801MOL0     H 8117   6.021   8.424   2.283  0.4266 -1.4357 -0.1101
  801MOL0     H 8118   5.788   8.503   2.356 -0.6679 -0.6795 -0.3799
  801MOL0     H 8119   4.085   9.116   2.639  0.4981 -0.5842 -0.6432
  801MOL0     H 8120   3.831   9.096   2.616  1.5316 -0.9180 -2.0009
  801MOL0     H 8121   3.538   8.885   2.537 -0.5376 -0.4892 -0.8390
  801MOL0     H 8122   3.305   8.840   2.421  2.8316  0.6000 -1.2542
  801MOL0     H 8123   2.971   8.798   2.690 -1.0520 -2.0961  1.8403
  801MOL0     H 8124   3.009   8.624   2.636  4.8549 -0.3979 -1.9494
  801MOL0     H 8125   2.902   8.692   2.423 -1.2300 -0.5594  0.0953
  801MOL0     H 8126   2.830   8.836   2.509  0.4956 -0.2879 -1.4482
  801MOL0     H 8127   2.730   8.676   2.674 -0.3972 -0.0256  0.1901
  801MOL0     H 8128   2.793   8.546   2.582  1.9508  0.8173 -0.4194
  801MOL0     H 8129   2.606   8.766   2.478  1.0764  0.3572  0.7042
  801MOL0     H 8130   2.658   8.633   2.380 -0.5675 -1.8476  0.0533
  801MOL0     H 8131   2.332   8.462   2.578 -2.3852  2.9919  1.6379
  801MOL0     H 8132   3.138   8.772   2.795  0.7623  0.7966 -1.0841
  801MOL0     H 8133   3.267   8.677   2.964  0.2122 -1.1077 -1.9852
  801MOL0     H 8134   3.426   8.756   3.001 -0.7059  0.7562  1.0309
  801MOL0     H 8135   3.276   8.851   2.999  3.9815  1.2088  1.5456
  802MOL0     O 8136   5.828   9.672   9.885  0.3311  0.5434 -0.2145
  802MOL0     C 8137   5.757   9.584   9.935  0.1692  0.2223  0.4665
  802MOL0     O 8138   5.802   9.462   9.977  0.0296  0.1831  0.1791
  802MOL0     C 8139   5.917   9.463  10.050 -0.2207 -0.0495  0.5576
  802MOL0     C 8140   5.933   9.562  10.145 -0.1644 -0.9241  0.0118
  802MOL0     C 8141   6.037   9.559  10.235  0.1557 -0.2728 -0.0371
  802MOL0     C 8142   6.134   9.461  10.230 -0.0522  0.6193  1.4803
  802MOL0     O 8143   6.228   9.468  10.330 -0.1097  0.2723 -0.6165
  802MOL0     C 8144   6.294   9.345  10.373  0.3885  0.4295  0.4898
  802MOL0     C 8145   6.371   9.360  10.500 -0.5419  0.3226  0.2122
  802MOL0     C 8146   6.457   9.236  10.518  0.1802  0.6202  0.1454
  802MOL0     C 8147   6.612   9.240  10.464 -0.7422  0.0568  0.3266
  802MOL0     C 8148   6.715   9.145  10.543  0.4512 -0.3479 -0.3333
  802MOL0     C 8149   6.855   9.151  10.480  0.1252  1.3011  0.7565
  802MOL0     C 8150   6.952   9.067  10.561 -0.5667 -0.5677  0.2937
  802MOL0     C 8151   6.922   8.915  10.538  0.1429 -0.1897 -0.1662
  802MOL0     N 8152   6.994   8.841  10.641 -0.8761 -0.7899  0.5421
  802MOL0     C 8153   7.134   8.828  10.650 -1.2151 -0.1781 -0.6112
  802MOL0     C 8154   7.144   8.763  10.769  0.2355  0.4585 -0.1029
  802MOL0     C 8155   7.269   8.691  10.816  0.2654  0.1609 -0.0703
  802MOL0     C 8156   7.393   8.775  10.808  0.4414  0.6853 -0.5650
  802MOL0     C 8157   7.518   8.692  10.837  0.9445 -0.1681  0.3660
  802MOL0     C 8158   7.632   8.785  10.830 -0.4984 -0.0620 -0.3282
  802MOL0     O 8159   7.739   8.696  10.827  0.1849  0.0966 -0.1572
  802MOL0     C 8160   7.864   8.748  10.799  0.1226  0.6017  0.4095
  802MOL0     C 8161   7.971   8.666  10.819  0.0738  0.5141  0.7397
  802MOL0     C 8162   8.104   8.706  10.802 -0.4717 -0.3123  0.3986
  802MOL0     C 8163   8.135   8.832  10.750 -0.2229  0.1380 -0.1248
  802MOL0     C 8164   8.274   8.873  10.723  0.0866 -1.2975  0.5238
  802MOL0     O 8165   8.377   8.809  10.799 -0.4385  0.2254 -0.9302
  802MOL0     C 8166   8.508   8.829  10.781  0.2429  0.7946 -0.2797
  802MOL0     C 8167   8.598   8.750  10.863 -0.9948 -0.1225 -0.4977
  802MOL0     C 8168   8.737   8.775  10.852  0.6567 -0.0171 -0.6287
  802MOL0     C 8169   8.787   8.868  10.763 -0.2023  0.3766 -0.8206
  802MOL0     O 8170   8.920   8.899  10.744 -0.1023 -0.6599  0.5420
  802MOL0     C 8171   9.001   8.884  10.865 -0.6566 -0.0710  0.3262
  802MOL0     C 8172   9.141   8.915  10.823 -0.2692  0.0498 -0.0717
  802MOL0     C 8173   9.218   8.986  10.934 -0.6890 -0.6563 -0.1868
  802MOL0     C 8174   9.367   9.002  10.901 -0.0625 -1.2555  0.7038
  802MOL0     C 8175   9.440   9.051  11.030  0.3603 -0.5495 -0.1499
  802MOL0     C 8176   9.583   9.071  10.997 -0.1764  1.1983 -0.3002
  802MOL0     C 8177   9.669   9.118  11.120  0.0150  0.1342 -0.1639
  802MOL0     C 8178   9.824   9.118  11.086  0.3748  0.3635 -0.4115
  802MOL0    Cl 8179   9.873   9.246  10.964  0.1300 -0.0008 -0.4551
  802MOL0     C 8180   8.702   8.938  10.675 -0.5740  0.2907  0.1205
  802MOL0     C 8181   8.560   8.919  10.682  0.5929 -0.5582  0.2566
  802MOL0     O 8182   8.285   8.963  10.636  0.3737  0.8231 -0.7113
  802MOL0     C 8183   8.022   8.914  10.727  0.2426  0.0245 -0.3824
  802MOL0     C 8184   7.892   8.880  10.746  0.6645  0.4918 -0.6035
  802MOL0     N 8185   7.021   8.727  10.818  0.4177  0.0851 -0.1141
  802MOL0     N 8186   6.931   8.778  10.742  0.2973 -0.1354 -0.4644
  802MOL0     C 8187   6.123   9.354  10.136  0.1036 -0.3228  0.7099
  802MOL0     C 8188   6.013   9.363  10.047 -0.1640  0.3375 -0.3389
  802MOL0     C 8189   5.622   9.618   9.958  0.4155 -0.3641 -0.9945
  802MOL0     C 8190   5.523   9.525   9.964  0.1493  0.1590  0.1162
  802MOL0     C 8191   5.386   9.556   9.986 -0.6380 -0.4795 -0.3339
  802MOL0     C 8192   5.346   9.692   9.995 -0.1682  1.1369  0.1883
  802MOL0     O 8193   5.219   9.732  10.002  0.0272  0.7942  0.8295
  802MOL0     C 8194   5.128   9.669  10.092  0.1258  0.4870 -0.8998
  802MOL0     C 8195   4.998   9.746  10.115 -0.4946 -0.0941  1.1437
  802MOL0     C 8196   5.026   9.890  10.162  0.6021 -0.9305 -0.2548
  802MOL0     C 8197   4.900   9.970  10.193 -0.1624  0.5633  0.2746
  802MOL0     C 8198   4.832   9.997  10.068  0.0984  0.6538 -0.5551
  802MOL0     C 8199   4.796  10.043   9.963  0.3069  0.4502 -0.4971
  802MOL0     C 8200   5.456   9.783  10.001  0.2791  0.1099  0.5743
  802MOL0     C 8201   5.588   9.754   9.984 -0.2649  0.3684  0.7529
  802MOL0     C 8202   5.691   9.865  10.005  0.3990 -0.0164  0.5951
  802MOL0     H 8203   5.861   9.641  10.160  1.1406  0.2663  0.1607
  802MOL0     H 8204   6.037   9.636  10.311  1.3291 -0.8223  0.5566
  802MOL0     H 8205   6.223   9.263  10.385 -1.8395  2.3375  1.3405
  802MOL0     H 8206   6.372   9.319  10.302 -1.2539  0.3126 -1.3477
  802MOL0     H 8207   6.302   9.376  10.583  1.0596  2.6472  1.1850
  802MOL0     H 8208   6.439   9.443  10.481  2.1378 -1.9166 -0.6578
  802MOL0     H 8209   6.413   9.144  10.477  0.5127 -0.4591  2.0730
  802MOL0     H 8210   6.463   9.214  10.625  0.0606  2.8743  0.6611
  802MOL0     H 8211   6.618   9.202  10.362 -1.6629 -0.6607  0.5311
  802MOL0     H 8212   6.659   9.338  10.475  0.6441 -0.8185  3.3654
  802MOL0     H 8213   6.721   9.193  10.642 -0.8127 -0.1570 -0.3263
  802MOL0     H 8214   6.683   9.041  10.546 -0.4895 -0.0672 -0.1773
  802MOL0     H 8215   6.853   9.126  10.374 -1.6986  2.0235  0.5809
  802MOL0     H 8216   6.888   9.255  10.465 -2.1592  1.8907 -0.5796
  802MOL0     H 8217   6.951   9.097  10.666  0.2675 -0.6253  0.3242
  802MOL0     H 8218   7.054   9.098  10.534 -0.9874  0.0632 -0.6283
  802MOL0     H 8219   6.818   8.881  10.539  0.7621 -2.3771  2.2173
  802MOL0     H 8220   6.957   8.888  10.437  0.1043  0.0552 -0.2445
  802MOL0     H 8221   7.222   8.862  10.597  0.4763 -1.6458  1.1267
  802MOL0     H 8222   7.256   8.648  10.916  0.5921  2.9494  1.2484
  802MOL0     H 8223   7.283   8.611  10.743  1.7111  1.1992 -0.9698
  802MOL0     H 8224   7.410   8.831  10.716  0.3779  0.7231 -0.5542
  802MOL0     H 8225   7.379   8.847  10.889 -1.5524 -0.3013  0.0288
  802MOL0     H 8226   7.528   8.614  10.760 -1.3898 -0.7127  0.5460
  802MOL0     H 8227   7.516   8.648  10.937 -3.3756  0.9182  0.9594
  802MOL0     H 8228   7.650   8.857  10.911  3.7288 -2.0185  0.7512
  802MOL0     H 8229   7.636   8.837  10.734 -0.6304  0.8762  0.1549
  802MOL0     H 8230   7.960   8.566  10.860  0.7321  0.5078  0.9019
  802MOL0     H 8231   8.180   8.630  10.817 -0.9176 -0.4941  1.9280
  802MOL0     H 8232   8.548   8.676  10.925 -2.3776 -1.3189 -2.8990
  802MOL0     H 8233   8.800   8.703  10.904  1.1496  1.4376  0.8980
  802MOL0     H 8234   8.970   8.955  10.942 -2.5757 -1.2625  0.7050
  802MOL0     H 8235   8.994   8.785  10.910 -0.7153 -0.7391 -1.1127
  802MOL0     H 8236   9.189   8.818  10.807 -0.3796  0.1128 -0.7987
  802MOL0     H 8237   9.146   8.976  10.732 -0.1531 -1.2168 -0.9287
  802MOL0     H 8238   9.176   9.086  10.947 -1.9519 -0.8698 -2.1815
  802MOL0     H 8239   9.207   8.928  11.027 -1.1049  2.0574  1.5755
  802MOL0     H 8240   9.378   9.078  10.823  1.7039  0.7789  2.7900
  802MOL0     H 8241   9.420   8.914  10.864  0.0821 -0.4941 -0.9851
  802MOL0     H 8242   9.419   8.978  11.109  1.3075 -0.0880  0.5396
  802MOL0     H 8243   9.410   9.154  11.051  1.9904  0.1104 -0.8838
  802MOL0     H 8244   9.621   8.978  10.953  1.4633  1.7362 -0.0948
  802MOL0     H 8245   9.588   9.148  10.919  1.5630 -0.8108 -2.3381
  802MOL0     H 8246   9.641   9.046  11.197 -0.1308  1.6492  1.2611
  802MOL0     H 8247   9.638   9.214  11.162  0.6343  0.4702 -0.4509
  802MOL0     H 8248   9.881   9.116  11.180  2.0929 -3.9913 -1.2708
  802MOL0     H 8249   9.856   9.026  11.037 -2.2946 -2.3266  2.4189
  802MOL0     H 8250   8.754   8.998  10.601  0.4582  0.0678  0.6377
  802MOL0     H 8251   8.510   8.978  10.606  2.0183 -1.7632 -1.7171
  802MOL0     H 8252   8.044   9.003  10.668 -0.0608  0.1872 -0.2525
  802MOL0     H 8253   7.811   8.947  10.719 -0.6047 -1.0578 -0.8654
  802MOL0     H 8254   6.193   9.271  10.132  1.9165  1.1400  0.5784
  802MOL0     H 8255   6.000   9.289   9.968 -1.4576  2.5988 -2.3815
  802MOL0     H 8256   5.552   9.421   9.949  1.9878  0.5293  0.8210
  802MOL0     H 8257   5.312   9.477   9.998 -1.1559  0.1685  0.9518
  802MOL0     H 8258   5.177   9.659  10.189 -1.0713  2.3117 -0.0556
  802MOL0     H 8259   5.108   9.572  10.045  1.2727 -0.6401  0.8257
  802MOL0     H 8260   4.941   9.689  10.189 -0.5451 -0.3924  0.8786
  802MOL0     H 8261   4.955   9.755  10.015 -0.6710  3.3163  1.4191
  802MOL0     H 8262   5.090   9.942  10.090 -1.5892  0.8133 -1.0734
  802MOL0     H 8263   5.082   9.891  10.256 -0.0643  2.1266  0.2148
  802MOL0     H 8264   4.844   9.920  10.272  0.2088 -1.5216 -0.7092
  802MOL0     H 8265   4.931  10.069  10.227  0.0419  1.0754 -1.3044
  802MOL0     H 8266   4.770  10.090   9.870  1.3383 -0.2760 -1.1830
  802MOL0     H 8267   5.427   9.886  10.016 -1.1035 -0.1424 -0.1393
  802MOL0     H 8268   5.773   9.825  10.065 -0.4605 -0.0453  1.7718
  802MOL0     H 8269   5.731   9.899   9.908 -0.8450  2.2880  0.8142
  802MOL0     H 8270   5.645   9.948  10.059  2.8366 -0.0976  2.9891
  803MOL0     O 8271   9.096   4.773   1.496  0.0350 -1.0916 -0.2449
  803MOL0     C 8272   8.984   4.781   1.445  0.3128 -0.6270  0.1157
  803MOL0     O 8273   8.955   4.827   1.315 -0.1869  0.1440  0.3423
  803MOL0     C 8274   9.065   4.869   1.246  0.5338  0.6931 -0.4482
  803MOL0     C 8275   9.186   4.796   1.240 -0.4322  0.2802  0.4688
  803MOL0     C 8276   9.296   4.862   1.176  0.0217  0.2874  0.8350
  803MOL0     C 8277   9.292   4.994   1.115  0.3656 -0.3677  0.0152
  803MOL0     O 8278   9.402   5.067   1.075  0.2138  0.1971  0.1955
  803MOL0     C 8279   9.401   5.101   0.927  0.7329  0.4598 -0.6688
  803MOL0     C 8280   9.444   4.975   0.846 -0.0813  0.0937 -0.2661
  803MOL0     C 8281   9.587   4.939   0.879 -0.0532 -0.0082  0.1526
  803MOL0     C 8282   9.619   4.792   0.848  0.4722 -0.2819 -0.2666
  803MOL0     C 8283   9.755   4.771   0.912 -0.6358 -0.0095 -0.7308
  803MOL0     C 8284   9.821   4.639   0.903  0.2775  0.0639  0.0080
  803MOL0     C 8285   9.740   4.526   0.985  0.4890 -0.5236 -0.3240
  803MOL0     C 8286   9.806   4.384   0.953  0.7438 -0.0294 -0.1832
  803MOL0     N 8287   9.943   4.393   0.962 -0.8498 -0.4059 -0.1234
  803MOL0     C 8288  10.023   4.335   1.059  0.0546 -0.4244 -0.0693
  803MOL0     C 8289  10.148   4.321   1.004  0.1072 -0.7317  0.7289
  803MOL0     C 8290  10.271   4.264   1.074 -0.1471  0.0824 -0.3298
  803MOL0     C 8291  10.399   4.308   1.004 -0.0650 -0.1232 -0.5417
  803MOL0     C 8292  10.531   4.250   1.063  0.5261 -0.3631 -0.4118
  803MOL0     C 8293  10.552   4.102   1.045 -0.8825  0.0431  0.5127
  803MOL0     O 8294  10.681   4.061   1.105  0.2608 -0.7211 -0.0716
  803MOL0     C 8295  10.800   4.077   1.037 -0.1247 -0.1276  0.3138
  803MOL0     C 8296  10.917   4.058   1.101 -0.1314 -0.7845 -0.4999
  803MOL0     C 8297  11.046   4.068   1.045 -0.8307 -0.1245  1.0985
  803MOL0     C 8298  11.057   4.094   0.911 -0.0541 -1.5807  0.2345
  803MOL0     C 8299  11.186   4.116   0.840  0.4924  0.3181 -1.0371
  803MOL0     O 8300  11.295   4.096   0.919 -0.0339  0.1705 -0.1565
  803MOL0     C 8301  11.419   4.088   0.859  0.4571 -0.4455  0.7609
  803MOL0     C 8302  11.466   3.978   0.781  0.4447 -0.6067  0.2276
  803MOL0     C 8303  11.588   3.985   0.723  0.1939 -0.1054  0.9673
  803MOL0     C 8304  11.675   4.096   0.750 -0.4678  0.1028 -0.1452
  803MOL0     O 8305  11.806   4.098   0.706 -0.5290  0.0573  0.6161
  803MOL0     C 8306  11.852   4.078   0.572 -0.1604  0.7198 -0.2697
  803MOL0     C 8307  11.987   4.132   0.546  0.1793  0.1306 -0.3546
  803MOL0     C 8308  11.990   4.289   0.558  0.4595  0.1405  0.4312
  803MOL0     C 8309  11.932   4.339   0.430 -0.1862 -0.1355 -0.1271
  803MOL0     C 8310  11.954   4.496   0.446  0.2833 -0.2611  0.4725
  803MOL0     C 8311  11.900   4.558   0.307  0.3048  0.1344  0.0538
  803MOL0     C 8312  11.874   4.705   0.323 -0.4754  0.2382 -0.6623
  803MOL0     C 8313  11.828   4.770   0.200  0.2916 -1.1754 -0.5120
  803MOL0    Cl 8314  11.953   4.765   0.074 -0.3760  0.1815  0.2898
  803MOL0     C 8315  11.630   4.203   0.823  0.2441 -0.1372 -0.4406
  803MOL0     C 8316  11.513   4.191   0.888 -0.0393 -0.5948  0.5346
  803MOL0     O 8317  11.194   4.156   0.721  0.2083  0.0942 -0.3617
  803MOL0     C 8318  10.938   4.113   0.835 -0.0228 -0.2709  0.6584
  803MOL0     C 8319  10.816   4.105   0.903  0.2214  0.1901  0.2468
  803MOL0     N 8320  10.142   4.382   0.876 -0.1279 -0.0704 -0.3246
  803MOL0     N 8321  10.020   4.423   0.859  0.0718 -0.2629 -0.0498
  803MOL0     C 8322   9.171   5.064   1.129  0.5844  0.2094 -0.4912
  803MOL0     C 8323   9.065   5.002   1.197  0.6214 -0.9185  0.1416
  803MOL0     C 8324   8.867   4.743   1.542 -0.2931 -0.3963 -0.8483
  803MOL0     C 8325   8.746   4.812   1.516  0.6404  0.7511  0.3558
  803MOL0     C 8326   8.625   4.792   1.590 -0.8563  0.1853 -1.0878
  803MOL0     C 8327   8.629   4.698   1.699  0.3529  0.1049 -0.1037
  803MOL0     O 8328   8.519   4.681   1.776  0.3978 -0.0532  0.9323
  803MOL0     C 8329   8.516   4.589   1.877 -0.2767 -0.2934 -0.5258
  803MOL0     C 8330   8.385   4.592   1.956 -0.5901  0.8717  0.6749
  803MOL0     C 8331   8.362   4.470   2.037  0.4527 -0.0745 -0.7805
  803MOL0     C 8332   8.232   4.468   2.119 -0.1541  0.2940  0.0196
  803MOL0     C 8333   8.116   4.430   2.034  0.2148  0.2262 -0.2222
  803MOL0     C 8334   8.025   4.403   1.958  0.2397  0.1954 -0.0871
  803MOL0     C 8335   8.752   4.624   1.721  0.0391  0.1589 -0.0139
  803MOL0     C 8336   8.868   4.642   1.643 -0.6378 -0.1673  0.0244
  803MOL0     C 8337   8.991   4.563   1.682 -0.2276  0.2407 -0.4660
  803MOL0     H 8338   9.197   4.693   1.272  1.4996 -0.5965 -2.6395
  803MOL0     H 8339   9.393   4.815   1.165  0.5164  1.3178  0.6852
  803MOL0     H 8340   9.300   5.133   0.901  0.3286  0.6664  1.0755
  803MOL0     H 8341   9.472   5.180   0.900 -0.6800  2.0026  0.0094
  803MOL0     H 8342   9.443   4.997   0.739 -1.8373 -2.4856 -0.8748
  803MOL0     H 8343   9.384   4.884   0.857  0.2181 -0.1032 -0.2252
  803MOL0     H 8344   9.603   4.956   0.986  2.2906 -0.0218 -0.1525
  803MOL0     H 8345   9.660   5.002   0.828 -1.4665  1.0176 -0.6580
  803MOL0     H 8346   9.545   4.725   0.892  1.0329 -0.9748 -0.3775
  803MOL0     H 8347   9.621   4.778   0.740  1.4591 -1.7551 -0.0868
  803MOL0     H 8348   9.827   4.844   0.873  0.2089  0.3664  1.4092
  803MOL0     H 8349   9.750   4.789   1.020 -1.9356 -0.3523 -0.7218
  803MOL0     H 8350   9.822   4.597   0.802 -2.9235  1.5787 -0.7948
  803MOL0     H 8351   9.922   4.639   0.945 -1.3269 -0.2340  4.4537
  803MOL0     H 8352   9.632   4.527   0.964  0.4365 -0.2533 -0.0409
  803MOL0     H 8353   9.753   4.545   1.092  0.6128  0.0050 -0.4269
  803MOL0     H 8354   9.765   4.304   1.015  1.8104 -0.8330 -0.4875
  803MOL0     H 8355   9.780   4.372   0.847  1.1853 -0.0474 -0.2913
  803MOL0     H 8356   9.984   4.309   1.157  3.1120  2.6523  2.2010
  803MOL0     H 8357  10.265   4.282   1.181  0.6569  0.4378 -0.3356
  803MOL0     H 8358  10.271   4.154   1.074 -0.0102  0.0503 -1.8899
  803MOL0     H 8359  10.402   4.280   0.899  3.4514 -0.0764 -0.5964
  803MOL0     H 8360  10.404   4.418   1.006 -2.6947  0.0418  0.5352
  803MOL0     H 8361  10.544   4.282   1.166 -1.0707 -0.2681 -0.2121
  803MOL0     H 8362  10.614   4.293   1.007 -1.8153  2.4248 -2.0147
  803MOL0     H 8363  10.545   4.069   0.941  0.2856  0.0065  0.4322
  803MOL0     H 8364  10.482   4.043   1.104 -1.6930 -0.5095 -0.9592
  803MOL0     H 8365  10.897   4.057   1.208 -0.6571 -0.5159 -0.5955
  803MOL0     H 8366  11.124   4.073   1.121 -0.0930 -0.1439  0.3659
  803MOL0     H 8367  11.391   3.901   0.767  0.3869 -0.4539 -0.3577
  803MOL0     H 8368  11.617   3.904   0.656 -2.3706 -1.0718  0.9049
  803MOL0     H 8369  11.851   3.975   0.534 -0.1934  1.4051 -2.2530
  803MOL0     H 8370  11.781   4.128   0.506  0.3864 -1.2826 -2.5032
  803MOL0     H 8371  12.058   4.096   0.621  0.6505  1.0357 -0.3492
  803MOL0     H 8372  12.026   4.099   0.449 -0.0361 -1.0637 -0.0487
  803MOL0     H 8373  11.934   4.325   0.645  0.8467 -2.1199  1.7046
  803MOL0     H 8374  12.092   4.325   0.572  1.8884 -3.3239  0.0202
  803MOL0     H 8375  11.827   4.308   0.428  0.3233 -2.1108 -3.2935
  803MOL0     H 8376  11.983   4.297   0.343  0.5702  0.6292 -0.0702
  803MOL0     H 8377  12.057   4.525   0.468 -0.3095  0.8159  2.0889
  803MOL0     H 8378  11.893   4.536   0.528  1.1310  1.5204  0.2793
  803MOL0     H 8379  11.975   4.543   0.228 -0.5591  0.3534 -0.8230
  803MOL0     H 8380  11.818   4.502   0.262 -1.9895  2.4680  1.0872
  803MOL0     H 8381  11.972   4.745   0.349 -0.3141 -1.0091  0.7541
  803MOL0     H 8382  11.792   4.711   0.395 -0.3706 -0.7779 -0.4397
  803MOL0     H 8383  11.739   4.713   0.169 -1.2656  1.4764 -1.2419
  803MOL0     H 8384  11.804   4.876   0.214  0.2350 -1.3466  0.7315
  803MOL0     H 8385  11.696   4.287   0.844  0.7891 -1.1298  2.1614
  803MOL0     H 8386  11.487   4.275   0.952 -0.8668 -1.6263  1.6113
  803MOL0     H 8387  10.945   4.129   0.728 -0.4776  1.2288  0.8240
  803MOL0     H 8388  10.720   4.097   0.851 -1.7809  0.7408  3.5863
  803MOL0     H 8389   9.150   5.167   1.104 -2.3252  0.1942  1.4572
  803MOL0     H 8390   8.970   5.054   1.207  0.2912 -1.7813  1.7872
  803MOL0     H 8391   8.746   4.872   1.425 -1.1439  0.5502  0.1919
  803MOL0     H 8392   8.525   4.831   1.578 -2.4584 -2.5776  1.5068
  803MOL0     H 8393   8.606   4.600   1.939  0.4001 -2.8549 -0.9425
  803MOL0     H 8394   8.526   4.486   1.841  1.3740 -0.3479 -0.0114
  803MOL0     H 8395   8.304   4.609   1.885 -1.0586  0.4642  1.1030
  803MOL0     H 8396   8.395   4.670   2.032  0.0848  1.9269 -0.4764
  803MOL0     H 8397   8.441   4.453   2.111 -1.1670  0.5530  1.1998
  803MOL0     H 8398   8.369   4.384   1.970  0.5541  2.0139 -3.6249
  803MOL0     H 8399   8.241   4.394   2.199  0.4696  0.7263  0.3637
  803MOL0     H 8400   8.203   4.563   2.166 -3.2580 -0.7677  0.4955
  803MOL0     H 8401   7.944   4.369   1.897 -1.6547 -1.6015  3.1517
  803MOL0     H 8402   8.756   4.541   1.791 -0.0923  1.0990  1.1431
  803MOL0     H 8403   9.055   4.624   1.746  0.5670 -0.2473 -0.7781
  803MOL0     H 8404   8.955   4.472   1.730 -0.6340 -0.2888 -1.7494
  803MOL0     H 8405   9.051   4.547   1.592 -2.0829  4.6791 -2.8293
  804MOL0     O 8406   9.406   5.275   6.017  0.5630 -0.6525 -0.2674
  804MOL0     C 8407   9.375   5.380   5.959 -0.1416  0.7063  0.3327
  804MOL0     O 8408   9.444   5.500   5.960 -1.0012 -0.3751  0.2289
  804MOL0     C 8409   9.547   5.523   6.044  0.7259  1.3397  0.5484
  804MOL0     C 8410   9.539   5.635   6.124  0.3334 -0.2276  0.2217
  804MOL0     C 8411   9.644   5.667   6.215  0.1066 -0.5049  0.1191
  804MOL0     C 8412   9.758   5.586   6.228 -0.5493 -0.7551 -0.7240
  804MOL0     O 8413   9.869   5.610   6.309  0.0947  0.1167 -0.3493
  804MOL0     C 8414   9.885   5.744   6.367  0.0728 -0.1343  0.5567
  804MOL0     C 8415  10.015   5.740   6.442 -0.0204 -0.3354 -0.0984
  804MOL0     C 8416  10.140   5.732   6.343  0.4002 -0.6459  0.2796
  804MOL0     C 8417  10.141   5.837   6.228  0.3025 -0.2332 -1.1511
  804MOL0     C 8418  10.274   5.841   6.145  0.2629  0.1782  0.6693
  804MOL0     C 8419  10.391   5.911   6.219 -0.1944 -0.5225 -0.7490
  804MOL0     C 8420  10.487   5.968   6.122 -1.0788  0.1038  0.0432
  804MOL0     C 8421  10.606   6.023   6.198  0.0162 -0.1809  0.1564
  804MOL0     N 8422  10.725   6.060   6.120  0.2970  0.1450 -0.5338
  804MOL0     C 8423  10.834   5.978   6.105 -0.2634  0.5369 -0.5014
  804MOL0     C 8424  10.918   6.034   6.020 -0.4568 -0.2791  1.3729
  804MOL0     C 8425  11.051   5.966   5.963  0.6393 -0.3890 -0.2683
  804MOL0     C 8426  11.156   6.069   5.949  0.0931 -0.1801 -0.1412
  804MOL0     C 8427  11.268   6.009   5.867  0.0171  0.8153 -0.7895
  804MOL0     C 8428  11.391   6.103   5.879  0.4160 -0.3977 -0.4278
  804MOL0     O 8429  11.496   6.056   5.801  0.0238 -0.1705  0.2566
  804MOL0     C 8430  11.619   6.065   5.868  0.3137  0.2176  0.6042
  804MOL0     C 8431  11.677   5.944   5.909  0.6554  0.2558  0.9041
  804MOL0     C 8432  11.806   5.944   5.960 -0.2076 -0.0053 -0.0677
  804MOL0     C 8433  11.872   6.069   5.985  0.1510 -0.1059  0.4313
  804MOL0     C 8434  12.007   6.074   6.040  0.9306 -0.1067 -0.1152
  804MOL0     O 8435  12.087   5.957   6.049  0.0798 -0.0502 -0.3778
  804MOL0     C 8436  12.207   5.977   6.103 -0.7983  0.5492 -0.0518
  804MOL0     C 8437  12.299   6.080   6.071  0.7256  0.2113  0.1497
  804MOL0     C 8438  12.422   6.081   6.125  0.1631 -0.9770 -0.1209
  804MOL0     C 8439  12.471   5.977   6.197 -0.3603  0.3888  0.1225
  804MOL0     O 8440  12.592   5.990   6.251  0.0595  0.2278  0.3256
  804MOL0     C 8441  12.665   5.877   6.286 -0.4636  0.3084  0.3695
  804MOL0     C 8442  12.807   5.925   6.295 -0.3395 -0.8069 -0.3423
  804MOL0     C 8443  12.886   5.837   6.395 -0.0084  0.3081 -0.0230
  804MOL0     C 8444  13.036   5.867   6.395  0.7931  0.1706 -0.1157
  804MOL0     C 8445  13.095   5.817   6.256 -0.4942 -0.0842  0.2825
  804MOL0     C 8446  13.238   5.778   6.282 -0.3378  0.0169  0.2075
  804MOL0     C 8447  13.328   5.889   6.349  0.3150 -0.4805  0.0795
  804MOL0     C 8448  13.473   5.837   6.354  0.2487  0.2752  0.1868
  804MOL0    Cl 8449  13.578   5.961   6.417  0.5003  0.2232 -0.1403
  804MOL0     C 8450  12.388   5.868   6.225  0.4727  0.4289 -0.2641
  804MOL0     C 8451  12.258   5.877   6.180  0.9030 -0.2170 -0.5752
  804MOL0     O 8452  12.036   6.181   6.087  0.1664  0.5072 -0.0429
  804MOL0     C 8453  11.808   6.186   5.936 -0.0615 -0.1805 -0.0016
  804MOL0     C 8454  11.689   6.182   5.873 -0.4289 -0.4600  0.6155
  804MOL0     N 8455  10.854   6.159   5.981 -0.8906  0.1039  0.3145
  804MOL0     N 8456  10.742   6.177   6.047 -0.6017  0.5526  0.3143
  804MOL0     C 8457   9.761   5.464   6.153  0.3518 -0.6433  0.2738
  804MOL0     C 8458   9.657   5.436   6.054 -0.0932  0.7780  0.1701
  804MOL0     C 8459   9.233   5.389   5.900 -0.1028 -0.2904  0.2137
  804MOL0     C 8460   9.177   5.518   5.892 -0.4988 -0.1548 -0.0165
  804MOL0     C 8461   9.052   5.541   5.841  0.0091  0.4182 -0.0121
  804MOL0     C 8462   8.965   5.438   5.815  0.2237 -0.1573 -0.1676
  804MOL0     O 8463   8.836   5.461   5.769  0.0953  0.0206 -0.5605
  804MOL0     C 8464   8.800   5.578   5.710  0.5672  0.2590  0.3851
  804MOL0     C 8465   8.666   5.555   5.633  0.5727  0.3272  0.2547
  804MOL0     C 8466   8.547   5.516   5.718 -0.1522 -0.3709 -0.5487
  804MOL0     C 8467   8.410   5.552   5.664 -0.5010 -0.3958 -0.2752
  804MOL0     C 8468   8.369   5.463   5.557  0.3525 -0.2448 -0.1285
  804MOL0     C 8469   8.330   5.386   5.470  0.4901  0.6502 -0.5799
  804MOL0     C 8470   9.016   5.307   5.834  0.8319 -0.7551  0.0641
  804MOL0     C 8471   9.150   5.279   5.868 -0.1060 -0.5075  0.5032
  804MOL0     C 8472   9.186   5.134   5.882 -0.0705 -0.5145  0.3342
  804MOL0     H 8473   9.444   5.686   6.119  0.6401  0.5230  1.5485
  804MOL0     H 8474   9.628   5.747   6.287 -1.2451 -0.3599 -0.3051
  804MOL0     H 8475   9.876   5.818   6.287  0.7129 -2.1123 -1.4225
  804MOL0     H 8476   9.803   5.761   6.438 -0.3126  1.1768 -0.1705
  804MOL0     H 8477  10.012   5.652   6.507 -0.5433  0.0915  0.4703
  804MOL0     H 8478  10.036   5.830   6.500 -0.9115  0.9061 -1.6144
  804MOL0     H 8479  10.140   5.632   6.300 -3.9919 -2.4572  3.6870
  804MOL0     H 8480  10.222   5.743   6.414 -1.0150 -1.6893  2.1679
  804MOL0     H 8481  10.058   5.816   6.160 -1.2930  3.4171 -0.5770
  804MOL0     H 8482  10.120   5.930   6.282  0.9760 -1.1244  0.7410
  804MOL0     H 8483  10.307   5.738   6.124  3.3804  1.3635 -0.9109
  804MOL0     H 8484  10.259   5.897   6.052  2.4122 -0.5930 -0.2165
  804MOL0     H 8485  10.348   5.994   6.276  1.3788  0.7943 -1.4101
  804MOL0     H 8486  10.449   5.853   6.291 -1.3213  1.8408  2.3054
  804MOL0     H 8487  10.440   6.033   6.048 -1.5546 -3.0630 -2.6941
  804MOL0     H 8488  10.523   5.885   6.060  1.5099  0.4793  0.9024
  804MOL0     H 8489  10.583   6.123   6.236  0.8510  0.8339 -1.8607
  804MOL0     H 8490  10.632   5.954   6.279 -0.5130 -2.1369 -1.2690
  804MOL0     H 8491  10.852   5.887   6.161  2.3401  2.0199  1.3180
  804MOL0     H 8492  11.078   5.884   6.030 -2.2367  1.6097  3.8377
  804MOL0     H 8493  11.036   5.923   5.864 -0.3557  1.2308 -0.8725
  804MOL0     H 8494  11.116   6.146   5.882  0.4394 -2.1289 -2.7741
  804MOL0     H 8495  11.179   6.116   6.045  2.2012 -1.9178  0.2881
  804MOL0     H 8496  11.238   6.002   5.762  0.8896  4.6541 -1.4295
  804MOL0     H 8497  11.298   5.909   5.902  2.4910  1.6774 -0.2459
  804MOL0     H 8498  11.423   6.112   5.983 -0.9640 -0.0784 -0.0063
  804MOL0     H 8499  11.370   6.203   5.840  1.7084  0.7521  1.6344
  804MOL0     H 8500  11.620   5.853   5.898  2.1728 -0.5938 -0.3996
  804MOL0     H 8501  11.852   5.854   6.000 -0.6386  0.0452  0.5581
  804MOL0     H 8502  12.280   6.163   6.005 -0.7155 -0.0078  0.2623
  804MOL0     H 8503  12.484   6.167   6.105 -2.5697  0.8218 -1.3864
  804MOL0     H 8504  12.631   5.827   6.377  0.1900  2.1927  1.7336
  804MOL0     H 8505  12.662   5.810   6.200 -0.6717 -1.4558  1.7054
  804MOL0     H 8506  12.856   5.932   6.198 -2.2880 -0.1209 -1.3237
  804MOL0     H 8507  12.808   6.028   6.334  3.4141 -0.4816 -0.9215
  804MOL0     H 8508  12.834   5.855   6.490 -0.3231  3.6183 -0.7276
  804MOL0     H 8509  12.870   5.735   6.359 -0.8786  0.3919  0.0971
  804MOL0     H 8510  13.077   5.814   6.482  1.1875  1.1952  0.3402
  804MOL0     H 8511  13.051   5.974   6.411 -0.1644  0.0636  1.7543
  804MOL0     H 8512  13.094   5.898   6.183  0.4664 -0.5007 -0.2109
  804MOL0     H 8513  13.039   5.736   6.208 -1.2709  0.2669  0.5747
  804MOL0     H 8514  13.239   5.689   6.345 -2.3664  0.1618  0.4965
  804MOL0     H 8515  13.274   5.760   6.180 -1.2072 -2.8072  0.3024
  804MOL0     H 8516  13.298   5.903   6.453  1.4843 -0.1320  0.3769
  804MOL0     H 8517  13.314   5.982   6.293 -2.8282 -0.3413  0.9220
  804MOL0     H 8518  13.481   5.751   6.421 -0.8829  0.0131  0.0079
  804MOL0     H 8519  13.515   5.811   6.256  1.0884 -1.8228  1.0343
  804MOL0     H 8520  12.421   5.784   6.285  0.1482 -1.5844 -2.7322
  804MOL0     H 8521  12.203   5.785   6.197  2.4085 -0.8002  1.6761
  804MOL0     H 8522  11.862   6.279   5.949 -2.8401  1.3786  1.2216
  804MOL0     H 8523  11.642   6.275   5.842  1.3338 -0.0019 -0.8231
  804MOL0     H 8524   9.851   5.404   6.161  1.9821  1.8633  5.1363
  804MOL0     H 8525   9.651   5.348   5.991  0.5879  1.2346 -0.5464
  804MOL0     H 8526   9.225   5.605   5.935 -0.5297  0.3979 -1.0559
  804MOL0     H 8527   9.013   5.641   5.823 -1.0812  0.0827  0.3695
  804MOL0     H 8528   8.879   5.610   5.642  1.3281 -2.5487 -0.1717
  804MOL0     H 8529   8.785   5.652   5.789 -2.4868 -0.1503  0.3393
  804MOL0     H 8530   8.686   5.480   5.556  3.0460  4.0070 -3.0798
  804MOL0     H 8531   8.635   5.646   5.580 -1.9950 -0.3278  0.4862
  804MOL0     H 8532   8.553   5.566   5.815  4.8402 -3.5853  1.1922
  804MOL0     H 8533   8.563   5.409   5.737  2.1367  0.0940  0.4456
  804MOL0     H 8534   8.338   5.539   5.746  1.3997 -2.0982  1.2446
  804MOL0     H 8535   8.405   5.657   5.635 -0.2268  0.0726  1.2313
  804MOL0     H 8536   8.290   5.326   5.391  0.0506 -3.3449  2.3707
  804MOL0     H 8537   8.940   5.232   5.816 -0.9014 -0.4468  4.6329
  804MOL0     H 8538   9.179   5.111   5.989  0.6257  0.3876  0.5853
  804MOL0     H 8539   9.106   5.075   5.837 -0.6989  1.0443 -0.6905
  804MOL0     H 8540   9.282   5.109   5.836 -0.6024 -2.2679  0.1255
  805MOL0     O 8541   9.580  10.836   5.755 -0.3519  0.0250 -0.0850
  805MOL0     C 8542   9.509  10.921   5.697  0.2966  0.3496  0.4713
  805MOL0     O 8543   9.519  10.954   5.560 -0.6968  0.2494 -0.0655
  805MOL0     C 8544   9.646  10.968   5.508  0.5581 -0.5733 -0.3020
  805MOL0     C 8545   9.667  10.941   5.375  0.3712  0.1206 -0.0148
  805MOL0     C 8546   9.791  10.970   5.318  0.1539 -0.3368 -0.1472
  805MOL0     C 8547   9.899  11.027   5.399 -0.2464 -0.0308  0.2336
  805MOL0     O 8548  10.019  11.028   5.329  0.4972 -0.2779  0.5916
  805MOL0     C 8549  10.135  11.099   5.384  0.4063 -0.2538 -0.4481
  805MOL0     C 8550  10.264  11.091   5.294 -0.6209 -0.3407  0.1390
  805MOL0     C 8551  10.391  11.147   5.359  0.2329 -0.1701 -0.8014
  805MOL0     C 8552  10.450  11.260   5.277  0.3436  0.3184  0.5055
  805MOL0     C 8553  10.594  11.305   5.318  0.1030 -0.2131  0.2638
  805MOL0     C 8554  10.705  11.197   5.298  0.1531  0.3746 -0.9965
  805MOL0     C 8555  10.843  11.247   5.333 -0.1428 -1.0727 -0.3698
  805MOL0     C 8556  10.895  11.305   5.201 -0.1066  0.3299  0.1887
  805MOL0     N 8557  11.025  11.364   5.220 -1.2055  0.7948  1.0231
  805MOL0     C 8558  11.059  11.496   5.203  0.6040 -0.6229  0.4815
  805MOL0     C 8559  11.188  11.498   5.234 -0.3015 -0.0630 -0.1046
  805MOL0     C 8560  11.275  11.626   5.228 -0.3126 -0.1830  0.8315
  805MOL0     C 8561  11.280  11.692   5.089 -0.2397  0.4487 -0.2630
  805MOL0     C 8562  11.392  11.645   4.991  0.3432  0.3810  0.3706
  805MOL0     C 8563  11.540  11.626   5.043 -0.1076  0.3260  0.1291
  805MOL0     O 8564  11.581  11.751   5.095  0.3712  0.3049 -0.1408
  805MOL0     C 8565  11.711  11.754   5.146  0.0671  0.1320 -1.0952
  805MOL0     C 8566  11.787  11.632   5.169 -0.3492 -0.0066 -0.3456
  805MOL0     C 8567  11.924  11.647   5.204  0.2289 -0.5591 -0.2217
  805MOL0     C 8568  11.988  11.772   5.233 -0.2667  0.2694 -0.1504
  805MOL0     C 8569  12.122  11.795   5.271 -0.1363 -0.6000  0.2535
  805MOL0     O 8570  12.172  11.913   5.307 -0.0450  0.0058  0.3143
  805MOL0     C 8571  12.296  11.928   5.349 -0.2231  0.8031  0.3603
  805MOL0     C 8572  12.396  11.979   5.264 -0.4194 -0.4198 -0.3713
  805MOL0     C 8573  12.522  11.981   5.316  0.0420 -0.2601  0.0366
  805MOL0     C 8574  12.557  11.939   5.443 -0.6295 -0.6538  0.4459
  805MOL0     O 8575  12.692  11.949   5.479  0.4864  0.2452 -0.0537
  805MOL0     C 8576  12.744  11.837   5.551  0.7100 -0.5882  0.7018
  805MOL0     C 8577  12.888  11.825   5.518  0.2507  0.7545  0.2137
  805MOL0     C 8578  12.985  11.943   5.548  0.1199  0.1734  0.1212
  805MOL0     C 8579  13.115  11.912   5.494  0.1423 -1.1375  0.5621
  805MOL0     C 8580  13.208  12.026   5.530 -0.0481 -0.4438  0.5623
  805MOL0     C 8581  13.349  12.017   5.479 -0.4269  0.8005  0.3324
  805MOL0     C 8582  13.426  11.908   5.555 -0.6730 -0.5535  0.0984
  805MOL0     C 8583  13.583  11.919   5.522  0.3543 -0.5359 -0.9244
  805MOL0    Cl 8584  13.659  11.766   5.547 -0.2383  0.2063  0.2825
  805MOL0     C 8585  12.456  11.897   5.530 -0.9439 -0.6814 -0.0986
  805MOL0     C 8586  12.326  11.889   5.483  0.1170  0.3395  0.0760
  805MOL0     O 8587  12.185  11.690   5.262 -0.1719 -0.2761 -0.4861
  805MOL0     C 8588  11.916  11.886   5.216  0.5095  0.3056  0.6366
  805MOL0     C 8589  11.778  11.874   5.174  0.3180 -0.3276  0.0674
  805MOL0     N 8590  11.238  11.368   5.257 -1.1148 -0.0810 -0.3246
  805MOL0     N 8591  11.134  11.289   5.261 -0.0624 -0.5911  0.2049
  805MOL0     C 8592   9.871  11.062   5.527  0.0668 -0.5396 -0.6933
  805MOL0     C 8593   9.746  11.039   5.585  0.2776  0.4727  0.5999
  805MOL0     C 8594   9.396  10.963   5.773  0.3446 -0.5258 -0.3329
  805MOL0     C 8595   9.333  10.885   5.867 -1.1404 -0.4655 -0.8498
  805MOL0     C 8596   9.217  10.922   5.942  0.6757  0.7630  0.2538
  805MOL0     C 8597   9.161  11.047   5.916 -0.2529 -0.0977  0.0047
  805MOL0     O 8598   9.047  11.091   5.975  0.3427  0.1114  0.0123
  805MOL0     C 8599   9.048  11.090   6.116  0.0185  0.9212  0.7036
  805MOL0     C 8600   8.937  11.185   6.162 -0.3331 -0.5773  1.3092
  805MOL0     C 8601   8.924  11.186   6.307  0.1868  0.4513 -0.5638
  805MOL0     C 8602   8.811  11.281   6.333  0.3261  0.1410  0.8724
  805MOL0     C 8603   8.772  11.267   6.472 -0.2896  0.3619  0.3303
  805MOL0     C 8604   8.761  11.257   6.595  0.4574 -0.9418 -0.1007
  805MOL0     C 8605   9.216  11.127   5.815 -0.2819 -0.0939 -0.4469
  805MOL0     C 8606   9.331  11.086   5.744  0.9098 -0.6532 -0.3017
  805MOL0     C 8607   9.383  11.186   5.641  0.0584 -0.1692 -0.1075
  805MOL0     H 8608   9.594  10.883   5.319  2.0000 -1.3217 -0.7782
  805MOL0     H 8609   9.797  10.950   5.212  0.4403 -1.2899  0.0383
  805MOL0     H 8610  10.106  11.204   5.401  1.7160 -0.0449  0.6599
  805MOL0     H 8611  10.173  11.057   5.478  2.6200  0.3075 -1.0347
  805MOL0     H 8612  10.251  11.156   5.206  2.8347  2.0868  1.1818
  805MOL0     H 8613  10.280  10.984   5.279 -2.9301 -0.6664 -0.3336
  805MOL0     H 8614  10.474  11.077   5.374  1.3867  1.9229  4.4306
  805MOL0     H 8615  10.366  11.188   5.457 -0.7104  0.0942 -1.1393
  805MOL0     H 8616  10.456  11.228   5.172 -0.0472  1.8037  0.0151
  805MOL0     H 8617  10.385  11.347   5.283 -2.1385 -1.4953  2.3221
  805MOL0     H 8618  10.617  11.384   5.246  0.3343 -1.0148 -0.5606
  805MOL0     H 8619  10.593  11.354   5.416  2.4649  2.5042 -0.9202
  805MOL0     H 8620  10.678  11.115   5.365  0.0963  2.2275  1.3911
  805MOL0     H 8621  10.691  11.160   5.196 -0.5172  0.6189 -1.0010
  805MOL0     H 8622  10.904  11.172   5.382  1.9119  1.1665  0.7066
  805MOL0     H 8623  10.828  11.334   5.399 -1.5891 -1.5999  0.0381
  805MOL0     H 8624  10.899  11.214   5.140  2.0096  0.9846 -0.7525
  805MOL0     H 8625  10.821  11.375   5.162 -0.3565  0.9818  1.7417
  805MOL0     H 8626  10.997  11.572   5.156  1.9923 -0.3384 -0.9835
  805MOL0     H 8627  11.217  11.693   5.292 -3.6096 -1.9980  0.0032
  805MOL0     H 8628  11.374  11.604   5.267 -0.2272  2.4005  2.2914
  805MOL0     H 8629  11.183  11.692   5.039 -0.3462  1.2765 -0.0726
  805MOL0     H 8630  11.287  11.798   5.117 -0.9801  0.4278  0.0282
  805MOL0     H 8631  11.394  11.728   4.919 -0.5314 -1.1819 -1.5680
  805MOL0     H 8632  11.350  11.558   4.941  1.4379  1.1202 -1.9982
  805MOL0     H 8633  11.600  11.607   4.953 -0.4209 -1.0700  0.1908
  805MOL0     H 8634  11.549  11.550   5.121  1.8532 -0.2092 -0.5489
  805MOL0     H 8635  11.755  11.531   5.146 -1.4036  0.5198 -1.2534
  805MOL0     H 8636  11.979  11.555   5.188 -0.4303 -1.2095  1.1053
  805MOL0     H 8637  12.391  12.010   5.160 -1.8532 -1.1973 -0.5644
  805MOL0     H 8638  12.610  12.016   5.263  0.9537  0.7801  2.1062
  805MOL0     H 8639  12.728  11.846   5.658  0.1368 -1.4644  0.7000
  805MOL0     H 8640  12.695  11.747   5.512  0.6175  0.2042 -1.0946
  805MOL0     H 8641  12.920  11.754   5.595  0.7681  1.8540  1.0388
  805MOL0     H 8642  12.898  11.782   5.418 -1.9989  1.9401 -0.5892
  805MOL0     H 8643  12.954  12.036   5.500 -3.2696 -0.8988 -0.0607
  805MOL0     H 8644  13.004  11.964   5.654  1.4816 -0.0542 -0.0631
  805MOL0     H 8645  13.094  11.911   5.387 -1.2064  1.7613  0.7047
  805MOL0     H 8646  13.147  11.812   5.527 -1.2372 -2.6013 -2.1872
  805MOL0     H 8647  13.205  12.051   5.636 -0.6067  0.6186  0.3115
  805MOL0     H 8648  13.160  12.108   5.475 -0.0018 -0.9315 -0.2136
  805MOL0     H 8649  13.348  12.009   5.370  3.8359 -0.1558  0.1889
  805MOL0     H 8650  13.403  12.109   5.503  2.0878 -0.3375 -0.5095
  805MOL0     H 8651  13.378  11.812   5.532 -0.7282 -1.6480  3.9845
  805MOL0     H 8652  13.417  11.925   5.663 -1.3288 -0.0322 -0.0294
  805MOL0     H 8653  13.584  11.954   5.418 -1.9556  2.8570  0.0346
  805MOL0     H 8654  13.630  11.997   5.582 -0.6594  0.6467 -1.6099
  805MOL0     H 8655  12.485  11.868   5.630  3.7937  1.3670 -0.5830
  805MOL0     H 8656  12.250  11.870   5.558  1.0256 -0.1205  0.9199
  805MOL0     H 8657  11.955  11.987   5.223 -1.7962  1.2372  0.7247
  805MOL0     H 8658  11.725  11.964   5.145  3.4228  1.1282 -1.7102
  805MOL0     H 8659   9.935  11.127   5.585 -0.7423  2.2271 -2.6957
  805MOL0     H 8660   9.719  11.074   5.685  1.3253  0.7696  0.7887
  805MOL0     H 8661   9.370  10.784   5.880 -2.4192 -0.9920 -1.0964
  805MOL0     H 8662   9.175  10.858   6.019 -0.9929  1.0725 -0.3509
  805MOL0     H 8663   9.144  11.101   6.168  0.5958  2.0487 -0.5470
  805MOL0     H 8664   9.024  10.986   6.139  2.6585 -0.9111 -3.5500
  805MOL0     H 8665   8.850  11.163   6.100  0.2528  2.3926 -0.8016
  805MOL0     H 8666   8.974  11.282   6.126  1.9295 -1.7176  0.3919
  805MOL0     H 8667   9.019  11.213   6.355  0.8240 -1.8182 -0.4244
  805MOL0     H 8668   8.901  11.089   6.350  2.0739  2.1317  5.1100
  805MOL0     H 8669   8.844  11.384   6.317  1.3620  0.0657  2.3069
  805MOL0     H 8670   8.720  11.242   6.286 -1.5813  2.5447  2.2956
  805MOL0     H 8671   8.760  11.258   6.702 -1.5880  3.1413  0.0226
  805MOL0     H 8672   9.168  11.220   5.789 -0.7807 -0.4880 -0.9685
  805MOL0     H 8673   9.339  11.284   5.665  0.7068 -0.1219  0.9731
  805MOL0     H 8674   9.491  11.198   5.650  0.0432  0.1904 -0.3638
  805MOL0     H 8675   9.350  11.157   5.541  1.0274  1.9316 -1.1080
  806MOL0     O 8676   3.860  11.137   9.790 -0.2770  0.0451  0.5852
  806MOL0     C 8677   3.759  11.110   9.723 -0.0865  0.1323 -0.1057
  806MOL0     O 8678   3.757  11.037   9.608 -0.0323  0.0729  0.0955
  806MOL0     C 8679   3.864  10.999   9.525 -0.1672 -0.3835  0.4299
  806MOL0     C 8680   3.981  11.076   9.522 -0.1364 -0.2391  0.5036
  806MOL0     C 8681   4.082  11.053   9.432  0.1272  0.2113  0.0513
  806MOL0     C 8682   4.074  10.942   9.341  0.5117  1.0056  0.6092
  806MOL0     O 8683   4.180  10.904   9.249  0.5811 -0.2269  0.2476
  806MOL0     C 8684   4.281  10.997   9.246 -0.5268 -0.0027  0.5721
  806MOL0     C 8685   4.370  10.962   9.130 -0.4805 -0.4079  0.1674
  806MOL0     C 8686   4.500  11.050   9.137 -0.4623  0.7081  0.5151
  806MOL0     C 8687   4.594  10.993   9.020 -0.3510 -0.1639 -0.1556
  806MOL0     C 8688   4.730  11.061   9.016  0.6156 -0.4736  0.3619
  806MOL0     C 8689   4.728  11.207   8.978 -0.1615 -1.4917  1.6086
  806MOL0     C 8690   4.655  11.230   8.839 -1.1990  0.1397 -0.4440
  806MOL0     C 8691   4.732  11.165   8.723  0.2047 -0.3442 -0.1025
  806MOL0     N 8692   4.862  11.230   8.714 -0.1164 -0.0065 -0.1380
  806MOL0     C 8693   4.893  11.363   8.720 -0.6483 -0.0053 -0.0996
  806MOL0     C 8694   5.031  11.362   8.699 -0.0102 -0.5223 -0.1328
  806MOL0     C 8695   5.117  11.479   8.742  0.4226 -1.0965 -0.0899
  806MOL0     C 8696   5.213  11.532   8.628  0.4047 -0.2358  0.6331
  806MOL0     C 8697   5.308  11.640   8.660 -0.0843 -0.1739 -0.4707
  806MOL0     C 8698   5.410  11.670   8.544  0.8464 -0.0049 -0.1468
  806MOL0     O 8699   5.520  11.582   8.542 -0.3416 -0.2598 -0.5106
  806MOL0     C 8700   5.631  11.601   8.615 -0.3473 -0.2115  0.0638
  806MOL0     C 8701   5.746  11.528   8.583 -0.7119 -1.0071  0.3831
  806MOL0     C 8702   5.866  11.537   8.654  0.3023  0.2814  0.2559
  806MOL0     C 8703   5.878  11.629   8.755  0.1208 -0.3968  0.0603
  806MOL0     C 8704   6.006  11.670   8.817 -0.0244 -0.7409  0.0546
  806MOL0     O 8705   6.108  11.589   8.774 -0.0441 -0.6661  0.1217
  806MOL0     C 8706   6.228  11.595   8.834 -0.8718 -0.1116  0.0723
  806MOL0     C 8707   6.266  11.636   8.960  0.5166  0.3268 -0.3267
  806MOL0     C 8708   6.398  11.643   9.005 -1.2304 -0.6266 -0.4938
  806MOL0     C 8709   6.512  11.612   8.923 -0.9744  0.0112 -0.4034
  806MOL0     O 8710   6.645  11.624   8.975  0.3698 -0.2918  0.2565
  806MOL0     C 8711   6.659  11.610   9.113 -0.0979 -0.2617  0.2984
  806MOL0     C 8712   6.806  11.571   9.132  0.3753 -0.3931 -0.9860
  806MOL0     C 8713   6.909  11.685   9.111  0.1105 -0.5363 -0.4705
  806MOL0     C 8714   7.052  11.625   9.106 -0.0519  0.6372 -0.2981
  806MOL0     C 8715   7.162  11.732   9.095  0.8487  0.4728 -0.1092
  806MOL0     C 8716   7.302  11.680   9.044  0.5784  0.1019 -0.3673
  806MOL0     C 8717   7.313  11.634   8.901 -0.2868  0.1342 -0.4579
  806MOL0     C 8718   7.442  11.566   8.870  0.2899  0.3490 -0.0512
  806MOL0    Cl 8719   7.579  11.676   8.899  0.5114 -0.3294  0.3379
  806MOL0     C 8720   6.475  11.569   8.795 -0.0683  0.7332 -0.2130
  806MOL0     C 8721   6.339  11.555   8.755  0.9890 -0.5010 -0.0341
  806MOL0     O 8722   6.008  11.771   8.894 -0.6288 -0.0183 -0.1285
  806MOL0     C 8723   5.762  11.704   8.792  0.1161 -0.5890 -0.1105
  806MOL0     C 8724   5.641  11.693   8.721 -0.8340 -0.5807 -0.6515
  806MOL0     N 8725   5.072  11.227   8.675  0.1395 -0.5950  0.8737
  806MOL0     N 8726   4.969  11.157   8.681 -0.2332  0.0541  0.3827
  806MOL0     C 8727   3.955  10.858   9.346 -0.5259 -0.3069 -0.5778
  806MOL0     C 8728   3.847  10.890   9.429  0.1803 -0.1466  0.0524
  806MOL0     C 8729   3.622  11.153   9.767 -1.0597 -0.1934  0.3250
  806MOL0     C 8730   3.504  11.092   9.718 -1.3840 -0.0938 -0.6082
  806MOL0     C 8731   3.379  11.135   9.766 -1.2952 -0.4695  0.1866
  806MOL0     C 8732   3.371  11.254   9.846 -0.4157  0.2819  0.1203
  806MOL0     O 8733   3.259  11.316   9.899 -0.2598  0.0674 -0.6723
  806MOL0     C 8734   3.130  11.276   9.855  0.1045  0.8618 -0.0341
  806MOL0     C 8735   3.035  11.389   9.878  0.9161 -0.7033 -0.1272
  806MOL0     C 8736   2.891  11.342   9.862  0.3501  0.5265  0.0476
  806MOL0     C 8737   2.780  11.450   9.884 -0.0902 -0.3264  0.4874
  806MOL0     C 8738   2.648  11.400   9.839  0.5692  0.1301 -0.3393
  806MOL0     C 8739   2.539  11.361   9.796 -0.1547  0.0901  0.3691
  806MOL0     C 8740   3.484  11.315   9.883 -0.0328 -0.4912 -0.0634
  806MOL0     C 8741   3.613  11.275   9.848  0.2546  0.3955  0.9299
  806MOL0     C 8742   3.718  11.384   9.857  0.5166 -0.0231 -0.1034
  806MOL0     H 8743   3.992  11.155   9.596 -4.1045  0.4619  0.5870
  806MOL0     H 8744   4.163  11.125   9.436 -0.5674  0.9661  1.2514
  806MOL0     H 8745   4.258  11.103   9.230 -1.8829 -0.4676 -0.8057
  806MOL0     H 8746   4.340  10.993   9.338 -0.7397 -1.2179  0.6627
  806MOL0     H 8747   4.308  10.994   9.045 -0.3131  3.6574  1.3344
  806MOL0     H 8748   4.401  10.858   9.134  1.7696  0.2597  1.2129
  806MOL0     H 8749   4.546  11.038   9.235  4.0856 -2.3763 -1.6626
  806MOL0     H 8750   4.468  11.150   9.106 -0.7190  0.1632 -1.0413
  806MOL0     H 8751   4.603  10.886   9.039 -0.1597  0.1300  1.5659
  806MOL0     H 8752   4.532  10.987   8.930 -2.0796  0.1026  0.9694
  806MOL0     H 8753   4.776  11.050   9.115 -1.2805  0.1515  1.3538
  806MOL0     H 8754   4.791  10.993   8.955  0.0471 -1.9010  1.3122
  806MOL0     H 8755   4.673  11.269   9.049 -0.6979  2.0157 -1.5495
  806MOL0     H 8756   4.829  11.249   8.980 -1.5699  2.2414  2.4763
  806MOL0     H 8757   4.650  11.339   8.837  2.8411  0.4730 -0.4477
  806MOL0     H 8758   4.552  11.192   8.846 -2.0592  2.5499  1.9239
  806MOL0     H 8759   4.743  11.057   8.739  0.8391 -0.7286 -2.7173
  806MOL0     H 8760   4.676  11.182   8.630  1.4769  1.5703 -0.5664
  806MOL0     H 8761   4.824  11.440   8.750 -1.8725 -0.8105 -0.7747
  806MOL0     H 8762   5.057  11.565   8.771  0.5523 -1.3386  0.9128
  806MOL0     H 8763   5.174  11.448   8.830  1.2800  1.3102  0.2792
  806MOL0     H 8764   5.275  11.449   8.592  0.8678 -0.2840  1.5315
  806MOL0     H 8765   5.145  11.570   8.551  0.3390 -0.5022  0.5551
  806MOL0     H 8766   5.340  11.627   8.764 -2.6518 -0.2872  0.3899
  806MOL0     H 8767   5.247  11.731   8.665  1.4940  0.9409 -0.8009
  806MOL0     H 8768   5.436  11.776   8.530  0.5670  0.2659  1.2271
  806MOL0     H 8769   5.347  11.643   8.458  1.7511  1.9838 -1.5184
  806MOL0     H 8770   5.736  11.461   8.498 -0.5600 -0.6394  0.0724
  806MOL0     H 8771   5.943  11.466   8.625 -1.2775 -1.6598  0.6286
  806MOL0     H 8772   6.195  11.670   9.036  1.0994 -0.7290  0.7203
  806MOL0     H 8773   6.408  11.688   9.103  1.0518 -3.2084  0.6053
  806MOL0     H 8774   6.639  11.706   9.161 -1.1541  0.7234 -1.9517
  806MOL0     H 8775   6.594  11.531   9.152 -1.7458  0.7634 -0.2209
  806MOL0     H 8776   6.820  11.529   9.232  1.0416 -1.7064 -1.6122
  806MOL0     H 8777   6.835  11.497   9.057  0.5681  0.4675 -1.7844
  806MOL0     H 8778   6.890  11.738   9.017  0.5585  1.2841  0.4176
  806MOL0     H 8779   6.908  11.764   9.186  1.0840 -0.3478 -0.6427
  806MOL0     H 8780   7.063  11.544   9.033  1.3238 -0.9049  1.4916
  806MOL0     H 8781   7.083  11.572   9.197  0.1716 -1.3675 -1.4810
  806MOL0     H 8782   7.164  11.795   9.184  0.4411  0.7255 -0.2752
  806MOL0     H 8783   7.120  11.792   9.014 -3.1975 -0.7300  0.8441
  806MOL0     H 8784   7.376  11.759   9.061  0.4426 -0.1307  1.6116
  806MOL0     H 8785   7.319  11.592   9.106  0.8580  0.2596 -0.2186
  806MOL0     H 8786   7.307  11.729   8.846 -1.3510  2.5102  3.3306
  806MOL0     H 8787   7.227  11.571   8.879 -2.1426  2.0697  0.8504
  806MOL0     H 8788   7.458  11.481   8.937  1.5526 -0.6660 -1.5498
  806MOL0     H 8789   7.440  11.537   8.764 -0.8855 -2.0890  0.5687
  806MOL0     H 8790   6.554  11.532   8.730  1.8118  1.9872  1.2386
  806MOL0     H 8791   6.341  11.522   8.652  0.2976  0.9248 -0.5232
  806MOL0     H 8792   5.777  11.766   8.879  0.3856  1.7893 -1.7559
  806MOL0     H 8793   5.558  11.755   8.753 -0.1203  1.4241 -2.3974
  806MOL0     H 8794   3.956  10.780   9.271  1.1176  0.7905 -1.7524
  806MOL0     H 8795   3.751  10.839   9.426 -0.7646  1.5779 -0.5448
  806MOL0     H 8796   3.505  11.008   9.648  1.0709 -0.5175 -0.1647
  806MOL0     H 8797   3.288  11.088   9.731 -1.3512 -1.3297  1.4053
  806MOL0     H 8798   3.101  11.186   9.909 -0.3021  0.8052 -0.3423
  806MOL0     H 8799   3.131  11.264   9.746 -4.1209  5.2643 -0.9326
  806MOL0     H 8800   3.053  11.475   9.813 -0.7147  0.5277  0.9910
  806MOL0     H 8801   3.040  11.413   9.985  0.9904 -1.2784  0.0032
  806MOL0     H 8802   2.859  11.254   9.919 -1.7062 -0.5717 -2.5987
  806MOL0     H 8803   2.879  11.311   9.758  0.3140 -1.5677  0.6186
  806MOL0     H 8804   2.787  11.482   9.989  0.7208  0.9780  0.0600
  806MOL0     H 8805   2.796  11.544   9.831  1.4641 -1.0844 -0.4663
  806MOL0     H 8806   2.442  11.330   9.764 -0.6387  0.3424  1.5308
  806MOL0     H 8807   3.484  11.409   9.937  1.0744 -0.3268 -0.3317
  806MOL0     H 8808   3.791  11.366   9.936 -0.2257 -0.3109  0.5318
  806MOL0     H 8809   3.779  11.388   9.766  0.2655 -2.4602 -0.4417
  806MOL0     H 8810   3.679  11.486   9.867 -1.5199 -0.9441  2.5437
  807MOL0     O 8811   6.506  11.272   6.419 -0.3482  0.3573 -0.4043
  807MOL0     C 8812   6.462  11.157   6.405 -0.5046 -0.2993 -0.2800
  807MOL0     O 8813   6.531  11.059   6.349 -0.6573  0.1455  0.0521
  807MOL0     C 8814   6.655  11.082   6.295 -0.7082  0.0023  0.7783
  807MOL0     C 8815   6.687  11.023   6.168  0.6149 -0.3996 -0.5186
  807MOL0     C 8816   6.811  11.036   6.100  0.2416 -0.0399 -0.0150
  807MOL0     C 8817   6.907  11.118   6.156 -0.1403  0.0853 -0.1189
  807MOL0     O 8818   7.018  11.147   6.076 -0.2184 -0.3607 -0.4196
  807MOL0     C 8819   7.140  11.119   6.156 -0.3610  0.2391  0.4910
  807MOL0     C 8820   7.262  11.093   6.076 -0.4098 -0.2120  0.1290
  807MOL0     C 8821   7.253  10.961   6.012  0.4847 -0.9317  0.1771
  807MOL0     C 8822   7.389  10.936   5.935 -0.6807 -0.0116 -0.3038
  807MOL0     C 8823   7.388  10.987   5.789 -0.3368 -0.9228 -0.8886
  807MOL0     C 8824   7.502  10.927   5.701 -0.6081  0.2647 -0.5682
  807MOL0     C 8825   7.636  10.908   5.781  0.6066 -0.2179 -0.1496
  807MOL0     C 8826   7.741  10.836   5.691 -0.0642  0.5005  0.6435
  807MOL0     N 8827   7.801  10.918   5.586 -0.4536  0.5616  0.0201
  807MOL0     C 8828   7.901  11.012   5.599 -0.8725  0.0231 -0.0230
  807MOL0     C 8829   7.918  11.072   5.475  0.0062 -0.7932 -0.2225
  807MOL0     C 8830   8.013  11.184   5.432  0.7936  0.6216  0.3500
  807MOL0     C 8831   8.147  11.188   5.499 -0.2876 -0.0395  0.4158
  807MOL0     C 8832   8.232  11.295   5.426 -0.6793  0.5362  0.0760
  807MOL0     C 8833   8.370  11.320   5.502 -0.1309  0.2297  0.3132
  807MOL0     O 8834   8.471  11.396   5.424  0.2684  0.2648  0.0167
  807MOL0     C 8835   8.605  11.358   5.442  0.5033  0.3155  0.4882
  807MOL0     C 8836   8.684  11.399   5.338  0.3257 -0.3986 -1.6889
  807MOL0     C 8837   8.823  11.391   5.351  0.0973 -0.3854  0.1240
  807MOL0     C 8838   8.885  11.340   5.463 -0.0411 -0.5354  0.7823
  807MOL0     C 8839   9.033  11.341   5.465  0.4043  0.2312  0.5765
  807MOL0     O 8840   9.092  11.443   5.395 -0.2407 -0.3977  0.0432
  807MOL0     C 8841   9.229  11.428   5.377 -0.8157  0.0706  0.1429
  807MOL0     C 8842   9.321  11.477   5.472 -0.9558  0.2781  0.0083
  807MOL0     C 8843   9.462  11.466   5.440 -0.0951 -0.3112 -0.0196
  807MOL0     C 8844   9.506  11.401   5.318 -0.7416 -0.9040 -0.2548
  807MOL0     O 8845   9.643  11.397   5.296  0.1427 -0.2233  0.3242
  807MOL0     C 8846   9.715  11.460   5.191  0.6413 -0.4755  0.4083
  807MOL0     C 8847   9.867  11.431   5.191 -0.0933  0.9293  0.2577
  807MOL0     C 8848   9.945  11.502   5.300  0.1947 -0.3613 -0.0709
  807MOL0     C 8849  10.093  11.497   5.267 -0.3684 -0.0437 -0.0082
  807MOL0     C 8850  10.181  11.585   5.355  0.2881  0.0398  0.2766
  807MOL0     C 8851  10.142  11.731   5.359  0.0146 -0.5931  0.2959
  807MOL0     C 8852  10.173  11.783   5.214  0.0486 -0.0294  0.1350
  807MOL0     C 8853  10.153  11.932   5.200  0.2868 -0.5999 -0.2869
  807MOL0    Cl 8854  10.258  11.991   5.062  0.1291  0.0258 -0.3767
  807MOL0     C 8855   9.412  11.357   5.224  0.5213 -1.0856  1.0991
  807MOL0     C 8856   9.274  11.367   5.256  0.2235 -0.0991  0.0012
  807MOL0     O 8857   9.091  11.247   5.524 -0.1973 -0.2544 -0.1965
  807MOL0     C 8858   8.804  11.291   5.569 -0.2537 -0.5313  0.6922
  807MOL0     C 8859   8.666  11.300   5.558  0.2361 -0.8904  0.1296
  807MOL0     N 8860   7.820  11.018   5.400  1.1471 -0.1895  0.8719
  807MOL0     N 8861   7.757  10.923   5.460 -0.3331  0.6807 -0.0550
  807MOL0     C 8862   6.882  11.177   6.280 -0.2751 -0.3096  0.0378
  807MOL0     C 8863   6.761  11.162   6.347 -0.2118  0.7322 -0.3796
  807MOL0     C 8864   6.322  11.120   6.454  0.4628  0.4084 -0.4221
  807MOL0     C 8865   6.282  10.987   6.459 -0.1998  0.9007 -0.5062
  807MOL0     C 8866   6.158  10.948   6.496  0.2295 -0.1083  0.2186
  807MOL0     C 8867   6.061  11.044   6.535  0.4139 -0.1850  0.3773
  807MOL0     O 8868   5.934  11.017   6.589  0.0839  0.2408  0.0527
  807MOL0     C 8869   5.927  10.888   6.636  0.4643 -0.4337 -0.3633
  807MOL0     C 8870   5.831  10.886   6.749  0.0511 -0.0145  0.2548
  807MOL0     C 8871   5.677  10.895   6.726 -0.3197  0.1052  0.4489
  807MOL0     C 8872   5.598  10.901   6.844 -0.8500 -0.1037  0.2300
  807MOL0     C 8873   5.454  10.921   6.835 -0.6429  0.1104 -0.1043
  807MOL0     C 8874   5.342  10.935   6.807  0.0815  0.2586  0.4370
  807MOL0     C 8875   6.092  11.182   6.518 -0.3671 -0.3428 -0.1290
  807MOL0     C 8876   6.218  11.220   6.479 -0.1582  0.0195 -0.5682
  807MOL0     C 8877   6.233  11.366   6.447  0.4218 -0.1539 -0.6285
  807MOL0     H 8878   6.610  10.949   6.146 -1.3245  0.8118  1.6424
  807MOL0     H 8879   6.827  10.994   6.002 -1.5981  2.0254 -1.3115
  807MOL0     H 8880   7.163  11.213   6.208 -0.3246  1.2300 -1.2402
  807MOL0     H 8881   7.122  11.043   6.232  1.6054  1.3036  2.1122
  807MOL0     H 8882   7.345  11.094   6.147 -0.9174  2.4731  0.8192
  807MOL0     H 8883   7.281  11.171   6.001  0.5469  0.8489  1.4253
  807MOL0     H 8884   7.168  10.937   5.947 -0.4670 -1.4125  1.5614
  807MOL0     H 8885   7.244  10.891   6.096 -0.3761 -0.4457  0.5083
  807MOL0     H 8886   7.473  10.985   5.984 -0.5604  1.3446 -1.7614
  807MOL0     H 8887   7.398  10.827   5.942  0.3424 -0.0267 -1.4805
  807MOL0     H 8888   7.289  10.956   5.754 -2.0390  0.4264  2.2741
  807MOL0     H 8889   7.398  11.096   5.801 -0.6743 -0.4770 -3.8400
  807MOL0     H 8890   7.481  10.827   5.662  1.1921  0.4633 -2.1737
  807MOL0     H 8891   7.508  11.003   5.623 -0.2612  1.6831  0.7796
  807MOL0     H 8892   7.621  10.838   5.863 -1.5922 -0.7257 -0.8964
  807MOL0     H 8893   7.680  11.000   5.820  1.5262 -0.6607 -0.1265
  807MOL0     H 8894   7.823  10.794   5.750  0.2491 -1.3903 -1.0313
  807MOL0     H 8895   7.696  10.756   5.631 -0.2012  1.5256 -0.6666
  807MOL0     H 8896   7.943  11.045   5.693 -1.7039 -1.9284  1.0919
  807MOL0     H 8897   8.025  11.180   5.323 -0.7602  0.9434  0.1413
  807MOL0     H 8898   7.970  11.281   5.455 -0.6724  0.1001 -0.0681
  807MOL0     H 8899   8.133  11.210   5.605  1.0210 -1.0183  0.8137
  807MOL0     H 8900   8.204  11.097   5.479 -2.5354 -1.1815 -1.3766
  807MOL0     H 8901   8.175  11.388   5.414 -3.0211 -0.3170  3.3076
  807MOL0     H 8902   8.250  11.257   5.325  0.4279  1.3441 -0.0536
  807MOL0     H 8903   8.416  11.221   5.508  2.3043  1.3303  0.8124
  807MOL0     H 8904   8.360  11.365   5.602 -1.6287  2.6763 -0.8442
  807MOL0     H 8905   8.635  11.442   5.252  1.2105  0.8018 -1.6161
  807MOL0     H 8906   8.890  11.431   5.275  0.8243  0.5969  1.2435
  807MOL0     H 8907   9.280  11.514   5.566  1.7831  2.1279  0.6083
  807MOL0     H 8908   9.543  11.501   5.503 -0.7088  0.7675  0.1989
  807MOL0     H 8909   9.679  11.432   5.092  2.6682  0.4829 -0.6652
  807MOL0     H 8910   9.704  11.568   5.204 -0.5823 -0.5678  0.2568
  807MOL0     H 8911   9.882  11.323   5.198 -3.5714 -0.1485 -3.9765
  807MOL0     H 8912   9.896  11.470   5.093  3.6728 -2.0863 -0.0575
  807MOL0     H 8913   9.908  11.605   5.298  1.2343  0.0153 -1.2582
  807MOL0     H 8914   9.926  11.457   5.398 -1.5089 -0.8130 -0.5717
  807MOL0     H 8915  10.121  11.515   5.163 -0.1015 -0.3581  0.0079
  807MOL0     H 8916  10.131  11.395   5.270 -0.8842 -0.3168 -1.6386
  807MOL0     H 8917  10.285  11.581   5.322 -0.4030 -1.9011 -1.9057
  807MOL0     H 8918  10.164  11.545   5.455 -1.4338 -0.1856 -0.0609
  807MOL0     H 8919  10.036  11.749   5.380 -0.0936 -0.3587 -0.4263
  807MOL0     H 8920  10.198  11.784   5.436 -0.6273  0.1886  0.2463
  807MOL0     H 8921  10.106  11.735   5.142  0.5974  0.7827 -0.9471
  807MOL0     H 8922  10.270  11.752   5.174 -0.0910  1.5378 -1.5935
  807MOL0     H 8923  10.047  11.950   5.180  0.3808 -0.7532 -0.9385
  807MOL0     H 8924  10.199  11.989   5.281  0.8323 -1.3164 -0.0773
  807MOL0     H 8925   9.434  11.322   5.124  0.7768  0.6343  0.5151
  807MOL0     H 8926   9.203  11.313   5.193  0.7263  0.0311 -0.6904
  807MOL0     H 8927   8.850  11.244   5.655  3.7517 -2.5320 -2.1609
  807MOL0     H 8928   8.612  11.283   5.651  0.7645 -0.8655  0.4492
  807MOL0     H 8929   6.963  11.241   6.314  0.2183 -0.1589 -1.3325
  807MOL0     H 8930   6.747  11.212   6.443  2.8440  2.6812 -0.8145
  807MOL0     H 8931   6.358  10.917   6.426  1.6679  2.6109 -0.0222
  807MOL0     H 8932   6.145  10.841   6.499  1.1311 -0.2162  0.6839
  807MOL0     H 8933   6.020  10.848   6.678 -0.2595 -1.4535  0.3063
  807MOL0     H 8934   5.902  10.824   6.550 -0.2897  1.6490 -1.7719
  807MOL0     H 8935   5.868  10.960   6.820  0.4431  0.5090 -0.4745
  807MOL0     H 8936   5.840  10.793   6.806 -0.0967 -0.9413 -1.1714
  807MOL0     H 8937   5.640  10.817   6.659 -0.1328  0.4987 -0.1284
  807MOL0     H 8938   5.653  10.989   6.674 -0.0079  0.2125  0.5003
  807MOL0     H 8939   5.624  10.808   6.895 -0.1456 -1.1051 -1.8384
  807MOL0     H 8940   5.628  10.992   6.897  0.1418 -0.2651 -0.0385
  807MOL0     H 8941   5.254  10.947   6.747  1.1486  4.8592 -0.5549
  807MOL0     H 8942   6.020  11.254   6.554 -1.0429 -1.1057  0.0689
  807MOL0     H 8943   6.298  11.410   6.523  0.0631  3.9319 -2.4138
  807MOL0     H 8944   6.287  11.383   6.353  0.9030 -2.9403 -0.9331
  807MOL0     H 8945   6.132  11.408   6.453  0.5128  0.2228 -1.5268
  808MOL0     O 8946   4.617   1.315   6.378  0.1423 -0.5571 -0.4246
  808MOL0     C 8947   4.545   1.242   6.452  0.5220 -0.8342 -0.4254
  808MOL0     O 8948   4.588   1.157   6.546  0.0115 -0.2952  0.5475
  808MOL0     C 8949   4.723   1.128   6.535  1.0216 -0.9241 -1.0357
  808MOL0     C 8950   4.774   1.026   6.460 -0.8180 -0.7091  0.8624
  808MOL0     C 8951   4.905   0.995   6.455  0.5594  0.7813  0.0013
  808MOL0     C 8952   4.992   1.064   6.530 -0.6481  0.7215 -0.1623
  808MOL0     O 8953   5.125   1.032   6.532 -0.1097 -0.1561 -0.0094
  808MOL0     C 8954   5.194   1.065   6.647  0.5803 -0.0136 -0.6038
  808MOL0     C 8955   5.333   0.993   6.653 -0.3253  0.7334  0.1148
  808MOL0     C 8956   5.430   1.062   6.561  0.4149 -0.2238 -0.1589
  808MOL0     C 8957   5.569   1.000   6.563  0.1097 -0.8717 -0.0175
  808MOL0     C 8958   5.672   1.098   6.490 -0.3426 -0.4077  0.7533
  808MOL0     C 8959   5.813   1.033   6.489 -0.7320 -0.3592  0.3920
  808MOL0     C 8960   5.904   1.131   6.411 -0.5459 -0.0026 -0.0697
  808MOL0     C 8961   5.923   1.274   6.473  0.0694 -0.9037 -0.9960
  808MOL0     N 8962   5.998   1.268   6.599  0.2945  0.3782  0.3093
  808MOL0     C 8963   6.136   1.295   6.612 -0.4282  0.7855 -0.1455
  808MOL0     C 8964   6.159   1.275   6.746 -0.6801 -0.1576  0.4427
  808MOL0     C 8965   6.288   1.302   6.805 -0.4453  0.3265 -0.5310
  808MOL0     C 8966   6.366   1.183   6.854 -0.6069  0.0771 -0.3273
  808MOL0     C 8967   6.405   1.091   6.743  0.1099  0.4281  0.3724
  808MOL0     C 8968   6.524   1.003   6.790 -0.6879  0.5809 -0.2112
  808MOL0     O 8969   6.588   0.955   6.670 -0.0067 -0.4992  0.3076
  808MOL0     C 8970   6.718   0.913   6.678  0.1191  0.0254 -0.3624
  808MOL0     C 8971   6.780   0.888   6.558 -1.2021  0.5215  0.4208
  808MOL0     C 8972   6.917   0.855   6.543  0.1496 -0.0865 -0.2972
  808MOL0     C 8973   6.986   0.827   6.656  0.8213 -0.2267 -0.2036
  808MOL0     C 8974   7.120   0.771   6.643 -0.5007  0.0320  0.4624
  808MOL0     O 8975   7.170   0.751   6.522 -0.3790  0.4928 -0.4345
  808MOL0     C 8976   7.302   0.712   6.504  0.7410 -0.1867  0.5794
  808MOL0     C 8977   7.323   0.593   6.450 -0.3396  0.5165 -0.2886
  808MOL0     C 8978   7.450   0.557   6.409 -0.5061  0.0808 -0.9926
  808MOL0     C 8979   7.558   0.640   6.442 -0.1521 -0.5589  0.0306
  808MOL0     O 8980   7.681   0.590   6.407  0.0257  0.3767  0.2312
  808MOL0     C 8981   7.781   0.689   6.380  0.5774  0.0334 -0.4449
  808MOL0     C 8982   7.901   0.622   6.322 -0.9393 -0.0299  0.2503
  808MOL0     C 8983   7.983   0.552   6.432 -0.1061  0.2412 -0.0300
  808MOL0     C 8984   8.120   0.512   6.376 -0.2271 -0.4396  0.2000
  808MOL0     C 8985   8.200   0.421   6.474 -0.3406 -0.0728  0.9148
  808MOL0     C 8986   8.336   0.383   6.410 -0.1847  0.4485 -0.0100
  808MOL0     C 8987   8.433   0.325   6.508  0.2217  0.5880 -0.7408
  808MOL0     C 8988   8.587   0.337   6.471  0.4685 -0.3278  0.0898
  808MOL0    Cl 8989   8.614   0.320   6.289 -0.4519 -0.4313 -0.5368
  808MOL0     C 8990   7.535   0.766   6.501  0.0135  1.1414  0.6290
  808MOL0     C 8991   7.408   0.805   6.528  0.2491 -0.6062  0.1841
  808MOL0     O 8992   7.183   0.749   6.746  0.1865 -0.3051 -0.5427
  808MOL0     C 8993   6.930   0.838   6.779  0.2064 -0.5603 -0.4421
  808MOL0     C 8994   6.792   0.882   6.788 -0.2663 -0.1590  0.3702
  808MOL0     N 8995   6.039   1.238   6.809  0.5965 -0.3663 -0.9431
  808MOL0     N 8996   5.935   1.235   6.723 -0.8835  0.1296  0.1366
  808MOL0     C 8997   4.943   1.171   6.606  0.0831 -0.5691 -0.7203
  808MOL0     C 8998   4.807   1.200   6.619  0.2620 -0.4355 -0.3404
  808MOL0     C 8999   4.409   1.256   6.419  0.5503 -0.4179  0.3237
  808MOL0     C 9000   4.336   1.374   6.453  0.1408  0.7853 -0.7636
  808MOL0     C 9001   4.201   1.372   6.453  0.1494  0.4128 -0.7996
  808MOL0     C 9002   4.126   1.257   6.419  0.1851 -0.6130  0.3471
  808MOL0     O 9003   3.991   1.260   6.443  0.5074 -0.4003  0.2338
  808MOL0     C 9004   3.908   1.149   6.435 -0.0833  0.6162 -0.3866
  808MOL0     C 9005   3.797   1.161   6.535 -0.2174  0.2706 -0.5139
  808MOL0     C 9006   3.717   1.022   6.546 -0.4686 -0.3116 -0.7669
  808MOL0     C 9007   3.584   1.029   6.624 -0.0753 -0.4497 -0.0974
  808MOL0     C 9008   3.606   1.079   6.760  0.1557 -0.5447 -0.7543
  808MOL0     C 9009   3.621   1.119   6.874 -0.2310  0.3971 -0.3660
  808MOL0     C 9010   4.196   1.144   6.391  0.3032  0.7598  0.4754
  808MOL0     C 9011   4.334   1.140   6.381  0.4979 -0.4781  0.1193
  808MOL0     C 9012   4.399   1.009   6.338 -0.1035 -0.2263  0.2366
  808MOL0     H 9013   4.717   0.960   6.396 -1.0184 -0.8057  1.1405
  808MOL0     H 9014   4.942   0.914   6.393 -1.3165  0.2474 -0.4945
  808MOL0     H 9015   5.220   1.170   6.663  1.2555 -0.1763 -0.5942
  808MOL0     H 9016   5.135   1.035   6.734 -0.9906 -0.0107 -1.6371
  808MOL0     H 9017   5.313   0.893   6.613  0.5952  2.2102 -4.7758
  808MOL0     H 9018   5.382   0.991   6.751  0.8205  0.8917 -0.4342
  808MOL0     H 9019   5.427   1.169   6.581  0.0853 -0.1294 -0.6637
  808MOL0     H 9020   5.391   1.048   6.459  1.4874 -0.9500 -0.4891
  808MOL0     H 9021   5.596   0.985   6.668  1.8752  1.8273  0.0267
  808MOL0     H 9022   5.560   0.896   6.531 -2.9693 -1.6473  2.7968
  808MOL0     H 9023   5.647   1.120   6.386  1.2509 -2.1697 -0.0638
  808MOL0     H 9024   5.666   1.189   6.551  2.5316  0.4720 -0.1278
  808MOL0     H 9025   5.859   1.019   6.587  1.7963  2.5252 -0.2282
  808MOL0     H 9026   5.819   0.937   6.436 -0.7109 -1.1014  1.6794
  808MOL0     H 9027   5.875   1.126   6.306  0.3201 -1.1448 -0.2671
  808MOL0     H 9028   6.006   1.094   6.412  0.2188  1.9865  0.1294
  808MOL0     H 9029   5.963   1.345   6.400 -0.2306 -0.0065 -0.3080
  808MOL0     H 9030   5.823   1.317   6.486  0.3415 -0.5139 -0.1521
  808MOL0     H 9031   6.205   1.334   6.537  1.1492  3.7837  2.6070
  808MOL0     H 9032   6.342   1.356   6.727  0.0396 -0.1637 -0.5352
  808MOL0     H 9033   6.271   1.367   6.891  0.1424 -1.6788  1.1707
  808MOL0     H 9034   6.453   1.227   6.903 -0.9155  0.2895  0.0345
  808MOL0     H 9035   6.313   1.126   6.932  1.3360  0.8586  1.6631
  808MOL0     H 9036   6.437   1.146   6.655 -0.7772 -0.9389 -0.8633
  808MOL0     H 9037   6.314   1.031   6.728  0.7895 -0.6372  0.3628
  808MOL0     H 9038   6.492   0.918   6.851 -0.9946  0.1086 -1.0025
  808MOL0     H 9039   6.591   1.060   6.854  2.1982 -2.8426  0.1398
  808MOL0     H 9040   6.727   0.896   6.464  1.0267 -0.7841 -1.0660
  808MOL0     H 9041   6.962   0.843   6.444  0.6097  0.3004 -0.1371
  808MOL0     H 9042   7.244   0.521   6.435 -0.6080  0.9545 -1.0376
  808MOL0     H 9043   7.455   0.457   6.367  0.7700 -1.0425  1.6214
  808MOL0     H 9044   7.729   0.751   6.306  0.4396  1.8113  1.0497
  808MOL0     H 9045   7.805   0.764   6.457 -2.5184 -1.1359  1.8932
  808MOL0     H 9046   7.869   0.555   6.241  3.6175 -0.8413 -1.1808
  808MOL0     H 9047   7.961   0.699   6.274  1.2642 -0.9812  1.3594
  808MOL0     H 9048   7.999   0.620   6.516  2.6835 -2.1413  1.5298
  808MOL0     H 9049   7.923   0.473   6.478 -1.8816  2.1418  1.0798
  808MOL0     H 9050   8.179   0.599   6.345  0.6955 -1.3809 -0.7407
  808MOL0     H 9051   8.096   0.473   6.277 -1.2084 -1.0985  0.6769
  808MOL0     H 9052   8.140   0.333   6.497  1.8499 -1.8465  0.1945
  808MOL0     H 9053   8.216   0.476   6.568 -2.4176 -0.1167  1.3404
  808MOL0     H 9054   8.319   0.304   6.337 -0.5984  0.6822 -0.1740
  808MOL0     H 9055   8.380   0.474   6.367 -3.3912  3.3875  2.3308
  808MOL0     H 9056   8.408   0.219   6.515 -0.4278  0.6872 -1.4425
  808MOL0     H 9057   8.409   0.368   6.606 -0.3777  0.8272 -0.9846
  808MOL0     H 9058   8.626   0.435   6.501 -3.2120  1.9217 -1.6857
  808MOL0     H 9059   8.637   0.253   6.518  0.2338 -1.1721 -1.1107
  808MOL0     H 9060   7.598   0.847   6.535  1.0503 -0.2808  2.2353
  808MOL0     H 9061   7.388   0.907   6.560 -0.3941 -0.1533 -1.5435
  808MOL0     H 9062   6.990   0.819   6.867  1.4410  1.4749 -0.7804
  808MOL0     H 9063   6.748   0.882   6.887 -3.2528 -3.5769 -0.7367
  808MOL0     H 9064   5.001   1.220   6.683 -2.1937 -0.1703  0.8436
  808MOL0     H 9065   4.772   1.278   6.685 -1.2961 -0.0315 -1.5805
  808MOL0     H 9066   4.391   1.464   6.481  1.3371 -1.0027  3.4185
  808MOL0     H 9067   4.152   1.465   6.481  0.9771  1.2749 -2.0944
  808MOL0     H 9068   3.953   1.050   6.445 -0.9041  0.2741 -0.0890
  808MOL0     H 9069   3.866   1.153   6.334 -0.9819 -0.3358 -0.0654
  808MOL0     H 9070   3.728   1.241   6.506 -2.2152 -1.3825 -0.6416
  808MOL0     H 9071   3.831   1.185   6.636 -0.7710 -0.3114 -0.1742
  808MOL0     H 9072   3.773   0.945   6.599 -2.9704 -0.3923  1.9984
  808MOL0     H 9073   3.689   0.982   6.447 -1.5910  1.3377 -1.1644
  808MOL0     H 9074   3.528   1.109   6.574  1.1340  1.0297  0.8101
  808MOL0     H 9075   3.532   0.933   6.618 -2.3253  0.7750 -1.9008
  808MOL0     H 9076   3.640   1.142   6.977 -0.9061 -0.0362 -0.1391
  808MOL0     H 9077   4.137   1.054   6.376 -0.9541  1.6513 -0.0855
  808MOL0     H 9078   4.464   1.026   6.251  1.8190  0.1726  1.6709
  808MOL0     H 9079   4.457   0.971   6.423 -0.8759 -1.9214  0.0468
  808MOL0     H 9080   4.323   0.933   6.321 -0.7835  0.7365 -1.1878
  809MOL0     O 9081   7.576   1.461   6.118 -0.0028  0.7840 -0.5454
  809MOL0     C 9082   7.513   1.488   6.218 -0.1597 -0.2628 -0.3669
  809MOL0     O 9083   7.564   1.518   6.339 -0.1067 -0.0402  0.5060
  809MOL0     C 9084   7.697   1.528   6.356 -0.2993 -0.4027  0.0226
  809MOL0     C 9085   7.745   1.480   6.480  0.3541 -0.5318  0.1641
  809MOL0     C 9086   7.880   1.476   6.509 -0.4235 -0.2446 -0.2981
  809MOL0     C 9087   7.971   1.526   6.419 -0.3657  0.1310 -0.1565
  809MOL0     O 9088   8.100   1.502   6.446 -0.4846  0.0496  0.4297
  809MOL0     C 9089   8.195   1.503   6.344  0.3968 -0.7073 -0.2407
  809MOL0     C 9090   8.250   1.644   6.337  0.2945 -0.3742  0.2110
  809MOL0     C 9091   8.372   1.651   6.245 -0.1220  0.3479 -0.7744
  809MOL0     C 9092   8.343   1.667   6.098  0.2306 -0.4257  0.3002
  809MOL0     C 9093   8.466   1.692   6.008 -0.3528 -0.2718 -0.1073
  809MOL0     C 9094   8.524   1.825   6.026 -0.6321 -0.3931  0.2833
  809MOL0     C 9095   8.666   1.839   5.962 -0.3844 -0.4127 -0.5686
  809MOL0     C 9096   8.668   1.813   5.816 -0.3913 -0.1147  0.7268
  809MOL0     N 9097   8.805   1.817   5.753  0.0564  0.2763 -0.3212
  809MOL0     C 9098   8.889   1.712   5.770 -0.3690 -0.5322  0.3282
  809MOL0     C 9099   8.994   1.748   5.691 -0.4754 -0.2453  0.3717
  809MOL0     C 9100   9.107   1.655   5.651  0.4023  0.1743 -0.4770
  809MOL0     C 9101   9.143   1.658   5.501  0.1103  0.8720 -0.4619
  809MOL0     C 9102   9.243   1.549   5.467  0.2453 -0.0559 -0.0353
  809MOL0     C 9103   9.314   1.588   5.334 -0.1804 -0.3644  0.2161
  809MOL0     O 9104   9.399   1.473   5.302 -0.1742  0.1367 -0.1620
  809MOL0     C 9105   9.535   1.490   5.301 -0.2193  0.6590  0.6081
  809MOL0     C 9106   9.604   1.546   5.403 -0.4085  0.0684 -0.0761
  809MOL0     C 9107   9.739   1.568   5.396  0.1658  0.1948 -0.5173
  809MOL0     C 9108   9.813   1.524   5.284 -0.0275  1.1342  0.0805
  809MOL0     C 9109   9.952   1.574   5.258 -0.3973 -0.3770 -0.2088
  809MOL0     O 9110  10.011   1.538   5.137  0.3695  0.0052 -0.2357
  809MOL0     C 9111  10.148   1.541   5.110  0.0564  0.4010  0.2734
  809MOL0     C 9112  10.254   1.566   5.199 -0.7535  0.0126  0.6945
  809MOL0     C 9113  10.389   1.558   5.153 -0.6439 -1.1009 -0.0654
  809MOL0     C 9114  10.421   1.524   5.021  0.6442  0.5309  0.8014
  809MOL0     O 9115  10.544   1.509   4.971  0.1415 -0.8627  0.3914
  809MOL0     C 9116  10.651   1.572   5.043  0.7071 -0.6191 -1.1286
  809MOL0     C 9117  10.780   1.576   4.971 -0.7032  0.8050  0.2720
  809MOL0     C 9118  10.892   1.634   5.061  0.0899  0.3431  0.2869
  809MOL0     C 9119  11.037   1.591   5.017  0.1254  0.0205  0.6505
  809MOL0     C 9120  11.143   1.662   5.092 -0.4434  0.1045  0.4892
  809MOL0     C 9121  11.273   1.589   5.095 -0.1399  0.7306  0.0192
  809MOL0     C 9122  11.351   1.586   4.965 -0.2044 -0.4112  0.7627
  809MOL0     C 9123  11.367   1.719   4.891 -0.3742  0.1592  0.3402
  809MOL0    Cl 9124  11.475   1.829   4.978 -0.1406 -0.0900 -0.2368
  809MOL0     C 9125  10.311   1.498   4.935  0.7578  0.1875 -0.0099
  809MOL0     C 9126  10.175   1.507   4.977 -0.7437  0.1050 -0.2026
  809MOL0     O 9127  10.013   1.634   5.349 -0.1215 -0.5147  1.1983
  809MOL0     C 9128   9.748   1.442   5.190  0.0512 -0.3100 -0.4649
  809MOL0     C 9129   9.611   1.435   5.199 -0.2861 -0.2709  0.8943
  809MOL0     N 9130   8.976   1.874   5.646  0.4720  0.3770 -0.2372
  809MOL0     N 9131   8.858   1.920   5.689 -0.3776 -0.2160  0.0408
  809MOL0     C 9132   7.924   1.581   6.295 -0.2308  0.8941 -1.1853
  809MOL0     C 9133   7.784   1.584   6.266 -0.7584  0.5692  0.0976
  809MOL0     C 9134   7.364   1.483   6.216 -0.0772  0.7397  0.4677
  809MOL0     C 9135   7.291   1.467   6.335  0.0468  0.2574  0.4402
  809MOL0     C 9136   7.151   1.450   6.339  0.6365  0.6390  0.2368
  809MOL0     C 9137   7.066   1.458   6.222  0.3257  0.2837 -0.1402
  809MOL0     O 9138   6.931   1.441   6.218  0.9465  0.1758 -0.2977
  809MOL0     C 9139   6.869   1.404   6.096  0.4808 -0.4341  0.3301
  809MOL0     C 9140   6.906   1.262   6.048 -0.3287  0.2113 -0.6482
  809MOL0     C 9141   6.800   1.200   5.949 -0.3176  0.9908  0.2132
  809MOL0     C 9142   6.753   1.293   5.831 -0.0111 -0.0902  0.5204
  809MOL0     C 9143   6.860   1.354   5.756 -0.1952 -0.2143 -0.1387
  809MOL0     C 9144   6.949   1.429   5.721  0.1191 -0.3079 -0.2349
  809MOL0     C 9145   7.140   1.473   6.105  0.3046 -0.3944  0.6718
  809MOL0     C 9146   7.282   1.491   6.100  0.6834 -0.8065  1.0664
  809MOL0     C 9147   7.335   1.500   5.957 -0.6688  0.1450 -1.3613
  809MOL0     H 9148   7.668   1.455   6.552  2.1844  2.7056  3.6002
  809MOL0     H 9149   7.904   1.435   6.606  1.2605  0.6075 -0.3028
  809MOL0     H 9150   8.276   1.432   6.363  1.3211  0.2291 -0.5649
  809MOL0     H 9151   8.156   1.467   6.249  2.1349  0.2063 -1.3480
  809MOL0     H 9152   8.265   1.679   6.439  1.2653  1.5307 -0.5344
  809MOL0     H 9153   8.178   1.710   6.288  1.0056  1.1494  1.1460
  809MOL0     H 9154   8.433   1.562   6.260 -0.6334 -0.1662 -1.7035
  809MOL0     H 9155   8.432   1.740   6.270  1.9330 -0.6256 -2.0118
  809MOL0     H 9156   8.299   1.571   6.068  1.2757 -0.7360 -0.2847
  809MOL0     H 9157   8.269   1.747   6.087 -0.3414 -0.8052  1.2251
  809MOL0     H 9158   8.549   1.624   6.028 -0.8111 -0.7854  0.0718
  809MOL0     H 9159   8.429   1.685   5.905  0.1528  0.0370 -0.3119
  809MOL0     H 9160   8.452   1.898   5.989  1.5317  1.7054 -0.0515
  809MOL0     H 9161   8.533   1.843   6.134 -1.1815 -0.3542  0.3246
  809MOL0     H 9162   8.737   1.773   6.013  1.0004  0.3040 -1.4910
  809MOL0     H 9163   8.702   1.941   5.974  0.8983 -0.7292 -1.4607
  809MOL0     H 9164   8.615   1.720   5.796 -1.5017  0.7640 -0.6503
  809MOL0     H 9165   8.596   1.887   5.778 -0.6700 -0.3956  0.7022
  809MOL0     H 9166   8.870   1.618   5.821 -0.0092 -1.7171 -1.6178
  809MOL0     H 9167   9.193   1.666   5.717 -1.9407  3.1976  2.3926
  809MOL0     H 9168   9.074   1.554   5.676 -0.3715  0.5293 -0.0113
  809MOL0     H 9169   9.055   1.634   5.440 -0.0237 -2.6259  0.8780
  809MOL0     H 9170   9.174   1.759   5.475  1.4025  0.1760 -1.7627
  809MOL0     H 9171   9.186   1.457   5.454 -0.5101  0.1870  1.3456
  809MOL0     H 9172   9.316   1.543   5.549  1.5566 -0.1112 -1.1641
  809MOL0     H 9173   9.352   1.690   5.335 -1.0984  0.0307 -1.2985
  809MOL0     H 9174   9.234   1.594   5.259 -1.6839  0.2564  1.8114
  809MOL0     H 9175   9.564   1.575   5.500  1.5604 -0.7657  1.0500
  809MOL0     H 9176   9.771   1.627   5.481  0.3416 -1.9409  0.9927
  809MOL0     H 9177  10.234   1.570   5.305  0.9271 -0.2161  1.0435
  809MOL0     H 9178  10.478   1.572   5.214 -1.0527  0.8901  0.1199
  809MOL0     H 9179  10.616   1.673   5.066 -0.0809 -0.9748 -0.6986
  809MOL0     H 9180  10.676   1.528   5.140 -0.6456 -0.5706 -0.7412
  809MOL0     H 9181  10.797   1.470   4.946 -1.1832  0.1561  2.5006
  809MOL0     H 9182  10.767   1.627   4.876 -0.8479 -0.1569 -0.2418
  809MOL0     H 9183  10.889   1.743   5.060 -1.5768  0.3567  1.9115
  809MOL0     H 9184  10.888   1.603   5.166 -1.0872  0.7084  0.3691
  809MOL0     H 9185  11.063   1.616   4.914  2.4588  1.5600  1.5230
  809MOL0     H 9186  11.039   1.482   5.027  0.4730 -0.5085 -3.3814
  809MOL0     H 9187  11.102   1.671   5.193 -0.5128  0.7993  0.4047
  809MOL0     H 9188  11.164   1.764   5.059  0.9517 -0.0208  0.8972
  809MOL0     H 9189  11.321   1.652   5.171 -0.7826  0.8064  0.3690
  809MOL0     H 9190  11.264   1.487   5.132  1.0501  0.6150  0.0130
  809MOL0     H 9191  11.298   1.523   4.894  1.1715  1.6215 -2.2735
  809MOL0     H 9192  11.450   1.541   4.980 -1.2789 -2.6785  1.4548
  809MOL0     H 9193  11.403   1.696   4.791 -1.9812 -0.9081 -0.0334
  809MOL0     H 9194  11.269   1.764   4.873 -1.4484 -2.2706 -0.3693
  809MOL0     H 9195  10.329   1.486   4.828 -1.2550  1.5149 -0.5506
  809MOL0     H 9196  10.103   1.497   4.896 -0.4135  2.4895 -0.8632
  809MOL0     H 9197   9.813   1.385   5.124 -1.2713  0.0195 -2.1181
  809MOL0     H 9198   9.553   1.385   5.123 -0.0449 -0.2980  0.7242
  809MOL0     H 9199   7.994   1.596   6.213  0.9016  0.7242 -0.2829
  809MOL0     H 9200   7.745   1.623   6.172 -2.6459 -0.1899  0.5153
  809MOL0     H 9201   7.334   1.455   6.434 -2.2403  1.3861  1.6622
  809MOL0     H 9202   7.098   1.428   6.430  2.9599 -1.8735  1.0994
  809MOL0     H 9203   6.891   1.472   6.014 -0.2983 -0.2730  0.2423
  809MOL0     H 9204   6.761   1.402   6.114  0.3369  0.9594 -0.2572
  809MOL0     H 9205   6.923   1.194   6.132 -1.0486 -1.6864 -1.9567
  809MOL0     H 9206   7.006   1.270   6.005  0.3787 -2.3092  0.3212
  809MOL0     H 9207   6.719   1.167   6.015  1.2732  2.3819  3.0614
  809MOL0     H 9208   6.853   1.114   5.906  0.4116  1.4331  0.2130
  809MOL0     H 9209   6.685   1.248   5.759 -0.8237 -0.6454  1.5956
  809MOL0     H 9210   6.688   1.367   5.880 -2.7766 -3.2713  2.1288
  809MOL0     H 9211   7.019   1.509   5.707  0.2616 -0.2893  0.5161
  809MOL0     H 9212   7.096   1.472   6.006  1.0243 -0.5271  0.3455
  809MOL0     H 9213   7.385   1.594   5.934  1.5237  0.1801  2.7047
  809MOL0     H 9214   7.409   1.421   5.943 -1.1416 -0.5163 -0.2377
  809MOL0     H 9215   7.258   1.500   5.879 -1.4340  0.1778 -0.6189
  810MOL0     O 9216   1.246   9.689   8.295  0.1732  0.0606 -0.2474
  810MOL0     C 9217   1.220   9.776   8.222  0.5653  0.7325  0.0965
  810MOL0     O 9218   1.281   9.901   8.214  0.0175  0.2350 -0.0854
  810MOL0     C 9219   1.412   9.910   8.251  0.1533 -0.5166 -0.5441
  810MOL0     C 9220   1.449   9.915   8.384  0.7530 -0.7159  0.7101
  810MOL0     C 9221   1.583   9.905   8.417  0.8531 -0.0266  0.5839
  810MOL0     C 9222   1.683   9.893   8.317 -0.3644  0.4389 -0.4041
  810MOL0     O 9223   1.815   9.881   8.333 -0.5936 -0.3280 -0.2703
  810MOL0     C 9224   1.868   9.912   8.458 -0.2155 -0.6393 -0.6929
  810MOL0     C 9225   2.015   9.870   8.458 -0.6426 -0.0185  0.0253
  810MOL0     C 9226   2.103   9.985   8.403  0.4349 -0.9090 -0.8850
  810MOL0     C 9227   2.250   9.937   8.400  0.0870 -0.3954 -0.0237
  810MOL0     C 9228   2.354  10.041   8.337  0.1580  0.4533 -0.2335
  810MOL0     C 9229   2.393   9.979   8.203 -0.8429 -0.6523 -0.0277
  810MOL0     C 9230   2.438  10.084   8.105  0.0643  0.0328  0.0148
  810MOL0     C 9231   2.555  10.169   8.137  0.0613 -0.0475 -0.5340
  810MOL0     N 9232   2.675  10.094   8.185 -0.4928  0.0397  0.1657
  810MOL0     C 9233   2.739  10.116   8.299  0.5346 -0.7195 -0.9609
  810MOL0     C 9234   2.822  10.018   8.314 -0.3753 -0.1259 -0.6914
  810MOL0     C 9235   2.897  10.009   8.449  0.2321 -0.8218  0.4386
  810MOL0     C 9236   3.045  10.027   8.435 -0.5812 -0.0726  0.1288
  810MOL0     C 9237   3.123  10.011   8.568  0.5774 -0.0664  0.6872
  810MOL0     C 9238   3.279  10.026   8.554 -0.6719 -0.1281  0.1398
  810MOL0     O 9239   3.326  10.139   8.489  0.2113  0.0448  0.0817
  810MOL0     C 9240   3.461  10.163   8.456  0.1458 -0.1879 -0.4990
  810MOL0     C 9241   3.492  10.267   8.368  0.2540 -0.4237  0.4280
  810MOL0     C 9242   3.629  10.291   8.324  0.3723 -0.5482 -0.6131
  810MOL0     C 9243   3.724  10.193   8.366  1.1425  1.1258 -0.3101
  810MOL0     C 9244   3.864  10.206   8.337  0.0591 -0.4931  0.3329
  810MOL0     O 9245   3.942  10.111   8.373 -0.5488  0.0638 -0.4290
  810MOL0     C 9246   4.070  10.102   8.324  0.0093 -0.0535 -0.2093
  810MOL0     C 9247   4.164  10.184   8.390  1.2552  0.0849 -0.3215
  810MOL0     C 9248   4.295  10.164   8.361 -0.1296 -0.4677 -0.3341
  810MOL0     C 9249   4.344  10.072   8.263 -0.7515  0.0548  0.0930
  810MOL0     O 9250   4.477  10.042   8.241  0.5550  0.1987 -0.8675
  810MOL0     C 9251   4.578  10.108   8.323  0.4915 -0.3793  0.1044
  810MOL0     C 9252   4.712  10.048   8.272 -0.2395  0.2885  0.6382
  810MOL0     C 9253   4.839  10.074   8.356  0.0281  0.5337 -0.1406
  810MOL0     C 9254   4.956  10.041   8.251  0.0662  0.0207 -0.1466
  810MOL0     C 9255   5.094  10.038   8.319  0.0941 -0.1100  0.7620
  810MOL0     C 9256   5.212  10.013   8.224  1.4238  0.8822  0.7008
  810MOL0     C 9257   5.335   9.998   8.314  0.3019 -0.3224 -0.4169
  810MOL0     C 9258   5.473   9.993   8.245  0.7751  0.5912 -0.4935
  810MOL0    Cl 9259   5.467   9.950   8.072 -0.2083  0.0119  0.4035
  810MOL0     C 9260   4.245   9.989   8.200 -0.0939 -0.2190  0.5431
  810MOL0     C 9261   4.111  10.006   8.230 -0.4941  0.2428  0.7507
  810MOL0     O 9262   3.900  10.314   8.280  0.1405 -0.6244 -0.5605
  810MOL0     C 9263   3.689  10.093   8.460  0.5543  0.4142  0.6255
  810MOL0     C 9264   3.557  10.080   8.507  0.1233 -0.9432  0.0683
  810MOL0     N 9265   2.829   9.943   8.204 -0.3761  1.0213 -0.2377
  810MOL0     N 9266   2.726   9.976   8.127  0.4352  0.0536  0.6664
  810MOL0     C 9267   1.642   9.888   8.182 -0.3367  0.3024 -0.5018
  810MOL0     C 9268   1.506   9.894   8.155  0.2056  0.4671  0.4898
  810MOL0     C 9269   1.091   9.748   8.154 -0.3821 -0.5586  0.9666
  810MOL0     C 9270   1.019   9.861   8.120  0.1772 -0.7195  0.1027
  810MOL0     C 9271   0.895   9.849   8.049  0.0757 -0.3266 -0.0887
  810MOL0     C 9272   0.854   9.723   8.000  0.4506  0.2760 -0.1799
  810MOL0     O 9273   0.742   9.720   7.924 -0.1876 -0.2002  0.0095
  810MOL0     C 9274   0.656   9.606   7.927  0.1931  0.3496  0.3755
  810MOL0     C 9275   0.507   9.638   7.912 -0.3104  0.6466 -0.1638
  810MOL0     C 9276   0.484   9.671   7.761 -0.0258  0.3374  0.5822
  810MOL0     C 9277   0.340   9.700   7.714 -0.0520 -0.3247  0.3252
  810MOL0     C 9278   0.327   9.780   7.598  0.2751  0.6963  0.3504
  810MOL0     C 9279   0.303   9.863   7.515 -0.3393  0.2412  0.0670
  810MOL0     C 9280   0.926   9.610   8.052  0.3115  0.1649 -0.9270
  810MOL0     C 9281   1.048   9.620   8.121  0.7270 -0.5801 -0.4239
  810MOL0     C 9282   1.128   9.488   8.144  0.1385 -0.6095  0.1938
  810MOL0     H 9283   1.378   9.920   8.467  1.1193 -3.6654  1.3331
  810MOL0     H 9284   1.617   9.904   8.521  2.3223  1.3461  0.1593
  810MOL0     H 9285   1.860  10.019   8.479  1.9003 -0.7520  1.0533
  810MOL0     H 9286   1.805   9.862   8.533  0.5734 -1.2066 -0.3984
  810MOL0     H 9287   2.013   9.783   8.392 -2.4649  1.6539 -2.2945
  810MOL0     H 9288   2.048   9.847   8.560 -3.8493  0.8727  1.4096
  810MOL0     H 9289   2.103  10.072   8.468  2.9494 -1.6359  0.2227
  810MOL0     H 9290   2.075  10.003   8.299  2.3326 -2.6855 -1.7807
  810MOL0     H 9291   2.259   9.925   8.508 -2.3407 -1.2466  0.1352
  810MOL0     H 9292   2.254   9.840   8.349  1.5778  0.0153 -0.7445
  810MOL0     H 9293   2.305  10.135   8.311 -1.0388 -0.2625 -0.6531
  810MOL0     H 9294   2.434  10.061   8.409 -0.6514 -0.5131  0.9806
  810MOL0     H 9295   2.473   9.911   8.237 -0.0533  1.0304  1.6513
  810MOL0     H 9296   2.302   9.929   8.168 -0.7076 -0.4239 -0.7190
  810MOL0     H 9297   2.351  10.144   8.076  0.4310  0.8668  0.5829
  810MOL0     H 9298   2.474  10.029   8.018  0.9060  0.0449  0.3522
  810MOL0     H 9299   2.584  10.231   8.052  0.2761 -0.2487 -0.6095
  810MOL0     H 9300   2.512  10.234   8.214 -1.3287  0.4877 -1.7256
  810MOL0     H 9301   2.715  10.181   8.383  1.6861 -2.7387  1.0577
  810MOL0     H 9302   2.869  10.081   8.526  1.2561  0.6587 -0.5308
  810MOL0     H 9303   2.890   9.907   8.490  2.2658 -1.4171 -0.5945
  810MOL0     H 9304   3.089   9.959   8.362  0.5272 -2.3604  2.7515
  810MOL0     H 9305   3.069  10.128   8.400  3.3905 -1.0884 -0.5511
  810MOL0     H 9306   3.107   9.907   8.599  2.0774 -0.3699  0.5288
  810MOL0     H 9307   3.081  10.086   8.635 -4.4754 -1.4690 -0.4773
  810MOL0     H 9308   3.309   9.938   8.496 -2.5391  2.2322 -5.1115
  810MOL0     H 9309   3.320  10.013   8.654 -0.0597 -4.5015 -0.4849
  810MOL0     H 9310   3.419  10.334   8.323  0.1999 -0.7615  0.0069
  810MOL0     H 9311   3.670  10.381   8.280  0.7953  1.3208  3.1926
  810MOL0     H 9312   4.119  10.244   8.469  1.8336  0.4067 -0.2281
  810MOL0     H 9313   4.368  10.221   8.418 -0.5861 -1.8515  1.7820
  810MOL0     H 9314   4.561  10.216   8.311 -1.6773 -0.6694  0.0308
  810MOL0     H 9315   4.556  10.094   8.430 -3.5590  1.2675 -0.3415
  810MOL0     H 9316   4.706   9.939   8.279  0.4685  0.3295  2.5898
  810MOL0     H 9317   4.727  10.073   8.166 -2.7128 -0.3460  0.0905
  810MOL0     H 9318   4.855  10.180   8.378  0.7899  0.7906 -1.7783
  810MOL0     H 9319   4.844  10.011   8.445 -0.1488  0.9676  0.1835
  810MOL0     H 9320   4.955  10.118   8.174 -0.6542 -0.6012 -0.7702
  810MOL0     H 9321   4.946   9.945   8.200  1.7749  0.2881 -1.0741
  810MOL0     H 9322   5.086   9.971   8.405 -0.3120 -0.0172  0.7985
  810MOL0     H 9323   5.128  10.137   8.352  1.6259 -0.4336  0.2133
  810MOL0     H 9324   5.196   9.928   8.157  1.7824  2.3205 -1.3228
  810MOL0     H 9325   5.213  10.102   8.161 -2.4200  0.7499  0.2055
  810MOL0     H 9326   5.316   9.900   8.360 -3.8030  0.9978  1.1263
  810MOL0     H 9327   5.328  10.073   8.393 -2.3754 -0.1237 -0.7381
  810MOL0     H 9328   5.530  10.084   8.265 -0.2182  0.7865  1.8500
  810MOL0     H 9329   5.537   9.922   8.298 -0.4830  0.9338  1.6142
  810MOL0     H 9330   4.262   9.910   8.128 -1.9402  1.4015 -1.8106
  810MOL0     H 9331   4.032   9.939   8.198 -1.1020  0.5084  1.6827
  810MOL0     H 9332   3.775  10.035   8.491  1.7854  1.5186 -0.5739
  810MOL0     H 9333   3.526   9.988   8.557 -1.1179 -0.4840  0.1828
  810MOL0     H 9334   1.720   9.885   8.107  0.3252  3.4638 -0.1096
  810MOL0     H 9335   1.482   9.880   8.050 -2.3216  0.1938  1.0418
  810MOL0     H 9336   1.056   9.961   8.141 -3.0432  0.2110  2.2391
  810MOL0     H 9337   0.834   9.937   8.029 -0.4092 -0.6113  0.1179
  810MOL0     H 9338   0.669   9.559   8.025 -1.4983 -3.0096 -0.8566
  810MOL0     H 9339   0.682   9.524   7.859 -1.6160 -0.2449  0.3378
  810MOL0     H 9340   0.481   9.717   7.983 -0.9109 -1.7728  2.5335
  810MOL0     H 9341   0.456   9.544   7.939  2.0621 -1.0382 -1.2060
  810MOL0     H 9342   0.520   9.581   7.709  0.9084  0.6505  0.6760
  810MOL0     H 9343   0.547   9.751   7.723  0.9780 -1.4063 -1.6499
  810MOL0     H 9344   0.294   9.601   7.705 -1.0429 -0.2712  3.7196
  810MOL0     H 9345   0.294   9.742   7.804 -0.9557  0.3734 -0.4362
  810MOL0     H 9346   0.269   9.946   7.456  1.0029  0.1912 -0.8191
  810MOL0     H 9347   0.891   9.509   8.030  1.8421 -0.3292 -1.1926
  810MOL0     H 9348   1.231   9.509   8.114 -0.9354  3.3063 -1.2931
  810MOL0     H 9349   1.128   9.458   8.249  0.4745 -1.2472  0.0165
  810MOL0     H 9350   1.087   9.407   8.082  0.1193 -1.2669  1.0399
  811MOL0     O 9351   0.276   8.317  10.867 -0.0094  0.2875  0.1131
  811MOL0     C 9352   0.289   8.394  10.771  0.7161  1.2246 -0.9106
  811MOL0     O 9353   0.396   8.401  10.694 -0.0555  0.2964 -0.1644
  811MOL0     C 9354   0.512   8.353  10.743 -0.8067  0.0597 -0.2807
  811MOL0     C 9355   0.597   8.449  10.802 -1.0237  0.7752 -0.8798
  811MOL0     C 9356   0.735   8.423  10.824  1.1191  0.7895  0.1650
  811MOL0     C 9357   0.779   8.291  10.805  0.2334 -0.2690  0.0484
  811MOL0     O 9358   0.904   8.241  10.833 -0.0713  0.5998 -0.0457
  811MOL0     C 9359   1.012   8.341  10.821 -0.4077  0.6823 -0.1917
  811MOL0     C 9360   1.150   8.280  10.793  0.3941 -0.0511  0.0922
  811MOL0     C 9361   1.213   8.204  10.909  0.2264  0.9729 -0.0579
  811MOL0     C 9362   1.335   8.123  10.838 -0.0896 -0.0960 -0.0754
  811MOL0     C 9363   1.404   8.045  10.949  0.3761 -0.7838 -0.0958
  811MOL0     C 9364   1.506   7.957  10.901  1.2883  0.5599 -0.4081
  811MOL0     C 9365   1.563   7.886  11.029  0.3715 -0.2547  0.1825
  811MOL0     C 9366   1.689   7.804  10.998  0.6808  1.3024  0.3306
  811MOL0     N 9367   1.811   7.878  10.980  0.2919 -0.5944 -0.0673
  811MOL0     C 9368   1.923   7.865  11.058 -0.1739 -1.0587  0.7493
  811MOL0     C 9369   2.018   7.932  10.990  0.1703  0.0165 -0.8549
  811MOL0     C 9370   2.136   7.973  11.072  0.0532 -0.4451 -0.8919
  811MOL0     C 9371   2.233   7.864  11.096  0.3958  0.1684  0.2301
  811MOL0     C 9372   2.362   7.913  11.174  0.4843  0.4406  0.2545
  811MOL0     C 9373   2.454   8.010  11.097 -0.5708  0.1345  0.3526
  811MOL0     O 9374   2.529   7.929  11.010 -0.4978 -0.2405 -0.2280
  811MOL0     C 9375   2.665   7.914  11.025  0.1485 -0.3960  0.8588
  811MOL0     C 9376   2.739   7.953  11.137  0.5725  0.5424 -0.5732
  811MOL0     C 9377   2.876   7.948  11.146 -0.2069  0.3845 -0.1653
  811MOL0     C 9378   2.956   7.891  11.036 -0.3935 -0.2942 -0.3066
  811MOL0     C 9379   3.103   7.879  11.044  1.5745  0.3419 -0.4823
  811MOL0     O 9380   3.160   7.821  10.936  0.5505 -0.3066 -0.1996
  811MOL0     C 9381   3.298   7.802  10.930  0.4868 -0.2030 -0.2194
  811MOL0     C 9382   3.380   7.882  10.851 -0.9876 -0.1161  0.3173
  811MOL0     C 9383   3.517   7.872  10.848 -0.7244 -0.4062 -0.1803
  811MOL0     C 9384   3.581   7.768  10.933  0.4501  1.1710 -0.3577
  811MOL0     O 9385   3.713   7.746  10.918  0.0454 -0.4265 -0.1425
  811MOL0     C 9386   3.764   7.610  10.948 -0.0047  0.4390  0.5156
  811MOL0     C 9387   3.880   7.618  11.039 -0.0227  0.9326 -0.3044
  811MOL0     C 9388   4.013   7.636  10.969 -0.1136 -0.7025  0.1591
  811MOL0     C 9389   4.073   7.521  10.885 -0.6761 -0.7002 -0.3949
  811MOL0     C 9390   4.143   7.418  10.973  0.1126 -0.2869  0.1643
  811MOL0     C 9391   4.196   7.293  10.894 -0.0641 -0.7934 -0.1348
  811MOL0     C 9392   4.332   7.329  10.831  0.3033  0.0330  0.3213
  811MOL0     C 9393   4.414   7.210  10.795 -0.1312  0.3565 -0.2944
  811MOL0    Cl 9394   4.362   7.156  10.630 -0.0005  0.3028 -0.3497
  811MOL0     C 9395   3.496   7.701  11.020  1.4491  0.0937 -0.2586
  811MOL0     C 9396   3.355   7.719  11.013 -0.3394  0.4302 -0.5602
  811MOL0     O 9397   3.157   7.920  11.144 -0.2699  0.0230  0.2080
  811MOL0     C 9398   2.884   7.840  10.928 -0.7348 -0.0400 -0.4274
  811MOL0     C 9399   2.740   7.856  10.924  0.5818 -0.0201  0.0066
  811MOL0     N 9400   1.963   7.988  10.874 -0.5709  0.1449  0.2322
  811MOL0     N 9401   1.844   7.938  10.862 -0.1890 -0.1980 -0.1821
  811MOL0     C 9402   0.700   8.193  10.746 -0.9399 -0.3876 -0.0192
  811MOL0     C 9403   0.566   8.227  10.721 -0.0575 -0.3576  0.5827
  811MOL0     C 9404   0.164   8.472  10.744 -0.8008  0.1177  0.1287
  811MOL0     C 9405   0.036   8.425  10.788  0.0289 -0.0410  0.4397
  811MOL0     C 9406  -0.082   8.492  10.773  1.1320 -0.5324  0.2962
  811MOL0     C 9407  -0.075   8.619  10.713  0.2066 -0.2866 -0.1050
  811MOL0     O 9408  -0.196   8.677  10.709 -0.1151 -0.6124 -0.0803
  811MOL0     C 9409  -0.210   8.818  10.660  0.0222  0.0831 -0.0490
  811MOL0     C 9410  -0.342   8.882  10.701 -0.9622  0.5536 -0.3651
  811MOL0     C 9411  -0.462   8.806  10.639  0.1496 -0.2841  1.2622
  811MOL0     C 9412  -0.442   8.794  10.488  0.3940  0.3533 -0.5918
  811MOL0     C 9413  -0.445   8.920  10.417 -0.8670  0.3206 -0.0381
  811MOL0     C 9414  -0.445   9.025  10.355 -0.3583  0.1546 -0.1191
  811MOL0     C 9415   0.046   8.660  10.664 -0.1650 -0.1158 -0.9642
  811MOL0     C 9416   0.164   8.591  10.669  1.0608  0.2813  0.0244
  811MOL0     C 9417   0.285   8.650  10.597 -0.1017 -0.1670 -0.1077
  811MOL0     H 9418   0.559   8.550  10.817  1.3742  1.4769  1.4007
  811MOL0     H 9419   0.801   8.505  10.852  0.6578  1.1633  0.1665
  811MOL0     H 9420   0.991   8.408  10.736 -3.2057  0.9138  0.5850
  811MOL0     H 9421   1.010   8.400  10.913  2.2878 -1.0777  1.1235
  811MOL0     H 9422   1.210   8.364  10.759 -0.6663 -0.1073 -2.1240
  811MOL0     H 9423   1.142   8.215  10.704  1.3710 -0.4939  0.3162
  811MOL0     H 9424   1.146   8.121  10.936  0.4717  0.2674 -1.5445
  811MOL0     H 9425   1.249   8.273  10.986  3.0636  1.1118 -1.3868
  811MOL0     H 9426   1.300   8.052  10.763 -1.8415  1.7640 -1.1085
  811MOL0     H 9427   1.411   8.187  10.793 -1.2359  1.1502 -0.2924
  811MOL0     H 9428   1.444   8.124  11.014 -3.1110 -0.1958  1.5991
  811MOL0     H 9429   1.335   7.988  11.011 -1.0835  2.4072  1.4896
  811MOL0     H 9430   1.474   7.883  10.828  2.4143 -2.8759  2.3015
  811MOL0     H 9431   1.588   8.010  10.852  2.7115  0.0189  1.2659
  811MOL0     H 9432   1.493   7.826  11.088  0.3983  2.4698  3.3017
  811MOL0     H 9433   1.601   7.956  11.105  0.3733  0.4276 -0.4350
  811MOL0     H 9434   1.706   7.730  11.077  0.2739  0.4819 -0.3317
  811MOL0     H 9435   1.676   7.747  10.906 -0.5753  1.6428  0.2823
  811MOL0     H 9436   1.938   7.811  11.151 -1.6099  0.8526  2.1759
  811MOL0     H 9437   2.193   8.048  11.017  2.4938 -0.4569  1.4192
  811MOL0     H 9438   2.110   8.036  11.158  0.5763 -0.9871 -0.3271
  811MOL0     H 9439   2.182   7.787  11.155  2.4134 -1.6903 -0.2835
  811MOL0     H 9440   2.262   7.824  10.998 -0.5543 -1.8091  0.7119
  811MOL0     H 9441   2.424   7.827  11.202  1.2537  1.5092  1.9302
  811MOL0     H 9442   2.335   7.953  11.272 -0.5982 -2.7414  1.3783
  811MOL0     H 9443   2.521   8.077  11.152 -1.3217  0.2155  1.1927
  811MOL0     H 9444   2.394   8.080  11.039  1.2169  2.3739  1.0602
  811MOL0     H 9445   2.685   7.987  11.225 -1.5168 -1.6732 -0.9023
  811MOL0     H 9446   2.921   7.980  11.240 -0.3677 -3.4748  1.3803
  811MOL0     H 9447   3.332   7.951  10.783 -3.1960 -1.3513  0.5271
  811MOL0     H 9448   3.583   7.933  10.786  2.3752 -0.3327  2.8517
  811MOL0     H 9449   3.691   7.547  11.000  2.1879 -3.4499 -0.7251
  811MOL0     H 9450   3.784   7.556  10.855  0.2436  3.1535 -1.0976
  811MOL0     H 9451   3.878   7.695  11.116  2.3662  1.3114 -0.5328
  811MOL0     H 9452   3.876   7.529  11.101  4.0919  0.5639 -0.2640
  811MOL0     H 9453   3.988   7.715  10.897 -3.1813 -1.8300 -0.1959
  811MOL0     H 9454   4.083   7.669  11.046 -1.6107 -0.4029  1.4382
  811MOL0     H 9455   4.143   7.559  10.810  0.2141 -1.6921 -0.0928
  811MOL0     H 9456   3.991   7.467  10.837 -0.5672 -1.3661  0.1569
  811MOL0     H 9457   4.061   7.391  11.041 -1.2451  4.3229  0.6767
  811MOL0     H 9458   4.216   7.465  11.039  1.8875 -0.6826 -1.4308
  811MOL0     H 9459   4.199   7.208  10.964 -1.6908 -0.4511  0.3816
  811MOL0     H 9460   4.126   7.265  10.816 -0.3427  3.0482 -1.4434
  811MOL0     H 9461   4.397   7.394  10.891 -0.1442  0.3930  0.4258
  811MOL0     H 9462   4.317   7.390  10.741  1.2532  0.6197  0.5453
  811MOL0     H 9463   4.518   7.243  10.800 -0.1878  0.4060  1.0642
  811MOL0     H 9464   4.396   7.124  10.861  0.5396  0.5348  0.1302
  811MOL0     H 9465   3.526   7.628  11.095  1.4532 -0.6676 -0.9859
  811MOL0     H 9466   3.280   7.658  11.064 -0.0174  1.9467  1.8859
  811MOL0     H 9467   2.925   7.802  10.835 -0.9920  1.6076 -1.2656
  811MOL0     H 9468   2.697   7.814  10.833  0.9102 -1.2245  0.3948
  811MOL0     H 9469   0.745   8.096  10.728  1.4846  0.5357  0.6688
  811MOL0     H 9470   0.502   8.153  10.674 -0.9755  0.9633 -0.3379
  811MOL0     H 9471   0.029   8.324  10.828  0.1398  0.4930  1.8651
  811MOL0     H 9472  -0.176   8.446  10.804  1.3350 -1.1714 -0.0158
  811MOL0     H 9473  -0.196   8.822  10.552 -1.6631 -1.5994 -0.3875
  811MOL0     H 9474  -0.139   8.880  10.716 -0.6715 -0.8292  1.9526
  811MOL0     H 9475  -0.356   8.987  10.676  0.2945  1.1934  1.4168
  811MOL0     H 9476  -0.343   8.876  10.810  0.9658 -0.1886 -0.3493
  811MOL0     H 9477  -0.551   8.868  10.651 -0.5701 -1.1592  0.5830
  811MOL0     H 9478  -0.460   8.706  10.681  2.2780  0.2550  2.6187
  811MOL0     H 9479  -0.349   8.740  10.466 -0.8849 -1.7911 -1.0820
  811MOL0     H 9480  -0.524   8.731  10.449  2.3396 -3.5524  1.0530
  811MOL0     H 9481  -0.439   9.118  10.302 -1.6028  0.4834  0.2827
  811MOL0     H 9482   0.040   8.755  10.612  1.2411  0.1547 -0.6750
  811MOL0     H 9483   0.256   8.732  10.530  1.7877 -0.3114 -1.1626
  811MOL0     H 9484   0.364   8.683  10.665  1.1056 -1.3599 -0.8923
  811MOL0     H 9485   0.313   8.580  10.518 -0.7254 -1.4681  0.7875
  812MOL0     O 9486  10.156   7.120   4.426 -0.7471 -0.5878 -0.1226
  812MOL0     C 9487  10.099   7.043   4.497  0.2300  1.1176  0.1449
  812MOL0     O 9488  10.124   6.910   4.504  0.5552 -0.3089  0.2096
  812MOL0     C 9489  10.242   6.881   4.439  0.2197 -0.0885  0.1756
  812MOL0     C 9490  10.358   6.908   4.499 -0.0657 -0.7888  0.9117
  812MOL0     C 9491  10.478   6.880   4.426  0.7174  0.2307 -0.0861
  812MOL0     C 9492  10.478   6.814   4.304 -0.2702  0.5403  0.0230
  812MOL0     O 9493  10.598   6.773   4.236 -0.4538 -0.5713 -0.3078
  812MOL0     C 9494  10.726   6.789   4.305 -0.0864  0.6680  0.1466
  812MOL0     C 9495  10.737   6.688   4.423  0.9334  0.1327  1.3712
  812MOL0     C 9496  10.871   6.689   4.487 -0.4367  0.5433  0.0717
  812MOL0     C 9497  10.976   6.626   4.395  0.2260  0.6178 -0.3655
  812MOL0     C 9498  11.119   6.616   4.457  0.6648 -0.3156 -0.8888
  812MOL0     C 9499  11.221   6.545   4.368  1.3189 -1.1802  0.0635
  812MOL0     C 9500  11.359   6.524   4.429  0.5031 -0.3117 -0.4362
  812MOL0     C 9501  11.353   6.408   4.531 -0.2776  0.0490  0.4806
  812MOL0     N 9502  11.491   6.366   4.573  0.0829  0.7540  0.5839
  812MOL0     C 9503  11.583   6.450   4.628 -0.1559  0.4561 -0.1882
  812MOL0     C 9504  11.704   6.390   4.605  0.1444  0.2626 -0.1755
  812MOL0     C 9505  11.840   6.449   4.641  0.3890 -0.1269  0.9723
  812MOL0     C 9506  11.877   6.406   4.786  0.4404  0.1962  0.7673
  812MOL0     C 9507  12.001   6.492   4.825 -0.4130 -0.1772 -0.0410
  812MOL0     C 9508  12.124   6.466   4.733 -0.8304  0.3871  0.0400
  812MOL0     O 9509  12.165   6.325   4.726  0.0199  0.2516 -0.0798
  812MOL0     C 9510  12.272   6.279   4.802  0.7871 -0.1689  0.7974
  812MOL0     C 9511  12.332   6.355   4.902 -0.1057  0.1703  0.1816
  812MOL0     C 9512  12.446   6.293   4.974  0.5905 -0.1814 -0.1767
  812MOL0     C 9513  12.518   6.189   4.923  0.4968 -0.0726 -1.0899
  812MOL0     C 9514  12.648   6.152   4.978 -0.4129  0.3233 -0.2213
  812MOL0     O 9515  12.698   6.232   5.078 -0.3437 -0.7177  0.0559
  812MOL0     C 9516  12.828   6.214   5.109 -0.3604  0.3613 -0.5526
  812MOL0     C 9517  12.866   6.164   5.234  0.2883  0.2757  0.4805
  812MOL0     C 9518  12.996   6.145   5.267 -0.1265  0.3343  0.1659
  812MOL0     C 9519  13.097   6.170   5.172  0.2540 -0.2189 -0.2973
  812MOL0     O 9520  13.233   6.157   5.192  0.0559 -0.1708 -0.2157
  812MOL0     C 9521  13.270   6.094   5.314  0.0060 -0.8693  0.1833
  812MOL0     C 9522  13.426   6.108   5.331 -0.0733  0.1792 -0.4781
  812MOL0     C 9523  13.519   6.053   5.220 -0.0315  0.6576 -0.0415
  812MOL0     C 9524  13.673   6.060   5.262  0.1414  1.2234 -0.4342
  812MOL0     C 9525  13.732   6.194   5.221 -0.8395  0.0977  1.3328
  812MOL0     C 9526  13.886   6.196   5.253  0.1633  0.4174 -0.8674
  812MOL0     C 9527  13.947   6.341   5.232  0.6816 -0.0788  0.5715
  812MOL0     C 9528  13.946   6.377   5.083  0.4213  0.3069 -0.2366
  812MOL0    Cl 9529  14.041   6.531   5.063 -0.0968  0.0189 -0.2499
  812MOL0     C 9530  13.061   6.215   5.046  0.9498 -0.2666  0.5526
  812MOL0     C 9531  12.928   6.241   5.012 -0.1890  0.0630 -0.1549
  812MOL0     O 9532  12.699   6.045   4.942  0.1554  0.5226 -0.5219
  812MOL0     C 9533  12.463   6.123   4.811 -0.1309  0.2704  0.0001
  812MOL0     C 9534  12.336   6.154   4.762  0.5823 -1.0210 -0.5193
  812MOL0     N 9535  11.683   6.273   4.529  0.0090  0.4180 -0.1384
  812MOL0     N 9536  11.558   6.259   4.515 -0.6425 -0.3666 -1.0267
  812MOL0     C 9537  10.352   6.779   4.250  0.1597 -0.3415  0.1187
  812MOL0     C 9538  10.234   6.817   4.316 -0.5933 -0.7127  0.2810
  812MOL0     C 9539   9.989   7.092   4.582 -0.5704  0.4500  0.7497
  812MOL0     C 9540  10.029   7.178   4.686  0.1893 -0.8327 -0.4925
  812MOL0     C 9541   9.939   7.248   4.760  0.6664  0.6327  0.5656
  812MOL0     C 9542   9.804   7.230   4.730 -0.1387 -0.1232  0.6376
  812MOL0     O 9543   9.697   7.299   4.775  0.6754 -0.7124  0.2177
  812MOL0     C 9544   9.708   7.312   4.916  0.0857  0.5317 -0.2026
  812MOL0     C 9545   9.584   7.381   4.942 -0.3373  0.5401  0.1627
  812MOL0     C 9546   9.460   7.290   4.919  0.7918  0.1059  0.7022
  812MOL0     C 9547   9.329   7.364   4.936 -0.0042  0.1066 -0.2912
  812MOL0     C 9548   9.312   7.431   5.069 -0.0110 -0.5930 -0.0763
  812MOL0     C 9549   9.267   7.477   5.175 -0.6892  0.0615 -0.0218
  812MOL0     C 9550   9.763   7.131   4.634  0.6348  0.1785  0.1193
  812MOL0     C 9551   9.857   7.071   4.554 -0.0167  0.3751 -0.2734
  812MOL0     C 9552   9.812   6.998   4.441 -0.2433  0.2642 -0.3797
  812MOL0     H 9553  10.366   6.961   4.593 -1.4786 -1.6232  1.5386
  812MOL0     H 9554  10.567   6.927   4.467  1.2146  0.1562 -1.0428
  812MOL0     H 9555  10.812   6.779   4.238 -0.4006 -0.3287 -0.1158
  812MOL0     H 9556  10.740   6.890   4.345  0.1234  0.7885 -0.2291
  812MOL0     H 9557  10.715   6.591   4.378  2.8165 -0.3379  1.3521
  812MOL0     H 9558  10.659   6.705   4.497  1.7846 -1.4040  2.6893
  812MOL0     H 9559  10.849   6.632   4.578 -3.5634  0.8827 -0.3601
  812MOL0     H 9560  10.908   6.789   4.509  0.1911 -0.0260  1.7765
  812MOL0     H 9561  10.946   6.526   4.362  1.1109  0.7416 -1.6511
  812MOL0     H 9562  10.981   6.679   4.300  2.5222 -0.3502 -0.8601
  812MOL0     H 9563  11.145   6.719   4.480  2.0693 -0.6481 -0.8786
  812MOL0     H 9564  11.121   6.565   4.554  0.3555  0.8373 -0.2666
  812MOL0     H 9565  11.183   6.446   4.339  1.6681 -1.3250  0.0929
  812MOL0     H 9566  11.224   6.600   4.273  3.3705 -2.2468 -0.5455
  812MOL0     H 9567  11.392   6.615   4.482  0.6130 -0.8601  0.4595
  812MOL0     H 9568  11.431   6.502   4.350  1.1668  2.5367 -0.7618
  812MOL0     H 9569  11.299   6.438   4.622 -0.2355 -0.9529  0.8496
  812MOL0     H 9570  11.305   6.323   4.482  2.0078 -1.1456  0.2031
  812MOL0     H 9571  11.567   6.543   4.681 -0.5289  0.4484 -0.2822
  812MOL0     H 9572  11.910   6.410   4.566 -1.9579 -3.5622  0.3197
  812MOL0     H 9573  11.833   6.558   4.638 -0.6148 -0.1535 -2.7797
  812MOL0     H 9574  11.792   6.420   4.854 -1.2467 -3.0175 -0.4597
  812MOL0     H 9575  11.900   6.299   4.791 -1.5878 -0.3053  0.4387
  812MOL0     H 9576  12.022   6.482   4.932 -0.6493  0.6225  0.0868
  812MOL0     H 9577  11.969   6.597   4.821 -1.0864 -0.4111 -1.5236
  812MOL0     H 9578  12.200   6.533   4.774 -0.4751 -0.8941  1.5716
  812MOL0     H 9579  12.107   6.500   4.630 -1.0150  0.3684  0.0638
  812MOL0     H 9580  12.293   6.451   4.932  2.6305  0.9293  1.5798
  812MOL0     H 9581  12.486   6.353   5.054 -2.1039  2.5988 -0.7188
  812MOL0     H 9582  12.796   6.125   5.307  0.2392  0.0171  0.2949
  812MOL0     H 9583  13.001   6.103   5.368 -0.6171 -0.7917 -0.2640
  812MOL0     H 9584  13.218   6.136   5.400  0.9289 -1.3585  1.0119
  812MOL0     H 9585  13.252   5.986   5.303  0.6714 -1.2785  2.5173
  812MOL0     H 9586  13.457   6.212   5.341 -0.0098  0.2086 -0.9627
  812MOL0     H 9587  13.444   6.056   5.425 -2.8717 -1.0303 -0.5154
  812MOL0     H 9588  13.488   5.949   5.201  1.9411  0.2376 -1.2044
  812MOL0     H 9589  13.508   6.109   5.126 -2.1469 -1.0712 -0.9195
  812MOL0     H 9590  13.720   5.975   5.211 -2.2160 -0.6451  0.3199
  812MOL0     H 9591  13.687   6.035   5.368 -1.3409  2.5978  0.1161
  812MOL0     H 9592  13.681   6.282   5.262  1.5967  3.0053 -1.3646
  812MOL0     H 9593  13.718   6.206   5.113  2.3677 -0.1527  0.7820
  812MOL0     H 9594  13.889   6.177   5.361 -3.8772  1.3199 -0.4272
  812MOL0     H 9595  13.927   6.113   5.195 -0.4331 -1.6102  1.4038
  812MOL0     H 9596  14.050   6.346   5.268  1.1217  3.0255 -0.7740
  812MOL0     H 9597  13.889   6.410   5.294 -2.2522 -0.1940 -1.8121
  812MOL0     H 9598  13.997   6.295   5.032 -3.4077 -1.1054 -2.2437
  812MOL0     H 9599  13.841   6.383   5.051 -0.1137 -3.1402  0.5054
  812MOL0     H 9600  13.135   6.221   4.967  0.3659 -2.8224 -0.2864
  812MOL0     H 9601  12.898   6.271   4.912  2.1002 -0.1232 -0.9594
  812MOL0     H 9602  12.510   6.034   4.770 -0.4752 -0.3864  0.9981
  812MOL0     H 9603  12.291   6.095   4.683 -0.0956  0.1326 -1.0327
  812MOL0     H 9604  10.340   6.733   4.152 -2.5352 -2.9085  1.5097
  812MOL0     H 9605  10.139   6.788   4.271  0.3864 -3.8827  0.0448
  812MOL0     H 9606  10.136   7.184   4.702 -0.1828  1.4839  1.9109
  812MOL0     H 9607   9.955   7.321   4.840 -1.3906  2.1453 -0.3003
  812MOL0     H 9608   9.787   7.376   4.957 -1.5758  1.4017  1.7862
  812MOL0     H 9609   9.715   7.219   4.972 -0.3359  1.2832  1.1316
  812MOL0     H 9610   9.587   7.471   4.880 -2.1182 -2.0896 -4.3143
  812MOL0     H 9611   9.582   7.410   5.047 -0.8999 -2.9835  1.2563
  812MOL0     H 9612   9.452   7.199   4.979 -1.4381 -0.3471 -0.1797
  812MOL0     H 9613   9.466   7.250   4.817  4.6876 -0.8025  1.1352
  812MOL0     H 9614   9.319   7.434   4.853  1.9304  0.3452 -0.3476
  812MOL0     H 9615   9.248   7.293   4.917 -0.4859  0.8369 -1.0534
  812MOL0     H 9616   9.228   7.521   5.264  0.3720  1.1029 -0.0537
  812MOL0     H 9617   9.656   7.115   4.624  0.7116 -1.5949  1.4818
  812MOL0     H 9618   9.706   7.017   4.419  0.0664  1.3404 -1.0063
  812MOL0     H 9619   9.862   7.035   4.351 -0.0051  0.7422 -0.0529
  812MOL0     H 9620   9.833   6.891   4.450  2.8434  0.9004  0.9545
  813MOL0     O 9621   7.301   8.119  10.861  0.1237  0.1340 -0.4442
  813MOL0     C 9622   7.239   8.219  10.852 -0.8141 -0.8918 -0.0561
  813MOL0     O 9623   7.303   8.338  10.817  0.6132 -0.1877 -0.5384
  813MOL0     C 9624   7.435   8.348  10.779  0.2059  1.0150  0.6104
  813MOL0     C 9625   7.536   8.346  10.870 -0.6392 -0.6869  0.1502
  813MOL0     C 9626   7.672   8.352  10.820 -0.2522  0.2027 -0.2384
  813MOL0     C 9627   7.693   8.357  10.681  0.0721  0.3853  0.0901
  813MOL0     O 9628   7.823   8.360  10.632 -0.2538 -0.3307 -0.1477
  813MOL0     C 9629   7.854   8.472  10.548  0.6925 -0.4515  0.0633
  813MOL0     C 9630   8.002   8.466  10.519 -0.2097  0.2808  0.5524
  813MOL0     C 9631   8.059   8.595  10.450  0.3258  0.6488 -0.8223
  813MOL0     C 9632   8.209   8.597  10.446  0.1893  0.1803  0.6725
  813MOL0     C 9633   8.257   8.727  10.389 -0.3829 -0.3908 -1.1778
  813MOL0     C 9634   8.414   8.730  10.388  0.2173 -0.0999 -0.0732
  813MOL0     C 9635   8.454   8.853  10.302 -0.8932  0.4338 -0.0924
  813MOL0     C 9636   8.606   8.844  10.297 -0.5215 -0.1850  0.2205
  813MOL0     N 9637   8.663   8.958  10.231 -0.4069  0.8930  0.2393
  813MOL0     C 9638   8.644   8.983  10.096 -0.2817  0.4594  0.5354
  813MOL0     C 9639   8.689   9.111  10.083  0.3364 -0.3807  0.5025
  813MOL0     C 9640   8.678   9.207   9.968  0.0777  1.0851 -0.9763
  813MOL0     C 9641   8.780   9.188   9.865 -0.4809 -0.0708  0.7043
  813MOL0     C 9642   8.918   9.251   9.888 -0.4071  0.7572 -0.1881
  813MOL0     C 9643   9.002   9.267   9.763 -0.0303 -0.5711  0.3334
  813MOL0     O 9644   9.106   9.366   9.777 -0.2488 -0.5272  0.0024
  813MOL0     C 9645   9.225   9.349   9.842  0.4274  0.3301  0.4007
  813MOL0     C 9646   9.323   9.443   9.818 -0.6190  0.5401 -0.8614
  813MOL0     C 9647   9.448   9.423   9.875  0.2017 -0.1587  0.5891
  813MOL0     C 9648   9.483   9.300   9.933 -0.0602  0.0906  0.0930
  813MOL0     C 9649   9.631   9.271   9.965  0.1795  0.4597  0.7633
  813MOL0     O 9650   9.659   9.153  10.031 -0.6827  0.1767  0.1377
  813MOL0     C 9651   9.796   9.126  10.051  0.7949 -0.5565  0.6481
  813MOL0     C 9652   9.887   9.213  10.110 -0.9010  0.6138  0.0303
  813MOL0     C 9653  10.022   9.180  10.132 -0.0036 -0.6190  1.0689
  813MOL0     C 9654  10.067   9.051  10.098 -0.3058  0.2741  1.1160
  813MOL0     O 9655  10.200   9.013  10.103  0.1472 -0.0466 -0.2284
  813MOL0     C 9656  10.268   9.038  10.225  0.8353 -0.5935  0.2052
  813MOL0     C 9657  10.410   8.998  10.209  0.0634 -0.1416  0.0555
  813MOL0     C 9658  10.475   9.032  10.073  0.5006  0.4220  0.0062
  813MOL0     C 9659  10.630   9.017  10.092  0.4364  0.8098 -0.3602
  813MOL0     C 9660  10.709   9.046   9.966  0.0642  0.3919  0.3085
  813MOL0     C 9661  10.855   9.000   9.991  1.1921 -1.1078  0.2078
  813MOL0     C 9662  10.930   9.000   9.855 -0.8197 -0.0522  0.4731
  813MOL0     C 9663  11.061   8.916   9.884 -1.3229 -0.3485 -0.1378
  813MOL0    Cl 9664  11.177   9.028   9.964 -0.3511  0.0078 -0.5908
  813MOL0     C 9665   9.977   8.970  10.026  0.7727  0.2276  0.1625
  813MOL0     C 9666   9.839   9.006  10.006 -0.1571 -1.0854  0.4506
  813MOL0     O 9667   9.710   9.346   9.926  0.0900  0.2090 -0.1907
  813MOL0     C 9668   9.380   9.201   9.953  0.1603  0.5679 -0.5150
  813MOL0     C 9669   9.252   9.235   9.917  0.5024 -0.8836  1.2054
  813MOL0     N 9670   8.754   9.156  10.200 -0.0391 -0.0553 -0.3997
  813MOL0     N 9671   8.722   9.064  10.285  0.7383  0.3004 -0.8851
  813MOL0     C 9672   7.587   8.352  10.592 -0.2305  0.2242 -0.1631
  813MOL0     C 9673   7.459   8.355  10.643 -0.2008  1.1480 -0.0219
  813MOL0     C 9674   7.092   8.227  10.886 -1.1861  0.3268  0.0341
  813MOL0     C 9675   7.034   8.348  10.899 -0.3193 -0.5588 -0.3795
  813MOL0     C 9676   6.897   8.357  10.920  0.6808 -0.3607 -0.5041
  813MOL0     C 9677   6.816   8.241  10.928  0.3669 -0.4372 -1.0070
  813MOL0     O 9678   6.674   8.260  10.939 -0.3262  0.0791 -0.3502
  813MOL0     C 9679   6.590   8.139  10.946 -0.1065 -0.1541  0.0775
  813MOL0     C 9680   6.590   8.076  10.798 -0.9051 -0.7054 -0.5535
  813MOL0     C 9681   6.542   7.927  10.811  0.6048  0.7859  0.5498
  813MOL0     C 9682   6.535   7.857  10.675  0.1479 -0.1842  0.3524
  813MOL0     C 9683   6.669   7.838  10.617 -0.4141  0.6266 -0.2508
  813MOL0     C 9684   6.782   7.819  10.597  0.2965  0.4992 -0.6057
  813MOL0     C 9685   6.877   8.114  10.924 -0.3562 -0.1414  0.1777
  813MOL0     C 9686   7.011   8.104  10.901  0.7363 -0.1099  0.6175
  813MOL0     C 9687   7.066   7.960  10.884 -0.3080  0.7116  0.3137
  813MOL0     H 9688   7.493   8.342  10.969 -0.6541 -0.9713  0.1313
  813MOL0     H 9689   7.752   8.378  10.888 -1.1943  2.4083  0.1152
  813MOL0     H 9690   7.797   8.479  10.455  2.0309  1.4107 -0.6874
  813MOL0     H 9691   7.838   8.563  10.608  1.8817 -0.3080  0.1863
  813MOL0     H 9692   8.017   8.383  10.451 -2.2954  2.2012 -2.5058
  813MOL0     H 9693   8.059   8.451  10.611  1.4879 -0.3260 -0.5602
  813MOL0     H 9694   8.021   8.680  10.507  3.8999  1.8008  0.1456
  813MOL0     H 9695   8.030   8.602  10.345 -0.4863  0.4307 -0.6173
  813MOL0     H 9696   8.254   8.593  10.546 -2.0737  2.3975  1.8941
  813MOL0     H 9697   8.246   8.522  10.375 -0.2128  1.1943 -0.6382
  813MOL0     H 9698   8.216   8.740  10.289  0.0906  0.8858 -1.2298
  813MOL0     H 9699   8.218   8.809  10.451 -0.3674 -2.4866  1.8304
  813MOL0     H 9700   8.448   8.746  10.491  0.1336  2.4354 -0.3700
  813MOL0     H 9701   8.454   8.635  10.352 -2.2708 -1.6061  0.9156
  813MOL0     H 9702   8.416   8.943  10.351 -1.9812 -0.0841  0.0624
  813MOL0     H 9703   8.400   8.834  10.209 -2.3730 -1.7807  1.1268
  813MOL0     H 9704   8.636   8.832  10.401 -1.3598 -4.1237  0.1487
  813MOL0     H 9705   8.617   8.748  10.247  0.2499 -0.0128  0.0519
  813MOL0     H 9706   8.600   8.914  10.024  0.5259  0.9723 -0.4840
  813MOL0     H 9707   8.586   9.176   9.917  1.2669 -2.4369 -1.2777
  813MOL0     H 9708   8.678   9.310  10.002  0.5855  0.7642  0.0380
  813MOL0     H 9709   8.796   9.083   9.837  1.9382  0.2279  0.6853
  813MOL0     H 9710   8.734   9.231   9.775  0.2867 -1.2727 -0.3035
  813MOL0     H 9711   8.977   9.196   9.963 -0.4821  1.3715  0.3299
  813MOL0     H 9712   8.895   9.351   9.926 -1.3692  0.8124 -0.8805
  813MOL0     H 9713   8.940   9.289   9.676 -1.8473 -1.1358  1.4347
  813MOL0     H 9714   9.047   9.170   9.743  0.0560 -0.8139  1.6310
  813MOL0     H 9715   9.305   9.532   9.759 -2.2976  3.0307  2.9853
  813MOL0     H 9716   9.527   9.495   9.854  0.2489 -0.3589  0.0719
  813MOL0     H 9717   9.856   9.304  10.162  0.4232  0.8265  0.5000
  813MOL0     H 9718  10.092   9.249  10.177 -0.7005 -0.7888  2.4759
  813MOL0     H 9719  10.271   9.144  10.252 -2.5953 -0.3734  0.2685
  813MOL0     H 9720  10.226   8.994  10.317  1.4597  0.3735  0.9658
  813MOL0     H 9721  10.467   9.039  10.294 -1.6888  1.6707  0.4330
  813MOL0     H 9722  10.406   8.890  10.222  0.6460 -0.4656 -2.1378
  813MOL0     H 9723  10.450   8.968   9.988  5.4659 -2.0207  0.0051
  813MOL0     H 9724  10.448   9.135  10.046 -0.7004  0.5992  1.7255
  813MOL0     H 9725  10.639   8.912  10.121 -0.8832  0.7529 -0.0865
  813MOL0     H 9726  10.652   9.079  10.180  1.1861  0.0758 -0.0174
  813MOL0     H 9727  10.692   9.153   9.950 -0.5776  0.5972  2.1415
  813MOL0     H 9728  10.658   8.986   9.890  2.8821 -3.6499  1.3156
  813MOL0     H 9729  10.906   9.065  10.062 -0.8352  1.5133 -0.5481
  813MOL0     H 9730  10.856   8.897  10.028  1.2113 -0.6392  1.5548
  813MOL0     H 9731  10.951   9.102   9.821 -1.0565 -0.1878 -0.0922
  813MOL0     H 9732  10.880   8.938   9.780  0.5164 -3.7693  2.3802
  813MOL0     H 9733  11.031   8.824   9.934  0.6446 -0.6839  0.5365
  813MOL0     H 9734  11.119   8.879   9.799 -2.8545 -1.1602 -0.8650
  813MOL0     H 9735  10.021   8.880   9.983  1.7547  0.8597 -0.1984
  813MOL0     H 9736   9.775   8.945   9.944 -2.6535 -0.6386  2.3893
  813MOL0     H 9737   9.401   9.107  10.003  2.3690  1.0596 -0.4219
  813MOL0     H 9738   9.182   9.158   9.949 -0.7838  0.0684  0.7271
  813MOL0     H 9739   7.601   8.356  10.485  3.0075  1.9793  0.2152
  813MOL0     H 9740   7.388   8.367  10.562  1.9698 -0.7141 -2.3596
  813MOL0     H 9741   7.074   8.449  10.895  0.2191 -0.8203 -2.4289
  813MOL0     H 9742   6.857   8.458  10.924 -1.1883 -0.9646 -2.2400
  813MOL0     H 9743   6.493   8.159  10.991 -0.0037  0.7056 -0.0597
  813MOL0     H 9744   6.636   8.077  11.024  1.6448  0.9991  0.0276
  813MOL0     H 9745   6.690   8.079  10.754 -1.1900 -1.1778 -1.2488
  813MOL0     H 9746   6.529   8.139  10.732  1.2837  2.1450 -0.0925
  813MOL0     H 9747   6.437   7.924  10.840 -0.3189  1.7074 -2.3663
  813MOL0     H 9748   6.600   7.865  10.879  0.0627 -1.0151 -0.5598
  813MOL0     H 9749   6.479   7.763  10.683  0.4287 -0.3521  0.3588
  813MOL0     H 9750   6.471   7.912  10.605 -0.6405 -0.0710  1.1502
  813MOL0     H 9751   6.886   7.806  10.573  0.7272 -1.2814  1.8395
  813MOL0     H 9752   6.824   8.020  10.926 -3.7122  1.5880  2.0306
  813MOL0     H 9753   6.988   7.885  10.891  1.0862 -1.1671 -2.4853
  813MOL0     H 9754   7.107   7.943  10.784  2.7208 -0.1328  1.5693
  813MOL0     H 9755   7.139   7.951  10.965 -2.5720 -1.2356  2.2930
  814MOL0     O 9756   5.921   6.928   4.169 -0.1606 -0.1447  0.7087
  814MOL0     C 9757   5.892   6.967   4.053  0.1952 -0.1961 -0.7441
  814MOL0     O 9758   5.983   7.005   3.956  0.4320 -0.0605  0.2485
  814MOL0     C 9759   6.117   6.992   3.991 -0.6052 -0.1725 -0.4709
  814MOL0     C 9760   6.201   6.907   3.918  0.1852  0.0522  0.3814
  814MOL0     C 9761   6.332   6.888   3.968 -0.2763  0.1661  0.4709
  814MOL0     C 9762   6.391   6.960   4.067  0.3471 -0.2135 -0.1204
  814MOL0     O 9763   6.526   6.962   4.090  0.1883  0.5042 -0.0730
  814MOL0     C 9764   6.574   6.833   4.123  0.4579 -0.4786  0.4486
  814MOL0     C 9765   6.717   6.865   4.184 -0.2093  0.1868 -1.2386
  814MOL0     C 9766   6.812   6.942   4.092  0.8213 -0.6417  0.4828
  814MOL0     C 9767   6.946   6.959   4.147  0.3668 -0.3989 -0.3203
  814MOL0     C 9768   7.044   7.011   4.040 -0.3670 -0.1250  0.4019
  814MOL0     C 9769   6.987   7.133   3.967 -0.2936  0.7682 -0.4235
  814MOL0     C 9770   7.092   7.188   3.865  0.5533  0.1303  0.4826
  814MOL0     C 9771   7.044   7.329   3.814  0.3914 -0.1110  0.5039
  814MOL0     N 9772   7.064   7.437   3.908 -0.4730  0.5699  0.8260
  814MOL0     C 9773   7.158   7.543   3.897  0.0096 -0.9689  0.6597
  814MOL0     C 9774   7.141   7.615   4.011 -0.4166 -0.4502 -0.6528
  814MOL0     C 9775   7.207   7.739   4.068  0.2553  0.0754  0.1382
  814MOL0     C 9776   7.361   7.706   4.092 -0.3213  0.6416 -0.0606
  814MOL0     C 9777   7.439   7.822   4.150  0.1402  0.8527  0.2457
  814MOL0     C 9778   7.580   7.774   4.164 -0.8869 -0.6750 -0.1780
  814MOL0     O 9779   7.658   7.889   4.201 -0.1529  0.6636 -0.0025
  814MOL0     C 9780   7.793   7.864   4.206 -0.5175  0.0653  0.1334
  814MOL0     C 9781   7.849   7.764   4.285  0.7808  0.3453  0.1965
  814MOL0     C 9782   7.981   7.751   4.291 -0.5945 -0.0470 -0.3706
  814MOL0     C 9783   8.072   7.842   4.223  0.3470 -0.7150  0.8131
  814MOL0     C 9784   8.223   7.833   4.223 -0.7204  0.8338  1.1234
  814MOL0     O 9785   8.294   7.933   4.154  0.2423  0.4716 -1.0283
  814MOL0     C 9786   8.430   7.937   4.179  0.6171  0.0552 -0.2782
  814MOL0     C 9787   8.518   7.913   4.078  0.1699 -0.1950 -0.4717
  814MOL0     C 9788   8.653   7.928   4.089 -0.0295  0.3542 -0.1961
  814MOL0     C 9789   8.709   7.973   4.206 -0.4147 -0.5124 -0.0463
  814MOL0     O 9790   8.843   7.962   4.219  0.4913 -0.3836  0.1106
  814MOL0     C 9791   8.885   7.929   4.356 -0.5544  0.2892  0.5408
  814MOL0     C 9792   9.033   7.925   4.355 -0.5519  0.1716 -0.3320
  814MOL0     C 9793   9.091   7.848   4.238 -0.2680 -0.0482 -0.4009
  814MOL0     C 9794   9.059   7.700   4.219  0.2493  0.3491 -0.8175
  814MOL0     C 9795   9.106   7.641   4.091 -1.2163  0.8592 -0.5255
  814MOL0     C 9796   9.262   7.640   4.095  0.2409 -0.1217 -0.2140
  814MOL0     C 9797   9.336   7.555   3.985 -0.4270 -0.1371 -0.6525
  814MOL0     C 9798   9.289   7.602   3.839 -0.0629 -0.2907  0.4544
  814MOL0    Cl 9799   9.391   7.528   3.705 -0.1489  0.1084 -0.3739
  814MOL0     C 9800   8.619   7.997   4.311 -0.0977  0.2199  0.1801
  814MOL0     C 9801   8.480   7.975   4.305 -0.8111  0.8697  0.1941
  814MOL0     O 9802   8.269   7.752   4.308 -0.2846 -0.5489  0.3150
  814MOL0     C 9803   8.014   7.942   4.147 -0.5009  0.2714 -0.0955
  814MOL0     C 9804   7.874   7.949   4.124 -0.8062 -0.3397  0.0439
  814MOL0     N 9805   7.052   7.552   4.097 -0.2079  0.9992  0.0012
  814MOL0     N 9806   7.004   7.447   4.029 -0.1989 -0.4680  0.7363
  814MOL0     C 9807   6.303   7.046   4.132  0.4233  0.3115  0.1944
  814MOL0     C 9808   6.167   7.063   4.101 -1.2998  0.7520 -0.0908
  814MOL0     C 9809   5.746   6.983   4.018  0.0142  0.2654 -0.4893
  814MOL0     C 9810   5.715   7.046   3.896 -0.2652  0.5143  0.2884
  814MOL0     C 9811   5.586   7.078   3.866  0.4929  0.3788 -0.1871
  814MOL0     C 9812   5.487   7.034   3.938  0.8495 -0.1917 -0.2769
  814MOL0     O 9813   5.365   7.084   3.901  0.5420 -0.1591  0.1531
  814MOL0     C 9814   5.249   7.051   3.975 -0.1234 -0.0376 -0.5474
  814MOL0     C 9815   5.128   7.105   3.901 -0.3486 -0.1325 -0.0067
  814MOL0     C 9816   5.114   7.029   3.766  0.0557 -0.5041  0.8943
  814MOL0     C 9817   4.977   7.061   3.697 -0.3105 -0.0444 -0.2245
  814MOL0     C 9818   4.962   7.198   3.642  0.0962 -0.5929 -0.1257
  814MOL0     C 9819   4.963   7.321   3.627 -0.1605 -0.0873  0.2705
  814MOL0     C 9820   5.504   6.950   4.047  0.4630 -0.2518  0.2895
  814MOL0     C 9821   5.633   6.933   4.095  0.1130 -0.3608  0.1267
  814MOL0     C 9822   5.648   6.838   4.212  0.2642  0.5973 -0.8549
  814MOL0     H 9823   6.160   6.852   3.833 -0.9900  1.1532  0.2080
  814MOL0     H 9824   6.393   6.824   3.904  0.8522  0.3298  1.3465
  814MOL0     H 9825   6.514   6.781   4.197  1.0308  0.0842  1.3325
  814MOL0     H 9826   6.589   6.777   4.030  0.8374  2.8462 -1.6428
  814MOL0     H 9827   6.752   6.767   4.218  0.8251  1.0525  0.2918
  814MOL0     H 9828   6.705   6.933   4.269 -0.2397 -1.9310  0.5252
  814MOL0     H 9829   6.771   7.040   4.066  1.9030 -0.3996 -0.3957
  814MOL0     H 9830   6.827   6.879   4.004 -0.8876 -1.0896  0.4646
  814MOL0     H 9831   6.938   7.038   4.222 -3.0513  0.2923 -1.2528
  814MOL0     H 9832   6.991   6.873   4.199  0.2733  0.3650  1.0633
  814MOL0     H 9833   7.141   7.034   4.084 -0.7170  1.0661  0.5913
  814MOL0     H 9834   7.050   6.936   3.961 -1.2504 -0.1160  0.3099
  814MOL0     H 9835   6.889   7.118   3.920 -0.9093  3.9997 -0.3944
  814MOL0     H 9836   6.971   7.203   4.050 -1.0528  0.7217 -0.5203
  814MOL0     H 9837   7.104   7.109   3.790 -0.6307 -1.9713  2.3910
  814MOL0     H 9838   7.185   7.198   3.921  0.2605  0.7402  0.8734
  814MOL0     H 9839   7.101   7.359   3.726 -3.0547  1.0705 -1.5098
  814MOL0     H 9840   6.941   7.330   3.779  0.6343  2.0649 -0.2934
  814MOL0     H 9841   7.223   7.558   3.811  1.4030  1.0576  1.9949
  814MOL0     H 9842   7.187   7.825   4.003  2.1235  1.5785  1.4557
  814MOL0     H 9843   7.165   7.767   4.164  3.6755 -0.3710  1.9492
  814MOL0     H 9844   7.379   7.620   4.158  1.1317  1.3033  0.4358
  814MOL0     H 9845   7.400   7.669   3.997 -4.4369 -1.9720 -0.9948
  814MOL0     H 9846   7.410   7.842   4.253 -1.3395 -0.9569  0.2291
  814MOL0     H 9847   7.422   7.912   4.090 -1.7807  1.2965  1.3854
  814MOL0     H 9848   7.631   7.736   4.075 -0.6123  1.2160 -0.8651
  814MOL0     H 9849   7.588   7.705   4.249  1.0292  0.4053  0.5853
  814MOL0     H 9850   7.779   7.704   4.342 -1.3886  0.5428 -2.0718
  814MOL0     H 9851   8.026   7.673   4.353  0.2673  0.1552 -0.7221
  814MOL0     H 9852   8.480   7.864   3.989  0.3770  0.6269 -1.0305
  814MOL0     H 9853   8.721   7.894   4.012  0.0899 -0.6059  0.3221
  814MOL0     H 9854   8.868   8.012   4.425  0.8821 -0.1601  1.4794
  814MOL0     H 9855   8.830   7.836   4.379 -0.4424 -0.4368 -1.8792
  814MOL0     H 9856   9.080   8.023   4.362  2.7406 -0.8837 -3.9035
  814MOL0     H 9857   9.065   7.870   4.444  0.4582 -0.8518 -1.2842
  814MOL0     H 9858   9.072   7.910   4.149 -1.5690  3.7005  2.2220
  814MOL0     H 9859   9.199   7.851   4.254  0.1639 -3.4085 -1.8119
  814MOL0     H 9860   8.951   7.684   4.228  0.2786  0.6480  0.1655
  814MOL0     H 9861   9.095   7.650   4.310 -2.7424  1.5322  1.1954
  814MOL0     H 9862   9.071   7.685   3.998  0.4350 -1.0714 -2.1557
  814MOL0     H 9863   9.082   7.534   4.083  0.7116  0.2240  1.1490
  814MOL0     H 9864   9.301   7.742   4.088  0.6475 -0.2168  0.5969
  814MOL0     H 9865   9.295   7.603   4.193 -1.6131 -0.2486  0.3985
  814MOL0     H 9866   9.331   7.446   3.996  0.3472 -0.3344 -2.0873
  814MOL0     H 9867   9.441   7.582   3.995 -0.6151  1.0937 -1.7348
  814MOL0     H 9868   9.187   7.564   3.828 -0.0203 -0.6960  1.3495
  814MOL0     H 9869   9.280   7.711   3.831 -1.4183 -0.4016  0.1335
  814MOL0     H 9870   8.649   8.029   4.410  0.8122  0.1813 -0.0751
  814MOL0     H 9871   8.423   7.996   4.395 -3.1628 -3.9193  0.1570
  814MOL0     H 9872   8.081   8.008   4.092  1.6959 -1.1537  0.7213
  814MOL0     H 9873   7.829   8.022   4.057 -0.6350 -1.2477 -1.0857
  814MOL0     H 9874   6.336   7.116   4.207 -1.8757  2.2705 -0.5007
  814MOL0     H 9875   6.107   7.133   4.159 -0.2168  0.0338  2.0011
  814MOL0     H 9876   5.792   7.088   3.832 -0.4550 -1.8905 -1.6968
  814MOL0     H 9877   5.562   7.144   3.784 -0.2539  0.4909  0.1211
  814MOL0     H 9878   5.258   7.092   4.076  1.2144 -1.5111 -0.0214
  814MOL0     H 9879   5.245   6.944   3.997 -2.1157  0.1446  0.1425
  814MOL0     H 9880   5.142   7.210   3.874  0.5071 -0.1800  0.2493
  814MOL0     H 9881   5.034   7.096   3.956 -0.5903  0.2455 -0.3482
  814MOL0     H 9882   5.127   6.923   3.787 -0.1658 -1.0633 -1.4680
  814MOL0     H 9883   5.196   7.057   3.699 -2.2529  3.5892 -0.6266
  814MOL0     H 9884   4.957   6.987   3.619  2.1990 -3.1982  1.8697
  814MOL0     H 9885   4.892   7.049   3.764 -0.3223  0.4935 -0.1381
  814MOL0     H 9886   4.972   7.425   3.602  0.4170  0.1287  1.2988
  814MOL0     H 9887   5.420   6.911   4.103 -2.4197  2.4875 -1.7434
  814MOL0     H 9888   5.683   6.736   4.196  0.1496  0.0321  2.0510
  814MOL0     H 9889   5.705   6.880   4.295 -0.2264  1.0138 -0.7220
  814MOL0     H 9890   5.552   6.816   4.260  1.3459 -0.6015  0.8646
  815MOL0     O 9891   7.709  10.028   9.317  0.1010  0.2273  0.3101
  815MOL0     C 9892   7.623   9.958   9.274  0.3753  0.3866  0.5126
  815MOL0     O 9893   7.629   9.822   9.238  0.1223  0.8878 -1.0199
  815MOL0     C 9894   7.751   9.763   9.244  0.2906  0.7482 -0.9698
  815MOL0     C 9895   7.833   9.765   9.143 -0.1915  0.9985  0.1710
  815MOL0     C 9896   7.959   9.705   9.165  0.8326  0.1496 -0.0654
  815MOL0     C 9897   7.997   9.651   9.289  0.0671 -0.7571 -0.4703
  815MOL0     O 9898   8.122   9.602   9.318 -0.0594 -0.3793 -0.3309
  815MOL0     C 9899   8.229   9.637   9.225 -0.1537  0.4494 -0.9526
  815MOL0     C 9900   8.363   9.578   9.280  0.5909  0.2893 -0.0221
  815MOL0     C 9901   8.485   9.638   9.215  0.6412  0.4521  0.1590
  815MOL0     C 9902   8.608   9.554   9.242 -0.3984 -0.3515  0.7820
  815MOL0     C 9903   8.721   9.599   9.141  0.1264 -0.2111  0.1361
  815MOL0     C 9904   8.772   9.741   9.169  0.5770 -1.2839  0.1112
  815MOL0     C 9905   8.907   9.767   9.095  0.1358  0.2896 -0.0142
  815MOL0     C 9906   8.963   9.907   9.113 -0.5337 -0.0103 -0.2551
  815MOL0     N 9907   9.083   9.938   9.044 -1.2139  1.2337  0.5223
  815MOL0     C 9908   9.115  10.061   8.998  0.6530 -0.6309  1.1091
  815MOL0     C 9909   9.231  10.058   8.929 -0.1703 -0.2960  0.7940
  815MOL0     C 9910   9.297  10.181   8.859 -0.0614  0.8234  0.4955
  815MOL0     C 9911   9.445  10.183   8.870  0.2001 -0.3181  0.0331
  815MOL0     C 9912   9.508  10.293   8.774  0.5628  0.5934 -0.1193
  815MOL0     C 9913   9.664  10.279   8.796 -0.8543 -0.3990 -0.7319
  815MOL0     O 9914   9.718  10.164   8.726 -0.2892  0.0362  0.4025
  815MOL0     C 9915   9.847  10.145   8.769 -0.0085  0.3403  0.1495
  815MOL0     C 9916   9.942  10.239   8.735  0.6857 -0.3674  0.0249
  815MOL0     C 9917  10.078  10.225   8.771 -0.6336  0.5769 -0.0314
  815MOL0     C 9918  10.106  10.114   8.841 -0.8965  0.0568 -0.3049
  815MOL0     C 9919  10.250  10.079   8.877  0.0728 -0.5054  0.4486
  815MOL0     O 9920  10.347  10.154   8.810  0.1849 -0.4008 -0.4812
  815MOL0     C 9921  10.465  10.092   8.790 -0.2433  0.8247  0.0523
  815MOL0     C 9922  10.561  10.060   8.890  0.2993  0.4614 -0.9762
  815MOL0     C 9923  10.684  10.002   8.859  0.5858  0.2342  0.0823
  815MOL0     C 9924  10.700   9.946   8.731  0.1615  0.7367  0.6011
  815MOL0     O 9925  10.815   9.868   8.697  0.0186 -0.2037  0.8016
  815MOL0     C 9926  10.943   9.928   8.731  0.9123 -0.0078 -0.1228
  815MOL0     C 9927  11.044   9.879   8.627 -0.9244 -0.6080  0.5567
  815MOL0     C 9928  11.079   9.734   8.657 -0.6073  0.1075 -0.2184
  815MOL0     C 9929  11.201   9.730   8.749 -0.5948 -0.7699  0.2895
  815MOL0     C 9930  11.270   9.603   8.744  0.1259 -0.0680  0.0479
  815MOL0     C 9931  11.393   9.600   8.836  0.2879 -0.8175 -0.1407
  815MOL0     C 9932  11.470   9.461   8.833 -0.6637  0.6615 -0.0260
  815MOL0     C 9933  11.558   9.437   8.965  0.5704 -0.2738  0.1944
  815MOL0    Cl 9934  11.671   9.561   8.964  0.1569  0.2644  0.2764
  815MOL0     C 9935  10.592   9.964   8.637  0.0157  0.6386  0.5294
  815MOL0     C 9936  10.472  10.042   8.658 -0.2651 -0.2604 -0.8876
  815MOL0     O 9937  10.271   9.984   8.949 -0.3736  0.2277 -0.2442
  815MOL0     C 9938  10.008  10.014   8.875  0.7506  0.3932  0.4390
  815MOL0     C 9939   9.875  10.033   8.835  0.6268  0.2428 -0.6967
  815MOL0     N 9940   9.271   9.924   8.924  0.2464  0.5414  0.0908
  815MOL0     N 9941   9.177   9.851   8.984 -0.3261 -0.2858  0.2436
  815MOL0     C 9942   7.898   9.642   9.389 -0.3333 -0.3847 -0.0875
  815MOL0     C 9943   7.770   9.685   9.362 -0.3055 -0.6377  0.8317
  815MOL0     C 9944   7.485  10.022   9.246 -0.4482  0.8084  0.4476
  815MOL0     C 9945   7.368   9.950   9.279  0.6084 -0.3273 -0.3753
  815MOL0     C 9946   7.246   9.994   9.245  0.3227 -0.1691  0.4800
  815MOL0     C 9947   7.232  10.104   9.164 -0.6088  0.6368 -0.2937
  815MOL0     O 9948   7.117  10.135   9.098  1.1552  0.2162 -0.1784
  815MOL0     C 9949   6.993  10.059   9.113 -0.2245 -0.6321 -0.0349
  815MOL0     C 9950   6.921  10.121   9.230  0.6696 -0.7900 -0.4886
  815MOL0     C 9951   6.766  10.111   9.224  0.0202  0.4141 -0.1415
  815MOL0     C 9952   6.700  10.147   9.358 -0.1668  0.5168  0.6570
  815MOL0     C 9953   6.558  10.154   9.342  0.2264 -0.1799  0.5683
  815MOL0     C 9954   6.436  10.144   9.337  0.5177 -0.2712  0.0769
  815MOL0     C 9955   7.345  10.186   9.144  0.1399 -0.2523 -0.9511
  815MOL0     C 9956   7.472  10.150   9.190  0.0081 -0.5892 -0.0164
  815MOL0     C 9957   7.586  10.252   9.168 -0.4821  0.1869 -0.2765
  815MOL0     H 9958   7.803   9.818   9.053 -1.4163 -1.2614 -0.8492
  815MOL0     H 9959   8.029   9.716   9.084  0.6971 -1.6770 -0.4820
  815MOL0     H 9960   8.220   9.589   9.128 -0.0794  2.2287 -1.8731
  815MOL0     H 9961   8.235   9.746   9.221 -2.6291  0.8895  2.4865
  815MOL0     H 9962   8.369   9.473   9.249  0.8249  0.2001  0.3333
  815MOL0     H 9963   8.366   9.604   9.386 -0.4973  3.0160 -0.5726
  815MOL0     H 9964   8.495   9.736   9.262 -0.9926 -0.0478  1.6749
  815MOL0     H 9965   8.478   9.640   9.106  2.0946  0.7590  0.0531
  815MOL0     H 9966   8.644   9.574   9.343  0.7927 -2.6953  0.8844
  815MOL0     H 9967   8.587   9.447   9.242  0.1445 -0.5252 -1.6181
  815MOL0     H 9968   8.797   9.521   9.133  0.5353  0.3197 -1.4355
  815MOL0     H 9969   8.672   9.596   9.044 -2.1069  0.3736  1.1803
  815MOL0     H 9970   8.698   9.810   9.127  0.6776 -0.8162  0.6905
  815MOL0     H 9971   8.785   9.764   9.276  2.8025  1.1005 -0.5564
  815MOL0     H 9972   8.891   9.747   8.988  1.5674  3.1951 -0.8763
  815MOL0     H 9973   8.979   9.697   9.136  0.0733  1.7164  2.7520
  815MOL0     H 9974   8.887   9.978   9.078 -1.4341  0.1701  1.9367
  815MOL0     H 9975   8.980   9.934   9.217  1.1378 -0.4417 -0.3979
  815MOL0     H 9976   9.045  10.140   9.023 -0.0933 -1.2399  0.9893
  815MOL0     H 9977   9.280  10.182   8.751  0.8381  0.7745  0.3428
  815MOL0     H 9978   9.246  10.269   8.900 -4.0463 -0.4773 -1.2311
  815MOL0     H 9979   9.470  10.204   8.974 -0.5612 -1.1643  0.4008
  815MOL0     H 9980   9.491  10.086   8.848 -1.5902 -1.4891  1.2096
  815MOL0     H 9981   9.475  10.395   8.797  1.6590  0.9616 -0.1064
  815MOL0     H 9982   9.482  10.274   8.670  0.3472  1.2484 -0.1878
  815MOL0     H 9983   9.695  10.271   8.901  3.4919 -1.6359 -1.9252
  815MOL0     H 9984   9.705  10.370   8.751 -0.1157 -0.8665 -1.0099
  815MOL0     H 9985   9.918  10.330   8.681 -1.0990 -0.1458  1.1085
  815MOL0     H 9986  10.150  10.305   8.753 -0.8963  0.3920 -2.1355
  815MOL0     H 9987  10.536  10.089   8.992  0.8354  1.5037 -1.1302
  815MOL0     H 9988  10.761   9.997   8.936  0.1791  2.8141  0.7443
  815MOL0     H 9989  10.934  10.035   8.709 -2.6064  0.0280  0.9156
  815MOL0     H 9990  10.982   9.913   8.832  1.6396  1.1314 -0.2188
  815MOL0     H 9991  10.998   9.899   8.529 -0.4421 -1.5343  0.1297
  815MOL0     H 9992  11.136   9.938   8.621 -1.0324 -0.4372  0.5348
  815MOL0     H 9993  10.997   9.675   8.700  1.3358 -1.1687  2.0148
  815MOL0     H 9994  11.102   9.683   8.563 -0.4322 -1.7184  0.7613
  815MOL0     H 9995  11.166   9.752   8.850 -0.0184 -0.9465  0.5346
  815MOL0     H 9996  11.270   9.809   8.719 -0.3313 -1.4556 -0.9681
  815MOL0     H 9997  11.290   9.587   8.637 -0.1577  0.9883 -0.1731
  815MOL0     H 9998  11.196   9.536   8.789  1.8026  0.5043  4.0432
  815MOL0     H 9999  11.458   9.686   8.817 -0.6616 -0.2452 -0.9143
  815MOL0     H10000  11.358   9.616   8.939 -1.5205  1.5755 -1.0232
  815MOL0     H10001  11.527   9.454   8.740 -1.7259 -0.0780 -0.6427
  815MOL0     H10002  11.406   9.373   8.818  1.3750 -0.5765 -2.0898
  815MOL0     H10003  11.503   9.434   9.060  1.1336 -2.2289  0.5032
  815MOL0     H10004  11.617   9.345   8.958  2.0623  0.6883 -0.3246
  815MOL0     H10005  10.599   9.922   8.537  0.0443  2.1346 -0.1168
  815MOL0     H10006  10.389  10.052   8.589 -1.2142 -1.1369  0.0825
  815MOL0     H10007  10.049   9.928   8.927  0.2027 -0.1629 -0.0291
  815MOL0     H10008   9.802   9.958   8.860  1.2283  0.3476  1.5735
  815MOL0     H10009   7.929   9.613   9.489  1.2239  1.9946  0.1949
  815MOL0     H10010   7.694   9.699   9.438 -3.6273  1.6276 -2.5812
  815MOL0     H10011   7.346   9.851   9.317 -1.2016 -0.8226 -2.5036
  815MOL0     H10012   7.165   9.924   9.268  0.5727  0.0734  2.2617
  815MOL0     H10013   6.998   9.951   9.103 -2.1379 -0.6626 -1.2939
  815MOL0     H10014   6.923  10.066   9.029 -1.8974 -1.5234  1.2307
  815MOL0     H10015   6.938  10.229   9.225  0.6566 -0.8277 -1.6525
  815MOL0     H10016   6.965  10.088   9.325  0.8229 -0.1315 -0.3192
  815MOL0     H10017   6.745  10.006   9.205 -1.2693  1.0650 -2.7607
  815MOL0     H10018   6.726  10.183   9.152 -1.1962  2.2339  2.2043
  815MOL0     H10019   6.725  10.073   9.434 -1.3233 -1.0682 -0.4456
  815MOL0     H10020   6.743  10.242   9.391 -2.0863  1.1604  1.3971
  815MOL0     H10021   6.330  10.129   9.331  0.1157  2.4553 -1.1037
  815MOL0     H10022   7.333  10.280   9.092  3.3783 -0.0746 -1.5582
  815MOL0     H10023   7.610  10.304   9.261 -1.4078  1.0149 -0.4731
  815MOL0     H10024   7.678  10.212   9.124 -0.0347  1.0187 -0.1197
  815MOL0     H10025   7.553  10.338   9.109 -1.0345  0.4693  0.4368
  816MOL0     O10026  10.186   2.089  10.199 -0.3913  0.9035 -0.0872
  816MOL0     C10027  10.117   2.003  10.146 -0.7799  0.1457  0.0090
  816MOL0     O10028  10.169   1.889  10.081  0.6679 -0.5289  0.0757
  816MOL0     C10029  10.305   1.871  10.078 -0.0501 -0.2137  0.7761
  816MOL0     C10030  10.392   1.953   9.999  1.0078  0.1358  0.3855
  816MOL0     C10031  10.532   1.938  10.009  0.4869  0.1027  0.6489
  816MOL0     C10032  10.593   1.846  10.100  0.0432 -0.6438  1.3070
  816MOL0     O10033  10.725   1.824  10.099 -0.3963  0.7938  0.3211
  816MOL0     C10034  10.791   1.815  10.221  0.0052 -0.0579 -0.0181
  816MOL0     C10035  10.831   1.951  10.280  0.0795 -0.2663 -0.0598
  816MOL0     C10036  10.945   2.021  10.197 -0.3642 -0.4563 -0.2332
  816MOL0     C10037  11.072   1.944  10.212  1.0450  0.6558  0.3689
  816MOL0     C10038  11.192   2.037  10.196  0.8862 -1.3762 -0.8238
  816MOL0     C10039  11.223   2.130  10.299 -1.5923  0.0570  0.0552
  816MOL0     C10040  11.311   2.242  10.244 -0.2258 -0.2800  0.1059
  816MOL0     C10041  11.355   2.344  10.355 -0.4133 -0.2805  0.4384
  816MOL0     N10042  11.463   2.432  10.296  0.3086  0.5378 -0.2505
  816MOL0     C10043  11.571   2.392  10.235  0.2395  0.3921  0.0200
  816MOL0     C10044  11.639   2.498  10.206 -0.2241 -0.4782  0.7586
  816MOL0     C10045  11.770   2.491  10.156  0.1795  0.4046 -0.0169
  816MOL0     C10046  11.877   2.484  10.270 -0.0101  0.0458  0.8626
  816MOL0     C10047  12.009   2.420  10.212  0.1146 -0.2255 -0.1759
  816MOL0     C10048  12.135   2.448  10.296 -1.1971 -0.0471 -0.6651
  816MOL0     O10049  12.250   2.400  10.223 -0.3310  0.5598  0.1970
  816MOL0     C10050  12.370   2.409  10.288  1.1028 -0.2598  0.7531
  816MOL0     C10051  12.487   2.384  10.213 -0.0788  0.6819  0.1019
  816MOL0     C10052  12.612   2.395  10.263 -0.2909 -0.3287  0.4972
  816MOL0     C10053  12.630   2.429  10.392 -0.3422 -0.0142 -1.0772
  816MOL0     C10054  12.762   2.424  10.460  0.2593  0.5714  0.8337
  816MOL0     O10055  12.866   2.487  10.385  0.1842 -0.0996 -0.0933
  816MOL0     C10056  12.989   2.451  10.430 -0.2204  0.1975  0.3080
  816MOL0     C10057  13.069   2.342  10.387  0.1584 -0.1627 -0.7498
  816MOL0     C10058  13.205   2.331  10.432 -0.8321 -0.5183  0.8078
  816MOL0     C10059  13.268   2.423  10.521  0.4415 -0.1941  0.3748
  816MOL0     O10060  13.404   2.428  10.557  0.1642 -0.2531 -0.0603
  816MOL0     C10061  13.493   2.369  10.457  0.3969 -0.5563 -0.5648
  816MOL0     C10062  13.625   2.448  10.462  0.6078  0.0091 -0.0707
  816MOL0     C10063  13.718   2.424  10.587  0.6671 -0.5190 -0.2452
  816MOL0     C10064  13.661   2.384  10.719  0.2194 -0.8165 -0.1932
  816MOL0     C10065  13.768   2.389  10.835  0.1227 -0.5581  0.5053
  816MOL0     C10066  13.726   2.296  10.954  0.3966  0.7238 -0.0893
  816MOL0     C10067  13.811   2.330  11.076  0.7270 -0.3117 -0.0984
  816MOL0     C10068  13.777   2.247  11.200 -0.3220 -0.4711 -0.2611
  816MOL0    Cl10069  13.758   2.069  11.159 -0.4173  0.1702 -0.1012
  816MOL0     C10070  13.175   2.521  10.565 -0.8180 -0.4633 -0.2704
  816MOL0     C10071  13.043   2.540  10.522  0.7719 -0.8601  0.1322
  816MOL0     O10072  12.776   2.355  10.564  0.8068  0.0181 -0.3565
  816MOL0     C10073  12.518   2.434  10.479  0.2029 -0.4581  0.2566
  816MOL0     C10074  12.391   2.421  10.427  0.0144 -0.0057  0.2366
  816MOL0     N10075  11.572   2.606  10.250  0.0137  0.7771  0.8227
  816MOL0     N10076  11.462   2.563  10.310 -0.0497 -0.1522 -0.0641
  816MOL0     C10077  10.508   1.763  10.170  0.4398 -0.3057  0.5957
  816MOL0     C10078  10.363   1.781  10.161 -0.0623  0.4690  0.1087
  816MOL0     C10079   9.974   2.014  10.147 -0.0513 -0.5219  0.4775
  816MOL0     C10080   9.895   1.908  10.103  0.1481 -0.3637  0.1658
  816MOL0     C10081   9.753   1.930  10.091 -0.6073  0.8618 -0.6321
  816MOL0     C10082   9.689   2.044  10.116 -0.1444  0.3295 -0.4462
  816MOL0     O10083   9.551   2.045  10.096 -0.5967 -0.2859 -0.5238
  816MOL0     C10084   9.473   2.140  10.166 -0.0950 -0.4700  0.2077
  816MOL0     C10085   9.332   2.148  10.118  0.4982  0.3189 -0.0022
  816MOL0     C10086   9.237   2.033  10.155  0.2920 -0.0342 -0.3746
  816MOL0     C10087   9.139   2.069  10.258 -0.3676  0.1757 -0.5724
  816MOL0     C10088   9.064   1.952  10.317 -0.3400 -0.6094 -0.1564
  816MOL0     C10089   9.001   1.854  10.353  1.0653  0.3607  0.1044
  816MOL0     C10090   9.761   2.145  10.173  0.2880  0.1524 -0.1267
  816MOL0     C10091   9.900   2.140  10.185  0.1566  0.6555  0.4660
  816MOL0     C10092   9.974   2.257  10.235  0.1864  0.1851 -0.8621
  816MOL0     H10093  10.341   2.005   9.918  0.2964 -2.2042 -0.7775
  816MOL0     H10094  10.599   1.993   9.944 -1.1552 -0.1037 -1.3363
  816MOL0     H10095  10.731   1.768  10.299 -2.4637  1.8924 -0.5893
  816MOL0     H10096  10.880   1.752  10.215  1.3345  1.5376  1.4956
  816MOL0     H10097  10.868   1.934  10.381  2.1274  2.4024 -0.2588
  816MOL0     H10098  10.754   2.028  10.282 -1.1500 -1.4495 -0.2760
  816MOL0     H10099  10.953   2.124  10.233 -0.3577  0.1378 -1.8776
  816MOL0     H10100  10.917   2.032  10.092 -2.7651  0.5876  0.4362
  816MOL0     H10101  11.082   1.885  10.304  0.4395 -0.5255 -0.3026
  816MOL0     H10102  11.069   1.868  10.133  0.6692 -0.4227  1.4005
  816MOL0     H10103  11.275   1.967  10.185 -0.7932 -3.6443  0.1650
  816MOL0     H10104  11.181   2.088  10.100  0.0004  0.9407  0.4321
  816MOL0     H10105  11.137   2.176  10.347 -2.1221  1.0945 -1.8329
  816MOL0     H10106  11.277   2.068  10.372 -0.2830 -1.0424 -1.7640
  816MOL0     H10107  11.253   2.288  10.164 -1.6122 -2.3009 -0.1139
  816MOL0     H10108  11.399   2.196  10.197  1.8796  2.7096  0.8180
  816MOL0     H10109  11.275   2.410  10.390  0.7866  0.5274  1.7714
  816MOL0     H10110  11.391   2.288  10.442 -0.8663 -1.2075  0.0442
  816MOL0     H10111  11.601   2.294  10.200 -1.5133 -0.4799  0.8193
  816MOL0     H10112  11.789   2.416  10.079 -1.3450  1.5231 -1.5462
  816MOL0     H10113  11.776   2.589  10.108  0.3051  0.9546  1.0744
  816MOL0     H10114  11.904   2.579  10.316  2.7362 -0.4320  0.4296
  816MOL0     H10115  11.845   2.427  10.358  1.1263  1.3266  2.1523
  816MOL0     H10116  12.019   2.463  10.112  0.7418 -0.1218 -0.0736
  816MOL0     H10117  11.979   2.316  10.194 -1.0796  0.2836 -1.3338
  816MOL0     H10118  12.126   2.417  10.401  1.3024  2.7673  0.5559
  816MOL0     H10119  12.149   2.557  10.297 -0.8471 -0.0922 -0.7086
  816MOL0     H10120  12.467   2.362  10.108 -1.2117 -0.6055  0.5745
  816MOL0     H10121  12.695   2.373  10.196  0.5239  0.0936  1.3347
  816MOL0     H10122  13.017   2.267  10.329 -2.3023  0.8741 -0.0219
  816MOL0     H10123  13.271   2.259  10.386  0.0676  1.6579 -1.5457
  816MOL0     H10124  13.529   2.268  10.479  4.8000  0.7238 -0.8533
  816MOL0     H10125  13.455   2.385  10.356  1.0468  0.4349 -0.6668
  816MOL0     H10126  13.686   2.420  10.375  2.2046 -0.1336  1.0547
  816MOL0     H10127  13.605   2.556  10.466 -1.5974 -0.1771 -2.6982
  816MOL0     H10128  13.798   2.353  10.562  2.0157  0.7692  0.3065
  816MOL0     H10129  13.775   2.516  10.601 -1.3817  0.5331  1.9683
  816MOL0     H10130  13.609   2.288  10.711  0.0089 -0.7820  0.6292
  816MOL0     H10131  13.593   2.464  10.751  0.9322 -0.3880  0.3018
  816MOL0     H10132  13.785   2.495  10.855  0.4436  0.8340 -5.3470
  816MOL0     H10133  13.866   2.364  10.793  0.1305  0.5384 -0.1754
  816MOL0     H10134  13.620   2.316  10.976  0.0122  2.6968 -3.1248
  816MOL0     H10135  13.731   2.190  10.927 -3.8635 -0.1102  1.5779
  816MOL0     H10136  13.804   2.436  11.100  3.2081  0.8062 -3.5233
  816MOL0     H10137  13.915   2.321  11.045  1.0760  2.9572 -0.2342
  816MOL0     H10138  13.852   2.260  11.278 -0.5569  2.1132 -0.3673
  816MOL0     H10139  13.677   2.278  11.234  0.4673  1.1659  0.6965
  816MOL0     H10140  13.209   2.605  10.625 -0.2815 -1.9966  1.6728
  816MOL0     H10141  12.977   2.621  10.553  0.0775 -1.2491 -0.2980
  816MOL0     H10142  12.521   2.459  10.585  1.3952  2.4199 -0.3762
  816MOL0     H10143  12.318   2.429  10.507 -0.0637 -2.1587  0.4539
  816MOL0     H10144  10.530   1.679  10.236  1.6762  0.5246  1.2804
  816MOL0     H10145  10.293   1.734  10.228 -0.3259  3.0373  1.7834
  816MOL0     H10146   9.934   1.812  10.073  0.0368 -1.6515  3.6713
  816MOL0     H10147   9.690   1.845  10.067  0.0651  0.3686 -0.6911
  816MOL0     H10148   9.510   2.242  10.148  2.0622 -1.1717  0.4020
  816MOL0     H10149   9.474   2.128  10.274  1.1696 -0.5242  0.2061
  816MOL0     H10150   9.348   2.156  10.010  4.3082  0.1656  0.4155
  816MOL0     H10151   9.293   2.246  10.146  4.1904  1.7470  0.6471
  816MOL0     H10152   9.306   1.955  10.188  3.7880  2.6700 -0.6527
  816MOL0     H10153   9.179   2.008  10.065  2.5407 -1.0544 -1.6215
  816MOL0     H10154   9.184   2.112  10.347 -0.8374 -1.7638  0.6653
  816MOL0     H10155   9.072   2.145  10.216  0.6759  1.1356 -0.5416
  816MOL0     H10156   8.949   1.766  10.385 -1.5382  1.5971 -0.4852
  816MOL0     H10157   9.725   2.244  10.196 -0.5439 -0.3746  0.9385
  816MOL0     H10158  10.022   2.241  10.332 -3.1586 -1.9012  0.6520
  816MOL0     H10159  10.040   2.298  10.158 -1.2327 -1.6289 -3.1945
  816MOL0     H10160   9.905   2.340  10.254  1.4224  0.7327  1.6696
  817MOL0     O10161   7.201   1.341   6.797 -0.9215 -0.1658 -0.0484
  817MOL0     C10162   7.206   1.219   6.805 -0.1782  0.0501  0.2642
  817MOL0     O10163   7.088   1.144   6.817 -0.5002  0.2592 -0.4497
  817MOL0     C10164   6.982   1.190   6.742 -0.6159  0.3920  0.5613
  817MOL0     C10165   6.979   1.189   6.605 -0.0201  0.5569 -0.4690
  817MOL0     C10166   6.870   1.230   6.524 -0.6656 -0.5959 -0.0275
  817MOL0     C10167   6.752   1.273   6.586  0.1649 -0.3159 -0.0901
  817MOL0     O10168   6.632   1.299   6.525 -0.6926  0.1339  0.0118
  817MOL0     C10169   6.619   1.282   6.383 -0.5374  0.3370 -0.6870
  817MOL0     C10170   6.472   1.313   6.343  0.8441 -0.2765 -0.4516
  817MOL0     C10171   6.426   1.241   6.215 -0.9065  0.0984  1.1601
  817MOL0     C10172   6.429   1.084   6.227  0.7637  0.0952 -0.1061
  817MOL0     C10173   6.349   1.011   6.116 -0.0587 -0.4291  1.6908
  817MOL0     C10174   6.395   1.054   5.980 -0.1020  0.4597  0.1250
  817MOL0     C10175   6.312   0.986   5.870 -0.2406  0.2246 -0.1099
  817MOL0     C10176   6.362   1.034   5.734  0.6490 -0.2033  0.3106
  817MOL0     N10177   6.295   0.967   5.623 -0.6932 -0.0361 -0.1134
  817MOL0     C10178   6.160   0.950   5.616  0.3627 -0.5615  1.1688
  817MOL0     C10179   6.153   0.865   5.507 -1.0308  0.2036  0.4057
  817MOL0     C10180   6.032   0.814   5.437 -0.0800 -0.2276 -0.8852
  817MOL0     C10181   5.950   0.731   5.544  0.0751 -0.2729  0.0771
  817MOL0     C10182   6.018   0.613   5.614 -0.1510  0.7319 -0.1581
  817MOL0     C10183   6.015   0.482   5.539 -0.1605  0.3070  0.5227
  817MOL0     O10184   6.099   0.383   5.603  0.4672  0.3550  0.2955
  817MOL0     C10185   6.231   0.382   5.562 -0.6187 -0.5048 -0.3750
  817MOL0     C10186   6.294   0.261   5.596 -0.0671 -0.0704  1.1098
  817MOL0     C10187   6.428   0.238   5.574  0.3252  0.8561  0.9299
  817MOL0     C10188   6.502   0.330   5.510  0.1346 -0.4167  0.4067
  817MOL0     C10189   6.637   0.304   5.464 -0.4855  0.5343  0.1192
  817MOL0     O10190   6.690   0.182   5.490 -0.2115 -0.1843 -0.5594
  817MOL0     C10191   6.825   0.159   5.470  0.3381  0.7513 -0.9059
  817MOL0     C10192   6.924   0.259   5.483  0.0776 -0.2817  0.2083
  817MOL0     C10193   7.060   0.226   5.461  0.3452 -0.1512  0.1018
  817MOL0     C10194   7.107   0.091   5.456 -0.4661  0.1603  0.9184
  817MOL0     O10195   7.239   0.051   5.436 -0.5506  0.2309 -0.8139
  817MOL0     C10196   7.340   0.158   5.464  0.1082  0.3745 -0.5956
  817MOL0     C10197   7.472   0.100   5.427 -0.7415  0.7896  0.5480
  817MOL0     C10198   7.488   0.082   5.278  0.3930 -0.2835  0.2735
  817MOL0     C10199   7.601  -0.023   5.247 -0.5974  0.1637 -0.1524
  817MOL0     C10200   7.637  -0.034   5.101  0.8838 -0.5734  0.1338
  817MOL0     C10201   7.761  -0.125   5.067 -0.1822  0.0366  0.2412
  817MOL0     C10202   7.777  -0.163   4.916 -1.4476 -0.0959 -0.5414
  817MOL0     C10203   7.904  -0.252   4.896  0.3207 -0.3466  0.6593
  817MOL0    Cl10204   7.919  -0.325   4.738  0.5620 -0.7129  0.1558
  817MOL0     C10205   7.004  -0.003   5.442  0.1144 -0.4476  0.6341
  817MOL0     C10206   6.867   0.027   5.451  0.3711  0.5552 -0.1182
  817MOL0     O10207   6.695   0.393   5.400  0.3512  0.1225  0.3057
  817MOL0     C10208   6.439   0.460   5.485 -0.9444  1.2699 -0.8372
  817MOL0     C10209   6.308   0.485   5.510 -0.1483  0.3925 -0.2513
  817MOL0     N10210   6.279   0.824   5.460 -0.6257  0.0285  0.4573
  817MOL0     N10211   6.368   0.890   5.537 -0.3186  0.5485  0.2489
  817MOL0     C10212   6.751   1.279   6.727 -0.0664 -0.0552 -0.2092
  817MOL0     C10213   6.857   1.224   6.802  0.4263 -0.1117 -0.1369
  817MOL0     C10214   7.339   1.162   6.842 -0.4418 -0.5591 -0.1486
  817MOL0     C10215   7.334   1.074   6.949 -0.1607  0.2522  0.9201
  817MOL0     C10216   7.449   0.998   6.983 -0.4195 -0.2592 -0.7321
  817MOL0     C10217   7.559   1.002   6.903 -0.1148 -0.3652 -0.0799
  817MOL0     O10218   7.663   0.909   6.939  1.4611  0.6122  0.1272
  817MOL0     C10219   7.754   0.866   6.841 -0.1858  0.1950 -0.2506
  817MOL0     C10220   7.848   0.765   6.904  0.2897  0.3231 -0.7867
  817MOL0     C10221   7.948   0.836   6.994  0.8649 -0.1117 -0.0922
  817MOL0     C10222   8.076   0.748   7.026  0.3480 -0.2506 -0.5931
  817MOL0     C10223   8.160   0.692   6.933  0.5030 -0.3722  0.8179
  817MOL0     C10224   8.223   0.631   6.852 -0.3620 -0.1683  0.2237
  817MOL0     C10225   7.562   1.085   6.789 -0.1800 -0.6110  0.8048
  817MOL0     C10226   7.453   1.174   6.760 -0.2650  0.2313  0.2943
  817MOL0     C10227   7.454   1.261   6.636 -0.0109 -0.0558  0.3572
  817MOL0     H10228   7.068   1.154   6.553 -1.6574 -2.7484 -1.3200
  817MOL0     H10229   6.859   1.210   6.418  1.1474 -1.3472 -0.1115
  817MOL0     H10230   6.684   1.347   6.323  0.3317  1.5419  1.4739
  817MOL0     H10231   6.647   1.182   6.348  3.4057  1.3326 -0.8997
  817MOL0     H10232   6.470   1.421   6.327  2.1726 -0.0172  0.9133
  817MOL0     H10233   6.400   1.290   6.422 -1.1602  1.6006 -1.6137
  817MOL0     H10234   6.489   1.266   6.129  1.2344 -0.5525  2.4594
  817MOL0     H10235   6.321   1.263   6.194 -1.3408 -2.3771  0.3540
  817MOL0     H10236   6.529   1.039   6.228 -0.0595 -1.8308  0.6735
  817MOL0     H10237   6.385   1.065   6.326 -0.5677 -2.5820 -1.1181
  817MOL0     H10238   6.347   0.903   6.133 -2.8925 -0.2486  3.1847
  817MOL0     H10239   6.244   1.040   6.126  0.3198  1.7755  0.0624
  817MOL0     H10240   6.372   1.158   5.958  2.2733  1.2126  0.8672
  817MOL0     H10241   6.503   1.036   5.969 -0.6680 -2.8452 -1.4557
  817MOL0     H10242   6.205   0.994   5.891  0.1468 -1.7323  3.4662
  817MOL0     H10243   6.331   0.878   5.870  1.7379  0.5223  1.3894
  817MOL0     H10244   6.350   1.142   5.720  4.8026  0.2536 -1.4621
  817MOL0     H10245   6.471   1.019   5.733  0.6069 -0.6146  1.3396
  817MOL0     H10246   6.077   0.978   5.680 -0.8256 -4.6932  1.7183
  817MOL0     H10247   5.965   0.893   5.402 -1.2006 -1.2267 -1.0613
  817MOL0     H10248   6.072   0.762   5.349  0.2054  1.4456 -1.7764
  817MOL0     H10249   5.912   0.806   5.615 -1.3665 -0.2799 -0.6464
  817MOL0     H10250   5.862   0.698   5.489 -0.0057  0.6691 -0.3806
  817MOL0     H10251   5.981   0.612   5.717 -0.7086 -0.9461 -0.3506
  817MOL0     H10252   6.123   0.642   5.619  0.1007  0.6807 -3.1852
  817MOL0     H10253   6.054   0.490   5.437  1.1255 -1.1241  0.8742
  817MOL0     H10254   5.915   0.438   5.529  0.4836 -1.1656  0.3997
  817MOL0     H10255   6.235   0.182   5.643 -0.2805 -2.3014 -2.5120
  817MOL0     H10256   6.461   0.136   5.594 -3.1131 -1.5227 -3.5989
  817MOL0     H10257   6.904   0.362   5.513 -1.9706 -0.8338  0.8663
  817MOL0     H10258   7.127   0.310   5.444 -0.8874  0.5576 -1.4994
  817MOL0     H10259   7.324   0.244   5.399  1.7776  0.4807 -0.9255
  817MOL0     H10260   7.333   0.202   5.564 -2.1830 -1.2786  0.0628
  817MOL0     H10261   7.554   0.159   5.468 -1.0080  0.4900  1.5403
  817MOL0     H10262   7.481   0.003   5.478  3.6229  0.1193 -1.0372
  817MOL0     H10263   7.391   0.046   5.243  1.8016 -2.1739 -1.9685
  817MOL0     H10264   7.521   0.173   5.227  1.6536 -0.9365 -0.1106
  817MOL0     H10265   7.564  -0.118   5.287 -1.5402  0.5930  0.0400
  817MOL0     H10266   7.693   0.001   5.301 -0.5581  1.6585 -0.8139
  817MOL0     H10267   7.659   0.066   5.061 -1.3659 -0.2853 -0.5278
  817MOL0     H10268   7.549  -0.065   5.044  0.8642 -0.6032  0.1799
  817MOL0     H10269   7.855  -0.091   5.111  0.3795  0.5714 -1.2887
  817MOL0     H10270   7.752  -0.219   5.122 -0.7535  0.7697  1.4622
  817MOL0     H10271   7.795  -0.080   4.846  2.7695  0.3405  0.7794
  817MOL0     H10272   7.688  -0.217   4.882 -2.6141 -0.4278  2.7082
  817MOL0     H10273   7.995  -0.197   4.918  1.1710 -2.2008  2.0124
  817MOL0     H10274   7.900  -0.334   4.968 -0.9223  0.4340  1.5352
  817MOL0     H10275   7.033  -0.106   5.425 -0.1727 -1.2567  4.1321
  817MOL0     H10276   6.805  -0.061   5.438  1.7810 -0.9205  2.2584
  817MOL0     H10277   6.504   0.539   5.447 -1.3139  1.5985 -0.7912
  817MOL0     H10278   6.279   0.586   5.486  0.0834  0.1117 -1.8115
  817MOL0     H10279   6.664   1.305   6.787  0.9363 -0.3111  1.4076
  817MOL0     H10280   6.847   1.235   6.910 -1.4515  1.1812 -0.4096
  817MOL0     H10281   7.239   1.059   7.000 -1.5869  0.8939 -1.3993
  817MOL0     H10282   7.448   0.929   7.068  0.5823  1.4062  0.6877
  817MOL0     H10283   7.806   0.951   6.796 -0.5039 -0.1669 -1.3343
  817MOL0     H10284   7.697   0.824   6.757 -3.0253  0.5064  1.3967
  817MOL0     H10285   7.905   0.709   6.829 -1.4437 -0.0413 -1.8911
  817MOL0     H10286   7.798   0.696   6.972  0.7095 -1.7126 -2.4482
  817MOL0     H10287   7.904   0.862   7.091  1.4284  0.9367 -0.1081
  817MOL0     H10288   7.974   0.930   6.945  3.0892 -0.7867 -0.3024
  817MOL0     H10289   8.146   0.816   7.075  0.2106  1.4957 -2.6941
  817MOL0     H10290   8.054   0.669   7.099  2.1094 -0.4647 -0.2341
  817MOL0     H10291   8.278   0.571   6.782 -2.7191 -0.2667 -1.6806
  817MOL0     H10292   7.646   1.091   6.721 -2.2297 -1.2808 -1.9857
  817MOL0     H10293   7.368   1.243   6.571 -0.7781  0.4315  1.2235
  817MOL0     H10294   7.447   1.367   6.660 -0.7306  0.0112 -0.1485
  817MOL0     H10295   7.545   1.236   6.580 -0.5281  0.1489 -0.5936
  818MOL0     O10296   8.162   4.116   8.091  0.0300  0.0168 -0.6889
  818MOL0     C10297   8.084   4.025   8.062 -0.5368 -0.1481  0.5108
  818MOL0     O10298   8.109   3.947   7.958 -0.0701 -0.1200  0.4868
  818MOL0     C10299   8.213   3.976   7.879  0.2323 -0.6805  0.1584
  818MOL0     C10300   8.342   3.943   7.901  0.1148 -0.7324 -0.7247
  818MOL0     C10301   8.450   3.995   7.819  1.0458 -0.1298  0.0856
  818MOL0     C10302   8.419   4.061   7.701 -0.8928  0.3714 -0.0097
  818MOL0     O10303   8.524   4.113   7.635 -0.4283  0.0509 -0.1350
  818MOL0     C10304   8.492   4.238   7.572  0.6976 -0.4283 -0.0986
  818MOL0     C10305   8.620   4.292   7.511 -0.7676  0.0045 -0.0177
  818MOL0     C10306   8.608   4.421   7.435  0.8484  0.5553  0.0822
  818MOL0     C10307   8.749   4.480   7.391 -0.3408  0.8744 -0.0779
  818MOL0     C10308   8.800   4.408   7.260  0.8671 -0.0329  0.5161
  818MOL0     C10309   8.947   4.432   7.237 -0.8696 -0.0569 -0.5982
  818MOL0     C10310   8.981   4.588   7.218  0.2828  0.2858 -0.0836
  818MOL0     C10311   9.107   4.614   7.134 -1.2613 -0.6884 -0.3999
  818MOL0     N10312   9.240   4.584   7.205 -0.2332  0.8185 -0.1637
  818MOL0     C10313   9.294   4.649   7.312  1.1831  0.2136 -0.4191
  818MOL0     C10314   9.413   4.593   7.336  0.3930  0.2318 -0.7277
  818MOL0     C10315   9.509   4.655   7.440 -0.1464  0.3696 -0.4138
  818MOL0     C10316   9.659   4.627   7.425  0.2741 -0.7247  0.3399
  818MOL0     C10317   9.722   4.681   7.555 -0.0225  0.5869 -0.7073
  818MOL0     C10318   9.872   4.693   7.536 -0.0635 -0.5001 -0.1357
  818MOL0     O10319   9.900   4.807   7.461  0.6292  1.1447  0.1363
  818MOL0     C10320  10.000   4.886   7.489 -0.2617 -0.6468 -0.2322
  818MOL0     C10321  10.062   4.901   7.614  0.5064 -0.5428  0.1870
  818MOL0     C10322  10.173   4.991   7.628 -0.0671  0.3685  0.2693
  818MOL0     C10323  10.237   5.056   7.525 -0.6146  0.2621  0.7352
  818MOL0     C10324  10.359   5.144   7.544  0.3073  1.1078 -0.0176
  818MOL0     O10325  10.432   5.130   7.657  0.2103  0.4729 -0.4496
  818MOL0     C10326  10.542   5.206   7.685 -0.7878  0.1650 -0.1036
  818MOL0     C10327  10.657   5.145   7.710 -0.9049  0.3780  0.9526
  818MOL0     C10328  10.769   5.227   7.752 -0.2022 -0.4819  0.5022
  818MOL0     C10329  10.760   5.369   7.756  0.3976 -0.1942 -0.9193
  818MOL0     O10330  10.865   5.448   7.792 -0.0065 -0.1400 -0.3519
  818MOL0     C10331  10.995   5.411   7.741  0.2390  1.1738 -0.0967
  818MOL0     C10332  11.101   5.519   7.781  0.1646 -0.4837  0.1224
  818MOL0     C10333  11.099   5.520   7.937  0.5491  0.6517 -0.8777
  818MOL0     C10334  11.209   5.613   7.986  0.2701  1.1169  0.0022
  818MOL0     C10335  11.258   5.606   8.131 -0.1699 -0.8511 -1.0743
  818MOL0     C10336  11.145   5.646   8.221  0.1399 -0.2300  0.0043
  818MOL0     C10337  11.160   5.594   8.368 -0.4995 -0.3866  0.4619
  818MOL0     C10338  11.027   5.550   8.433  0.1729 -0.5586 -0.2713
  818MOL0    Cl10339  11.003   5.375   8.403  0.0574 -0.2411  0.1463
  818MOL0     C10340  10.635   5.424   7.729  0.1936  0.4171 -0.1610
  818MOL0     C10341  10.530   5.345   7.703  0.3166  0.0201 -0.0754
  818MOL0     O10342  10.379   5.223   7.454  0.4979  0.1136 -0.1104
  818MOL0     C10343  10.173   5.038   7.399  0.3345 -0.1636  0.5313
  818MOL0     C10344  10.051   4.966   7.378 -0.6140  0.3329  0.1082
  818MOL0     N10345   9.421   4.476   7.252  0.5758  0.1004 -0.4627
  818MOL0     N10346   9.315   4.469   7.176 -0.2623 -0.2064 -0.8336
  818MOL0     C10347   8.280   4.070   7.660 -0.1551 -0.5373 -0.5607
  818MOL0     C10348   8.179   4.028   7.753  0.3841 -0.8079 -0.1959
  818MOL0     C10349   7.958   4.027   8.143  0.1094  0.2842 -0.4467
  818MOL0     C10350   7.938   4.138   8.225 -0.0406  0.1462 -0.5003
  818MOL0     C10351   7.832   4.150   8.317 -0.6825 -0.5081  0.3649
  818MOL0     C10352   7.732   4.052   8.324  0.3381  0.5628  0.0013
  818MOL0     O10353   7.623   4.052   8.410  0.2985 -0.7195 -0.1972
  818MOL0     C10354   7.577   4.182   8.470  0.1856  0.3364  0.3946
  818MOL0     C10355   7.615   4.177   8.617 -0.5840 -0.4632  0.1908
  818MOL0     C10356   7.536   4.058   8.679 -0.0200  0.1740  1.3477
  818MOL0     C10357   7.532   4.034   8.832 -0.0372  0.4188  0.1277
  818MOL0     C10358   7.670   4.008   8.882 -0.2322  1.8161  0.0534
  818MOL0     C10359   7.787   3.974   8.905 -0.5344 -0.8057 -0.3851
  818MOL0     C10360   7.745   3.941   8.244 -0.1736  0.8763  0.3781
  818MOL0     C10361   7.852   3.932   8.152  0.7471 -0.0420  1.0545
  818MOL0     C10362   7.840   3.798   8.076 -1.0638 -0.0791  0.1118
  818MOL0     H10363   8.353   3.881   7.990 -2.7840 -0.9592 -0.4381
  818MOL0     H10364   8.556   3.975   7.829  1.4563  1.8439  0.0443
  818MOL0     H10365   8.419   4.220   7.492  0.9745 -0.0381 -0.4421
  818MOL0     H10366   8.463   4.310   7.649  2.0843 -0.7592  0.7573
  818MOL0     H10367   8.675   4.224   7.446 -1.7627  2.5082 -3.8662
  818MOL0     H10368   8.679   4.297   7.603 -2.6220 -3.7499  1.6110
  818MOL0     H10369   8.563   4.501   7.493 -0.1626  0.5919 -0.7275
  818MOL0     H10370   8.546   4.399   7.348 -0.2865 -0.4383  1.0917
  818MOL0     H10371   8.748   4.589   7.378 -0.9621  0.7239 -1.4295
  818MOL0     H10372   8.818   4.436   7.463  0.8802 -1.3395 -2.4170
  818MOL0     H10373   8.778   4.301   7.267  0.4141 -0.0024 -0.2861
  818MOL0     H10374   8.749   4.449   7.172  0.2590  1.1348  1.3784
  818MOL0     H10375   9.010   4.403   7.321  1.3093  0.5341 -1.9580
  818MOL0     H10376   8.982   4.377   7.149  2.0279  0.1946  0.3041
  818MOL0     H10377   9.002   4.633   7.315  0.2627  1.6829 -0.7096
  818MOL0     H10378   8.894   4.640   7.179 -0.8564  0.7494  2.8183
  818MOL0     H10379   9.113   4.550   7.045 -0.4964  0.1274 -0.9421
  818MOL0     H10380   9.114   4.719   7.108 -0.8569 -0.3638  0.9238
  818MOL0     H10381   9.254   4.734   7.367  0.2325 -0.5635  0.1222
  818MOL0     H10382   9.497   4.763   7.435 -2.6007  0.3067  1.9066
  818MOL0     H10383   9.479   4.622   7.540 -2.3200 -0.7350 -1.3672
  818MOL0     H10384   9.683   4.523   7.401 -0.7723 -0.7084 -0.8644
  818MOL0     H10385   9.686   4.681   7.333 -3.1874 -0.4604 -0.6651
  818MOL0     H10386   9.697   4.619   7.642  0.3016 -0.0516 -1.0618
  818MOL0     H10387   9.683   4.781   7.579  0.3949  0.2866  1.3907
  818MOL0     H10388   9.917   4.607   7.485 -0.3254 -0.5874 -0.2238
  818MOL0     H10389   9.918   4.698   7.635 -1.6701 -0.7946  0.6619
  818MOL0     H10390  10.024   4.858   7.705 -1.8010 -1.4961 -1.1319
  818MOL0     H10391  10.191   5.011   7.733 -1.8046  2.0809  0.3051
  818MOL0     H10392  10.675   5.040   7.687 -1.4644  0.1426  1.5493
  818MOL0     H10393  10.865   5.177   7.756 -0.0655 -0.5953 -2.3833
  818MOL0     H10394  11.017   5.315   7.788  0.1627  0.3457 -1.6794
  818MOL0     H10395  11.004   5.402   7.632  3.8903  0.7287  0.1044
  818MOL0     H10396  11.196   5.479   7.744  0.2868  0.4148 -0.5701
  818MOL0     H10397  11.083   5.615   7.732 -1.0918 -1.0739 -0.6349
  818MOL0     H10398  11.003   5.554   7.978  0.1147 -1.2125 -0.2445
  818MOL0     H10399  11.106   5.416   7.969 -3.0795  0.8616  1.1330
  818MOL0     H10400  11.167   5.714   7.977  0.8571  1.5940  2.1344
  818MOL0     H10401  11.290   5.603   7.913  0.2293 -0.2875  0.1336
  818MOL0     H10402  11.331   5.686   8.149 -3.3416  1.8984  0.9030
  818MOL0     H10403  11.294   5.505   8.149 -2.3288 -1.6199 -0.7815
  818MOL0     H10404  11.147   5.755   8.222  0.5666 -0.2377  0.5071
  818MOL0     H10405  11.048   5.606   8.191  0.4931 -0.7986 -0.4048
  818MOL0     H10406  11.209   5.671   8.430 -3.2273  1.5421  0.3974
  818MOL0     H10407  11.228   5.510   8.384  0.2027 -0.1295 -1.0273
  818MOL0     H10408  11.033   5.556   8.542 -1.2812  0.3930 -0.2325
  818MOL0     H10409  10.952   5.614   8.387  0.7687  1.2818  1.1907
  818MOL0     H10410  10.634   5.532   7.719 -3.0069  0.3585 -2.0292
  818MOL0     H10411  10.432   5.391   7.692  1.3743  2.1174 -1.2242
  818MOL0     H10412  10.208   5.099   7.316  0.5234 -2.1853 -0.9481
  818MOL0     H10413  10.005   4.978   7.280 -1.1480 -1.4521  0.1102
  818MOL0     H10414   8.245   4.110   7.565 -0.4678  2.4736  0.7365
  818MOL0     H10415   8.075   4.041   7.727 -0.0691  1.3504  2.2132
  818MOL0     H10416   8.010   4.219   8.212  1.1774 -0.9653 -0.9436
  818MOL0     H10417   7.834   4.229   8.391  1.4341  0.8857 -1.0665
  818MOL0     H10418   7.468   4.187   8.467  0.2403  1.4932 -0.6205
  818MOL0     H10419   7.603   4.274   8.418 -2.4398  1.2368  0.5412
  818MOL0     H10420   7.594   4.270   8.671  0.2031  0.6242 -1.3089
  818MOL0     H10421   7.720   4.153   8.637 -1.1580 -2.2346  1.4101
  818MOL0     H10422   7.577   3.964   8.642  1.0615  0.9929  0.3702
  818MOL0     H10423   7.433   4.071   8.644  0.2154  2.6278  1.3494
  818MOL0     H10424   7.484   4.122   8.875 -2.0262  0.4631 -2.0096
  818MOL0     H10425   7.469   3.954   8.871  0.7505 -1.1497 -1.6341
  818MOL0     H10426   7.891   3.948   8.909 -0.6719 -1.2466  0.8817
  818MOL0     H10427   7.668   3.865   8.252  0.0992  0.6966  1.4379
  818MOL0     H10428   7.848   3.714   8.146 -0.5439 -0.0097  0.1391
  818MOL0     H10429   7.739   3.786   8.036 -1.0753 -0.4064  0.2339
  818MOL0     H10430   7.910   3.779   7.995 -1.9213 -2.4057 -0.1744
  819MOL0     O10431   8.697   4.207   4.335 -0.2077 -0.0624 -0.0725
  819MOL0     C10432   8.672   4.275   4.238 -0.0234  0.3727 -0.1471
  819MOL0     O10433   8.772   4.343   4.176  0.3820  0.3003  0.2339
  819MOL0     C10434   8.898   4.353   4.235  0.3924  0.1357 -0.4546
  819MOL0     C10435   8.997   4.264   4.185  0.8108 -0.2174  0.2700
  819MOL0     C10436   9.117   4.282   4.244  0.9032 -0.1212 -0.3283
  819MOL0     C10437   9.145   4.392   4.329 -1.0309 -0.0927  0.0827
  819MOL0     O10438   9.275   4.400   4.371 -0.6642  0.2680  0.1908
  819MOL0     C10439   9.312   4.460   4.495  0.3561 -0.7067 -0.1990
  819MOL0     C10440   9.421   4.379   4.558 -0.6174 -0.3972  0.1601
  819MOL0     C10441   9.486   4.448   4.681  0.3530  0.0302 -0.0726
  819MOL0     C10442   9.638   4.432   4.694 -0.6220 -0.1550  0.0575
  819MOL0     C10443   9.716   4.564   4.650 -0.8056 -0.1825  0.6450
  819MOL0     C10444   9.860   4.529   4.593  0.0710  0.0511  0.5702
  819MOL0     C10445   9.946   4.655   4.604  0.3230 -0.3258 -0.5143
  819MOL0     C10446  10.076   4.648   4.535 -0.0437 -0.2327 -0.0779
  819MOL0     N10447  10.167   4.541   4.577 -0.8701  0.1235  0.2031
  819MOL0     C10448  10.173   4.490   4.706 -0.7133 -0.3229 -0.2685
  819MOL0     C10449  10.280   4.412   4.696  0.2667 -0.0694  0.0284
  819MOL0     C10450  10.340   4.338   4.812  0.7877 -0.7646  0.6112
  819MOL0     C10451  10.471   4.402   4.849  0.2425  0.3184 -0.3373
  819MOL0     C10452  10.503   4.373   5.003  0.1337  0.1020  0.6834
  819MOL0     C10453  10.649   4.379   5.047 -0.0536  0.0030  0.4026
  819MOL0     O10454  10.679   4.300   5.161 -0.4062 -0.5820  0.2312
  819MOL0     C10455  10.800   4.231   5.171  0.0266 -0.5331  1.0097
  819MOL0     C10456  10.804   4.143   5.281  0.1792 -0.2290 -0.4340
  819MOL0     C10457  10.927   4.070   5.301 -0.5350  0.5872 -0.0695
  819MOL0     C10458  11.032   4.069   5.216  0.1944 -0.5546 -0.3000
  819MOL0     C10459  11.153   4.000   5.249 -0.6115  0.2013 -0.2606
  819MOL0     O10460  11.238   3.977   5.152  0.2860 -0.0402  0.0792
  819MOL0     C10461  11.361   3.938   5.189  0.2118  0.1036 -1.0047
  819MOL0     C10462  11.383   3.809   5.237  0.4351  0.1815 -0.4469
  819MOL0     C10463  11.510   3.764   5.272  0.0172  0.0427  0.3612
  819MOL0     C10464  11.621   3.849   5.251 -0.1792  0.0744 -0.2354
  819MOL0     O10465  11.741   3.789   5.262 -1.1941  0.0461  0.9582
  819MOL0     C10466  11.860   3.860   5.256  0.1801  0.0931 -0.6561
  819MOL0     C10467  11.975   3.778   5.301  0.2730 -0.8422  0.2155
  819MOL0     C10468  11.958   3.737   5.455  0.3045  0.1641  0.2075
  819MOL0     C10469  12.095   3.682   5.514  0.0672 -0.1035 -0.4145
  819MOL0     C10470  12.214   3.788   5.520  0.4794  0.0365 -0.0075
  819MOL0     C10471  12.331   3.694   5.520  0.0688  0.3922  0.7639
  819MOL0     C10472  12.438   3.749   5.607 -0.1591  0.9275 -1.0084
  819MOL0     C10473  12.571   3.672   5.605 -0.1447  0.0066  0.1396
  819MOL0    Cl10474  12.542   3.499   5.647 -0.5627  0.4586 -0.1402
  819MOL0     C10475  11.599   3.985   5.218  0.2057  0.4548  0.8134
  819MOL0     C10476  11.466   4.032   5.187  0.4156  0.0634  0.0519
  819MOL0     O10477  11.176   3.971   5.363  0.2510  0.2382 -0.5266
  819MOL0     C10478  11.025   4.158   5.104 -0.0457  1.0740 -0.4555
  819MOL0     C10479  10.904   4.237   5.081 -0.1470  0.6525  0.1686
  819MOL0     N10480  10.322   4.397   4.568 -0.4796 -0.8124  0.0125
  819MOL0     N10481  10.262   4.478   4.496 -0.7017 -0.1950 -1.0992
  819MOL0     C10482   9.045   4.468   4.378 -1.0088 -1.0406  0.4030
  819MOL0     C10483   8.922   4.444   4.337 -0.7502 -0.5750  0.3642
  819MOL0     C10484   8.533   4.299   4.180  0.1208 -0.4881  0.0870
  819MOL0     C10485   8.512   4.382   4.067 -0.4924  0.3085  0.2691
  819MOL0     C10486   8.393   4.411   4.011  0.7198 -0.2023 -0.4353
  819MOL0     C10487   8.281   4.359   4.067 -0.4729 -0.0012 -0.3659
  819MOL0     O10488   8.156   4.396   4.020  0.0987  0.0875  0.4219
  819MOL0     C10489   8.116   4.531   4.067 -0.0424  0.1697 -0.1271
  819MOL0     C10490   7.979   4.558   4.006  0.2000 -0.0827 -0.4726
  819MOL0     C10491   7.860   4.470   4.047 -0.4542 -0.4534  0.0993
  819MOL0     C10492   7.825   4.359   3.960  0.1934 -0.3023  0.6195
  819MOL0     C10493   7.728   4.266   4.015 -0.2792  0.2744  0.4464
  819MOL0     C10494   7.651   4.176   4.042 -0.0841  0.1778  0.2604
  819MOL0     C10495   8.286   4.279   4.182 -0.4259  0.3712 -0.0406
  819MOL0     C10496   8.413   4.248   4.235 -0.4883  0.7917 -0.6308
  819MOL0     C10497   8.403   4.172   4.358  0.4708  0.2962 -0.4621
  819MOL0     H10498   8.983   4.204   4.096  1.1823  0.5581 -0.3204
  819MOL0     H10499   9.200   4.219   4.212 -0.4034 -2.4917  0.7240
  819MOL0     H10500   9.348   4.560   4.469 -1.4005 -0.3812 -1.6757
  819MOL0     H10501   9.225   4.468   4.561 -0.4958 -1.7034 -1.1629
  819MOL0     H10502   9.500   4.365   4.484 -1.1305 -0.5747 -0.3568
  819MOL0     H10503   9.380   4.286   4.598  0.6317 -1.1031 -0.1397
  819MOL0     H10504   9.442   4.398   4.768  0.0041 -0.1598 -0.3552
  819MOL0     H10505   9.460   4.554   4.680  1.1370  0.2463 -2.1545
  819MOL0     H10506   9.680   4.407   4.791  3.0735  1.9125 -0.7910
  819MOL0     H10507   9.676   4.361   4.620  0.2299  0.1353  0.1999
  819MOL0     H10508   9.671   4.623   4.570 -1.1812 -0.3681  0.7188
  819MOL0     H10509   9.723   4.631   4.736  0.7951 -0.7322  0.9783
  819MOL0     H10510   9.901   4.457   4.664  2.6131  0.3502 -0.5133
  819MOL0     H10511   9.850   4.486   4.493  1.6810  0.6486  0.1292
  819MOL0     H10512   9.958   4.677   4.710 -1.8873 -0.8709 -0.0976
  819MOL0     H10513   9.889   4.736   4.559  1.5572 -0.1025 -1.7301
  819MOL0     H10514  10.057   4.635   4.428 -2.0095 -3.6695  0.5387
  819MOL0     H10515  10.118   4.748   4.549  0.2590 -0.4221  0.4053
  819MOL0     H10516  10.126   4.523   4.798  0.0777  2.6954 -0.8251
  819MOL0     H10517  10.273   4.355   4.897  0.5923  1.8734  0.0213
  819MOL0     H10518  10.340   4.229   4.803  1.7453 -0.7676  0.5443
  819MOL0     H10519  10.550   4.360   4.786 -0.4571  0.1229 -1.0958
  819MOL0     H10520  10.476   4.509   4.826  3.8005  0.9938  2.6673
  819MOL0     H10521  10.466   4.271   5.016 -1.8898  0.8443  1.0621
  819MOL0     H10522  10.440   4.444   5.057 -0.8783  0.3605 -0.7646
  819MOL0     H10523  10.677   4.483   5.067  0.2231 -0.0664  0.3837
  819MOL0     H10524  10.707   4.343   4.961  0.8869  1.7163  0.2815
  819MOL0     H10525  10.729   4.144   5.359  2.8690 -1.1900  2.3357
  819MOL0     H10526  10.940   4.007   5.388 -1.5352 -1.4845 -1.3191
  819MOL0     H10527  11.305   3.733   5.242  0.0865  0.5915  0.6424
  819MOL0     H10528  11.532   3.663   5.307  0.2165  0.0031  0.1241
  819MOL0     H10529  11.884   3.891   5.155 -1.5529 -3.2824 -2.2731
  819MOL0     H10530  11.848   3.948   5.321 -1.4081 -0.9497  0.5441
  819MOL0     H10531  11.964   3.692   5.234  0.5242  0.5249 -1.6627
  819MOL0     H10532  12.067   3.831   5.277  1.3792 -1.6455  2.3554
  819MOL0     H10533  11.927   3.827   5.508 -1.0083  0.5109 -1.0498
  819MOL0     H10534  11.872   3.669   5.460  0.0526  0.2811 -1.7082
  819MOL0     H10535  12.118   3.595   5.453 -2.6787 -1.0082 -0.2801
  819MOL0     H10536  12.073   3.644   5.614  0.4147 -0.6032 -0.5268
  819MOL0     H10537  12.197   3.834   5.618 -0.6709 -0.0517 -0.1549
  819MOL0     H10538  12.214   3.866   5.444 -0.6278  1.9817  1.8670
  819MOL0     H10539  12.307   3.595   5.557 -0.4297 -0.2923 -1.2488
  819MOL0     H10540  12.368   3.683   5.417 -0.2230  2.9467  0.2972
  819MOL0     H10541  12.411   3.749   5.713 -0.7012 -1.7003 -1.0970
  819MOL0     H10542  12.449   3.855   5.583 -4.6228  1.5785 -0.9340
  819MOL0     H10543  12.614   3.687   5.505 -1.6071  0.1187 -0.5082
  819MOL0     H10544  12.637   3.718   5.679  1.2500 -1.5186 -0.0885
  819MOL0     H10545  11.683   4.054   5.207  1.3692 -1.2662 -2.6828
  819MOL0     H10546  11.442   4.124   5.135 -1.5506 -0.7076 -0.4984
  819MOL0     H10547  11.100   4.167   5.026 -1.4281 -1.1236 -2.1844
  819MOL0     H10548  10.890   4.295   4.990  0.9067  0.7193  0.0319
  819MOL0     H10549   9.075   4.541   4.453  1.9611 -0.1244 -1.4867
  819MOL0     H10550   8.835   4.502   4.367 -1.2058  0.6407 -2.9204
  819MOL0     H10551   8.594   4.431   4.014 -0.8787  2.4149  1.4964
  819MOL0     H10552   8.395   4.470   3.921 -1.1103  1.5403  0.5716
  819MOL0     H10553   8.192   4.608   4.050  0.8234 -0.7949 -0.7548
  819MOL0     H10554   8.105   4.516   4.175  2.3687 -4.8326 -0.2598
  819MOL0     H10555   7.987   4.540   3.898 -0.6745  2.0211 -0.9465
  819MOL0     H10556   7.965   4.665   4.026  1.2652 -0.6870  5.2875
  819MOL0     H10557   7.779   4.543   4.053  1.5576  1.8284  1.8402
  819MOL0     H10558   7.871   4.435   4.150  1.5447  0.4476  0.2506
  819MOL0     H10559   7.784   4.405   3.869  1.2118  0.5187  0.5534
  819MOL0     H10560   7.912   4.302   3.925 -0.6424 -0.7909 -0.7430
  819MOL0     H10561   7.583   4.096   4.062  1.2008 -1.4086 -1.4486
  819MOL0     H10562   8.194   4.240   4.223  0.2503 -0.9899  0.2412
  819MOL0     H10563   8.447   4.231   4.439 -1.4695  1.1089  0.0597
  819MOL0     H10564   8.301   4.140   4.380 -0.5692  2.0755 -2.3186
  819MOL0     H10565   8.453   4.076   4.341 -1.2646 -0.4622 -1.5378
  820MOL0     O10566   4.593   2.038  10.016 -0.0032  0.1346  0.5416
  820MOL0     C10567   4.602   2.088   9.905 -0.4636  0.2979  0.6949
  820MOL0     O10568   4.721   2.111   9.841 -0.3761  0.0430 -0.1678
  820MOL0     C10569   4.807   2.004   9.828 -0.4211 -0.1245 -0.4960
  820MOL0     C10570   4.770   1.869   9.852 -0.0881  0.1906  0.2227
  820MOL0     C10571   4.862   1.774   9.815 -0.5158 -0.6100 -0.4029
  820MOL0     C10572   4.994   1.814   9.773  0.5143 -0.1077  0.6737
  820MOL0     O10573   5.081   1.710   9.758 -0.0861  0.0623 -0.4799
  820MOL0     C10574   5.220   1.739   9.742 -0.2873 -0.5347 -0.0451
  820MOL0     C10575   5.305   1.610   9.730  0.0205  0.3434  2.0220
  820MOL0     C10576   5.288   1.529   9.851  0.7036 -0.2300 -0.9055
  820MOL0     C10577   5.380   1.408   9.844  0.2708  0.4273  0.3148
  820MOL0     C10578   5.340   1.309   9.960  0.4103  0.0507  0.1129
  820MOL0     C10579   5.402   1.178   9.919 -0.0106 -0.4172 -0.3235
  820MOL0     C10580   5.397   1.075  10.026 -0.0171  0.1348 -0.3518
  820MOL0     C10581   5.530   1.069  10.111 -0.7827 -0.1039  0.5891
  820MOL0     N10582   5.641   1.003  10.033  0.7586  0.4514 -0.0831
  820MOL0     C10583   5.655   0.868  10.024  0.6929  0.5689 -0.0099
  820MOL0     C10584   5.746   0.842   9.929  0.1413 -0.0908 -0.0616
  820MOL0     C10585   5.807   0.719   9.866  1.1221  0.8412 -0.6363
  820MOL0     C10586   5.766   0.721   9.721  0.5731 -0.2409  0.3308
  820MOL0     C10587   5.800   0.583   9.656  0.0479 -0.2397 -0.6322
  820MOL0     C10588   5.942   0.573   9.588 -0.0494 -1.1289  0.3099
  820MOL0     O10589   5.953   0.445   9.538 -0.3277  0.2883 -0.5850
  820MOL0     C10590   6.080   0.387   9.515  0.1391  0.2102 -1.1467
  820MOL0     C10591   6.201   0.456   9.519 -0.1161 -0.1657 -0.6476
  820MOL0     C10592   6.324   0.387   9.496 -0.7807  0.4582 -0.6693
  820MOL0     C10593   6.320   0.245   9.475 -0.2245  0.1029  1.6138
  820MOL0     C10594   6.446   0.175   9.463 -0.0310 -0.4779 -0.3106
  820MOL0     O10595   6.433   0.038   9.494 -0.3965  0.0239 -0.4182
  820MOL0     C10596   6.556  -0.030   9.503  0.1225  0.7725  0.3193
  820MOL0     C10597   6.584  -0.125   9.401  0.3791 -0.4738  1.0142
  820MOL0     C10598   6.693  -0.211   9.437  0.6179  0.2286  0.1245
  820MOL0     C10599   6.765  -0.199   9.556  0.5407 -0.3799 -0.0847
  820MOL0     O10600   6.863  -0.288   9.578 -0.5070  0.2302  0.5111
  820MOL0     C10601   6.993  -0.242   9.613  0.3334  0.2049  0.7757
  820MOL0     C10602   7.076  -0.345   9.680  0.8253 -0.8402 -0.1940
  820MOL0     C10603   7.224  -0.292   9.689 -0.2553  0.6015 -0.3403
  820MOL0     C10604   7.314  -0.402   9.755  0.1589 -1.0449  0.5305
  820MOL0     C10605   7.442  -0.316   9.781 -0.5869 -0.1177  0.4753
  820MOL0     C10606   7.558  -0.397   9.827  0.1278 -0.4414 -0.2329
  820MOL0     C10607   7.689  -0.316   9.840 -0.5758 -0.4246 -0.4369
  820MOL0     C10608   7.813  -0.401   9.884  1.0134  0.2368 -0.3674
  820MOL0    Cl10609   7.844  -0.516   9.762 -0.0770  0.0432 -0.5492
  820MOL0     C10610   6.732  -0.106   9.655  0.4227  0.7508  0.1873
  820MOL0     C10611   6.626  -0.020   9.624 -0.5022  0.6186 -0.1825
  820MOL0     O10612   6.554   0.236   9.441  0.1954 -0.2784 -0.0549
  820MOL0     C10613   6.194   0.185   9.453 -0.1077  0.1396  1.1077
  820MOL0     C10614   6.072   0.252   9.478  0.1320 -0.4432  0.0802
  820MOL0     N10615   5.800   0.969   9.895  0.2360  0.1782  0.8500
  820MOL0     N10616   5.730   1.055   9.954 -0.0702 -0.1418  0.1676
  820MOL0     C10617   5.025   1.952   9.762 -0.4392  0.2584  1.1216
  820MOL0     C10618   4.930   2.050   9.783 -0.7547  0.8094 -0.3283
  820MOL0     C10619   4.476   2.141   9.849 -0.5429 -0.7959  0.4245
  820MOL0     C10620   4.480   2.204   9.723 -0.2346  0.7269  0.2992
  820MOL0     C10621   4.366   2.257   9.658  0.3775 -0.0372 -0.2280
  820MOL0     C10622   4.239   2.234   9.709  0.1484  0.2097 -0.0960
  820MOL0     O10623   4.116   2.259   9.652 -0.1613 -0.2048  0.0575
  820MOL0     C10624   4.108   2.261   9.509 -0.6228  0.1071  0.3335
  820MOL0     C10625   3.959   2.252   9.466 -0.5832 -0.2668 -0.0146
  820MOL0     C10626   3.927   2.114   9.406 -0.0091  0.1814  2.0656
  820MOL0     C10627   3.930   1.998   9.509  0.3160 -0.0602  0.1172
  820MOL0     C10628   3.957   1.875   9.444  0.3353 -0.5459  0.3752
  820MOL0     C10629   3.972   1.765   9.391 -0.0846 -0.6942  0.8473
  820MOL0     C10630   4.234   2.160   9.821 -0.8144  0.4245 -0.2006
  820MOL0     C10631   4.349   2.119   9.901  0.3413 -0.1805 -0.9756
  820MOL0     C10632   4.321   2.071  10.035  0.3989  0.1044 -0.2063
  820MOL0     H10633   4.669   1.832   9.868 -0.4538  0.1564 -1.9445
  820MOL0     H10634   4.850   1.668   9.834 -2.1295 -0.7783 -2.0814
  820MOL0     H10635   5.225   1.794   9.648 -0.9341 -3.5514 -2.0055
  820MOL0     H10636   5.265   1.797   9.823  0.5429  0.9752 -1.5532
  820MOL0     H10637   5.411   1.627   9.709 -0.3485  0.9383  0.5620
  820MOL0     H10638   5.278   1.558   9.638 -2.1671  0.9734  2.2444
  820MOL0     H10639   5.183   1.500   9.863  0.4659  0.9143  0.0213
  820MOL0     H10640   5.324   1.579   9.942 -0.5238  1.1263 -1.1185
  820MOL0     H10641   5.375   1.354   9.749 -0.2626 -3.9490  2.5546
  820MOL0     H10642   5.486   1.434   9.849  0.5455  0.0484 -2.3242
  820MOL0     H10643   5.378   1.337  10.058  0.2392 -0.6274  0.3783
  820MOL0     H10644   5.231   1.309   9.959  0.0885  1.8308 -5.9997
  820MOL0     H10645   5.347   1.131   9.838  0.6045 -0.6015 -0.6435
  820MOL0     H10646   5.505   1.191   9.882 -0.5901  1.3932 -1.4788
  820MOL0     H10647   5.385   0.976   9.983 -0.2623 -1.3903  2.8900
  820MOL0     H10648   5.317   1.099  10.097  0.5690 -0.1851  0.4291
  820MOL0     H10649   5.566   1.171  10.131  0.9481 -0.3937 -0.7903
  820MOL0     H10650   5.502   1.011  10.199 -3.6629 -0.0219 -0.1616
  820MOL0     H10651   5.609   0.795  10.090 -1.0996  0.5571 -1.2231
  820MOL0     H10652   5.914   0.707   9.882  1.2535  0.0510 -1.9481
  820MOL0     H10653   5.756   0.641   9.923 -0.8672  2.4704 -0.0722
  820MOL0     H10654   5.660   0.738   9.704 -0.8109 -5.7827  1.4377
  820MOL0     H10655   5.819   0.800   9.668 -1.1085  0.6604 -0.0647
  820MOL0     H10656   5.729   0.561   9.576  2.3382 -0.6226 -2.6775
  820MOL0     H10657   5.773   0.501   9.724  0.1709  1.2261  1.2683
  820MOL0     H10658   6.017   0.596   9.665  0.2262  0.1556 -0.3210
  820MOL0     H10659   5.959   0.658   9.521  1.4939  0.3091  2.3961
  820MOL0     H10660   6.191   0.562   9.540 -0.8979 -0.1922 -0.8778
  820MOL0     H10661   6.416   0.444   9.509 -0.0938 -0.9823  1.5106
  820MOL0     H10662   6.519  -0.130   9.313  1.9349  1.9140 -0.3793
  820MOL0     H10663   6.724  -0.289   9.369  1.5522 -1.3055  2.1950
  820MOL0     H10664   7.035  -0.196   9.523  0.3058 -0.0831  0.6144
  820MOL0     H10665   6.988  -0.161   9.687  1.8259 -1.5237  2.8996
  820MOL0     H10666   7.038  -0.360   9.782 -0.4724  1.7198 -0.2308
  820MOL0     H10667   7.079  -0.440   9.626  3.0371 -0.3992 -0.9361
  820MOL0     H10668   7.269  -0.268   9.593  1.8179  2.7596  1.0520
  820MOL0     H10669   7.232  -0.202   9.751  1.6391 -2.2874  4.2147
  820MOL0     H10670   7.327  -0.491   9.692  1.1716 -2.3952  2.5538
  820MOL0     H10671   7.274  -0.441   9.849 -0.2256 -2.4273 -0.1808
  820MOL0     H10672   7.418  -0.245   9.861  2.6591  2.4021 -0.5506
  820MOL0     H10673   7.469  -0.260   9.692  1.5235  2.0267  2.3199
  820MOL0     H10674   7.527  -0.436   9.925  1.6590 -3.7272 -0.9360
  820MOL0     H10675   7.567  -0.479   9.755  1.1107 -1.9763  1.5612
  820MOL0     H10676   7.685  -0.250   9.927  1.1293 -1.5013  0.5248
  820MOL0     H10677   7.703  -0.248   9.755 -0.5842 -0.5709 -0.5571
  820MOL0     H10678   7.896  -0.332   9.898 -0.2204  1.1782  3.2602
  820MOL0     H10679   7.791  -0.449   9.980 -4.6265  0.7744 -1.0636
  820MOL0     H10680   6.787  -0.115   9.749  1.2511 -0.1763 -0.3734
  820MOL0     H10681   6.598   0.057   9.695 -1.0695 -1.8511  2.4562
  820MOL0     H10682   6.190   0.078   9.430 -3.6253 -0.0145  1.8104
  820MOL0     H10683   5.981   0.194   9.467  0.6486 -1.1897 -0.3469
  820MOL0     H10684   5.122   1.978   9.721 -0.4243 -2.2488 -0.6643
  820MOL0     H10685   4.937   2.156   9.763 -0.3237  0.7363 -0.5720
  820MOL0     H10686   4.581   2.213   9.685  0.5074  0.0460  2.0438
  820MOL0     H10687   4.371   2.308   9.563  2.7929 -0.2545 -0.3022
  820MOL0     H10688   4.171   2.189   9.457 -0.6824  1.6138 -1.9751
  820MOL0     H10689   4.135   2.364   9.481 -1.1105 -0.2625 -1.6390
  820MOL0     H10690   3.930   2.336   9.402  0.3763  0.8009  0.9199
  820MOL0     H10691   3.896   2.265   9.554  2.2844  2.3305  1.8625
  820MOL0     H10692   3.996   2.098   9.323 -0.5885  1.6657  1.2581
  820MOL0     H10693   3.826   2.124   9.367  0.1734 -0.7832  1.3120
  820MOL0     H10694   4.018   2.004   9.574  0.0353  0.6024  0.4495
  820MOL0     H10695   3.839   1.998   9.570  0.9707 -0.3135  1.1107
  820MOL0     H10696   3.983   1.667   9.349  1.3167 -1.8027  3.5185
  820MOL0     H10697   4.135   2.138   9.860  0.3743  0.3600  3.0925
  820MOL0     H10698   4.363   1.970  10.040  0.0471 -0.1665 -2.0836
  820MOL0     H10699   4.366   2.142  10.106  2.4135 -1.7582  0.4776
  820MOL0     H10700   4.214   2.057  10.051 -0.2391  1.6352 -2.6751
  821MOL0     O10701   3.083  10.071   9.553  0.2187  0.5895 -0.1629
  821MOL0     C10702   3.138   9.963   9.574 -0.1394  0.4247  0.3203
  821MOL0     O10703   3.264   9.950   9.617 -0.6396 -0.1849 -0.4376
  821MOL0     C10704   3.360  10.055   9.623 -0.4411  0.7038 -1.0082
  821MOL0     C10705   3.330  10.195   9.622  0.3019  0.8572  1.0830
  821MOL0     C10706   3.423  10.291   9.639 -0.0569  0.5258  0.2262
  821MOL0     C10707   3.555  10.259   9.654 -0.1380  0.4446  0.3952
  821MOL0     O10708   3.646  10.347   9.684 -0.0791 -0.8927  1.0317
  821MOL0     C10709   3.615  10.491   9.685 -0.4248 -0.1922 -0.4525
  821MOL0     C10710   3.736  10.569   9.713 -0.4318  0.1778 -1.3573
  821MOL0     C10711   3.856  10.551   9.604  0.5859  0.0834  0.2632
  821MOL0     C10712   3.969  10.640   9.646 -0.2476 -0.2679 -0.5644
  821MOL0     C10713   4.083  10.608   9.550 -0.0224  0.0718 -0.4590
  821MOL0     C10714   4.213  10.685   9.588  0.3616 -0.1451  0.4739
  821MOL0     C10715   4.313  10.678   9.474 -0.4067 -0.1904  0.0597
  821MOL0     C10716   4.452  10.721   9.524  0.6247 -0.4920 -0.6287
  821MOL0     N10717   4.551  10.703   9.420 -0.2584  0.2665  0.2907
  821MOL0     C10718   4.584  10.588   9.346  0.1395 -0.9288  1.6809
  821MOL0     C10719   4.671  10.618   9.252  0.5669  1.0319  0.3262
  821MOL0     C10720   4.753  10.539   9.154  1.2172  0.5060  0.2559
  821MOL0     C10721   4.838  10.630   9.065 -0.6883  0.9434  0.0709
  821MOL0     C10722   4.892  10.552   8.947  0.7344 -0.0985  0.5597
  821MOL0     C10723   5.020  10.607   8.896 -0.5375  0.1639 -0.4031
  821MOL0     O10724   5.129  10.596   8.992 -0.1135  0.9067 -0.9848
  821MOL0     C10725   5.258  10.625   8.948 -0.1924  0.7905  0.2256
  821MOL0     C10726   5.368  10.552   8.995  0.2698 -0.1026 -0.2031
  821MOL0     C10727   5.498  10.579   8.952 -0.4927 -0.4760  0.2004
  821MOL0     C10728   5.527  10.683   8.860  0.1661 -0.0225 -0.0378
  821MOL0     C10729   5.666  10.704   8.816  0.3699  0.7617 -0.3857
  821MOL0     O10730   5.761  10.643   8.892  0.2868  0.6427  0.0150
  821MOL0     C10731   5.889  10.640   8.843  0.1640 -0.7028 -0.1003
  821MOL0     C10732   5.947  10.519   8.807 -0.0403 -0.0349 -0.2995
  821MOL0     C10733   6.079  10.495   8.776 -0.5338 -0.3139  0.0295
  821MOL0     C10734   6.159  10.611   8.786  0.2769  0.1423 -0.0402
  821MOL0     O10735   6.291  10.593   8.750 -0.2023 -0.3941  0.6008
  821MOL0     C10736   6.385  10.695   8.796  0.4238  0.4880  0.1178
  821MOL0     C10737   6.526  10.636   8.767  0.7038 -0.1102  0.3630
  821MOL0     C10738   6.627  10.742   8.791  0.1987 -0.4512 -0.8317
  821MOL0     C10739   6.763  10.683   8.806 -1.2999  0.5088 -0.2903
  821MOL0     C10740   6.868  10.797   8.850 -0.7275  0.0927 -0.5507
  821MOL0     C10741   6.937  10.842   8.726  0.0945  0.0928 -0.1489
  821MOL0     C10742   7.018  10.968   8.751  0.6047  0.4294 -0.4027
  821MOL0     C10743   7.087  11.026   8.630 -0.1144  0.0778 -0.0857
  821MOL0    Cl10744   6.977  11.107   8.524  0.2581  0.1372  0.0326
  821MOL0     C10745   6.106  10.737   8.808  0.4072 -0.9497  0.2230
  821MOL0     C10746   5.972  10.752   8.846 -0.0927  0.2977  1.0599
  821MOL0     O10747   5.694  10.780   8.719  0.6002  0.9066 -0.3824
  821MOL0     C10748   5.411  10.756   8.811 -0.4248 -0.7016 -0.4448
  821MOL0     C10749   5.282  10.733   8.860 -0.1687 -0.4906  0.9415
  821MOL0     N10750   4.692  10.759   9.272  0.6638  0.0730  0.9163
  821MOL0     N10751   4.629  10.799   9.376 -0.4840 -0.0202 -0.1057
  821MOL0     C10752   3.598  10.130   9.645 -0.1578  0.6410 -0.7249
  821MOL0     C10753   3.498  10.027   9.646  0.3290  0.4462 -0.0217
  821MOL0     C10754   3.062   9.840   9.548  0.0344 -0.1273 -0.9758
  821MOL0     C10755   2.918   9.837   9.549 -0.6906 -0.4357 -0.5096
  821MOL0     C10756   2.839   9.720   9.533  0.1734  0.0291 -1.0903
  821MOL0     C10757   2.904   9.596   9.509  0.1379 -0.6372 -0.5243
  821MOL0     O10758   2.839   9.475   9.469  0.6196 -0.5994  0.4998
  821MOL0     C10759   2.697   9.469   9.481  0.0554  0.0380 -0.4761
  821MOL0     C10760   2.683   9.420   9.629 -0.4340 -0.2191 -0.0888
  821MOL0     C10761   2.733   9.273   9.634  0.1454  0.8459  0.3003
  821MOL0     C10762   2.767   9.242   9.783  0.7316  0.4055  0.1614
  821MOL0     C10763   2.649   9.206   9.858 -0.1254  0.3827 -0.4114
  821MOL0     C10764   2.546   9.172   9.904  0.6694  0.8584  0.7735
  821MOL0     C10765   3.046   9.599   9.498  0.7591 -0.1479 -0.7529
  821MOL0     C10766   3.123   9.718   9.515 -0.4548 -0.3379  0.7263
  821MOL0     C10767   3.270   9.701   9.482 -0.6375 -0.3262 -0.1633
  821MOL0     H10768   3.231  10.234   9.603  1.0054  1.9147 -0.6875
  821MOL0     H10769   3.393  10.394   9.655  4.4413  2.1804 -0.7276
  821MOL0     H10770   3.568  10.536   9.598 -1.5139  0.8297  0.6296
  821MOL0     H10771   3.542  10.509   9.765  0.5392  4.1432 -0.3235
  821MOL0     H10772   3.787  10.528   9.801  0.5492  1.3766 -1.3439
  821MOL0     H10773   3.708  10.674   9.725 -1.3962 -0.0856 -1.2281
  821MOL0     H10774   3.828  10.601   9.511 -3.2860  1.5877  1.9647
  821MOL0     H10775   3.889  10.449   9.584  2.1416  0.6591 -0.1903
  821MOL0     H10776   3.949  10.748   9.644  1.9013  0.1929 -0.7390
  821MOL0     H10777   4.002  10.610   9.746 -1.4614 -1.0266 -0.3779
  821MOL0     H10778   4.100  10.500   9.555 -0.5430 -0.4708 -5.3844
  821MOL0     H10779   4.047  10.637   9.451 -2.1500  1.0537  0.5408
  821MOL0     H10780   4.183  10.789   9.606  0.3965  0.0555 -0.5461
  821MOL0     H10781   4.256  10.641   9.678  0.2486  0.9596  1.0944
  821MOL0     H10782   4.281  10.739   9.389  2.3338 -1.0329 -1.7357
  821MOL0     H10783   4.333  10.577   9.437  1.6473  0.3790 -0.5026
  821MOL0     H10784   4.456  10.829   9.545  1.3756 -0.9933  2.3589
  821MOL0     H10785   4.483  10.669   9.615  1.5199 -0.8576 -1.1208
  821MOL0     H10786   4.546  10.487   9.359 -1.2286 -0.8839 -1.2344
  821MOL0     H10787   4.812  10.467   9.213 -1.7384 -1.4792  0.9741
  821MOL0     H10788   4.680  10.481   9.098 -1.3840 -0.0129  3.8553
  821MOL0     H10789   4.763  10.697   9.022  0.6456  1.2347 -1.9175
  821MOL0     H10790   4.911  10.685   9.125 -0.7865 -0.6323  1.7122
  821MOL0     H10791   4.821  10.549   8.865  1.3676 -0.6486  0.0199
  821MOL0     H10792   4.905  10.446   8.973 -4.8346 -0.8410  1.5940
  821MOL0     H10793   5.008  10.714   8.876  0.0624  0.5068  0.9174
  821MOL0     H10794   5.042  10.556   8.803 -2.1626  0.0902 -0.7786
  821MOL0     H10795   5.351  10.473   9.068  3.9321  0.1042  1.1148
  821MOL0     H10796   5.577  10.513   8.986  0.6281  1.5724  1.8474
  821MOL0     H10797   5.890  10.429   8.789 -2.4900  1.5360 -1.0063
  821MOL0     H10798   6.119  10.398   8.747 -1.0058 -0.3771 -0.4322
  821MOL0     H10799   6.386  10.792   8.743  0.5293 -0.3981 -1.5791
  821MOL0     H10800   6.359  10.717   8.900  2.1837  4.1333 -0.0569
  821MOL0     H10801   6.541  10.549   8.831 -1.7612 -0.4634  0.5777
  821MOL0     H10802   6.534  10.599   8.664  3.9670  1.2805  0.0043
  821MOL0     H10803   6.636  10.827   8.722 -1.2865  1.6777  1.3913
  821MOL0     H10804   6.599  10.791   8.885  3.0086 -2.9091  1.4538
  821MOL0     H10805   6.793  10.636   8.712  1.0433  0.4928  0.4156
  821MOL0     H10806   6.760  10.603   8.881 -0.8558 -0.7672 -1.5941
  821MOL0     H10807   6.944  10.754   8.916  1.5335  1.0945 -2.3502
  821MOL0     H10808   6.813  10.881   8.895 -0.9771 -0.4547  0.1779
  821MOL0     H10809   7.005  10.762   8.695 -0.2183  0.0933 -0.8489
  821MOL0     H10810   6.867  10.868   8.645 -0.2548  1.2756  0.5096
  821MOL0     H10811   7.089  10.935   8.827 -2.5159  2.5548  3.9086
  821MOL0     H10812   6.959  11.045   8.803 -3.0822 -2.2552 -0.2008
  821MOL0     H10813   7.164  11.096   8.665 -2.7762  1.9271  2.6111
  821MOL0     H10814   7.141  10.943   8.584 -1.0502  0.2434 -1.5468
  821MOL0     H10815   6.173  10.823   8.797 -0.6858  0.0583  1.1261
  821MOL0     H10816   5.921  10.846   8.865  0.7579  1.6157 -2.3445
  821MOL0     H10817   5.414  10.840   8.743 -1.0944  1.0498  1.5962
  821MOL0     H10818   5.207  10.805   8.827  0.8026  0.5761  1.0065
  821MOL0     H10819   3.705  10.112   9.645 -0.0940  0.9978 -0.6057
  821MOL0     H10820   3.529   9.923   9.640  0.6571  0.4357  1.4100
  821MOL0     H10821   2.855   9.926   9.556  0.3371  0.2020  1.6556
  821MOL0     H10822   2.734   9.747   9.544  0.4020  0.0224  2.3594
  821MOL0     H10823   2.654   9.393   9.414 -0.0336 -0.6140  0.2965
  821MOL0     H10824   2.652   9.568   9.469  3.3878  1.8800  1.1160
  821MOL0     H10825   2.576   9.426   9.650 -0.7925  0.9396 -1.9969
  821MOL0     H10826   2.745   9.480   9.696 -0.8592  1.3127 -1.0242
  821MOL0     H10827   2.829   9.257   9.584 -1.6686 -0.2300 -3.1466
  821MOL0     H10828   2.662   9.201   9.595  1.5680 -0.1012 -0.6380
  821MOL0     H10829   2.835   9.158   9.800  0.4306  0.5711  2.4866
  821MOL0     H10830   2.823   9.323   9.830  1.0054 -0.5651  1.5843
  821MOL0     H10831   2.449   9.140   9.937  0.2517  1.1617 -0.1159
  821MOL0     H10832   3.084   9.501   9.473  3.0356  0.5860 -0.4096
  821MOL0     H10833   3.316   9.729   9.577  0.2330 -1.4949 -0.2214
  821MOL0     H10834   3.298   9.597   9.459  0.5418 -0.4772  1.7375
  821MOL0     H10835   3.291   9.765   9.395 -1.9889 -0.4432 -0.6072
  822MOL0     O10836  11.077   3.653  10.642  0.2486 -0.2452  0.6759
  822MOL0     C10837  10.973   3.595  10.661 -0.6077 -0.0913  0.3946
  822MOL0     O10838  10.961   3.462  10.676 -0.2882  0.0290 -0.4024
  822MOL0     C10839  11.071   3.391  10.715 -0.6461  0.0004 -0.3631
  822MOL0     C10840  11.171   3.340  10.629  0.1167  0.1254  0.4978
  822MOL0     C10841  11.278   3.258  10.670  0.1272  0.0184  0.4446
  822MOL0     C10842  11.291   3.233  10.807 -0.4385  0.8488  0.8222
  822MOL0     O10843  11.387   3.149  10.861  0.4026  0.1482  0.6868
  822MOL0     C10844  11.470   3.073  10.775 -0.5254 -0.1159 -0.8087
  822MOL0     C10845  11.569   3.013  10.874  0.3580  0.1142  0.3066
  822MOL0     C10846  11.690   2.958  10.803 -0.6881 -0.3551  0.8008
  822MOL0     C10847  11.789   2.911  10.911 -0.7531 -0.7509 -0.6852
  822MOL0     C10848  11.932   2.873  10.844 -0.4938 -0.7603 -1.0358
  822MOL0     C10849  12.025   2.797  10.940  0.5169 -0.4443 -0.8846
  822MOL0     C10850  12.165   2.765  10.884 -0.1508 -0.3986  0.5239
  822MOL0     C10851  12.232   2.642  10.955  0.1282  0.2648 -0.3252
  822MOL0     N10852  12.351   2.595  10.897 -0.4504  0.2835  0.9121
  822MOL0     C10853  12.472   2.651  10.903 -0.5733 -0.0748 -0.2754
  822MOL0     C10854  12.555   2.557  10.858  0.1305 -0.0245  0.3931
  822MOL0     C10855  12.701   2.569  10.834 -0.1738  0.1976  0.2014
  822MOL0     C10856  12.785   2.479  10.928  0.2046  0.3398 -0.3583
  822MOL0     C10857  12.935   2.510  10.904 -0.8865  0.2016 -0.1313
  822MOL0     C10858  13.028   2.416  10.991  0.4499  0.2559  0.2775
  822MOL0     O10859  13.165   2.409  10.944  0.5630 -0.0488 -0.1214
  822MOL0     C10860  13.246   2.494  11.013 -0.7388 -0.1076 -0.8699
  822MOL0     C10861  13.369   2.454  11.066 -0.4835 -0.2396 -0.5784
  822MOL0     C10862  13.467   2.541  11.120  0.1902 -0.4959  0.9533
  822MOL0     C10863  13.444   2.675  11.113  0.1903  0.3029  0.5457
  822MOL0     C10864  13.551   2.776  11.146  0.0151 -0.9636  0.1125
  822MOL0     O10865  13.515   2.903  11.114 -0.1577 -0.4013  0.1037
  822MOL0     C10866  13.593   3.016  11.118 -0.0858  0.4730  0.7105
  822MOL0     C10867  13.529   3.123  11.057  0.4069  0.6191 -0.3045
  822MOL0     C10868  13.604   3.230  11.020  1.1049  0.7346  0.4324
  822MOL0     C10869  13.732   3.254  11.069  0.1275 -0.1622 -0.3418
  822MOL0     O10870  13.800   3.371  11.059 -1.1159  0.2228  0.8612
  822MOL0     C10871  13.774   3.473  10.964 -0.0990  1.0602  0.1683
  822MOL0     C10872  13.843   3.598  11.020  0.8729  0.2675  1.1409
  822MOL0     C10873  13.990   3.579  10.996 -0.8563  0.2100  0.2756
  822MOL0     C10874  14.075   3.703  11.015 -1.0728 -0.1477 -0.2971
  822MOL0     C10875  14.216   3.685  10.950 -0.2988 -0.3860 -0.7182
  822MOL0     C10876  14.279   3.819  10.918 -0.7694 -0.3561  0.1637
  822MOL0     C10877  14.297   3.912  11.030 -0.4837  0.6621  0.2462
  822MOL0     C10878  14.433   3.983  11.007 -0.5818  0.5041  0.4724
  822MOL0    Cl10879  14.424   4.094  10.873 -0.3330 -0.0692 -0.3110
  822MOL0     C10880  13.788   3.157  11.155 -0.2356 -0.5219 -0.4287
  822MOL0     C10881  13.726   3.037  11.167  0.7540  0.1987 -0.0510
  822MOL0     O10882  13.652   2.739  11.203  0.3851  0.4645 -0.1303
  822MOL0     C10883  13.320   2.721  11.065  0.8879 -1.1768  0.0545
  822MOL0     C10884  13.226   2.638  11.009  0.0288 -0.0434 -0.0280
  822MOL0     N10885  12.483   2.439  10.834 -0.3052  0.0360  0.3239
  822MOL0     N10886  12.362   2.466  10.869 -0.1394 -0.3892 -0.2776
  822MOL0     C10887  11.209   3.298  10.894  0.2522 -0.1552  0.1397
  822MOL0     C10888  11.098   3.374  10.850 -0.3780 -0.5017 -0.1833
  822MOL0     C10889  10.849   3.669  10.630  0.3318 -0.6946  0.6325
  822MOL0     C10890  10.731   3.590  10.618  0.6574  0.4054  0.3590
  822MOL0     C10891  10.605   3.647  10.580 -0.0418 -0.6335 -0.0531
  822MOL0     C10892  10.598   3.780  10.545 -0.1471 -0.4509 -1.1850
  822MOL0     O10893  10.488   3.828  10.474 -0.6444  0.7363  0.8036
  822MOL0     C10894  10.485   3.769  10.337  0.3315  0.1785 -0.2426
  822MOL0     C10895  10.508   3.879  10.233  0.0516 -0.3627 -0.3752
  822MOL0     C10896  10.394   3.979  10.245  0.8263 -0.2434 -0.7480
  822MOL0     C10897  10.404   4.081  10.133  0.1434  0.6079 -0.3566
  822MOL0     C10898  10.276   4.137  10.115  0.5768  0.4234  0.7767
  822MOL0     C10899  10.169   4.187  10.078  0.1049  0.2133 -0.4205
  822MOL0     C10900  10.710   3.869  10.572  0.4366  0.2901  0.5823
  822MOL0     C10901  10.829   3.816  10.619  0.5927 -0.1011  0.3103
  822MOL0     C10902  10.932   3.916  10.672 -0.0534 -0.0043  0.4989
  822MOL0     H10903  11.154   3.350  10.522  1.6433  1.5370  0.3475
  822MOL0     H10904  11.346   3.232  10.590 -1.7879  0.7513 -1.5250
  822MOL0     H10905  11.418   2.988  10.729  0.0018 -2.2578  2.2021
  822MOL0     H10906  11.531   3.131  10.705 -0.9665  0.5754 -0.6218
  822MOL0     H10907  11.520   2.930  10.925 -2.2819  0.3536 -1.5971
  822MOL0     H10908  11.601   3.093  10.941 -3.2020  0.5816  1.7010
  822MOL0     H10909  11.736   3.040  10.748 -0.6421 -0.7356  0.2652
  822MOL0     H10910  11.664   2.875  10.737  0.9548  0.8923 -1.5610
  822MOL0     H10911  11.804   2.974  10.999  0.9174  0.0839 -1.4973
  822MOL0     H10912  11.750   2.821  10.958 -1.2124 -0.1154  0.1629
  822MOL0     H10913  11.923   2.809  10.756 -0.8484  2.9707 -3.9642
  822MOL0     H10914  11.980   2.967  10.817  1.3305 -1.1185  0.7517
  822MOL0     H10915  12.022   2.855  11.033  0.3537 -2.2426  0.2784
  822MOL0     H10916  11.977   2.700  10.955  1.1692 -0.6728 -0.2257
  822MOL0     H10917  12.228   2.854  10.873 -0.8062 -0.2829 -3.6379
  822MOL0     H10918  12.147   2.745  10.778 -1.3017  0.7658  0.4708
  822MOL0     H10919  12.254   2.684  11.053  0.3675  2.0354 -1.0918
  822MOL0     H10920  12.168   2.555  10.970  0.4444 -0.2597 -1.8618
  822MOL0     H10921  12.496   2.754  10.927  0.9083 -0.3496 -0.4817
  822MOL0     H10922  12.712   2.529  10.732  2.0181  0.8386  0.1356
  822MOL0     H10923  12.740   2.671  10.836  0.2754  0.0211  0.6092
  822MOL0     H10924  12.754   2.509  11.029 -0.4828 -0.3643 -0.3540
  822MOL0     H10925  12.774   2.373  10.906 -1.9256  0.7418 -1.5248
  822MOL0     H10926  12.952   2.616  10.921 -0.3368 -0.3254  3.4731
  822MOL0     H10927  12.955   2.491  10.798  1.6707 -0.2302  0.3759
  822MOL0     H10928  12.988   2.315  10.980 -2.0202  1.0959  1.0291
  822MOL0     H10929  13.021   2.434  11.099 -0.5626 -2.2226  0.6890
  822MOL0     H10930  13.386   2.347  11.064 -1.8413 -0.5475  1.4532
  822MOL0     H10931  13.559   2.500  11.159  0.9833 -1.1407 -1.4414
  822MOL0     H10932  13.427   3.111  11.022 -0.5852 -0.1791  2.6070
  822MOL0     H10933  13.554   3.304  10.958  1.1666  0.7386  0.3868
  822MOL0     H10934  13.785   3.447  10.859 -4.4326 -2.0253  0.2200
  822MOL0     H10935  13.668   3.503  10.970 -0.2216  0.7358 -0.3090
  822MOL0     H10936  13.817   3.687  10.962 -0.2415 -1.1270 -0.6270
  822MOL0     H10937  13.818   3.608  11.126 -5.6135 -2.7465  0.3903
  822MOL0     H10938  14.025   3.504  11.067 -1.1866 -0.7558 -0.5526
  822MOL0     H10939  14.004   3.537  10.896 -1.8666  0.7380 -0.0941
  822MOL0     H10940  14.088   3.718  11.122 -0.8602  0.3494 -0.3843
  822MOL0     H10941  14.038   3.796  10.970  1.9914  0.1317 -2.6246
  822MOL0     H10942  14.215   3.624  10.859 -0.5604 -1.7342  0.1635
  822MOL0     H10943  14.281   3.640  11.025 -1.1482 -1.7180 -0.7421
  822MOL0     H10944  14.381   3.794  10.884 -0.6888 -0.7117  0.6506
  822MOL0     H10945  14.236   3.872  10.833  1.6639  2.7313  0.6779
  822MOL0     H10946  14.292   3.875  11.133 -1.6615  0.9598  0.3093
  822MOL0     H10947  14.225   3.992  11.009 -0.8972  0.2866  0.2136
  822MOL0     H10948  14.462   4.035  11.099 -0.2330  2.4071 -0.6589
  822MOL0     H10949  14.519   3.918  10.989  0.7816  2.6432 -1.1228
  822MOL0     H10950  13.883   3.174  11.204  0.8605 -1.5343 -2.1049
  822MOL0     H10951  13.777   2.954  11.216  0.0762  0.2120  0.6968
  822MOL0     H10952  13.303   2.828  11.055 -1.1610 -1.4436  0.1855
  822MOL0     H10953  13.146   2.676  10.948 -0.0338  1.5187  0.9627
  822MOL0     H10954  11.212   3.287  11.002  2.0355  0.5488  0.1976
  822MOL0     H10955  11.020   3.415  10.913 -0.1541  0.2682 -0.4032
  822MOL0     H10956  10.729   3.483  10.634  2.8066  0.0083 -1.5302
  822MOL0     H10957  10.514   3.590  10.571 -0.2769 -0.3362  0.4330
  822MOL0     H10958  10.387   3.724  10.320  0.9812 -1.2175 -0.4277
  822MOL0     H10959  10.558   3.689  10.324  1.8566  1.3598  0.6097
  822MOL0     H10960  10.513   3.828  10.136 -0.8022 -0.7776 -0.2057
  822MOL0     H10961  10.607   3.923  10.248 -0.0639 -0.4354  0.6379
  822MOL0     H10962  10.403   4.031  10.341  0.4402  1.8346 -1.7822
  822MOL0     H10963  10.302   3.921  10.240  0.9284 -0.5567  0.5008
  822MOL0     H10964  10.479   4.157  10.157 -0.5944  0.5587  2.4380
  822MOL0     H10965  10.440   4.036  10.039  1.7735 -0.3762  0.6905
  822MOL0     H10966  10.071   4.229  10.070 -0.5308 -1.0692  0.3344
  822MOL0     H10967  10.701   3.977  10.560  0.2060  0.2991  0.8169
  822MOL0     H10968  10.986   3.886  10.762 -0.9864  2.1694  1.8807
  822MOL0     H10969  11.008   3.932  10.595 -2.0055 -0.9385 -1.7595
  822MOL0     H10970  10.879   4.011  10.689  0.0632  0.2793 -0.6279
  823MOL0     O10971   5.686  10.119  11.285  0.2961  0.5180  0.0555
  823MOL0     C10972   5.683   9.998  11.293 -0.2489  0.1913  0.4104
  823MOL0     O10973   5.788   9.927  11.325 -0.9251 -0.5379 -0.0274
  823MOL0     C10974   5.907  10.002  11.338  0.5650  1.3047 -0.3046
  823MOL0     C10975   5.932  10.066  11.458  0.2043 -0.8659 -0.2938
  823MOL0     C10976   6.058  10.136  11.483  0.1261 -0.9080  0.0945
  823MOL0     C10977   6.154  10.134  11.375 -0.1861 -0.0474 -0.0759
  823MOL0     O10978   6.274  10.173  11.405  0.0651 -0.6591  0.1061
  823MOL0     C10979   6.376  10.175  11.305  0.6291 -0.4648 -0.4548
  823MOL0     C10980   6.492  10.262  11.349  0.8994 -0.9727  0.2776
  823MOL0     C10981   6.599  10.279  11.249  0.3076  0.0568  0.2825
  823MOL0     C10982   6.699  10.387  11.282  0.1440  0.1285 -0.6255
  823MOL0     C10983   6.744  10.469  11.166  0.2984 -0.3049 -0.2823
  823MOL0     C10984   6.834  10.388  11.080  0.5385 -0.3136 -0.3194
  823MOL0     C10985   6.886  10.488  10.985 -0.1224 -0.2207  0.0196
  823MOL0     C10986   6.980  10.412  10.891 -0.3575 -0.4461 -0.4087
  823MOL0     N10987   7.034  10.509  10.794 -0.1486  0.0222 -0.6979
  823MOL0     C10988   6.952  10.592  10.719 -0.1774  0.0906 -0.7286
  823MOL0     C10989   7.039  10.651  10.634  0.1845  0.5205 -0.0193
  823MOL0     C10990   7.002  10.757  10.524  0.6409 -0.1557  1.2489
  823MOL0     C10991   6.992  10.900  10.589 -0.7279 -0.2597  0.2366
  823MOL0     C10992   7.132  10.955  10.643  0.1757 -0.9436  0.0644
  823MOL0     C10993   7.237  10.952  10.542  0.3458  0.1747  0.2138
  823MOL0     O10994   7.340  11.040  10.559 -0.4078  0.1645  0.4604
  823MOL0     C10995   7.466  10.990  10.598 -0.3811 -0.0175 -1.4314
  823MOL0     C10996   7.541  10.902  10.519  0.0191 -0.4996 -0.4079
  823MOL0     C10997   7.651  10.843  10.584  0.2107  0.3096 -0.0055
  823MOL0     C10998   7.701  10.892  10.712 -0.3383  0.6621  0.7127
  823MOL0     C10999   7.837  10.856  10.762  0.1023 -0.8590  0.3609
  823MOL0     O11000   7.851  10.841  10.898  0.2006  0.5241 -0.3643
  823MOL0     C11001   7.965  10.790  10.943  0.0044 -0.2117 -0.1889
  823MOL0     C11002   8.051  10.868  11.025  0.2395 -0.1276 -0.6656
  823MOL0     C11003   8.179  10.826  11.069 -0.4825 -0.3872 -0.2305
  823MOL0     C11004   8.231  10.703  11.025  0.6666  0.7187 -0.3906
  823MOL0     O11005   8.361  10.657  11.060  0.9759  0.8365 -0.4198
  823MOL0     C11006   8.448  10.605  10.955 -0.4472  0.8322  0.0398
  823MOL0     C11007   8.591  10.640  10.963 -1.3246  0.9559  0.0257
  823MOL0     C11008   8.612  10.791  10.940  0.1804 -0.1809  0.6732
  823MOL0     C11009   8.754  10.825  10.903 -1.0675  0.2042 -0.1770
  823MOL0     C11010   8.783  10.978  10.888  0.1385 -0.8160 -0.1428
  823MOL0     C11011   8.928  11.009  10.834 -0.1015  1.5423  0.5694
  823MOL0     C11012   8.966  10.923  10.709  0.5556 -0.0443  0.0185
  823MOL0     C11013   9.102  10.965  10.662  0.9850  0.0498  0.2197
  823MOL0    Cl11014   9.099  11.130  10.604  0.2421  0.1253 -0.2126
  823MOL0     C11015   8.145  10.617  10.950  0.2870  0.0563  0.4658
  823MOL0     C11016   8.009  10.662  10.917  0.7590 -0.6738 -0.2155
  823MOL0     O11017   7.922  10.833  10.673  0.2956 -0.0812  0.5579
  823MOL0     C11018   7.627  10.976  10.788  0.5284 -0.4581 -0.2572
  823MOL0     C11019   7.509  11.024  10.733  0.6925  0.1342 -1.2241
  823MOL0     N11020   7.163  10.610  10.670 -0.3271  0.0536  0.3837
  823MOL0     N11021   7.166  10.530  10.773 -0.1282  0.3088 -0.0880
  823MOL0     C11022   6.120  10.066  11.252  0.0809 -0.8099 -0.4794
  823MOL0     C11023   5.999  10.004  11.235  0.3805 -0.5854 -0.3936
  823MOL0     C11024   5.554   9.933  11.257 -0.2162  0.3586 -0.3241
  823MOL0     C11025   5.431  10.001  11.260 -0.5884 -0.5360 -0.1728
  823MOL0     C11026   5.308   9.944  11.228 -0.1719  0.6561 -0.6069
  823MOL0     C11027   5.297   9.804  11.217  1.0366 -0.7741  0.5251
  823MOL0     O11028   5.181   9.731  11.195  0.0741 -0.7315  1.5415
  823MOL0     C11029   5.060   9.810  11.187  0.0143  0.1779 -0.1439
  823MOL0     C11030   4.959   9.715  11.121  0.0320 -0.6459  0.6079
  823MOL0     C11031   4.811   9.760  11.144 -0.2545  0.3731  0.1531
  823MOL0     C11032   4.778   9.909  11.098 -0.5438  0.2831 -0.3125
  823MOL0     C11033   4.639   9.930  11.136  0.6183 -0.1691  0.2084
  823MOL0     C11034   4.523   9.943  11.160  0.2044  0.4615 -0.8199
  823MOL0     C11035   5.409   9.730  11.231  0.1875 -0.7569  0.0440
  823MOL0     C11036   5.541   9.793  11.241 -0.0892  0.1874  0.9716
  823MOL0     C11037   5.657   9.706  11.229  0.7281  1.0520  0.8510
  823MOL0     H11038   5.856  10.067  11.536 -0.7719  1.0939 -1.2046
  823MOL0     H11039   6.082  10.174  11.582 -1.0407 -1.0394  0.4413
  823MOL0     H11040   6.404  10.071  11.285  1.8492 -0.2116 -0.1235
  823MOL0     H11041   6.340  10.220  11.212 -0.3797 -0.2532  0.0225
  823MOL0     H11042   6.538  10.205  11.430  3.3008  1.9852  1.1790
  823MOL0     H11043   6.455  10.360  11.381 -0.0781  0.2205 -3.8268
  823MOL0     H11044   6.559  10.281  11.147 -0.4648 -1.2678  0.5365
  823MOL0     H11045   6.648  10.182  11.261  2.5486  1.2543  1.3571
  823MOL0     H11046   6.648  10.462  11.343  2.1596 -0.5560  2.1038
  823MOL0     H11047   6.781  10.336  11.333 -0.7761 -3.7872 -2.7002
  823MOL0     H11048   6.662  10.502  11.102 -0.5616  1.1468  1.4712
  823MOL0     H11049   6.785  10.566  11.194  1.3212 -0.9280  0.4786
  823MOL0     H11050   6.918  10.342  11.134 -0.4631 -2.3931 -0.4381
  823MOL0     H11051   6.781  10.308  11.028 -3.4267  1.9252 -0.0981
  823MOL0     H11052   6.951  10.568  11.018  0.3806  0.2427 -1.9593
  823MOL0     H11053   6.798  10.524  10.931  0.3446 -2.4515 -2.4720
  823MOL0     H11054   7.053  10.359  10.954 -1.4254 -0.8689  0.5084
  823MOL0     H11055   6.932  10.327  10.841  2.2802 -1.8553 -0.7311
  823MOL0     H11056   6.845  10.602  10.736 -0.1547 -3.0191  2.4584
  823MOL0     H11057   7.080  10.743  10.449  1.4794 -0.3577  2.1299
  823MOL0     H11058   6.906  10.746  10.473  0.3055  3.1836  0.9301
  823MOL0     H11059   6.951  10.965  10.511 -0.2973 -0.8305 -0.4763
  823MOL0     H11060   6.912  10.903  10.663 -0.9223  0.5033  0.0064
  823MOL0     H11061   7.154  10.897  10.734 -1.0092  1.4163  1.9752
  823MOL0     H11062   7.107  11.057  10.673 -0.3300 -0.5866 -1.5045
  823MOL0     H11063   7.182  10.968  10.449 -1.3849  1.5248  1.4067
  823MOL0     H11064   7.281  10.852  10.543  0.0547  0.0438  1.3777
  823MOL0     H11065   7.507  10.856  10.427 -1.0947  0.2762 -0.3954
  823MOL0     H11066   7.709  10.767  10.533  0.0064  1.0715 -1.4360
  823MOL0     H11067   8.014  10.968  11.044  0.0486 -0.8167  3.5529
  823MOL0     H11068   8.256  10.888  11.117  2.9994 -5.7975  2.1439
  823MOL0     H11069   8.444  10.496  10.960 -2.3999  0.8985  1.1881
  823MOL0     H11070   8.405  10.641  10.861 -2.4444 -1.0098  0.1663
  823MOL0     H11071   8.626  10.614  11.064  3.4605 -0.9187 -1.8417
  823MOL0     H11072   8.662  10.580  10.906  1.7956  1.8103  2.6906
  823MOL0     H11073   8.544  10.817  10.859 -2.1501 -1.3307  2.1573
  823MOL0     H11074   8.591  10.854  11.027  2.2532  1.7672 -0.1188
  823MOL0     H11075   8.779  10.775  10.809 -0.0725  2.2996 -1.1080
  823MOL0     H11076   8.823  10.787  10.979  1.5950  0.4252 -2.3048
  823MOL0     H11077   8.754  11.019  10.985 -3.3483 -0.2771 -1.3041
  823MOL0     H11078   8.708  11.022  10.822  1.5525  3.0144  0.5580
  823MOL0     H11079   8.936  11.116  10.815  1.8924  1.4620  0.7104
  823MOL0     H11080   8.993  10.974  10.915 -1.3447  1.0817  1.3987
  823MOL0     H11081   8.887  10.937  10.634  1.9228  0.6821 -1.3417
  823MOL0     H11082   8.976  10.817  10.736 -1.9291 -0.4852 -0.5726
  823MOL0     H11083   9.172  10.946  10.744 -0.1438 -4.4497  0.4561
  823MOL0     H11084   9.123  10.899  10.577  0.1104  0.4555 -0.3312
  823MOL0     H11085   8.171  10.521  10.908 -1.9376 -0.6340  0.5243
  823MOL0     H11086   7.934  10.600  10.869  0.9356 -0.7591 -0.3860
  823MOL0     H11087   7.668  11.015  10.881 -0.6160 -0.5976  0.3234
  823MOL0     H11088   7.438  11.087  10.785  1.2497  0.2321 -0.5717
  823MOL0     H11089   6.184  10.045  11.168 -0.0556 -0.6858 -0.6145
  823MOL0     H11090   5.971   9.953  11.143 -3.3882  0.5993 -0.0741
  823MOL0     H11091   5.446  10.105  11.287 -0.2839 -0.2424 -1.4209
  823MOL0     H11092   5.228  10.018  11.223 -2.0089 -1.2912 -2.4846
  823MOL0     H11093   5.069   9.894  11.118 -0.2007 -0.2322 -0.6769
  823MOL0     H11094   5.025   9.838  11.287 -2.2223 -1.1624 -0.4891
  823MOL0     H11095   4.975   9.613  11.157  1.2469 -0.8581 -0.4515
  823MOL0     H11096   4.982   9.707  11.014  0.7771  1.2892  0.5846
  823MOL0     H11097   4.792   9.760  11.252 -2.2140  2.2425 -0.1322
  823MOL0     H11098   4.738   9.695  11.094  0.2392  0.0521 -0.1518
  823MOL0     H11099   4.843   9.983  11.147  1.1195 -0.8721 -0.6855
  823MOL0     H11100   4.796   9.899  10.991  0.4557 -1.9428  0.0199
  823MOL0     H11101   4.419   9.956  11.182  0.4009 -2.4705  2.7332
  823MOL0     H11102   5.412   9.621  11.226  0.1375 -0.6941 -1.9295
  823MOL0     H11103   5.637   9.605  11.191  3.7739  0.0615  1.6164
  823MOL0     H11104   5.741   9.750  11.175  0.4707  1.9041  1.1274
  823MOL0     H11105   5.704   9.700  11.327 -0.3646  0.7491  1.3727
  824MOL0     O11106   0.829   5.586   0.348  0.8351 -0.5586 -0.1623
  824MOL0     C11107   0.838   5.672   0.265 -0.3928  0.0815  0.5068
  824MOL0     O11108   0.960   5.735   0.238 -0.2414 -0.0803  0.0798
  824MOL0     C11109   1.067   5.706   0.319  0.0567  0.3553  0.4425
  824MOL0     C11110   1.088   5.766   0.441 -0.0253 -0.8770 -0.2897
  824MOL0     C11111   1.185   5.709   0.532 -0.4426 -0.0116  0.2025
  824MOL0     C11112   1.279   5.617   0.488 -1.2632 -0.3306 -1.2610
  824MOL0     O11113   1.377   5.569   0.566 -0.2470 -0.1522  0.1690
  824MOL0     C11114   1.419   5.640   0.678  0.2085 -0.3230  0.0398
  824MOL0     C11115   1.564   5.606   0.700 -0.3542 -0.4254  0.0594
  824MOL0     C11116   1.664   5.661   0.590  1.0712 -0.9003  0.4046
  824MOL0     C11117   1.684   5.816   0.601 -0.4932 -0.0027 -0.2274
  824MOL0     C11118   1.815   5.858   0.535 -0.8391 -0.0360 -0.5491
  824MOL0     C11119   1.930   5.814   0.624  0.3860  0.1121  1.0419
  824MOL0     C11120   2.051   5.903   0.577  0.1660  0.6577 -0.3738
  824MOL0     C11121   2.167   5.875   0.671  0.3750  0.5083  0.1830
  824MOL0     N11122   2.251   5.997   0.662 -0.4520  0.0109 -0.2783
  824MOL0     C11123   2.356   6.006   0.585 -0.5295  0.0587  0.2544
  824MOL0     C11124   2.410   6.130   0.604 -0.2706 -0.3261  0.5048
  824MOL0     C11125   2.499   6.203   0.511  0.1226 -0.4104  0.7752
  824MOL0     C11126   2.642   6.184   0.564  0.0792 -0.6114  0.3666
  824MOL0     C11127   2.668   6.233   0.707  0.4796  0.2440 -0.1180
  824MOL0     C11128   2.644   6.383   0.717  0.0592  0.1291  0.6845
  824MOL0     O11129   2.692   6.422   0.839 -0.0426  0.5140 -1.4301
  824MOL0     C11130   2.730   6.548   0.871  0.5515  1.0623 -0.5958
  824MOL0     C11131   2.808   6.551   0.989 -0.9535 -0.2916  0.0002
  824MOL0     C11132   2.856   6.673   1.040  0.4013 -0.6395 -0.0950
  824MOL0     C11133   2.801   6.792   0.984  0.2675  0.3862  0.4248
  824MOL0     C11134   2.850   6.920   1.029  0.9960  1.2858  0.5020
  824MOL0     O11135   2.827   7.025   0.941  0.6364  0.0198 -0.0719
  824MOL0     C11136   2.875   7.145   0.992  0.0388 -0.5886 -0.4469
  824MOL0     C11137   2.966   7.221   0.927  0.0848  0.0109  0.0469
  824MOL0     C11138   3.014   7.348   0.979  0.1162  0.4668 -0.3134
  824MOL0     C11139   2.957   7.389   1.098  0.9597 -0.2632  0.0757
  824MOL0     O11140   2.984   7.506   1.160 -0.0526  0.1144 -0.0687
  824MOL0     C11141   2.946   7.613   1.088 -0.6024 -0.4864 -0.8131
  824MOL0     C11142   2.802   7.652   1.115 -0.3687 -0.8152 -1.3497
  824MOL0     C11143   2.696   7.580   1.031 -0.7131 -0.2627 -1.2500
  824MOL0     C11144   2.563   7.622   1.074  0.0860 -0.8084 -1.6748
  824MOL0     C11145   2.456   7.583   0.984  0.1402  0.4782 -0.2637
  824MOL0     C11146   2.318   7.586   1.052 -0.3459  0.7664  0.1989
  824MOL0     C11147   2.286   7.490   1.173  0.1295  0.1206 -0.0958
  824MOL0     C11148   2.320   7.347   1.141 -0.6049  0.5457 -0.0427
  824MOL0    Cl11149   2.244   7.246   1.264  0.0298  0.0194 -0.1422
  824MOL0     C11150   2.866   7.311   1.166  0.9911 -0.9829 -0.2041
  824MOL0     C11151   2.823   7.193   1.116 -0.0051 -0.1400 -0.5461
  824MOL0     O11152   2.875   6.928   1.148  0.3049 -0.3424  0.0970
  824MOL0     C11153   2.715   6.782   0.871  0.2861  0.1605 -0.3137
  824MOL0     C11154   2.692   6.664   0.812  0.5387 -0.0764  0.1875
  824MOL0     N11155   2.330   6.187   0.704  0.2642  0.5345  0.1765
  824MOL0     N11156   2.231   6.111   0.738 -0.3226 -0.1569 -0.0959
  824MOL0     C11157   1.271   5.567   0.358  0.5166 -0.9867  0.1812
  824MOL0     C11158   1.165   5.613   0.275 -0.5141 -0.3108 -0.2779
  824MOL0     C11159   0.719   5.712   0.183 -0.6638  0.1500  0.0211
  824MOL0     C11160   0.743   5.798   0.083 -0.2639  0.4116  0.0446
  824MOL0     C11161   0.648   5.822  -0.013 -0.2353 -1.0376 -0.3738
  824MOL0     C11162   0.522   5.762  -0.007 -0.3377  0.3722 -0.6555
  824MOL0     O11163   0.425   5.772  -0.102  0.2608 -0.3096  0.2930
  824MOL0     C11164   0.466   5.813  -0.235 -0.4607  0.0705 -0.1725
  824MOL0     C11165   0.345   5.817  -0.330 -0.2425  0.2722 -0.0473
  824MOL0     C11166   0.237   5.712  -0.308 -0.0429  1.0571  0.1309
  824MOL0     C11167   0.121   5.728  -0.403  0.1774  0.7396 -0.0410
  824MOL0     C11168  -0.004   5.663  -0.355  0.5622  1.0405  0.1989
  824MOL0     C11169  -0.106   5.608  -0.315 -0.5797 -0.0384  0.4322
  824MOL0     C11170   0.498   5.675   0.096 -0.1124 -0.5755  0.0212
  824MOL0     C11171   0.596   5.647   0.187 -0.7650  0.3531 -0.2793
  824MOL0     C11172   0.555   5.534   0.284 -0.2293 -0.5589  0.0949
  824MOL0     H11173   1.010   5.832   0.477 -0.2103 -2.8542  3.5188
  824MOL0     H11174   1.184   5.735   0.637  1.5365 -0.0089  0.2508
  824MOL0     H11175   1.413   5.748   0.661  1.1553 -0.3705 -0.7100
  824MOL0     H11176   1.364   5.608   0.766  0.1721 -4.3312 -1.2267
  824MOL0     H11177   1.576   5.498   0.697  1.1142 -0.2908 -3.6078
  824MOL0     H11178   1.606   5.647   0.792  0.0897 -3.0683  1.1106
  824MOL0     H11179   1.628   5.639   0.488 -0.3320 -0.2449  0.7352
  824MOL0     H11180   1.759   5.611   0.608  2.5392  1.0936 -1.3224
  824MOL0     H11181   1.589   5.856   0.565 -0.6434  0.7275  0.9235
  824MOL0     H11182   1.680   5.851   0.704 -0.4112  3.6986 -1.3269
  824MOL0     H11183   1.819   5.830   0.429 -2.0171  2.3295 -1.2919
  824MOL0     H11184   1.815   5.967   0.544  0.7458  0.0425 -1.1972
  824MOL0     H11185   1.907   5.833   0.730 -4.0213  0.3741  0.2313
  824MOL0     H11186   1.946   5.708   0.604 -2.5149 -0.1107 -0.6398
  824MOL0     H11187   2.018   6.006   0.588 -0.2582  0.5255 -0.4157
  824MOL0     H11188   2.072   5.877   0.473  0.7213  0.6421 -0.2643
  824MOL0     H11189   2.132   5.862   0.774 -1.6670 -2.4770 -0.7491
  824MOL0     H11190   2.211   5.779   0.645 -1.1177  0.0708 -0.8587
  824MOL0     H11191   2.388   5.933   0.512 -1.1446 -1.4071  1.4186
  824MOL0     H11192   2.493   6.164   0.409  2.2295  3.3633 -1.0063
  824MOL0     H11193   2.469   6.308   0.507 -0.9083 -0.7250 -0.0247
  824MOL0     H11194   2.664   6.077   0.570 -1.7643 -0.9655  2.1785
  824MOL0     H11195   2.710   6.241   0.500  1.5045  0.1044  2.4116
  824MOL0     H11196   2.772   6.207   0.730 -0.1357 -0.9628  1.5519
  824MOL0     H11197   2.615   6.171   0.780  0.8694  2.0658  1.8232
  824MOL0     H11198   2.537   6.404   0.718  0.4968  3.6334 -2.1835
  824MOL0     H11199   2.697   6.438   0.638  1.0166 -1.2422  0.3193
  824MOL0     H11200   2.847   6.459   1.030  0.2379 -0.3822 -1.2543
  824MOL0     H11201   2.918   6.665   1.129 -1.1013 -2.8435  0.8465
  824MOL0     H11202   3.008   7.182   0.834 -0.3102  0.3856 -0.2896
  824MOL0     H11203   3.089   7.410   0.931  0.8355  2.4160  3.0029
  824MOL0     H11204   3.009   7.701   1.108  0.0996 -0.8018 -1.6074
  824MOL0     H11205   2.960   7.599   0.981  0.6997  1.3600 -0.9226
  824MOL0     H11206   2.772   7.637   1.219  0.0770 -1.8294 -1.3560
  824MOL0     H11207   2.794   7.759   1.094 -0.4250  0.0262  2.2454
  824MOL0     H11208   2.700   7.620   0.929 -0.5664 -0.0015 -1.1431
  824MOL0     H11209   2.711   7.472   1.026 -2.5303 -0.5162 -2.3611
  824MOL0     H11210   2.573   7.730   1.087  0.8782 -0.7244 -2.8074
  824MOL0     H11211   2.543   7.582   1.174  0.9047  0.5348 -0.9542
  824MOL0     H11212   2.475   7.477   0.961 -1.7051  0.0639 -0.0477
  824MOL0     H11213   2.470   7.642   0.893  1.9314  2.1893  1.0401
  824MOL0     H11214   2.293   7.687   1.086  0.9688  1.3575 -0.5103
  824MOL0     H11215   2.245   7.562   0.974 -0.4353 -0.8512  0.7356
  824MOL0     H11216   2.179   7.504   1.193  0.0410 -0.0972 -0.3997
  824MOL0     H11217   2.343   7.532   1.256 -0.4802  2.7913 -0.9333
  824MOL0     H11218   2.285   7.318   1.042 -0.2479  3.0833 -0.9841
  824MOL0     H11219   2.429   7.335   1.152 -0.6327  1.1190  1.0586
  824MOL0     H11220   2.816   7.359   1.250  1.2613  3.0677 -2.1285
  824MOL0     H11221   2.743   7.136   1.163 -0.7640  3.6715  3.4313
  824MOL0     H11222   2.676   6.873   0.825 -1.9276 -0.1320  0.8673
  824MOL0     H11223   2.629   6.667   0.724 -0.7882  2.0155  1.1270
  824MOL0     H11224   1.333   5.480   0.335  1.0711 -0.5625  0.0597
  824MOL0     H11225   1.141   5.559   0.185  1.1628 -0.6707 -0.5425
  824MOL0     H11226   0.841   5.840   0.064 -0.2352 -0.4700 -2.0286
  824MOL0     H11227   0.682   5.899  -0.082  0.8354  0.0180  1.2670
  824MOL0     H11228   0.535   5.743  -0.283 -0.6492  0.2736 -0.7489
  824MOL0     H11229   0.506   5.914  -0.227 -3.7565  1.7307 -2.3304
  824MOL0     H11230   0.385   5.807  -0.432  2.5940  0.6609  0.9339
  824MOL0     H11231   0.295   5.913  -0.315 -0.6162 -0.2700  2.5102
  824MOL0     H11232   0.202   5.720  -0.205  3.1434 -0.3929  1.4721
  824MOL0     H11233   0.283   5.613  -0.319  2.2291  1.9563  0.8629
  824MOL0     H11234   0.095   5.833  -0.421 -1.2477  0.0463 -2.5175
  824MOL0     H11235   0.136   5.682  -0.501 -3.7766  0.7706 -0.8283
  824MOL0     H11236  -0.199   5.564  -0.288 -0.4612  0.4690  1.7136
  824MOL0     H11237   0.399   5.632   0.091 -1.2769  2.0460 -2.3644
  824MOL0     H11238   0.448   5.521   0.304  0.1855 -1.2473  2.0532
  824MOL0     H11239   0.589   5.440   0.239  0.4229  0.4233 -1.5434
  824MOL0     H11240   0.594   5.538   0.386 -1.9743 -0.3037  0.7950
  825MOL0     O11241   3.458   5.153   0.277  0.0168  0.3064  0.1522
  825MOL0     C11242   3.412   5.264   0.238 -0.3488  0.3546  1.2404
  825MOL0     O11243   3.480   5.350   0.166 -0.3449  0.5583  0.0996
  825MOL0     C11244   3.614   5.371   0.185  0.2322 -0.9983 -0.1048
  825MOL0     C11245   3.700   5.314   0.276 -0.2598 -0.0081 -0.3951
  825MOL0     C11246   3.838   5.326   0.269  0.5912 -0.3618  0.3834
  825MOL0     C11247   3.896   5.401   0.168  0.4525  0.0579  0.1136
  825MOL0     O11248   4.027   5.430   0.154  0.1295  0.3337  0.4536
  825MOL0     C11249   4.125   5.359   0.230  0.4007  0.4980 -0.7661
  825MOL0     C11250   4.266   5.405   0.206 -0.2280  0.0195  0.0139
  825MOL0     C11251   4.380   5.353   0.304 -0.5019 -0.1278 -0.5706
  825MOL0     C11252   4.516   5.391   0.251 -0.0983 -0.2153 -0.3409
  825MOL0     C11253   4.631   5.370   0.349 -0.3515 -0.6159 -0.2253
  825MOL0     C11254   4.752   5.422   0.278 -0.2953 -0.2687  0.8644
  825MOL0     C11255   4.876   5.400   0.361  0.6454  0.1590  0.3910
  825MOL0     C11256   4.918   5.521   0.431 -0.3644  0.2943  0.7152
  825MOL0     N11257   5.041   5.487   0.508 -0.1766 -0.5287  0.1600
  825MOL0     C11258   5.168   5.487   0.460 -0.0661  0.3064  0.3027
  825MOL0     C11259   5.247   5.476   0.565 -0.7683 -0.9609 -0.8697
  825MOL0     C11260   5.396   5.481   0.557  0.6012  0.3674 -0.2095
  825MOL0     C11261   5.456   5.348   0.568 -0.6395  0.3244  0.1989
  825MOL0     C11262   5.525   5.311   0.702  0.5019  0.2545 -0.2450
  825MOL0     C11263   5.614   5.181   0.704 -0.1757  0.1605 -0.4314
  825MOL0     O11264   5.712   5.184   0.592  0.6618 -1.1792  0.1319
  825MOL0     C11265   5.789   5.071   0.566  0.4894  0.4469 -0.1552
  825MOL0     C11266   5.864   5.071   0.448  0.0336  0.1631 -0.1963
  825MOL0     C11267   5.958   4.969   0.419 -0.7065  0.5375  0.5929
  825MOL0     C11268   5.980   4.868   0.515 -0.4873 -0.0929  1.2326
  825MOL0     C11269   6.088   4.769   0.489 -0.2037 -0.0011  0.1295
  825MOL0     O11270   6.120   4.743   0.356  0.4583  0.0541  0.5145
  825MOL0     C11271   6.233   4.669   0.332  0.2571  0.6607  0.0956
  825MOL0     C11272   6.234   4.603   0.213 -0.5767  0.1053  0.4590
  825MOL0     C11273   6.346   4.539   0.168 -0.3937  0.5733 -0.3782
  825MOL0     C11274   6.469   4.534   0.239 -0.8135 -0.4471  0.1883
  825MOL0     O11275   6.590   4.473   0.194 -0.8013  0.0215 -0.0030
  825MOL0     C11276   6.598   4.422   0.064  0.4364 -0.2645 -0.1764
  825MOL0     C11277   6.706   4.334   0.017 -0.2843  0.5647 -0.2278
  825MOL0     C11278   6.849   4.399   0.025  0.6242  0.1290  0.7454
  825MOL0     C11279   6.957   4.307  -0.045 -0.1210 -0.4306 -0.1630
  825MOL0     C11280   7.099   4.348  -0.013  0.0632 -0.0163  0.8225
  825MOL0     C11281   7.143   4.477  -0.100 -0.4005  0.4313  0.0351
  825MOL0     C11282   7.295   4.510  -0.096  0.7581  0.1089 -0.7640
  825MOL0     C11283   7.322   4.643  -0.163 -0.2796 -1.0831 -0.9710
  825MOL0    Cl11284   7.497   4.634  -0.194  0.3733  0.2550 -0.0619
  825MOL0     C11285   6.463   4.608   0.365 -0.1345  0.5912  0.7745
  825MOL0     C11286   6.351   4.670   0.409 -0.6340  0.0892  0.7418
  825MOL0     O11287   6.135   4.708   0.585  0.1566  0.5659 -0.7071
  825MOL0     C11288   5.900   4.864   0.630 -0.9330 -0.0806 -0.6492
  825MOL0     C11289   5.806   4.960   0.656  0.3867 -0.8789  0.3097
  825MOL0     N11290   5.176   5.468   0.680  0.4946  0.0032 -0.0061
  825MOL0     N11291   5.049   5.489   0.643 -0.1356  0.5370 -0.5356
  825MOL0     C11292   3.814   5.466   0.076  0.4118  0.2863 -0.1021
  825MOL0     C11293   3.675   5.460   0.086 -0.3471  0.8032  0.0744
  825MOL0     C11294   3.277   5.302   0.255  1.1511  0.2102  0.5666
  825MOL0     C11295   3.194   5.187   0.258  0.4138 -0.7007  0.6820
  825MOL0     C11296   3.059   5.207   0.299  0.3292  0.7428  1.0674
  825MOL0     C11297   3.015   5.329   0.349 -0.6804  0.1312 -0.6468
  825MOL0     O11298   2.890   5.359   0.384 -0.2804 -0.2197 -0.2951
  825MOL0     C11299   2.793   5.250   0.375  0.0795 -1.4004 -0.1854
  825MOL0     C11300   2.655   5.304   0.408  0.4398  0.3668 -0.3153
  825MOL0     C11301   2.637   5.317   0.559 -0.0377  0.5008 -0.3274
  825MOL0     C11302   2.494   5.359   0.584  0.4325 -0.6066  0.6503
  825MOL0     C11303   2.474   5.468   0.685  0.8921  0.3020  0.0228
  825MOL0     C11304   2.447   5.557   0.762 -0.2450 -0.3153 -0.7916
  825MOL0     C11305   3.098   5.439   0.339 -0.1962  1.3702  0.1681
  825MOL0     C11306   3.232   5.425   0.291 -0.5054 -1.0626  0.1526
  825MOL0     C11307   3.314   5.549   0.295  0.7273  0.0405  0.0841
  825MOL0     H11308   3.659   5.247   0.352  2.6423 -1.1098  0.3608
  825MOL0     H11309   3.897   5.270   0.341  1.0197 -1.7405 -0.9974
  825MOL0     H11310   4.098   5.375   0.335  0.0368  0.1572 -0.8038
  825MOL0     H11311   4.115   5.251   0.222  0.3369  0.1420  2.7050
  825MOL0     H11312   4.266   5.514   0.217  0.0707 -0.0183  0.4270
  825MOL0     H11313   4.288   5.389   0.100 -1.7654  2.4909 -0.7749
  825MOL0     H11314   4.364   5.245   0.309 -3.1768  0.2439  1.0508
  825MOL0     H11315   4.373   5.405   0.400  2.3332 -1.3192  0.3810
  825MOL0     H11316   4.534   5.339   0.156  0.8715  0.2041 -0.4055
  825MOL0     H11317   4.509   5.498   0.230  1.1347 -0.0526  0.0098
  825MOL0     H11318   4.615   5.440   0.431  2.0096  0.8212 -0.8952
  825MOL0     H11319   4.619   5.264   0.375  1.5181 -0.5067  1.3294
  825MOL0     H11320   4.756   5.363   0.186  0.0859 -1.3092  1.5432
  825MOL0     H11321   4.750   5.527   0.246  0.2592 -0.5133 -0.0034
  825MOL0     H11322   4.961   5.356   0.309  0.7714  0.4863  0.3209
  825MOL0     H11323   4.842   5.329   0.437 -0.3675  2.6124  2.3746
  825MOL0     H11324   4.937   5.597   0.354  0.0828  0.8648  1.3743
  825MOL0     H11325   4.839   5.547   0.502 -0.4976  3.2519 -0.3639
  825MOL0     H11326   5.206   5.481   0.359 -1.9327 -0.7143 -0.3874
  825MOL0     H11327   5.413   5.526   0.459  0.1509  0.2838 -0.3297
  825MOL0     H11328   5.449   5.548   0.625  2.4045  0.5917 -1.7464
  825MOL0     H11329   5.370   5.282   0.552 -2.1438  2.5555 -1.3305
  825MOL0     H11330   5.522   5.330   0.482  2.0149 -0.6569  2.2792
  825MOL0     H11331   5.456   5.304   0.786 -0.3412  1.5853 -0.7914
  825MOL0     H11332   5.587   5.398   0.727 -0.9551  1.1959  0.2519
  825MOL0     H11333   5.558   5.087   0.696 -1.3309  0.5549  1.9286
  825MOL0     H11334   5.668   5.180   0.800  1.2118  2.3670 -1.1106
  825MOL0     H11335   5.846   5.148   0.374 -0.9973 -1.4263 -1.6623
  825MOL0     H11336   6.019   4.956   0.330 -1.2860 -2.8761  0.5535
  825MOL0     H11337   6.141   4.618   0.159 -0.5894  0.3888  0.5580
  825MOL0     H11338   6.337   4.494   0.070  0.3143  0.9429 -0.6186
  825MOL0     H11339   6.502   4.382   0.032  0.9328 -1.0234 -0.7361
  825MOL0     H11340   6.611   4.513   0.004 -0.7554  0.0280 -0.0170
  825MOL0     H11341   6.700   4.235   0.063  0.7957  0.2495 -0.7347
  825MOL0     H11342   6.678   4.335  -0.089 -1.8302  3.7357  0.0910
  825MOL0     H11343   6.852   4.495  -0.026 -0.9735 -0.6986 -1.0708
  825MOL0     H11344   6.875   4.409   0.130  0.5691 -2.4310  1.0684
  825MOL0     H11345   6.938   4.299  -0.152  1.5493  3.6876 -0.9489
  825MOL0     H11346   6.942   4.206  -0.006 -1.5728 -0.2305 -0.1298
  825MOL0     H11347   7.163   4.264  -0.039  0.5812  0.2762  1.1326
  825MOL0     H11348   7.118   4.371   0.093 -2.5454  0.5185  1.2361
  825MOL0     H11349   7.104   4.467  -0.202 -0.1789  1.7660 -0.1973
  825MOL0     H11350   7.087   4.560  -0.055 -0.3106 -0.2981  1.5476
  825MOL0     H11351   7.353   4.429  -0.142  1.0002  0.6637 -1.4443
  825MOL0     H11352   7.328   4.493   0.007  3.1138 -1.2654 -1.6750
  825MOL0     H11353   7.273   4.647  -0.261 -1.6621 -0.2977 -0.2807
  825MOL0     H11354   7.295   4.731  -0.104  1.2499 -2.3663  1.8697
  825MOL0     H11355   6.555   4.605   0.423 -0.0320 -0.1491  0.5862
  825MOL0     H11356   6.367   4.715   0.506  1.5460  1.3010 -0.1052
  825MOL0     H11357   5.899   4.781   0.700 -0.2977  2.6634  2.8950
  825MOL0     H11358   5.748   4.941   0.745 -2.0787 -2.4158 -1.5085
  825MOL0     H11359   3.865   5.528   0.003  0.6314 -0.8342 -0.9302
  825MOL0     H11360   3.608   5.503   0.013 -2.7267 -2.2527  0.2826
  825MOL0     H11361   3.231   5.091   0.223 -0.5782 -0.0722 -2.4168
  825MOL0     H11362   2.993   5.121   0.300 -0.9836  1.7005  0.4441
  825MOL0     H11363   2.822   5.162   0.433  0.8368  0.1785  1.9772
  825MOL0     H11364   2.798   5.210   0.273  1.9180 -1.9105  0.0593
  825MOL0     H11365   2.590   5.229   0.363  0.6702 -0.5482  0.8169
  825MOL0     H11366   2.655   5.398   0.352  1.1851 -1.3899 -3.4973
  825MOL0     H11367   2.709   5.388   0.600  0.9921 -0.6678 -0.0462
  825MOL0     H11368   2.654   5.217   0.600 -2.5989 -1.4625 -3.4926
  825MOL0     H11369   2.442   5.384   0.491 -2.3313 -2.2867  1.6091
  825MOL0     H11370   2.437   5.271   0.616 -0.7251 -0.4683 -0.9271
  825MOL0     H11371   2.422   5.630   0.836  2.6616  0.6758 -0.6786
  825MOL0     H11372   3.058   5.528   0.387 -2.3743 -0.3864  1.8509
  825MOL0     H11373   3.331   5.600   0.201  4.5778  0.1772  0.6844
  825MOL0     H11374   3.259   5.620   0.357 -2.0206 -2.2371  0.4592
  825MOL0     H11375   3.415   5.529   0.333  0.5510  2.4232  2.0402
  826MOL0     O11376   3.006   8.836   1.742  0.3334  0.0604  0.5783
  826MOL0     C11377   2.981   8.717   1.718 -0.8349 -0.5036 -0.4136
  826MOL0     O11378   3.070   8.629   1.659  0.3473  0.3605 -0.5858
  826MOL0     C11379   3.203   8.653   1.674 -0.3990 -0.2815  0.3307
  826MOL0     C11380   3.248   8.714   1.796  0.1670 -0.4654 -0.2833
  826MOL0     C11381   3.381   8.749   1.810 -0.2878  0.4687 -0.4010
  826MOL0     C11382   3.471   8.718   1.712 -0.9229 -0.1819  0.8550
  826MOL0     O11383   3.602   8.767   1.713  0.3799  0.8426  0.9740
  826MOL0     C11384   3.612   8.901   1.758 -0.0044 -0.5572 -0.2514
  826MOL0     C11385   3.745   8.954   1.694  0.7623  0.4818 -0.0334
  826MOL0     C11386   3.865   8.906   1.778  0.3277  0.0642  0.5483
  826MOL0     C11387   3.995   8.958   1.720  0.0324  1.2558  0.6451
  826MOL0     C11388   4.110   8.893   1.791  0.1874  0.6237  0.0438
  826MOL0     C11389   4.252   8.940   1.745  0.9252 -0.0266  0.0890
  826MOL0     C11390   4.359   8.894   1.837 -0.2001 -0.1170 -0.9171
  826MOL0     C11391   4.359   8.966   1.970  0.2392  0.4317  0.1908
  826MOL0     N11392   4.479   8.938   2.049  0.7306 -0.4370  0.5993
  826MOL0     C11393   4.531   8.811   2.074 -0.4555 -0.0562  0.5456
  826MOL0     C11394   4.649   8.839   2.134  0.2017  0.2470 -0.0615
  826MOL0     C11395   4.744   8.741   2.181 -0.2632  0.4288  0.2422
  826MOL0     C11396   4.758   8.623   2.086  0.3894  0.4432 -0.0509
  826MOL0     C11397   4.851   8.665   1.976  0.2880  0.9493 -0.7955
  826MOL0     C11398   4.862   8.556   1.863 -0.0861  0.5489 -0.5888
  826MOL0     O11399   4.919   8.430   1.903  0.4272 -0.2559 -0.5620
  826MOL0     C11400   5.056   8.411   1.912 -0.4600  0.4770  0.2027
  826MOL0     C11401   5.104   8.277   1.939  0.0866  0.4219 -0.0441
  826MOL0     C11402   5.241   8.259   1.955  0.6732 -0.1742 -0.3275
  826MOL0     C11403   5.340   8.351   1.940 -0.7985  0.4694  0.2316
  826MOL0     C11404   5.480   8.328   1.940 -0.3106  0.2746 -0.3578
  826MOL0     O11405   5.559   8.438   1.916  0.8470 -0.0101  0.1635
  826MOL0     C11406   5.691   8.418   1.892 -0.5192 -0.8697  0.3466
  826MOL0     C11407   5.790   8.338   1.956  0.4382 -0.2622  0.0759
  826MOL0     C11408   5.921   8.348   1.919  0.0934  0.0956  0.2766
  826MOL0     C11409   5.969   8.435   1.815  0.1599 -0.4961 -0.7769
  826MOL0     O11410   6.100   8.432   1.782 -0.4433 -0.3390  0.6760
  826MOL0     C11411   6.159   8.551   1.723  0.0761  0.0297 -1.0483
  826MOL0     C11412   6.310   8.541   1.750 -0.0465  0.5104  1.2533
  826MOL0     C11413   6.370   8.440   1.648 -0.3351 -0.3481  0.3366
  826MOL0     C11414   6.524   8.449   1.652  1.0022  0.1639  0.1233
  826MOL0     C11415   6.581   8.334   1.569 -0.6632 -0.0853 -0.7637
  826MOL0     C11416   6.741   8.311   1.599 -0.0200  0.0133 -0.6729
  826MOL0     C11417   6.775   8.170   1.549  0.2152  0.0922  0.5799
  826MOL0     C11418   6.929   8.147   1.566  0.2359 -0.3510 -0.0200
  826MOL0    Cl11419   6.969   7.986   1.511  0.2557 -0.1558 -0.1159
  826MOL0     C11420   5.872   8.504   1.743 -0.3492 -0.1994 -0.4301
  826MOL0     C11421   5.739   8.502   1.791  0.1104  0.2261  0.8350
  826MOL0     O11422   5.527   8.212   1.960  1.2651 -0.3014 -0.0742
  826MOL0     C11423   5.290   8.480   1.912  0.6419  0.1314 -0.2775
  826MOL0     C11424   5.149   8.508   1.900 -0.5172 -0.4480  0.7624
  826MOL0     N11425   4.669   8.977   2.156  0.7577  0.5419  0.5085
  826MOL0     N11426   4.568   9.027   2.092  0.7358  0.3452  0.0794
  826MOL0     C11427   3.429   8.648   1.597  0.3321 -0.2466  0.7331
  826MOL0     C11428   3.296   8.612   1.581  0.1810  0.7715  0.0449
  826MOL0     C11429   2.839   8.667   1.711 -0.4257  0.4961  0.1750
  826MOL0     C11430   2.812   8.530   1.666  0.1885  0.3578 -0.0110
  826MOL0     C11431   2.688   8.481   1.674  0.9853  0.1370 -0.1843
  826MOL0     C11432   2.573   8.548   1.723 -0.1150 -0.1752 -0.1952
  826MOL0     O11433   2.457   8.476   1.744 -0.2557  0.1826 -1.2372
  826MOL0     C11434   2.354   8.557   1.793  0.6082 -0.6274 -0.3214
  826MOL0     C11435   2.224   8.465   1.811  0.1677  0.0456 -0.1554
  826MOL0     C11436   2.163   8.414   1.674  0.2297  0.3688  0.0976
  826MOL0     C11437   2.050   8.311   1.707 -0.0776  0.3689 -0.6501
  826MOL0     C11438   2.007   8.218   1.597  0.7923 -0.7064  0.1081
  826MOL0     C11439   1.977   8.148   1.499  0.6898  0.3592  0.4229
  826MOL0     C11440   2.595   8.679   1.754 -0.2304 -0.7996 -1.2475
  826MOL0     C11441   2.729   8.743   1.749  0.8882  0.1374  0.5714
  826MOL0     C11442   2.736   8.880   1.799  0.1411  0.0439 -0.2524
  826MOL0     H11443   3.189   8.751   1.879  0.5358  0.5912 -0.4746
  826MOL0     H11444   3.421   8.792   1.902  3.2027 -0.2079 -1.4263
  826MOL0     H11445   3.529   8.960   1.718 -0.6987 -0.1800  1.6441
  826MOL0     H11446   3.621   8.908   1.866  2.5774 -1.5517 -0.3381
  826MOL0     H11447   3.741   9.062   1.714 -0.3170  0.5879 -0.7495
  826MOL0     H11448   3.750   8.944   1.585  3.3343  1.2780 -0.0813
  826MOL0     H11449   3.874   8.797   1.791 -0.3816  0.1840  2.3826
  826MOL0     H11450   3.849   8.948   1.878  0.9379  0.0942  0.6324
  826MOL0     H11451   3.983   8.919   1.619 -5.6142  2.9266  0.3142
  826MOL0     H11452   4.004   9.067   1.713 -0.7518  1.2749 -0.2612
  826MOL0     H11453   4.093   8.907   1.899  0.1583 -1.5053  0.3667
  826MOL0     H11454   4.111   8.785   1.773  0.2825  0.6627 -0.1878
  826MOL0     H11455   4.276   8.898   1.647  0.7952 -0.0008  0.0470
  826MOL0     H11456   4.254   9.050   1.738 -0.5634 -0.0143 -0.4852
  826MOL0     H11457   4.456   8.900   1.787  0.1671  0.5211 -0.1377
  826MOL0     H11458   4.345   8.787   1.855  1.5678  0.0098  1.7583
  826MOL0     H11459   4.361   9.075   1.955  1.6400  0.8038  2.6049
  826MOL0     H11460   4.269   8.932   2.023 -0.4058  2.0005  0.1758
  826MOL0     H11461   4.494   8.711   2.053  0.4321 -0.0073 -1.5308
  826MOL0     H11462   4.839   8.791   2.206  0.9289 -1.5808 -0.0352
  826MOL0     H11463   4.714   8.703   2.279 -0.8875 -1.2220 -0.5602
  826MOL0     H11464   4.804   8.545   2.147 -0.3941  1.3543  1.7711
  826MOL0     H11465   4.660   8.595   2.046 -0.1334 -0.1072  1.5599
  826MOL0     H11466   4.944   8.695   2.026  0.0990  1.0567 -0.5028
  826MOL0     H11467   4.820   8.760   1.931  0.9042  1.2871 -0.5250
  826MOL0     H11468   4.907   8.589   1.769 -0.8147 -0.3911 -1.2833
  826MOL0     H11469   4.761   8.537   1.824 -0.8026  0.1818  1.3079
  826MOL0     H11470   5.033   8.197   1.953  1.2192 -0.3929  1.2838
  826MOL0     H11471   5.274   8.166   2.000  1.7666  1.2672  2.0900
  826MOL0     H11472   5.770   8.276   2.044  1.8067  0.8011  1.1811
  826MOL0     H11473   5.983   8.286   1.983  1.8180  2.6995  1.3170
  826MOL0     H11474   6.145   8.557   1.615  0.5776  1.2721 -1.0605
  826MOL0     H11475   6.122   8.639   1.776  1.0266  1.0462 -2.0280
  826MOL0     H11476   6.350   8.643   1.743 -3.0185  1.7461  0.2756
  826MOL0     H11477   6.335   8.508   1.851  0.4781 -1.5843  0.4953
  826MOL0     H11478   6.334   8.341   1.674 -2.4574  1.0988  3.5798
  826MOL0     H11479   6.340   8.460   1.544  1.4236 -0.7226 -0.2738
  826MOL0     H11480   6.560   8.445   1.756  0.2790 -0.0658  0.3768
  826MOL0     H11481   6.554   8.550   1.624 -2.1029  1.1936  0.1212
  826MOL0     H11482   6.567   8.350   1.462  1.5967 -0.4242 -1.1589
  826MOL0     H11483   6.529   8.242   1.599 -0.0678 -0.4758 -0.9146
  826MOL0     H11484   6.796   8.390   1.547 -1.2253  0.9115 -0.6431
  826MOL0     H11485   6.760   8.312   1.706 -2.0204 -3.9337 -0.0799
  826MOL0     H11486   6.744   8.167   1.444  0.4659 -0.3495  0.5204
  826MOL0     H11487   6.727   8.091   1.608 -3.8900  1.1109 -1.0656
  826MOL0     H11488   6.989   8.219   1.509  2.5454 -0.7439  1.7412
  826MOL0     H11489   6.950   8.159   1.673  0.1287 -1.6787  0.1679
  826MOL0     H11490   5.901   8.559   1.654 -0.6486  1.1194  0.2641
  826MOL0     H11491   5.660   8.555   1.738 -1.6465 -0.0554  3.0006
  826MOL0     H11492   5.361   8.562   1.903 -1.9808  2.9298  2.0809
  826MOL0     H11493   5.109   8.607   1.881  0.2457 -0.5505 -1.5879
  826MOL0     H11494   3.502   8.615   1.524  0.4609  1.2149  0.1572
  826MOL0     H11495   3.243   8.554   1.505  0.2347  0.8131 -0.0245
  826MOL0     H11496   2.890   8.472   1.617 -0.1487  0.0087 -0.1427
  826MOL0     H11497   2.675   8.376   1.649  2.6583 -0.6601  2.0058
  826MOL0     H11498   2.320   8.635   1.725 -2.5199 -0.5558  1.1363
  826MOL0     H11499   2.371   8.594   1.894  1.1385  0.9366 -0.9670
  826MOL0     H11500   2.148   8.520   1.867  0.6958 -1.8353  2.5798
  826MOL0     H11501   2.250   8.378   1.871 -0.5043 -1.5393 -2.0458
  826MOL0     H11502   2.240   8.357   1.621 -0.1436 -0.5721  0.5371
  826MOL0     H11503   2.134   8.500   1.613 -0.5097 -0.5142 -0.8466
  826MOL0     H11504   2.089   8.252   1.790  2.2230  1.3552 -0.9587
  826MOL0     H11505   1.958   8.359   1.739  0.5144  0.5698  0.8256
  826MOL0     H11506   1.946   8.091   1.414  0.9244  0.5655  0.1971
  826MOL0     H11507   2.512   8.738   1.791  1.5049  0.0627  1.5207
  826MOL0     H11508   2.637   8.914   1.830  0.1172 -0.0359 -0.2427
  826MOL0     H11509   2.805   8.900   1.881 -1.5370  4.6195  0.3156
  826MOL0     H11510   2.770   8.956   1.727 -0.6493  0.8740  0.2362
  827MOL0     O11511   7.117   5.320  10.005  1.3826  0.6182 -0.5237
  827MOL0     C11512   7.064   5.418   9.953  0.8417  0.4900 -0.3457
  827MOL0     O11513   7.106   5.541   9.977 -0.2393  0.9833 -0.6083
  827MOL0     C11514   7.179   5.548  10.097 -0.5456 -1.0836  1.2221
  827MOL0     C11515   7.315   5.556  10.080 -0.3286  0.4656  0.3156
  827MOL0     C11516   7.402   5.568  10.182  0.4688 -0.1263 -0.6697
  827MOL0     C11517   7.339   5.573  10.315 -0.3801  0.2872 -0.2920
  827MOL0     O11518   7.411   5.595  10.435 -0.9528 -0.1958 -0.3458
  827MOL0     C11519   7.553   5.569  10.432  0.7686 -0.4268 -0.5364
  827MOL0     C11520   7.629   5.695  10.392 -1.0213  0.0051  0.0143
  827MOL0     C11521   7.782   5.673  10.378  0.0184 -0.3097  0.4670
  827MOL0     C11522   7.846   5.809  10.343 -0.2425 -0.0447  0.1624
  827MOL0     C11523   7.997   5.786  10.336 -0.4220  0.1654  0.1327
  827MOL0     C11524   8.071   5.899  10.267 -0.9248 -0.3959  0.2205
  827MOL0     C11525   8.219   5.848  10.249 -0.4278 -0.3508 -0.2150
  827MOL0     C11526   8.301   5.797  10.375  0.6067  0.4677 -0.4908
  827MOL0     N11527   8.439   5.782  10.320  1.0601 -0.1301 -0.8480
  827MOL0     C11528   8.549   5.866  10.345  0.2776  0.2013 -0.0331
  827MOL0     C11529   8.650   5.823  10.266 -0.3164  0.0937  0.8090
  827MOL0     C11530   8.790   5.887  10.247  0.2751 -0.5246  0.2383
  827MOL0     C11531   8.788   5.957  10.113 -0.1521 -0.4634  0.4199
  827MOL0     C11532   8.893   6.066  10.088 -0.0445 -0.2608  0.2820
  827MOL0     C11533   9.042   6.028  10.084  0.2236  0.8455 -0.1627
  827MOL0     O11534   9.124   6.122  10.008 -0.0681  0.2779  0.2425
  827MOL0     C11535   9.261   6.120  10.001 -0.2021  1.0039  0.0950
  827MOL0     C11536   9.324   6.228   9.928  0.5423 -0.2673  0.0940
  827MOL0     C11537   9.467   6.229   9.938  0.4098  0.0154  0.7743
  827MOL0     C11538   9.547   6.133  10.004 -0.4624  0.7936  0.3448
  827MOL0     C11539   9.699   6.146  10.008  0.0299 -1.4801 -0.7618
  827MOL0     O11540   9.766   6.041  10.060  0.2208  0.5324 -0.4943
  827MOL0     C11541   9.902   6.051  10.066 -0.4517 -0.1261  0.4540
  827MOL0     C11542   9.988   5.965   9.992 -0.8367  0.4445  0.1091
  827MOL0     C11543  10.121   5.973   9.985  0.4875  0.7705 -0.3839
  827MOL0     C11544  10.188   6.079  10.059  0.2955 -0.0076  0.2558
  827MOL0     O11545  10.322   6.082  10.033  0.2188  0.0793  0.2104
  827MOL0     C11546  10.405   6.182  10.090  0.0124 -0.6086  0.0915
  827MOL0     C11547  10.544   6.121  10.078  0.6418 -0.0051 -0.0329
  827MOL0     C11548  10.585   6.092   9.930  0.0746  0.4966 -0.2449
  827MOL0     C11549  10.736   6.075   9.905  0.7329  0.3148 -0.4272
  827MOL0     C11550  10.774   6.047   9.756 -0.6692 -0.2747 -0.9376
  827MOL0     C11551  10.743   6.175   9.671 -0.0022  0.5176 -0.2633
  827MOL0     C11552  10.847   6.191   9.561  0.0776 -0.3745  0.8421
  827MOL0     C11553  10.843   6.075   9.456 -0.0659  0.1132  0.1691
  827MOL0    Cl11554  10.703   6.110   9.352 -0.1677  0.5365  0.4089
  827MOL0     C11555  10.109   6.166  10.130  0.0243 -0.5439  0.4492
  827MOL0     C11556   9.968   6.153  10.132 -0.0286 -0.3813  0.7841
  827MOL0     O11557   9.742   6.257   9.972 -0.2807  0.1879 -0.1801
  827MOL0     C11558   9.482   6.031  10.071  0.0354  0.1018 -0.1001
  827MOL0     C11559   9.347   6.017  10.058  0.2276  0.2199 -0.1931
  827MOL0     N11560   8.594   5.721  10.193  0.1131 -0.2167 -0.7428
  827MOL0     N11561   8.467   5.696  10.214  0.0820 -0.0246 -0.2815
  827MOL0     C11562   7.206   5.567  10.329  1.0668  0.1951 -1.0019
  827MOL0     C11563   7.120   5.554  10.223 -0.5006 -0.4730 -0.4152
  827MOL0     C11564   6.941   5.402   9.857 -0.0860 -0.0147  0.0627
  827MOL0     C11565   6.879   5.516   9.817 -0.8334  0.0482  0.5025
  827MOL0     C11566   6.760   5.521   9.749 -0.0111  0.3650  0.0223
  827MOL0     C11567   6.694   5.398   9.713 -0.1699 -0.5771  0.2466
  827MOL0     O11568   6.567   5.400   9.656 -0.3893  0.9043 -0.4211
  827MOL0     C11569   6.479   5.285   9.660 -0.5970  0.5284  0.3948
  827MOL0     C11570   6.338   5.325   9.638  0.8290  0.7087  0.0933
  827MOL0     C11571   6.327   5.385   9.499 -0.2914  0.4616  0.1366
  827MOL0     C11572   6.191   5.451   9.452 -0.6302  1.0364  0.4447
  827MOL0     C11573   6.201   5.533   9.332  0.1590  0.0750 -0.2898
  827MOL0     C11574   6.210   5.614   9.235 -0.6921 -0.2955 -0.6165
  827MOL0     C11575   6.753   5.280   9.748 -0.4539  0.3950 -0.4566
  827MOL0     C11576   6.877   5.273   9.821 -0.1129  0.4331 -0.7548
  827MOL0     C11577   6.915   5.139   9.873 -0.1579 -0.3249  0.0366
  827MOL0     H11578   7.351   5.542   9.978 -2.4592 -2.4627 -0.1797
  827MOL0     H11579   7.508   5.568  10.161  0.4799 -2.8977 -1.0776
  827MOL0     H11580   7.586   5.535  10.531 -2.3588  0.9154  1.1327
  827MOL0     H11581   7.577   5.485  10.366  0.5719 -1.8010  1.0660
  827MOL0     H11582   7.636   5.763  10.476  0.1417 -1.0563  0.8127
  827MOL0     H11583   7.573   5.756  10.320  0.3942  1.4652  0.1244
  827MOL0     H11584   7.805   5.606  10.294 -2.0642 -0.1215 -0.3125
  827MOL0     H11585   7.819   5.632  10.472  0.4239 -3.1999 -0.8274
  827MOL0     H11586   7.807   5.843  10.247  0.2865  3.1698  0.9793
  827MOL0     H11587   7.833   5.882  10.423 -0.5427 -2.3550  2.3280
  827MOL0     H11588   8.043   5.779  10.436 -1.9856 -1.7974  0.7800
  827MOL0     H11589   8.016   5.692  10.284 -0.1281 -0.2032  0.8913
  827MOL0     H11590   8.018   5.930  10.176  0.5570  1.0489 -0.1972
  827MOL0     H11591   8.091   5.986  10.331  1.2039 -0.7838  0.1244
  827MOL0     H11592   8.269   5.930  10.197 -1.1975  1.0214  1.1556
  827MOL0     H11593   8.227   5.760  10.184  2.1541 -1.9515  2.0225
  827MOL0     H11594   8.283   5.864  10.460  1.1568  1.3015 -1.0062
  827MOL0     H11595   8.267   5.697  10.402  0.8335  0.5581  0.1550
  827MOL0     H11596   8.556   5.950  10.412  1.1001  0.0120  0.1296
  827MOL0     H11597   8.817   5.963  10.321  1.7631  0.7261 -1.4881
  827MOL0     H11598   8.860   5.804  10.258  0.5497 -0.3722 -0.2889
  827MOL0     H11599   8.787   5.884  10.032  2.2223  0.6299 -0.7050
  827MOL0     H11600   8.698   6.017  10.098 -0.8322 -1.7373 -0.7610
  827MOL0     H11601   8.874   6.152  10.153  2.7770  1.0463 -0.4722
  827MOL0     H11602   8.875   6.105   9.987  2.0179 -0.8205 -0.3460
  827MOL0     H11603   9.059   5.926  10.046 -0.3944 -0.1868  2.1962
  827MOL0     H11604   9.075   6.014  10.187  1.1869  0.9164 -0.4455
  827MOL0     H11605   9.277   6.311   9.877  0.2175  0.7978  2.0098
  827MOL0     H11606   9.513   6.314   9.889  1.3094 -0.7938  0.1724
  827MOL0     H11607   9.962   5.878   9.932  1.0883  1.1831 -1.9488
  827MOL0     H11608  10.178   5.905   9.923 -3.3434 -1.1383 -2.0706
  827MOL0     H11609  10.402   6.277  10.038 -1.0756 -1.0524 -0.6950
  827MOL0     H11610  10.369   6.209  10.190  0.9424  3.0211 -0.4396
  827MOL0     H11611  10.619   6.186  10.124  2.8402 -1.5851 -1.1934
  827MOL0     H11612  10.542   6.025  10.131 -2.6166 -1.1274 -1.8922
  827MOL0     H11613  10.525   6.011   9.888  1.8648 -0.4220 -1.1357
  827MOL0     H11614  10.553   6.179   9.872  1.0190 -0.3503 -2.1221
  827MOL0     H11615  10.769   5.993   9.969  3.5722  1.6891  0.0067
  827MOL0     H11616  10.779   6.171   9.933  1.7316 -0.3649  0.4405
  827MOL0     H11617  10.728   5.954   9.723  1.3529 -1.5424 -0.3779
  827MOL0     H11618  10.883   6.037   9.758 -0.2989  2.7330  1.2141
  827MOL0     H11619  10.641   6.170   9.631 -1.1449  0.8181  2.3915
  827MOL0     H11620  10.752   6.261   9.739 -0.4299 -0.1319  0.6285
  827MOL0     H11621  10.947   6.209   9.602 -0.3464  3.1267  0.6118
  827MOL0     H11622  10.823   6.282   9.504  2.2070  0.6454  1.4777
  827MOL0     H11623  10.933   6.080   9.394  0.8658 -2.0238  1.2340
  827MOL0     H11624  10.823   5.977   9.499 -1.6241  0.5466  0.4997
  827MOL0     H11625  10.152   6.258  10.169  0.0831  1.2627 -3.4171
  827MOL0     H11626   9.901   6.228  10.173 -1.2374 -0.3585 -1.1188
  827MOL0     H11627   9.536   5.954  10.126 -2.8436 -0.7175  1.7993
  827MOL0     H11628   9.313   5.926  10.105  3.7145 -1.6902 -1.0738
  827MOL0     H11629   7.166   5.558  10.430 -0.6283  0.1756 -1.6297
  827MOL0     H11630   7.013   5.537  10.233 -0.6950 -0.4598 -2.0992
  827MOL0     H11631   6.918   5.612   9.848 -0.0231  1.2973 -3.7534
  827MOL0     H11632   6.725   5.610   9.697 -0.6598 -0.4523 -0.9956
  827MOL0     H11633   6.477   5.233   9.756 -2.1465  1.4506  0.9033
  827MOL0     H11634   6.509   5.222   9.575 -3.8017 -0.7737  0.0735
  827MOL0     H11635   6.305   5.378   9.727 -0.3854 -3.6887  2.5484
  827MOL0     H11636   6.283   5.231   9.635  1.4739  0.3433 -1.1707
  827MOL0     H11637   6.337   5.301   9.429 -1.0609  0.0982  0.4532
  827MOL0     H11638   6.404   5.462   9.492  0.1074  0.0185 -0.4919
  827MOL0     H11639   6.117   5.372   9.434  1.0300 -0.2838 -1.0304
  827MOL0     H11640   6.142   5.512   9.528 -1.0037 -0.9332  1.8583
  827MOL0     H11641   6.199   5.691   9.161  2.1831 -0.2241 -1.0925
  827MOL0     H11642   6.701   5.186   9.729  0.6088 -0.0522 -1.2845
  827MOL0     H11643   7.015   5.122   9.832 -1.2479 -2.1101 -2.0760
  827MOL0     H11644   6.926   5.136   9.982  0.2794 -1.0482 -0.0216
  827MOL0     H11645   6.844   5.059   9.847 -0.7326 -0.8466  2.9086
  828MOL0     O11646  10.827   9.361  10.293  0.2762  0.1956  0.2779
  828MOL0     C11647  10.781   9.464  10.337 -0.3961  0.5050  0.3068
  828MOL0     O11648  10.851   9.571  10.377 -0.5325  0.5913 -1.1185
  828MOL0     C11649  10.985   9.559  10.411  0.1184 -0.1651 -0.6915
  828MOL0     C11650  11.078   9.506  10.324  0.1252 -0.4211  0.9084
  828MOL0     C11651  11.211   9.507  10.355  0.0870 -0.0231 -0.5817
  828MOL0     C11652  11.259   9.562  10.478 -0.2835  0.2782  0.7639
  828MOL0     O11653  11.387   9.585  10.494  0.1837  0.0772  0.1190
  828MOL0     C11654  11.436   9.581  10.631 -0.2362 -0.2303  0.0183
  828MOL0     C11655  11.571   9.514  10.638 -0.6589  0.4618 -0.0922
  828MOL0     C11656  11.691   9.611  10.647  0.5162 -0.0694 -0.1668
  828MOL0     C11657  11.820   9.545  10.697  0.0996 -0.3057  0.8867
  828MOL0     C11658  11.946   9.634  10.726  0.1936  0.1730  0.7407
  828MOL0     C11659  11.928   9.729  10.842 -0.4269  0.1917  0.1025
  828MOL0     C11660  12.058   9.800  10.869  0.1204  0.0985 -0.0435
  828MOL0     C11661  12.147   9.716  10.970 -0.9821 -0.4021  0.9383
  828MOL0     N11662  12.282   9.766  10.989 -0.2900  0.4566 -0.2302
  828MOL0     C11663  12.311   9.879  11.060 -0.4765  0.5592  0.6581
  828MOL0     C11664  12.444   9.885  11.069  0.1850 -0.7203  0.1558
  828MOL0     C11665  12.517  10.004  11.126  0.4252  0.6437 -0.2475
  828MOL0     C11666  12.638   9.961  11.198 -0.5339  0.2258 -0.9941
  828MOL0     C11667  12.616   9.915  11.348  0.8385  0.5952  0.2968
  828MOL0     C11668  12.747   9.855  11.401 -0.4210  0.7234  0.8059
  828MOL0     O11669  12.799   9.747  11.328  0.4716 -0.1289 -0.2998
  828MOL0     C11670  12.928   9.750  11.279 -0.1701 -0.5589 -0.2678
  828MOL0     C11671  12.974   9.669  11.178 -0.2214  0.4079 -0.3649
  828MOL0     C11672  13.112   9.657  11.146  0.8128  0.1321  0.3973
  828MOL0     C11673  13.208   9.737  11.206 -0.6254 -0.6201 -0.7302
  828MOL0     C11674  13.349   9.729  11.166 -0.5711 -0.4648  0.7168
  828MOL0     O11675  13.424   9.836  11.168  0.7275  0.0552 -0.0607
  828MOL0     C11676  13.544   9.832  11.105  0.8630 -0.0149  0.5983
  828MOL0     C11677  13.556   9.790  10.971 -0.6031  0.1190  0.0597
  828MOL0     C11678  13.678   9.787  10.904 -0.4550 -1.3019  0.1145
  828MOL0     C11679  13.794   9.806  10.982  0.5045  0.3188  0.6778
  828MOL0     O11680  13.917   9.783  10.914  0.5970  0.2330  0.1513
  828MOL0     C11681  14.032   9.853  10.974  0.4693  0.4562 -1.0452
  828MOL0     C11682  14.148   9.833  10.873  0.2625 -0.1618  0.1616
  828MOL0     C11683  14.280   9.843  10.938 -0.4430 -0.0133 -0.6626
  828MOL0     C11684  14.374   9.744  10.878 -0.1142  0.7494  0.2054
  828MOL0     C11685  14.500   9.727  10.961 -0.7244 -0.5856  0.2317
  828MOL0     C11686  14.624   9.661  10.887 -0.5743  0.4117 -0.2095
  828MOL0     C11687  14.752   9.650  10.967 -0.0982  0.2722 -0.0693
  828MOL0     C11688  14.855   9.562  10.905 -0.2428 -0.5198  0.2220
  828MOL0    Cl11689  15.011   9.592  10.981 -0.2444  0.3894 -0.3377
  828MOL0     C11690  13.780   9.836  11.116  0.5289  0.0460 -0.1376
  828MOL0     C11691  13.652   9.861  11.178 -0.2020 -0.0473 -0.8319
  828MOL0     O11692  13.384   9.622  11.121 -0.0121 -0.2963 -0.1610
  828MOL0     C11693  13.170   9.812  11.315 -0.6092  0.6714  0.1977
  828MOL0     C11694  13.036   9.816  11.350  0.1015  0.8550 -0.2681
  828MOL0     N11695  12.491   9.775  11.000 -0.5034 -0.9743 -0.0078
  828MOL0     N11696  12.397   9.702  10.965  0.4711 -0.1143 -0.6430
  828MOL0     C11697  11.159   9.622  10.562 -0.2166  0.0149 -0.3613
  828MOL0     C11698  11.028   9.620  10.531 -0.2307  0.1202 -0.1030
  828MOL0     C11699  10.635   9.479  10.318  0.1179  0.6084  0.5901
  828MOL0     C11700  10.577   9.388  10.226 -0.2973 -0.8662  0.1229
  828MOL0     C11701  10.448   9.385  10.206  0.7943 -0.2533  0.2972
  828MOL0     C11702  10.360   9.463  10.289  0.0403  0.2850  0.0308
  828MOL0     O11703  10.222   9.452  10.277  0.1688 -0.3616 -0.8584
  828MOL0     C11704  10.143   9.574  10.241  0.0433  0.1818 -0.3618
  828MOL0     C11705  10.105   9.563  10.097 -0.1015  0.3040 -0.2957
  828MOL0     C11706   9.963   9.607  10.069  0.3691 -0.5136 -0.1756
  828MOL0     C11707   9.940   9.603   9.914  0.2377 -0.0223 -0.6003
  828MOL0     C11708  10.024   9.683   9.831 -0.0389 -0.7931 -0.4289
  828MOL0     C11709  10.105   9.760   9.773  0.2203 -0.3370  0.4900
  828MOL0     C11710  10.421   9.555  10.376  0.5109 -0.2854 -0.6123
  828MOL0     C11711  10.557   9.563  10.400  0.4360  0.7848  0.2277
  828MOL0     C11712  10.601   9.650  10.514 -0.5973 -0.1467  1.2307
  828MOL0     H11713  11.045   9.481  10.224  4.2885  0.3185 -0.8267
  828MOL0     H11714  11.285   9.461  10.290 -0.3828 -1.2767 -0.2546
  828MOL0     H11715  11.448   9.681  10.672 -0.6146 -0.8798  1.8225
  828MOL0     H11716  11.370   9.526  10.699 -1.3951  0.8992 -0.1516
  828MOL0     H11717  11.593   9.455  10.549 -0.6743 -2.5797  1.7532
  828MOL0     H11718  11.582   9.444  10.722 -0.4187  1.9124  1.1209
  828MOL0     H11719  11.662   9.689  10.718  0.4537  1.6585 -2.0075
  828MOL0     H11720  11.709   9.656  10.549 -0.5425  0.8603  0.0352
  828MOL0     H11721  11.810   9.495  10.793 -0.1048 -1.8118  0.1040
  828MOL0     H11722  11.853   9.477  10.618  1.3676  0.9281  0.3003
  828MOL0     H11723  12.034   9.570  10.742  0.9345  1.1922  0.8279
  828MOL0     H11724  11.961   9.694  10.636 -1.4041  0.3264  0.5560
  828MOL0     H11725  11.845   9.796  10.819 -1.1534 -1.4615 -2.5245
  828MOL0     H11726  11.903   9.671  10.931 -1.8149  2.9115  1.6143
  828MOL0     H11727  12.020   9.891  10.916 -2.6377 -0.0920 -1.7068
  828MOL0     H11728  12.118   9.829  10.783 -0.0264 -0.0413 -0.1919
  828MOL0     H11729  12.095   9.725  11.066  2.0806  0.9762  2.5944
  828MOL0     H11730  12.150   9.611  10.939 -1.5290 -1.1019  3.0787
  828MOL0     H11731  12.242   9.950  11.104 -3.5557 -1.7307 -0.1173
  828MOL0     H11732  12.540  10.072  11.044  0.1762  1.2728  0.1915
  828MOL0     H11733  12.454  10.073  11.183  0.3005  1.1236 -0.9500
  828MOL0     H11734  12.688   9.881  11.142  1.7520 -1.2773  2.7782
  828MOL0     H11735  12.706  10.045  11.214  1.2657 -1.4311  0.6745
  828MOL0     H11736  12.539   9.838  11.354  0.3611  0.9110 -1.2984
  828MOL0     H11737  12.579  10.002  11.404 -2.9992 -0.4181 -0.4270
  828MOL0     H11738  12.709   9.828  11.500 -1.5749  0.0992  0.2096
  828MOL0     H11739  12.818   9.937  11.414 -0.0242  0.6852 -0.9148
  828MOL0     H11740  12.909   9.600  11.126 -0.3399  1.1070 -1.1714
  828MOL0     H11741  13.140   9.581  11.073 -0.9389 -0.8479  0.6755
  828MOL0     H11742  13.471   9.779  10.903  0.1713  2.4848 -1.3919
  828MOL0     H11743  13.681   9.763  10.798 -0.7271  1.2310 -0.5317
  828MOL0     H11744  14.011   9.959  10.995  3.1301  0.3431  3.7575
  828MOL0     H11745  14.046   9.804  11.071  0.6314  1.2133 -0.6786
  828MOL0     H11746  14.141   9.742  10.811  2.1785 -0.5881  0.4944
  828MOL0     H11747  14.153   9.908  10.793  3.3676 -1.1053 -0.6846
  828MOL0     H11748  14.308   9.948  10.922  0.3277  0.2776  2.1082
  828MOL0     H11749  14.273   9.816  11.044  0.7101  0.2536 -0.5009
  828MOL0     H11750  14.399   9.781  10.778 -2.6285  2.8913  0.2738
  828MOL0     H11751  14.337   9.641  10.878  1.1420  0.2587  1.2500
  828MOL0     H11752  14.475   9.667  11.049 -3.2330  1.0283  0.7472
  828MOL0     H11753  14.531   9.830  10.982 -1.8094  0.0588 -1.2107
  828MOL0     H11754  14.599   9.559  10.855 -0.1148 -0.0650  0.9019
  828MOL0     H11755  14.649   9.716  10.795  0.9094  2.1638  1.1721
  828MOL0     H11756  14.730   9.610  11.067 -2.3621 -1.1143 -1.0446
  828MOL0     H11757  14.796   9.749  10.984  1.6170 -0.7741  2.1228
  828MOL0     H11758  14.820   9.458  10.905  2.0453 -1.3404  0.2224
  828MOL0     H11759  14.874   9.591  10.801  0.7970  0.1987  0.5999
  828MOL0     H11760  13.871   9.836  11.175  0.5675  0.0987 -0.1969
  828MOL0     H11761  13.637   9.891  11.281 -0.1016  0.1606 -0.8793
  828MOL0     H11762  13.239   9.851  11.389  0.0796  0.1850 -0.1706
  828MOL0     H11763  13.009   9.881  11.432  0.1710  0.9563 -0.3256
  828MOL0     H11764  11.180   9.678  10.653  0.3989 -1.6728  0.5956
  828MOL0     H11765  10.953   9.673  10.589 -2.6980  1.5157 -4.1203
  828MOL0     H11766  10.632   9.330  10.153 -1.6975 -2.4848  0.2766
  828MOL0     H11767  10.401   9.313  10.140 -1.5967  0.3944  1.1943
  828MOL0     H11768  10.192   9.668  10.269 -0.0952 -0.2013  1.2217
  828MOL0     H11769  10.052   9.563  10.300  0.1052  0.1784 -0.2669
  828MOL0     H11770  10.115   9.462  10.056 -2.8680  0.6686 -2.1219
  828MOL0     H11771  10.168   9.626  10.034 -0.8357  0.7946 -0.5622
  828MOL0     H11772   9.950   9.706  10.113 -1.5278 -1.3914  1.3753
  828MOL0     H11773   9.889   9.541  10.116 -0.3522 -0.3062 -0.9934
  828MOL0     H11774   9.946   9.500   9.878  1.4021 -0.5373  0.9575
  828MOL0     H11775   9.837   9.630   9.890 -0.9284 -1.6338  2.0951
  828MOL0     H11776  10.185   9.823   9.739 -1.1334  1.5550  0.6288
  828MOL0     H11777  10.353   9.618  10.433  0.5354  0.7197 -1.6572
  828MOL0     H11778  10.517   9.706  10.556 -0.9267 -2.1845  3.5165
  828MOL0     H11779  10.647   9.591  10.594 -1.2974 -2.1643  0.2107
  828MOL0     H11780  10.674   9.717  10.467 -0.9758 -0.7851 -0.3174
  829MOL0     O11781   8.195   6.771  11.149 -0.7117  0.1656 -0.2511
  829MOL0     C11782   8.220   6.834  11.255  0.0834  0.6856 -0.7099
  829MOL0     O11783   8.322   6.908  11.286  1.1643 -0.0357 -0.0385
  829MOL0     C11784   8.439   6.896  11.222  0.3714 -0.2248  0.1566
  829MOL0     C11785   8.454   6.941  11.090  0.2165  0.1171 -0.2598
  829MOL0     C11786   8.578   6.944  11.033 -0.1901  0.0378  0.3469
  829MOL0     C11787   8.693   6.908  11.101  0.0208 -0.3817  0.8863
  829MOL0     O11788   8.809   6.919  11.031 -0.2894 -0.4723 -0.5449
  829MOL0     C11789   8.926   6.892  11.117  0.2090 -0.1196 -0.5227
  829MOL0     C11790   9.056   6.923  11.042  0.1777  1.2570  0.0833
  829MOL0     C11791   9.184   6.868  11.119  0.6286 -0.1524  0.3998
  829MOL0     C11792   9.319   6.899  11.047  0.1999 -0.7198 -0.5857
  829MOL0     C11793   9.436   6.843  11.125 -0.2011 -0.2120 -0.3890
  829MOL0     C11794   9.461   6.682  11.120 -0.3351 -0.2864 -0.5394
  829MOL0     C11795   9.584   6.650  11.194  0.4048  0.8253  0.8946
  829MOL0     C11796   9.623   6.503  11.207  0.8728 -0.2804  0.1497
  829MOL0     N11797   9.738   6.470  11.303 -0.7919 -0.5149  0.9851
  829MOL0     C11798   9.840   6.557  11.348  0.3374 -0.1913  0.3431
  829MOL0     C11799   9.904   6.502  11.447 -0.5313  0.0796 -0.6421
  829MOL0     C11800  10.014   6.563  11.532 -0.0774  0.4673 -0.2534
  829MOL0     C11801  10.131   6.475  11.563  0.9835  0.1763 -1.0838
  829MOL0     C11802  10.199   6.398  11.446 -0.7202 -0.2543 -0.2274
  829MOL0     C11803  10.255   6.482  11.325  0.2277 -0.0038 -0.1947
  829MOL0     O11804  10.340   6.585  11.382 -0.3185 -0.0531  0.1510
  829MOL0     C11805  10.471   6.567  11.371 -0.1162 -0.4036  0.4517
  829MOL0     C11806  10.540   6.531  11.253  0.1744 -0.3524 -0.8366
  829MOL0     C11807  10.677   6.532  11.255  0.7241 -0.2541 -0.2305
  829MOL0     C11808  10.752   6.568  11.363  0.4646  0.0489  0.2556
  829MOL0     C11809  10.906   6.577  11.355 -0.1508  0.6506 -0.5139
  829MOL0     O11810  10.974   6.540  11.245  0.2690 -0.1139 -0.0566
  829MOL0     C11811  11.107   6.566  11.228 -1.2439 -0.4739 -0.2245
  829MOL0     C11812  11.194   6.455  11.234  0.3921  0.1819 -0.0366
  829MOL0     C11813  11.323   6.454  11.186  0.1707 -0.2033  0.0929
  829MOL0     C11814  11.379   6.570  11.146 -0.3385  0.6530  0.2976
  829MOL0     O11815  11.506   6.587  11.107  0.3787  0.0154  0.4665
  829MOL0     C11816  11.603   6.483  11.145  0.0705  0.1479  0.2311
  829MOL0     C11817  11.745   6.496  11.096 -0.2065 -0.5567 -0.1882
  829MOL0     C11818  11.753   6.515  10.942 -0.3057  0.8126 -0.7411
  829MOL0     C11819  11.891   6.562  10.902 -0.2240 -0.4847  0.2172
  829MOL0     C11820  11.990   6.455  10.897  0.2174  0.6491  0.5172
  829MOL0     C11821  12.116   6.514  10.818 -0.6048  0.3534  0.3248
  829MOL0     C11822  12.229   6.411  10.787  0.1225 -0.7923 -0.0446
  829MOL0     C11823  12.339   6.444  10.674 -0.2488 -0.3347  0.0683
  829MOL0    Cl11824  12.425   6.578  10.745 -0.2188 -0.2758  0.0407
  829MOL0     C11825  11.296   6.681  11.145 -0.4970  0.5352  1.3262
  829MOL0     C11826  11.163   6.688  11.181 -0.9294 -0.2073 -0.8925
  829MOL0     O11827  10.959   6.629  11.452 -0.0196  0.0529  0.0117
  829MOL0     C11828  10.687   6.588  11.483 -0.1511 -0.3576 -0.3901
  829MOL0     C11829  10.548   6.588  11.490 -0.0839 -0.3888  0.6954
  829MOL0     N11830   9.856   6.372  11.448  0.2703  0.3368  0.5140
  829MOL0     N11831   9.761   6.349  11.360  0.2513 -0.2218 -0.0823
  829MOL0     C11832   8.681   6.839  11.228  0.1601 -0.4918  0.2076
  829MOL0     C11833   8.555   6.835  11.290 -0.1659  0.7509  0.4910
  829MOL0     C11834   8.122   6.820  11.363 -0.1565  0.8787  0.2733
  829MOL0     C11835   7.996   6.757  11.340 -0.1319  0.1273  0.2958
  829MOL0     C11836   7.903   6.731  11.440 -0.2975  0.9192  0.6724
  829MOL0     C11837   7.937   6.746  11.573 -0.2503 -0.2630 -0.2197
  829MOL0     O11838   7.835   6.727  11.665  0.2839 -0.6361 -0.4324
  829MOL0     C11839   7.847   6.808  11.785 -1.0651  0.2025  0.5236
  829MOL0     C11840   7.716   6.816  11.859  0.6124  0.3064 -0.2416
  829MOL0     C11841   7.595   6.896  11.798  0.8898  0.6585 -0.6577
  829MOL0     C11842   7.560   6.858  11.652 -0.2880  0.8618  0.2729
  829MOL0     C11843   7.460   6.938  11.583 -0.2208  0.5854 -0.2018
  829MOL0     C11844   7.397   7.023  11.531  0.0089 -0.6300  0.6957
  829MOL0     C11845   8.067   6.797  11.596 -0.6463 -0.0204 -0.6782
  829MOL0     C11846   8.157   6.832  11.499  0.1139  0.4460 -0.0739
  829MOL0     C11847   8.291   6.876  11.559  0.7203 -0.1794 -0.1767
  829MOL0     H11848   8.367   6.981  11.038  0.0494 -0.4295 -0.4088
  829MOL0     H11849   8.597   6.987  10.935  0.2337  1.4080  1.0108
  829MOL0     H11850   8.924   6.942  11.215 -0.0536  0.0360 -0.6090
  829MOL0     H11851   8.925   6.784  11.134 -1.3015 -0.1410 -0.6890
  829MOL0     H11852   9.071   7.029  11.022  2.1193  0.7741 -1.4043
  829MOL0     H11853   9.062   6.868  10.947  2.9104  0.2319  0.7400
  829MOL0     H11854   9.172   6.759  11.124  0.2592 -0.1319  0.0413
  829MOL0     H11855   9.187   6.913  11.218  0.1141  0.4890  0.1278
  829MOL0     H11856   9.312   6.869  10.942 -0.1340  0.4047 -0.8974
  829MOL0     H11857   9.330   7.008  11.045 -1.0967 -0.4585  2.0702
  829MOL0     H11858   9.522   6.897  11.084  0.2412 -0.4593  0.1888
  829MOL0     H11859   9.412   6.889  11.221 -0.7727  4.9979 -2.7272
  829MOL0     H11860   9.374   6.626  11.156 -0.7444  0.1460 -0.8368
  829MOL0     H11861   9.470   6.638  11.020  1.6757 -0.8298 -0.1524
  829MOL0     H11862   9.562   6.686  11.295 -0.4650  1.7785  0.3912
  829MOL0     H11863   9.664   6.699  11.137  1.1604 -0.1731  1.0773
  829MOL0     H11864   9.537   6.454  11.254 -1.6281  2.7463 -0.9074
  829MOL0     H11865   9.625   6.445  11.114 -1.1737 -1.5230  0.8158
  829MOL0     H11866   9.851   6.664  11.330  0.0267 -0.5567 -2.5433
  829MOL0     H11867  10.043   6.656  11.482  1.6360 -0.7154 -1.5644
  829MOL0     H11868   9.978   6.573  11.635  0.8304 -0.8975  0.2202
  829MOL0     H11869  10.199   6.535  11.624  0.5598  0.3089 -0.7337
  829MOL0     H11870  10.094   6.397  11.630 -0.9908 -0.4525 -2.8228
  829MOL0     H11871  10.121   6.325  11.421 -2.9933  1.0545  2.4809
  829MOL0     H11872  10.279   6.340  11.495 -0.6637 -1.0501 -1.2148
  829MOL0     H11873  10.172   6.534  11.277  0.5355  2.2296  1.4789
  829MOL0     H11874  10.304   6.415  11.255 -0.0945 -2.8431  2.1130
  829MOL0     H11875  10.496   6.506  11.157  4.2920 -2.2586 -2.4905
  829MOL0     H11876  10.719   6.516  11.156  0.3913  0.0000 -0.4168
  829MOL0     H11877  11.151   6.359  11.262 -1.1402 -0.0947 -2.9378
  829MOL0     H11878  11.374   6.358  11.186 -0.2679 -0.4891 -2.1788
  829MOL0     H11879  11.612   6.473  11.254  0.0366  1.3403  0.3593
  829MOL0     H11880  11.569   6.391  11.098  1.3234  0.8219 -2.1348
  829MOL0     H11881  11.785   6.585  11.146 -2.2182  1.1808 -1.4868
  829MOL0     H11882  11.794   6.405  11.132  1.8939  0.9650  1.0407
  829MOL0     H11883  11.731   6.424  10.887 -0.7497 -1.2600  2.5853
  829MOL0     H11884  11.677   6.590  10.922 -1.3215  0.5041  1.6527
  829MOL0     H11885  11.925   6.634  10.977 -2.7300  0.8705  0.1597
  829MOL0     H11886  11.892   6.605  10.801 -1.2762 -2.0729 -0.5187
  829MOL0     H11887  11.945   6.366  10.854  0.6351 -0.1952  1.7810
  829MOL0     H11888  12.017   6.433  11.001  0.8956 -0.8128  0.0569
  829MOL0     H11889  12.084   6.553  10.721 -1.1424  1.1806  0.8211
  829MOL0     H11890  12.158   6.602  10.868  1.6178  0.7430 -2.0268
  829MOL0     H11891  12.188   6.311  10.766  2.0614 -1.5451 -0.4521
  829MOL0     H11892  12.281   6.387  10.881  2.0949 -1.3906 -1.2306
  829MOL0     H11893  12.409   6.362  10.657  0.0816 -0.1494  0.5048
  829MOL0     H11894  12.291   6.476  10.581  3.0134 -0.2540 -1.7170
  829MOL0     H11895  11.340   6.776  11.112  1.0148 -0.3521  0.6704
  829MOL0     H11896  11.113   6.784  11.169  0.7741  0.7541 -0.6051
  829MOL0     H11897  10.740   6.614  11.574 -4.3800  1.3333  1.8660
  829MOL0     H11898  10.510   6.630  11.583  1.7880  2.5121  0.2878
  829MOL0     H11899   8.764   6.789  11.277  1.8877 -0.4092 -2.4303
  829MOL0     H11900   8.552   6.795  11.390 -5.6481  2.2608  1.2893
  829MOL0     H11901   7.971   6.743  11.235  1.0172 -0.5343  0.0894
  829MOL0     H11902   7.813   6.680  11.409  2.0847 -1.1057 -3.8007
  829MOL0     H11903   7.874   6.911  11.758 -0.9587 -0.3182 -1.4760
  829MOL0     H11904   7.923   6.763  11.849 -1.4280  1.2121  1.7169
  829MOL0     H11905   7.744   6.859  11.956  0.7158  1.6599 -0.8420
  829MOL0     H11906   7.684   6.713  11.874 -0.6212  0.7319  0.2146
  829MOL0     H11907   7.602   7.004  11.808  0.6936  0.4835  2.6697
  829MOL0     H11908   7.505   6.869  11.853  0.5282  0.4734 -1.3355
  829MOL0     H11909   7.652   6.856  11.593 -0.3840 -1.4294  0.1180
  829MOL0     H11910   7.516   6.758  11.651 -2.3719  1.6328 -2.9324
  829MOL0     H11911   7.333   7.100  11.492  0.2153 -2.0845 -2.9182
  829MOL0     H11912   8.099   6.815  11.698  0.2758  2.0158 -1.2787
  829MOL0     H11913   8.318   6.982  11.552  0.1240  0.0566  0.9163
  829MOL0     H11914   8.295   6.849  11.665 -1.5219 -1.0295 -0.2643
  829MOL0     H11915   8.364   6.817  11.502 -0.4545 -0.8013 -1.0560
  830MOL0     O11916   9.243   6.131   8.321 -0.5848 -0.1708  0.4294
  830MOL0     C11917   9.206   6.106   8.210 -0.4417 -0.0299  0.0431
  830MOL0     O11918   9.281   6.114   8.096  0.4102  0.2469  0.9435
  830MOL0     C11919   9.416   6.163   8.099 -0.0508  0.7421  0.1959
  830MOL0     C11920   9.493   6.126   7.989 -0.1362 -0.3803  1.0743
  830MOL0     C11921   9.627   6.175   7.984 -0.0669 -1.0918  0.3254
  830MOL0     C11922   9.687   6.252   8.082 -0.9665  0.3865  0.1725
  830MOL0     O11923   9.820   6.284   8.069 -0.9687  0.0997 -0.4650
  830MOL0     C11924   9.893   6.346   8.178  0.4013 -0.2337  0.1185
  830MOL0     C11925  10.041   6.360   8.153  0.1061 -0.4330 -0.3462
  830MOL0     C11926  10.128   6.238   8.156  0.0458  0.7254 -1.2775
  830MOL0     C11927  10.281   6.260   8.174  0.1005 -0.3713 -0.3853
  830MOL0     C11928  10.346   6.335   8.053  0.8743  0.7180  0.1477
  830MOL0     C11929  10.491   6.303   8.041  0.5715 -0.3227  0.2007
  830MOL0     C11930  10.575   6.374   8.147 -0.2572 -0.6999  0.4239
  830MOL0     C11931  10.619   6.520   8.103  0.2960  0.2647  0.4224
  830MOL0     N11932  10.669   6.597   8.216  0.6981 -0.1403 -0.3753
  830MOL0     C11933  10.748   6.549   8.318 -0.0379  0.4921  1.1690
  830MOL0     C11934  10.795   6.661   8.374 -0.3345 -0.1900 -0.6728
  830MOL0     C11935  10.899   6.660   8.470  0.3712  0.1454  0.4791
  830MOL0     C11936  11.029   6.721   8.433  0.1223 -0.0742  0.3464
  830MOL0     C11937  11.091   6.799   8.554  0.2610  0.1113  0.4967
  830MOL0     C11938  11.233   6.842   8.532  0.2786 -0.7770 -1.0655
  830MOL0     O11939  11.275   6.920   8.642 -1.1891 -0.0563  1.2249
  830MOL0     C11940  11.408   6.968   8.637  0.3573 -0.3602  0.0458
  830MOL0     C11941  11.467   7.014   8.757  0.2798  0.3764  0.8936
  830MOL0     C11942  11.594   7.067   8.757 -0.3971 -0.1081  0.4789
  830MOL0     C11943  11.671   7.075   8.638  0.0302  0.8321 -0.0224
  830MOL0     C11944  11.808   7.111   8.637 -1.0273  0.7398  0.0885
  830MOL0     O11945  11.860   7.163   8.756  0.1964  0.0934 -0.2047
  830MOL0     C11946  11.994   7.177   8.770 -0.6392  0.0233  0.0808
  830MOL0     C11947  12.065   7.115   8.875  0.2854  0.1716  0.7102
  830MOL0     C11948  12.199   7.133   8.888  0.5117  0.0043 -0.2563
  830MOL0     C11949  12.276   7.204   8.794  0.5150 -0.0581 -0.3753
  830MOL0     O11950  12.409   7.205   8.814  0.1158  0.5764 -0.5946
  830MOL0     C11951  12.495   7.288   8.737 -0.5658  0.6657  0.1585
  830MOL0     C11952  12.638   7.282   8.773  1.1651  0.0915 -0.1509
  830MOL0     C11953  12.655   7.356   8.899 -0.0970  0.1673 -0.8896
  830MOL0     C11954  12.795   7.320   8.960  0.7258  0.0978 -0.1227
  830MOL0     C11955  12.833   7.422   9.064 -0.2506  0.7470  0.1017
  830MOL0     C11956  12.975   7.400   9.117  0.5348 -0.5284 -0.5287
  830MOL0     C11957  13.016   7.512   9.217  0.8798  0.3070  0.1397
  830MOL0     C11958  13.161   7.552   9.203 -0.2894  0.1908  0.0135
  830MOL0    Cl11959  13.188   7.632   9.051 -0.0260 -0.5703  0.4666
  830MOL0     C11960  12.208   7.272   8.690  0.6156 -0.0516  0.2354
  830MOL0     C11961  12.067   7.259   8.680 -0.3164  0.2691  0.0546
  830MOL0     O11962  11.874   7.075   8.538 -0.0939  0.0579 -0.5550
  830MOL0     C11963  11.610   7.032   8.521  0.4979 -0.6317  0.2117
  830MOL0     C11964  11.482   6.982   8.515  0.8477  0.6873  0.4750
  830MOL0     N11965  10.728   6.774   8.322 -0.2348  0.7248  0.0520
  830MOL0     N11966  10.646   6.731   8.240  0.5029 -0.3844  0.6480
  830MOL0     C11967   9.604   6.288   8.190  0.3523  0.5603 -0.3568
  830MOL0     C11968   9.470   6.252   8.193 -0.4458 -0.4777  0.4688
  830MOL0     C11969   9.065   6.056   8.180  0.1431  0.6258  0.7900
  830MOL0     C11970   9.024   6.036   8.045  0.0629 -0.4635  0.7792
  830MOL0     C11971   8.893   5.995   8.021 -0.8625  0.4272 -0.6878
  830MOL0     C11972   8.803   5.977   8.122 -0.5135  0.1899  0.3584
  830MOL0     O11973   8.680   5.939   8.071  0.4204 -0.4592 -0.3038
  830MOL0     C11974   8.582   5.906   8.163  0.1677 -0.4463  0.1589
  830MOL0     C11975   8.436   5.885   8.110 -0.2024 -0.1904  0.3414
  830MOL0     C11976   8.420   5.753   8.029 -0.5870 -0.4497  0.5136
  830MOL0     C11977   8.458   5.774   7.880 -0.4149 -0.2567  0.0711
  830MOL0     C11978   8.369   5.858   7.802 -0.4445 -1.2363  0.4930
  830MOL0     C11979   8.304   5.933   7.736  0.8474  1.0415 -0.4421
  830MOL0     C11980   8.841   5.990   8.249  0.3915  0.7076  0.1780
  830MOL0     C11981   8.970   6.032   8.284 -0.4258  0.0391  0.8190
  830MOL0     C11982   9.005   6.028   8.431  0.5139 -0.4439 -0.7740
  830MOL0     H11983   9.452   6.079   7.901  0.4033 -1.9878  1.6544
  830MOL0     H11984   9.696   6.130   7.914  2.3973  1.7339  0.7498
  830MOL0     H11985   9.856   6.448   8.190  0.9240  0.1334 -1.1431
  830MOL0     H11986   9.877   6.292   8.272 -2.6941 -1.5942 -1.0614
  830MOL0     H11987  10.075   6.427   8.232 -2.5502 -0.8768  1.3130
  830MOL0     H11988  10.064   6.410   8.058  0.4043 -0.8478 -0.4950
  830MOL0     H11989  10.123   6.198   8.055 -1.8243  0.6737 -1.1985
  830MOL0     H11990  10.088   6.170   8.233 -0.4666 -0.3860 -2.4890
  830MOL0     H11991  10.310   6.302   8.271  0.5582 -0.9537 -0.2624
  830MOL0     H11992  10.320   6.158   8.175  3.7186  0.8785 -0.0693
  830MOL0     H11993  10.296   6.319   7.957  1.2860  1.2057 -0.1548
  830MOL0     H11994  10.322   6.441   8.068  1.8324  0.9393  0.2137
  830MOL0     H11995  10.506   6.196   8.059 -0.7539 -0.1077  3.1564
  830MOL0     H11996  10.525   6.331   7.940 -1.7229 -0.4232 -0.6459
  830MOL0     H11997  10.669   6.318   8.154 -1.5878 -3.2463 -0.7708
  830MOL0     H11998  10.517   6.374   8.240  1.1652 -3.2346  1.4145
  830MOL0     H11999  10.694   6.513   8.023  1.3199 -0.1887  1.3954
  830MOL0     H12000  10.546   6.594   8.067  0.4134  1.7607  3.0469
  830MOL0     H12001  10.774   6.444   8.327  0.0079  0.1908 -1.6412
  830MOL0     H12002  10.864   6.701   8.566 -0.5087  3.7141 -1.1829
  830MOL0     H12003  10.929   6.556   8.483 -2.8981 -1.0004 -0.0962
  830MOL0     H12004  11.105   6.647   8.409  1.2265  0.5167  1.8304
  830MOL0     H12005  11.016   6.792   8.350  0.4696 -1.2543 -0.7527
  830MOL0     H12006  11.087   6.741   8.646 -1.1715  0.2864  0.5809
  830MOL0     H12007  11.027   6.887   8.570  0.4209  1.4793 -4.5820
  830MOL0     H12008  11.228   6.901   8.440 -2.9599  1.6805  0.4920
  830MOL0     H12009  11.294   6.750   8.529 -0.7688 -1.5057 -0.5807
  830MOL0     H12010  11.390   7.018   8.834 -4.6835 -1.4037 -3.3289
  830MOL0     H12011  11.636   7.097   8.853 -0.3391 -2.1087  1.1296
  830MOL0     H12012  12.021   7.039   8.939  0.6463 -0.4060  0.2846
  830MOL0     H12013  12.245   7.082   8.972  2.0996 -0.5507 -1.4142
  830MOL0     H12014  12.499   7.258   8.632  2.4240  0.6309  0.1815
  830MOL0     H12015  12.463   7.392   8.745 -0.8043  0.7061 -1.1050
  830MOL0     H12016  12.655   7.175   8.784 -1.9302 -0.5176 -0.3318
  830MOL0     H12017  12.708   7.324   8.701  0.4054 -0.2348 -1.1113
  830MOL0     H12018  12.646   7.463   8.878 -2.1697  0.9858  3.1685
  830MOL0     H12019  12.572   7.333   8.967 -0.5589  0.2249 -1.4272
  830MOL0     H12020  12.865   7.314   8.876  0.9077  0.5005 -0.0031
  830MOL0     H12021  12.796   7.221   9.008 -2.7873 -0.2635 -0.5753
  830MOL0     H12022  12.761   7.424   9.147  1.3481  1.1695  1.5342
  830MOL0     H12023  12.830   7.518   9.012  2.1212  0.9937  0.3075
  830MOL0     H12024  12.992   7.300   9.159  3.1255 -0.0000 -0.1152
  830MOL0     H12025  13.032   7.405   9.023 -3.0191  0.0829 -2.8587
  830MOL0     H12026  12.995   7.470   9.316  0.1466 -1.4419 -0.7112
  830MOL0     H12027  12.950   7.598   9.201  0.1466 -0.1089  0.8441
  830MOL0     H12028  13.208   7.619   9.276  4.1299  0.8367 -3.0870
  830MOL0     H12029  13.217   7.458   9.200 -0.8228 -0.1782  1.1031
  830MOL0     H12030  12.261   7.320   8.608  3.3385  0.2535  2.0534
  830MOL0     H12031  12.024   7.287   8.585 -0.5012 -1.5492 -0.4486
  830MOL0     H12032  11.663   7.036   8.426  0.4191  1.3970  0.1931
  830MOL0     H12033  11.438   6.955   8.420 -0.4999 -1.3392  1.6124
  830MOL0     H12034   9.644   6.351   8.268  0.2803 -0.9991  1.0109
  830MOL0     H12035   9.403   6.300   8.263  0.2756  0.9505  0.2206
  830MOL0     H12036   9.092   6.072   7.969 -0.7383  0.1909  0.3654
  830MOL0     H12037   8.861   5.979   7.918 -0.4654  4.5478 -1.6077
  830MOL0     H12038   8.580   5.987   8.237  0.6213 -0.6091  0.3597
  830MOL0     H12039   8.610   5.812   8.213  2.4990 -0.0254 -0.2208
  830MOL0     H12040   8.400   5.960   8.037 -1.6651 -1.2850 -0.0994
  830MOL0     H12041   8.383   5.882   8.206  2.5178  1.5924  2.0292
  830MOL0     H12042   8.316   5.719   8.038  0.1705 -2.8732  0.9828
  830MOL0     H12043   8.483   5.673   8.072 -0.7527  0.0534  1.7479
  830MOL0     H12044   8.560   5.810   7.862 -0.1142 -1.1388 -0.0331
  830MOL0     H12045   8.436   5.678   7.831 -2.9638  0.5266 -0.4819
  830MOL0     H12046   8.244   6.005   7.685  0.9548  1.5455  0.1292
  830MOL0     H12047   8.778   5.972   8.336 -0.9292 -0.7909 -1.0298
  830MOL0     H12048   9.097   5.971   8.444  1.2940  0.3786 -2.3884
  830MOL0     H12049   9.033   6.126   8.470  0.0019 -0.2706 -0.8334
  830MOL0     H12050   8.921   5.985   8.485 -0.7777  2.3036 -0.3771
  831MOL0     O12051   1.094   8.368   8.398 -0.3840 -0.1554 -0.3589
  831MOL0     C12052   1.088   8.282   8.302 -0.3177 -0.1026 -0.0984
  831MOL0     O12053   1.180   8.182   8.278 -0.8545 -0.8609 -0.3555
  831MOL0     C12054   1.295   8.186   8.358 -0.2335 -0.1306  0.0650
  831MOL0     C12055   1.413   8.265   8.327  0.8346 -0.2650  0.2791
  831MOL0     C12056   1.523   8.276   8.405  0.4119  0.2073 -0.2368
  831MOL0     C12057   1.526   8.199   8.524  0.1678  0.3196  0.1535
  831MOL0     O12058   1.622   8.201   8.620 -0.4345 -0.2783  0.8067
  831MOL0     C12059   1.757   8.236   8.578 -0.1437  0.4981 -0.0895
  831MOL0     C12060   1.855   8.250   8.692  0.4134  0.1305 -0.5382
  831MOL0     C12061   1.993   8.302   8.664  0.2127 -0.5031  0.8066
  831MOL0     C12062   2.082   8.304   8.787 -0.2750 -0.0874 -0.2288
  831MOL0     C12063   2.194   8.408   8.766  0.6104  1.1959  0.2282
  831MOL0     C12064   2.303   8.414   8.879  0.1887  0.2254 -0.1666
  831MOL0     C12065   2.252   8.487   9.006 -1.0117  0.7246  0.3458
  831MOL0     C12066   2.314   8.425   9.134 -0.0096 -0.2235 -0.6894
  831MOL0     N12067   2.465   8.433   9.146 -0.1669 -0.0053 -0.6147
  831MOL0     C12068   2.557   8.352   9.090  0.1002 -0.1076  0.6447
  831MOL0     C12069   2.677   8.417   9.119 -0.2329  0.6632 -0.3889
  831MOL0     C12070   2.810   8.386   9.054 -0.1705  0.3863 -0.0448
  831MOL0     C12071   2.921   8.369   9.154 -0.2672 -0.0245 -0.2881
  831MOL0     C12072   2.891   8.266   9.262  0.0395 -0.5531  0.5390
  831MOL0     C12073   2.843   8.126   9.206  0.4159 -0.5374  0.0256
  831MOL0     O12074   2.909   8.083   9.086 -0.5039  0.4679  0.5738
  831MOL0     C12075   3.044   8.051   9.088 -0.2142  0.7614  0.9376
  831MOL0     C12076   3.096   8.027   8.956  0.2895 -0.8288  0.0543
  831MOL0     C12077   3.222   7.982   8.934 -1.1648  0.1996  0.3668
  831MOL0     C12078   3.315   7.969   9.039  0.3248  0.9989 -0.1162
  831MOL0     C12079   3.452   7.931   9.014 -0.0860 -0.1784 -0.0544
  831MOL0     O12080   3.548   7.965   9.103  0.2068 -0.4474 -0.0640
  831MOL0     C12081   3.679   7.918   9.075 -0.4060  0.0110 -0.0307
  831MOL0     C12082   3.717   7.793   9.033 -0.3427  0.2837  0.0531
  831MOL0     C12083   3.853   7.756   9.015 -0.1868  0.3016 -0.2149
  831MOL0     C12084   3.960   7.843   9.055  1.4387  0.0971 -0.2613
  831MOL0     O12085   4.091   7.795   9.026  0.1919  0.7970  0.0121
  831MOL0     C12086   4.199   7.878   9.063 -1.0860 -0.5266 -0.5834
  831MOL0     C12087   4.320   7.788   9.030 -0.4804  0.2215 -0.7404
  831MOL0     C12088   4.443   7.879   9.031  0.5181 -0.0117  0.0881
  831MOL0     C12089   4.577   7.803   9.012  0.2130 -0.4699  0.4234
  831MOL0     C12090   4.691   7.901   8.998 -0.1442  0.2086 -0.0615
  831MOL0     C12091   4.707   7.976   9.126 -0.3197 -0.1498  0.6525
  831MOL0     C12092   4.846   8.010   9.163  0.2464 -0.3897  0.3340
  831MOL0     C12093   4.935   7.893   9.183  0.4231 -0.3908 -1.2183
  831MOL0    Cl12094   4.865   7.753   9.283  0.0357 -0.3547  0.4738
  831MOL0     C12095   3.917   7.969   9.101 -0.2206  0.1117  0.0990
  831MOL0     C12096   3.783   8.005   9.108 -0.1362  0.4953  0.6894
  831MOL0     O12097   3.477   7.878   8.907 -0.0443 -0.1432  0.0125
  831MOL0     C12098   3.269   8.002   9.171  0.4786  0.3696 -0.3897
  831MOL0     C12099   3.133   8.037   9.193  0.9848  0.1459 -0.1258
  831MOL0     N12100   2.654   8.529   9.197 -0.2564  0.8311 -0.7012
  831MOL0     N12101   2.531   8.530   9.222  0.5790 -0.5207  0.4718
  831MOL0     C12102   1.411   8.122   8.550 -0.5378  0.3526  0.0598
  831MOL0     C12103   1.303   8.112   8.467  0.1492  0.2670  0.3609
  831MOL0     C12104   0.954   8.254   8.233 -0.6841  0.1901  0.1069
  831MOL0     C12105   0.895   8.122   8.225 -0.1324  0.3456 -0.9540
  831MOL0     C12106   0.769   8.099   8.171  0.4370  0.2504 -0.6569
  831MOL0     C12107   0.689   8.201   8.116 -0.0304 -0.0378 -0.6123
  831MOL0     O12108   0.566   8.186   8.069 -0.4028  0.5179 -0.6058
  831MOL0     C12109   0.531   8.070   8.003  0.5154  0.1387 -0.4562
  831MOL0     C12110   0.593   8.081   7.864  0.0819 -0.0712 -0.1622
  831MOL0     C12111   0.558   8.203   7.777  0.2645 -0.3266 -0.8689
  831MOL0     C12112   0.652   8.207   7.659 -0.0102  0.0165  0.3029
  831MOL0     C12113   0.602   8.319   7.568  0.9702  0.3256 -0.0029
  831MOL0     C12114   0.547   8.404   7.498  0.1420  0.6005 -0.1842
  831MOL0     C12115   0.744   8.329   8.135  0.0973  0.2758  0.1167
  831MOL0     C12116   0.871   8.363   8.187  0.6310 -0.4105 -0.2439
  831MOL0     C12117   0.918   8.503   8.188  0.3182 -0.0942  0.0086
  831MOL0     H12118   1.409   8.321   8.234 -0.3153  1.9455  1.5704
  831MOL0     H12119   1.613   8.332   8.378  1.2544 -0.6019  0.7968
  831MOL0     H12120   1.780   8.155   8.509  1.1848  0.3483  0.5082
  831MOL0     H12121   1.755   8.336   8.534  0.8522 -0.0351 -1.4031
  831MOL0     H12122   1.876   8.155   8.743  2.7006  0.4659 -0.7251
  831MOL0     H12123   1.806   8.315   8.765  2.4265 -1.6092  2.6081
  831MOL0     H12124   1.975   8.405   8.632 -2.7936 -1.4938 -1.1016
  831MOL0     H12125   2.039   8.254   8.578 -0.3476  3.3526 -1.9198
  831MOL0     H12126   2.030   8.331   8.880 -0.3275 -0.0317 -0.2746
  831MOL0     H12127   2.129   8.207   8.805 -0.5540 -0.1142  0.4073
  831MOL0     H12128   2.237   8.383   8.669 -0.1366 -1.7649  0.5600
  831MOL0     H12129   2.156   8.510   8.754  0.5776  0.9244 -2.4038
  831MOL0     H12130   2.336   8.314   8.910  0.7183  0.3038 -0.4710
  831MOL0     H12131   2.383   8.476   8.839 -1.1755 -0.0111 -3.5533
  831MOL0     H12132   2.143   8.490   9.012 -1.0966  0.7131 -0.9043
  831MOL0     H12133   2.284   8.591   9.004 -2.7927  1.4130 -3.8882
  831MOL0     H12134   2.270   8.468   9.224  1.2027  0.3684 -0.3616
  831MOL0     H12135   2.295   8.317   9.142  0.5536 -0.2336  0.6184
  831MOL0     H12136   2.549   8.270   9.019  4.5023  1.9307 -2.7109
  831MOL0     H12137   2.798   8.290   9.004  3.1724 -0.5649  0.7736
  831MOL0     H12138   2.831   8.462   8.979 -0.7936  2.0639  1.3995
  831MOL0     H12139   3.007   8.337   9.096 -0.3688 -0.5831 -0.1367
  831MOL0     H12140   2.952   8.458   9.210 -0.1208 -0.0016 -0.4069
  831MOL0     H12141   2.809   8.306   9.323  0.1041 -0.6619  0.6969
  831MOL0     H12142   2.974   8.257   9.332  1.6125  3.0754 -0.6191
  831MOL0     H12143   2.737   8.138   9.184  0.3687  0.8554  0.8744
  831MOL0     H12144   2.855   8.060   9.292  0.8719  0.9755  1.1736
  831MOL0     H12145   3.029   8.041   8.871  0.4321  1.1878  0.2077
  831MOL0     H12146   3.257   7.955   8.835 -0.4820  1.2918  0.2820
  831MOL0     H12147   3.645   7.717   9.007  1.0252 -0.8029 -0.6655
  831MOL0     H12148   3.888   7.664   8.970 -0.2211  1.2343 -2.2794
  831MOL0     H12149   4.217   7.967   9.003  1.5742 -1.5067 -1.3684
  831MOL0     H12150   4.184   7.897   9.169 -0.7645  1.3439 -0.8429
  831MOL0     H12151   4.335   7.708   9.103 -1.1038 -2.8180 -3.6994
  831MOL0     H12152   4.310   7.735   8.935 -1.7230  0.2020 -0.6066
  831MOL0     H12153   4.438   7.957   8.954  2.4266 -3.1428 -3.5498
  831MOL0     H12154   4.437   7.932   9.126  0.1919  1.2728 -0.6222
  831MOL0     H12155   4.574   7.749   8.917  0.9271  1.5214 -0.8145
  831MOL0     H12156   4.588   7.736   9.097 -0.5233  0.5284  1.3333
  831MOL0     H12157   4.679   7.970   8.914 -4.5767 -0.2995 -0.0936
  831MOL0     H12158   4.776   7.834   8.979 -0.0173 -0.1238  1.5299
  831MOL0     H12159   4.652   8.071   9.118 -2.8309 -1.6496 -1.6231
  831MOL0     H12160   4.667   7.922   9.211 -0.0279 -1.1312  0.1848
  831MOL0     H12161   4.855   8.062   9.259  0.0085  0.4932 -0.1203
  831MOL0     H12162   4.876   8.072   9.079 -2.6932 -0.7869 -1.1373
  831MOL0     H12163   4.972   7.844   9.093 -0.0638 -1.1959 -0.9867
  831MOL0     H12164   5.022   7.943   9.227 -0.4355 -0.4599  0.6406
  831MOL0     H12165   3.983   8.054   9.113 -0.4625  0.5639 -1.5451
  831MOL0     H12166   3.760   8.103   9.149 -1.4370  0.1134  0.9357
  831MOL0     H12167   3.330   8.001   9.261 -1.2122  1.1461  0.8283
  831MOL0     H12168   3.098   8.042   9.296 -1.5083 -1.9435 -0.7495
  831MOL0     H12169   1.423   8.053   8.633  3.3926  0.1907 -0.4234
  831MOL0     H12170   1.218   8.056   8.503 -0.7036  1.2567 -0.0675
  831MOL0     H12171   0.956   8.036   8.254 -2.2018 -0.2950  2.0444
  831MOL0     H12172   0.732   7.996   8.172 -1.2803  0.6962  3.4767
  831MOL0     H12173   0.424   8.050   8.006  0.9385 -2.6390 -1.2399
  831MOL0     H12174   0.573   7.983   8.054 -1.6859 -0.5244  0.2941
  831MOL0     H12175   0.556   7.993   7.810 -2.7094  0.0665  1.3689
  831MOL0     H12176   0.698   8.070   7.890 -0.3809 -1.2039  1.3283
  831MOL0     H12177   0.566   8.297   7.833 -3.6119 -0.6939  0.6689
  831MOL0     H12178   0.454   8.208   7.742  0.2103  2.2569 -0.5210
  831MOL0     H12179   0.754   8.219   7.694 -0.7052  3.2079  1.5719
  831MOL0     H12180   0.659   8.113   7.603 -1.7691 -0.0568  0.1395
  831MOL0     H12181   0.488   8.480   7.450 -1.0132  1.2652  2.1096
  831MOL0     H12182   0.678   8.410   8.106  2.9981  2.1602 -1.7522
  831MOL0     H12183   0.840   8.578   8.169  1.7413  1.5444  0.2983
  831MOL0     H12184   0.969   8.533   8.280 -0.2478  0.0650  0.2681
  831MOL0     H12185   0.994   8.515   8.110  0.8736  0.5971  0.6338
  832MOL0     O12186   8.638   5.384   4.169 -0.2977 -0.3425 -0.2818
  832MOL0     C12187   8.565   5.393   4.070 -0.4138  0.6518  0.2647
  832MOL0     O12188   8.595   5.446   3.949  0.0482 -1.0391 -0.0886
  832MOL0     C12189   8.719   5.494   3.921 -0.8519  0.6382  1.0870
  832MOL0     C12190   8.788   5.430   3.819 -0.1831  0.0213  1.0981
  832MOL0     C12191   8.922   5.470   3.796  0.1602 -0.0065  0.4315
  832MOL0     C12192   8.990   5.558   3.880  0.4985 -1.0874 -0.2599
  832MOL0     O12193   9.124   5.573   3.858 -0.7411 -0.1066 -0.0982
  832MOL0     C12194   9.201   5.645   3.957 -0.2326 -0.7512 -0.1192
  832MOL0     C12195   9.352   5.643   3.941  0.7112 -0.3918  0.3966
  832MOL0     C12196   9.388   5.754   3.838 -0.2324 -0.0458 -0.4296
  832MOL0     C12197   9.543   5.755   3.816  0.4163  0.6177  0.1892
  832MOL0     C12198   9.580   5.868   3.715 -0.0788  0.3176  0.4184
  832MOL0     C12199   9.734   5.877   3.704  0.2597  0.0935 -0.3469
  832MOL0     C12200   9.794   5.954   3.587  1.0013 -0.2426  0.9114
  832MOL0     C12201   9.737   6.097   3.576 -0.0907 -0.2369  0.5595
  832MOL0     N12202   9.851   6.181   3.529 -0.3253  0.3717 -0.4739
  832MOL0     C12203   9.963   6.237   3.597 -0.0091  0.4113  0.2636
  832MOL0     C12204  10.016   6.317   3.508  0.3801 -0.3606 -0.1227
  832MOL0     C12205  10.135   6.405   3.542  0.4613 -0.7053  0.4161
  832MOL0     C12206  10.269   6.356   3.480  0.2416  1.0834  0.1068
  832MOL0     C12207  10.389   6.422   3.565 -0.1951  0.9321  0.2631
  832MOL0     C12208  10.517   6.366   3.509 -0.0911 -0.2693  0.1500
  832MOL0     O12209  10.624   6.427   3.593 -0.3209  0.0375 -0.3227
  832MOL0     C12210  10.754   6.399   3.565  0.2055  0.2806 -0.2817
  832MOL0     C12211  10.790   6.303   3.469  0.8985  0.2458 -0.0440
  832MOL0     C12212  10.924   6.252   3.464 -0.8471  0.5107  0.1405
  832MOL0     C12213  11.017   6.298   3.564  0.6264 -0.2877  0.3419
  832MOL0     C12214  11.155   6.242   3.562 -0.3390 -1.2462  0.9101
  832MOL0     O12215  11.244   6.265   3.660 -0.1919 -0.6100  0.8322
  832MOL0     C12216  11.372   6.226   3.657  0.0211  0.5382  0.2222
  832MOL0     C12217  11.483   6.304   3.699 -0.1556  0.1028 -1.1771
  832MOL0     C12218  11.616   6.254   3.700  0.9195 -1.1547  0.1162
  832MOL0     C12219  11.645   6.131   3.656  0.2089  0.0738 -0.2272
  832MOL0     O12220  11.780   6.092   3.679 -0.9117  0.3186  0.1606
  832MOL0     C12221  11.811   5.950   3.687  1.0047 -0.4284  0.1490
  832MOL0     C12222  11.955   5.944   3.711 -0.1614 -0.5736 -0.7583
  832MOL0     C12223  12.013   6.025   3.829  0.0808  0.1802 -0.3293
  832MOL0     C12224  12.162   5.984   3.870  0.1178  0.0074 -0.6466
  832MOL0     C12225  12.256   6.003   3.757 -0.9596  1.3990 -0.2811
  832MOL0     C12226  12.408   6.033   3.798  1.1978 -0.1505  0.2059
  832MOL0     C12227  12.467   5.917   3.883  1.3695 -0.4794  0.5060
  832MOL0     C12228  12.614   5.929   3.900  0.3269  0.8501 -0.0022
  832MOL0    Cl12229  12.647   6.059   4.017  0.4230 -0.1007 -0.0180
  832MOL0     C12230  11.532   6.041   3.632 -0.4562 -0.0004 -0.6869
  832MOL0     C12231  11.403   6.091   3.621 -0.3938  0.2851  0.1193
  832MOL0     O12232  11.178   6.182   3.456  0.0376  0.1397  0.1211
  832MOL0     C12233  10.986   6.396   3.658 -0.1263  0.3572 -0.0934
  832MOL0     C12234  10.854   6.447   3.658  0.1096 -0.7658  0.5393
  832MOL0     N12235   9.962   6.295   3.385  0.7109  0.2982  0.0666
  832MOL0     N12236   9.848   6.231   3.405 -0.2841 -0.3553 -0.0943
  832MOL0     C12237   8.915   5.618   3.995 -0.3464 -0.7573  0.2210
  832MOL0     C12238   8.780   5.583   4.007 -0.4852 -0.1830  0.0428
  832MOL0     C12239   8.431   5.342   4.085  0.4335  0.4109 -0.4421
  832MOL0     C12240   8.332   5.406   4.015 -0.0825 -0.2944  0.4212
  832MOL0     C12241   8.198   5.368   4.033  0.5448  0.3863 -0.1089
  832MOL0     C12242   8.161   5.263   4.115  0.6301  0.0895  0.7470
  832MOL0     O12243   8.026   5.220   4.124 -0.3240  0.6754  0.1932
  832MOL0     C12244   7.924   5.298   4.058 -0.2055 -1.0179  0.6865
  832MOL0     C12245   7.787   5.253   4.092 -0.3044 -0.6780  0.4660
  832MOL0     C12246   7.684   5.349   4.043 -0.9303 -0.0643  0.1535
  832MOL0     C12247   7.547   5.292   4.077  0.3198  0.0099  0.6761
  832MOL0     C12248   7.448   5.404   4.064  0.2000  0.5288  0.0523
  832MOL0     C12249   7.379   5.503   4.054 -0.3423  0.1817  0.6484
  832MOL0     C12250   8.261   5.195   4.190 -0.6071 -0.3138  0.4011
  832MOL0     C12251   8.396   5.235   4.168  0.1357  0.5029 -0.0118
  832MOL0     C12252   8.485   5.143   4.247 -0.4557 -0.5919  0.3400
  832MOL0     H12253   8.744   5.356   3.753 -2.7586  1.1092  1.4843
  832MOL0     H12254   8.974   5.415   3.718 -1.1270 -2.9390  1.4787
  832MOL0     H12255   9.170   5.749   3.951  3.0189  0.3895  0.4864
  832MOL0     H12256   9.178   5.614   4.059  2.3876  0.7470  1.0342
  832MOL0     H12257   9.378   5.540   3.913  2.7337  0.5558 -1.5242
  832MOL0     H12258   9.408   5.660   4.034 -0.5555 -0.6721  1.2495
  832MOL0     H12259   9.344   5.850   3.869 -1.3900 -0.7333  0.1312
  832MOL0     H12260   9.344   5.730   3.741  2.6727 -1.8430 -1.4313
  832MOL0     H12261   9.602   5.770   3.907  1.7199 -1.7367 -0.1950
  832MOL0     H12262   9.559   5.658   3.767  1.5893  0.9707 -0.1757
  832MOL0     H12263   9.526   5.843   3.623 -0.2765 -1.5109  0.9959
  832MOL0     H12264   9.543   5.964   3.753  0.4423 -0.2254  2.3621
  832MOL0     H12265   9.762   5.932   3.794 -0.6437 -1.1360  0.7122
  832MOL0     H12266   9.779   5.780   3.726 -1.3286 -0.5986  0.0203
  832MOL0     H12267   9.759   5.900   3.499  1.0822  1.8552 -0.4885
  832MOL0     H12268   9.903   5.957   3.585  0.9923  0.1743 -1.6805
  832MOL0     H12269   9.658   6.083   3.502  1.9524  0.6009 -1.9534
  832MOL0     H12270   9.691   6.129   3.669  1.6388  0.7440  1.1341
  832MOL0     H12271   9.990   6.221   3.700  2.5113 -3.6642 -0.8233
  832MOL0     H12272  10.116   6.502   3.496  0.6670 -1.1057 -0.5415
  832MOL0     H12273  10.143   6.425   3.649  1.0472  0.8225  0.1118
  832MOL0     H12274  10.282   6.248   3.487 -1.3052  0.7478 -1.4577
  832MOL0     H12275  10.285   6.379   3.375  0.8308 -0.4871 -0.1676
  832MOL0     H12276  10.383   6.406   3.673  2.8985  0.1275  0.4089
  832MOL0     H12277  10.390   6.531   3.551  3.1391  0.8120 -1.4081
  832MOL0     H12278  10.538   6.401   3.407  0.0170 -2.8465 -0.7741
  832MOL0     H12279  10.537   6.259   3.517  5.1903  0.5278  1.2883
  832MOL0     H12280  10.714   6.276   3.397 -3.3361  1.9454  3.3841
  832MOL0     H12281  10.950   6.174   3.393 -0.4398  2.5965 -2.1225
  832MOL0     H12282  11.472   6.407   3.729  1.3441  0.7843 -2.7825
  832MOL0     H12283  11.699   6.313   3.738 -0.4989 -0.3936  2.2506
  832MOL0     H12284  11.770   5.899   3.775  2.0195 -1.4684  0.0399
  832MOL0     H12285  11.778   5.904   3.594 -0.5417  2.0006 -0.6173
  832MOL0     H12286  11.976   5.841   3.743  2.3401  0.1786  0.2215
  832MOL0     H12287  12.014   5.959   3.620 -0.4924 -3.3931 -1.5495
  832MOL0     H12288  12.017   6.132   3.809  0.6305 -0.0373 -1.4639
  832MOL0     H12289  11.955   6.019   3.922 -0.4658  2.2565 -0.4958
  832MOL0     H12290  12.156   5.883   3.913  4.5811 -0.2945 -0.2841
  832MOL0     H12291  12.198   6.055   3.945  0.4322 -0.0894 -0.7066
  832MOL0     H12292  12.224   6.085   3.692 -0.2675  1.7460 -0.1869
  832MOL0     H12293  12.241   5.914   3.696 -1.0441  1.1481  0.1018
  832MOL0     H12294  12.473   6.058   3.714  1.6359  0.5975  0.7594
  832MOL0     H12295  12.401   6.126   3.855 -0.8337 -0.1127 -0.0151
  832MOL0     H12296  12.455   5.814   3.846  0.5125 -0.2981  0.2614
  832MOL0     H12297  12.410   5.916   3.977 -0.4918  0.3584 -0.5552
  832MOL0     H12298  12.650   5.834   3.942 -3.2525 -0.5264  0.3027
  832MOL0     H12299  12.658   5.945   3.801  1.1447 -0.8039  0.0642
  832MOL0     H12300  11.556   5.937   3.613 -0.2944 -0.2087  0.5879
  832MOL0     H12301  11.319   6.027   3.595 -0.7645 -0.3929  2.6676
  832MOL0     H12302  11.064   6.430   3.725  1.9509 -1.4295 -1.4265
  832MOL0     H12303  10.821   6.512   3.738  2.3997 -1.1866  1.9147
  832MOL0     H12304   8.958   5.674   4.077  0.0850  0.0375 -0.5283
  832MOL0     H12305   8.723   5.628   4.087 -1.0381 -2.1018  0.7557
  832MOL0     H12306   8.365   5.481   3.943  2.6845 -0.9966  0.8391
  832MOL0     H12307   8.134   5.442   3.986 -1.4280  0.0441  1.8837
  832MOL0     H12308   7.950   5.299   3.952  3.7314 -0.9559  1.5084
  832MOL0     H12309   7.939   5.403   4.082  0.2381 -0.6189 -1.1793
  832MOL0     H12310   7.773   5.246   4.201 -0.4984 -0.0828  0.4792
  832MOL0     H12311   7.774   5.154   4.047  0.2146 -0.4859 -0.1077
  832MOL0     H12312   7.681   5.374   3.936 -1.3576 -0.0436  0.1701
  832MOL0     H12313   7.694   5.441   4.101 -1.2159 -0.7647  1.3417
  832MOL0     H12314   7.523   5.207   4.012  3.8429 -1.6406  1.2949
  832MOL0     H12315   7.535   5.271   4.184 -1.3707  2.4413  1.0440
  832MOL0     H12316   7.322   5.593   4.050 -4.0720 -1.9779  0.2903
  832MOL0     H12317   8.234   5.121   4.265 -4.4111 -1.3048 -1.6997
  832MOL0     H12318   8.441   5.121   4.345 -0.8918  2.0330  0.8075
  832MOL0     H12319   8.489   5.050   4.190  1.0908  1.0332 -2.4279
  832MOL0     H12320   8.587   5.181   4.260 -0.8959  0.5304  0.6366
  833MOL0     O12321   0.966   2.359   0.474  0.0999  0.2100 -0.3522
  833MOL0     C12322   0.900   2.454   0.442 -0.9227 -0.1047  0.3104
  833MOL0     O12323   0.946   2.580   0.404  0.4478  0.2191 -0.8275
  833MOL0     C12324   1.079   2.628   0.427 -0.5223  0.3490  0.1249
  833MOL0     C12325   1.100   2.755   0.374 -0.0610  0.3067 -0.1532
  833MOL0     C12326   1.224   2.817   0.372  0.0414 -0.7641 -0.4913
  833MOL0     C12327   1.338   2.761   0.431  0.1011  0.3459 -0.0065
  833MOL0     O12328   1.457   2.830   0.421  0.2223  0.4224  0.5705
  833MOL0     C12329   1.556   2.774   0.503 -0.6219  0.8114  0.4230
  833MOL0     C12330   1.680   2.851   0.486  0.8779  0.7006 -0.4409
  833MOL0     C12331   1.726   2.852   0.342 -0.8628  0.8856  0.3891
  833MOL0     C12332   1.887   2.888   0.328 -0.8209 -0.7743  1.1915
  833MOL0     C12333   1.949   2.846   0.201  0.0968  0.2906 -0.1002
  833MOL0     C12334   1.867   2.864   0.078  0.7204  0.5134 -0.3211
  833MOL0     C12335   1.837   3.008   0.041 -0.5190 -0.2700  0.3022
  833MOL0     C12336   1.778   3.026  -0.102  0.5076 -0.0684  0.2659
  833MOL0     N12337   1.657   2.944  -0.129  0.7167  0.7772 -0.3422
  833MOL0     C12338   1.542   2.917  -0.051 -0.2050  0.1251 -0.1556
  833MOL0     C12339   1.464   2.833  -0.135 -0.2308  0.2909 -0.1357
  833MOL0     C12340   1.336   2.765  -0.088 -0.9407  0.8145 -0.5548
  833MOL0     C12341   1.200   2.829  -0.111 -0.0933  0.7107  0.2305
  833MOL0     C12342   1.172   2.909   0.018 -0.5884 -0.3526 -0.2207
  833MOL0     C12343   1.030   2.973   0.014 -0.7031 -0.0030  0.4655
  833MOL0     O12344   0.940   2.878   0.076  0.3170 -0.3145 -0.2614
  833MOL0     C12345   0.802   2.893   0.062 -0.4181  0.4977 -0.5823
  833MOL0     C12346   0.724   2.775   0.066 -0.1642 -0.4694  0.3053
  833MOL0     C12347   0.589   2.773   0.056  1.4243  0.6272  0.2439
  833MOL0     C12348   0.513   2.886   0.026  0.7439  0.0981  1.3189
  833MOL0     C12349   0.366   2.882   0.007  0.2187 -0.5919  0.1618
  833MOL0     O12350   0.305   2.986  -0.047 -0.7269 -0.3179 -0.9117
  833MOL0     C12351   0.169   3.009  -0.034 -0.2837  0.0108  1.0020
  833MOL0     C12352   0.067   2.910  -0.028 -0.1162 -0.1426 -0.1902
  833MOL0     C12353  -0.064   2.943  -0.038  0.8161 -0.3620 -0.6887
  833MOL0     C12354  -0.110   3.077  -0.043 -0.0244  0.6429  0.0268
  833MOL0     O12355  -0.244   3.119  -0.050 -0.0249  0.0139  0.1952
  833MOL0     C12356  -0.342   3.031  -0.100 -1.2224 -0.3976  0.5106
  833MOL0     C12357  -0.462   3.120  -0.139  0.2850 -1.1367 -1.0060
  833MOL0     C12358  -0.556   3.166  -0.026  0.3898 -0.3626  0.3767
  833MOL0     C12359  -0.692   3.218  -0.081 -0.0184 -0.1640  0.5377
  833MOL0     C12360  -0.787   3.236   0.040 -0.7930 -0.3376 -0.3110
  833MOL0     C12361  -0.907   3.328  -0.015 -0.0287  1.0125  0.3155
  833MOL0     C12362  -1.040   3.328   0.067 -0.1583 -0.7433 -0.3636
  833MOL0     C12363  -1.142   3.426   0.008  0.3670  0.3327  0.6473
  833MOL0    Cl12364  -1.214   3.379  -0.150 -0.0634  0.0103  0.1288
  833MOL0     C12365  -0.017   3.177  -0.036  0.2454 -0.2669 -0.4424
  833MOL0     C12366   0.126   3.146  -0.034 -0.2320  0.7388  0.3770
  833MOL0     O12367   0.315   2.773   0.046  0.2626  0.6494 -0.2609
  833MOL0     C12368   0.590   3.005   0.019  0.0025  0.0234  0.1166
  833MOL0     C12369   0.734   3.006   0.036  0.3227 -0.8040 -0.1057
  833MOL0     N12370   1.530   2.825  -0.263 -0.0438 -0.5908 -0.2685
  833MOL0     N12371   1.642   2.893  -0.251  0.2722  0.4368  0.1976
  833MOL0     C12372   1.316   2.641   0.499 -0.6348  0.3861  0.9839
  833MOL0     C12373   1.190   2.578   0.492  0.1744 -0.1931 -0.4106
  833MOL0     C12374   0.748   2.443   0.452  0.1245  0.6429 -0.2061
  833MOL0     C12375   0.667   2.505   0.356  0.3773 -0.0034 -0.3716
  833MOL0     C12376   0.524   2.500   0.366  0.6643  0.9219  0.6342
  833MOL0     C12377   0.461   2.437   0.474  0.1681 -0.6140  0.0274
  833MOL0     O12378   0.321   2.431   0.484 -0.5546  0.1504 -0.2855
  833MOL0     C12379   0.244   2.499   0.387  0.5513 -0.7973  0.2326
  833MOL0     C12380   0.092   2.473   0.410 -0.1200 -1.1909  0.2659
  833MOL0     C12381   0.004   2.483   0.281  0.3866  0.1327 -1.0932
  833MOL0     C12382   0.017   2.618   0.207 -0.5850  0.3231  0.3913
  833MOL0     C12383  -0.072   2.606   0.090  0.3227 -0.1126  0.2701
  833MOL0     C12384  -0.150   2.597  -0.002 -0.0587  0.0104  0.3716
  833MOL0     C12385   0.544   2.374   0.570  0.1699 -0.2695  1.2487
  833MOL0     C12386   0.685   2.378   0.565 -0.4793  0.2823 -0.2614
  833MOL0     C12387   0.755   2.336   0.693  0.3080  0.6135 -0.5839
  833MOL0     H12388   1.011   2.799   0.330 -0.3740 -1.9199 -1.9705
  833MOL0     H12389   1.223   2.915   0.326 -1.3741 -1.4591 -2.0422
  833MOL0     H12390   1.524   2.768   0.607 -0.8399  0.1171  0.3179
  833MOL0     H12391   1.587   2.678   0.462 -1.4669  1.4817 -1.9414
  833MOL0     H12392   1.759   2.823   0.556  1.5987  3.1885 -0.1593
  833MOL0     H12393   1.656   2.953   0.518  1.3517  1.1032 -1.3273
  833MOL0     H12394   1.675   2.936   0.295 -0.2085  0.3557 -1.3176
  833MOL0     H12395   1.702   2.766   0.279  2.2886 -0.2049  0.5120
  833MOL0     H12396   1.901   2.997   0.335 -0.6346 -0.4372 -2.4693
  833MOL0     H12397   1.931   2.834   0.412 -0.3138 -1.8138  0.2718
  833MOL0     H12398   2.043   2.898   0.180  0.7355 -0.5029  0.6926
  833MOL0     H12399   1.968   2.738   0.207 -3.2468 -0.4090 -0.3770
  833MOL0     H12400   1.935   2.823   0.003 -0.1902 -0.0965 -0.8438
  833MOL0     H12401   1.777   2.801   0.077  0.4378  0.6927  2.7953
  833MOL0     H12402   1.926   3.069   0.055 -0.9209  0.3153  0.3384
  833MOL0     H12403   1.760   3.048   0.108  1.0015  3.0224  0.2749
  833MOL0     H12404   1.746   3.130  -0.114 -1.9755 -0.7039  0.8915
  833MOL0     H12405   1.858   3.015  -0.176  2.1277 -0.4458  2.0091
  833MOL0     H12406   1.526   2.947   0.053  3.0480 -2.5015  1.2736
  833MOL0     H12407   1.338   2.669  -0.140  0.3194 -0.5673  1.8565
  833MOL0     H12408   1.342   2.748   0.020 -2.9077  3.0561 -0.0065
  833MOL0     H12409   1.186   2.891  -0.200 -0.5912  3.3142  1.9961
  833MOL0     H12410   1.121   2.754  -0.119 -0.9202  1.6023 -0.2672
  833MOL0     H12411   1.255   2.981   0.020  1.9928 -3.1079 -1.4548
  833MOL0     H12412   1.175   2.838   0.101 -1.3570 -1.8899 -1.4712
  833MOL0     H12413   1.001   2.996  -0.089  1.1524  0.9359  0.1136
  833MOL0     H12414   1.028   3.069   0.066 -2.7093  0.5651 -0.5280
  833MOL0     H12415   0.761   2.674   0.080 -2.8315 -1.2546  2.5498
  833MOL0     H12416   0.551   2.672   0.058 -2.0059  1.4937 -4.3874
  833MOL0     H12417   0.097   2.805  -0.030  0.7930  0.1122 -0.2969
  833MOL0     H12418  -0.135   2.861  -0.044  1.8525 -1.3397 -0.0248
  833MOL0     H12419  -0.319   2.972  -0.189 -2.7412 -0.5952  0.2268
  833MOL0     H12420  -0.371   2.962  -0.020  2.5874  0.6223  3.0410
  833MOL0     H12421  -0.422   3.210  -0.187  2.6383 -0.0370  2.6654
  833MOL0     H12422  -0.520   3.067  -0.215 -3.2579  2.3316 -1.0136
  833MOL0     H12423  -0.582   3.085   0.042 -1.9085 -1.1034 -1.2570
  833MOL0     H12424  -0.507   3.247   0.028  0.9189  1.8954 -3.1506
  833MOL0     H12425  -0.738   3.147  -0.151 -2.6821  1.3303  0.6197
  833MOL0     H12426  -0.678   3.307  -0.143  1.1939 -2.2370 -2.4429
  833MOL0     H12427  -0.733   3.287   0.120  3.0762 -1.6190 -1.8962
  833MOL0     H12428  -0.826   3.139   0.069  0.0935 -0.3823  0.7874
  833MOL0     H12429  -0.863   3.428  -0.010  2.9460 -0.1434 -0.6538
  833MOL0     H12430  -0.930   3.298  -0.117 -2.2626  0.0602  1.0286
  833MOL0     H12431  -1.024   3.361   0.170 -0.8129 -0.1988 -0.4245
  833MOL0     H12432  -1.076   3.229   0.095 -0.4720  0.7098  5.7354
  833MOL0     H12433  -1.219   3.441   0.084  0.5922 -0.3656  1.0172
  833MOL0     H12434  -1.097   3.526   0.003 -0.7625  0.9803  2.5147
  833MOL0     H12435  -0.064   3.274  -0.049 -1.3888 -1.1617 -1.4923
  833MOL0     H12436   0.196   3.229  -0.042  1.1534 -0.5418 -2.1931
  833MOL0     H12437   0.545   3.099  -0.012 -1.8202 -0.9942 -0.4746
  833MOL0     H12438   0.790   3.098   0.028 -0.0101 -0.6555 -0.7879
  833MOL0     H12439   1.393   2.574   0.535 -0.5421 -0.6506 -0.9844
  833MOL0     H12440   1.184   2.477   0.531  0.0673  0.7209  2.1093
  833MOL0     H12441   0.720   2.554   0.275 -0.1222  1.7043  0.2988
  833MOL0     H12442   0.476   2.550   0.283 -2.1353 -0.6313  1.1947
  833MOL0     H12443   0.263   2.463   0.286  0.7251 -0.0152 -0.0214
  833MOL0     H12444   0.269   2.605   0.378  0.2026 -0.7025  0.3351
  833MOL0     H12445   0.062   2.554   0.478  1.2440  0.5090 -1.0671
  833MOL0     H12446   0.083   2.372   0.452  0.0712 -1.5394 -0.5209
  833MOL0     H12447  -0.099   2.471   0.316  1.7191  0.9882  3.8355
  833MOL0     H12448   0.024   2.398   0.215 -2.2481 -1.6129  0.2175
  833MOL0     H12449  -0.026   2.704   0.259  0.3981  0.8205  0.3978
  833MOL0     H12450   0.120   2.632   0.173 -0.0258  2.1357  2.5895
  833MOL0     H12451  -0.216   2.592  -0.087 -0.4946  1.4402  0.5934
  833MOL0     H12452   0.496   2.330   0.657  3.4365  3.3745  5.3393
  833MOL0     H12453   0.755   2.414   0.770  0.6977 -0.1042  0.1574
  833MOL0     H12454   0.705   2.248   0.732 -2.0812  1.7410 -0.9335
  833MOL0     H12455   0.859   2.311   0.669  0.4339  0.0205  0.5277
  834MOL0     O12456   5.403   2.578   9.926 -0.4876  0.1437  0.1702
  834MOL0     C12457   5.458   2.680   9.888  0.1480 -1.1207  0.0949
  834MOL0     O12458   5.586   2.706   9.878 -0.0078  0.4084  0.0612
  834MOL0     C12459   5.678   2.634   9.943 -0.9226 -0.7997 -0.6070
  834MOL0     C12460   5.765   2.694  10.035 -0.0780  0.4748  0.3939
  834MOL0     C12461   5.874   2.619  10.082 -0.0332  0.8354  0.3334
  834MOL0     C12462   5.884   2.476  10.063  0.0234 -0.3171  0.8052
  834MOL0     O12463   5.980   2.400  10.121 -0.2780  0.2498 -0.6417
  834MOL0     C12464   5.918   2.277  10.181 -0.4381 -0.2149  0.5783
  834MOL0     C12465   5.976   2.255  10.316  0.3586  0.3394 -0.2215
  834MOL0     C12466   6.121   2.281  10.339 -0.3577  0.2475 -0.6736
  834MOL0     C12467   6.211   2.188  10.263 -0.2683  0.2923  0.5606
  834MOL0     C12468   6.354   2.233  10.279  0.4235 -0.7592 -0.4721
  834MOL0     C12469   6.451   2.142  10.198 -0.0697 -0.2593  0.6727
  834MOL0     C12470   6.593   2.176  10.226 -0.5386  0.0175 -0.0831
  834MOL0     C12471   6.623   2.315  10.173  0.4798 -0.0547 -0.1426
  834MOL0     N12472   6.767   2.330  10.138 -0.6414 -0.5030 -0.0106
  834MOL0     C12473   6.880   2.288  10.210  0.0704  0.3585 -0.3484
  834MOL0     C12474   6.985   2.305  10.133 -0.4101  0.6137  0.4829
  834MOL0     C12475   7.130   2.262  10.169  0.4450  0.5788 -1.0838
  834MOL0     C12476   7.140   2.108  10.190 -0.3448 -0.1226 -0.3204
  834MOL0     C12477   7.280   2.072  10.230 -0.0112  0.2464  0.1212
  834MOL0     C12478   7.380   2.107  10.120  0.3242  0.2778 -0.1893
  834MOL0     O12479   7.444   2.234  10.145  0.2365  0.0322  0.1543
  834MOL0     C12480   7.575   2.236  10.169  0.0152  0.3999  0.9674
  834MOL0     C12481   7.630   2.159  10.268  0.1682  0.4992  0.0850
  834MOL0     C12482   7.757   2.167  10.318  0.4213  0.3508 -0.2335
  834MOL0     C12483   7.845   2.266  10.272  0.8927  0.0909  0.7690
  834MOL0     C12484   7.979   2.285  10.326  0.2777 -1.1121 -0.9061
  834MOL0     O12485   8.072   2.340  10.242  0.1843 -0.3602 -0.2848
  834MOL0     C12486   8.207   2.330  10.277 -0.6691 -0.9474 -0.5406
  834MOL0     C12487   8.264   2.434  10.356  0.2391 -0.2818  0.3863
  834MOL0     C12488   8.400   2.429  10.392 -0.1453  0.6170  0.2930
  834MOL0     C12489   8.475   2.315  10.365  0.8920  0.1506  0.2157
  834MOL0     O12490   8.608   2.291  10.402  0.7538  0.2674 -0.4019
  834MOL0     C12491   8.647   2.364  10.523  0.1338 -0.0263  1.0004
  834MOL0     C12492   8.788   2.322  10.561  0.0118 -0.6767 -0.3309
  834MOL0     C12493   8.886   2.382  10.464  0.8775 -0.3207 -0.2412
  834MOL0     C12494   9.031   2.380  10.522  0.2748 -0.7963  1.4392
  834MOL0     C12495   9.122   2.448  10.415  0.6380 -0.1377 -0.4036
  834MOL0     C12496   9.258   2.481  10.483  0.1112  0.4360 -0.1042
  834MOL0     C12497   9.375   2.460  10.387  0.5575 -1.2208 -0.2819
  834MOL0     C12498   9.502   2.517  10.436 -0.4147  0.2063  0.4476
  834MOL0    Cl12499   9.642   2.490  10.318  0.2530  0.0455 -0.0552
  834MOL0     C12500   8.410   2.217  10.286 -0.4206 -0.0729  0.1892
  834MOL0     C12501   8.279   2.223  10.246 -0.1909  0.5994  0.2022
  834MOL0     O12502   8.002   2.227  10.431  0.9822  0.0747 -0.2244
  834MOL0     C12503   7.791   2.349  10.173  0.3046 -0.3233  0.0085
  834MOL0     C12504   7.656   2.346  10.127  0.6440 -0.6189 -0.4036
  834MOL0     N12505   6.947   2.359  10.019  0.4862  0.2464 -0.0240
  834MOL0     N12506   6.816   2.366  10.017  0.1824 -0.0446  0.0891
  834MOL0     C12507   5.789   2.417   9.979  0.0439 -0.4197 -0.4249
  834MOL0     C12508   5.697   2.497   9.911 -0.5488 -0.1534  0.6556
  834MOL0     C12509   5.352   2.771   9.833 -0.5445  0.4095  0.2208
  834MOL0     C12510   5.226   2.778   9.893  0.8986 -0.6421 -0.6398
  834MOL0     C12511   5.128   2.867   9.854  0.2289  0.2426  0.2367
  834MOL0     C12512   5.152   2.951   9.756  0.4867 -0.6175  1.1743
  834MOL0     O12513   5.056   3.055   9.744  0.2757  0.0866 -0.0786
  834MOL0     C12514   5.024   3.097   9.620  1.2646 -0.5114 -0.9464
  834MOL0     C12515   4.888   3.174   9.627  1.0954 -0.1082 -0.7532
  834MOL0     C12516   4.765   3.090   9.681  0.4924 -0.0874  0.3371
  834MOL0     C12517   4.635   3.140   9.629 -1.0295 -0.8362 -0.3129
  834MOL0     C12518   4.525   3.088   9.708 -0.1636 -0.3158 -0.7514
  834MOL0     C12519   4.436   3.036   9.760  0.0901 -0.6126 -0.0834
  834MOL0     C12520   5.276   2.943   9.680  0.8120 -0.7793 -0.1330
  834MOL0     C12521   5.382   2.856   9.718 -0.0196 -0.1536 -0.8970
  834MOL0     C12522   5.503   2.850   9.628 -0.0016  0.3797 -0.3823
  834MOL0     H12523   5.755   2.801  10.054 -1.0528  0.3758  0.5276
  834MOL0     H12524   5.955   2.655  10.146 -1.1441 -0.0906  2.3593
  834MOL0     H12525   5.811   2.292  10.199 -0.2716 -0.2672  1.6458
  834MOL0     H12526   5.948   2.197  10.112 -0.3633  1.2680 -1.2141
  834MOL0     H12527   5.949   2.154  10.346 -1.0013  0.9976  0.8543
  834MOL0     H12528   5.932   2.325  10.387  4.3754  0.6051  2.3229
  834MOL0     H12529   6.139   2.276  10.447 -0.6900  1.5121 -0.5405
  834MOL0     H12530   6.156   2.381  10.310  1.9427 -0.8172 -1.8507
  834MOL0     H12531   6.201   2.085  10.296 -0.9756 -0.8229 -2.7315
  834MOL0     H12532   6.176   2.195  10.159  2.6224 -0.8010 -0.5751
  834MOL0     H12533   6.365   2.336  10.245  0.9866 -0.9875 -0.9871
  834MOL0     H12534   6.373   2.226  10.387  1.1404  0.5267 -0.4936
  834MOL0     H12535   6.446   2.036  10.223 -0.3364 -0.3633  0.1848
  834MOL0     H12536   6.427   2.158  10.093 -0.8087 -3.6101  0.2451
  834MOL0     H12537   6.650   2.099  10.173  0.2472 -1.8445  3.2097
  834MOL0     H12538   6.606   2.163  10.334 -1.0458 -1.6045 -0.1778
  834MOL0     H12539   6.558   2.329  10.086  0.2344 -2.3615 -0.3984
  834MOL0     H12540   6.594   2.395  10.243 -0.6284  0.8164 -1.5251
  834MOL0     H12541   6.896   2.254  10.311  1.8301  2.6500  0.2207
  834MOL0     H12542   7.196   2.289  10.086  2.2020 -1.4129 -0.4291
  834MOL0     H12543   7.155   2.318  10.261 -0.8857 -1.7928  0.8370
  834MOL0     H12544   7.071   2.084  10.272  0.9026 -1.8951  0.2683
  834MOL0     H12545   7.111   2.052  10.100 -0.2594 -0.9247  0.1430
  834MOL0     H12546   7.287   1.964  10.246  1.6284 -0.1821 -2.7784
  834MOL0     H12547   7.303   2.129  10.320  0.5678 -2.3391  1.7166
  834MOL0     H12548   7.332   2.123  10.023 -1.0438 -1.7958  0.0921
  834MOL0     H12549   7.452   2.025  10.114  1.5451  1.0654  2.4112
  834MOL0     H12550   7.570   2.083  10.318  1.0758 -0.3692 -0.0922
  834MOL0     H12551   7.791   2.093  10.390  0.5679  2.1700  1.6324
  834MOL0     H12552   8.218   2.525  10.393  0.9047  0.3423 -0.2847
  834MOL0     H12553   8.447   2.514  10.441 -0.4587  1.9877 -1.6755
  834MOL0     H12554   8.645   2.471  10.501 -0.4044 -0.1793  0.3025
  834MOL0     H12555   8.572   2.336  10.598 -1.7962  0.7979 -0.5298
  834MOL0     H12556   8.808   2.359  10.662 -3.6262 -0.3280  0.4028
  834MOL0     H12557   8.804   2.214  10.564  1.2483 -0.4983  2.0841
  834MOL0     H12558   8.883   2.320  10.374  0.9599 -2.1479  0.9628
  834MOL0     H12559   8.858   2.485  10.440 -0.5138 -0.2526  1.4901
  834MOL0     H12560   9.071   2.279  10.534 -1.9403 -1.5241  3.5203
  834MOL0     H12561   9.038   2.433  10.618  1.4988 -0.9068  1.4266
  834MOL0     H12562   9.067   2.526  10.361 -2.1185  0.2697  2.7161
  834MOL0     H12563   9.143   2.378  10.333  0.7494  0.0894 -0.5724
  834MOL0     H12564   9.254   2.588  10.507 -0.6738  0.4865 -0.4317
  834MOL0     H12565   9.278   2.403  10.557  0.9488 -1.1824 -1.9667
  834MOL0     H12566   9.354   2.509  10.292 -0.0794 -1.9081 -0.4983
  834MOL0     H12567   9.376   2.351  10.384  1.5291 -1.1933 -1.5465
  834MOL0     H12568   9.495   2.626  10.439  0.6375  0.2777  0.5910
  834MOL0     H12569   9.523   2.489  10.540 -3.8564  2.0432  1.8302
  834MOL0     H12570   8.479   2.145  10.243 -1.8894 -1.5931  0.2781
  834MOL0     H12571   8.239   2.143  10.184 -0.2838  1.0836 -0.3698
  834MOL0     H12572   7.856   2.431  10.143 -1.6199  1.4718  0.5406
  834MOL0     H12573   7.620   2.424  10.060  3.2309 -0.8901 -2.2845
  834MOL0     H12574   5.804   2.315   9.947  1.9881  0.0786 -1.2177
  834MOL0     H12575   5.636   2.466   9.827  0.6444 -1.3212  0.1689
  834MOL0     H12576   5.196   2.724   9.982  0.9020  0.5198  0.0771
  834MOL0     H12577   5.028   2.870   9.895 -0.8156 -0.2502 -2.1376
  834MOL0     H12578   5.005   3.010   9.557 -2.9257 -0.4287 -0.0251
  834MOL0     H12579   5.104   3.152   9.569 -0.2377  0.3052 -2.5293
  834MOL0     H12580   4.860   3.206   9.526  1.0896  1.1953 -0.3639
  834MOL0     H12581   4.886   3.265   9.688  1.8187  0.0120 -0.9047
  834MOL0     H12582   4.767   3.090   9.790  0.5392 -1.4416  0.3517
  834MOL0     H12583   4.764   2.989   9.639 -1.5753  0.2880 -0.6019
  834MOL0     H12584   4.627   3.249   9.632  0.6914 -0.6221 -1.7636
  834MOL0     H12585   4.625   3.122   9.522  0.2172  2.7676 -1.1950
  834MOL0     H12586   4.351   2.983   9.799 -1.7109  2.7016  0.8900
  834MOL0     H12587   5.294   3.009   9.596  1.3785 -1.3472 -0.4707
  834MOL0     H12588   5.488   2.884   9.526  0.5625  0.6941 -0.3641
  834MOL0     H12589   5.587   2.889   9.687 -0.5815  0.2913  0.5256
  834MOL0     H12590   5.538   2.749   9.602  2.5540  1.4677 -1.4624
  835MOL0     O12591  10.040   0.523   0.134  0.1021  0.0053  0.3094
  835MOL0     C12592   9.988   0.420   0.102 -0.7335  0.5562  0.3004
  835MOL0     O12593  10.053   0.319   0.042  0.4841  0.1972 -0.3350
  835MOL0     C12594  10.178   0.330  -0.016 -0.5282  0.0139  0.8349
  835MOL0     C12595  10.233   0.450  -0.080  0.5244 -0.9291 -0.7641
  835MOL0     C12596  10.358   0.453  -0.134 -0.3531  0.5943 -0.6309
  835MOL0     C12597  10.435   0.338  -0.150 -0.4064  0.4435 -0.0730
  835MOL0     O12598  10.565   0.345  -0.208  0.6251 -0.4293  0.4101
  835MOL0     C12599  10.630   0.234  -0.268  0.4190  0.8851  0.4847
  835MOL0     C12600  10.699   0.135  -0.174 -1.2616 -0.5989 -0.3998
  835MOL0     C12601  10.826   0.203  -0.125  0.9292 -0.2629  0.0359
  835MOL0     C12602  10.896   0.105  -0.047 -0.4940  0.3623 -0.2752
  835MOL0     C12603  11.042   0.145  -0.003 -0.1233 -0.2851 -0.3450
  835MOL0     C12604  11.060   0.276   0.074  0.6010 -0.5443 -0.3787
  835MOL0     C12605  11.208   0.297   0.106  0.1225  0.0657 -0.0432
  835MOL0     C12606  11.240   0.416   0.193 -0.3672 -0.4471 -0.0372
  835MOL0     N12607  11.387   0.426   0.216 -0.3202 -0.0874 -0.6080
  835MOL0     C12608  11.488   0.469   0.138 -0.0670 -0.8814  0.4326
  835MOL0     C12609  11.600   0.443   0.197 -0.3460 -0.6066 -1.4799
  835MOL0     C12610  11.742   0.487   0.156  0.7579 -0.5911 -0.1937
  835MOL0     C12611  11.855   0.395   0.216 -0.1100 -0.3911  0.0445
  835MOL0     C12612  11.993   0.434   0.171  0.5836 -0.8570  0.1032
  835MOL0     C12613  12.103   0.356   0.241  0.8617  0.6120 -0.4160
  835MOL0     O12614  12.235   0.414   0.212  0.3993  0.0332 -0.6017
  835MOL0     C12615  12.343   0.370   0.282 -0.5315  0.1525 -1.0870
  835MOL0     C12616  12.348   0.256   0.364 -0.0583  0.3481  0.6456
  835MOL0     C12617  12.468   0.215   0.420 -0.3620  0.1296  0.1788
  835MOL0     C12618  12.580   0.297   0.405 -0.9718 -0.5631 -0.2727
  835MOL0     C12619  12.716   0.246   0.441  0.1748 -0.5444 -0.1579
  835MOL0     O12620  12.818   0.317   0.391  0.6273  0.4035  0.0747
  835MOL0     C12621  12.949   0.281   0.414 -0.5249 -0.7683  0.9259
  835MOL0     C12622  12.999   0.151   0.432  0.3490 -0.5028 -0.9421
  835MOL0     C12623  13.135   0.132   0.464 -0.1273  0.3329  0.1723
  835MOL0     C12624  13.225   0.238   0.470 -0.2480 -0.4605 -0.0605
  835MOL0     O12625  13.357   0.192   0.502  0.5239  0.5845 -0.1469
  835MOL0     C12626  13.465   0.278   0.477 -0.4873 -0.4031  0.2614
  835MOL0     C12627  13.589   0.197   0.507  0.0580 -0.0585  0.0832
  835MOL0     C12628  13.705   0.284   0.557 -0.1520 -0.4741 -0.1848
  835MOL0     C12629  13.826   0.204   0.596  0.0614  0.0538  0.1379
  835MOL0     C12630  13.950   0.283   0.650  0.6046  0.2662  0.3602
  835MOL0     C12631  14.066   0.202   0.682 -0.2128  0.3172  0.2901
  835MOL0     C12632  14.178   0.285   0.745 -0.1705  0.5430  0.1656
  835MOL0     C12633  14.295   0.203   0.806  0.4365 -0.2748 -0.4719
  835MOL0    Cl12634  14.366   0.108   0.677  0.0677 -0.0077  0.2627
  835MOL0     C12635  13.180   0.365   0.435  0.5358 -0.0307 -0.3062
  835MOL0     C12636  13.040   0.386   0.411 -0.5881  0.0668 -0.6314
  835MOL0     O12637  12.722   0.154   0.517  0.1172 -0.3964 -0.6170
  835MOL0     C12638  12.568   0.416   0.336 -0.3833  0.6201 -0.1941
  835MOL0     C12639  12.458   0.451   0.273  0.1192  0.4508  0.2292
  835MOL0     N12640  11.571   0.361   0.307 -0.2453  0.0656  0.3369
  835MOL0     N12641  11.443   0.364   0.326  0.7349 -0.3029 -0.1004
  835MOL0     C12642  10.382   0.218  -0.097  0.5013 -0.2701  0.3196
  835MOL0     C12643  10.254   0.211  -0.037  0.7456 -0.6323 -0.2751
  835MOL0     C12644   9.838   0.413   0.125 -0.6498  0.8035  1.2790
  835MOL0     C12645   9.772   0.531   0.162 -0.1592  0.0850  0.1339
  835MOL0     C12646   9.627   0.537   0.164 -0.2694  0.4877  0.2614
  835MOL0     C12647   9.560   0.415   0.135 -0.0995 -0.1474  0.1201
  835MOL0     O12648   9.424   0.399   0.143  0.6529  0.0593 -0.0340
  835MOL0     C12649   9.352   0.513   0.172 -0.0561  0.8268 -0.6104
  835MOL0     C12650   9.205   0.497   0.141  1.2500 -0.2274  0.5837
  835MOL0     C12651   9.115   0.563   0.252  0.7753 -0.2165  0.6159
  835MOL0     C12652   9.118   0.718   0.242  0.1800 -0.5107 -0.3482
  835MOL0     C12653   9.219   0.781   0.329  0.2018  0.2008  0.0934
  835MOL0     C12654   9.305   0.830   0.399 -0.0686 -0.5648  0.0655
  835MOL0     C12655   9.626   0.302   0.115 -0.0167  0.1551 -0.0044
  835MOL0     C12656   9.763   0.291   0.107  0.4604  0.5984 -0.2579
  835MOL0     C12657   9.818   0.151   0.080  0.2478  0.7282 -0.4536
  835MOL0     H12658  10.177   0.541  -0.098 -1.5448 -2.1118 -0.5773
  835MOL0     H12659  10.404   0.540  -0.180  0.2883  0.7611  0.2791
  835MOL0     H12660  10.559   0.177  -0.329  0.9741  0.4314  0.2568
  835MOL0     H12661  10.707   0.270  -0.337 -1.6096  0.1648 -2.3365
  835MOL0     H12662  10.718   0.048  -0.238 -3.0504  0.5627 -2.6550
  835MOL0     H12663  10.650   0.105  -0.080  1.3171 -0.0212  1.2300
  835MOL0     H12664  10.812   0.295  -0.068  0.6231 -1.4635  2.0140
  835MOL0     H12665  10.884   0.226  -0.214 -0.7956  0.1953 -1.0125
  835MOL0     H12666  10.836   0.065   0.035 -0.5233 -1.5964 -1.1925
  835MOL0     H12667  10.909   0.024  -0.119  0.7112  2.0689 -2.1192
  835MOL0     H12668  11.083   0.062   0.056 -1.3022  0.4781  1.6479
  835MOL0     H12669  11.087   0.157  -0.102 -0.9001  0.2138 -0.6471
  835MOL0     H12670  11.028   0.342  -0.008 -0.2935 -0.8549 -0.2844
  835MOL0     H12671  10.991   0.291   0.157  0.8185 -0.8528 -0.1421
  835MOL0     H12672  11.272   0.302   0.018  1.8233  2.3875  1.2126
  835MOL0     H12673  11.231   0.203   0.157 -0.4813 -1.7009 -2.8107
  835MOL0     H12674  11.218   0.508   0.139 -3.4719 -1.3637 -0.5472
  835MOL0     H12675  11.175   0.421   0.282 -1.3714 -0.4294 -0.7555
  835MOL0     H12676  11.465   0.528   0.050 -3.2129 -1.8332  0.5214
  835MOL0     H12677  11.750   0.496   0.048 -1.6491  0.0635 -0.3732
  835MOL0     H12678  11.747   0.590   0.193 -0.6105 -0.3744 -0.5559
  835MOL0     H12679  11.856   0.398   0.325  1.5707  2.7690  0.0492
  835MOL0     H12680  11.831   0.295   0.178  1.4533 -0.4795 -0.7607
  835MOL0     H12681  12.016   0.540   0.178 -1.1550 -0.0060 -4.2383
  835MOL0     H12682  12.008   0.427   0.063 -0.7058  3.3885 -0.5126
  835MOL0     H12683  12.107   0.254   0.202 -1.2868  0.8638 -1.4377
  835MOL0     H12684  12.078   0.353   0.347 -1.8224  2.1409 -0.9233
  835MOL0     H12685  12.262   0.190   0.371 -1.2270  1.2409 -3.0825
  835MOL0     H12686  12.478   0.131   0.489 -0.0776  1.7263  2.1976
  835MOL0     H12687  12.929   0.069   0.439  1.1876 -1.2497 -1.0660
  835MOL0     H12688  13.166   0.030   0.484 -0.3892  0.3112  0.4823
  835MOL0     H12689  13.471   0.312   0.373  3.4133 -2.2931 -0.3208
  835MOL0     H12690  13.457   0.358   0.551 -2.4110 -0.5692  0.2649
  835MOL0     H12691  13.567   0.115   0.577  0.0428  0.5964  0.8689
  835MOL0     H12692  13.625   0.147   0.417  2.8743  0.1815  0.9754
  835MOL0     H12693  13.730   0.348   0.472 -0.7102  0.7455  0.5426
  835MOL0     H12694  13.673   0.344   0.642  2.2952 -1.5803  1.6199
  835MOL0     H12695  13.868   0.161   0.505  0.9396  1.4685 -0.1670
  835MOL0     H12696  13.813   0.113   0.654  1.4873 -0.7601 -0.7471
  835MOL0     H12697  13.922   0.333   0.744 -0.7992  0.7085 -0.2643
  835MOL0     H12698  13.978   0.362   0.580 -2.1246  1.8976  0.9467
  835MOL0     H12699  14.032   0.126   0.752 -1.1102 -1.1075 -1.5765
  835MOL0     H12700  14.101   0.154   0.589  1.9943 -0.0587  1.2482
  835MOL0     H12701  14.134   0.344   0.825 -1.4237  0.5965 -0.5255
  835MOL0     H12702  14.219   0.359   0.676  2.1674  1.1747  2.1234
  835MOL0     H12703  14.378   0.258   0.850  2.2453 -2.8578 -0.4379
  835MOL0     H12704  14.251   0.141   0.884 -1.5177  0.4650 -0.9143
  835MOL0     H12705  13.240   0.455   0.432 -0.1133  0.3885 -0.9886
  835MOL0     H12706  13.000   0.482   0.380 -0.2950 -0.6166 -3.3738
  835MOL0     H12707  12.647   0.489   0.321 -1.8973  2.2575 -0.5628
  835MOL0     H12708  12.460   0.541   0.212  2.4430 -1.6845 -3.1049
  835MOL0     H12709  10.428   0.122  -0.113 -1.3097 -1.5770  2.4134
  835MOL0     H12710  10.204   0.120  -0.005  2.8651 -1.0614  2.0929
  835MOL0     H12711   9.831   0.621   0.175  1.2088 -0.6631 -0.6553
  835MOL0     H12712   9.585   0.636   0.175 -0.0516  0.3974  2.4651
  835MOL0     H12713   9.400   0.601   0.126 -0.4022  2.6213  2.2025
  835MOL0     H12714   9.374   0.530   0.277  1.7667 -1.9223 -0.4647
  835MOL0     H12715   9.172   0.393   0.140 -2.3856  0.7893 -0.3145
  835MOL0     H12716   9.181   0.547   0.047  2.0949  0.2048  0.5887
  835MOL0     H12717   9.144   0.529   0.352 -1.7771 -1.7273  0.9130
  835MOL0     H12718   9.011   0.533   0.237  0.7636  0.0903  0.0624
  835MOL0     H12719   9.132   0.756   0.141  0.6442  2.2453  0.6845
  835MOL0     H12720   9.025   0.754   0.286 -0.5033 -0.0012 -2.1074
  835MOL0     H12721   9.363   0.882   0.472  0.1656 -0.2020 -0.3762
  835MOL0     H12722   9.573   0.208   0.105  0.4208  0.0720 -1.7122
  835MOL0     H12723   9.899   0.121   0.147  0.7019 -1.0850 -1.7375
  835MOL0     H12724   9.746   0.071   0.099  0.9638  0.3162  0.6527
  835MOL0     H12725   9.862   0.151  -0.020  1.3802  1.1892  0.0225
  836MOL0     O12726   1.720   9.229   0.178  0.4770 -0.3570  0.1117
  836MOL0     C12727   1.667   9.154   0.261 -0.2885 -0.0836 -0.2939
  836MOL0     O12728   1.732   9.080   0.365  0.3787 -0.5009  0.3114
  836MOL0     C12729   1.868   9.085   0.392  0.6733 -0.6547  0.3754
  836MOL0     C12730   1.958   9.091   0.279  0.3776  0.5577 -0.6137
  836MOL0     C12731   2.089   9.095   0.310 -0.0717 -0.6545  0.0725
  836MOL0     C12732   2.147   9.108   0.435  0.0156  0.6156  0.1805
  836MOL0     O12733   2.281   9.127   0.451 -0.3901  0.3941 -0.3677
  836MOL0     C12734   2.381   9.059   0.375  0.1875  0.9164  0.9437
  836MOL0     C12735   2.515   9.116   0.409  0.6801 -0.1057  0.5619
  836MOL0     C12736   2.626   9.062   0.324 -0.0767  0.3192 -0.5781
  836MOL0     C12737   2.769   9.114   0.374 -1.0119  0.1030  0.2529
  836MOL0     C12738   2.882   9.042   0.291 -0.7093  0.7689  0.0836
  836MOL0     C12739   2.868   9.018   0.137  0.5865 -0.2022  0.1219
  836MOL0     C12740   3.001   8.993   0.073  0.3889 -0.6827 -1.4558
  836MOL0     C12741   3.000   8.992  -0.078 -0.8731 -0.9901  0.9726
  836MOL0     N12742   3.134   8.952  -0.133  0.4672  0.1047  0.3206
  836MOL0     C12743   3.235   8.880  -0.064 -0.3884 -0.1705  0.2328
  836MOL0     C12744   3.317   8.855  -0.168  0.0862  0.4007 -0.8238
  836MOL0     C12745   3.442   8.766  -0.153 -0.2132  0.4989 -0.1101
  836MOL0     C12746   3.496   8.707  -0.285 -0.4254  0.8325  0.7170
  836MOL0     C12747   3.561   8.808  -0.387 -0.1009  0.4388 -0.6364
  836MOL0     C12748   3.693   8.864  -0.334  0.9394 -0.2788 -0.4166
  836MOL0     O12749   3.780   8.756  -0.307  0.0889  0.5614  0.2653
  836MOL0     C12750   3.909   8.793  -0.299 -0.7264 -1.3480 -0.5995
  836MOL0     C12751   4.006   8.705  -0.350  1.1791  0.5196  0.1746
  836MOL0     C12752   4.143   8.738  -0.346  0.4308  0.2984 -0.4046
  836MOL0     C12753   4.186   8.864  -0.306 -0.5774  0.1327  0.1555
  836MOL0     C12754   4.327   8.897  -0.317 -0.3031 -1.5499  0.2871
  836MOL0     O12755   4.415   8.799  -0.351  0.2088  0.2675 -0.2471
  836MOL0     C12756   4.550   8.827  -0.337  0.1816  0.3026 -0.4940
  836MOL0     C12757   4.605   8.933  -0.403  0.1003  0.4099  0.3337
  836MOL0     C12758   4.745   8.967  -0.374  0.5908 -0.1104 -0.4317
  836MOL0     C12759   4.809   8.903  -0.272 -0.3524  0.6875  0.0078
  836MOL0     O12760   4.940   8.932  -0.236  0.2480  0.6953  0.2139
  836MOL0     C12761   5.039   8.971  -0.341  0.2513 -0.6443  0.4927
  836MOL0     C12762   5.170   8.975  -0.265  0.1474 -1.1430 -0.5910
  836MOL0     C12763   5.279   9.031  -0.358 -0.0574 -0.0032  0.3166
  836MOL0     C12764   5.414   9.047  -0.292 -0.3530 -0.4668  1.0031
  836MOL0     C12765   5.532   9.051  -0.381  0.8182  0.1893 -0.3161
  836MOL0     C12766   5.546   8.930  -0.475 -0.3012 -0.0255 -0.4786
  836MOL0     C12767   5.691   8.915  -0.527 -0.2388 -1.0506  0.3111
  836MOL0     C12768   5.697   8.789  -0.612  0.1224 -0.1949 -0.1780
  836MOL0    Cl12769   5.859   8.719  -0.569 -0.0275  0.0373  0.0185
  836MOL0     C12770   4.750   8.798  -0.195  0.4129 -0.2919 -0.0711
  836MOL0     C12771   4.618   8.761  -0.231 -0.3360  0.2249 -0.2240
  836MOL0     O12772   4.359   9.017  -0.289  0.2716  0.4394  0.3640
  836MOL0     C12773   4.091   8.950  -0.254  0.9491  0.1938 -0.4542
  836MOL0     C12774   3.953   8.918  -0.244 -0.2585 -0.6656  0.1297
  836MOL0     N12775   3.262   8.899  -0.285 -0.1259  0.2577  1.2779
  836MOL0     N12776   3.158   8.971  -0.263  0.5008 -0.1625  0.0620
  836MOL0     C12777   2.060   9.108   0.543 -0.0691 -0.1900 -0.6551
  836MOL0     C12778   1.922   9.095   0.521 -1.1761  0.3485  0.0607
  836MOL0     C12779   1.516   9.150   0.264  0.9283 -0.2874 -0.0237
  836MOL0     C12780   1.455   9.101   0.382  0.2830 -0.0079 -0.0231
  836MOL0     C12781   1.315   9.085   0.394  0.0950  0.6561 -0.0405
  836MOL0     C12782   1.234   9.128   0.292 -0.3000  0.4374 -0.4603
  836MOL0     O12783   1.099   9.120   0.319  0.2164  0.0761 -0.3214
  836MOL0     C12784   1.015   9.178   0.220  0.1964  0.8538  1.2365
  836MOL0     C12785   0.863   9.152   0.246 -0.7058  0.0712 -0.4038
  836MOL0     C12786   0.822   9.234   0.363  0.7253 -0.6176 -0.8407
  836MOL0     C12787   0.675   9.220   0.389  1.3693  0.3590  0.4551
  836MOL0     C12788   0.586   9.270   0.281 -0.4812  0.3104 -0.5993
  836MOL0     C12789   0.507   9.308   0.193  0.5465 -0.7444  0.0068
  836MOL0     C12790   1.293   9.172   0.171  0.9021 -0.5873  0.4538
  836MOL0     C12791   1.429   9.188   0.157  0.0933 -0.0033  0.2193
  836MOL0     C12792   1.476   9.238   0.020 -0.4645  0.0801 -0.9834
  836MOL0     H12793   1.929   9.071   0.176 -1.3111  1.1901 -0.2862
  836MOL0     H12794   2.163   9.082   0.232 -0.6258  0.5675 -0.6837
  836MOL0     H12795   2.368   8.955   0.408 -2.3469  1.4932  2.0029
  836MOL0     H12796   2.369   9.082   0.269 -2.3135  1.3068  1.2440
  836MOL0     H12797   2.536   9.109   0.516 -3.9619  0.8172  1.7312
  836MOL0     H12798   2.505   9.222   0.382  3.1412  0.0810  0.1639
  836MOL0     H12799   2.614   9.086   0.218 -2.0951  1.8704 -0.0540
  836MOL0     H12800   2.616   8.953   0.318 -0.3782  0.4127 -2.2973
  836MOL0     H12801   2.780   9.221   0.357  0.3804 -0.1857 -0.8199
  836MOL0     H12802   2.776   9.096   0.481 -0.1495 -3.0911 -0.2358
  836MOL0     H12803   2.977   9.097   0.303  0.2730  0.2647 -3.9889
  836MOL0     H12804   2.900   8.945   0.338 -1.0577 -0.3960 -2.0701
  836MOL0     H12805   2.801   8.932   0.132 -2.2065  1.7031  1.8181
  836MOL0     H12806   2.816   9.099   0.085  1.1382  0.0530 -0.0478
  836MOL0     H12807   3.052   8.911   0.124 -0.6320 -0.9205 -0.7647
  836MOL0     H12808   3.060   9.081   0.098  2.1140 -2.1759  0.0230
  836MOL0     H12809   2.932   8.910  -0.106 -0.7812 -1.4920  2.1642
  836MOL0     H12810   2.979   9.081  -0.138  0.0646 -2.2651 -1.3729
  836MOL0     H12811   3.247   8.843   0.037  0.1945  0.2653  0.3304
  836MOL0     H12812   3.522   8.830  -0.114 -0.0904 -0.7385  1.7732
  836MOL0     H12813   3.422   8.687  -0.080 -0.6660  0.0288 -0.7311
  836MOL0     H12814   3.564   8.624  -0.263 -1.9087 -0.7003 -0.2661
  836MOL0     H12815   3.409   8.660  -0.329  0.6810 -0.8871  0.2643
  836MOL0     H12816   3.492   8.891  -0.406  2.6660  3.0391  0.0037
  836MOL0     H12817   3.577   8.751  -0.479 -3.9831  0.1701 -1.3399
  836MOL0     H12818   3.670   8.929  -0.249  0.7493 -1.2753  0.3183
  836MOL0     H12819   3.728   8.917  -0.422 -0.1295 -0.8942 -1.2368
  836MOL0     H12820   3.961   8.612  -0.382 -0.1121 -0.1314  3.4301
  836MOL0     H12821   4.202   8.652  -0.375 -0.1758 -0.8164  1.4622
  836MOL0     H12822   4.556   8.982  -0.486  0.1080  0.0714  0.1268
  836MOL0     H12823   4.791   9.051  -0.428  3.3287 -0.5788  0.9731
  836MOL0     H12824   5.044   8.899  -0.423  3.0650 -2.2963  1.9512
  836MOL0     H12825   5.020   9.064  -0.396  0.9697 -2.2658 -2.7045
  836MOL0     H12826   5.138   9.037  -0.181 -1.1577 -2.2011 -0.2655
  836MOL0     H12827   5.193   8.874  -0.230  0.7476 -1.0168 -0.6149
  836MOL0     H12828   5.293   8.958  -0.438 -1.1043  0.4945 -0.3359
  836MOL0     H12829   5.259   9.129  -0.402  2.1685 -0.3663 -1.7034
  836MOL0     H12830   5.431   8.978  -0.209  1.6697  0.1746  1.1702
  836MOL0     H12831   5.418   9.149  -0.252 -1.0666  1.0780 -2.5268
  836MOL0     H12832   5.618   9.061  -0.315 -1.3090  0.1314  2.6959
  836MOL0     H12833   5.533   9.140  -0.445 -0.2057  1.6379  1.5888
  836MOL0     H12834   5.508   8.843  -0.421 -0.2557  0.4948  0.4096
  836MOL0     H12835   5.490   8.950  -0.566 -0.4511 -0.1238 -0.4085
  836MOL0     H12836   5.758   8.904  -0.441 -0.2551  0.0747  0.4934
  836MOL0     H12837   5.724   9.004  -0.581  0.0816 -0.3742  1.5783
  836MOL0     H12838   5.620   8.716  -0.587  0.7580 -0.5324  0.8901
  836MOL0     H12839   5.697   8.804  -0.720 -2.0938 -2.8117 -0.6452
  836MOL0     H12840   4.805   8.762  -0.109 -0.7007 -1.5170  0.1465
  836MOL0     H12841   4.551   8.699  -0.172 -2.9342  1.8074 -1.3398
  836MOL0     H12842   4.121   9.052  -0.234  0.3863  0.4485 -0.8999
  836MOL0     H12843   3.887   8.993  -0.201  3.3074  2.9917 -0.2261
  836MOL0     H12844   2.099   9.105   0.644  3.1842 -2.6188 -1.8204
  836MOL0     H12845   1.864   9.110   0.611 -1.5638  2.0532 -0.4272
  836MOL0     H12846   1.503   9.057   0.468 -2.1292 -1.9595  0.4385
  836MOL0     H12847   1.264   9.058   0.486 -1.8559 -3.9047 -2.1724
  836MOL0     H12848   1.041   9.128   0.126 -0.1314 -0.5570  1.8839
  836MOL0     H12849   1.039   9.281   0.191  1.8824 -0.1386 -1.2671
  836MOL0     H12850   0.858   9.044   0.264 -0.7962  0.0564 -0.5155
  836MOL0     H12851   0.809   9.170   0.152 -1.1449 -0.0073 -0.1639
  836MOL0     H12852   0.849   9.336   0.335  2.4026 -1.0802 -1.0598
  836MOL0     H12853   0.873   9.189   0.449 -0.7064 -1.8354 -0.5942
  836MOL0     H12854   0.648   9.116   0.409 -2.0143  1.1326  0.5643
  836MOL0     H12855   0.639   9.273   0.478 -1.6929  3.3694 -2.2838
  836MOL0     H12856   0.434   9.340   0.121  0.9672  1.2280  0.4136
  836MOL0     H12857   1.231   9.207   0.089  1.3725 -0.7681  0.0174
  836MOL0     H12858   1.522   9.337   0.031  3.2801 -1.5723 -0.2374
  836MOL0     H12859   1.557   9.173  -0.011  0.0798 -0.8097  1.9984
  836MOL0     H12860   1.395   9.241  -0.054 -1.0166  1.4866 -0.3782
  837MOL0     O12861   7.544   5.376  10.794 -1.1688 -0.1477  0.1615
  837MOL0     C12862   7.465   5.467  10.829 -0.8195  0.0404 -0.3440
  837MOL0     O12863   7.503   5.587  10.872  0.5517 -0.0763 -0.3016
  837MOL0     C12864   7.638   5.612  10.901 -0.2412  0.9160  0.6125
  837MOL0     C12865   7.695   5.585  11.024 -0.7348  0.7089 -0.3001
  837MOL0     C12866   7.835   5.613  11.047 -0.3978 -0.6794  0.2368
  837MOL0     C12867   7.917   5.662  10.941 -0.2521 -0.5278  0.6319
  837MOL0     O12868   8.048   5.697  10.954 -0.1464 -0.0799  0.5910
  837MOL0     C12869   8.079   5.839  10.952  0.9244  0.6179  0.3156
  837MOL0     C12870   8.201   5.858  11.039 -1.0882  0.2689  0.2662
  837MOL0     C12871   8.172   5.883  11.182  0.5970 -0.0036 -0.4632
  837MOL0     C12872   8.290   5.924  11.279  0.1339  0.3982 -0.5543
  837MOL0     C12873   8.343   6.066  11.252  0.0095 -0.0168 -0.6099
  837MOL0     C12874   8.467   6.108  11.333  0.2797  0.4965  0.4327
  837MOL0     C12875   8.582   6.015  11.287  0.0784 -0.2359  0.4899
  837MOL0     C12876   8.704   6.090  11.305 -1.3826  0.3027  0.3649
  837MOL0     N12877   8.824   6.013  11.276  0.0329 -0.1348  0.4961
  837MOL0     C12878   8.867   5.909  11.354 -0.5206 -1.2462 -0.7800
  837MOL0     C12879   8.978   5.865  11.295 -0.0463  0.3658  0.7230
  837MOL0     C12880   9.058   5.735  11.328  0.0421 -0.5817  0.2861
  837MOL0     C12881   9.021   5.620  11.240 -0.0048  0.0444  0.0299
  837MOL0     C12882   9.116   5.499  11.257 -0.3893  0.9503 -0.5627
  837MOL0     C12883   9.263   5.531  11.243 -0.5097  0.0483 -0.1609
  837MOL0     O12884   9.325   5.418  11.178 -0.1052 -0.0213  0.7812
  837MOL0     C12885   9.457   5.432  11.138  0.4989 -0.6082  0.7314
  837MOL0     C12886   9.506   5.366  11.033 -0.5956  0.2141  0.2650
  837MOL0     C12887   9.643   5.358  10.995 -0.5895  0.2703  0.0155
  837MOL0     C12888   9.740   5.434  11.070 -0.2266  0.4129 -0.4872
  837MOL0     C12889   9.887   5.438  11.046  0.1727  0.6281 -0.8944
  837MOL0     O12890   9.962   5.499  11.134 -0.5800 -0.3510 -0.4286
  837MOL0     C12891  10.088   5.458  11.150 -0.7507 -0.3390  0.0322
  837MOL0     C12892  10.124   5.401  11.274 -0.8658  0.5802  0.1913
  837MOL0     C12893  10.257   5.348  11.298 -0.1872  0.1811  0.4317
  837MOL0     C12894  10.359   5.375  11.203  0.4255 -0.0630 -0.4057
  837MOL0     O12895  10.485   5.345  11.249  0.0940 -0.0844 -0.1842
  837MOL0     C12896  10.587   5.415  11.175 -0.1879  0.5629  0.1440
  837MOL0     C12897  10.655   5.329  11.061 -0.0853  0.8596 -0.0337
  837MOL0     C12898  10.783   5.403  10.999  0.4499 -0.8147 -0.4704
  837MOL0     C12899  10.813   5.348  10.864 -0.3647 -0.1796 -0.2434
  837MOL0     C12900  10.948   5.408  10.821 -0.0583  0.0047 -0.3145
  837MOL0     C12901  10.967   5.401  10.677 -0.3809  0.2636 -0.1620
  837MOL0     C12902  11.097   5.476  10.634 -0.2466 -0.8678 -0.0315
  837MOL0     C12903  11.226   5.412  10.684 -0.4205  0.2080 -0.9417
  837MOL0    Cl12904  11.358   5.510  10.622 -0.0184  0.1503 -0.2509
  837MOL0     C12905  10.326   5.419  11.077  0.2311  0.7618  0.1923
  837MOL0     C12906  10.191   5.463  11.052 -0.8767  0.2033  0.2894
  837MOL0     O12907   9.924   5.359  10.958  0.0908 -1.2575 -0.6324
  837MOL0     C12908   9.690   5.499  11.181  0.3207 -0.5391  0.0859
  837MOL0     C12909   9.550   5.513  11.209 -1.2153  0.1291  0.8089
  837MOL0     N12910   8.990   5.942  11.178  0.1995 -1.1597  0.2630
  837MOL0     N12911   8.895   6.028  11.171  0.2413 -0.3213  0.2995
  837MOL0     C12912   7.854   5.677  10.817 -0.6627  0.2310  0.0350
  837MOL0     C12913   7.721   5.659  10.794 -0.3366  0.5114 -1.4311
  837MOL0     C12914   7.322   5.441  10.821 -0.2909 -0.2852  0.5346
  837MOL0     C12915   7.256   5.438  10.697  0.0849  0.2270 -0.1686
  837MOL0     C12916   7.118   5.415  10.701  0.3685 -0.2922 -0.1936
  837MOL0     C12917   7.046   5.401  10.822 -0.7641 -0.1050  0.2842
  837MOL0     O12918   6.913   5.382  10.844  0.2975  0.2916 -0.0350
  837MOL0     C12919   6.854   5.262  10.799 -0.0972  1.2221  0.2862
  837MOL0     C12920   6.778   5.185  10.903  0.2007 -0.2223  0.2548
  837MOL0     C12921   6.688   5.281  10.985 -0.0432  0.0514 -0.0578
  837MOL0     C12922   6.589   5.212  11.075  0.4037 -0.0119 -0.1927
  837MOL0     C12923   6.497   5.135  10.983 -1.1509 -0.7189  0.0285
  837MOL0     C12924   6.422   5.071  10.916 -0.0814  0.0457  0.1257
  837MOL0     C12925   7.105   5.420  10.938  0.3596 -0.0079  0.1004
  837MOL0     C12926   7.247   5.437  10.942  0.2830 -0.6383 -1.0229
  837MOL0     C12927   7.304   5.439  11.082  0.0425  0.2888  0.2141
  837MOL0     H12928   7.626   5.542  11.097  0.1544 -1.0437 -0.4460
  837MOL0     H12929   7.872   5.592  11.146  2.6940  0.0070 -0.6724
  837MOL0     H12930   8.092   5.883  10.852  0.2019  1.5938  0.6353
  837MOL0     H12931   7.997   5.900  10.989  1.3986  1.5493 -0.1268
  837MOL0     H12932   8.242   5.956  11.013  0.4179  0.2258  2.2777
  837MOL0     H12933   8.284   5.789  11.028  0.0959  1.9999 -3.2380
  837MOL0     H12934   8.148   5.782  11.218  1.2383  0.0856  0.2247
  837MOL0     H12935   8.081   5.941  11.200  0.1631 -0.6644 -0.4921
  837MOL0     H12936   8.257   5.916  11.383  2.6485  1.5721  0.4315
  837MOL0     H12937   8.375   5.854  11.276 -0.0813  0.1580 -1.3003
  837MOL0     H12938   8.358   6.083  11.145  1.4176  1.7673 -0.1837
  837MOL0     H12939   8.268   6.140  11.282  1.2481  0.2640  2.2313
  837MOL0     H12940   8.490   6.214  11.318  2.7411  0.0874  1.0043
  837MOL0     H12941   8.455   6.104  11.442  1.7191 -0.2265  0.5902
  837MOL0     H12942   8.578   6.004  11.178 -1.7405  0.5328  0.4483
  837MOL0     H12943   8.587   5.919  11.338  1.6636 -1.1855 -1.3434
  837MOL0     H12944   8.702   6.179  11.242  1.2471  0.7297  0.7540
  837MOL0     H12945   8.718   6.116  11.410 -2.3765  0.4245  0.4734
  837MOL0     H12946   8.818   5.874  11.444  1.2952 -1.1446  0.2852
  837MOL0     H12947   9.163   5.762  11.318  0.6264 -2.7843  0.1197
  837MOL0     H12948   9.047   5.691  11.428 -0.8540 -0.4046  0.2736
  837MOL0     H12949   8.924   5.580  11.271  1.9188 -6.2762 -0.4997
  837MOL0     H12950   9.018   5.660  11.138 -0.4471  0.7862  0.3310
  837MOL0     H12951   9.095   5.431  11.174  0.7160  1.3818 -1.2144
  837MOL0     H12952   9.105   5.446  11.352  0.6391 -1.8560 -1.9019
  837MOL0     H12953   9.314   5.552  11.338  0.8694 -0.3914 -0.7901
  837MOL0     H12954   9.269   5.616  11.175 -2.4089  1.2851  1.1109
  837MOL0     H12955   9.444   5.293  10.982  0.9029 -0.7508 -0.2401
  837MOL0     H12956   9.649   5.296  10.905 -2.6530  0.8121 -0.5655
  837MOL0     H12957  10.049   5.386  11.352 -0.4383  1.4758  0.7987
  837MOL0     H12958  10.275   5.301  11.394 -1.8232 -0.4531  0.4479
  837MOL0     H12959  10.555   5.509  11.130  0.3865  0.5704 -0.2639
  837MOL0     H12960  10.662   5.445  11.247 -2.2502  4.1637  1.0318
  837MOL0     H12961  10.691   5.237  11.107  0.1973  0.7393 -0.4934
  837MOL0     H12962  10.589   5.285  10.985  0.4897  0.1886 -0.1531
  837MOL0     H12963  10.762   5.510  10.993  1.1664 -0.4317  2.3895
  837MOL0     H12964  10.877   5.399  11.055  0.3441  2.2346  0.1073
  837MOL0     H12965  10.743   5.385  10.788 -0.2566  1.4651  0.4146
  837MOL0     H12966  10.821   5.239  10.854 -0.6174 -0.1812 -0.4403
  837MOL0     H12967  11.032   5.367  10.878  0.1202  2.7866  1.6431
  837MOL0     H12968  10.939   5.513  10.852 -1.4177 -0.3926  0.7353
  837MOL0     H12969  10.985   5.295  10.656  1.1125  0.4519  0.0879
  837MOL0     H12970  10.889   5.431  10.607  0.8415  0.5442 -1.4443
  837MOL0     H12971  11.103   5.574  10.683  5.0999 -0.2454 -1.3576
  837MOL0     H12972  11.101   5.482  10.525  0.0630 -1.5371 -0.0603
  837MOL0     H12973  11.226   5.408  10.793 -0.7139  2.5995 -0.8166
  837MOL0     H12974  11.226   5.310  10.642 -0.4627 -0.0378 -0.3576
  837MOL0     H12975  10.396   5.428  10.995  0.2574  4.0463  0.4730
  837MOL0     H12976  10.161   5.506  10.958 -0.8176  0.9083  0.5880
  837MOL0     H12977   9.760   5.541  11.254  0.5179  1.7121 -1.3029
  837MOL0     H12978   9.522   5.578  11.291  0.7101  0.6074  1.1404
  837MOL0     H12979   7.913   5.711  10.732 -0.5963  1.0183  0.3890
  837MOL0     H12980   7.680   5.658  10.694 -1.6333  2.8643 -0.9991
  837MOL0     H12981   7.322   5.443  10.611  2.1204  0.0106  1.3110
  837MOL0     H12982   7.067   5.405  10.605 -1.0846  0.0708  0.5107
  837MOL0     H12983   6.931   5.191  10.766 -0.3571  1.1868 -0.2566
  837MOL0     H12984   6.799   5.278  10.706 -0.8144  2.3790  0.8892
  837MOL0     H12985   6.837   5.130  10.977  2.8329 -0.5124 -1.9097
  837MOL0     H12986   6.727   5.101  10.854 -0.2238  0.9451 -1.3694
  837MOL0     H12987   6.632   5.346  10.917  1.4787  1.6686  0.1644
  837MOL0     H12988   6.752   5.345  11.047 -0.6363  1.2788 -0.6803
  837MOL0     H12989   6.631   5.142  11.148  1.6548  1.9247  1.0315
  837MOL0     H12990   6.536   5.290  11.131  0.6116 -1.7812  2.6706
  837MOL0     H12991   6.349   5.016  10.860  0.2486  0.7570 -1.0291
  837MOL0     H12992   7.047   5.408  11.029  1.6332  0.3496  0.9783
  837MOL0     H12993   7.215   5.422  11.143 -1.2664 -0.6729 -1.8478
  837MOL0     H12994   7.384   5.366  11.098  0.4369  0.4279 -0.9963
  837MOL0     H12995   7.339   5.541  11.098  1.2245  0.2305 -1.7109
  838MOL0     O12996  11.011   9.000   2.621  0.4093  0.3107  0.0046
  838MOL0     C12997  11.018   9.066   2.514  0.4026 -0.2034 -0.8295
  838MOL0     O12998  11.123   9.143   2.478 -0.1145 -0.3873 -0.4989
  838MOL0     C12999  11.238   9.154   2.550 -1.2083 -0.5949  0.2309
  838MOL0     C13000  11.328   9.053   2.567 -0.0752  0.6449 -0.5759
  838MOL0     C13001  11.448   9.082   2.630  0.0327  1.0523 -0.4397
  838MOL0     C13002  11.468   9.208   2.684 -0.1726  0.5459 -1.2988
  838MOL0     O13003  11.596   9.225   2.734 -0.0319 -0.5133  0.5030
  838MOL0     C13004  11.649   9.358   2.756  0.9390  0.5849 -0.4653
  838MOL0     C13005  11.773   9.337   2.836 -0.4629 -0.0716  0.0560
  838MOL0     C13006  11.831   9.472   2.890 -0.6416 -0.3667 -0.1939
  838MOL0     C13007  11.885   9.574   2.789 -0.1502  0.0339  0.3038
  838MOL0     C13008  12.018   9.518   2.735 -0.3486  0.4676 -1.1364
  838MOL0     C13009  12.133   9.542   2.834  0.1793  0.5880  0.3951
  838MOL0     C13010  12.244   9.440   2.801  0.4266  0.4646 -0.3122
  838MOL0     C13011  12.327   9.480   2.680  0.4335  0.1903 -0.1110
  838MOL0     N13012  12.414   9.366   2.651 -0.4797 -0.3671  0.2847
  838MOL0     C13013  12.527   9.338   2.715 -0.6914 -0.4642  0.8066
  838MOL0     C13014  12.577   9.228   2.659 -0.1170  0.6444  0.4483
  838MOL0     C13015  12.702   9.147   2.674 -0.3688 -1.2405  0.4496
  838MOL0     C13016  12.829   9.231   2.700 -0.5031  0.3842 -0.2949
  838MOL0     C13017  12.964   9.149   2.683  0.1132 -0.4857  0.0121
  838MOL0     C13018  13.079   9.225   2.731 -0.2784 -0.1134  0.0516
  838MOL0     O13019  13.083   9.363   2.693  0.4409  0.5979  0.0165
  838MOL0     C13020  13.184   9.443   2.732  0.6873  0.0057  0.0860
  838MOL0     C13021  13.291   9.398   2.818 -0.5339 -0.1788  0.0139
  838MOL0     C13022  13.410   9.467   2.838 -0.1510 -0.3246  1.1591
  838MOL0     C13023  13.415   9.600   2.781 -0.0060 -0.6615  0.4012
  838MOL0     C13024  13.537   9.682   2.802  0.6368  0.0881 -0.3076
  838MOL0     O13025  13.628   9.635   2.886 -0.3954  0.8215  0.7394
  838MOL0     C13026  13.743   9.709   2.894  0.3467  0.5909 -0.3573
  838MOL0     C13027  13.829   9.731   2.785  0.0501 -0.4231  0.0175
  838MOL0     C13028  13.948   9.805   2.801  0.0425 -1.3369 -0.0885
  838MOL0     C13029  13.989   9.862   2.923 -0.4756 -0.9053  0.4847
  838MOL0     O13030  14.092   9.960   2.912 -0.6675  0.0631 -0.3568
  838MOL0     C13031  14.154   9.992   3.037 -0.7231 -0.6064 -0.6552
  838MOL0     C13032  14.265  10.094   3.044 -0.2196 -1.3787  0.1121
  838MOL0     C13033  14.381  10.076   2.955  0.1305  0.2454 -0.5125
  838MOL0     C13034  14.514  10.112   3.013  0.2734 -0.3987 -0.3850
  838MOL0     C13035  14.635  10.051   2.948  0.5206 -0.8781 -0.0715
  838MOL0     C13036  14.753  10.123   3.009  0.5862  0.6962  0.2397
  838MOL0     C13037  14.875  10.118   2.923 -0.4949  0.9418  0.0465
  838MOL0     C13038  14.963   9.991   2.943 -0.4823 -0.7741  0.7567
  838MOL0    Cl13039  15.094   9.987   2.817 -0.0217 -0.1052 -0.1801
  838MOL0     C13040  13.902   9.841   3.032  0.4472  0.4226 -0.2112
  838MOL0     C13041  13.784   9.764   3.021  0.1075 -0.2384  0.2842
  838MOL0     O13042  13.545   9.783   2.736 -0.2611  0.5290  0.1811
  838MOL0     C13043  13.306   9.645   2.702  0.3773  0.5025  0.2791
  838MOL0     C13044  13.196   9.567   2.667  0.6478  0.2256  0.0351
  838MOL0     N13045  12.480   9.181   2.576 -0.4966  0.1565  0.6033
  838MOL0     N13046  12.384   9.266   2.573 -0.0781  0.1422  0.1632
  838MOL0     C13047  11.374   9.312   2.669 -0.5790 -0.0531  0.1402
  838MOL0     C13048  11.258   9.288   2.589  0.1239 -0.2460  0.2479
  838MOL0     C13049  10.916   9.055   2.408 -0.5915 -0.7734  0.0935
  838MOL0     C13050  10.956   9.111   2.276 -0.2598 -0.0421 -0.2025
  838MOL0     C13051  10.862   9.116   2.170 -0.0543 -0.4927 -0.9041
  838MOL0     C13052  10.737   9.062   2.189 -0.4442 -0.0438 -0.4050
  838MOL0     O13053  10.651   9.074   2.084  0.0786  0.4706  1.0099
  838MOL0     C13054  10.512   9.045   2.104 -0.2520 -0.1001 -0.5240
  838MOL0     C13055  10.437   9.075   1.973 -0.0221 -0.2644  0.2791
  838MOL0     C13056  10.286   9.063   1.985 -0.3529  0.1963 -0.6617
  838MOL0     C13057  10.191   9.129   1.869 -0.1744 -1.0156  0.0352
  838MOL0     C13058  10.179   9.279   1.884  0.6884 -0.2263 -0.5343
  838MOL0     C13059  10.175   9.401   1.884  0.6966  0.1346 -1.1800
  838MOL0     C13060  10.691   9.024   2.318 -0.4558  0.5831 -0.5049
  838MOL0     C13061  10.784   9.020   2.422 -0.4831  0.0626  0.2704
  838MOL0     C13062  10.728   8.983   2.557  0.3047  0.4318  1.1122
  838MOL0     H13063  11.288   8.963   2.522 -1.8594  1.0983 -0.0117
  838MOL0     H13064  11.520   9.002   2.621  0.3731  1.4015 -0.8570
  838MOL0     H13065  11.673   9.413   2.665 -2.9748  3.5730  0.0447
  838MOL0     H13066  11.588   9.431   2.811  3.2615  1.4554  1.0861
  838MOL0     H13067  11.848   9.280   2.779 -0.3995 -0.2162  0.2831
  838MOL0     H13068  11.754   9.281   2.928  1.0527 -0.2900  0.2663
  838MOL0     H13069  11.916   9.456   2.958 -0.3571  1.7773  0.0309
  838MOL0     H13070  11.752   9.516   2.951 -1.4540 -0.2005 -1.3221
  838MOL0     H13071  11.817   9.597   2.706  0.1617 -0.6128 -0.1403
  838MOL0     H13072  11.897   9.669   2.841 -0.1637  0.2368 -0.0574
  838MOL0     H13073  12.001   9.413   2.709  0.8453  0.4003 -1.6810
  838MOL0     H13074  12.038   9.568   2.641  0.4132  4.3433  0.8846
  838MOL0     H13075  12.177   9.642   2.836  1.5745  0.0319 -0.4751
  838MOL0     H13076  12.094   9.535   2.935  3.1078  1.0765  1.6677
  838MOL0     H13077  12.196   9.343   2.786  0.4150 -0.1343  2.8332
  838MOL0     H13078  12.317   9.421   2.880  0.6020  2.5961  0.0853
  838MOL0     H13079  12.266   9.490   2.590  0.9953 -0.3268 -0.5567
  838MOL0     H13080  12.391   9.567   2.697  0.8374 -0.2636  0.7875
  838MOL0     H13081  12.594   9.393   2.780  1.2112 -0.4428 -1.0622
  838MOL0     H13082  12.689   9.073   2.753 -4.0076  0.0796  1.2878
  838MOL0     H13083  12.719   9.092   2.581  0.8762  1.4418 -1.0352
  838MOL0     H13084  12.836   9.310   2.624  1.6326  0.8760  0.3204
  838MOL0     H13085  12.835   9.272   2.802  3.2188  2.1458 -1.0490
  838MOL0     H13086  12.973   9.127   2.576  3.0171 -1.5707  0.3994
  838MOL0     H13087  12.959   9.055   2.740  0.4081  0.2099  1.2189
  838MOL0     H13088  13.169   9.175   2.694  0.1283 -0.4205  1.3808
  838MOL0     H13089  13.076   9.220   2.840 -0.2047  0.9593  0.1122
  838MOL0     H13090  13.281   9.297   2.857  2.0824 -1.7372 -2.8668
  838MOL0     H13091  13.493   9.432   2.897  0.5557  0.3071  0.5522
  838MOL0     H13092  13.796   9.683   2.694  0.2003 -0.8193  0.1709
  838MOL0     H13093  14.002   9.833   2.711 -1.1300  0.2688 -0.3430
  838MOL0     H13094  14.084  10.024   3.114  0.6363  0.4691  0.1782
  838MOL0     H13095  14.198   9.905   3.085  2.4385  1.2116  0.0450
  838MOL0     H13096  14.221  10.193   3.027  1.9130 -0.2528  0.7714
  838MOL0     H13097  14.303  10.095   3.146  1.2413  1.1846 -0.3851
  838MOL0     H13098  14.375   9.969   2.933 -0.7382  0.3571 -0.8677
  838MOL0     H13099  14.365  10.132   2.862 -1.5896  0.3852 -0.1741
  838MOL0     H13100  14.522  10.079   3.116  2.2085 -0.5750 -0.5365
  838MOL0     H13101  14.522  10.221   3.002 -0.4530 -0.1992  0.9346
  838MOL0     H13102  14.620  10.062   2.840 -1.2425 -0.2799  0.1903
  838MOL0     H13103  14.646   9.945   2.972 -1.2142 -0.9724  0.4918
  838MOL0     H13104  14.731  10.228   3.026 -0.9427  0.7017 -1.5090
  838MOL0     H13105  14.770  10.079   3.108 -2.6300 -1.1504  0.1013
  838MOL0     H13106  14.932  10.209   2.942 -0.3242  0.9035 -0.2754
  838MOL0     H13107  14.837  10.118   2.820  1.7959 -1.4967 -0.8995
  838MOL0     H13108  15.002   9.982   3.045  0.3606 -3.0848  0.2988
  838MOL0     H13109  14.907   9.898   2.929 -1.1261 -1.1582  4.7228
  838MOL0     H13110  13.925   9.891   3.125  0.1970  2.4258 -1.1814
  838MOL0     H13111  13.719   9.738   3.104  1.3761 -3.9374  0.3072
  838MOL0     H13112  13.319   9.739   2.651  0.4084  1.3548  1.8066
  838MOL0     H13113  13.119   9.609   2.603 -1.5933 -0.0719  2.3736
  838MOL0     H13114  11.396   9.408   2.714  1.4998  0.3844 -1.6231
  838MOL0     H13115  11.188   9.369   2.567  0.0331 -0.4001 -0.0327
  838MOL0     H13116  11.057   9.145   2.255  0.0631 -0.9993 -0.2486
  838MOL0     H13117  10.885   9.155   2.071 -0.2503 -2.7853 -1.9188
  838MOL0     H13118  10.482   9.110   2.187 -1.1023 -0.6821 -0.3645
  838MOL0     H13119  10.498   8.939   2.128 -0.1603  0.4165  2.0487
  838MOL0     H13120  10.483   9.010   1.897  2.7414 -0.3465  1.8558
  838MOL0     H13121  10.464   9.179   1.953  1.2360 -0.3197  1.4925
  838MOL0     H13122  10.251   9.103   2.081 -0.4227  0.0160 -0.6119
  838MOL0     H13123  10.258   8.958   1.986 -3.0283  0.8256 -0.3199
  838MOL0     H13124  10.240   9.114   1.772  1.7866  3.5670  0.0910
  838MOL0     H13125  10.094   9.079   1.877  0.9637 -3.4960 -0.4606
  838MOL0     H13126  10.152   9.506   1.888 -1.3633 -0.3188  0.1416
  838MOL0     H13127  10.587   9.000   2.337  0.6280 -3.0777  1.9621
  838MOL0     H13128  10.619   8.987   2.559  0.3148  0.7068  1.1157
  838MOL0     H13129  10.761   8.881   2.581 -0.3026  0.0808  0.5149
  838MOL0     H13130  10.758   9.066   2.621 -0.1488 -0.8494  3.0629
  839MOL0     O13131   2.774   8.458   5.523 -0.0740 -0.0667  0.0864
  839MOL0     C13132   2.781   8.371   5.438  0.2786  1.3271 -0.2019
  839MOL0     O13133   2.884   8.274   5.433 -0.6663  0.0250 -0.6795
  839MOL0     C13134   2.991   8.287   5.518 -0.0028 -0.7373 -0.3264
  839MOL0     C13135   2.970   8.274   5.658 -0.5274  1.4283 -0.0700
  839MOL0     C13136   3.080   8.273   5.753 -0.8070 -0.5460 -0.1353
  839MOL0     C13137   3.209   8.308   5.704 -0.1578  0.1592  0.6379
  839MOL0     O13138   3.316   8.323   5.788  0.3508  0.1714  0.1175
  839MOL0     C13139   3.445   8.282   5.735 -0.5337 -0.2316  0.4162
  839MOL0     C13140   3.551   8.250   5.838  1.0277 -0.3943 -0.2613
  839MOL0     C13141   3.591   8.367   5.922 -0.1990  0.5688 -0.3862
  839MOL0     C13142   3.676   8.467   5.843 -0.4791 -0.1170  0.7243
  839MOL0     C13143   3.732   8.585   5.924 -0.2518  0.4012  0.0614
  839MOL0     C13144   3.634   8.647   6.026 -0.3636 -0.1057  0.0603
  839MOL0     C13145   3.501   8.697   5.966  0.2057  0.3129  0.3159
  839MOL0     C13146   3.519   8.792   5.847  0.1533  0.1515 -0.5696
  839MOL0     N13147   3.385   8.845   5.809  0.1109 -0.2318 -0.0859
  839MOL0     C13148   3.317   8.942   5.888 -0.4733  0.6516 -0.0897
  839MOL0     C13149   3.232   8.999   5.796  0.1789  0.3965 -0.0255
  839MOL0     C13150   3.159   9.131   5.826 -0.0803 -0.0185  0.3251
  839MOL0     C13151   3.060   9.172   5.714 -0.1777  0.3528  0.7867
  839MOL0     C13152   2.936   9.075   5.710  0.6642  0.4286 -0.1088
  839MOL0     C13153   2.868   9.080   5.570 -1.7108  0.2451 -0.1504
  839MOL0     O13154   2.762   8.980   5.563 -0.6882  0.1711 -0.3510
  839MOL0     C13155   2.635   9.036   5.587 -0.5232  0.3292  0.2435
  839MOL0     C13156   2.558   9.086   5.481 -1.0157  0.4883  0.2297
  839MOL0     C13157   2.428   9.128   5.502  0.2165  0.5499 -0.2401
  839MOL0     C13158   2.376   9.110   5.641  0.5262  0.3844 -0.3266
  839MOL0     C13159   2.234   9.142   5.670 -0.0793  0.3583 -0.6246
  839MOL0     O13160   2.153   9.177   5.563 -0.6555 -0.9564 -0.8592
  839MOL0     C13161   2.013   9.153   5.571 -0.3408  0.3186 -0.0693
  839MOL0     C13162   1.955   9.027   5.557  0.9295  0.3223  0.1449
  839MOL0     C13163   1.811   9.016   5.575  0.5659  0.9735  0.1670
  839MOL0     C13164   1.725   9.131   5.597 -1.3290 -0.1302 -0.7572
  839MOL0     O13165   1.589   9.104   5.609 -0.3325  0.3191 -0.1329
  839MOL0     C13166   1.501   9.212   5.648 -0.3517  0.0669  1.2307
  839MOL0     C13167   1.450   9.303   5.532  0.4124 -0.0523 -0.1742
  839MOL0     C13168   1.322   9.246   5.457 -0.4457  0.0970 -0.3922
  839MOL0     C13169   1.369   9.116   5.394  0.5236  0.2948  0.2328
  839MOL0     C13170   1.272   9.074   5.283  0.4183 -0.2458 -0.0753
  839MOL0     C13171   1.290   9.144   5.153 -0.9055 -1.1779 -0.3151
  839MOL0     C13172   1.247   9.048   5.036  0.5191  0.5074  0.7721
  839MOL0     C13173   1.276   9.124   4.906 -0.2464  0.2250  0.5821
  839MOL0    Cl13174   1.448   9.154   4.879 -0.0396 -0.1409  0.0830
  839MOL0     C13175   1.790   9.257   5.610  0.0305  0.7789 -0.1107
  839MOL0     C13176   1.936   9.261   5.599 -0.0985 -0.4274  0.1381
  839MOL0     O13177   2.191   9.119   5.783  0.5852 -0.8123  0.2095
  839MOL0     C13178   2.460   9.050   5.743 -0.4343 -0.7472 -0.1260
  839MOL0     C13179   2.588   9.025   5.718 -0.3324  0.1896 -0.3336
  839MOL0     N13180   3.242   8.923   5.681 -0.5578 -0.5060  0.3087
  839MOL0     N13181   3.331   8.830   5.690  0.2913  0.0172  0.2106
  839MOL0     C13182   3.226   8.313   5.561  0.6452  0.1870  0.0578
  839MOL0     C13183   3.124   8.301   5.469  0.3618  0.5136 -0.5310
  839MOL0     C13184   2.661   8.342   5.356 -0.4522  0.2841 -0.1266
  839MOL0     C13185   2.539   8.402   5.391  0.6656  0.7887 -0.7328
  839MOL0     C13186   2.416   8.364   5.332 -0.2925  0.2223 -0.1838
  839MOL0     C13187   2.410   8.285   5.216  0.0500  0.4814 -0.4270
  839MOL0     O13188   2.304   8.258   5.141  0.3921 -0.5159  0.2590
  839MOL0     C13189   2.182   8.323   5.178  0.0583  0.0641 -0.0998
  839MOL0     C13190   2.080   8.289   5.072  0.1805 -0.5091  0.0139
  839MOL0     C13191   2.013   8.417   5.010 -1.2816 -0.2474  0.4143
  839MOL0     C13192   1.915   8.389   4.899 -0.1111  1.0542 -1.0416
  839MOL0     C13193   1.983   8.333   4.781 -0.6185 -0.0396 -0.5440
  839MOL0     C13194   2.043   8.263   4.699  0.8399 -0.0225  0.0066
  839MOL0     C13195   2.535   8.231   5.168 -0.3025 -0.7436 -0.0073
  839MOL0     C13196   2.653   8.259   5.239  0.1819  0.0294  0.2262
  839MOL0     C13197   2.779   8.205   5.174 -0.7285  0.5279 -0.4821
  839MOL0     H13198   2.867   8.265   5.691 -0.6509 -0.9424 -0.8705
  839MOL0     H13199   3.074   8.253   5.860  1.0464  1.8568  0.5015
  839MOL0     H13200   3.437   8.191   5.675  1.8610 -1.0644  1.2357
  839MOL0     H13201   3.484   8.357   5.666 -0.4987 -0.8082 -0.1965
  839MOL0     H13202   3.635   8.201   5.788  0.7422 -0.4825 -0.6618
  839MOL0     H13203   3.506   8.175   5.905  0.6748 -2.3581 -2.5404
  839MOL0     H13204   3.651   8.316   5.998 -1.2231  0.5382  0.4198
  839MOL0     H13205   3.506   8.404   5.979 -0.6179 -0.6605 -0.1799
  839MOL0     H13206   3.762   8.428   5.787  1.4627  1.9958  2.0394
  839MOL0     H13207   3.611   8.515   5.770  2.0176  1.3150 -0.7205
  839MOL0     H13208   3.808   8.535   5.983 -2.0545 -2.3162  0.2304
  839MOL0     H13209   3.777   8.658   5.855 -2.8788  1.4062 -0.7520
  839MOL0     H13210   3.618   8.581   6.111 -1.8856 -0.3883 -0.4218
  839MOL0     H13211   3.686   8.740   6.050 -0.1106  0.9100 -3.7004
  839MOL0     H13212   3.439   8.753   6.036 -1.7043 -1.9058  0.5426
  839MOL0     H13213   3.439   8.613   5.933 -1.6726  1.1986  1.4560
  839MOL0     H13214   3.577   8.881   5.873  0.9102 -0.8177  1.2342
  839MOL0     H13215   3.574   8.754   5.761  1.6840 -0.0751  0.4695
  839MOL0     H13216   3.336   8.960   5.994  0.5585 -1.4111  0.1282
  839MOL0     H13217   3.110   9.111   5.921  0.3889 -1.3461  0.3053
  839MOL0     H13218   3.225   9.218   5.832  2.4777 -1.9210  1.6323
  839MOL0     H13219   3.030   9.274   5.737  1.1185  0.7482  0.8427
  839MOL0     H13220   3.116   9.172   5.619  1.3988 -3.2640  1.5402
  839MOL0     H13221   2.867   9.108   5.789 -3.0152 -1.1317 -2.3702
  839MOL0     H13222   2.959   8.972   5.738 -1.3852 -0.2617 -0.7858
  839MOL0     H13223   2.939   9.048   5.493 -1.6735 -1.0659  0.3981
  839MOL0     H13224   2.830   9.181   5.552 -0.3099  1.0966  1.3893
  839MOL0     H13225   2.609   9.077   5.385 -2.4667 -3.5524 -0.3819
  839MOL0     H13226   2.362   9.156   5.420 -1.3769 -2.9826 -0.3592
  839MOL0     H13227   2.011   8.936   5.539 -0.2307  0.1525 -3.7563
  839MOL0     H13228   1.764   8.919   5.575  1.3133  0.5889  1.1519
  839MOL0     H13229   1.417   9.167   5.702  0.6005 -0.5276  2.2663
  839MOL0     H13230   1.558   9.275   5.717 -1.7190  0.3523  2.1382
  839MOL0     H13231   1.435   9.396   5.586 -2.7211 -0.5431 -0.0123
  839MOL0     H13232   1.534   9.312   5.462  2.0886 -2.4006  1.3991
  839MOL0     H13233   1.235   9.226   5.520 -3.2779 -0.6551 -4.2222
  839MOL0     H13234   1.301   9.325   5.385 -0.7401  1.8927  1.5698
  839MOL0     H13235   1.359   9.044   5.476 -2.6959  0.3127 -0.0387
  839MOL0     H13236   1.474   9.129   5.365  0.8360 -3.1453 -0.6003
  839MOL0     H13237   1.172   9.095   5.321  0.6298  0.2569  0.2037
  839MOL0     H13238   1.285   8.965   5.284 -0.6273 -0.4529  3.2749
  839MOL0     H13239   1.215   9.224   5.155 -3.3720 -3.2609  2.9328
  839MOL0     H13240   1.388   9.190   5.140 -0.4889 -1.4941  1.5016
  839MOL0     H13241   1.139   9.033   5.040  0.4624 -0.4159 -2.0136
  839MOL0     H13242   1.301   8.954   5.034  0.8228  0.5562 -3.6602
  839MOL0     H13243   1.221   9.070   4.828 -0.6092  1.8054 -0.3024
  839MOL0     H13244   1.230   9.223   4.907 -1.6571 -0.3127 -2.1185
  839MOL0     H13245   1.744   9.350   5.643  1.9429  0.2399  5.0382
  839MOL0     H13246   1.988   9.353   5.624  0.9592 -1.1752  0.7740
  839MOL0     H13247   2.412   9.027   5.837  2.1957 -0.8918  1.2562
  839MOL0     H13248   2.645   8.984   5.801  0.3985  0.0974 -0.8691
  839MOL0     H13249   3.316   8.333   5.504 -1.4391 -0.1363 -3.7067
  839MOL0     H13250   3.138   8.307   5.362  1.6852  0.3387 -0.3862
  839MOL0     H13251   2.530   8.455   5.485 -0.1864 -1.3095  0.4351
  839MOL0     H13252   2.327   8.412   5.372 -1.3880 -2.2484  0.5877
  839MOL0     H13253   2.199   8.430   5.192  1.9346 -0.2235  0.1019
  839MOL0     H13254   2.149   8.280   5.273  1.5086 -0.7145  0.0912
  839MOL0     H13255   2.003   8.229   5.121  1.2362 -0.5332  1.7194
  839MOL0     H13256   2.122   8.230   4.989 -1.4497  0.2159 -1.3702
  839MOL0     H13257   2.082   8.493   4.974 -1.5580 -0.4994 -0.7037
  839MOL0     H13258   1.949   8.456   5.090  0.9623  3.2529  0.6931
  839MOL0     H13259   1.844   8.315   4.939  3.7273 -1.7145  1.4084
  839MOL0     H13260   1.852   8.475   4.875 -1.2185  0.6751  0.3575
  839MOL0     H13261   2.087   8.187   4.637  1.7479  2.6150 -2.8646
  839MOL0     H13262   2.530   8.183   5.070  2.6271 -1.7976  0.2578
  839MOL0     H13263   2.802   8.105   5.212  0.1593  0.2434 -1.7276
  839MOL0     H13264   2.756   8.202   5.067  0.0499 -1.3587 -0.6370
  839MOL0     H13265   2.869   8.266   5.184  0.2998 -1.1175  0.7696
  840MOL0     O13266  10.098   1.896   2.291 -0.2423  0.2831 -0.0492
  840MOL0     C13267  10.041   1.795   2.255 -0.2232  1.1061 -0.0817
  840MOL0     O13268  10.089   1.665   2.279  0.2902 -0.7641 -0.0879
  840MOL0     C13269  10.207   1.654   2.340  0.7551  0.0719  1.0741
  840MOL0     C13270  10.317   1.628   2.252  0.4016 -0.2274 -1.0073
  840MOL0     C13271  10.442   1.592   2.305 -0.7738 -0.5124  0.0954
  840MOL0     C13272  10.464   1.605   2.444 -0.2684  0.8559 -0.4695
  840MOL0     O13273  10.576   1.554   2.503  0.0463  0.5301  0.0505
  840MOL0     C13274  10.704   1.546   2.433  0.1572  0.0508 -0.5832
  840MOL0     C13275  10.767   1.681   2.434 -0.0153 -0.0530 -0.3284
  840MOL0     C13276  10.911   1.682   2.480  0.4997  0.4759  1.0814
  840MOL0     C13277  10.961   1.827   2.532 -0.1379  0.1648 -0.1318
  840MOL0     C13278  11.107   1.824   2.576 -0.5474 -0.8712 -0.4074
  840MOL0     C13279  11.135   1.971   2.618 -0.1784 -0.5636 -0.1663
  840MOL0     C13280  11.271   1.992   2.673  0.2852 -0.0185 -0.6582
  840MOL0     C13281  11.302   2.138   2.707  0.5625 -0.4216 -1.0695
  840MOL0     N13282  11.417   2.141   2.807  1.2714  0.5068 -0.5938
  840MOL0     C13283  11.525   2.064   2.805 -0.5579  0.8109  1.4852
  840MOL0     C13284  11.616   2.122   2.895 -0.2269 -1.3752  0.2528
  840MOL0     C13285  11.765   2.093   2.919  0.2947 -0.2686  0.5958
  840MOL0     C13286  11.810   1.982   2.832  1.2203  0.8052 -0.1923
  840MOL0     C13287  11.948   1.935   2.874  0.8726  0.2174 -0.4893
  840MOL0     C13288  12.051   2.043   2.839 -0.1767 -0.1186  0.0372
  840MOL0     O13289  12.175   1.995   2.897  0.2467  0.6542  0.2639
  840MOL0     C13290  12.283   2.070   2.872 -1.0125 -0.4770  0.6835
  840MOL0     C13291  12.298   2.171   2.770 -0.9559  0.9353  0.2604
  840MOL0     C13292  12.430   2.226   2.758  0.1556  0.1630 -0.2397
  840MOL0     C13293  12.532   2.196   2.838 -0.0169  0.3685 -0.7961
  840MOL0     C13294  12.669   2.256   2.819  0.1795 -0.6101 -0.3822
  840MOL0     O13295  12.761   2.214   2.907 -0.2279  0.1646 -0.1858
  840MOL0     C13296  12.892   2.251   2.888 -0.4079  0.9133  0.1557
  840MOL0     C13297  12.938   2.380   2.874  0.1838  0.1861 -0.0113
  840MOL0     C13298  13.075   2.407   2.852 -0.0454  0.1089  0.8346
  840MOL0     C13299  13.169   2.302   2.854 -0.0765 -0.5495  0.1437
  840MOL0     O13300  13.302   2.310   2.829  0.6414  0.0732 -0.1460
  840MOL0     C13301  13.365   2.440   2.847 -0.3170 -0.2325 -0.3116
  840MOL0     C13302  13.515   2.447   2.878  0.5779  0.7113  0.3514
  840MOL0     C13303  13.558   2.579   2.951  0.2202  0.6171 -0.0803
  840MOL0     C13304  13.711   2.573   2.982  0.2646 -0.4631 -0.1158
  840MOL0     C13305  13.770   2.674   3.074  0.7928 -0.2896 -0.3444
  840MOL0     C13306  13.699   2.692   3.196 -0.3134  0.2624 -0.0896
  840MOL0     C13307  13.787   2.777   3.293  0.4175  0.8629  0.5107
  840MOL0     C13308  13.708   2.824   3.418  1.2394  0.1940  0.3781
  840MOL0    Cl13309  13.817   2.926   3.512 -0.6363  0.1507  0.1062
  840MOL0     C13310  13.120   2.175   2.871  0.5371  0.2792  0.3432
  840MOL0     C13311  12.984   2.149   2.904 -0.2579 -0.0452 -1.1327
  840MOL0     O13312  12.683   2.327   2.724 -0.7398 -0.2349 -0.0118
  840MOL0     C13313  12.515   2.100   2.938 -0.3435 -0.8757  0.2999
  840MOL0     C13314  12.394   2.044   2.958  0.1407  0.0132  0.1697
  840MOL0     N13315  11.543   2.213   2.965  0.5597  0.1871  0.3254
  840MOL0     N13316  11.424   2.224   2.913 -0.3996 -0.5886 -0.3601
  840MOL0     C13317  10.357   1.630   2.528 -0.4664 -0.7526  0.0025
  840MOL0     C13318  10.225   1.659   2.483  0.5185 -1.1116 -0.1635
  840MOL0     C13319   9.903   1.816   2.210 -0.7432  0.5681 -0.7347
  840MOL0     C13320   9.809   1.713   2.218 -0.7520  1.1246 -0.3901
  840MOL0     C13321   9.690   1.722   2.149  0.0021  0.7314  0.1110
  840MOL0     C13322   9.647   1.836   2.078  0.0440  0.5242 -0.5922
  840MOL0     O13323   9.535   1.822   2.008 -0.1655  0.4366 -0.3763
  840MOL0     C13324   9.501   1.920   1.908 -0.1604  0.7498  1.1214
  840MOL0     C13325   9.360   1.913   1.849 -0.1341  0.1950  0.2370
  840MOL0     C13326   9.341   1.777   1.774 -0.6476 -0.1682 -0.2682
  840MOL0     C13327   9.194   1.755   1.737 -0.9591 -0.8405  0.0475
  840MOL0     C13328   9.163   1.826   1.609 -0.2230 -0.1747 -0.1943
  840MOL0     C13329   9.119   1.883   1.515 -0.0170  0.2830  0.6782
  840MOL0     C13330   9.736   1.939   2.070 -0.4766 -1.2331  0.0628
  840MOL0     C13331   9.863   1.934   2.135 -0.2406 -0.0906 -1.0228
  840MOL0     C13332   9.942   2.061   2.126 -0.1657  0.2651 -0.8266
  840MOL0     H13333  10.294   1.619   2.146  2.7863  4.8331 -2.3044
  840MOL0     H13334  10.517   1.566   2.230 -0.1938 -0.0597  0.5138
  840MOL0     H13335  10.764   1.476   2.492  2.4367  2.0664 -0.3369
  840MOL0     H13336  10.697   1.514   2.329 -0.6551  1.1015 -0.8751
  840MOL0     H13337  10.712   1.742   2.506  1.3139  0.8010  0.0113
  840MOL0     H13338  10.749   1.726   2.336 -0.7268  2.7362  1.0031
  840MOL0     H13339  10.955   1.648   2.386 -1.1262  1.3370 -0.0484
  840MOL0     H13340  10.927   1.603   2.555  0.6928 -0.6096 -0.0790
  840MOL0     H13341  10.957   1.895   2.446  2.4474  0.8952  0.2387
  840MOL0     H13342  10.903   1.863   2.618 -0.9198 -2.9017  0.7293
  840MOL0     H13343  11.113   1.748   2.655  0.4170 -0.4242 -0.0428
  840MOL0     H13344  11.174   1.794   2.494  1.0389 -1.4489  1.0543
  840MOL0     H13345  11.133   2.034   2.528 -3.0891  0.9909  0.8624
  840MOL0     H13346  11.054   2.008   2.681 -1.8092  0.2213 -2.5984
  840MOL0     H13347  11.351   1.961   2.605  2.4822 -0.4449  1.9760
  840MOL0     H13348  11.296   1.928   2.757 -0.0509  0.3477 -0.2744
  840MOL0     H13349  11.324   2.204   2.622 -2.1206  1.6530 -0.3136
  840MOL0     H13350  11.214   2.185   2.753 -1.3599 -4.2804 -0.4241
  840MOL0     H13351  11.551   1.980   2.741  1.6019  3.5508 -1.5159
  840MOL0     H13352  11.815   2.186   2.889 -3.0252  1.5166  0.1054
  840MOL0     H13353  11.785   2.063   3.022  3.7359 -1.6001 -0.3517
  840MOL0     H13354  11.748   1.892   2.829  1.5996  0.5319  0.0445
  840MOL0     H13355  11.817   2.024   2.731  0.0024  0.8220 -0.2813
  840MOL0     H13356  11.978   1.846   2.818 -0.2723 -1.6426  1.7152
  840MOL0     H13357  11.947   1.922   2.982 -2.1715 -0.0163 -0.4808
  840MOL0     H13358  12.021   2.143   2.872 -0.2954  0.1035 -0.7174
  840MOL0     H13359  12.065   2.051   2.730 -1.4985  0.1310 -0.1356
  840MOL0     H13360  12.218   2.198   2.702 -0.8368 -0.8142 -0.6285
  840MOL0     H13361  12.448   2.297   2.677  0.8094 -0.6148 -0.7974
  840MOL0     H13362  12.859   2.455   2.873 -0.1669 -0.1141 -2.7132
  840MOL0     H13363  13.110   2.506   2.826  0.5324 -0.7248 -1.8396
  840MOL0     H13364  13.350   2.494   2.754  1.2860 -1.9321 -1.6525
  840MOL0     H13365  13.318   2.488   2.933  2.4116 -1.0128  1.7638
  840MOL0     H13366  13.548   2.363   2.939 -1.0115 -2.1135 -2.4260
  840MOL0     H13367  13.564   2.443   2.781 -0.4450 -1.0086 -0.1200
  840MOL0     H13368  13.534   2.663   2.885 -3.2223 -1.7873 -2.2491
  840MOL0     H13369  13.489   2.578   3.035  0.9735 -0.5183  0.5548
  840MOL0     H13370  13.762   2.580   2.886  0.2250 -0.4248 -0.1340
  840MOL0     H13371  13.726   2.474   3.026  1.0713 -0.8570 -1.2432
  840MOL0     H13372  13.769   2.770   3.022 -1.7473  1.3212  2.3490
  840MOL0     H13373  13.872   2.642   3.097  0.6720  0.0602  0.7268
  840MOL0     H13374  13.599   2.733   3.178 -1.4500 -2.6729 -0.9981
  840MOL0     H13375  13.680   2.597   3.247  0.6344  1.4317  2.6640
  840MOL0     H13376  13.821   2.867   3.241 -0.5334 -0.0054 -1.7294
  840MOL0     H13377  13.872   2.718   3.329 -1.7502 -1.0689  2.9090
  840MOL0     H13378  13.617   2.876   3.384  1.3984  1.0152  1.1558
  840MOL0     H13379  13.673   2.742   3.481 -0.4554 -0.0440 -0.8107
  840MOL0     H13380  13.177   2.084   2.861  0.6020  0.2896  0.6082
  840MOL0     H13381  12.954   2.046   2.923  1.0123 -0.8000 -2.9897
  840MOL0     H13382  12.600   2.062   2.994  1.0835 -1.3978 -2.0871
  840MOL0     H13383  12.382   1.983   3.047 -2.0532  0.8074  0.4803
  840MOL0     H13384  10.379   1.636   2.634  1.3615  0.9954 -0.4056
  840MOL0     H13385  10.140   1.668   2.551  0.3827  0.1246 -0.4679
  840MOL0     H13386   9.837   1.626   2.276  1.8115  1.6413 -0.7141
  840MOL0     H13387   9.618   1.641   2.155  0.5972  0.2353  0.6798
  840MOL0     H13388   9.561   1.904   1.818  0.2405 -2.4099  1.8543
  840MOL0     H13389   9.509   2.025   1.937 -2.0280  0.8502  1.4011
  840MOL0     H13390   9.355   1.996   1.778 -0.3341 -0.0125  0.0094
  840MOL0     H13391   9.287   1.933   1.928  0.4085  3.2731  0.1225
  840MOL0     H13392   9.382   1.698   1.838 -0.2276 -0.5606 -1.0110
  840MOL0     H13393   9.402   1.779   1.683  1.6166  1.7846  1.1486
  840MOL0     H13394   9.173   1.648   1.724  0.9416 -0.8845 -4.6643
  840MOL0     H13395   9.130   1.791   1.818  0.2108 -2.7539  1.9471
  840MOL0     H13396   9.080   1.940   1.433  2.5642  0.2824 -0.6332
  840MOL0     H13397   9.709   2.023   2.008 -0.4005 -1.1318  0.1683
  840MOL0     H13398  10.045   2.041   2.096 -0.5287 -0.2127 -1.7636
  840MOL0     H13399   9.907   2.144   2.064 -2.9012 -1.3475 -1.5812
  840MOL0     H13400   9.948   2.099   2.229 -0.2328 -1.6985 -0.0581
  841MOL0     O13401   0.479   1.252  11.183  0.2088 -0.4889  0.1890
  841MOL0     C13402   0.544   1.274  11.284 -0.4625  0.0181 -0.1014
  841MOL0     O13403   0.496   1.296  11.411 -0.4719 -0.1611 -0.6556
  841MOL0     C13404   0.357   1.289  11.439  0.3020 -0.5520  0.3855
  841MOL0     C13405   0.246   1.305  11.350  0.2249 -0.0084  0.0676
  841MOL0     C13406   0.118   1.274  11.397  0.4488 -0.7595 -0.5753
  841MOL0     C13407   0.085   1.253  11.537 -0.0115 -0.3985 -0.5911
  841MOL0     O13408  -0.046   1.245  11.584 -0.6844  0.0101 -0.3167
  841MOL0     C13409  -0.160   1.272  11.502 -0.6026  0.0216 -0.3962
  841MOL0     C13410  -0.280   1.284  11.596 -0.1798  0.3657  0.4455
  841MOL0     C13411  -0.354   1.151  11.631 -0.2792  0.1134 -0.2584
  841MOL0     C13412  -0.259   1.063  11.719  0.0812  0.3578  0.9966
  841MOL0     C13413  -0.205   1.122  11.850 -0.7001 -0.2897  0.1352
  841MOL0     C13414  -0.084   1.033  11.891  0.1446 -0.0087 -0.3413
  841MOL0     C13415   0.009   1.114  11.977 -0.5522  0.2686 -0.6463
  841MOL0     C13416   0.138   1.037  12.005 -0.4308 -0.1780  0.7280
  841MOL0     N13417   0.243   1.115  12.072 -1.3910  0.3311 -0.0763
  841MOL0     C13418   0.280   1.115  12.210  0.1034  1.2323  0.3392
  841MOL0     C13419   0.396   1.183  12.211  1.0667 -0.3950 -0.1788
  841MOL0     C13420   0.486   1.194  12.333  0.1153  0.6066 -0.1743
  841MOL0     C13421   0.625   1.119  12.303 -0.1747  0.2035 -0.0420
  841MOL0     C13422   0.731   1.134  12.420 -0.1800  0.2167  0.3118
  841MOL0     C13423   0.856   1.214  12.377  0.6022 -0.9569  0.9787
  841MOL0     O13424   0.934   1.122  12.300  0.6130 -0.5141  0.1519
  841MOL0     C13425   1.060   1.166  12.260 -0.1963  0.3635  0.1406
  841MOL0     C13426   1.166   1.188  12.346  0.3765  0.2676  1.2524
  841MOL0     C13427   1.289   1.217  12.293  0.2664 -0.3229 -0.7099
  841MOL0     C13428   1.320   1.213  12.160 -0.4141 -0.5789  0.1305
  841MOL0     C13429   1.461   1.229  12.116  0.6596 -0.9710 -0.1326
  841MOL0     O13430   1.540   1.317  12.190 -0.2971  0.2006 -0.3986
  841MOL0     C13431   1.666   1.358  12.150 -0.3476  0.3048 -0.6281
  841MOL0     C13432   1.700   1.485  12.178  0.0956 -0.5284  0.1794
  841MOL0     C13433   1.818   1.535  12.131  0.7246 -0.8951 -0.4139
  841MOL0     C13434   1.904   1.458  12.062 -1.2837 -0.2341  0.3113
  841MOL0     O13435   2.017   1.529  12.012 -0.4817  0.6205 -0.4609
  841MOL0     C13436   2.117   1.449  11.956 -0.3000 -0.2723  0.3174
  841MOL0     C13437   2.226   1.535  11.893 -0.5427  0.0628 -0.3272
  841MOL0     C13438   2.349   1.459  11.827  0.2833  0.4811  0.7388
  841MOL0     C13439   2.454   1.560  11.774  0.0938  0.0970  0.0602
  841MOL0     C13440   2.588   1.483  11.748 -0.7315  0.0224  0.2404
  841MOL0     C13441   2.694   1.578  11.687  0.6262  0.3304 -0.1323
  841MOL0     C13442   2.815   1.493  11.639  0.3868  0.1174  0.1972
  841MOL0     C13443   2.934   1.573  11.611 -0.5902 -0.7431 -0.4022
  841MOL0    Cl13444   2.885   1.702  11.486  0.1242  0.2903  0.7255
  841MOL0     C13445   1.876   1.318  12.042 -0.0891 -0.2982 -0.1138
  841MOL0     C13446   1.750   1.268  12.080 -0.3136 -0.2844 -0.0386
  841MOL0     O13447   1.494   1.183  12.006  0.2279  0.5410  0.0455
  841MOL0     C13448   1.216   1.183  12.063 -0.4349 -0.8953  0.0222
  841MOL0     C13449   1.090   1.164  12.117 -0.1083  0.2806  0.2156
  841MOL0     N13450   0.420   1.232  12.091  0.2593 -0.0138 -0.0959
  841MOL0     N13451   0.335   1.192  12.008 -0.2202  0.2498  0.2940
  841MOL0     C13452   0.197   1.240  11.622 -0.3847 -0.3596  0.2489
  841MOL0     C13453   0.324   1.255  11.573 -0.4235 -0.1582  0.1386
  841MOL0     C13454   0.692   1.280  11.275 -0.3140 -0.1395 -0.2887
  841MOL0     C13455   0.770   1.208  11.370 -0.0000 -0.4254 -0.6188
  841MOL0     C13456   0.905   1.193  11.372 -0.8665  0.1238 -0.2715
  841MOL0     C13457   0.984   1.267  11.280 -0.6404 -0.9399 -0.1671
  841MOL0     O13458   1.122   1.292  11.280 -0.2192  0.1524 -0.6452
  841MOL0     C13459   1.192   1.229  11.382 -0.6651 -0.8131 -0.4409
  841MOL0     C13460   1.323   1.296  11.397  0.2143  0.7274 -0.2844
  841MOL0     C13461   1.417   1.275  11.277  0.2540  0.2719 -0.0977
  841MOL0     C13462   1.545   1.354  11.291  0.0901 -0.8410 -0.1979
  841MOL0     C13463   1.529   1.501  11.314  0.2139  0.2132  0.6219
  841MOL0     C13464   1.522   1.621  11.337  0.1333  0.2780  0.2173
  841MOL0     C13465   0.921   1.352  11.188 -0.4111 -0.5830 -0.4927
  841MOL0     C13466   0.780   1.348  11.184  0.5953 -1.5746 -0.8487
  841MOL0     C13467   0.709   1.441  11.083 -0.3812  0.4366  0.3991
  841MOL0     H13468   0.260   1.334  11.247 -0.7810  0.4885  0.0575
  841MOL0     H13469   0.047   1.268  11.315  0.0689 -0.5183 -0.2674
  841MOL0     H13470  -0.148   1.364  11.443 -1.0819 -0.0278 -0.5777
  841MOL0     H13471  -0.176   1.188  11.434 -0.1893  1.1080 -1.9097
  841MOL0     H13472  -0.359   1.339  11.545 -1.4790 -2.1217 -0.4149
  841MOL0     H13473  -0.264   1.347  11.684 -2.8506  0.9227  0.6356
  841MOL0     H13474  -0.387   1.104  11.538 -2.5510  0.2633  0.4069
  841MOL0     H13475  -0.454   1.169  11.673 -0.3575  2.5994 -1.3486
  841MOL0     H13476  -0.317   0.972  11.741  1.0641 -0.1330  1.6490
  841MOL0     H13477  -0.177   1.026  11.657  1.4422  2.2080  1.6267
  841MOL0     H13478  -0.166   1.224  11.845 -0.4592 -0.3878 -0.0413
  841MOL0     H13479  -0.281   1.122  11.929  1.2233  0.1936  2.0782
  841MOL0     H13480  -0.120   0.950  11.952  3.5761 -1.2841  0.2014
  841MOL0     H13481  -0.027   1.004  11.802 -1.1065 -0.2654 -1.0755
  841MOL0     H13482  -0.038   1.143  12.072 -0.4566  2.8757 -1.3183
  841MOL0     H13483   0.032   1.204  11.919 -3.1453  0.1015 -2.0870
  841MOL0     H13484   0.098   0.953  12.062  1.1094 -3.0316 -2.0223
  841MOL0     H13485   0.171   0.992  11.910 -2.3215  0.1805 -0.1398
  841MOL0     H13486   0.241   1.061  12.296 -0.7657 -1.4737 -1.6241
  841MOL0     H13487   0.505   1.298  12.363  0.2301 -0.1072  2.4045
  841MOL0     H13488   0.432   1.149  12.416 -0.2476 -2.0830 -1.7534
  841MOL0     H13489   0.609   1.015  12.274 -0.8758  1.0324 -3.0470
  841MOL0     H13490   0.674   1.164  12.216 -0.1576  1.2519  0.4854
  841MOL0     H13491   0.761   1.032  12.443 -0.8383  0.7172  3.9533
  841MOL0     H13492   0.694   1.186  12.509 -0.6375  1.2852 -0.4809
  841MOL0     H13493   0.911   1.261  12.459  3.5387 -2.0650 -0.2062
  841MOL0     H13494   0.816   1.296  12.317  0.1865 -0.5327  1.8096
  841MOL0     H13495   1.165   1.198  12.454  3.1369  0.9787  1.3029
  841MOL0     H13496   1.353   1.252  12.373  0.7858  1.1698 -1.7398
  841MOL0     H13497   1.631   1.550  12.230  2.3245  3.5754 -1.5285
  841MOL0     H13498   1.846   1.639  12.143 -1.8451 -0.0685 -0.9310
  841MOL0     H13499   2.152   1.382  12.035 -0.5661  0.3113  0.9419
  841MOL0     H13500   2.069   1.398  11.872  1.5777  2.0417 -2.3624
  841MOL0     H13501   2.169   1.596  11.821 -0.9001  2.3766  1.7679
  841MOL0     H13502   2.266   1.601  11.971  1.8383  2.2926 -3.1943
  841MOL0     H13503   2.397   1.393  11.900 -0.0140  0.9438  1.3720
  841MOL0     H13504   2.304   1.390  11.755  1.7583  1.3101 -1.0450
  841MOL0     H13505   2.469   1.634  11.852 -0.7247  0.4699 -0.1365
  841MOL0     H13506   2.422   1.609  11.682  0.6104  3.0040  1.3424
  841MOL0     H13507   2.579   1.400  11.677  1.7473 -0.8681  0.8525
  841MOL0     H13508   2.627   1.441  11.841 -2.8522  2.1554  2.2308
  841MOL0     H13509   2.645   1.622  11.600 -1.1467 -0.2951  0.5241
  841MOL0     H13510   2.721   1.647  11.768  1.6426 -1.1993  0.8736
  841MOL0     H13511   2.796   1.438  11.546  1.7005  1.1796 -0.7501
  841MOL0     H13512   2.846   1.418  11.712 -2.9771 -1.1938  0.4905
  841MOL0     H13513   2.972   1.618  11.703  1.4863 -0.8160 -1.1794
  841MOL0     H13514   3.019   1.509  11.588 -0.1487 -0.3083 -0.0284
  841MOL0     H13515   1.954   1.259  11.995  2.2133  1.4920  1.2608
  841MOL0     H13516   1.731   1.164  12.055  1.5316 -0.6220 -0.1293
  841MOL0     H13517   1.239   1.158  11.959  2.2005 -0.7713  0.5110
  841MOL0     H13518   1.009   1.148  12.047  0.9205  0.9147 -1.1681
  841MOL0     H13519   0.171   1.228  11.727 -1.2728 -3.6738 -0.2381
  841MOL0     H13520   0.399   1.251  11.653 -0.0983 -0.4744 -0.1772
  841MOL0     H13521   0.708   1.165  11.449 -1.1777 -2.1209 -2.3721
  841MOL0     H13522   0.968   1.147  11.447  1.4374  0.7628 -1.7223
  841MOL0     H13523   1.214   1.126  11.351  0.8002 -0.0439 -2.1866
  841MOL0     H13524   1.141   1.225  11.478 -0.9936 -0.7672 -0.6122
  841MOL0     H13525   1.376   1.255  11.483  0.7557 -0.4774 -1.1553
  841MOL0     H13526   1.302   1.403  11.408 -0.8773  0.3293  2.1812
  841MOL0     H13527   1.370   1.297  11.180  0.7275  2.0070  0.0408
  841MOL0     H13528   1.440   1.168  11.282 -3.1994 -0.6452 -0.6174
  841MOL0     H13529   1.616   1.314  11.364  2.9430  1.7377 -1.3733
  841MOL0     H13530   1.589   1.341  11.192 -0.0077 -1.1393 -0.2059
  841MOL0     H13531   1.533   1.727  11.352 -1.4706  1.3180 -4.2666
  841MOL0     H13532   0.966   1.421  11.117 -1.0974  0.8849  0.4336
  841MOL0     H13533   0.650   1.374  11.019  1.7209 -0.6768 -0.4528
  841MOL0     H13534   0.641   1.512  11.132  0.4711  2.1267 -0.7993
  841MOL0     H13535   0.769   1.509  11.023 -2.3296  0.3415 -1.8226
  842MOL0     O13536   1.666   5.327   2.175 -0.0177  1.5381  0.2201
  842MOL0     C13537   1.632   5.365   2.067  0.7693 -0.0998  0.6721
  842MOL0     O13538   1.715   5.387   1.965 -0.5478 -0.0099 -0.2927
  842MOL0     C13539   1.855   5.373   1.969  0.3173 -0.5898 -0.2274
  842MOL0     C13540   1.935   5.290   2.052  0.2901  0.8344  0.1514
  842MOL0     C13541   2.073   5.279   2.046  0.3132 -0.5634  0.6263
  842MOL0     C13542   2.135   5.347   1.943 -0.2361  0.2976  0.1496
  842MOL0     O13543   2.268   5.352   1.937  0.5388  0.2244 -0.0874
  842MOL0     C13544   2.347   5.259   2.009  0.3238  0.2359  0.1311
  842MOL0     C13545   2.483   5.260   1.933  0.0053  0.6082 -0.0510
  842MOL0     C13546   2.545   5.111   1.949  0.2372 -0.5193  0.4365
  842MOL0     C13547   2.685   5.110   1.896  0.5268 -0.3286 -0.0709
  842MOL0     C13548   2.752   4.989   1.953 -0.3165 -0.9188 -0.3167
  842MOL0     C13549   2.877   4.958   1.872 -0.1845  0.9053  0.5899
  842MOL0     C13550   2.951   4.839   1.919 -0.1714  0.9300  0.0961
  842MOL0     C13551   2.861   4.711   1.921  0.0031 -0.4395 -0.2282
  842MOL0     N13552   2.804   4.674   1.791  0.4917  0.8236  0.4980
  842MOL0     C13553   2.671   4.682   1.744 -0.2251 -1.1797  0.4393
  842MOL0     C13554   2.669   4.623   1.623  0.0517 -0.4237 -0.3918
  842MOL0     C13555   2.551   4.598   1.532 -0.3810 -0.2845 -0.0029
  842MOL0     C13556   2.407   4.620   1.585  0.6261 -0.8355 -0.3521
  842MOL0     C13557   2.298   4.565   1.492  0.5621 -0.3147  0.5586
  842MOL0     C13558   2.166   4.578   1.561 -0.5165 -0.6553  0.8921
  842MOL0     O13559   2.075   4.543   1.460 -0.1660 -0.3575 -0.3456
  842MOL0     C13560   1.941   4.562   1.479  0.7627 -0.4554 -0.1713
  842MOL0     C13561   1.875   4.585   1.601  1.3159  0.4320  0.1406
  842MOL0     C13562   1.736   4.612   1.600 -0.1633 -0.2594  0.2141
  842MOL0     C13563   1.661   4.621   1.482  0.0136 -0.3946 -0.4235
  842MOL0     C13564   1.516   4.660   1.496  0.0132 -0.9354 -0.4071
  842MOL0     O13565   1.470   4.685   1.619  0.8911  0.9500  0.9201
  842MOL0     C13566   1.342   4.721   1.630  0.1619 -0.1149 -0.6013
  842MOL0     C13567   1.295   4.834   1.563 -0.2154 -0.5131  0.3045
  842MOL0     C13568   1.164   4.874   1.592 -0.1935 -0.3860  0.8006
  842MOL0     C13569   1.086   4.809   1.685 -0.7590  0.0664 -0.7500
  842MOL0     O13570   0.965   4.869   1.705  0.4145  0.0550  0.0661
  842MOL0     C13571   0.890   4.822   1.816  0.1211 -0.9694 -0.0820
  842MOL0     C13572   0.763   4.904   1.825  0.3638 -0.5887 -0.6766
  842MOL0     C13573   0.797   5.045   1.872  0.5185 -0.6123  0.0567
  842MOL0     C13574   0.789   5.056   2.029 -0.0330 -0.1483  0.0013
  842MOL0     C13575   0.906   5.009   2.107  0.8599  0.3109  0.5292
  842MOL0     C13576   0.902   5.055   2.254 -0.0726  0.4395  0.1241
  842MOL0     C13577   1.034   5.062   2.317  0.3401 -0.1995 -0.3332
  842MOL0     C13578   1.013   5.072   2.462  0.5167 -0.0976 -0.5456
  842MOL0    Cl13579   1.014   4.907   2.531  0.1541  0.0515 -0.5517
  842MOL0     C13580   1.131   4.697   1.748  0.2180  0.0892 -0.3689
  842MOL0     C13581   1.257   4.652   1.715 -0.8916  0.0471 -0.8321
  842MOL0     O13582   1.441   4.672   1.395 -0.6345 -0.0039 -0.3371
  842MOL0     C13583   1.722   4.590   1.364  0.4092 -0.0749  0.0341
  842MOL0     C13584   1.860   4.563   1.361 -0.0780  0.3306  0.4661
  842MOL0     N13585   2.805   4.603   1.583 -0.5096  0.5416 -0.0915
  842MOL0     N13586   2.881   4.636   1.681  0.4810  0.1294 -1.1596
  842MOL0     C13587   2.061   5.439   1.865  0.0795  0.1915 -0.3767
  842MOL0     C13588   1.922   5.450   1.873  0.5634 -0.3626  0.0886
  842MOL0     C13589   1.489   5.391   2.041 -0.5168  0.3211 -0.0994
  842MOL0     C13590   1.453   5.463   1.925  0.2231 -0.8701  0.4522
  842MOL0     C13591   1.320   5.464   1.877  0.4058  0.5546 -1.0086
  842MOL0     C13592   1.220   5.425   1.954  0.5676 -0.4857 -0.6128
  842MOL0     O13593   1.082   5.444   1.918 -0.0509  0.2880  1.0067
  842MOL0     C13594   1.059   5.558   1.830 -0.6108  0.8987  1.3470
  842MOL0     C13595   0.915   5.583   1.818  0.9664 -0.3720 -0.6457
  842MOL0     C13596   0.877   5.681   1.704  0.0551 -0.2907 -0.2390
  842MOL0     C13597   0.726   5.707   1.699  1.0187  0.3334 -0.1145
  842MOL0     C13598   0.672   5.600   1.612 -0.6522 -0.4385 -0.6256
  842MOL0     C13599   0.632   5.512   1.544 -0.0648  0.4641  0.0552
  842MOL0     C13600   1.252   5.349   2.065 -0.0107 -0.0505 -0.1148
  842MOL0     C13601   1.386   5.326   2.107 -0.8036 -0.7784  0.0777
  842MOL0     C13602   1.409   5.230   2.219  0.6760 -0.4728  0.0673
  842MOL0     H13603   1.883   5.231   2.127  0.5782 -0.2308 -0.4597
  842MOL0     H13604   2.119   5.214   2.120  1.3900  0.5526  0.9671
  842MOL0     H13605   2.368   5.298   2.109  0.0948 -1.1010  0.7149
  842MOL0     H13606   2.300   5.160   2.006  1.2405 -0.2352 -3.3640
  842MOL0     H13607   2.554   5.329   1.978  2.1274 -2.5076  1.7363
  842MOL0     H13608   2.467   5.279   1.826 -0.6000  0.7027  0.0494
  842MOL0     H13609   2.470   5.051   1.896 -0.0186  2.4993 -3.0704
  842MOL0     H13610   2.549   5.099   2.057 -3.2757  0.7255  0.8238
  842MOL0     H13611   2.676   5.102   1.787 -0.4454 -1.3561  0.0691
  842MOL0     H13612   2.751   5.193   1.924 -0.2817  0.5807 -0.7648
  842MOL0     H13613   2.781   5.005   2.057 -1.0790 -0.8747 -0.1062
  842MOL0     H13614   2.682   4.905   1.962 -0.5039 -0.7803 -0.4519
  842MOL0     H13615   2.842   4.945   1.769  0.2163  1.0036  0.4379
  842MOL0     H13616   2.937   5.050   1.875 -0.7079  1.2307  1.2951
  842MOL0     H13617   2.992   4.855   2.020  2.7925  1.4025 -1.0829
  842MOL0     H13618   3.035   4.818   1.852  0.9400 -1.6499  2.1206
  842MOL0     H13619   2.927   4.627   1.946 -1.2720 -0.9150  1.8612
  842MOL0     H13620   2.772   4.721   1.985 -0.6661 -1.8933 -0.8841
  842MOL0     H13621   2.588   4.724   1.798  0.5718 -1.1397  1.6813
  842MOL0     H13622   2.571   4.657   1.442  1.1429  0.8116  1.0196
  842MOL0     H13623   2.560   4.492   1.507  2.1554  0.4759 -2.8291
  842MOL0     H13624   2.400   4.571   1.682 -0.4212 -2.6977 -1.3170
  842MOL0     H13625   2.390   4.726   1.607  3.4834 -0.7287  1.9660
  842MOL0     H13626   2.319   4.461   1.465  1.3288 -0.1370  0.4461
  842MOL0     H13627   2.297   4.620   1.397 -2.9855 -1.0786  0.0035
  842MOL0     H13628   2.152   4.684   1.587  1.1939  0.8250 -3.3216
  842MOL0     H13629   2.158   4.519   1.653 -3.2114  1.0233  1.8530
  842MOL0     H13630   1.933   4.588   1.693 -0.9533 -0.9408  1.7432
  842MOL0     H13631   1.695   4.638   1.697  1.1709  0.2502  0.6628
  842MOL0     H13632   1.350   4.893   1.490  0.9895  2.4129  3.3274
  842MOL0     H13633   1.124   4.966   1.552  0.5389  0.3437  1.6787
  842MOL0     H13634   0.866   4.716   1.803 -3.1196 -0.2536 -0.9995
  842MOL0     H13635   0.936   4.832   1.914  0.1282  0.6441 -0.2337
  842MOL0     H13636   0.717   4.894   1.727  0.5363  0.8215 -0.9214
  842MOL0     H13637   0.703   4.855   1.902  1.4032 -0.3674  0.3053
  842MOL0     H13638   0.896   5.075   1.837  0.8599 -1.9433 -0.1800
  842MOL0     H13639   0.725   5.113   1.826  0.6137 -0.0517  0.7212
  842MOL0     H13640   0.701   5.011   2.077  0.4288 -0.2031  0.8217
  842MOL0     H13641   0.779   5.162   2.051 -1.4234 -0.5645  1.6459
  842MOL0     H13642   0.988   5.055   2.051  0.2000  0.6759 -0.1553
  842MOL0     H13643   0.924   4.901   2.114  0.1260  0.2093  0.9713
  842MOL0     H13644   0.857   5.155   2.253  2.3473  1.6002 -0.5678
  842MOL0     H13645   0.835   4.987   2.306  1.6879  0.4737  2.5841
  842MOL0     H13646   1.103   5.141   2.284  1.2514 -2.1858 -3.6485
  842MOL0     H13647   1.090   4.975   2.281 -0.4908 -2.6929  3.7741
  842MOL0     H13648   1.099   5.129   2.498  0.3331 -0.7027  0.9083
  842MOL0     H13649   0.921   5.126   2.488 -0.5613 -1.8106 -0.6251
  842MOL0     H13650   1.070   4.640   1.818  1.8848  1.7447  2.6352
  842MOL0     H13651   1.286   4.558   1.761  3.5440  0.4656 -2.3150
  842MOL0     H13652   1.665   4.595   1.271 -0.4909 -0.2282  0.5648
  842MOL0     H13653   1.907   4.553   1.263  0.6357 -0.4392  0.8741
  842MOL0     H13654   2.128   5.492   1.798  0.4940  0.3663  0.1632
  842MOL0     H13655   1.868   5.525   1.816  0.0288  0.1377  1.2209
  842MOL0     H13656   1.531   5.508   1.864  0.0300 -0.5990  0.4031
  842MOL0     H13657   1.315   5.509   1.778 -0.6110  0.1075 -1.1646
  842MOL0     H13658   1.089   5.536   1.727 -2.1860 -2.0950  1.4218
  842MOL0     H13659   1.110   5.649   1.863 -0.9026  1.6997 -0.3141
  842MOL0     H13660   0.865   5.601   1.913  0.0931 -2.5720 -0.6168
  842MOL0     H13661   0.887   5.483   1.784  2.4014 -1.7957  2.0355
  842MOL0     H13662   0.917   5.658   1.605 -0.3768  2.0300 -1.0135
  842MOL0     H13663   0.926   5.774   1.734  1.0475  0.3762 -3.5777
  842MOL0     H13664   0.679   5.704   1.798 -2.1064 -0.4216 -1.4835
  842MOL0     H13665   0.710   5.801   1.646  1.9595  0.2118 -0.6388
  842MOL0     H13666   0.596   5.428   1.488 -0.3484  0.6927 -0.1035
  842MOL0     H13667   1.167   5.315   2.124  0.3698 -0.5790  0.1286
  842MOL0     H13668   1.320   5.203   2.276  0.8868  0.5196  0.8774
  842MOL0     H13669   1.462   5.139   2.188  0.8451  0.0011 -1.0868
  842MOL0     H13670   1.468   5.272   2.300 -2.1967  0.1396  1.9598
  843MOL0     O13671   9.299   3.384   3.380  0.2473 -0.2732 -0.5631
  843MOL0     C13672   9.307   3.392   3.258 -0.2646 -0.5415 -0.3838
  843MOL0     O13673   9.423   3.387   3.192 -0.3402  0.0988 -0.1263
  843MOL0     C13674   9.539   3.435   3.245 -0.4237  0.7250  0.6259
  843MOL0     C13675   9.664   3.401   3.183  0.5375 -0.9793 -0.2552
  843MOL0     C13676   9.787   3.450   3.230 -0.8837 -0.3200 -0.3109
  843MOL0     C13677   9.794   3.541   3.337  0.0101  0.2941 -0.8932
  843MOL0     O13678   9.906   3.595   3.382 -0.6891 -0.3284  0.1954
  843MOL0     C13679   9.933   3.602   3.520 -0.4352 -0.2584  0.1147
  843MOL0     C13680  10.073   3.563   3.552 -0.2795 -0.4794  0.0692
  843MOL0     C13681  10.119   3.436   3.480  0.3418 -0.0131  0.6582
  843MOL0     C13682  10.269   3.439   3.473 -0.1448  0.0866 -0.4033
  843MOL0     C13683  10.317   3.318   3.399 -0.8218 -1.0025 -0.2722
  843MOL0     C13684  10.464   3.323   3.411 -0.4121  0.3967  0.5356
  843MOL0     C13685  10.529   3.205   3.331  0.4045 -0.3636  0.0664
  843MOL0     C13686  10.676   3.250   3.292 -0.2810  0.3546  0.0431
  843MOL0     N13687  10.773   3.184   3.381 -0.4085  0.1626 -0.1043
  843MOL0     C13688  10.790   3.216   3.510  1.0394 -0.1926  0.6480
  843MOL0     C13689  10.894   3.143   3.553  0.5034 -0.0671 -0.2895
  843MOL0     C13690  10.941   3.134   3.695  0.1078  0.7454  0.3168
  843MOL0     C13691  11.104   3.120   3.697 -0.2920 -0.1738  0.0464
  843MOL0     C13692  11.178   3.255   3.664  0.0912 -0.0995 -0.3607
  843MOL0     C13693  11.323   3.233   3.633 -0.5572 -0.3738 -0.6202
  843MOL0     O13694  11.386   3.199   3.752  0.4813 -0.1532  0.3008
  843MOL0     C13695  11.508   3.141   3.742  0.1208 -0.0958  0.3499
  843MOL0     C13696  11.571   3.111   3.618 -0.5581 -0.1260 -0.3075
  843MOL0     C13697  11.710   3.071   3.618  0.0014 -0.8244  0.2808
  843MOL0     C13698  11.788   3.073   3.732 -0.3990  0.1037 -0.7188
  843MOL0     C13699  11.930   3.055   3.726 -0.4325  0.2842 -0.8907
  843MOL0     O13700  11.993   3.030   3.845 -0.8658  0.2936 -0.4424
  843MOL0     C13701  12.129   3.031   3.848 -0.7867  0.4266  0.0452
  843MOL0     C13702  12.207   3.098   3.940  0.6987  0.2716  0.0407
  843MOL0     C13703  12.343   3.086   3.941  0.1735  0.3315 -0.4437
  843MOL0     C13704  12.411   3.008   3.842  0.4716  0.1247  0.3459
  843MOL0     O13705  12.553   2.996   3.831  0.2163 -0.0214 -0.4525
  843MOL0     C13706  12.629   3.072   3.926 -0.3533  0.5147 -0.2898
  843MOL0     C13707  12.777   3.013   3.931 -0.5682 -0.3535 -0.1507
  843MOL0     C13708  12.860   3.068   4.049 -0.1001  1.2045 -1.3168
  843MOL0     C13709  12.996   3.015   4.051  0.1205 -0.0565 -0.5642
  843MOL0     C13710  13.088   3.073   4.166  0.2188 -0.2015  1.1582
  843MOL0     C13711  13.225   3.016   4.176  0.5634 -0.4708 -0.4745
  843MOL0     C13712  13.297   3.091   4.281 -0.7074 -0.5331 -0.9399
  843MOL0     C13713  13.443   3.040   4.298  0.0007  0.3610 -0.1954
  843MOL0    Cl13714  13.543   3.180   4.366  0.2066  0.1124 -0.1924
  843MOL0     C13715  12.326   2.944   3.751  0.1651 -0.5842  0.8422
  843MOL0     C13716  12.192   2.952   3.755 -0.7613 -0.3635 -0.2135
  843MOL0     O13717  11.982   3.066   3.614  0.0442  0.0886 -0.1841
  843MOL0     C13718  11.713   3.095   3.847  0.0236  0.5870  0.0909
  843MOL0     C13719  11.580   3.130   3.852  0.2049 -0.0213 -0.1067
  843MOL0     N13720  10.930   3.058   3.450 -0.2935  0.0873 -0.5665
  843MOL0     N13721  10.858   3.085   3.340  1.2470  0.2204  0.8842
  843MOL0     C13722   9.670   3.573   3.400 -0.6868 -0.3620 -1.2762
  843MOL0     C13723   9.552   3.525   3.355  0.2614  0.1789 -0.6221
  843MOL0     C13724   9.181   3.365   3.178 -0.3368 -0.7146 -0.0359
  843MOL0     C13725   9.188   3.330   3.039  0.2594  0.1184 -1.1690
  843MOL0     C13726   9.067   3.331   2.968 -0.0874  0.2409  0.8357
  843MOL0     C13727   8.944   3.366   3.014 -0.1439 -0.7827 -0.0760
  843MOL0     O13728   8.837   3.370   2.920 -0.4342 -0.2142 -0.3921
  843MOL0     C13729   8.720   3.440   2.965 -1.2407  0.6280  1.0032
  843MOL0     C13730   8.624   3.451   2.842 -0.5037  0.3364  1.0423
  843MOL0     C13731   8.578   3.320   2.785  0.7944 -0.0990  0.6324
  843MOL0     C13732   8.505   3.347   2.653 -0.9982 -0.1402  1.1855
  843MOL0     C13733   8.445   3.215   2.625 -0.2726 -0.5919  0.3229
  843MOL0     C13734   8.372   3.123   2.597  0.0143  0.2342  0.3439
  843MOL0     C13735   8.943   3.397   3.153  0.8081  0.6582  0.1055
  843MOL0     C13736   9.056   3.404   3.240 -0.1577  0.3838 -0.1936
  843MOL0     C13737   9.018   3.448   3.384 -0.7936  0.1001  0.5268
  843MOL0     H13738   9.676   3.334   3.097  1.0141 -1.8695  0.4825
  843MOL0     H13739   9.883   3.433   3.184  0.3681 -1.1937  2.3667
  843MOL0     H13740   9.923   3.702   3.561  0.0462  0.8803 -2.3333
  843MOL0     H13741   9.864   3.529   3.563 -1.1671  0.6763  0.5433
  843MOL0     H13742  10.063   3.543   3.659  0.0395 -1.0945 -0.0165
  843MOL0     H13743  10.147   3.643   3.547  0.7448 -1.2565  1.8735
  843MOL0     H13744  10.076   3.420   3.380  0.0650  0.9458  0.6146
  843MOL0     H13745  10.089   3.350   3.539  0.4476  0.6644  1.7155
  843MOL0     H13746  10.285   3.528   3.411 -0.7271  0.1075 -0.5337
  843MOL0     H13747  10.316   3.455   3.570  4.5863 -3.3690 -1.7699
  843MOL0     H13748  10.282   3.231   3.455 -0.5052 -1.4076 -0.6961
  843MOL0     H13749  10.276   3.313   3.297  0.8816 -0.7214 -1.0031
  843MOL0     H13750  10.496   3.422   3.378  0.2396  0.0565  0.1440
  843MOL0     H13751  10.495   3.308   3.515 -0.8263  0.3827  0.6618
  843MOL0     H13752  10.474   3.214   3.237 -0.0641  2.6166  0.5329
  843MOL0     H13753  10.533   3.104   3.374 -0.3002  0.1472  1.4086
  843MOL0     H13754  10.702   3.213   3.193 -1.6013  0.2153 -0.2715
  843MOL0     H13755  10.684   3.359   3.301  0.9938  0.4594 -1.7656
  843MOL0     H13756  10.726   3.286   3.563  1.0165  2.1545 -2.1975
  843MOL0     H13757  10.917   3.225   3.752  2.2615  1.2335  0.5486
  843MOL0     H13758  10.899   3.049   3.749 -0.4736  1.7718  1.5319
  843MOL0     H13759  11.151   3.072   3.783  1.5081  0.7553 -0.3918
  843MOL0     H13760  11.124   3.044   3.621  2.1406 -0.1520  0.6053
  843MOL0     H13761  11.160   3.316   3.753  0.2290 -0.4516 -0.0922
  843MOL0     H13762  11.134   3.303   3.575 -0.3219 -2.0843 -1.2736
  843MOL0     H13763  11.373   3.319   3.588  0.0374 -1.7167 -2.6308
  843MOL0     H13764  11.322   3.148   3.564 -1.8864  0.6098 -1.8688
  843MOL0     H13765  11.523   3.129   3.523 -0.6050  3.5820  0.2475
  843MOL0     H13766  11.756   3.055   3.521 -3.0860  0.5773 -1.5903
  843MOL0     H13767  12.154   3.167   4.005 -1.3299 -1.2271  0.0808
  843MOL0     H13768  12.404   3.115   4.026 -1.6600 -0.5699  1.2621
  843MOL0     H13769  12.619   3.179   3.907 -0.3550  0.1418 -2.7857
  843MOL0     H13770  12.598   3.048   4.028  0.7544 -1.5378 -0.3870
  843MOL0     H13771  12.770   2.904   3.936  0.1898 -0.4719 -1.4126
  843MOL0     H13772  12.827   3.036   3.837  2.7990 -0.4865  1.4511
  843MOL0     H13773  12.870   3.175   4.031  1.2378  1.0083 -1.8825
  843MOL0     H13774  12.808   3.055   4.145  1.3888  1.8194 -0.3876
  843MOL0     H13775  13.049   3.050   3.962 -0.1544  3.0808  0.4177
  843MOL0     H13776  12.993   2.906   4.063 -2.5148  0.0345  0.3188
  843MOL0     H13777  13.039   3.056   4.262 -1.8655  5.7789  1.5535
  843MOL0     H13778  13.101   3.182   4.158  0.5732 -0.1532  2.2695
  843MOL0     H13779  13.226   2.912   4.210  4.5144  0.1717  2.0557
  843MOL0     H13780  13.276   3.028   4.080  0.4970 -1.3424 -0.6263
  843MOL0     H13781  13.252   3.084   4.380  0.6403 -0.1942 -0.2772
  843MOL0     H13782  13.305   3.198   4.259 -0.0825 -0.4384 -0.3037
  843MOL0     H13783  13.457   2.953   4.363  0.3708 -0.2762 -1.1144
  843MOL0     H13784  13.476   3.006   4.199 -2.6898 -0.8259 -0.7753
  843MOL0     H13785  12.375   2.887   3.673 -2.7937  0.9637 -2.4394
  843MOL0     H13786  12.143   2.887   3.683 -0.1106 -2.4250  1.1306
  843MOL0     H13787  11.767   3.088   3.941  1.0923  1.2797 -0.4531
  843MOL0     H13788  11.528   3.171   3.938 -0.4291  0.3471 -0.6585
  843MOL0     H13789   9.679   3.640   3.484 -3.8059  0.1277 -1.2020
  843MOL0     H13790   9.465   3.565   3.405  1.3667  1.3027  0.4790
  843MOL0     H13791   9.285   3.321   2.991  0.6712 -0.6264 -0.2243
  843MOL0     H13792   9.069   3.310   2.862 -0.0390 -0.3404  0.9491
  843MOL0     H13793   8.744   3.544   2.991 -3.6554  2.0055 -1.6548
  843MOL0     H13794   8.673   3.397   3.054  1.1156  0.0999  2.0732
  843MOL0     H13795   8.674   3.515   2.769  1.5269 -2.2084  0.0376
  843MOL0     H13796   8.537   3.506   2.880 -2.2430 -1.1432 -0.5747
  843MOL0     H13797   8.512   3.277   2.861 -1.7037  1.7213 -0.3594
  843MOL0     H13798   8.667   3.258   2.772  0.6226 -2.2181  6.6677
  843MOL0     H13799   8.440   3.434   2.657  1.4338  1.7761  1.4912
  843MOL0     H13800   8.586   3.368   2.583 -0.4551 -1.7468  1.2876
  843MOL0     H13801   8.292   3.058   2.567 -0.1401  1.0132 -1.0336
  843MOL0     H13802   8.847   3.425   3.196 -0.8260 -0.5230 -2.4624
  843MOL0     H13803   8.996   3.358   3.441 -2.1668  0.3933  0.5002
  843MOL0     H13804   9.097   3.506   3.432 -1.5315  1.0953  0.5745
  843MOL0     H13805   8.938   3.522   3.382 -0.8037  0.1434 -2.3540
  844MOL0     O13806   0.985   2.537   5.515 -0.4119  0.1255 -0.1910
  844MOL0     C13807   0.906   2.598   5.580  0.5090 -1.4239 -0.1955
  844MOL0     O13808   0.920   2.614   5.717 -0.4649 -0.2673  0.4915
  844MOL0     C13809   1.036   2.558   5.772  0.6662  0.4523 -0.4127
  844MOL0     C13810   1.176   2.567   5.736 -0.1880 -0.2244 -0.9030
  844MOL0     C13811   1.274   2.495   5.804  0.5292  0.9793 -0.3452
  844MOL0     C13812   1.244   2.413   5.912  0.2579  0.5392 -0.6246
  844MOL0     O13813   1.337   2.343   5.985  0.0085 -0.0708  0.5633
  844MOL0     C13814   1.462   2.300   5.926  0.0669  0.1277  0.3327
  844MOL0     C13815   1.531   2.189   6.014  0.8199  0.2333  0.1493
  844MOL0     C13816   1.670   2.144   5.967  0.7994 -0.1632  0.3070
  844MOL0     C13817   1.731   2.040   6.067 -0.2972 -0.3046  0.5662
  844MOL0     C13818   1.864   1.996   6.019  0.0836  0.2908  1.5110
  844MOL0     C13819   1.864   1.912   5.885 -0.6231 -0.7315  0.1362
  844MOL0     C13820   2.002   1.918   5.826  0.2782  0.3180 -0.2016
  844MOL0     C13821   2.009   1.832   5.701 -1.0474  0.3750 -0.4618
  844MOL0     N13822   2.149   1.799   5.662 -0.7591  0.0394 -0.4707
  844MOL0     C13823   2.234   1.894   5.602  0.2634  0.2579  0.2206
  844MOL0     C13824   2.330   1.810   5.550 -0.0790 -0.0221 -0.0348
  844MOL0     C13825   2.454   1.847   5.479 -0.1347  0.2704 -0.3956
  844MOL0     C13826   2.574   1.842   5.572 -0.0486 -0.3594  0.2650
  844MOL0     C13827   2.660   1.715   5.561  0.2808  0.2503  0.2495
  844MOL0     C13828   2.793   1.749   5.622 -0.8548  1.0709 -0.2549
  844MOL0     O13829   2.854   1.621   5.635  0.2596 -0.0697 -0.3710
  844MOL0     C13830   2.998   1.619   5.636 -0.0297  0.3209  0.1361
  844MOL0     C13831   3.077   1.722   5.690  1.1311 -0.5351 -1.0039
  844MOL0     C13832   3.220   1.706   5.695 -0.1585  0.8508  0.1302
  844MOL0     C13833   3.268   1.581   5.660 -0.3028  0.0655 -0.7753
  844MOL0     C13834   3.415   1.565   5.656  0.2913  0.3094 -0.3281
  844MOL0     O13835   3.453   1.498   5.551 -0.0687  0.5507 -0.1167
  844MOL0     C13836   3.589   1.484   5.516 -0.3252 -0.1703 -0.1402
  844MOL0     C13837   3.695   1.489   5.606 -0.2678 -0.8154 -0.2155
  844MOL0     C13838   3.823   1.477   5.556 -0.8712 -0.3295  0.2231
  844MOL0     C13839   3.848   1.445   5.423  0.3424 -0.0431 -1.0999
  844MOL0     O13840   3.984   1.437   5.403  0.3366  0.6533  0.3833
  844MOL0     C13841   4.035   1.379   5.283  0.0356 -0.3456  0.2797
  844MOL0     C13842   4.184   1.359   5.293 -0.2385 -0.3071 -1.0195
  844MOL0     C13843   4.225   1.250   5.402  0.0169 -0.2907  0.1652
  844MOL0     C13844   4.377   1.218   5.392  0.0640  0.1682  0.0940
  844MOL0     C13845   4.426   1.115   5.486  0.0358  0.2291 -0.0269
  844MOL0     C13846   4.568   1.067   5.462  0.0842 -0.2542 -0.8356
  844MOL0     C13847   4.627   0.982   5.579  0.5684 -0.7085  0.7236
  844MOL0     C13848   4.781   0.967   5.582 -0.8697 -0.4287 -0.0820
  844MOL0    Cl13849   4.850   0.945   5.412  0.7961 -0.0962 -0.3650
  844MOL0     C13850   3.742   1.415   5.338  0.0650 -0.3680 -0.5087
  844MOL0     C13851   3.614   1.443   5.387  0.2866 -0.3541 -0.7480
  844MOL0     O13852   3.487   1.628   5.734 -0.6237 -0.2726  0.1317
  844MOL0     C13853   3.189   1.470   5.623  0.3780 -0.6202 -0.2637
  844MOL0     C13854   3.057   1.493   5.601 -0.1528 -0.5063 -0.0856
  844MOL0     N13855   2.314   1.675   5.601  0.3463 -0.6716 -0.9266
  844MOL0     N13856   2.206   1.675   5.661  0.4106 -0.3248 -0.5376
  844MOL0     C13857   1.111   2.409   5.953 -0.4141 -0.1789 -0.8756
  844MOL0     C13858   1.012   2.479   5.882 -0.2026  0.5053 -0.0567
  844MOL0     C13859   0.794   2.677   5.523  0.1134  0.1971  0.4812
  844MOL0     C13860   0.744   2.787   5.592  1.0688 -0.8131  0.5482
  844MOL0     C13861   0.645   2.869   5.532  0.6092  0.0314  0.6072
  844MOL0     C13862   0.583   2.833   5.412 -0.7636 -0.3356 -0.7677
  844MOL0     O13863   0.468   2.900   5.379 -0.1798 -0.0157  0.3795
  844MOL0     C13864   0.357   2.844   5.305 -0.0264 -0.0135  0.1132
  844MOL0     C13865   0.268   2.750   5.383  0.2028 -0.8366  0.3382
  844MOL0     C13866   0.167   2.662   5.298 -0.1970 -0.6086 -0.3999
  844MOL0     C13867   0.080   2.578   5.393 -0.1377 -0.3533  0.0836
  844MOL0     C13868  -0.029   2.507   5.315 -0.4156 -0.5692  0.1390
  844MOL0     C13869  -0.131   2.473   5.251 -0.7005  0.5793 -0.6787
  844MOL0     C13870   0.626   2.722   5.350 -0.9053  0.3390  0.1163
  844MOL0     C13871   0.727   2.636   5.403 -0.4087 -0.1614 -0.1425
  844MOL0     C13872   0.756   2.515   5.320 -0.5296 -0.1471  0.1071
  844MOL0     H13873   1.198   2.629   5.650 -2.5530  0.8855 -0.7796
  844MOL0     H13874   1.377   2.500   5.770 -0.2124 -3.2438 -4.2003
  844MOL0     H13875   1.449   2.262   5.824  0.2379  1.3088 -0.1572
  844MOL0     H13876   1.530   2.386   5.926  2.4353 -1.5683 -2.1933
  844MOL0     H13877   1.466   2.101   6.011  0.2426  0.6257 -3.6447
  844MOL0     H13878   1.536   2.228   6.116  0.8046  1.8034 -0.4331
  844MOL0     H13879   1.740   2.228   5.963 -0.8162  1.2566  0.2744
  844MOL0     H13880   1.666   2.111   5.863  1.1697 -0.0068  0.2407
  844MOL0     H13881   1.730   2.083   6.167 -3.3806 -0.2522  0.6106
  844MOL0     H13882   1.663   1.954   6.068 -1.5980  0.6753 -0.2447
  844MOL0     H13883   1.935   2.079   6.018 -0.1756  0.5598 -0.8972
  844MOL0     H13884   1.898   1.929   6.099 -1.5450 -3.6049 -0.7543
  844MOL0     H13885   1.826   1.811   5.902  1.0212 -1.2871  0.6414
  844MOL0     H13886   1.796   1.959   5.812  0.5353  2.1318  0.7628
  844MOL0     H13887   2.073   1.893   5.905  1.5030  1.5404 -0.8651
  844MOL0     H13888   2.034   2.019   5.800 -0.1496  0.6193  0.4014
  844MOL0     H13889   1.951   1.742   5.724 -3.2794  2.3080  2.1038
  844MOL0     H13890   1.965   1.886   5.617  2.0677 -0.9514 -3.1913
  844MOL0     H13891   2.218   1.999   5.578 -1.2860  0.0161  0.0979
  844MOL0     H13892   2.455   1.774   5.398 -0.3670 -0.7736  0.5118
  844MOL0     H13893   2.431   1.947   5.440 -0.2953 -0.3385 -1.9293
  844MOL0     H13894   2.644   1.919   5.541 -1.9262  0.9763 -0.9037
  844MOL0     H13895   2.541   1.854   5.676 -1.7302 -0.1447 -0.2610
  844MOL0     H13896   2.681   1.684   5.458  0.0086  0.2570  0.1914
  844MOL0     H13897   2.600   1.634   5.605 -1.5445 -0.0106 -2.4607
  844MOL0     H13898   2.792   1.796   5.720 -1.5285  2.0356 -0.7077
  844MOL0     H13899   2.845   1.813   5.550  0.6352  2.5835  2.0720
  844MOL0     H13900   3.030   1.810   5.734 -0.0002 -0.1687 -2.8612
  844MOL0     H13901   3.288   1.787   5.718 -1.2421  1.7474  0.2521
  844MOL0     H13902   3.689   1.508   5.713 -0.0158  1.2349 -0.5288
  844MOL0     H13903   3.913   1.481   5.617 -0.3597  0.6571 -0.5727
  844MOL0     H13904   3.972   1.290   5.275 -2.2416  1.2161 -0.4122
  844MOL0     H13905   4.019   1.452   5.203 -0.4311  1.3035  1.8047
  844MOL0     H13906   4.228   1.331   5.197  1.1909  1.9838 -1.1146
  844MOL0     H13907   4.230   1.453   5.326 -0.9764  0.0867 -1.0872
  844MOL0     H13908   4.196   1.290   5.500 -0.7880  1.6830 -0.8091
  844MOL0     H13909   4.161   1.163   5.388 -3.5546  2.0193  0.9120
  844MOL0     H13910   4.439   1.307   5.408 -0.1124  0.2737  0.1892
  844MOL0     H13911   4.401   1.186   5.290  1.8091  2.4279 -0.2754
  844MOL0     H13912   4.369   1.022   5.482 -0.3479  0.4273  0.7878
  844MOL0     H13913   4.417   1.146   5.590 -1.3471  0.3044 -0.1609
  844MOL0     H13914   4.581   1.016   5.366  0.7903 -1.9962  0.1452
  844MOL0     H13915   4.634   1.154   5.458  2.3765 -1.8939 -0.3783
  844MOL0     H13916   4.581   0.883   5.574  3.2064 -2.0765  1.4664
  844MOL0     H13917   4.597   1.035   5.670  0.8954 -1.5334  1.3226
  844MOL0     H13918   4.836   1.053   5.621  2.4082 -1.9647 -0.8914
  844MOL0     H13919   4.811   0.884   5.647  1.8147  0.0997 -0.5133
  844MOL0     H13920   3.759   1.395   5.233  0.7791  0.3443 -0.5366
  844MOL0     H13921   3.525   1.431   5.326 -1.7794 -0.6666  2.1088
  844MOL0     H13922   3.235   1.374   5.603 -0.8175 -1.2989  0.1913
  844MOL0     H13923   2.984   1.416   5.583  1.3416 -2.5223  1.9228
  844MOL0     H13924   1.091   2.346   6.039 -1.1491  0.6061 -0.4616
  844MOL0     H13925   0.911   2.474   5.920 -0.4004 -3.4136 -0.7313
  844MOL0     H13926   0.794   2.830   5.678 -0.5814  1.8816  0.2789
  844MOL0     H13927   0.613   2.963   5.577 -2.8077 -0.5110 -0.4470
  844MOL0     H13928   0.385   2.801   5.209 -0.5305  0.1991 -0.1362
  844MOL0     H13929   0.290   2.922   5.268 -0.4669 -0.8907 -0.9945
  844MOL0     H13930   0.210   2.816   5.448 -0.5473  0.6608 -1.7494
  844MOL0     H13931   0.331   2.682   5.441 -0.2877 -3.0600 -1.5702
  844MOL0     H13932   0.225   2.597   5.232  0.2081 -1.2064  0.5231
  844MOL0     H13933   0.108   2.731   5.238  0.3836  0.8635  0.6546
  844MOL0     H13934   0.139   2.509   5.454  0.2353  0.1799  0.3245
  844MOL0     H13935   0.027   2.657   5.447  1.1785 -0.4007  1.5116
  844MOL0     H13936  -0.208   2.436   5.186  0.5456 -1.5054 -1.0765
  844MOL0     H13937   0.574   2.679   5.265  0.4070 -1.8709  0.3658
  844MOL0     H13938   0.682   2.491   5.243  0.9518 -2.4712 -0.7048
  844MOL0     H13939   0.853   2.529   5.272 -0.5427 -2.0773 -0.5499
  844MOL0     H13940   0.763   2.427   5.385 -3.7244  1.4092  2.8379
  845MOL0     O13941   2.582   3.662   0.507 -0.6046  0.5977  0.1345
  845MOL0     C13942   2.510   3.710   0.425  1.1829  1.3551  0.0891
  845MOL0     O13943   2.546   3.791   0.324  0.4033 -0.0286 -0.3803
  845MOL0     C13944   2.679   3.789   0.300 -0.5798  0.8196  0.5644
  845MOL0     C13945   2.766   3.860   0.374 -0.4031 -0.0572  0.0486
  845MOL0     C13946   2.904   3.872   0.355 -0.4943  0.2160  0.1762
  845MOL0     C13947   2.958   3.801   0.246 -0.9131 -0.0590  1.0741
  845MOL0     O13948   3.097   3.807   0.240 -0.6443  0.2891  0.3106
  845MOL0     C13949   3.164   3.733   0.133 -0.1465  0.0996 -0.5746
  845MOL0     C13950   3.308   3.722   0.186 -0.1284  0.3864 -0.4545
  845MOL0     C13951   3.394   3.636   0.097  0.0774 -0.2572 -0.3453
  845MOL0     C13952   3.538   3.651   0.148  0.4160 -0.2952 -0.2218
  845MOL0     C13953   3.646   3.583   0.061  0.2090  0.3506 -0.1005
  845MOL0     C13954   3.789   3.627   0.101 -0.1899 -0.6374 -0.1776
  845MOL0     C13955   3.886   3.556   0.012  0.3742 -0.4108  0.0624
  845MOL0     C13956   4.031   3.594   0.054  0.8515 -0.0223  0.1591
  845MOL0     N13957   4.066   3.556   0.191  1.0122 -0.1515 -0.4436
  845MOL0     C13958   4.053   3.639   0.303  0.3286  0.2000  0.5387
  845MOL0     C13959   4.090   3.563   0.408 -0.2568  0.4537  1.1805
  845MOL0     C13960   4.083   3.606   0.550  0.4522 -0.1527 -0.2496
  845MOL0     C13961   4.187   3.542   0.641  0.3198 -0.3815  0.6821
  845MOL0     C13962   4.334   3.553   0.579 -0.2168 -0.6081  0.0901
  845MOL0     C13963   4.426   3.463   0.663 -0.4441  0.6108 -0.5238
  845MOL0     O13964   4.543   3.440   0.583 -0.4346  0.1472 -0.0814
  845MOL0     C13965   4.599   3.551   0.515  0.7300 -0.0494 -0.1317
  845MOL0     C13966   4.615   3.539   0.382 -0.4597  0.9517 -0.5401
  845MOL0     C13967   4.685   3.635   0.307 -0.6669 -0.9775 -0.3924
  845MOL0     C13968   4.738   3.748   0.384 -0.8764 -0.3946 -0.0326
  845MOL0     C13969   4.820   3.843   0.306 -1.0758 -0.4220 -0.4281
  845MOL0     O13970   4.885   3.941   0.373  0.3559  0.1920  0.5352
  845MOL0     C13971   4.960   4.038   0.308 -0.2222  0.5941  0.1502
  845MOL0     C13972   4.981   4.151   0.383 -0.9701 -0.2035 -0.3052
  845MOL0     C13973   5.067   4.251   0.330  0.1945 -0.2839 -0.1699
  845MOL0     C13974   5.113   4.246   0.201  0.5161 -0.9195  0.1397
  845MOL0     O13975   5.194   4.352   0.166  0.0086  0.9097  0.2657
  845MOL0     C13976   5.201   4.392   0.029 -0.2162  1.0255 -0.4865
  845MOL0     C13977   5.317   4.322  -0.043 -0.0633 -0.0301  0.2733
  845MOL0     C13978   5.447   4.345   0.025  0.2089  0.4202 -1.0431
  845MOL0     C13979   5.486   4.489   0.031  0.2370 -0.2676 -0.4301
  845MOL0     C13980   5.627   4.507   0.080 -0.7365  0.0858 -0.8528
  845MOL0     C13981   5.672   4.651   0.091 -0.9057  0.0083 -0.3461
  845MOL0     C13982   5.821   4.666   0.102 -0.3102  0.3117 -0.4621
  845MOL0     C13983   5.865   4.810   0.127  0.3148 -0.5677  0.8583
  845MOL0    Cl13984   5.833   4.915  -0.024 -0.0058 -0.2324  0.1112
  845MOL0     C13985   5.099   4.128   0.126  0.3797 -0.1803  0.3889
  845MOL0     C13986   5.017   4.026   0.175 -1.1579 -0.0732  0.1448
  845MOL0     O13987   4.809   3.839   0.182  0.0776 -0.0702  0.6650
  845MOL0     C13988   4.716   3.766   0.524  0.1226 -0.2928  0.0549
  845MOL0     C13989   4.647   3.666   0.590 -0.5426  0.3060 -0.0599
  845MOL0     N13990   4.114   3.431   0.365 -0.9259 -0.7734 -0.3752
  845MOL0     N13991   4.087   3.433   0.235  0.4382 -0.1585 -0.6829
  845MOL0     C13992   2.878   3.729   0.155 -0.8981  0.3001  0.2476
  845MOL0     C13993   2.738   3.728   0.185 -0.0702  0.7938  0.5102
  845MOL0     C13994   2.371   3.672   0.439 -0.0748 -0.1769 -0.3413
  845MOL0     C13995   2.337   3.559   0.515  0.1165 -0.8153 -0.8426
  845MOL0     C13996   2.197   3.517   0.531 -0.3657  0.4209  0.4476
  845MOL0     C13997   2.096   3.579   0.467  0.5384 -0.1481  0.4862
  845MOL0     O13998   1.968   3.519   0.477 -0.1725  0.5757 -0.0009
  845MOL0     C13999   1.858   3.586   0.420  0.2946 -0.4350 -0.2089
  845MOL0     C14000   1.725   3.546   0.490  0.0488 -0.7149 -0.5636
  845MOL0     C14001   1.617   3.630   0.440  0.2826  0.4597  0.7600
  845MOL0     C14002   1.496   3.598   0.524  0.0383 -0.5352 -0.2785
  845MOL0     C14003   1.390   3.640   0.440  1.4650  0.3885 -0.2945
  845MOL0     C14004   1.297   3.684   0.372  0.0408  0.7679 -1.5124
  845MOL0     C14005   2.134   3.691   0.387  0.3444  1.1175 -0.3914
  845MOL0     C14006   2.268   3.734   0.368  0.0899 -0.1878  0.4377
  845MOL0     C14007   2.276   3.854   0.274  0.2271  0.0182 -0.2247
  845MOL0     H14008   2.717   3.908   0.459 -2.7457 -0.5203 -0.9543
  845MOL0     H14009   2.964   3.940   0.414  2.0032 -0.2170 -1.7248
  845MOL0     H14010   3.122   3.633   0.117 -0.4148  0.0998  0.0762
  845MOL0     H14011   3.162   3.787   0.038  0.5402 -0.3534 -0.8550
  845MOL0     H14012   3.316   3.684   0.289  0.5324 -0.2601 -0.7362
  845MOL0     H14013   3.356   3.820   0.193  0.0129  0.2325  1.4639
  845MOL0     H14014   3.388   3.677  -0.004  1.5315 -1.3306 -0.8911
  845MOL0     H14015   3.359   3.532   0.097 -2.7149  0.5790  0.5420
  845MOL0     H14016   3.562   3.757   0.158  1.7507 -0.7062  1.2686
  845MOL0     H14017   3.556   3.615   0.249  1.1474 -1.7147 -0.8352
  845MOL0     H14018   3.626   3.476   0.071 -1.3068  0.2972 -2.9392
  845MOL0     H14019   3.641   3.611  -0.044  1.4341  1.8333  0.1934
  845MOL0     H14020   3.805   3.735   0.089  1.2061 -0.7925  0.1658
  845MOL0     H14021   3.799   3.604   0.207 -1.2031 -0.1190  0.0458
  845MOL0     H14022   3.868   3.579  -0.093  0.9263 -0.2321  0.0028
  845MOL0     H14023   3.880   3.447   0.022  0.9893 -0.3828  0.8973
  845MOL0     H14024   4.094   3.543  -0.020 -0.7479 -0.6105 -0.8372
  845MOL0     H14025   4.043   3.702   0.040  2.0981  0.1487  2.1243
  845MOL0     H14026   4.026   3.744   0.309  1.9363  1.0660 -3.5707
  845MOL0     H14027   4.075   3.713   0.573 -0.9696 -0.0280 -1.1578
  845MOL0     H14028   3.989   3.563   0.586 -0.7772  1.5106 -1.3345
  845MOL0     H14029   4.196   3.592   0.738 -1.6356 -1.2713  1.3826
  845MOL0     H14030   4.167   3.436   0.661  1.3293 -0.2837  2.4812
  845MOL0     H14031   4.364   3.658   0.585 -2.6646  0.3380 -2.2067
  845MOL0     H14032   4.332   3.514   0.477  0.9444 -0.8107  0.1348
  845MOL0     H14033   4.375   3.368   0.678  0.7029  0.1495  0.7038
  845MOL0     H14034   4.456   3.506   0.759 -0.0981 -0.6215 -0.0603
  845MOL0     H14035   4.577   3.448   0.336  1.4108 -0.4868  0.6166
  845MOL0     H14036   4.691   3.639   0.199  0.0625  1.5509 -0.3357
  845MOL0     H14037   4.936   4.157   0.482 -1.0935 -2.4051 -0.1923
  845MOL0     H14038   5.090   4.334   0.395  0.1550  0.5630 -1.2040
  845MOL0     H14039   5.111   4.361  -0.025 -1.5856  3.2955  0.3135
  845MOL0     H14040   5.213   4.501   0.038  0.5792  0.8042  2.0448
  845MOL0     H14041   5.309   4.213  -0.038  0.5868 -0.0363  1.7570
  845MOL0     H14042   5.327   4.347  -0.149  0.7068 -0.8419  0.1459
  845MOL0     H14043   5.455   4.308   0.127  2.4678  0.9926 -0.9516
  845MOL0     H14044   5.523   4.280  -0.020  0.0189  0.4738 -1.4437
  845MOL0     H14045   5.426   4.540   0.107  3.3170  1.3120  1.1257
  845MOL0     H14046   5.472   4.529  -0.070 -0.2440 -2.6662 -1.3885
  845MOL0     H14047   5.705   4.457   0.021  1.5127 -0.2096  2.1170
  845MOL0     H14048   5.648   4.462   0.178  4.4235  3.4237 -0.0544
  845MOL0     H14049   5.642   4.710   0.005  1.4117  1.0563 -0.5166
  845MOL0     H14050   5.634   4.691   0.186  1.3848  1.3267  0.1102
  845MOL0     H14051   5.873   4.618   0.018 -2.0878 -2.0532 -0.3021
  845MOL0     H14052   5.851   4.615   0.193 -0.7481  0.8002 -0.0385
  845MOL0     H14053   5.818   4.854   0.215  3.0080  0.9161  1.6516
  845MOL0     H14054   5.972   4.817   0.146  0.2919  1.7748  0.4557
  845MOL0     H14055   5.140   4.123   0.026 -1.3331  2.0670 -0.5290
  845MOL0     H14056   5.003   3.939   0.111 -2.1321 -0.9423  1.4937
  845MOL0     H14057   4.755   3.849   0.582  2.2364 -0.1561 -1.4674
  845MOL0     H14058   4.627   3.665   0.697  1.9338  1.2678  0.4746
  845MOL0     H14059   2.907   3.670   0.069  2.2606  1.6863  0.2055
  845MOL0     H14060   2.667   3.688   0.113  1.2302 -0.7977  0.0532
  845MOL0     H14061   2.418   3.508   0.566  1.0308  2.7311  1.6943
  845MOL0     H14062   2.179   3.423   0.583  0.1022  0.6814  1.1026
  845MOL0     H14063   1.871   3.564   0.313 -1.6747 -0.7620 -0.4215
  845MOL0     H14064   1.869   3.694   0.431 -1.8347 -0.1133 -0.7938
  845MOL0     H14065   1.739   3.566   0.597  0.0231 -0.8854 -0.5273
  845MOL0     H14066   1.724   3.437   0.484 -0.0656 -0.6169 -3.5847
  845MOL0     H14067   1.601   3.610   0.334  1.2315  0.9570  0.5135
  845MOL0     H14068   1.638   3.736   0.455 -0.9832  0.9256 -0.4660
  845MOL0     H14069   1.482   3.490   0.535  0.4780 -0.5620  0.0560
  845MOL0     H14070   1.508   3.645   0.622 -1.3017 -1.3347  0.2978
  845MOL0     H14071   1.210   3.704   0.313 -5.2478 -2.0044  4.1149
  845MOL0     H14072   2.051   3.737   0.335  0.4921  0.3166 -1.3511
  845MOL0     H14073   2.189   3.919   0.294  0.6381  1.1593 -1.9145
  845MOL0     H14074   2.360   3.922   0.291 -0.3821  0.7715 -0.1184
  845MOL0     H14075   2.283   3.833   0.167 -1.0228  2.2024 -0.8164
  846MOL0     O14076   9.162   6.818   7.653  0.2330  0.2821 -0.4878
  846MOL0     C14077   9.190   6.910   7.574 -0.2995 -0.9369  0.0263
  846MOL0     O14078   9.314   6.956   7.550 -0.6690 -0.8487  0.0485
  846MOL0     C14079   9.418   6.898   7.617  0.5519  0.5904  0.3856
  846MOL0     C14080   9.508   6.827   7.536  0.7285  0.7900 -0.4216
  846MOL0     C14081   9.605   6.758   7.600 -0.9831  0.3907  0.1715
  846MOL0     C14082   9.632   6.764   7.737 -0.3882 -0.1356 -0.1319
  846MOL0     O14083   9.736   6.680   7.780 -0.3287 -0.5272  0.3387
  846MOL0     C14084   9.770   6.678   7.921 -0.4332 -0.7432 -0.2834
  846MOL0     C14085   9.910   6.618   7.932  0.0591  0.0225  0.9590
  846MOL0     C14086  10.017   6.717   7.879 -1.0206  0.0367  0.2845
  846MOL0     C14087  10.158   6.663   7.912 -0.3584  0.1445 -0.3662
  846MOL0     C14088  10.251   6.775   7.852  0.3606  0.0487 -0.1669
  846MOL0     C14089  10.399   6.750   7.883 -0.6710  0.5409 -0.7413
  846MOL0     C14090  10.489   6.820   7.787  0.8294 -1.1373 -0.1243
  846MOL0     C14091  10.508   6.745   7.648 -0.2563 -1.1634 -0.0918
  846MOL0     N14092  10.546   6.607   7.671 -0.2051  0.5161  0.4893
  846MOL0     C14093  10.494   6.507   7.589  0.3413 -0.1285 -0.4767
  846MOL0     C14094  10.571   6.397   7.614  0.1239  0.2987 -0.7424
  846MOL0     C14095  10.531   6.258   7.581  0.0430  0.1155  0.0337
  846MOL0     C14096  10.398   6.235   7.650 -0.3071  0.1486 -0.4547
  846MOL0     C14097  10.372   6.088   7.643  0.2583  0.1515 -0.6056
  846MOL0     C14098  10.223   6.059   7.683  0.0165  0.7102 -0.1845
  846MOL0     O14099  10.136   6.104   7.587  0.1274 -0.5357  0.3485
  846MOL0     C14100  10.078   6.006   7.509  0.2665  0.1504  0.0415
  846MOL0     C14101  10.110   5.864   7.491 -0.2901 -0.6571  0.4215
  846MOL0     C14102  10.053   5.789   7.391  0.3033  0.5760 -0.0904
  846MOL0     C14103   9.959   5.848   7.301 -1.0585 -0.9288 -1.1985
  846MOL0     C14104   9.895   5.762   7.199 -0.8984 -0.3937 -0.6212
  846MOL0     O14105   9.884   5.633   7.230  0.1386 -0.4181  0.6491
  846MOL0     C14106   9.803   5.560   7.150  0.0386 -0.5895  0.5188
  846MOL0     C14107   9.848   5.477   7.044  0.4398  0.1756  0.3978
  846MOL0     C14108   9.754   5.410   6.959 -0.5420  0.8809 -1.0133
  846MOL0     C14109   9.617   5.422   6.978  0.5950  0.4682  0.0067
  846MOL0     O14110   9.536   5.346   6.902 -0.3993 -0.1440  0.3588
  846MOL0     C14111   9.398   5.385   6.880  0.1756  0.5398  0.2376
  846MOL0     C14112   9.298   5.289   6.947  0.9505 -1.0281 -0.5730
  846MOL0     C14113   9.278   5.162   6.876  0.5087 -0.1221  0.7616
  846MOL0     C14114   9.210   5.179   6.745  0.0586  0.1050 -0.2416
  846MOL0     C14115   9.154   5.046   6.696 -0.8555 -0.0995  0.5273
  846MOL0     C14116   9.099   5.044   6.554  0.8441 -0.0633 -1.0032
  846MOL0     C14117   8.991   5.151   6.529  0.6732  0.4109  0.0095
  846MOL0     C14118   8.882   5.105   6.427 -0.4217  0.1309  0.9697
  846MOL0    Cl14119   8.960   5.066   6.269 -0.1171  0.3578  0.1239
  846MOL0     C14120   9.580   5.504   7.083  0.1309  0.1419  0.5574
  846MOL0     C14121   9.667   5.567   7.165 -0.9243 -0.0835  0.0624
  846MOL0     O14122   9.851   5.815   7.101 -0.1532 -0.2099  0.2140
  846MOL0     C14123   9.920   5.982   7.320  0.4634  0.4433 -0.2636
  846MOL0     C14124   9.983   6.059   7.421  0.7458 -0.0933  0.0582
  846MOL0     N14125  10.663   6.435   7.708  0.1971 -0.0611 -0.2845
  846MOL0     N14126  10.649   6.562   7.747 -0.2604 -1.0846  0.4709
  846MOL0     C14127   9.548   6.840   7.815  0.3259  0.9658  0.2126
  846MOL0     C14128   9.435   6.904   7.761  0.2552 -0.4060 -0.1401
  846MOL0     C14129   9.090   6.992   7.502  0.2682 -0.2916  0.3892
  846MOL0     C14130   9.134   7.081   7.403 -0.1298 -1.3292 -0.4241
  846MOL0     C14131   9.045   7.127   7.307 -0.0552  0.3622 -0.6999
  846MOL0     C14132   8.906   7.100   7.308 -0.0158  1.3038  0.3429
  846MOL0     O14133   8.835   7.164   7.207  0.0036  0.3029 -0.0747
  846MOL0     C14134   8.699   7.121   7.184 -0.6971 -0.7687  0.8447
  846MOL0     C14135   8.614   7.206   7.087  0.7662 -0.1329  0.1782
  846MOL0     C14136   8.680   7.194   6.951 -0.4358  1.0634  0.2836
  846MOL0     C14137   8.595   7.252   6.834 -0.6594  0.2738  0.3106
  846MOL0     C14138   8.463   7.182   6.835 -0.2905 -0.4221  0.3730
  846MOL0     C14139   8.359   7.118   6.842  0.1411 -0.2250 -0.3824
  846MOL0     C14140   8.863   7.021   7.418 -0.6980 -0.4095 -0.6146
  846MOL0     C14141   8.951   6.963   7.511 -0.3102 -0.1261 -0.2772
  846MOL0     C14142   8.888   6.899   7.628 -0.2970 -0.4350 -0.2665
  846MOL0     H14143   9.493   6.810   7.430  1.2521 -1.1944 -0.2023
  846MOL0     H14144   9.675   6.699   7.541 -1.0558 -0.6981  1.1340
  846MOL0     H14145   9.777   6.779   7.962  1.2059 -0.5720 -0.8981
  846MOL0     H14146   9.695   6.621   7.978  2.0659 -0.6390  3.5403
  846MOL0     H14147   9.911   6.521   7.882 -0.1481  0.3967  0.2155
  846MOL0     H14148   9.921   6.598   8.039 -0.3281 -0.0495  0.9853
  846MOL0     H14149  10.004   6.813   7.930 -2.9218 -1.3509  2.6526
  846MOL0     H14150  10.006   6.736   7.771  0.1708  0.5271  0.2348
  846MOL0     H14151  10.161   6.655   8.021  0.0711  0.2586 -0.3673
  846MOL0     H14152  10.181   6.568   7.864  1.8450  0.5394 -0.2078
  846MOL0     H14153  10.230   6.768   7.745 -1.4161 -3.8604  0.2508
  846MOL0     H14154  10.224   6.875   7.885 -0.6753 -1.2227  3.3109
  846MOL0     H14155  10.419   6.794   7.981 -1.5859  1.4019 -0.9223
  846MOL0     H14156  10.425   6.644   7.885  1.2124  0.9867 -0.0947
  846MOL0     H14157  10.590   6.823   7.828  0.4144  1.5007  0.9433
  846MOL0     H14158  10.460   6.926   7.778 -0.9682 -1.4402  1.4182
  846MOL0     H14159  10.418   6.745   7.587 -1.4795  0.1486  1.6224
  846MOL0     H14160  10.587   6.795   7.592  0.0477 -0.5224  0.8767
  846MOL0     H14161  10.405   6.502   7.527  1.0245  0.0623 -1.5023
  846MOL0     H14162  10.527   6.250   7.472 -0.0668  0.8322 -0.0192
  846MOL0     H14163  10.613   6.199   7.623 -0.5237 -1.6327 -1.2132
  846MOL0     H14164  10.385   6.284   7.747 -3.4495  1.3953 -1.3770
  846MOL0     H14165  10.318   6.283   7.592  0.2238  0.7133 -0.7294
  846MOL0     H14166  10.437   6.027   7.707 -1.8287 -1.9781 -0.3427
  846MOL0     H14167  10.388   6.041   7.546  1.6050 -0.4139 -0.1447
  846MOL0     H14168  10.218   6.123   7.772  2.7769  0.9337 -0.0841
  846MOL0     H14169  10.200   5.961   7.726  0.6444  0.0149 -1.4029
  846MOL0     H14170  10.181   5.820   7.559  1.1494 -0.5693 -0.9744
  846MOL0     H14171  10.072   5.683   7.387  1.8826  0.8699 -1.2714
  846MOL0     H14172   9.953   5.479   7.019  0.4009 -0.5726  0.1601
  846MOL0     H14173   9.783   5.336   6.885  1.2931  0.2898  0.2183
  846MOL0     H14174   9.393   5.492   6.901 -1.6356  0.1998  1.8256
  846MOL0     H14175   9.378   5.386   6.773 -2.4756  1.7912  0.6656
  846MOL0     H14176   9.349   5.269   7.041  1.7931 -2.1400 -1.2380
  846MOL0     H14177   9.201   5.340   6.952  1.2192 -0.4278 -1.2162
  846MOL0     H14178   9.370   5.107   6.857  0.1960  0.4633 -3.2375
  846MOL0     H14179   9.219   5.103   6.947  2.1503  0.8258  3.0357
  846MOL0     H14180   9.271   5.227   6.668  0.4845  1.0196  0.6472
  846MOL0     H14181   9.129   5.251   6.760  1.4236  1.6567 -0.0705
  846MOL0     H14182   9.073   5.029   6.767 -1.7524  0.0144 -0.4463
  846MOL0     H14183   9.229   4.966   6.703  1.6678  2.2130  2.0571
  846MOL0     H14184   9.180   5.062   6.482  0.1093 -0.0686 -1.8447
  846MOL0     H14185   9.053   4.948   6.529 -1.9202  1.3361 -1.6213
  846MOL0     H14186   9.037   5.243   6.492 -1.3430  0.3961 -2.9183
  846MOL0     H14187   8.933   5.163   6.621  0.4969  0.5167 -0.1138
  846MOL0     H14188   8.828   5.016   6.462  0.0864 -1.6189 -2.2947
  846MOL0     H14189   8.806   5.180   6.404 -2.0752 -1.6705  0.2556
  846MOL0     H14190   9.474   5.504   7.106 -0.2373 -2.9499 -0.6287
  846MOL0     H14191   9.621   5.627   7.243 -0.1278  0.4574  0.1268
  846MOL0     H14192   9.833   6.029   7.274  0.0323  1.7266  1.7187
  846MOL0     H14193   9.951   6.162   7.436 -1.3399 -0.4375 -1.5819
  846MOL0     H14194   9.565   6.825   7.922 -3.2127 -1.9047  0.5758
  846MOL0     H14195   9.362   6.947   7.828  1.4417 -1.1446  1.7126
  846MOL0     H14196   9.241   7.103   7.395  0.0061 -0.7161  2.1253
  846MOL0     H14197   9.082   7.190   7.227 -0.3954  1.4790  0.0028
  846MOL0     H14198   8.638   7.123   7.275 -2.5841  1.4018 -0.3608
  846MOL0     H14199   8.708   7.020   7.145 -2.1372 -2.5837  4.7174
  846MOL0     H14200   8.604   7.313   7.109  0.5007 -0.4890  1.8923
  846MOL0     H14201   8.514   7.163   7.083  1.0791 -0.7737 -2.4160
  846MOL0     H14202   8.715   7.092   6.936  0.5985  1.1554  1.8675
  846MOL0     H14203   8.773   7.251   6.943 -0.5407  1.2267  0.2104
  846MOL0     H14204   8.589   7.361   6.843 -1.6256  0.4209 -1.6110
  846MOL0     H14205   8.640   7.230   6.737 -1.2632 -1.0694  0.3167
  846MOL0     H14206   8.282   7.045   6.827 -2.2346  2.0579 -0.1652
  846MOL0     H14207   8.758   6.994   7.409 -0.9656  1.3152 -3.8901
  846MOL0     H14208   8.923   6.951   7.718  1.0602 -0.0240 -1.0073
  846MOL0     H14209   8.781   6.912   7.611 -0.1559 -0.0715 -0.9319
  846MOL0     H14210   8.898   6.790   7.632 -1.7646 -0.5550  2.0689
  847MOL0     O14211   4.895   1.004   8.171  0.5167 -0.4261 -0.1358
  847MOL0     C14212   4.932   1.001   8.052  0.0603 -0.3629  0.0365
  847MOL0     O14213   5.029   0.917   8.003  0.3156 -0.6209 -0.3842
  847MOL0     C14214   5.115   0.852   8.084  0.1346 -0.4972  0.2351
  847MOL0     C14215   5.245   0.900   8.092 -0.6206  0.5051 -0.7795
  847MOL0     C14216   5.338   0.821   8.168 -0.2506  1.0445  0.2330
  847MOL0     C14217   5.300   0.698   8.225 -0.4833  0.5811  0.0782
  847MOL0     O14218   5.382   0.617   8.300  0.2436 -0.1817  0.4645
  847MOL0     C14219   5.514   0.626   8.245  0.1806  0.4860 -0.4277
  847MOL0     C14220   5.600   0.514   8.288  0.6675  0.1674 -0.6166
  847MOL0     C14221   5.734   0.537   8.220 -0.2381  1.1379 -0.5365
  847MOL0     C14222   5.830   0.426   8.266  0.7916 -0.1840  0.5215
  847MOL0     C14223   5.979   0.474   8.280  0.8670 -0.0145  0.0734
  847MOL0     C14224   6.051   0.415   8.397 -0.4984  0.3925 -0.1392
  847MOL0     C14225   6.195   0.444   8.425  0.6816 -0.7860  0.4462
  847MOL0     C14226   6.280   0.380   8.319 -0.2751  0.5739 -0.6410
  847MOL0     N14227   6.415   0.377   8.358  0.1057 -0.4894  0.4292
  847MOL0     C14228   6.481   0.488   8.412 -0.7851  0.2894  0.2876
  847MOL0     C14229   6.604   0.435   8.444 -0.2801 -0.0561  0.6872
  847MOL0     C14230   6.705   0.500   8.528 -0.0827  0.6545  0.3317
  847MOL0     C14231   6.681   0.485   8.675 -0.1840  0.4259  0.2511
  847MOL0     C14232   6.771   0.576   8.760 -0.2085  0.0328 -0.0036
  847MOL0     C14233   6.924   0.568   8.723  0.1063  0.2635  0.3202
  847MOL0     O14234   6.999   0.648   8.816  0.4634 -0.3165  0.3309
  847MOL0     C14235   7.127   0.686   8.791  0.4327 -0.1482 -0.0825
  847MOL0     C14236   7.192   0.676   8.667 -0.6550 -0.4662  0.3935
  847MOL0     C14237   7.333   0.676   8.657 -0.9640 -0.2779  0.1577
  847MOL0     C14238   7.402   0.712   8.782 -0.7622 -0.2340  0.4085
  847MOL0     C14239   7.559   0.709   8.774  0.5555  0.1169 -0.4847
  847MOL0     O14240   7.606   0.662   8.662 -0.9940  0.3686 -0.2502
  847MOL0     C14241   7.743   0.663   8.650  0.6293  0.1223 -0.2579
  847MOL0     C14242   7.803   0.695   8.531 -0.7090 -0.0442  0.0320
  847MOL0     C14243   7.945   0.682   8.516  0.0180  0.2328 -0.1925
  847MOL0     C14244   8.023   0.647   8.617  0.5294  0.5595 -0.3306
  847MOL0     O14245   8.160   0.637   8.588  0.1459 -0.2507 -0.1089
  847MOL0     C14246   8.221   0.511   8.589 -0.9264  0.2486  0.0877
  847MOL0     C14247   8.296   0.473   8.462 -0.3882 -0.4119 -0.1626
  847MOL0     C14248   8.401   0.580   8.420  0.3721  0.1934 -0.6757
  847MOL0     C14249   8.461   0.535   8.287  0.3373 -0.1698 -0.4156
  847MOL0     C14250   8.575   0.626   8.254  0.0073  0.3307  0.3292
  847MOL0     C14251   8.648   0.572   8.132 -0.2280  0.0579 -0.6847
  847MOL0     C14252   8.789   0.641   8.139  0.7526 -0.5121 -0.1577
  847MOL0     C14253   8.902   0.580   8.062  0.0957 -0.4719  0.8596
  847MOL0    Cl14254   8.899   0.398   8.074  0.3497 -0.0820 -0.1160
  847MOL0     C14255   7.966   0.589   8.728 -0.4831  0.1271 -0.5748
  847MOL0     C14256   7.825   0.600   8.747 -0.3556 -0.1828  0.0375
  847MOL0     O14257   7.614   0.778   8.857 -0.2931  0.6957 -0.8991
  847MOL0     C14258   7.338   0.755   8.894  0.5101 -0.2976  0.2462
  847MOL0     C14259   7.200   0.736   8.903  0.3265  0.9885 -0.3212
  847MOL0     N14260   6.616   0.305   8.389  0.1161  0.5131 -0.0721
  847MOL0     N14261   6.500   0.271   8.347  0.1196  0.8753 -0.4300
  847MOL0     C14262   5.165   0.659   8.215 -0.0438  0.2369  0.4313
  847MOL0     C14263   5.075   0.736   8.144  0.0749  0.0702  0.2135
  847MOL0     C14264   4.877   1.114   7.972  0.4375 -0.1611  0.8589
  847MOL0     C14265   4.821   1.225   8.042 -0.2430  0.4868 -0.1814
  847MOL0     C14266   4.745   1.319   7.973  0.6199 -0.2279 -0.0446
  847MOL0     C14267   4.725   1.316   7.832  0.0498  0.1277 -0.2107
  847MOL0     O14268   4.657   1.414   7.767 -0.1236  0.0537  0.4428
  847MOL0     C14269   4.569   1.508   7.828 -0.6963 -0.3521 -0.3511
  847MOL0     C14270   4.477   1.560   7.722  0.0951 -0.8525 -0.1809
  847MOL0     C14271   4.365   1.650   7.781 -0.8558  0.2985  0.0823
  847MOL0     C14272   4.238   1.634   7.687 -0.0571 -1.0658 -0.1717
  847MOL0     C14273   4.124   1.721   7.739 -0.0420 -0.6140  1.2884
  847MOL0     C14274   4.043   1.801   7.774  0.6617 -0.3364 -0.3908
  847MOL0     C14275   4.786   1.222   7.764 -0.1877 -0.6664  0.2824
  847MOL0     C14276   4.853   1.112   7.830  0.1511 -0.3909  0.2705
  847MOL0     C14277   4.895   0.989   7.746 -0.8047 -0.1136 -0.0429
  847MOL0     H14278   5.288   0.989   8.047 -2.1178  1.5457 -0.2431
  847MOL0     H14279   5.441   0.856   8.168  0.0742  0.1879 -1.2887
  847MOL0     H14280   5.508   0.620   8.136 -1.7955 -0.9975 -0.2926
  847MOL0     H14281   5.568   0.715   8.278 -1.6597  1.0352  1.3108
  847MOL0     H14282   5.556   0.418   8.257 -2.8096  1.1917  0.7011
  847MOL0     H14283   5.604   0.499   8.396  2.4076 -2.7195 -0.9828
  847MOL0     H14284   5.781   0.635   8.237  3.8396 -0.3544 -2.0129
  847MOL0     H14285   5.737   0.529   8.111 -0.8798 -0.3381 -0.4623
  847MOL0     H14286   5.805   0.388   8.366 -3.0234 -4.1977 -1.6001
  847MOL0     H14287   5.837   0.335   8.206  0.4495 -1.3454  2.1536
  847MOL0     H14288   6.029   0.470   8.182 -0.5718 -0.8413 -0.6573
  847MOL0     H14289   5.976   0.582   8.300  2.0642  0.4115 -1.7763
  847MOL0     H14290   5.999   0.440   8.490 -0.0495 -3.4197  1.2971
  847MOL0     H14291   6.037   0.307   8.397 -2.1024  0.5436 -1.9456
  847MOL0     H14292   6.221   0.407   8.525  3.2832  0.9676  0.5195
  847MOL0     H14293   6.213   0.552   8.431  1.6998 -0.8980 -0.2100
  847MOL0     H14294   6.242   0.281   8.291  0.7848 -0.6317  1.8592
  847MOL0     H14295   6.278   0.436   8.226  0.2902  0.7952 -0.5193
  847MOL0     H14296   6.444   0.584   8.448  1.1152  1.3344 -0.3886
  847MOL0     H14297   6.802   0.454   8.506  0.2080  1.5493 -0.3091
  847MOL0     H14298   6.714   0.606   8.502 -0.5233  0.7080  0.3820
  847MOL0     H14299   6.575   0.510   8.692  0.0537  3.0365 -1.4996
  847MOL0     H14300   6.709   0.385   8.707 -1.2174 -0.7119 -2.1502
  847MOL0     H14301   6.773   0.548   8.865  2.1279  2.5622  0.7272
  847MOL0     H14302   6.735   0.678   8.750 -0.9403  0.0452  2.3375
  847MOL0     H14303   6.946   0.606   8.623 -0.4388 -0.0791  0.0646
  847MOL0     H14304   6.965   0.468   8.735  0.3437  0.4754  1.3828
  847MOL0     H14305   7.146   0.643   8.574  1.0138 -0.5555 -0.4372
  847MOL0     H14306   7.390   0.650   8.568 -0.6017 -3.5837  1.2031
  847MOL0     H14307   7.741   0.715   8.444  0.9436 -0.8643 -1.3998
  847MOL0     H14308   7.997   0.698   8.422 -0.1657  0.2108 -0.2986
  847MOL0     H14309   8.306   0.528   8.656 -0.5814  0.3666 -0.3804
  847MOL0     H14310   8.160   0.432   8.635  0.2284 -2.5111 -2.7618
  847MOL0     H14311   8.348   0.379   8.480  0.8306  0.6480  2.3249
  847MOL0     H14312   8.238   0.461   8.370  0.2542 -3.5404 -0.2816
  847MOL0     H14313   8.351   0.678   8.419 -0.1212 -0.0553 -1.0080
  847MOL0     H14314   8.475   0.578   8.501 -2.0733  0.2335  1.7054
  847MOL0     H14315   8.384   0.553   8.210  1.6270  0.5953 -1.5836
  847MOL0     H14316   8.492   0.431   8.298 -2.8773 -0.9374  3.8318
  847MOL0     H14317   8.641   0.621   8.341  0.2083  0.1607  0.1706
  847MOL0     H14318   8.539   0.727   8.233 -2.5531 -1.0196 -2.5383
  847MOL0     H14319   8.651   0.464   8.145 -0.8969  0.1127  0.0282
  847MOL0     H14320   8.587   0.605   8.048 -1.0534  0.5043  0.0736
  847MOL0     H14321   8.831   0.640   8.240  1.0969 -0.6836 -0.3000
  847MOL0     H14322   8.792   0.746   8.111 -0.2774 -0.3574  0.2581
  847MOL0     H14323   8.886   0.604   7.957  1.4622 -0.5986  0.6129
  847MOL0     H14324   8.995   0.629   8.091 -0.0594  0.5386 -0.3032
  847MOL0     H14325   8.028   0.542   8.803 -1.9981  1.3465  1.5414
  847MOL0     H14326   7.790   0.561   8.842 -1.3522  3.6982  1.4446
  847MOL0     H14327   7.388   0.806   8.976 -0.5723  3.9863 -1.5158
  847MOL0     H14328   7.150   0.758   8.997  0.0577 -1.4489  0.1678
  847MOL0     H14329   5.131   0.566   8.258  0.1733  0.8316  1.9597
  847MOL0     H14330   4.970   0.707   8.149  0.4281 -1.1846  0.7538
  847MOL0     H14331   4.821   1.221   8.150 -2.5932  1.6063 -0.0773
  847MOL0     H14332   4.686   1.391   8.029 -2.6314 -1.1823 -2.0010
  847MOL0     H14333   4.628   1.585   7.879 -0.3351 -0.7657 -0.1434
  847MOL0     H14334   4.503   1.465   7.903 -1.1265 -0.9080 -1.0322
  847MOL0     H14335   4.436   1.466   7.682  0.2324 -0.6421 -0.8334
  847MOL0     H14336   4.530   1.607   7.638  0.8270 -2.9893 -0.9903
  847MOL0     H14337   4.397   1.754   7.795 -1.6715  0.4693  0.7260
  847MOL0     H14338   4.355   1.617   7.885  2.5458 -0.7985  0.1880
  847MOL0     H14339   4.260   1.671   7.586 -0.1693 -4.1920 -1.4510
  847MOL0     H14340   4.206   1.530   7.676 -2.0904 -0.6947  1.5391
  847MOL0     H14341   3.962   1.855   7.820  1.0876 -1.3864  1.7597
  847MOL0     H14342   4.771   1.217   7.656  0.6465  0.8133  0.0759
  847MOL0     H14343   4.853   0.994   7.645 -1.4723 -3.4061 -0.0320
  847MOL0     H14344   5.004   0.998   7.741 -0.9447  3.4351  0.4471
  847MOL0     H14345   4.873   0.896   7.799 -1.4362  0.8066  1.4103
  848MOL0     O14346   7.663   9.132   9.957  0.3844 -0.7263  0.5057
  848MOL0     C14347   7.681   9.069   9.851  0.3481  0.5383  0.4771
  848MOL0     O14348   7.769   9.097   9.755 -0.2730 -0.3545  0.1484
  848MOL0     C14349   7.829   9.220   9.748 -0.1448  0.0837  0.2045
  848MOL0     C14350   7.762   9.339   9.778 -0.7892 -0.9602  0.2474
  848MOL0     C14351   7.822   9.464   9.756  0.1701 -0.1990  0.6370
  848MOL0     C14352   7.956   9.464   9.707  0.2633 -0.2807 -0.2772
  848MOL0     O14353   8.013   9.586   9.691 -0.5456 -0.3919 -0.1118
  848MOL0     C14354   8.155   9.596   9.716  0.8613  0.7574  0.7135
  848MOL0     C14355   8.195   9.748   9.732  0.2799 -0.3194  0.7668
  848MOL0     C14356   8.179   9.831   9.597 -0.3018  0.3749 -0.1799
  848MOL0     C14357   8.182   9.981   9.607 -0.9510 -1.1112 -0.2961
  848MOL0     C14358   8.227  10.052   9.478 -0.0712 -0.0370  0.3331
  848MOL0     C14359   8.377  10.031   9.438  0.2270  0.6441 -0.5739
  848MOL0     C14360   8.483  10.064   9.541 -0.1724 -0.3659  0.5154
  848MOL0     C14361   8.623  10.028   9.490  0.1775  1.0154 -0.4977
  848MOL0     N14362   8.672  10.120   9.378  0.9253  0.0488  0.0500
  848MOL0     C14363   8.693  10.255   9.383 -0.3371  0.0447 -0.2848
  848MOL0     C14364   8.718  10.291   9.255  0.0043 -0.7792 -0.0611
  848MOL0     C14365   8.773  10.419   9.193 -0.1207 -0.3719 -0.4654
  848MOL0     C14366   8.925  10.420   9.221  0.0499 -0.2213 -0.0643
  848MOL0     C14367   9.002  10.526   9.130  0.1046  0.1321  0.1088
  848MOL0     C14368   9.152  10.512   9.156  0.6433  0.1586 -0.7024
  848MOL0     O14369   9.209  10.588   9.058 -0.5722 -0.0379  0.7163
  848MOL0     C14370   9.347  10.592   9.062 -0.3704  0.3441 -0.6906
  848MOL0     C14371   9.406  10.703   8.987  0.0959 -0.5171 -0.0658
  848MOL0     C14372   9.545  10.720   8.977 -0.7668 -0.1746  0.6919
  848MOL0     C14373   9.628  10.608   9.023 -0.2624 -1.2609  0.2896
  848MOL0     C14374   9.774  10.624   9.008  1.5775 -0.5169  0.0473
  848MOL0     O14375   9.841  10.510   9.017 -0.3457  0.4445  0.1282
  848MOL0     C14376   9.977  10.485   9.006 -0.7696  0.8022 -0.3091
  848MOL0     C14377  10.017  10.361   9.061 -0.1861  0.0046 -0.7792
  848MOL0     C14378  10.152  10.328   9.073  0.0272  0.3571 -0.0264
  848MOL0     C14379  10.250  10.416   9.026 -0.1891 -0.3628  0.2790
  848MOL0     O14380  10.388  10.399   9.054 -0.7533  0.7298  0.2118
  848MOL0     C14381  10.416  10.325   9.175  0.5613 -0.1745  0.1588
  848MOL0     C14382  10.541  10.375   9.229  0.0969  0.4133  0.4539
  848MOL0     C14383  10.558  10.357   9.380  0.2047 -0.3765  0.1095
  848MOL0     C14384  10.682  10.441   9.438 -0.2210 -0.3274 -0.2001
  848MOL0     C14385  10.701  10.391   9.578  0.0683  0.1132  0.1804
  848MOL0     C14386  10.841  10.435   9.642  0.7446 -0.0601  1.1504
  848MOL0     C14387  10.851  10.586   9.654 -0.4289  0.3263 -0.0719
  848MOL0     C14388  10.987  10.633   9.712  0.6928  0.2867  0.8241
  848MOL0    Cl14389  10.974  10.799   9.763 -0.8528  0.2397  0.2948
  848MOL0     C14390  10.211  10.533   8.966  0.5908 -0.3000  0.2231
  848MOL0     C14391  10.079  10.571   8.956  0.4003 -0.1318 -0.0265
  848MOL0     O14392   9.819  10.731   8.966 -0.0956 -0.6149  0.7969
  848MOL0     C14393   9.575  10.508   9.105  0.0805 -0.4423  0.0955
  848MOL0     C14394   9.436  10.492   9.114  0.5813  0.0609 -0.0097
  848MOL0     N14395   8.715  10.171   9.181  0.0559  0.5478  0.3020
  848MOL0     N14396   8.703  10.070   9.254  0.3247 -0.8102 -0.2333
  848MOL0     C14397   8.025   9.346   9.689  0.3403 -0.0171  0.1430
  848MOL0     C14398   7.962   9.225   9.709 -0.2252  0.4468  0.0622
  848MOL0     C14399   7.587   8.955   9.819 -0.0464 -0.0755  0.1831
  848MOL0     C14400   7.529   8.951   9.692  0.7490 -0.3694 -0.1295
  848MOL0     C14401   7.437   8.852   9.658 -0.0581 -0.0006  0.1414
  848MOL0     C14402   7.405   8.763   9.754  0.6611  0.8815  0.9001
  848MOL0     O14403   7.302   8.677   9.731  0.6352  0.5312  0.5954
  848MOL0     C14404   7.185   8.727   9.664  0.5607 -0.0756 -0.0735
  848MOL0     C14405   7.066   8.648   9.709 -0.4748 -0.3862 -0.8500
  848MOL0     C14406   7.000   8.709   9.830 -0.2799  1.0578 -0.2041
  848MOL0     C14407   6.900   8.608   9.885  0.8814 -0.2231 -0.1247
  848MOL0     C14408   6.790   8.616   9.790  0.6048  0.2517  0.2325
  848MOL0     C14409   6.689   8.618   9.721 -0.7834  0.2425  0.6103
  848MOL0     C14410   7.458   8.760   9.877 -0.1802  0.3537  0.3997
  848MOL0     C14411   7.554   8.855   9.912 -1.3074 -0.1632  0.2996
  848MOL0     C14412   7.634   8.823  10.031  0.2357  0.2364 -0.6990
  848MOL0     H14413   7.657   9.333   9.803 -1.9619 -2.6827 -4.2234
  848MOL0     H14414   7.771   9.558   9.777 -2.5234 -0.6015 -3.0526
  848MOL0     H14415   8.174   9.542   9.809 -2.9523 -0.3826  0.9961
  848MOL0     H14416   8.210   9.552   9.632  0.9675 -1.1878  1.7327
  848MOL0     H14417   8.299   9.761   9.764  0.5216  0.4768 -0.2863
  848MOL0     H14418   8.138   9.794   9.813 -0.1095  2.3473 -0.9045
  848MOL0     H14419   8.082   9.803   9.555 -0.8053  1.1774  0.4214
  848MOL0     H14420   8.248   9.796   9.520 -1.0448 -0.0772 -0.6547
  848MOL0     H14421   8.084  10.020   9.633 -0.0400  0.4440  0.9998
  848MOL0     H14422   8.244  10.008   9.693 -0.1096  0.0294 -1.2270
  848MOL0     H14423   8.158  10.028   9.397  1.2142 -0.3033 -0.7135
  848MOL0     H14424   8.220  10.160   9.486 -3.6278 -0.1280 -0.0628
  848MOL0     H14425   8.382   9.924   9.414  0.2828  0.6218 -0.4645
  848MOL0     H14426   8.394  10.082   9.343  1.7139 -0.6376 -1.0446
  848MOL0     H14427   8.470  10.003   9.631 -0.8524 -0.3977  0.4074
  848MOL0     H14428   8.473  10.169   9.572 -0.9031 -0.0817 -0.6223
  848MOL0     H14429   8.686  10.037   9.580 -2.0838  0.5931  1.2149
  848MOL0     H14430   8.622   9.922   9.464  0.6446  0.5350  1.2534
  848MOL0     H14431   8.688  10.316   9.473  1.2060  1.4026 -1.0423
  848MOL0     H14432   8.763  10.415   9.084  1.7770 -1.4058 -0.6548
  848MOL0     H14433   8.725  10.501   9.247 -0.5867 -2.1394  1.9554
  848MOL0     H14434   8.954  10.451   9.322 -0.1220  2.4478 -0.7482
  848MOL0     H14435   8.961  10.320   9.198 -2.0080 -1.2406  0.8984
  848MOL0     H14436   8.971  10.630   9.141  0.7404  0.0843  3.6640
  848MOL0     H14437   8.997  10.494   9.026 -1.3644  1.0684 -0.1292
  848MOL0     H14438   9.182  10.408   9.141  1.5168  0.5069 -1.4312
  848MOL0     H14439   9.168  10.549   9.257  0.4021  0.0167 -0.6120
  848MOL0     H14440   9.343  10.769   8.928  0.4537  0.3299  0.4881
  848MOL0     H14441   9.588  10.811   8.938  0.8629 -0.8679  0.7709
  848MOL0     H14442   9.937  10.298   9.097 -1.2349  1.3677 -0.6074
  848MOL0     H14443  10.170  10.233   9.122 -1.5760 -1.6860 -3.0549
  848MOL0     H14444  10.335  10.342   9.246 -0.3659 -2.3449 -0.2918
  848MOL0     H14445  10.427  10.220   9.144  0.8576  0.2968 -1.4084
  848MOL0     H14446  10.625  10.311   9.200  2.1243  2.9319  0.4254
  848MOL0     H14447  10.560  10.477   9.194  0.4278  0.0594 -0.4287
  848MOL0     H14448  10.468  10.371   9.441 -0.2004 -0.7777 -0.3875
  848MOL0     H14449  10.594  10.255   9.396  0.7953 -0.1056  0.5559
  848MOL0     H14450  10.648  10.545   9.443 -1.8189 -0.8951  2.3416
  848MOL0     H14451  10.776  10.429   9.383  1.1852 -0.0020  2.0156
  848MOL0     H14452  10.716  10.283   9.573  3.4366  0.5364 -2.0556
  848MOL0     H14453  10.617  10.406   9.647  1.7994 -1.3120  2.7315
  848MOL0     H14454  10.837  10.385   9.739 -1.7281 -0.8384  0.7172
  848MOL0     H14455  10.922  10.392   9.583 -0.0049  0.4030 -0.2619
  848MOL0     H14456  10.766  10.620   9.714 -0.2075  4.0716 -1.6561
  848MOL0     H14457  10.825  10.628   9.556 -0.9783 -1.6632 -0.8400
  848MOL0     H14458  11.020  10.580   9.801  1.1910 -1.5992 -0.4102
  848MOL0     H14459  11.067  10.616   9.639 -1.1608 -2.1636 -0.8145
  848MOL0     H14460  10.289  10.602   8.934  0.5845 -1.1829 -1.8197
  848MOL0     H14461  10.045  10.670   8.926  3.4363  1.0515  0.0972
  848MOL0     H14462   9.634  10.432   9.154 -1.1572 -0.9076  0.8959
  848MOL0     H14463   9.395  10.411   9.173 -0.0774 -0.5707 -1.2700
  848MOL0     H14464   8.128   9.350   9.654 -0.3712  3.7167 -2.1055
  848MOL0     H14465   8.012   9.130   9.689 -1.5419  0.0767 -1.7221
  848MOL0     H14466   7.551   9.032   9.624  0.5874  1.5728  2.0111
  848MOL0     H14467   7.377   8.861   9.568  0.7832  1.8313 -0.3011
  848MOL0     H14468   7.198   8.720   9.555 -0.7261  3.5859 -0.6073
  848MOL0     H14469   7.162   8.830   9.693 -0.1080 -0.2392 -0.0243
  848MOL0     H14470   7.101   8.544   9.710 -0.0565 -0.2462  0.2614
  848MOL0     H14471   6.990   8.656   9.631 -0.1265 -1.0012 -1.2608
  848MOL0     H14472   6.950   8.801   9.798 -0.8095  2.3090  3.7217
  848MOL0     H14473   7.076   8.724   9.907 -2.1280 -0.6776  2.1125
  848MOL0     H14474   6.931   8.506   9.910 -1.1196 -0.4052  2.0467
  848MOL0     H14475   6.860   8.634   9.984  1.7366  1.5699 -0.2189
  848MOL0     H14476   6.609   8.593   9.654 -2.1346 -3.1128  3.1632
  848MOL0     H14477   7.437   8.676   9.942  0.4241 -1.6961 -1.8898
  848MOL0     H14478   7.579   8.829  10.125  1.5391  0.1873  0.1030
  848MOL0     H14479   7.673   8.721  10.033  0.0549  0.0343  3.9701
  848MOL0     H14480   7.716   8.895  10.047  0.3350 -0.2729  1.3384
  849MOL0     O14481   9.088   1.003   7.474  0.1898 -0.3107 -0.2617
  849MOL0     C14482   8.971   0.986   7.451  1.2032  0.1160  0.2990
  849MOL0     O14483   8.907   0.986   7.330  0.1862 -0.5475 -0.4847
  849MOL0     C14484   8.987   1.010   7.214  0.6422  0.7986  0.6855
  849MOL0     C14485   9.055   1.130   7.192 -0.0710  0.7390 -0.0195
  849MOL0     C14486   9.144   1.152   7.088  0.1640 -0.5905  0.4504
  849MOL0     C14487   9.181   1.048   7.008  0.0830  0.4435  0.9016
  849MOL0     O14488   9.252   1.074   6.897 -0.5243  0.7612 -0.9267
  849MOL0     C14489   9.364   0.977   6.866 -0.4494  0.7260 -0.2838
  849MOL0     C14490   9.495   1.052   6.854  0.7678  0.3584 -0.0327
  849MOL0     C14491   9.599   0.971   6.768  0.7973 -1.3313 -0.1215
  849MOL0     C14492   9.728   1.061   6.770 -0.1575 -0.1790 -0.1159
  849MOL0     C14493   9.836   0.977   6.700  0.0164  0.4145  0.6779
  849MOL0     C14494   9.973   1.043   6.684 -0.2683 -0.7878 -0.6801
  849MOL0     C14495   9.971   1.195   6.638 -0.2062  0.2853 -0.0958
  849MOL0     C14496  10.112   1.227   6.574 -0.0297 -0.4891  0.0861
  849MOL0     N14497  10.220   1.223   6.674  0.4181  0.4047 -0.2218
  849MOL0     C14498  10.296   1.116   6.714  0.1513 -0.9301 -0.6328
  849MOL0     C14499  10.359   1.160   6.822  0.1242  0.1315  0.6326
  849MOL0     C14500  10.439   1.099   6.928  0.4142  0.1053  0.6417
  849MOL0     C14501  10.542   1.201   6.985 -0.1618  0.4171 -0.5356
  849MOL0     C14502  10.590   1.156   7.122 -0.2276  0.6391  0.1566
  849MOL0     C14503  10.737   1.176   7.140 -0.9292 -0.4077 -0.5819
  849MOL0     O14504  10.823   1.082   7.072  0.0936 -0.2921  0.5697
  849MOL0     C14505  10.949   1.092   7.106 -0.0043 -0.0396  0.4867
  849MOL0     C14506  11.043   1.026   7.020  0.1864  0.5099  0.6285
  849MOL0     C14507  11.185   1.034   7.033 -0.8070  0.0496  0.7598
  849MOL0     C14508  11.238   1.108   7.130 -0.7973 -0.6213  0.2404
  849MOL0     C14509  11.381   1.131   7.143 -0.8747  0.1694  0.0642
  849MOL0     O14510  11.432   1.230   7.214 -0.0555  0.4967 -0.0985
  849MOL0     C14511  11.565   1.258   7.213 -0.3788  0.4637  0.4607
  849MOL0     C14512  11.647   1.205   7.305 -0.5870 -0.7173 -0.2088
  849MOL0     C14513  11.785   1.240   7.297 -0.5289 -0.0079 -0.1363
  849MOL0     C14514  11.837   1.316   7.193 -0.5338  0.0304  0.0454
  849MOL0     O14515  11.969   1.337   7.199  0.2876 -0.0585  0.4953
  849MOL0     C14516  12.037   1.414   7.103  0.0015  1.0114  0.0043
  849MOL0     C14517  12.175   1.460   7.139  0.6204  0.3706 -0.8890
  849MOL0     C14518  12.260   1.338   7.182 -0.1163  0.4213  0.1448
  849MOL0     C14519  12.380   1.360   7.270 -0.0338 -0.3333  0.7366
  849MOL0     C14520  12.342   1.404   7.407 -0.4775  0.3831 -0.3124
  849MOL0     C14521  12.478   1.441   7.468 -0.4554  0.5595 -0.3014
  849MOL0     C14522  12.474   1.500   7.613 -0.4579  0.1627  1.0955
  849MOL0     C14523  12.611   1.543   7.665 -1.1263 -0.7030  0.9401
  849MOL0    Cl14524  12.724   1.412   7.664 -0.1365  0.0643 -0.8139
  849MOL0     C14525  11.754   1.370   7.103 -0.7756 -0.3722 -0.1945
  849MOL0     C14526  11.616   1.329   7.107 -0.6456 -0.0760  0.6756
  849MOL0     O14527  11.449   1.050   7.085  0.6296  0.6330  0.0446
  849MOL0     C14528  11.146   1.176   7.221  0.3889 -0.4966  0.0754
  849MOL0     C14529  11.009   1.171   7.209 -0.3984 -0.3022  0.0993
  849MOL0     N14530  10.311   1.286   6.853 -0.5744  0.1136  0.2204
  849MOL0     N14531  10.229   1.323   6.767  0.1791 -0.1734  0.3513
  849MOL0     C14532   9.121   0.923   7.027 -0.0436 -0.4138  0.7548
  849MOL0     C14533   9.032   0.902   7.135 -0.2442 -0.7004 -1.0414
  849MOL0     C14534   8.869   0.982   7.569 -0.0562 -0.3015  0.0197
  849MOL0     C14535   8.756   1.063   7.546  0.4872  0.3551  0.4020
  849MOL0     C14536   8.669   1.100   7.649 -0.4715  0.0858  0.1466
  849MOL0     C14537   8.699   1.059   7.777  0.6535  0.0662 -0.0604
  849MOL0     O14538   8.620   1.109   7.880  0.7759  0.3986  0.3118
  849MOL0     C14539   8.638   1.073   8.021  0.2926 -0.3912  0.5385
  849MOL0     C14540   8.522   0.994   8.068 -0.0632  1.4124  0.0397
  849MOL0     C14541   8.502   0.869   7.982 -1.2188  0.0953 -0.4448
  849MOL0     C14542   8.405   0.869   7.869 -0.3848 -0.1050  0.3616
  849MOL0     C14543   8.268   0.908   7.915 -0.3113  0.1564 -0.1914
  849MOL0     C14544   8.157   0.948   7.958 -0.1736 -0.5880 -0.7053
  849MOL0     C14545   8.802   0.958   7.797 -0.4068 -0.2381  0.0197
  849MOL0     C14546   8.892   0.927   7.695  0.0798  0.0077  0.2326
  849MOL0     C14547   9.000   0.827   7.715  0.0705 -0.6480 -0.2902
  849MOL0     H14548   9.021   1.200   7.269 -2.0489 -1.5668  1.3661
  849MOL0     H14549   9.186   1.247   7.059 -0.9643  0.0641  0.8754
  849MOL0     H14550   9.374   0.898   6.941 -0.1995 -0.1503 -1.2059
  849MOL0     H14551   9.335   0.925   6.774 -2.3107 -1.8166  1.5880
  849MOL0     H14552   9.520   1.076   6.958 -2.9328  3.4580  0.3629
  849MOL0     H14553   9.488   1.148   6.803 -1.5620  0.5369  0.4982
  849MOL0     H14554   9.561   0.965   6.666 -1.7526  2.7164  0.3538
  849MOL0     H14555   9.605   0.876   6.822 -0.0119 -2.2145 -1.5342
  849MOL0     H14556   9.709   1.160   6.728  0.6147 -0.0801 -0.2317
  849MOL0     H14557   9.756   1.075   6.875 -0.9824  1.0404 -0.0394
  849MOL0     H14558   9.851   0.884   6.755 -0.8623 -0.8151 -1.0737
  849MOL0     H14559   9.789   0.947   6.606  1.9197  2.2823 -0.9903
  849MOL0     H14560  10.027   1.047   6.779 -0.7315  0.9991 -0.4479
  849MOL0     H14561  10.030   0.975   6.621 -0.8626  0.0464 -2.1755
  849MOL0     H14562   9.942   1.268   6.714  2.4028 -0.9050  2.1805
  849MOL0     H14563   9.900   1.206   6.555 -2.3390 -0.0512  1.6028
  849MOL0     H14564  10.135   1.164   6.488 -2.6671 -0.0801 -1.0144
  849MOL0     H14565  10.110   1.326   6.528  2.0070 -0.2314  0.4616
  849MOL0     H14566  10.312   1.014   6.679 -1.8687 -1.1248 -1.1534
  849MOL0     H14567  10.380   1.051   7.008  0.2457 -1.6080 -0.4528
  849MOL0     H14568  10.508   1.023   6.891  1.6384  0.9403  1.1503
  849MOL0     H14569  10.625   1.211   6.915 -0.4013 -0.1536 -0.9083
  849MOL0     H14570  10.497   1.298   7.007 -0.7169  0.2782 -1.0208
  849MOL0     H14571  10.563   1.052   7.145 -1.5169  1.5720  3.5796
  849MOL0     H14572  10.537   1.212   7.200 -0.0384  2.0042 -0.6768
  849MOL0     H14573  10.758   1.174   7.247 -1.3659 -2.8693 -0.4895
  849MOL0     H14574  10.760   1.277   7.106 -0.5689 -0.0509  0.6640
  849MOL0     H14575  11.013   0.964   6.935 -0.4786  1.0012  0.5008
  849MOL0     H14576  11.245   0.977   6.964  0.8685  1.1165  1.2840
  849MOL0     H14577  11.607   1.142   7.384  2.1386 -0.4811  1.4908
  849MOL0     H14578  11.837   1.180   7.372 -3.7149 -2.4245  0.3718
  849MOL0     H14579  12.042   1.355   7.011 -1.2272  0.5981  0.1851
  849MOL0     H14580  11.988   1.510   7.088  0.1683  0.9707 -0.8359
  849MOL0     H14581  12.220   1.520   7.060 -1.5667  2.7044 -0.5068
  849MOL0     H14582  12.167   1.528   7.225 -0.5951  0.5156 -1.0957
  849MOL0     H14583  12.194   1.269   7.236 -3.0590  3.1059  0.2532
  849MOL0     H14584  12.301   1.293   7.091  1.8249 -1.1508  1.7030
  849MOL0     H14585  12.451   1.429   7.222  1.0022 -2.7602 -1.4733
  849MOL0     H14586  12.443   1.270   7.267  1.4814  0.6811 -1.8656
  849MOL0     H14587  12.285   1.328   7.462  2.1429 -0.8900  0.8546
  849MOL0     H14588  12.289   1.499   7.411 -1.0920  0.0079  1.1598
  849MOL0     H14589  12.556   1.364   7.470 -0.6679  0.3561  0.3472
  849MOL0     H14590  12.524   1.520   7.408  2.8537 -0.6921  0.3757
  849MOL0     H14591  12.423   1.417   7.663  0.2532 -2.3320 -1.9881
  849MOL0     H14592  12.404   1.584   7.609 -0.5914  0.0309  0.4864
  849MOL0     H14593  12.650   1.618   7.594 -1.7316 -0.5368  0.7733
  849MOL0     H14594  12.598   1.584   7.766  1.6390  1.6837  0.4574
  849MOL0     H14595  11.793   1.445   7.035  1.1110 -0.0820  1.1194
  849MOL0     H14596  11.551   1.363   7.027 -1.2199 -0.6364  0.8960
  849MOL0     H14597  11.190   1.233   7.302  0.2801 -1.3635  0.7641
  849MOL0     H14598  10.953   1.230   7.281 -1.6920  0.1650 -1.2343
  849MOL0     H14599   9.157   0.839   6.968 -1.4323 -1.1094  0.8649
  849MOL0     H14600   9.002   0.799   7.154  2.0464 -1.7571 -2.6653
  849MOL0     H14601   8.750   1.109   7.448 -4.6846  0.1340  0.3246
  849MOL0     H14602   8.587   1.171   7.634 -2.2390 -1.9517 -0.3177
  849MOL0     H14603   8.649   1.157   8.090 -0.6908 -0.7448  1.1515
  849MOL0     H14604   8.731   1.019   8.043  1.7654  1.7605 -0.0562
  849MOL0     H14605   8.432   1.056   8.063 -1.5976 -0.7580 -1.2235
  849MOL0     H14606   8.556   0.965   8.168  0.7190  1.9767 -0.0536
  849MOL0     H14607   8.472   0.787   8.049  1.1865 -1.4882 -1.1705
  849MOL0     H14608   8.599   0.833   7.947  0.0478  1.3506  1.5806
  849MOL0     H14609   8.443   0.940   7.796  2.4430  0.7418  2.4712
  849MOL0     H14610   8.402   0.775   7.814 -1.2022  1.1646 -1.8627
  849MOL0     H14611   8.058   0.968   7.992 -0.4730 -0.1886 -1.7660
  849MOL0     H14612   8.814   0.915   7.896  1.7085 -1.2420 -0.6083
  849MOL0     H14613   9.087   0.873   7.667  0.5970 -1.8707 -0.5377
  849MOL0     H14614   9.024   0.799   7.818  1.5159 -0.0950 -0.4574
  849MOL0     H14615   8.958   0.748   7.652 -0.8778  0.8786 -1.6716
  850MOL0     O14616   6.805   2.346   0.345 -0.0471 -0.4207  0.5017
  850MOL0     C14617   6.770   2.453   0.383  0.9510 -0.3096  0.3638
  850MOL0     O14618   6.852   2.539   0.455  0.4123  1.0886  0.1539
  850MOL0     C14619   6.977   2.501   0.497 -0.3865 -0.2395 -1.8871
  850MOL0     C14620   7.072   2.601   0.476 -0.8767  0.0429  0.0801
  850MOL0     C14621   7.204   2.589   0.533 -0.6437 -0.7777  0.4527
  850MOL0     C14622   7.228   2.477   0.611  0.5496 -0.5406  0.5850
  850MOL0     O14623   7.342   2.478   0.691 -0.7801 -0.7065  0.0914
  850MOL0     C14624   7.431   2.362   0.687  0.3005 -0.0609  0.0706
  850MOL0     C14625   7.575   2.392   0.726  0.5120 -0.8730  0.6880
  850MOL0     C14626   7.670   2.284   0.676 -0.2128  0.2577  0.7206
  850MOL0     C14627   7.797   2.302   0.757  0.6784 -0.2699 -0.1259
  850MOL0     C14628   7.907   2.210   0.710  0.3025  1.2988 -0.3581
  850MOL0     C14629   8.044   2.239   0.771 -0.7018 -0.5690 -0.0877
  850MOL0     C14630   8.054   2.266   0.928  0.2149  0.1111  0.4267
  850MOL0     C14631   8.190   2.235   0.974 -0.6617  0.9012  0.6476
  850MOL0     N14632   8.293   2.313   0.908 -0.8018  0.6878 -0.6076
  850MOL0     C14633   8.300   2.448   0.910 -0.4915 -0.0687  0.5034
  850MOL0     C14634   8.388   2.480   0.805  0.4008  0.1621 -0.2967
  850MOL0     C14635   8.422   2.611   0.757 -0.0029 -0.0432  0.2975
  850MOL0     C14636   8.498   2.682   0.876  0.6439  0.2883  0.1982
  850MOL0     C14637   8.537   2.824   0.842 -0.4836  0.4085 -0.3628
  850MOL0     C14638   8.629   2.892   0.949 -1.0892 -0.8160  0.2501
  850MOL0     O14639   8.619   3.035   0.932  0.6940 -0.1663 -0.5687
  850MOL0     C14640   8.668   3.116   1.032 -0.0013  0.0532  1.0020
  850MOL0     C14641   8.625   3.249   1.016 -0.2612 -1.3481  0.5700
  850MOL0     C14642   8.677   3.355   1.094  0.2700  0.1079 -0.0166
  850MOL0     C14643   8.771   3.317   1.199  0.2057  0.2550  0.1775
  850MOL0     C14644   8.865   3.412   1.268  0.2469 -0.0872  0.0262
  850MOL0     O14645   8.978   3.355   1.323  0.5735 -0.7074  0.2442
  850MOL0     C14646   9.072   3.431   1.390  1.1039  0.9114 -0.3048
  850MOL0     C14647   9.036   3.456   1.523 -0.7632  0.1567  0.5053
  850MOL0     C14648   9.115   3.541   1.591  0.5010  0.1264 -0.0389
  850MOL0     C14649   9.219   3.613   1.531  0.0365 -1.0494 -0.7994
  850MOL0     O14650   9.283   3.713   1.608  0.0354 -0.1474 -0.4553
  850MOL0     C14651   9.370   3.805   1.542 -0.0202  0.2939  0.4390
  850MOL0     C14652   9.287   3.907   1.465 -0.0339  0.4131 -0.2188
  850MOL0     C14653   9.166   3.970   1.548  0.4898  0.2993 -0.8073
  850MOL0     C14654   9.140   4.112   1.506 -0.1219  0.2942  0.9945
  850MOL0     C14655   9.033   4.184   1.592 -0.2408 -0.9127  0.0668
  850MOL0     C14656   8.892   4.152   1.537 -0.5184 -0.4196 -0.3566
  850MOL0     C14657   8.786   4.221   1.623 -0.1506  0.5542  0.5785
  850MOL0     C14658   8.765   4.142   1.744  0.9938  0.5796 -0.3178
  850MOL0    Cl14659   8.619   4.217   1.825  0.0423 -0.2301  0.4779
  850MOL0     C14660   9.260   3.566   1.406 -0.3841 -0.7606  0.2230
  850MOL0     C14661   9.188   3.477   1.334 -0.0906 -1.0636  0.6566
  850MOL0     O14662   8.829   3.532   1.276  0.9945  0.2284 -0.1681
  850MOL0     C14663   8.798   3.181   1.217 -0.7089 -0.3916 -0.5492
  850MOL0     C14664   8.750   3.079   1.133  0.3079 -0.1808  0.3346
  850MOL0     N14665   8.441   2.366   0.752  0.5722  0.4730 -0.1795
  850MOL0     N14666   8.387   2.267   0.821  0.4640  0.0324  0.7113
  850MOL0     C14667   7.138   2.372   0.629 -1.0157  0.1997  0.2619
  850MOL0     C14668   7.012   2.383   0.568 -0.3781 -0.6583  0.1254
  850MOL0     C14669   6.619   2.495   0.381 -0.1890  0.7276 -0.0461
  850MOL0     C14670   6.578   2.574   0.488  0.4815  0.0560  0.1381
  850MOL0     C14671   6.445   2.594   0.521  0.5905 -0.0587  0.1724
  850MOL0     C14672   6.344   2.543   0.439 -0.6932 -0.4402 -0.0710
  850MOL0     O14673   6.207   2.561   0.457  0.5851 -0.1335  0.4067
  850MOL0     C14674   6.154   2.688   0.481  0.3444  0.3926  0.5858
  850MOL0     C14675   6.002   2.675   0.446  0.2599 -0.2832 -0.3670
  850MOL0     C14676   5.939   2.812   0.427  0.3922 -0.3412 -0.4000
  850MOL0     C14677   5.957   2.898   0.562 -0.0007  0.2240 -0.6537
  850MOL0     C14678   5.873   2.849   0.675 -0.1039  0.0050 -0.1205
  850MOL0     C14679   5.835   2.794   0.775 -0.9480  0.1378 -0.1451
  850MOL0     C14680   6.380   2.479   0.317  0.0495  0.6030 -0.2736
  850MOL0     C14681   6.515   2.451   0.285 -0.7792  0.5764 -0.0010
  850MOL0     C14682   6.550   2.390   0.147 -0.2265  0.9866 -0.9735
  850MOL0     H14683   7.030   2.690   0.431 -4.6486 -1.7574 -0.3131
  850MOL0     H14684   7.269   2.676   0.535 -0.8907 -0.5987  2.8373
  850MOL0     H14685   7.401   2.279   0.752  1.4772 -2.2675 -2.0553
  850MOL0     H14686   7.435   2.310   0.591  0.9405  1.4292 -0.7344
  850MOL0     H14687   7.579   2.392   0.835  1.5743  0.8837  0.6935
  850MOL0     H14688   7.606   2.490   0.686  0.5910 -1.5739 -1.0628
  850MOL0     H14689   7.692   2.296   0.570  2.2777 -1.3669  0.9738
  850MOL0     H14690   7.625   2.184   0.685  0.0696 -0.1888 -1.9788
  850MOL0     H14691   7.840   2.401   0.738  1.3729 -0.8261 -1.5825
  850MOL0     H14692   7.774   2.281   0.862  0.7718  1.0364  0.1773
  850MOL0     H14693   7.877   2.107   0.732  1.2608  0.7535 -1.4680
  850MOL0     H14694   7.903   2.216   0.601 -1.1601  1.1184 -0.3302
  850MOL0     H14695   8.124   2.168   0.749  1.5491  0.9069  2.5399
  850MOL0     H14696   8.073   2.336   0.728  0.3949 -0.3187  1.1256
  850MOL0     H14697   7.980   2.208   0.984 -1.7915 -0.3039 -2.4269
  850MOL0     H14698   8.021   2.369   0.943 -1.6314  0.5342 -4.4745
  850MOL0     H14699   8.207   2.252   1.080 -1.3303 -0.4812  0.9897
  850MOL0     H14700   8.205   2.130   0.949 -2.9766  0.3986  1.1912
  850MOL0     H14701   8.264   2.523   0.980 -1.7792  0.7180 -0.9239
  850MOL0     H14702   8.481   2.590   0.668 -1.7583 -2.2880 -0.4201
  850MOL0     H14703   8.335   2.674   0.737  0.5833  0.5243 -0.5092
  850MOL0     H14704   8.441   2.668   0.968  1.0121 -2.5558  0.0743
  850MOL0     H14705   8.592   2.627   0.880  0.4314 -0.2418 -1.6684
  850MOL0     H14706   8.441   2.877   0.839 -2.1808 -2.3694  1.1346
  850MOL0     H14707   8.583   2.822   0.743 -1.4486  1.2037 -0.8511
  850MOL0     H14708   8.732   2.858   0.939 -0.2763  1.6135 -0.4427
  850MOL0     H14709   8.605   2.861   1.051  0.2828 -2.4646  0.0999
  850MOL0     H14710   8.558   3.260   0.931  0.3465  0.1249  0.2452
  850MOL0     H14711   8.644   3.458   1.084  0.0371  0.2379  1.8944
  850MOL0     H14712   8.951   3.405   1.566  0.5251 -0.2153  2.7646
  850MOL0     H14713   9.088   3.578   1.690  2.5996  3.4903 -0.5537
  850MOL0     H14714   9.421   3.855   1.625 -0.1688 -0.2707  0.8801
  850MOL0     H14715   9.438   3.751   1.476 -0.1014 -3.0943  2.8357
  850MOL0     H14716   9.357   3.988   1.440  0.8901 -0.0844  0.6983
  850MOL0     H14717   9.251   3.855   1.376  1.1630 -0.5370 -0.1659
  850MOL0     H14718   9.085   3.898   1.533  1.6465 -0.8238 -1.9079
  850MOL0     H14719   9.189   3.972   1.655 -2.0466 -2.9787 -0.0486
  850MOL0     H14720   9.110   4.109   1.401  0.3700  0.3421  0.8479
  850MOL0     H14721   9.237   4.162   1.517  0.7884 -0.6045 -1.9672
  850MOL0     H14722   9.037   4.293   1.587 -0.3310 -0.9678 -1.4946
  850MOL0     H14723   9.040   4.167   1.700 -0.8152  2.7197  0.8107
  850MOL0     H14724   8.890   4.190   1.435 -0.1321 -3.0170 -1.3990
  850MOL0     H14725   8.882   4.043   1.539  1.6388 -0.7436 -2.8588
  850MOL0     H14726   8.693   4.222   1.566  0.5183  0.1657 -0.5585
  850MOL0     H14727   8.810   4.325   1.647  0.8811  0.8389 -1.4563
  850MOL0     H14728   8.744   4.039   1.713 -0.4773  1.5730 -2.8989
  850MOL0     H14729   8.847   4.144   1.816  0.8174  0.4658 -0.1110
  850MOL0     H14730   9.352   3.603   1.363 -0.5268 -2.0107 -1.2482
  850MOL0     H14731   9.218   3.438   1.237 -1.0779 -1.7005  0.5821
  850MOL0     H14732   8.880   3.147   1.279  0.2652  4.1985  1.0623
  850MOL0     H14733   8.776   2.976   1.153  0.2186 -0.0576  1.1304
  850MOL0     H14734   7.152   2.285   0.692 -0.8358  0.8220  1.0975
  850MOL0     H14735   6.939   2.302   0.568 -2.6298  1.2594  1.5179
  850MOL0     H14736   6.651   2.594   0.566  0.6212  4.6886 -0.8675
  850MOL0     H14737   6.416   2.647   0.611 -1.7508  1.2755 -1.2653
  850MOL0     H14738   6.188   2.765   0.412  2.9742  0.0075  1.3343
  850MOL0     H14739   6.163   2.704   0.589 -1.7857  0.6747  0.7713
  850MOL0     H14740   5.953   2.628   0.532 -0.3303 -0.6914 -0.9137
  850MOL0     H14741   5.985   2.613   0.357  1.8613 -2.0346  0.4849
  850MOL0     H14742   5.830   2.805   0.416  0.1013 -1.8230  2.5253
  850MOL0     H14743   5.981   2.866   0.342 -1.3259 -2.0993 -2.4929
  850MOL0     H14744   6.062   2.912   0.588 -0.0305  3.8943 -1.9770
  850MOL0     H14745   5.917   2.997   0.537 -1.2800 -0.6586 -2.3682
  850MOL0     H14746   5.780   2.737   0.847 -1.0231  0.3472 -0.0350
  850MOL0     H14747   6.302   2.441   0.253 -1.7552  1.7129  1.1837
  850MOL0     H14748   6.463   2.396   0.082 -1.1369 -1.3652 -0.0743
  850MOL0     H14749   6.621   2.460   0.101  0.9401  1.0083  0.7695
  850MOL0     H14750   6.589   2.289   0.166  0.0247  1.2805  0.1433
  851MOL0     O14751   1.243   3.300   3.588 -0.1865  0.0310 -0.0950
  851MOL0     C14752   1.262   3.188   3.539  0.1360 -0.6069  0.3614
  851MOL0     O14753   1.383   3.125   3.526 -0.5240  0.2878  0.5196
  851MOL0     C14754   1.500   3.180   3.579  1.6221  0.2923 -0.4710
  851MOL0     C14755   1.619   3.133   3.529  0.5673 -0.0155 -0.5617
  851MOL0     C14756   1.740   3.167   3.584  0.4258 -0.0212  0.6065
  851MOL0     C14757   1.754   3.252   3.690 -0.3284  0.1578 -0.6978
  851MOL0     O14758   1.886   3.276   3.733 -0.0479 -0.1616 -0.0963
  851MOL0     C14759   1.910   3.329   3.868  0.4204 -0.4228  0.0914
  851MOL0     C14760   2.053   3.373   3.875  0.2686  0.0169 -0.2560
  851MOL0     C14761   2.141   3.250   3.873  0.4092  0.2420 -0.6451
  851MOL0     C14762   2.280   3.271   3.917 -0.1413 -0.3357 -0.0876
  851MOL0     C14763   2.364   3.142   3.934 -0.1572 -0.0121  0.0745
  851MOL0     C14764   2.485   3.184   4.020 -0.3446 -0.2229 -1.1445
  851MOL0     C14765   2.579   3.073   4.064  0.0035 -0.1081  0.6891
  851MOL0     C14766   2.671   3.045   3.941 -0.4436  0.2202 -0.4794
  851MOL0     N14767   2.745   3.155   3.889  0.4151  0.0931 -0.8561
  851MOL0     C14768   2.834   3.233   3.955  0.0750 -0.1333 -0.5142
  851MOL0     C14769   2.899   3.301   3.851  0.0233  0.6770 -0.1155
  851MOL0     C14770   3.004   3.405   3.851  0.5223 -1.0294 -0.0097
  851MOL0     C14771   3.019   3.480   3.990  0.4748 -1.1555  0.7836
  851MOL0     C14772   2.920   3.589   4.031 -0.0814 -0.2925 -0.7635
  851MOL0     C14773   2.777   3.564   4.002 -0.5652  1.1359  0.2480
  851MOL0     O14774   2.752   3.586   3.860 -0.0289 -0.4028  1.3192
  851MOL0     C14775   2.619   3.622   3.824  0.6122 -0.0046 -0.0349
  851MOL0     C14776   2.606   3.709   3.710  1.0088 -0.3542 -0.0908
  851MOL0     C14777   2.476   3.757   3.672 -0.3547  0.9468  0.3322
  851MOL0     C14778   2.360   3.716   3.735  0.3276  0.1491 -0.0108
  851MOL0     C14779   2.228   3.764   3.694  0.7579 -0.7797  0.0061
  851MOL0     O14780   2.230   3.842   3.572  0.1020  0.4732 -0.3459
  851MOL0     C14781   2.130   3.930   3.544 -0.0167  0.6366  0.6409
  851MOL0     C14782   2.063   3.913   3.421  0.1912 -0.3291 -0.5309
  851MOL0     C14783   1.956   3.991   3.393 -0.3754 -0.2347 -0.3220
  851MOL0     C14784   1.916   4.082   3.489  0.2711  0.4796  0.3985
  851MOL0     O14785   1.798   4.143   3.463  0.0718  0.1841  1.0374
  851MOL0     C14786   1.763   4.272   3.522  0.6873  0.8868  0.2049
  851MOL0     C14787   1.630   4.327   3.460 -0.4943 -0.1171  0.1057
  851MOL0     C14788   1.633   4.329   3.306 -0.3688  0.2459  0.5771
  851MOL0     C14789   1.487   4.370   3.267 -0.1401 -0.5105  0.3546
  851MOL0     C14790   1.467   4.388   3.118  0.6219 -0.0964  0.4872
  851MOL0     C14791   1.326   4.348   3.074  0.4132  0.3190 -0.0770
  851MOL0     C14792   1.223   4.454   3.124 -0.1361 -0.2225 -0.3836
  851MOL0     C14793   1.075   4.404   3.102 -0.3427  0.1723 -0.0894
  851MOL0    Cl14794   1.026   4.384   2.928  0.3271 -0.3614 -0.0064
  851MOL0     C14795   1.989   4.106   3.604 -0.3617  0.8414 -0.3089
  851MOL0     C14796   2.096   4.026   3.633 -0.1495  0.1297 -0.9121
  851MOL0     O14797   2.123   3.735   3.760  0.2793  0.5731 -0.8983
  851MOL0     C14798   2.376   3.633   3.848 -0.1249 -0.1715  0.0301
  851MOL0     C14799   2.502   3.586   3.890  0.7164 -0.5184  0.3597
  851MOL0     N14800   2.848   3.253   3.733  0.1629  0.5675  0.2074
  851MOL0     N14801   2.749   3.178   3.758 -0.3431 -0.0300  1.1374
  851MOL0     C14802   1.634   3.309   3.745 -0.1486  0.3260  0.0883
  851MOL0     C14803   1.510   3.270   3.694  0.4741  0.1684 -1.1165
  851MOL0     C14804   1.141   3.121   3.483  0.0937 -0.3819 -0.4518
  851MOL0     C14805   1.169   3.018   3.393  0.1153 -0.6384  0.3763
  851MOL0     C14806   1.071   2.971   3.311 -0.8585 -0.3012 -0.3069
  851MOL0     C14807   0.944   3.018   3.315 -0.7293  0.0639 -0.0533
  851MOL0     O14808   0.839   2.966   3.240  0.2721  0.5186  0.1889
  851MOL0     C14809   0.857   2.842   3.166  0.5015  0.3744  0.5018
  851MOL0     C14810   0.898   2.866   3.024 -1.2902  0.4983 -1.1734
  851MOL0     C14811   0.806   2.946   2.935 -0.2041  0.0162 -0.6068
  851MOL0     C14812   0.861   2.961   2.792 -0.4191  0.7050  0.9679
  851MOL0     C14813   0.774   3.041   2.703 -0.0677 -0.3223 -0.8834
  851MOL0     C14814   0.699   3.095   2.626  0.3228  0.0298 -0.2272
  851MOL0     C14815   0.913   3.111   3.412  0.1856  0.8157  0.5532
  851MOL0     C14816   1.009   3.162   3.500  1.3728  0.1198  0.3941
  851MOL0     C14817   0.962   3.252   3.614  0.6268  0.1138  0.3426
  851MOL0     H14818   1.608   3.057   3.453 -2.0937 -0.1142 -0.1582
  851MOL0     H14819   1.827   3.125   3.534 -1.5662  1.5547 -4.8802
  851MOL0     H14820   1.845   3.413   3.893  0.8877 -0.3476  1.1154
  851MOL0     H14821   1.886   3.247   3.936 -0.8847  1.1082  1.5554
  851MOL0     H14822   2.056   3.427   3.970 -0.0854  0.4130 -0.4668
  851MOL0     H14823   2.083   3.451   3.805 -0.1103  0.7695  0.4011
  851MOL0     H14824   2.147   3.205   3.774  2.9051 -0.3132 -0.3155
  851MOL0     H14825   2.111   3.168   3.939  4.3893 -0.8487  0.1001
  851MOL0     H14826   2.335   3.339   3.851 -0.1013  0.6395  0.9243
  851MOL0     H14827   2.278   3.319   4.015  1.0354 -2.2303  0.9360
  851MOL0     H14828   2.309   3.058   3.977 -2.5861  0.7845 -1.2382
  851MOL0     H14829   2.405   3.113   3.837 -1.2389 -2.1082  0.1977
  851MOL0     H14830   2.533   3.272   3.976  1.6114  0.0606  1.3267
  851MOL0     H14831   2.444   3.229   4.111  4.0510  0.7724  0.6438
  851MOL0     H14832   2.519   2.989   4.099 -1.2316  0.5584  0.2458
  851MOL0     H14833   2.635   3.122   4.145  0.1252  0.3010  0.3633
  851MOL0     H14834   2.733   2.958   3.965 -2.3933 -2.0507 -3.0797
  851MOL0     H14835   2.603   3.013   3.862 -0.6932 -0.9168  0.1721
  851MOL0     H14836   2.845   3.240   4.063 -1.2679 -1.9120 -0.2128
  851MOL0     H14837   3.101   3.363   3.823  0.2885 -2.6756  1.4938
  851MOL0     H14838   2.973   3.479   3.777  1.2083 -0.3783  0.3434
  851MOL0     H14839   3.019   3.396   4.060  1.0033 -2.9685 -1.2969
  851MOL0     H14840   3.117   3.529   3.978 -0.1810 -0.5156 -3.3585
  851MOL0     H14841   2.956   3.683   3.987 -1.0549  0.3512 -0.2162
  851MOL0     H14842   2.927   3.593   4.140  0.5037 -3.8127 -0.5493
  851MOL0     H14843   2.730   3.645   4.059  0.4760  0.1332  2.6373
  851MOL0     H14844   2.736   3.468   4.035  0.3278  0.7795  0.3467
  851MOL0     H14845   2.690   3.737   3.647  0.9312  0.0607 -0.0111
  851MOL0     H14846   2.467   3.819   3.584  1.2970 -0.8485 -1.1922
  851MOL0     H14847   2.086   3.837   3.346 -0.5104 -3.6664  2.3960
  851MOL0     H14848   1.902   3.990   3.299  3.0787  1.6199 -2.5291
  851MOL0     H14849   1.755   4.259   3.630  0.3393  2.3134  0.3712
  851MOL0     H14850   1.843   4.343   3.501  1.3455 -0.5164 -2.5408
  851MOL0     H14851   1.547   4.260   3.487 -0.2881 -1.3474 -2.1114
  851MOL0     H14852   1.618   4.431   3.493  0.4945  0.6596 -1.8433
  851MOL0     H14853   1.702   4.399   3.260 -0.9230  0.7325  0.4761
  851MOL0     H14854   1.664   4.231   3.267  1.3669  0.1834  1.9948
  851MOL0     H14855   1.471   4.466   3.316  3.4147 -0.3411  1.4685
  851MOL0     H14856   1.418   4.292   3.303 -3.8390  2.2983 -0.0838
  851MOL0     H14857   1.534   4.318   3.067  0.3937 -1.2196  1.6704
  851MOL0     H14858   1.478   4.490   3.082 -1.0054  1.0529  2.9185
  851MOL0     H14859   1.318   4.338   2.965  0.6691 -2.2608  0.0844
  851MOL0     H14860   1.297   4.248   3.108  0.3329 -0.2022 -1.6286
  851MOL0     H14861   1.235   4.543   3.062  0.2464  0.4750  0.6702
  851MOL0     H14862   1.239   4.472   3.230  0.7428 -1.1687 -0.3503
  851MOL0     H14863   1.053   4.311   3.155  0.2977  0.2703  0.3604
  851MOL0     H14864   1.003   4.481   3.135  0.6175 -0.0849  2.9431
  851MOL0     H14865   1.964   4.188   3.670 -1.2209  0.5268 -0.2363
  851MOL0     H14866   2.148   4.033   3.727  0.6414  0.5145 -1.3700
  851MOL0     H14867   2.287   3.611   3.905 -1.6329  2.9099 -0.9282
  851MOL0     H14868   2.507   3.527   3.981 -1.8273  2.6573  2.7859
  851MOL0     H14869   1.637   3.374   3.832  3.8576  1.1498 -0.4870
  851MOL0     H14870   1.424   3.315   3.743 -1.3549 -0.3348 -3.6572
  851MOL0     H14871   1.274   3.006   3.371  0.1381  1.5430 -1.1001
  851MOL0     H14872   1.118   2.900   3.245  3.3598  0.5097  1.4515
  851MOL0     H14873   0.762   2.788   3.168 -0.4631  1.9943  0.4960
  851MOL0     H14874   0.933   2.777   3.210  1.4278  0.2741 -1.1833
  851MOL0     H14875   0.914   2.769   2.975  3.6747  0.6323 -0.3047
  851MOL0     H14876   1.001   2.901   3.033 -1.4173  0.6146 -0.0425
  851MOL0     H14877   0.786   3.047   2.970 -1.0966 -0.9805  1.9804
  851MOL0     H14878   0.715   2.886   2.943 -0.2602 -0.0744 -1.7040
  851MOL0     H14879   0.954   3.019   2.796 -0.1838  0.3156  1.2938
  851MOL0     H14880   0.878   2.864   2.745 -0.9674  0.5464  1.0939
  851MOL0     H14881   0.630   3.145   2.560 -0.5987  1.2834  1.6141
  851MOL0     H14882   0.805   3.119   3.416  0.0791 -0.3852  0.2483
  851MOL0     H14883   0.854   3.264   3.605  0.6471  1.1149  1.1898
  851MOL0     H14884   0.991   3.230   3.717  0.1063  1.1315  0.7220
  851MOL0     H14885   1.007   3.350   3.598 -0.3292  0.2386 -2.0288
  852MOL0     O14886   8.688   4.507   0.756 -0.9969  0.6538  0.1991
  852MOL0     C14887   8.666   4.623   0.727 -0.2457 -0.6753  0.3684
  852MOL0     O14888   8.767   4.718   0.707  0.4069  0.1415 -0.0969
  852MOL0     C14889   8.900   4.692   0.703  0.0017 -0.4060 -0.2740
  852MOL0     C14890   8.976   4.734   0.816  0.1611  1.3006  0.3753
  852MOL0     C14891   9.112   4.725   0.802  0.0561  1.0641 -0.3329
  852MOL0     C14892   9.174   4.672   0.689  0.2168  0.3509 -0.7653
  852MOL0     O14893   9.308   4.664   0.692 -0.3353  0.0528  0.1789
  852MOL0     C14894   9.369   4.568   0.608  0.0560 -0.0803  0.2202
  852MOL0     C14895   9.328   4.422   0.642  0.8709 -0.7912  0.1458
  852MOL0     C14896   9.412   4.355   0.747 -0.3465 -0.2608 -0.9036
  852MOL0     C14897   9.373   4.199   0.752 -0.2909  0.0424  0.0155
  852MOL0     C14898   9.454   4.127   0.863  0.5634 -0.5366  0.7608
  852MOL0     C14899   9.446   3.973   0.866  0.0944 -0.6006  0.8099
  852MOL0     C14900   9.542   3.897   0.958  0.1733  0.3248 -0.1109
  852MOL0     C14901   9.516   3.920   1.104  1.2351  0.4606 -0.8292
  852MOL0     N14902   9.597   3.847   1.203 -0.0820 -0.3827  0.5256
  852MOL0     C14903   9.605   3.710   1.213 -0.2646  0.2080 -0.4184
  852MOL0     C14904   9.665   3.689   1.333  0.3449 -0.0592 -0.1400
  852MOL0     C14905   9.719   3.555   1.388  0.0868  0.0048 -0.1027
  852MOL0     C14906   9.857   3.513   1.322  0.1068  0.3093  0.2338
  852MOL0     C14907   9.959   3.630   1.314  1.2712 -0.0997 -0.1862
  852MOL0     C14908  10.087   3.581   1.263 -0.5662 -0.0518 -0.3016
  852MOL0     O14909  10.176   3.697   1.269 -0.4955  0.6453 -0.4525
  852MOL0     C14910  10.310   3.673   1.254 -1.3428  0.5077 -0.3201
  852MOL0     C14911  10.394   3.775   1.300  0.4285  0.9740 -0.4260
  852MOL0     C14912  10.532   3.766   1.289  0.6536 -0.9054 -0.6442
  852MOL0     C14913  10.599   3.645   1.257 -0.9078 -0.4260  0.5196
  852MOL0     C14914  10.743   3.628   1.255 -0.4440 -0.5518 -0.6348
  852MOL0     O14915  10.814   3.747   1.259 -0.1010 -0.0824  0.1478
  852MOL0     C14916  10.946   3.736   1.229 -0.2907  0.7037  0.8597
  852MOL0     C14917  10.984   3.736   1.096 -1.2896  0.1965  0.5090
  852MOL0     C14918  11.116   3.717   1.054  0.2226  0.1812 -0.0489
  852MOL0     C14919  11.214   3.684   1.144  0.5423 -0.7089 -0.3254
  852MOL0     O14920  11.342   3.656   1.115  0.2037  0.1176 -0.2764
  852MOL0     C14921  11.379   3.656   0.972  0.6614  0.3858  0.0734
  852MOL0     C14922  11.523   3.591   0.963  0.3960  0.3596  0.2036
  852MOL0     C14923  11.622   3.674   1.043 -0.2670  1.0400 -0.2479
  852MOL0     C14924  11.757   3.607   1.046 -0.3442 -0.0723 -0.9502
  852MOL0     C14925  11.861   3.708   0.982 -0.3424  0.0078  0.1046
  852MOL0     C14926  11.992   3.640   0.949  0.1309  0.0374 -0.1335
  852MOL0     C14927  12.100   3.743   0.909 -0.4025  0.1503  0.9326
  852MOL0     C14928  12.100   3.780   0.758  0.0678  0.1358 -0.3655
  852MOL0    Cl14929  12.068   3.638   0.644  0.0908 -0.1840  0.4924
  852MOL0     C14930  11.175   3.672   1.281 -0.4976  0.5053  0.1594
  852MOL0     C14931  11.047   3.707   1.323 -0.2574  0.4896  0.5858
  852MOL0     O14932  10.791   3.517   1.254 -1.0494 -0.1377 -0.5396
  852MOL0     C14933  10.517   3.543   1.216  0.4111  0.2464 -0.2674
  852MOL0     C14934  10.375   3.557   1.220 -0.1068 -0.1350 -0.4298
  852MOL0     N14935   9.689   3.811   1.397  0.0814 -0.5465 -0.0378
  852MOL0     N14936   9.659   3.905   1.307  0.0715  0.2460  0.5970
  852MOL0     C14937   9.100   4.637   0.577 -0.3662  0.2029 -0.8462
  852MOL0     C14938   8.961   4.649   0.583 -0.6074  0.1914  0.4087
  852MOL0     C14939   8.531   4.669   0.731 -0.2688  0.0535 -0.2389
  852MOL0     C14940   8.436   4.609   0.825 -0.1295  0.4442  0.5788
  852MOL0     C14941   8.301   4.641   0.829  0.6283  0.6144  0.3580
  852MOL0     C14942   8.247   4.736   0.741  0.7034 -0.6536 -0.1557
  852MOL0     O14943   8.113   4.766   0.759 -0.5751 -0.4169 -0.0864
  852MOL0     C14944   8.049   4.838   0.655 -0.0575  0.5286  0.3103
  852MOL0     C14945   7.900   4.815   0.678 -0.8170  0.1726 -0.0894
  852MOL0     C14946   7.803   4.891   0.584  0.5886  0.1650  0.0491
  852MOL0     C14947   7.665   4.882   0.645 -0.3720  0.8688  0.7486
  852MOL0     C14948   7.620   4.741   0.670 -0.6711  0.6131 -0.1047
  852MOL0     C14949   7.581   4.626   0.676 -0.9933  0.1307 -0.8782
  852MOL0     C14950   8.339   4.790   0.640  0.0675 -0.3194 -0.3892
  852MOL0     C14951   8.475   4.760   0.642  0.0191  0.5277  0.7445
  852MOL0     C14952   8.544   4.823   0.523 -0.0633  0.3572  0.8633
  852MOL0     H14953   8.925   4.779   0.901 -0.4475  1.6384 -0.1576
  852MOL0     H14954   9.182   4.764   0.875  1.6941  0.0539 -1.3167
  852MOL0     H14955   9.339   4.591   0.505 -2.6128  1.1092  1.1774
  852MOL0     H14956   9.478   4.576   0.621  0.1288  1.0972 -0.9190
  852MOL0     H14957   9.328   4.353   0.557  2.0790 -1.0388  0.3237
  852MOL0     H14958   9.229   4.425   0.688  0.2213  1.5592 -1.2361
  852MOL0     H14959   9.389   4.410   0.839  2.6803  2.1014 -1.3976
  852MOL0     H14960   9.521   4.362   0.736 -0.2007 -0.2705  0.3018
  852MOL0     H14961   9.266   4.190   0.768 -0.2794 -1.4209 -0.4912
  852MOL0     H14962   9.388   4.146   0.657  1.2756  2.6548 -1.3161
  852MOL0     H14963   9.558   4.160   0.862  0.0925  1.0456 -0.4224
  852MOL0     H14964   9.401   4.164   0.951 -0.7443 -2.1302  0.6943
  852MOL0     H14965   9.348   3.931   0.888  0.3648 -1.3340  0.6479
  852MOL0     H14966   9.464   3.946   0.761 -0.0603 -0.1480  0.6626
  852MOL0     H14967   9.641   3.943   0.952  0.0659  0.7231  0.9445
  852MOL0     H14968   9.548   3.791   0.934  1.1630 -0.0684  1.7504
  852MOL0     H14969   9.533   4.028   1.112  0.1791  0.5583  0.4155
  852MOL0     H14970   9.413   3.905   1.136  2.0182  0.5245  2.0065
  852MOL0     H14971   9.585   3.630   1.142 -1.5809 -0.5655  0.7647
  852MOL0     H14972   9.717   3.567   1.497  0.5921 -1.3826  0.0798
  852MOL0     H14973   9.641   3.481   1.367 -0.5848  0.1367  1.6861
  852MOL0     H14974   9.903   3.442   1.391  1.6747  0.0833 -0.9991
  852MOL0     H14975   9.832   3.456   1.232  1.1544 -2.1104  1.3832
  852MOL0     H14976   9.964   3.676   1.413  3.2142 -0.8945  0.1383
  852MOL0     H14977   9.927   3.713   1.250 -0.8447  0.3808  1.4195
  852MOL0     H14978  10.085   3.556   1.157 -1.0845  1.4816 -0.6780
  852MOL0     H14979  10.117   3.500   1.330  2.9822  1.5046  0.1605
  852MOL0     H14980  10.350   3.872   1.322 -2.3661 -0.3400  0.2007
  852MOL0     H14981  10.596   3.850   1.314  0.5346 -1.0895  0.3269
  852MOL0     H14982  10.904   3.757   1.026 -2.0915 -1.5742  0.8563
  852MOL0     H14983  11.148   3.717   0.950  2.7040 -2.5922  0.5680
  852MOL0     H14984  11.309   3.592   0.919  0.4128  0.8875 -0.2035
  852MOL0     H14985  11.372   3.761   0.943 -1.9998  0.5903  1.1467
  852MOL0     H14986  11.524   3.490   1.003 -0.0721 -0.0250 -0.7316
  852MOL0     H14987  11.556   3.586   0.858  1.5419 -0.9671  0.6054
  852MOL0     H14988  11.622   3.775   1.001  0.1906  0.5381 -1.4998
  852MOL0     H14989  11.587   3.672   1.147  2.3683 -2.9032  0.7605
  852MOL0     H14990  11.747   3.516   0.986 -1.5578 -0.1770 -0.6124
  852MOL0     H14991  11.795   3.589   1.147 -0.6180  0.3691 -0.7659
  852MOL0     H14992  11.877   3.787   1.055  1.5104  0.3969 -0.6708
  852MOL0     H14993  11.814   3.763   0.899 -0.9973  0.7290  0.9326
  852MOL0     H14994  12.036   3.592   1.037  0.0582  1.2111  0.5731
  852MOL0     H14995  11.971   3.562   0.875 -0.2490  0.0645 -0.0568
  852MOL0     H14996  12.203   3.709   0.925  1.0777  2.4085 -2.6779
  852MOL0     H14997  12.073   3.833   0.964 -0.6328  2.4871 -2.6753
  852MOL0     H14998  12.020   3.854   0.749 -1.0425 -0.7699  1.6325
  852MOL0     H14999  12.196   3.820   0.722  0.2022  2.2234  2.0859
  852MOL0     H15000  11.253   3.636   1.347 -1.3706 -1.6587  0.0924
  852MOL0     H15001  11.023   3.704   1.429  0.5882  0.8477  0.8030
  852MOL0     H15002  10.553   3.448   1.177  0.5456  0.1068  0.1822
  852MOL0     H15003  10.307   3.481   1.184 -1.7858  1.4979 -0.8218
  852MOL0     H15004   9.141   4.606   0.482  2.9003 -1.2612  0.8903
  852MOL0     H15005   8.908   4.632   0.490  0.1420 -1.9189  0.3313
  852MOL0     H15006   8.484   4.540   0.894  2.3109  0.5831 -0.8574
  852MOL0     H15007   8.230   4.588   0.891 -1.9313  1.6314 -1.5214
  852MOL0     H15008   8.070   4.796   0.556 -1.2962 -1.4013  0.8291
  852MOL0     H15009   8.077   4.944   0.646  1.9140 -0.1264 -4.4461
  852MOL0     H15010   7.869   4.853   0.775 -3.7675  1.4089 -1.3922
  852MOL0     H15011   7.887   4.706   0.676  5.1044 -0.8377 -0.4799
  852MOL0     H15012   7.798   4.843   0.486  1.6325  0.7217 -0.2932
  852MOL0     H15013   7.828   4.997   0.577  1.0391 -0.0058 -1.0802
  852MOL0     H15014   7.655   4.947   0.732  0.7880  2.7129 -0.4542
  852MOL0     H15015   7.596   4.925   0.572 -3.7920 -4.7583  0.0061
  852MOL0     H15016   7.549   4.524   0.682  0.6551 -0.4020 -0.6902
  852MOL0     H15017   8.307   4.848   0.554  1.2112  1.4797  0.3264
  852MOL0     H15018   8.558   4.928   0.552 -0.5117  0.1308  1.9550
  852MOL0     H15019   8.642   4.781   0.500  0.1589  0.2882  1.8925
  852MOL0     H15020   8.484   4.817   0.431  0.4389  3.2925  0.2329
  853MOL0     O15021  10.928   7.814   7.345 -0.6930 -0.1645  0.2837
  853MOL0     C15022  10.903   7.737   7.255 -0.4648 -0.1976  0.4580
  853MOL0     O15023  10.982   7.711   7.150 -0.4363 -0.5738 -0.2735
  853MOL0     C15024  11.102   7.785   7.151 -0.0998  0.4430 -0.0422
  853MOL0     C15025  11.209   7.731   7.228 -0.1405  0.0296  1.2273
  853MOL0     C15026  11.339   7.795   7.222  0.5693  1.0472 -0.5006
  853MOL0     C15027  11.351   7.909   7.143 -0.9783 -0.2698 -0.3168
  853MOL0     O15028  11.476   7.961   7.151  0.0370 -0.8167 -0.3270
  853MOL0     C15029  11.488   8.104   7.128  0.2403 -1.1518 -0.2548
  853MOL0     C15030  11.620   8.160   7.173 -0.0848  0.4364 -0.0566
  853MOL0     C15031  11.658   8.122   7.311 -0.8734 -0.2204  0.3954
  853MOL0     C15032  11.734   7.992   7.318 -0.0222 -0.4501 -0.6837
  853MOL0     C15033  11.729   7.920   7.450  0.0828 -0.0749 -0.5705
  853MOL0     C15034  11.771   7.768   7.425  0.5958 -0.2796 -0.5831
  853MOL0     C15035  11.763   7.707   7.564  0.4957 -0.0712 -0.3781
  853MOL0     C15036  11.803   7.557   7.563 -0.1439 -0.2040  0.2832
  853MOL0     N15037  11.947   7.539   7.554 -0.1145  0.2102  0.0184
  853MOL0     C15038  12.015   7.518   7.668  0.5591 -0.2606  0.1885
  853MOL0     C15039  12.140   7.501   7.620 -0.4512  1.5006 -0.1931
  853MOL0     C15040  12.270   7.450   7.680 -0.2431  0.3133  0.2738
  853MOL0     C15041  12.268   7.300   7.728 -0.3858  0.3851  0.6426
  853MOL0     C15042  12.235   7.192   7.611 -0.7238 -1.0141  0.4075
  853MOL0     C15043  12.350   7.185   7.504 -0.0349  0.1205 -0.9067
  853MOL0     O15044  12.471   7.134   7.573  0.3387  0.4755  0.4609
  853MOL0     C15045  12.581   7.113   7.495  0.7343  0.6258 -0.7939
  853MOL0     C15046  12.588   7.144   7.358 -0.8361  0.7357 -0.2247
  853MOL0     C15047  12.711   7.114   7.292  0.0882  0.5065  0.3142
  853MOL0     C15048  12.823   7.064   7.355  0.8917  0.1971  0.3173
  853MOL0     C15049  12.966   7.054   7.295  0.5428  0.9149  0.7655
  853MOL0     O15050  13.059   6.975   7.362 -0.5303  0.0188  0.0427
  853MOL0     C15051  13.191   6.983   7.316  0.1451 -0.0133 -0.0670
  853MOL0     C15052  13.296   7.027   7.402  0.1950 -0.2762  0.5699
  853MOL0     C15053  13.431   7.008   7.367  0.9034 -0.3285 -0.2571
  853MOL0     C15054  13.466   6.953   7.248 -0.0037  0.2400  0.5657
  853MOL0     O15055  13.598   6.938   7.202 -0.5256  0.1797  0.1116
  853MOL0     C15056  13.688   7.043   7.230 -0.1678  0.0777  0.5981
  853MOL0     C15057  13.819   7.005   7.169 -0.5908  0.4569 -0.1347
  853MOL0     C15058  13.939   7.095   7.221 -0.0448 -1.0279  0.0437
  853MOL0     C15059  14.067   7.074   7.140 -0.7379 -0.9627  0.2617
  853MOL0     C15060  14.164   7.198   7.136  0.5031  0.1914 -0.0553
  853MOL0     C15061  14.236   7.226   7.272  0.1845 -0.3165 -0.5527
  853MOL0     C15062  14.351   7.331   7.235 -0.2533  0.7268  0.0151
  853MOL0     C15063  14.449   7.352   7.357 -0.2809  0.5260 -0.0186
  853MOL0    Cl15064  14.583   7.460   7.305 -0.2110  0.4283 -0.3254
  853MOL0     C15065  13.364   6.918   7.157 -0.7472  1.2685 -0.4356
  853MOL0     C15066  13.228   6.929   7.190  0.3289 -0.5903  0.2239
  853MOL0     O15067  12.991   7.127   7.199 -0.1714  0.0331  0.2243
  853MOL0     C15068  12.806   7.048   7.488 -1.3943  0.7238 -0.3197
  853MOL0     C15069  12.692   7.076   7.556  0.0038 -0.0208 -0.0209
  853MOL0     N15070  12.152   7.521   7.483 -0.1229 -0.0117  1.0545
  853MOL0     N15071  12.032   7.565   7.448 -0.2933 -0.1360 -0.6453
  853MOL0     C15072  11.242   7.950   7.048 -0.4686  0.2094 -0.4414
  853MOL0     C15073  11.121   7.878   7.049  0.5632 -0.0036 -0.3259
  853MOL0     C15074  10.772   7.669   7.264  0.6468  0.3602  0.3147
  853MOL0     C15075  10.722   7.624   7.142  0.3254 -0.1188  0.2485
  853MOL0     C15076  10.597   7.564   7.135 -0.9493  0.1854 -0.1439
  853MOL0     C15077  10.519   7.542   7.242  0.3930 -0.8985  0.2883
  853MOL0     O15078  10.392   7.497   7.238 -0.7291 -0.0625  0.4967
  853MOL0     C15079  10.319   7.449   7.121  0.0875  0.1568 -0.1108
  853MOL0     C15080  10.190   7.529   7.121 -0.1975 -0.1643 -0.3706
  853MOL0     C15081  10.213   7.683   7.112  0.0817  0.2144 -0.2232
  853MOL0     C15082  10.091   7.760   7.140  0.2318 -0.3852 -0.0754
  853MOL0     C15083  10.015   7.724   7.259  0.7286 -0.2857 -0.3025
  853MOL0     C15084   9.940   7.692   7.350  0.5551 -0.5059  0.1476
  853MOL0     C15085  10.568   7.573   7.370 -0.2487 -0.2826 -0.8873
  853MOL0     C15086  10.695   7.641   7.381 -0.7466 -0.4022 -0.8075
  853MOL0     C15087  10.745   7.669   7.525 -0.3172  0.8248  0.1181
  853MOL0     H15088  11.191   7.639   7.281 -2.9926  0.0751  0.5376
  853MOL0     H15089  11.424   7.756   7.277 -0.5096 -0.7290 -0.0320
  853MOL0     H15090  11.471   8.134   7.024 -1.8080  0.0537  0.3545
  853MOL0     H15091  11.413   8.147   7.196  0.1566 -0.8992 -0.5040
  853MOL0     H15092  11.604   8.268   7.174 -0.3220  0.4028 -0.1706
  853MOL0     H15093  11.703   8.134   7.107 -0.6614  2.4645 -1.6983
  853MOL0     H15094  11.568   8.112   7.372 -2.7780  3.4962 -1.4466
  853MOL0     H15095  11.712   8.208   7.354  1.6708 -0.4587 -2.0505
  853MOL0     H15096  11.701   7.924   7.238  0.8608 -0.3483 -1.1471
  853MOL0     H15097  11.836   8.025   7.298  0.8807 -1.3769  1.9430
  853MOL0     H15098  11.796   7.972   7.520  0.0263 -0.2019 -0.4233
  853MOL0     H15099  11.626   7.923   7.487  0.8835 -0.1969  1.8460
  853MOL0     H15100  11.698   7.728   7.353  1.4486  1.8142 -2.7453
  853MOL0     H15101  11.872   7.753   7.386  1.5997  3.4539  0.2389
  853MOL0     H15102  11.668   7.719   7.618  0.3685  1.3657 -0.8712
  853MOL0     H15103  11.838   7.759   7.625 -0.1232  0.4701 -0.0597
  853MOL0     H15104  11.770   7.500   7.650 -1.3216 -2.7111 -1.6887
  853MOL0     H15105  11.760   7.517   7.471 -0.9076  0.6930  0.2378
  853MOL0     H15106  11.976   7.490   7.765 -2.6833  1.7148 -0.3739
  853MOL0     H15107  12.356   7.473   7.617  1.3112  0.5407  2.3652
  853MOL0     H15108  12.286   7.514   7.768 -1.7210  1.1394 -0.0178
  853MOL0     H15109  12.360   7.270   7.777 -0.7869 -0.4507  0.9031
  853MOL0     H15110  12.184   7.297   7.798 -0.2869  2.2287  0.8838
  853MOL0     H15111  12.140   7.205   7.558  0.4408  0.9425 -1.3295
  853MOL0     H15112  12.226   7.101   7.670 -2.6218 -0.0781  1.6802
  853MOL0     H15113  12.370   7.289   7.474  0.4966  0.1265 -0.5447
  853MOL0     H15114  12.316   7.115   7.428 -2.9132 -1.3859  1.5408
  853MOL0     H15115  12.506   7.184   7.300 -1.9585 -1.4287 -0.2148
  853MOL0     H15116  12.716   7.146   7.188  2.1950  2.6675  0.9874
  853MOL0     H15117  13.263   7.058   7.501 -1.8268  0.7543 -0.3784
  853MOL0     H15118  13.500   7.050   7.440  0.7471 -1.2630  0.4593
  853MOL0     H15119  13.661   7.142   7.192  0.6892  1.1037  2.5268
  853MOL0     H15120  13.705   7.041   7.338 -1.2707 -0.1424  0.7785
  853MOL0     H15121  13.848   6.904   7.200  1.5452 -0.0346 -3.2476
  853MOL0     H15122  13.810   7.013   7.060 -0.3337  1.4601 -0.0945
  853MOL0     H15123  13.909   7.198   7.202  2.8602 -0.0908 -0.0339
  853MOL0     H15124  13.961   7.095   7.329  1.0423 -0.2363 -0.1602
  853MOL0     H15125  14.039   7.053   7.036  1.4167 -3.1204  0.0124
  853MOL0     H15126  14.119   6.986   7.179 -0.3533 -0.9834 -0.2911
  853MOL0     H15127  14.115   7.287   7.096  1.5039  0.4430 -0.7746
  853MOL0     H15128  14.243   7.170   7.066 -0.2902  0.0738 -0.9256
  853MOL0     H15129  14.169   7.277   7.341  1.4522  1.2757 -0.4440
  853MOL0     H15130  14.283   7.137   7.315 -1.4581 -0.6708  0.5909
  853MOL0     H15131  14.300   7.426   7.215 -2.5318 -0.4796 -0.1932
  853MOL0     H15132  14.402   7.291   7.147  1.3205 -0.3849  1.3701
  853MOL0     H15133  14.393   7.390   7.443 -1.5915 -2.2996  0.5150
  853MOL0     H15134  14.488   7.255   7.388  1.3628  1.4520  0.9659
  853MOL0     H15135  13.392   6.860   7.069 -1.4890  0.7146 -0.3167
  853MOL0     H15136  13.161   6.878   7.121  2.1404 -0.6969 -1.5642
  853MOL0     H15137  12.889   7.003   7.543 -0.5664  3.0675  0.4756
  853MOL0     H15138  12.683   7.054   7.662 -2.2055 -0.2871 -0.2215
  853MOL0     H15139  11.252   8.021   6.966  4.5755 -1.8944 -2.0749
  853MOL0     H15140  11.044   7.918   6.984  0.7503  3.5432  1.3791
  853MOL0     H15141  10.770   7.651   7.049  2.9849 -0.9841  1.2827
  853MOL0     H15142  10.558   7.531   7.038 -0.1434 -0.7231 -0.1745
  853MOL0     H15143  10.292   7.343   7.128 -0.4303  0.2590 -0.4979
  853MOL0     H15144  10.375   7.471   7.029  1.7757  0.5479  0.9701
  853MOL0     H15145  10.148   7.497   7.217 -0.2041 -3.7915 -1.4198
  853MOL0     H15146  10.121   7.489   7.046 -0.4677 -0.6394  0.1247
  853MOL0     H15147  10.251   7.695   7.010  2.4030  2.1854  0.7795
  853MOL0     H15148  10.292   7.722   7.176  1.5462  1.7123 -2.7664
  853MOL0     H15149  10.117   7.866   7.137 -1.1330 -0.0545 -1.5946
  853MOL0     H15150  10.029   7.760   7.050 -0.2903  1.0939  0.2564
  853MOL0     H15151   9.878   7.669   7.434 -3.0146 -1.2304 -2.4227
  853MOL0     H15152  10.502   7.561   7.455  0.6329  2.5180  0.3187
  853MOL0     H15153  10.853   7.665   7.538 -0.4400 -0.2748  0.9836
  853MOL0     H15154  10.697   7.762   7.556 -2.7500 -0.7726  1.4642
  853MOL0     H15155  10.699   7.587   7.581 -0.6722 -0.9478 -2.5891
  854MOL0     O15156   8.663   4.073  10.000  0.0732 -0.0798 -0.3906
  854MOL0     C15157   8.595   3.974   9.979  0.1986  0.2984  0.2733
  854MOL0     O15158   8.650   3.853   9.927  0.5606 -0.3915 -0.2900
  854MOL0     C15159   8.782   3.855   9.910  0.0878 -0.7966  0.1552
  854MOL0     C15160   8.872   3.857  10.020 -0.1756  0.1741 -0.3358
  854MOL0     C15161   9.007   3.859   9.989 -0.3871 -0.1842 -0.4793
  854MOL0     C15162   9.061   3.851   9.853  0.3141  0.7311  0.3159
  854MOL0     O15163   9.195   3.840   9.823 -0.1919 -0.4110  0.3942
  854MOL0     C15164   9.267   3.969   9.845  0.2746  0.5355  0.1163
  854MOL0     C15165   9.414   3.942   9.808 -0.2504  0.0419  0.1133
  854MOL0     C15166   9.514   4.059   9.837 -0.1232 -0.3295  0.2742
  854MOL0     C15167   9.645   4.049   9.754 -0.4161  0.5737  0.0435
  854MOL0     C15168   9.763   4.135   9.811  0.1795 -0.8893  0.4719
  854MOL0     C15169   9.891   4.152   9.728 -0.3127 -0.2679 -0.1648
  854MOL0     C15170  10.007   4.063   9.764 -0.8198 -0.4536  0.9194
  854MOL0     C15171  10.110   4.059   9.652  0.7147 -0.4337 -0.4042
  854MOL0     N15172  10.237   4.006   9.696  0.0942  0.6481  0.4300
  854MOL0     C15173  10.263   3.919   9.796 -0.1230  0.5788  0.0407
  854MOL0     C15174  10.387   3.865   9.767  0.1455 -0.6988 -0.0423
  854MOL0     C15175  10.453   3.755   9.847 -0.1832  0.4184 -0.1089
  854MOL0     C15176  10.582   3.713   9.771 -0.0571  0.2396 -0.1093
  854MOL0     C15177  10.667   3.606   9.842 -0.3718 -0.0616  0.2994
  854MOL0     C15178  10.816   3.615   9.804 -0.2973  0.1577  0.2119
  854MOL0     O15179  10.823   3.530   9.681  0.5536  0.1987 -0.0175
  854MOL0     C15180  10.952   3.501   9.636  0.9582 -0.1066  0.0996
  854MOL0     C15181  10.964   3.440   9.506  0.8170 -0.3116 -1.0755
  854MOL0     C15182  11.083   3.393   9.456 -0.0422  0.2952 -0.6926
  854MOL0     C15183  11.196   3.395   9.538  0.3434 -0.4709 -0.4923
  854MOL0     C15184  11.328   3.328   9.483  0.5741  0.2867 -0.5953
  854MOL0     O15185  11.345   3.313   9.351  0.0247  0.0306  0.4926
  854MOL0     C15186  11.459   3.249   9.322 -0.5465 -0.8600 -0.6130
  854MOL0     C15187  11.458   3.118   9.274  0.3754 -0.3928 -0.0016
  854MOL0     C15188  11.582   3.069   9.246 -0.4986  0.9817 -0.0060
  854MOL0     C15189  11.713   3.117   9.281  0.2522  0.2829 -0.3109
  854MOL0     O15190  11.833   3.053   9.250  0.1329  0.0101  0.3500
  854MOL0     C15191  11.850   3.007   9.113 -0.5776  0.1766  0.0276
  854MOL0     C15192  11.996   3.018   9.071 -0.2795 -0.0332 -0.1121
  854MOL0     C15193  12.019   2.961   8.928 -1.1090 -0.4523 -0.0264
  854MOL0     C15194  12.156   3.017   8.875 -0.0859  0.2068 -1.1077
  854MOL0     C15195  12.173   3.012   8.724  0.1698 -1.1217  0.0263
  854MOL0     C15196  12.308   3.053   8.678  0.2235  0.3455 -0.2019
  854MOL0     C15197  12.368   3.171   8.751 -0.2786  0.4409 -0.4066
  854MOL0     C15198  12.505   3.213   8.691  0.7471 -0.1147 -0.7726
  854MOL0    Cl15199  12.565   3.348   8.779 -0.1096  0.2206  0.3825
  854MOL0     C15200  11.701   3.245   9.344 -0.0423 -0.1325  0.5413
  854MOL0     C15201  11.581   3.319   9.357 -0.2354  0.1348  0.1681
  854MOL0     O15202  11.407   3.291   9.570  0.7574  0.2271 -0.3394
  854MOL0     C15203  11.194   3.473   9.656 -0.1371  0.7144  0.2713
  854MOL0     C15204  11.074   3.526   9.699 -0.1365 -0.4996 -0.6430
  854MOL0     N15205  10.444   3.934   9.662  0.4613 -0.8569  0.6851
  854MOL0     N15206  10.355   4.021   9.626  0.2372  0.6150 -0.7953
  854MOL0     C15207   8.968   3.845   9.752 -0.8487 -0.0818 -0.0456
  854MOL0     C15208   8.829   3.850   9.778  0.5794  0.2899 -0.3940
  854MOL0     C15209   8.442   3.963  10.009  0.5832  0.8090  0.8495
  854MOL0     C15210   8.370   3.857   9.945  0.2272  0.8928  0.0127
  854MOL0     C15211   8.237   3.851   9.966  0.1998 -0.5372  0.0423
  854MOL0     C15212   8.166   3.942  10.049  0.1937 -0.6144 -0.0189
  854MOL0     O15213   8.025   3.928  10.057 -0.4908  0.0788  0.3580
  854MOL0     C15214   7.955   3.999  10.156 -0.0051  0.6780 -0.0699
  854MOL0     C15215   7.803   3.981  10.138  0.3849  1.0282  0.4036
  854MOL0     C15216   7.764   3.836  10.151  0.3421 -0.1194 -0.4192
  854MOL0     C15217   7.613   3.806  10.165 -0.0710 -0.5863 -0.4115
  854MOL0     C15218   7.536   3.865  10.052  0.3545  0.1328 -0.1645
  854MOL0     C15219   7.473   3.895   9.956 -0.5956  0.4780 -0.0881
  854MOL0     C15220   8.243   4.030  10.126 -0.0829 -0.2106  0.0461
  854MOL0     C15221   8.381   4.052  10.100  0.2257 -0.7198  0.4673
  854MOL0     C15222   8.460   4.156  10.170 -1.1716 -0.5215 -0.7538
  854MOL0     H15223   8.811   3.877  10.107 -1.5858 -1.5307 -0.8895
  854MOL0     H15224   9.069   3.882  10.075 -1.5268  2.3768 -0.2406
  854MOL0     H15225   9.224   4.040   9.774  2.6256  0.5114 -1.4555
  854MOL0     H15226   9.276   4.018   9.942  1.8242  3.7619 -1.4853
  854MOL0     H15227   9.415   3.914   9.703 -0.9973  0.6051 -0.0549
  854MOL0     H15228   9.448   3.858   9.870  0.3848  1.4569  1.7734
  854MOL0     H15229   9.550   4.062   9.940 -3.1233 -1.0543  1.4457
  854MOL0     H15230   9.458   4.153   9.829 -0.0710 -0.2986  0.2682
  854MOL0     H15231   9.680   3.945   9.759  1.4001  1.2093  2.1907
  854MOL0     H15232   9.614   4.084   9.655 -0.2446 -0.8816 -0.5483
  854MOL0     H15233   9.736   4.238   9.836  0.5451 -0.2580 -1.5200
  854MOL0     H15234   9.796   4.091   9.905  0.6281 -1.4855  0.0444
  854MOL0     H15235   9.872   4.141   9.620 -0.6048 -0.8198 -0.0618
  854MOL0     H15236   9.919   4.256   9.748  0.0772 -0.3369 -0.3374
  854MOL0     H15237   9.966   3.962   9.775 -0.7070 -0.3773  2.1314
  854MOL0     H15238  10.057   4.084   9.859  2.3806 -0.8778 -0.5469
  854MOL0     H15239  10.073   4.005   9.564 -0.7892 -0.7979  0.4251
  854MOL0     H15240  10.124   4.159   9.609 -0.1594  0.4960  1.3744
  854MOL0     H15241  10.191   3.877   9.865 -0.6789 -1.3091 -1.5799
  854MOL0     H15242  10.485   3.789   9.945  0.6146 -0.8561  0.1084
  854MOL0     H15243  10.391   3.667   9.869  1.2947 -0.4285  0.8296
  854MOL0     H15244  10.560   3.663   9.677 -0.0497 -0.0838  0.0582
  854MOL0     H15245  10.643   3.801   9.749 -2.5534  2.8720  2.5115
  854MOL0     H15246  10.628   3.507   9.816  1.7294 -1.4324  2.0496
  854MOL0     H15247  10.656   3.613   9.951 -0.1144  0.7538  0.2781
  854MOL0     H15248  10.874   3.570   9.885 -2.7131 -2.1299  0.8127
  854MOL0     H15249  10.850   3.716   9.779  0.4229  0.1483  1.1189
  854MOL0     H15250  10.873   3.432   9.448  1.1619 -0.7724 -1.5621
  854MOL0     H15251  11.077   3.348   9.357 -0.2853 -0.4685 -0.3418
  854MOL0     H15252  11.368   3.060   9.257 -0.9215  1.3697  0.5601
  854MOL0     H15253  11.569   2.973   9.196 -0.3453  1.1876 -0.4457
  854MOL0     H15254  11.822   2.902   9.104 -3.0819  0.8938 -1.2893
  854MOL0     H15255  11.782   3.059   9.046 -2.4004 -0.3647  1.3764
  854MOL0     H15256  12.023   3.124   9.074 -2.1889  0.4670  0.8203
  854MOL0     H15257  12.064   2.963   9.138  0.3891  1.1606  0.2145
  854MOL0     H15258  12.013   2.852   8.927 -0.0528 -0.5797  2.0306
  854MOL0     H15259  11.938   2.994   8.862 -0.7991  1.0842  0.3282
  854MOL0     H15260  12.239   2.967   8.927 -1.2590 -0.5090  0.1297
  854MOL0     H15261  12.160   3.121   8.910 -2.5947  0.4191 -1.2968
  854MOL0     H15262  12.109   3.080   8.668 -0.3027 -0.2483  1.5738
  854MOL0     H15263  12.147   2.916   8.679 -2.9216  0.7634 -2.6051
  854MOL0     H15264  12.375   2.969   8.693 -0.1751  0.0249 -0.1938
  854MOL0     H15265  12.310   3.078   8.572 -0.4801 -1.4275 -0.6656
  854MOL0     H15266  12.382   3.155   8.858  0.0625 -0.1222 -0.5310
  854MOL0     H15267  12.305   3.260   8.744  1.9646  2.2350  0.8671
  854MOL0     H15268  12.577   3.130   8.694  0.0987 -0.6666  1.8937
  854MOL0     H15269  12.488   3.249   8.589 -2.7871  0.1203 -0.2230
  854MOL0     H15270  11.797   3.282   9.379 -0.3831 -0.8300  2.3090
  854MOL0     H15271  11.589   3.418   9.401 -0.3976  0.1877  0.0767
  854MOL0     H15272  11.288   3.484   9.709 -0.0048 -1.5716  0.5939
  854MOL0     H15273  11.078   3.563   9.801  2.8896 -3.4885  0.5080
  854MOL0     H15274   8.994   3.844   9.647 -2.0485 -1.4278 -0.3657
  854MOL0     H15275   8.757   3.851   9.698  0.2471 -0.5074 -0.1156
  854MOL0     H15276   8.421   3.788   9.878  0.4105 -1.5398  2.4642
  854MOL0     H15277   8.181   3.774   9.913 -1.4503  0.9525 -0.4748
  854MOL0     H15278   7.992   4.102  10.154 -0.9669  1.0316 -1.5451
  854MOL0     H15279   7.983   3.955  10.252  0.5000 -0.9049 -0.9096
  854MOL0     H15280   7.778   4.025  10.041  0.9607 -2.0609 -1.2393
  854MOL0     H15281   7.764   4.048  10.216 -0.3319  2.6359 -1.2646
  854MOL0     H15282   7.828   3.789  10.227  0.3765  1.4371  0.5501
  854MOL0     H15283   7.787   3.798  10.051  0.5689  3.8421 -2.0274
  854MOL0     H15284   7.598   3.698  10.170  2.2828 -0.9495  0.4312
  854MOL0     H15285   7.583   3.858  10.256  0.9728  1.5374 -1.2114
  854MOL0     H15286   7.423   3.936   9.871  1.1539  0.8575 -0.9785
  854MOL0     H15287   8.193   4.102  10.189  1.0991  2.7934 -2.2046
  854MOL0     H15288   8.548   4.112  10.218 -1.1478  1.9691  1.7213
  854MOL0     H15289   8.497   4.232  10.102  0.7275 -0.0864  0.6867
  854MOL0     H15290   8.397   4.199  10.248 -0.3443  1.1741 -0.9920
  855MOL0     O15291   0.954   8.874   6.355  0.0828  0.4154 -0.4134
  855MOL0     C15292   0.992   8.761   6.317 -0.4759  0.0784 -0.0718
  855MOL0     O15293   1.117   8.712   6.317 -0.5176  0.3644 -0.5018
  855MOL0     C15294   1.230   8.773   6.358  0.3051  0.7051  0.0229
  855MOL0     C15295   1.235   8.866   6.457 -0.8438  0.5787  0.6970
  855MOL0     C15296   1.362   8.936   6.482  0.2279  0.3503 -0.4036
  855MOL0     C15297   1.481   8.903   6.414 -0.4600  0.3884 -0.1600
  855MOL0     O15298   1.607   8.951   6.441  0.0754  1.0947 -0.1492
  855MOL0     C15299   1.615   9.027   6.561 -0.9595 -0.3175 -0.2232
  855MOL0     C15300   1.762   9.048   6.586  0.7830  0.3075 -0.4659
  855MOL0     C15301   1.818   8.927   6.662  0.0093  1.4481  1.1009
  855MOL0     C15302   1.967   8.937   6.665 -0.1330  1.4558 -0.8666
  855MOL0     C15303   2.036   8.871   6.788  0.3090  0.3600  0.3144
  855MOL0     C15304   2.002   8.958   6.909 -0.3903 -0.2011  0.1571
  855MOL0     C15305   2.091   8.919   7.035 -0.1448 -0.3467  1.3541
  855MOL0     C15306   2.242   8.905   7.005 -0.9942  0.2681 -0.5929
  855MOL0     N15307   2.324   8.891   7.126 -0.0843  0.4818  0.1532
  855MOL0     C15308   2.463   8.884   7.124  0.0355  0.5924 -0.3523
  855MOL0     C15309   2.495   8.863   7.251  0.8224 -0.6992  0.3755
  855MOL0     C15310   2.631   8.869   7.304  0.3694  0.0566  0.2225
  855MOL0     C15311   2.667   8.755   7.402 -0.5644 -0.0143  0.0727
  855MOL0     C15312   2.691   8.624   7.330 -0.2953 -0.7325 -0.1142
  855MOL0     C15313   2.744   8.535   7.446  1.1241 -0.3181  0.1348
  855MOL0     O15314   2.808   8.424   7.387 -0.0758  0.3620  0.0117
  855MOL0     C15315   2.906   8.357   7.455 -0.4716  0.4160 -0.3416
  855MOL0     C15316   2.952   8.375   7.583  0.2068  0.1834 -0.6961
  855MOL0     C15317   3.048   8.292   7.635  0.3467  0.1433  0.1926
  855MOL0     C15318   3.110   8.190   7.556  0.0476 -0.3326 -0.1692
  855MOL0     C15319   3.212   8.104   7.618  0.4631 -0.0885 -0.6852
  855MOL0     O15320   3.251   8.134   7.743 -0.0636 -0.1142  0.5307
  855MOL0     C15321   3.363   8.082   7.808  0.8529  0.0201  0.0933
  855MOL0     C15322   3.469   8.031   7.739  0.1582 -0.5840  0.8513
  855MOL0     C15323   3.585   7.987   7.805  0.1238  0.4396 -0.3542
  855MOL0     C15324   3.598   8.001   7.947  0.0376  0.0903  0.2688
  855MOL0     O15325   3.716   7.963   7.996 -0.1222  0.5648  0.0964
  855MOL0     C15326   3.744   8.000   8.128 -0.7925 -0.0977 -0.1933
  855MOL0     C15327   3.877   7.940   8.177 -0.2037 -0.5724 -0.9779
  855MOL0     C15328   3.867   7.784   8.161  0.3822 -0.7327 -0.0798
  855MOL0     C15329   3.984   7.707   8.218  0.2728  0.4099 -0.0380
  855MOL0     C15330   4.018   7.575   8.145  0.9235  0.2182 -0.6303
  855MOL0     C15331   3.931   7.455   8.174  0.1875 -0.5004  0.8308
  855MOL0     C15332   3.975   7.333   8.104 -0.4756 -0.4565 -1.0899
  855MOL0     C15333   3.869   7.228   8.107  0.3659 -0.1272 -0.6051
  855MOL0    Cl15334   3.916   7.106   7.985  0.2575 -0.0967  0.5029
  855MOL0     C15335   3.503   8.073   8.015  0.9628  0.4403  0.6355
  855MOL0     C15336   3.384   8.110   7.941  0.3581 -0.0145 -1.1227
  855MOL0     O15337   3.238   8.003   7.551 -0.2723 -0.0431 -0.7090
  855MOL0     C15338   3.057   8.167   7.430 -0.0950  0.4203  0.4358
  855MOL0     C15339   2.959   8.250   7.388  0.0360  0.1141 -0.0625
  855MOL0     N15340   2.371   8.849   7.325 -0.5727 -0.1542  0.0257
  855MOL0     N15341   2.271   8.861   7.249 -0.2633  0.7883 -0.9556
  855MOL0     C15342   1.473   8.804   6.326 -0.4150  0.3265  0.4704
  855MOL0     C15343   1.353   8.742   6.299 -0.2212  0.6097 -0.1192
  855MOL0     C15344   0.889   8.663   6.272  0.7266  0.1651  0.4427
  855MOL0     C15345   0.933   8.560   6.181 -0.3028 -0.5142 -0.2773
  855MOL0     C15346   0.837   8.479   6.127  0.5619  0.4144  0.9290
  855MOL0     C15347   0.696   8.487   6.150 -0.3703  0.2708 -0.2835
  855MOL0     O15348   0.616   8.416   6.059 -0.1927 -0.8160  0.1042
  855MOL0     C15349   0.472   8.441   6.044 -0.0215  0.6961 -0.2550
  855MOL0     C15350   0.457   8.571   5.960  0.0529 -0.0438  0.0010
  855MOL0     C15351   0.322   8.649   5.985  0.1054 -0.2064  0.1106
  855MOL0     C15352   0.315   8.736   5.856 -0.3326  0.9641 -0.5499
  855MOL0     C15353   0.183   8.786   5.851 -0.4809 -0.6910  0.2478
  855MOL0     C15354   0.068   8.826   5.849  0.3886  0.0965  0.7232
  855MOL0     C15355   0.650   8.579   6.246 -0.0600  0.6718 -0.0248
  855MOL0     C15356   0.744   8.665   6.311 -0.4840 -0.4081 -0.1782
  855MOL0     C15357   0.695   8.744   6.426  0.4050 -0.3504  0.1873
  855MOL0     H15358   1.146   8.882   6.517 -0.4926 -1.3577  1.8441
  855MOL0     H15359   1.358   9.012   6.560  0.4648 -1.9553  2.0108
  855MOL0     H15360   1.553   9.117   6.562 -0.9829 -0.2413  3.2958
  855MOL0     H15361   1.565   8.978   6.645  2.3629  2.2815  3.6540
  855MOL0     H15362   1.784   9.141   6.640  2.8704  0.8438 -2.0786
  855MOL0     H15363   1.808   9.064   6.488  0.6485 -2.7564 -1.1355
  855MOL0     H15364   1.791   8.836   6.609  0.0400  2.0317  0.0566
  855MOL0     H15365   1.779   8.921   6.765 -0.6149  0.5546  0.8236
  855MOL0     H15366   1.999   8.891   6.571 -2.9104 -0.5357 -0.9330
  855MOL0     H15367   1.996   9.043   6.672 -2.2471  1.9549  1.7324
  855MOL0     H15368   2.003   8.768   6.809  0.7804  0.4532  1.6368
  855MOL0     H15369   2.140   8.867   6.755  0.6399 -1.2011  1.4161
  855MOL0     H15370   2.022   9.063   6.887 -3.3294  0.6603  1.1119
  855MOL0     H15371   1.895   8.958   6.934 -1.2825  2.2158 -3.0135
  855MOL0     H15372   2.060   8.824   7.079  0.2356 -1.7097 -1.1203
  855MOL0     H15373   2.076   9.004   7.102  1.2627  2.8515 -2.0161
  855MOL0     H15374   2.263   8.816   6.944  1.2876  1.3790 -1.5539
  855MOL0     H15375   2.275   8.986   6.940  1.1474  0.9820  1.2241
  855MOL0     H15376   2.531   8.908   7.044  0.0794 -2.9476 -1.5572
  855MOL0     H15377   2.684   8.868   7.208 -1.9325  0.8962 -1.1331
  855MOL0     H15378   2.654   8.965   7.351 -0.2563  0.6037 -0.5460
  855MOL0     H15379   2.761   8.782   7.453 -1.4175  1.2579  1.0365
  855MOL0     H15380   2.581   8.734   7.465 -1.5966 -3.0726 -2.1550
  855MOL0     H15381   2.768   8.614   7.254 -1.1612 -2.0277 -0.8558
  855MOL0     H15382   2.600   8.580   7.287  0.4914 -2.3680 -0.1935
  855MOL0     H15383   2.662   8.514   7.515  1.2237 -2.0701 -0.2269
  855MOL0     H15384   2.817   8.589   7.507  0.3177 -0.3082  1.1139
  855MOL0     H15385   2.914   8.454   7.647  1.3060 -0.5691  0.9556
  855MOL0     H15386   3.076   8.307   7.739 -1.0603  1.1045  0.4726
  855MOL0     H15387   3.456   8.043   7.632 -0.5206  2.4188  1.1842
  855MOL0     H15388   3.671   7.946   7.753 -0.6220 -2.3147  0.4021
  855MOL0     H15389   3.769   8.107   8.123  0.2637 -0.2430  1.3110
  855MOL0     H15390   3.663   7.977   8.197 -1.8626 -1.2380 -1.7719
  855MOL0     H15391   3.953   7.989   8.115 -0.0033 -0.0716 -0.3315
  855MOL0     H15392   3.886   7.971   8.281  1.4973  1.2800 -1.6272
  855MOL0     H15393   3.781   7.759   8.224 -0.3812  0.7185 -0.4989
  855MOL0     H15394   3.854   7.762   8.055 -2.9936  2.1356 -0.4622
  855MOL0     H15395   3.972   7.690   8.326 -2.6741  0.1878 -0.3172
  855MOL0     H15396   4.077   7.763   8.209  1.3025 -0.9341  1.5605
  855MOL0     H15397   4.117   7.544   8.178 -0.0963  0.1417  2.8624
  855MOL0     H15398   4.024   7.595   8.038  1.3626 -0.2349 -0.6892
  855MOL0     H15399   3.919   7.443   8.282 -3.6332  0.4730  0.6866
  855MOL0     H15400   3.834   7.487   8.135  0.7563  1.8942  1.2048
  855MOL0     H15401   4.066   7.304   8.157 -0.8246  0.4150  0.0121
  855MOL0     H15402   4.002   7.350   7.999  0.5354 -1.6844 -1.0546
  855MOL0     H15403   3.857   7.188   8.208 -1.7808 -1.9295 -1.4842
  855MOL0     H15404   3.780   7.284   8.077  3.4441  5.3872 -0.8377
  855MOL0     H15405   3.504   8.099   8.120 -2.7552 -0.4468  1.0127
  855MOL0     H15406   3.306   8.167   7.992  0.4378 -1.3014  0.5125
  855MOL0     H15407   3.094   8.086   7.368  3.8792  2.8633 -0.7447
  855MOL0     H15408   2.910   8.222   7.295 -0.2863  1.9194 -0.4744
  855MOL0     H15409   1.552   8.762   6.264 -1.2209  0.8345 -0.9311
  855MOL0     H15410   1.359   8.670   6.218  2.3195 -1.1767  1.4817
  855MOL0     H15411   1.037   8.544   6.152 -0.1857 -0.7026  0.2366
  855MOL0     H15412   0.875   8.396   6.068  4.0522  0.2121  3.1986
  855MOL0     H15413   0.422   8.452   6.140  2.4076  3.0829  0.8604
  855MOL0     H15414   0.419   8.363   5.988  1.2797  0.9482 -1.9336
  855MOL0     H15415   0.477   8.547   5.855 -1.7517 -0.7522 -0.2179
  855MOL0     H15416   0.535   8.634   6.003 -0.8762  0.8231  0.4629
  855MOL0     H15417   0.322   8.712   6.075 -2.8427 -0.6893  0.5544
  855MOL0     H15418   0.236   8.582   5.996 -2.3987  1.7304 -4.6381
  855MOL0     H15419   0.399   8.806   5.859  1.0472 -0.6311 -0.3451
  855MOL0     H15420   0.335   8.673   5.769  1.2663  0.5811  0.0453
  855MOL0     H15421  -0.036   8.850   5.841  0.5730  0.2326 -3.0183
  855MOL0     H15422   0.546   8.573   6.277  0.6823 -0.8133  2.4211
  855MOL0     H15423   0.765   8.799   6.489  0.7318  0.8136 -1.1397
  855MOL0     H15424   0.621   8.816   6.391  1.9912  1.0983 -0.3134
  855MOL0     H15425   0.646   8.674   6.494  0.1418 -1.0392 -0.6887
  856MOL0     O15426   0.375   4.053   1.236 -0.2722  0.5057  0.3170
  856MOL0     C15427   0.318   4.161   1.235  0.1144  0.6249 -0.3025
  856MOL0     O15428   0.366   4.277   1.183 -0.2225 -0.3653 -0.3807
  856MOL0     C15429   0.484   4.285   1.121 -0.5912 -0.0028 -0.1807
  856MOL0     C15430   0.543   4.413   1.126 -0.2738  0.2208 -0.5332
  856MOL0     C15431   0.677   4.444   1.089  0.3783 -0.4796 -0.2789
  856MOL0     C15432   0.742   4.345   1.022 -0.4552 -0.1983  0.0910
  856MOL0     O15433   0.867   4.376   0.984 -0.5783 -0.7247  0.0414
  856MOL0     C15434   0.914   4.350   0.847  0.6726  0.5092 -0.2024
  856MOL0     C15435   1.042   4.274   0.874 -0.1089  0.0592 -0.3751
  856MOL0     C15436   1.124   4.275   0.740  0.3812  0.5001 -0.4128
  856MOL0     C15437   1.065   4.171   0.648  0.0390 -0.3632 -0.0434
  856MOL0     C15438   1.174   4.065   0.627 -0.8169  1.1883  0.0480
  856MOL0     C15439   1.206   3.978   0.754  0.5532 -0.7096 -0.6932
  856MOL0     C15440   1.314   3.872   0.743  0.9459 -0.1327  0.1166
  856MOL0     C15441   1.362   3.808   0.870  0.0839 -0.2209 -0.3175
  856MOL0     N15442   1.300   3.677   0.879  0.1999 -0.1021  0.4911
  856MOL0     C15443   1.200   3.649   0.969  0.0597 -0.1433  0.8878
  856MOL0     C15444   1.189   3.512   0.961 -0.5030  0.1035  0.4926
  856MOL0     C15445   1.099   3.424   1.030  0.3200  0.2163  0.5457
  856MOL0     C15446   0.969   3.403   0.960  0.9900  0.1742 -0.1239
  856MOL0     C15447   0.973   3.331   0.822  0.0055  0.9296 -0.2937
  856MOL0     C15448   0.838   3.297   0.769  0.0004  0.5624 -0.1757
  856MOL0     O15449   0.765   3.212   0.858  0.0045  0.0605  0.2860
  856MOL0     C15450   0.631   3.212   0.826  0.3364 -0.2490 -0.5308
  856MOL0     C15451   0.545   3.166   0.925  0.1973  0.0719 -0.0834
  856MOL0     C15452   0.405   3.174   0.917 -0.0940  0.5430 -0.6216
  856MOL0     C15453   0.341   3.237   0.804  0.8191  0.0035 -0.4770
  856MOL0     C15454   0.194   3.265   0.804  0.7939  0.4592 -0.1314
  856MOL0     O15455   0.111   3.195   0.889 -0.4927  0.1179 -0.0588
  856MOL0     C15456  -0.027   3.217   0.873 -0.2644  0.5684  0.0643
  856MOL0     C15457  -0.099   3.138   0.781  0.7246  0.5766 -0.8138
  856MOL0     C15458  -0.245   3.170   0.782 -0.1166  0.5539 -0.1261
  856MOL0     C15459  -0.312   3.260   0.877 -0.0607 -0.2802  0.7438
  856MOL0     O15460  -0.440   3.273   0.858 -0.4801 -0.1195 -0.6361
  856MOL0     C15461  -0.513   3.300   0.978 -0.5078  0.4323  0.6450
  856MOL0     C15462  -0.659   3.272   0.950  0.1242  0.4124 -0.4192
  856MOL0     C15463  -0.678   3.134   0.890  0.0610  0.1405  0.2695
  856MOL0     C15464  -0.617   3.017   0.975  0.2187  0.6759 -0.0100
  856MOL0     C15465  -0.697   2.886   0.961  0.2094  0.3009 -0.2872
  856MOL0     C15466  -0.833   2.895   1.029 -0.3066 -0.7012 -0.5263
  856MOL0     C15467  -0.901   2.759   1.025 -0.8732 -0.1834 -0.4501
  856MOL0     C15468  -1.010   2.738   1.126  1.1561  0.5382 -0.9758
  856MOL0    Cl15469  -1.154   2.837   1.088  0.1356  0.0406  0.1111
  856MOL0     C15470  -0.227   3.330   0.961  0.4998  0.4443 -0.5150
  856MOL0     C15471  -0.094   3.307   0.960 -1.3510 -0.3003 -0.2570
  856MOL0     O15472   0.159   3.346   0.723 -0.1131  0.7346  0.2067
  856MOL0     C15473   0.426   3.288   0.704 -0.8722  0.6282 -0.5760
  856MOL0     C15474   0.568   3.273   0.715 -0.8761  0.5465 -1.3312
  856MOL0     N15475   1.301   3.468   0.892  0.0776  0.2784  0.1451
  856MOL0     N15476   1.363   3.563   0.831  0.1519 -1.1164 -0.3483
  856MOL0     C15477   0.685   4.214   0.995 -0.3285  1.1717  0.6467
  856MOL0     C15478   0.557   4.187   1.047  0.3584  0.3813  0.4308
  856MOL0     C15479   0.178   4.173   1.294 -0.0078  0.2806  0.2618
  856MOL0     C15480   0.104   4.056   1.287  0.0557 -0.0076  0.6165
  856MOL0     C15481  -0.029   4.047   1.339  0.1290 -0.0365  0.2599
  856MOL0     C15482  -0.090   4.160   1.400  0.7814 -0.1256 -0.7453
  856MOL0     O15483  -0.222   4.157   1.441  0.4326  0.0998 -0.4880
  856MOL0     C15484  -0.278   4.021   1.458  0.3583  1.4161  0.8713
  856MOL0     C15485  -0.408   4.018   1.548 -0.4395 -1.0284 -0.0523
  856MOL0     C15486  -0.438   3.878   1.604  0.8922 -0.7032  0.5853
  856MOL0     C15487  -0.538   3.878   1.718  0.4203  0.0621  0.3840
  856MOL0     C15488  -0.680   3.895   1.675  0.1509 -0.6919 -0.0871
  856MOL0     C15489  -0.797   3.916   1.650  0.2039 -0.3141  0.5674
  856MOL0     C15490  -0.024   4.277   1.411 -0.0323 -0.2042  0.4282
  856MOL0     C15491   0.114   4.286   1.361 -0.5610  0.6263  0.7555
  856MOL0     C15492   0.185   4.417   1.390 -0.9079  0.4857  0.2508
  856MOL0     H15493   0.474   4.488   1.164 -0.6739 -1.6211  2.7967
  856MOL0     H15494   0.714   4.546   1.095 -1.6055  0.2038  1.5847
  856MOL0     H15495   0.846   4.287   0.788  0.8627  1.9898 -2.0852
  856MOL0     H15496   0.934   4.444   0.795  0.7018  0.8291  0.3741
  856MOL0     H15497   1.026   4.171   0.907  1.8839  0.6121  2.7491
  856MOL0     H15498   1.090   4.323   0.960 -2.9987 -1.3861  2.2515
  856MOL0     H15499   1.226   4.254   0.772 -0.1318 -0.2261  0.8086
  856MOL0     H15500   1.124   4.378   0.702 -1.2297  0.9628  0.7369
  856MOL0     H15501   0.977   4.118   0.687  0.0186 -0.7530 -0.6065
  856MOL0     H15502   1.041   4.214   0.550 -1.3295  0.7038  0.7167
  856MOL0     H15503   1.149   3.999   0.543  1.1750  0.2108  0.1916
  856MOL0     H15504   1.262   4.115   0.586  0.3121  0.4670  1.5404
  856MOL0     H15505   1.225   4.045   0.838 -1.7376 -0.5812 -0.2061
  856MOL0     H15506   1.107   3.935   0.774 -0.0587  1.4277  1.3073
  856MOL0     H15507   1.384   3.931   0.683 -3.5539  0.3065 -5.6100
  856MOL0     H15508   1.286   3.792   0.673 -2.3106  2.2336 -1.5741
  856MOL0     H15509   1.469   3.789   0.854 -0.0931 -0.7646 -0.8922
  856MOL0     H15510   1.352   3.865   0.963 -1.1803 -1.1441  0.1431
  856MOL0     H15511   1.144   3.715   1.035 -1.4772  0.0516 -0.5346
  856MOL0     H15512   1.152   3.329   1.038  0.2698  0.2840  1.9870
  856MOL0     H15513   1.089   3.457   1.134 -2.0189  0.2861  0.3563
  856MOL0     H15514   0.900   3.346   1.023  2.1449  1.4267  2.4311
  856MOL0     H15515   0.924   3.501   0.945  0.9254  0.0917 -0.5011
  856MOL0     H15516   1.027   3.236   0.834 -2.6503 -0.5416  1.1066
  856MOL0     H15517   1.029   3.392   0.751  0.9199  1.5020  0.8970
  856MOL0     H15518   0.852   3.241   0.676 -2.1265 -1.3114  0.5298
  856MOL0     H15519   0.783   3.391   0.758 -0.8249  0.0684 -0.3293
  856MOL0     H15520   0.584   3.129   1.020 -2.0163 -1.5411  0.2833
  856MOL0     H15521   0.348   3.138   1.002 -2.9732  0.1484 -2.5687
  856MOL0     H15522  -0.059   3.064   0.713  0.3088 -0.4088 -0.0319
  856MOL0     H15523  -0.309   3.110   0.718 -1.3037 -3.3690  4.1724
  856MOL0     H15524  -0.485   3.228   1.055 -0.7924  0.0211  0.3687
  856MOL0     H15525  -0.489   3.402   1.011 -0.5382  1.1011 -1.2338
  856MOL0     H15526  -0.719   3.287   1.041 -1.6467  0.2450 -1.5043
  856MOL0     H15527  -0.703   3.343   0.879 -3.1554 -0.6466  0.4007
  856MOL0     H15528  -0.785   3.120   0.870 -0.4337  1.8271  1.4339
  856MOL0     H15529  -0.635   3.134   0.790  1.0881 -0.0756  0.6983
  856MOL0     H15530  -0.612   3.028   1.083  0.0448 -2.3119  0.3897
  856MOL0     H15531  -0.514   2.999   0.942 -1.0788 -1.0950 -3.7114
  856MOL0     H15532  -0.629   2.809   0.999  3.8798  3.5012  0.2759
  856MOL0     H15533  -0.711   2.863   0.855  2.2282 -0.9274 -0.3383
  856MOL0     H15534  -0.808   2.901   1.135 -0.2719 -1.4323 -0.4877
  856MOL0     H15535  -0.895   2.977   0.993  1.6269  0.2146 -2.0202
  856MOL0     H15536  -0.832   2.679   1.054  1.5119  1.4743 -1.2796
  856MOL0     H15537  -0.932   2.762   0.920 -0.3254  0.3393 -0.6001
  856MOL0     H15538  -1.038   2.632   1.125 -1.2332  1.0871 -0.1409
  856MOL0     H15539  -0.974   2.759   1.227 -0.7102 -3.2092  0.6598
  856MOL0     H15540  -0.260   3.407   1.030  2.1153 -0.4567  1.3626
  856MOL0     H15541  -0.035   3.368   1.027 -1.6538 -0.8522  0.5258
  856MOL0     H15542   0.385   3.334   0.615 -1.5130 -2.5560 -2.0935
  856MOL0     H15543   0.627   3.300   0.628  0.1622 -1.8061 -1.4225
  856MOL0     H15544   0.742   4.132   0.953  1.6635  1.3306  2.7711
  856MOL0     H15545   0.514   4.088   1.035 -0.8429  1.0071 -0.6415
  856MOL0     H15546   0.134   3.969   1.229  0.1793  0.7854 -0.5531
  856MOL0     H15547  -0.085   3.956   1.323  0.8437 -0.6564  1.2119
  856MOL0     H15548  -0.201   3.967   1.514 -0.1753  0.8338  1.0648
  856MOL0     H15549  -0.301   3.974   1.362 -2.2538  1.2299  1.5045
  856MOL0     H15550  -0.486   4.072   1.492 -0.1396  0.5788  1.0004
  856MOL0     H15551  -0.410   4.084   1.635 -0.6522 -0.5900 -0.3819
  856MOL0     H15552  -0.344   3.842   1.645  1.2011 -0.2158  0.3185
  856MOL0     H15553  -0.468   3.813   1.520  0.0344  0.0611  0.2773
  856MOL0     H15554  -0.525   3.787   1.777  3.5455  0.5592  0.6308
  856MOL0     H15555  -0.521   3.962   1.787 -0.2697 -1.3032  2.2900
  856MOL0     H15556  -0.886   3.935   1.593  0.8572  1.7008  0.1225
  856MOL0     H15557  -0.069   4.356   1.471 -0.0875 -0.3911  0.6376
  856MOL0     H15558   0.219   4.466   1.299 -0.6623 -3.2125 -1.8441
  856MOL0     H15559   0.129   4.496   1.442  2.2128  1.7437  2.0059
  856MOL0     H15560   0.279   4.403   1.445 -0.1269  1.1282 -0.8607
  857MOL0     O15561   4.095   0.802   8.624 -0.1421 -0.0446  0.0893
  857MOL0     C15562   3.987   0.804   8.688  1.1105 -1.1469  0.0638
  857MOL0     O15563   3.948   0.907   8.774 -0.1177  0.0478 -0.2066
  857MOL0     C15564   4.051   0.998   8.806  0.4432 -0.7210 -0.4893
  857MOL0     C15565   4.147   0.972   8.908 -1.0672  0.5209 -0.4538
  857MOL0     C15566   4.245   1.069   8.955  0.2802  0.8169  0.2465
  857MOL0     C15567   4.250   1.184   8.879 -0.1761  0.8835  0.0890
  857MOL0     O15568   4.339   1.286   8.881 -0.2730  0.1380 -0.0947
  857MOL0     C15569   4.431   1.286   8.984  0.5707  0.1173 -0.4556
  857MOL0     C15570   4.525   1.401   8.987  0.0692 -0.8446  0.3346
  857MOL0     C15571   4.610   1.397   9.120 -0.3114  0.2258  0.2007
  857MOL0     C15572   4.691   1.270   9.136 -0.1102 -0.6419 -0.0915
  857MOL0     C15573   4.809   1.277   9.233  0.1233 -0.4030 -0.0388
  857MOL0     C15574   4.860   1.132   9.249 -0.0688  0.3891  0.0990
  857MOL0     C15575   4.992   1.135   9.330  0.3129 -0.3557  0.5739
  857MOL0     C15576   5.044   0.987   9.339 -0.2390 -0.5772  0.4695
  857MOL0     N15577   5.146   0.956   9.444 -0.5192 -0.0984 -0.0321
  857MOL0     C15578   5.280   0.952   9.410  0.0655 -0.0175  0.5718
  857MOL0     C15579   5.349   0.961   9.527  0.5908 -0.7213 -0.6410
  857MOL0     C15580   5.491   0.905   9.556 -1.0776 -0.2699  0.0872
  857MOL0     C15581   5.592   0.943   9.443 -0.1607 -0.2299  0.0809
  857MOL0     C15582   5.594   1.089   9.398 -0.5896  0.2556  0.6811
  857MOL0     C15583   5.625   1.174   9.528 -0.5055  1.1458  1.1682
  857MOL0     O15584   5.619   1.316   9.507 -0.6234 -0.4769  0.6426
  857MOL0     C15585   5.502   1.379   9.467 -0.1169  0.6631 -0.7340
  857MOL0     C15586   5.378   1.324   9.457 -0.0364  0.0577  0.8399
  857MOL0     C15587   5.263   1.392   9.412  0.0001  0.1946 -0.0982
  857MOL0     C15588   5.280   1.521   9.357  0.6425 -0.3185 -0.7461
  857MOL0     C15589   5.155   1.599   9.319 -0.5895 -0.1283 -0.5821
  857MOL0     O15590   5.173   1.737   9.306 -0.4099 -0.4300 -0.1362
  857MOL0     C15591   5.080   1.824   9.352 -0.3486  0.2383  0.4628
  857MOL0     C15592   4.966   1.784   9.425  0.1693  0.0552 -0.5512
  857MOL0     C15593   4.869   1.876   9.457  0.0795 -0.3686 -0.1766
  857MOL0     C15594   4.890   2.013   9.422 -1.0627 -0.6658 -0.3528
  857MOL0     O15595   4.799   2.102   9.464 -0.4392 -0.9013 -0.3722
  857MOL0     C15596   4.719   2.163   9.356  0.0892 -0.7558  0.2988
  857MOL0     C15597   4.638   2.060   9.284  0.4568  0.1210  0.5151
  857MOL0     C15598   4.529   2.001   9.376 -0.2184 -0.3810  1.0386
  857MOL0     C15599   4.482   1.862   9.343 -0.1063  0.1295  0.1848
  857MOL0     C15600   4.349   1.835   9.410  0.4677  0.0052 -0.2276
  857MOL0     C15601   4.356   1.833   9.570 -0.1708 -0.0525  0.2120
  857MOL0     C15602   4.269   1.721   9.628 -0.7445 -0.5137  0.6839
  857MOL0     C15603   4.284   1.692   9.776 -0.2787 -0.0384  0.0472
  857MOL0    Cl15604   4.456   1.646   9.796  0.0875  0.2321 -0.0775
  857MOL0     C15605   5.006   2.055   9.352  0.0093 -0.7570  0.2916
  857MOL0     C15606   5.093   1.957   9.318  0.0766  0.1682  0.1808
  857MOL0     O15607   5.059   1.537   9.284  0.2896  0.2595  0.4957
  857MOL0     C15608   5.411   1.572   9.354 -0.2898 -0.1518 -0.3381
  857MOL0     C15609   5.522   1.510   9.419 -0.4749 -0.4159 -0.1101
  857MOL0     N15610   5.256   0.992   9.628 -0.2756 -0.0978 -0.0267
  857MOL0     N15611   5.138   0.979   9.578 -0.1071  0.6963  0.8737
  857MOL0     C15612   4.152   1.211   8.782 -0.6873  0.7000  0.8162
  857MOL0     C15613   4.056   1.119   8.738  0.1171 -0.5599 -0.1538
  857MOL0     C15614   3.884   0.688   8.673 -0.0980 -0.7353  0.5942
  857MOL0     C15615   3.763   0.701   8.740  0.0234 -0.4022  0.4242
  857MOL0     C15616   3.663   0.604   8.730 -0.0962  0.6042  0.2197
  857MOL0     C15617   3.678   0.488   8.646 -0.2226 -0.6721 -0.4629
  857MOL0     O15618   3.601   0.377   8.629  0.2935  0.0614 -0.0211
  857MOL0     C15619   3.483   0.353   8.710 -0.6132  0.4542 -0.2145
  857MOL0     C15620   3.384   0.285   8.615 -0.0665 -0.0118  0.0483
  857MOL0     C15621   3.452   0.163   8.556  0.0764 -0.0045 -0.1212
  857MOL0     C15622   3.355   0.091   8.460  0.7706  0.4969  0.8840
  857MOL0     C15623   3.434  -0.013   8.388 -0.5060 -0.3308  0.3186
  857MOL0     C15624   3.486  -0.114   8.353 -0.7999  0.0110 -0.4385
  857MOL0     C15625   3.801   0.469   8.578  0.3150 -1.2327 -0.1922
  857MOL0     C15626   3.902   0.570   8.596 -0.4414  0.7926  0.2006
  857MOL0     C15627   4.034   0.545   8.524  0.3416  0.2381 -0.1147
  857MOL0     H15628   4.133   0.897   8.985 -0.7010  0.2455 -0.6491
  857MOL0     H15629   4.313   1.051   9.037 -1.4178 -1.4946  1.2476
  857MOL0     H15630   4.390   1.278   9.084 -1.8719  1.1685 -1.3114
  857MOL0     H15631   4.494   1.198   8.966  2.1319  0.9739  0.5659
  857MOL0     H15632   4.466   1.494   8.986  2.9465  1.1158  0.0795
  857MOL0     H15633   4.589   1.397   8.899  1.3906 -2.8070  1.3235
  857MOL0     H15634   4.546   1.417   9.206  2.5835 -0.6118  2.7469
  857MOL0     H15635   4.682   1.479   9.110  0.2063 -0.1133  1.0140
  857MOL0     H15636   4.620   1.195   9.171 -1.4309  1.0991  1.1181
  857MOL0     H15637   4.725   1.236   9.038 -0.6998  0.7154 -0.8054
  857MOL0     H15638   4.884   1.349   9.199  1.0936 -1.2477  0.2570
  857MOL0     H15639   4.764   1.304   9.329 -0.5851 -1.3296 -0.0918
  857MOL0     H15640   4.787   1.071   9.304  0.0770  1.0285  1.0328
  857MOL0     H15641   4.878   1.073   9.159  1.6711 -0.9909  1.2643
  857MOL0     H15642   4.970   1.183   9.426 -0.2650 -0.6907  0.6068
  857MOL0     H15643   5.065   1.203   9.284 -2.7180  1.1726 -2.4521
  857MOL0     H15644   4.950   0.932   9.350 -1.5705  0.7867 -2.7474
  857MOL0     H15645   5.083   0.949   9.244 -0.5147 -2.5435  1.1043
  857MOL0     H15646   5.317   0.931   9.310  0.2226  2.0552  0.1639
  857MOL0     H15647   5.523   0.944   9.652  0.3335 -1.0902 -0.0204
  857MOL0     H15648   5.480   0.796   9.566 -3.1985  0.0564  2.0856
  857MOL0     H15649   5.693   0.922   9.479  0.1721  0.5177 -0.3772
  857MOL0     H15650   5.575   0.874   9.360  0.2017 -1.0879  0.7038
  857MOL0     H15651   5.502   1.121   9.348 -0.0284 -0.3680 -0.8234
  857MOL0     H15652   5.677   1.105   9.328 -0.6032 -3.4523 -0.4433
  857MOL0     H15653   5.724   1.150   9.569 -1.5436  0.2876  3.3450
  857MOL0     H15654   5.553   1.153   9.608  1.1259 -3.0233  1.8128
  857MOL0     H15655   5.360   1.222   9.490  1.5041 -0.4584  0.1406
  857MOL0     H15656   5.168   1.340   9.414  0.9869 -1.7176 -0.5532
  857MOL0     H15657   4.947   1.682   9.456  0.6891 -0.4673 -1.8845
  857MOL0     H15658   4.789   1.839   9.520  1.1857 -2.6180  0.0135
  857MOL0     H15659   4.643   2.220   9.410 -1.7680 -0.5937 -2.2847
  857MOL0     H15660   4.779   2.236   9.301 -0.2039 -1.9621 -1.7263
  857MOL0     H15661   4.588   2.104   9.198  1.1412 -0.9054 -0.4381
  857MOL0     H15662   4.697   1.977   9.243  1.1175  0.4591  0.7699
  857MOL0     H15663   4.562   2.009   9.480 -2.0476  2.8291  1.5196
  857MOL0     H15664   4.441   2.066   9.376 -0.2311 -0.2443  4.1180
  857MOL0     H15665   4.556   1.789   9.378  0.6670 -0.1606 -1.9385
  857MOL0     H15666   4.469   1.845   9.236  2.5743  2.2108 -0.5906
  857MOL0     H15667   4.312   1.742   9.364  1.5696  0.7466 -2.8230
  857MOL0     H15668   4.275   1.913   9.390  0.9205  0.5945  0.3531
  857MOL0     H15669   4.461   1.817   9.599  0.8217  1.8893 -1.9810
  857MOL0     H15670   4.327   1.931   9.608  1.1333  0.7373 -0.7312
  857MOL0     H15671   4.297   1.629   9.577  0.0013  0.6228 -1.0467
  857MOL0     H15672   4.166   1.748   9.602 -1.3587  0.6281  3.9094
  857MOL0     H15673   4.261   1.773   9.845  0.7354 -0.6201  1.1039
  857MOL0     H15674   4.215   1.610   9.798  0.9543 -1.3782 -0.9481
  857MOL0     H15675   5.016   2.160   9.326 -0.1935 -0.6629  0.5792
  857MOL0     H15676   5.173   1.975   9.247  0.9070  0.2369  1.1049
  857MOL0     H15677   5.427   1.672   9.317 -0.3220  0.0485  0.1831
  857MOL0     H15678   5.617   1.562   9.421 -1.2549  1.0779  0.1083
  857MOL0     H15679   4.148   1.312   8.743  2.8415  1.5282  2.2051
  857MOL0     H15680   3.987   1.139   8.657  1.2775  0.8463 -0.8328
  857MOL0     H15681   3.733   0.775   8.814  1.8319 -0.0289  0.8297
  857MOL0     H15682   3.567   0.619   8.778  0.4585  2.2253  0.8763
  857MOL0     H15683   3.436   0.448   8.740  1.1641  0.7360  2.0090
  857MOL0     H15684   3.499   0.295   8.801  0.7139  0.4207 -0.4474
  857MOL0     H15685   3.347   0.360   8.544  2.2076  0.8403 -0.3239
  857MOL0     H15686   3.298   0.248   8.672  0.4673 -1.4491 -0.0411
  857MOL0     H15687   3.487   0.094   8.634 -0.1856  1.5772  1.4437
  857MOL0     H15688   3.540   0.194   8.499 -0.5631  3.1922  0.4714
  857MOL0     H15689   3.297   0.027   8.528  0.9498  0.1014  0.6699
  857MOL0     H15690   3.302   0.157   8.391  0.5973  0.6521  1.1654
  857MOL0     H15691   3.523  -0.214   8.346 -2.6365 -0.8857  1.5960
  857MOL0     H15692   3.820   0.380   8.519  1.9092 -0.2699 -1.2265
  857MOL0     H15693   4.060   0.629   8.459  0.0723  2.6770  2.7339
  857MOL0     H15694   4.123   0.525   8.585  1.6335  2.8817 -0.9794
  857MOL0     H15695   4.032   0.451   8.467  2.4683  0.0630 -0.0113
  858MOL0     O15696   3.199   4.279   3.018  0.3877 -0.2176 -0.0189
  858MOL0     C15697   3.197   4.228   3.130  0.1078 -0.3072 -0.3588
  858MOL0     O15698   3.118   4.272   3.233  0.4180 -0.6507 -0.6199
  858MOL0     C15699   3.017   4.361   3.205  0.1110 -0.1065 -0.7455
  858MOL0     C15700   2.900   4.322   3.141  0.3596 -0.1380 -0.4894
  858MOL0     C15701   2.785   4.401   3.132  0.1810  0.2627 -0.1777
  858MOL0     C15702   2.808   4.540   3.163  0.1894 -0.7737  1.1530
  858MOL0     O15703   2.710   4.636   3.164 -0.0704  0.3366 -0.2982
  858MOL0     C15704   2.580   4.602   3.119 -0.1344  0.3454  1.3536
  858MOL0     C15705   2.524   4.738   3.072 -0.2837 -0.2968  0.6718
  858MOL0     C15706   2.370   4.728   3.065 -0.0126 -0.2287  0.0031
  858MOL0     C15707   2.293   4.842   3.009  0.3117  0.8527  0.0634
  858MOL0     C15708   2.149   4.795   2.982  0.8953 -0.4858  0.6895
  858MOL0     C15709   2.089   4.889   2.877 -0.4021 -0.3153  0.2845
  858MOL0     C15710   1.956   4.837   2.819  0.6527 -0.2255  1.7141
  858MOL0     C15711   1.842   4.806   2.917 -0.4372  0.3281 -0.0222
  858MOL0     N15712   1.722   4.762   2.840  0.2583  0.6317  0.0757
  858MOL0     C15713   1.667   4.825   2.728  0.2978 -0.8847 -0.1901
  858MOL0     C15714   1.566   4.749   2.693  0.7118  0.7146 -0.1001
  858MOL0     C15715   1.476   4.770   2.575  0.4035  0.5101 -0.9101
  858MOL0     C15716   1.554   4.745   2.446  1.1641 -0.6512  0.3116
  858MOL0     C15717   1.642   4.868   2.403  0.1978  0.3390 -0.2065
  858MOL0     C15718   1.684   4.863   2.264 -0.1655 -0.2005  0.2621
  858MOL0     O15719   1.762   4.978   2.222  0.0376  0.6173  0.8785
  858MOL0     C15720   1.879   4.994   2.276 -0.7029  0.1174  0.1491
  858MOL0     C15721   1.989   4.920   2.245  0.1499 -0.3099  0.1595
  858MOL0     C15722   2.099   4.940   2.321 -0.5758  0.0563  0.7425
  858MOL0     C15723   2.103   5.033   2.430  0.5957 -0.9986 -0.2384
  858MOL0     C15724   2.219   5.056   2.513  0.0836  0.1829  0.0287
  858MOL0     O15725   2.322   4.975   2.489  0.3762  0.4650 -0.6452
  858MOL0     C15726   2.433   4.974   2.568 -0.0080 -0.2792  0.6439
  858MOL0     C15727   2.453   5.012   2.702 -0.5520 -0.8016 -0.2046
  858MOL0     C15728   2.570   4.998   2.771 -0.0800  0.0643  0.0703
  858MOL0     C15729   2.680   4.938   2.704  0.0907  0.2181  0.0602
  858MOL0     O15730   2.807   4.922   2.758 -0.0478  0.2712 -0.2481
  858MOL0     C15731   2.853   5.011   2.859 -0.1962  0.9027  0.2082
  858MOL0     C15732   2.996   4.961   2.903 -0.2810  1.1393  0.1701
  858MOL0     C15733   3.063   5.074   2.976  0.0613  0.4628  0.4109
  858MOL0     C15734   3.206   5.041   3.008  0.0608  1.1101  0.3780
  858MOL0     C15735   3.213   4.961   3.138  0.4879  0.3673  0.0017
  858MOL0     C15736   3.356   4.904   3.163  0.1380 -0.3182  0.7948
  858MOL0     C15737   3.452   5.008   3.214  1.5151 -0.0378 -0.1710
  858MOL0     C15738   3.590   4.951   3.213  0.4261  0.5085  0.3552
  858MOL0    Cl15739   3.711   5.082   3.230 -0.0978  0.6062 -0.1583
  858MOL0     C15740   2.661   4.889   2.578  0.5772  0.6228 -0.0301
  858MOL0     C15741   2.541   4.914   2.508  0.1434  0.5111  0.4453
  858MOL0     O15742   2.216   5.142   2.602 -0.1998  0.1639  0.3084
  858MOL0     C15743   1.987   5.108   2.453 -0.2785  0.2834 -0.0934
  858MOL0     C15744   1.874   5.086   2.380  0.7337  0.3482  0.2614
  858MOL0     N15745   1.540   4.651   2.786  0.0356 -0.1499 -0.0784
  858MOL0     N15746   1.643   4.654   2.870 -0.5593  0.1489 -0.1860
  858MOL0     C15747   2.929   4.585   3.219 -0.5467  0.3545 -0.0378
  858MOL0     C15748   3.036   4.494   3.249  0.2097  0.0017  0.0578
  858MOL0     C15749   3.298   4.129   3.168 -0.9538  0.1962 -0.3721
  858MOL0     C15750   3.277   4.062   3.286 -0.4605  0.3086  0.1102
  858MOL0     C15751   3.379   3.976   3.332 -0.5019 -0.8943 -0.3302
  858MOL0     C15752   3.507   3.955   3.272  0.1943 -0.7222  0.9483
  858MOL0     O15753   3.618   3.890   3.316  0.8481  0.2120 -0.9719
  858MOL0     C15754   3.600   3.809   3.433  1.0961 -0.4972 -0.1137
  858MOL0     C15755   3.689   3.688   3.423 -0.4521 -0.4640 -0.2005
  858MOL0     C15756   3.829   3.718   3.479 -0.1838  0.0992 -0.4047
  858MOL0     C15757   3.931   3.600   3.474  0.2837  0.4837 -0.4825
  858MOL0     C15758   4.070   3.648   3.459 -0.3659  0.1974 -0.6859
  858MOL0     C15759   4.193   3.673   3.464  0.3637 -0.4371 -0.4015
  858MOL0     C15760   3.520   4.028   3.153 -0.4263 -0.7081 -0.1591
  858MOL0     C15761   3.419   4.108   3.097  0.4867 -0.2725  0.4566
  858MOL0     C15762   3.457   4.164   2.960  0.3353  0.5464 -0.3803
  858MOL0     H15763   2.888   4.222   3.100 -1.5887 -0.0039 -0.3331
  858MOL0     H15764   2.692   4.357   3.099 -0.7378 -0.5364  3.0703
  858MOL0     H15765   2.594   4.541   3.029  0.2705  0.0780  1.5940
  858MOL0     H15766   2.515   4.563   3.197 -0.2937 -0.5798  0.7763
  858MOL0     H15767   2.565   4.753   2.972  0.6178  0.1497  1.0988
  858MOL0     H15768   2.555   4.820   3.137  2.0833  0.9124 -1.8019
  858MOL0     H15769   2.334   4.710   3.167 -1.7921  2.2028 -0.1161
  858MOL0     H15770   2.348   4.642   3.001 -0.0079 -1.0388  1.0583
  858MOL0     H15771   2.295   4.928   3.076  0.8126 -0.3714  1.6675
  858MOL0     H15772   2.350   4.868   2.919 -1.0180  0.9125 -0.8024
  858MOL0     H15773   2.143   4.694   2.940  0.8751  0.5586 -2.0286
  858MOL0     H15774   2.094   4.802   3.076  0.7876 -2.2233  0.7801
  858MOL0     H15775   2.072   4.990   2.917 -2.2074 -0.6611  0.4591
  858MOL0     H15776   2.159   4.898   2.793  0.2470  0.9064  0.9219
  858MOL0     H15777   1.989   4.744   2.770  2.0028  0.3728  1.4503
  858MOL0     H15778   1.919   4.907   2.744  0.3794  1.0878  3.0355
  858MOL0     H15779   1.874   4.734   2.993 -0.6564  1.4177  1.1330
  858MOL0     H15780   1.809   4.895   2.971 -2.0648 -0.2339 -0.0488
  858MOL0     H15781   1.714   4.903   2.669  0.4927 -0.5116  0.4606
  858MOL0     H15782   1.403   4.689   2.589 -0.5714  1.7738  2.3281
  858MOL0     H15783   1.433   4.871   2.579  1.3917  0.9371 -0.6876
  858MOL0     H15784   1.605   4.648   2.458  3.7589  0.7084  1.1175
  858MOL0     H15785   1.479   4.729   2.368  1.5650 -2.7195  0.2704
  858MOL0     H15786   1.728   4.877   2.471 -2.3570 -0.4853  3.4805
  858MOL0     H15787   1.589   4.960   2.431  1.7191  1.0949  0.2986
  858MOL0     H15788   1.588   4.867   2.211  0.3428  1.9539 -0.6082
  858MOL0     H15789   1.733   4.772   2.229 -0.0498  0.7706 -2.3165
  858MOL0     H15790   1.987   4.850   2.162 -0.4045 -0.6001  0.4104
  858MOL0     H15791   2.181   4.871   2.308  0.7435  0.7182  4.4980
  858MOL0     H15792   2.374   5.059   2.759 -0.2822 -0.1768 -0.3432
  858MOL0     H15793   2.581   5.044   2.868 -1.4867 -0.8606  0.7052
  858MOL0     H15794   2.849   5.115   2.823 -0.7203  0.2296 -1.7985
  858MOL0     H15795   2.789   5.004   2.947  0.5482  1.3958  0.8063
  858MOL0     H15796   2.980   4.883   2.979  0.8634  1.7547  1.0722
  858MOL0     H15797   3.054   4.913   2.824  1.2340 -1.1799  2.5451
  858MOL0     H15798   3.062   5.167   2.918 -0.1520  1.1125  1.4327
  858MOL0     H15799   3.002   5.091   3.065 -0.9728 -2.3937  0.3394
  858MOL0     H15800   3.254   5.138   3.024 -0.2514  1.4529 -0.6943
  858MOL0     H15801   3.248   4.982   2.926 -0.9567  2.4911 -1.1760
  858MOL0     H15802   3.133   4.886   3.135  1.0553 -0.3135  1.3848
  858MOL0     H15803   3.182   5.023   3.222 -2.9613  1.4806 -1.8496
  858MOL0     H15804   3.349   4.831   3.244 -4.2629  1.6097  2.4747
  858MOL0     H15805   3.399   4.858   3.073 -0.5991  0.7345 -0.1199
  858MOL0     H15806   3.439   5.050   3.314  2.2629  3.0847 -1.2736
  858MOL0     H15807   3.455   5.096   3.150 -0.6008  2.1344  2.4680
  858MOL0     H15808   3.603   4.878   3.294 -1.8747  0.4909  0.7753
  858MOL0     H15809   3.615   4.911   3.114  0.7986  1.6857 -0.0455
  858MOL0     H15810   2.739   4.830   2.530 -0.4563 -0.1365 -0.8102
  858MOL0     H15811   2.543   4.878   2.405 -0.8056 -0.8916  0.8895
  858MOL0     H15812   1.983   5.188   2.526  3.1646  3.3184 -2.8413
  858MOL0     H15813   1.791   5.149   2.410  1.8340  1.6171  0.7728
  858MOL0     H15814   2.935   4.689   3.249  2.6607 -0.0813  1.1975
  858MOL0     H15815   3.116   4.532   3.311 -1.1754 -0.1872  2.0268
  858MOL0     H15816   3.190   4.071   3.351 -1.0056 -1.1013 -0.3915
  858MOL0     H15817   3.354   3.923   3.423 -0.9403  0.5072  0.4032
  858MOL0     H15818   3.500   3.770   3.449  1.6156 -1.6457  0.4744
  858MOL0     H15819   3.618   3.864   3.526 -2.4476  0.4322  0.1583
  858MOL0     H15820   3.694   3.655   3.319  0.1900 -1.1547  0.0345
  858MOL0     H15821   3.640   3.614   3.487 -1.1047  1.0895  1.1763
  858MOL0     H15822   3.816   3.752   3.583  0.3701  0.9378 -0.5949
  858MOL0     H15823   3.869   3.805   3.426  0.6693  0.0440  0.1226
  858MOL0     H15824   3.920   3.532   3.558 -1.7726  0.0688 -1.0189
  858MOL0     H15825   3.898   3.544   3.386 -3.5307  0.2550  0.8826
  858MOL0     H15826   4.294   3.706   3.479  0.2693 -0.6435  0.8189
  858MOL0     H15827   3.616   4.005   3.107 -0.2645  0.9863 -0.7120
  858MOL0     H15828   3.505   4.081   2.907 -4.2851 -2.4046 -0.5090
  858MOL0     H15829   3.372   4.189   2.895  2.8113  2.5039 -3.1538
  858MOL0     H15830   3.524   4.248   2.980 -0.1985  1.1435 -1.0800
  859MOL0     O15831   9.653   6.422  10.874 -0.2651 -0.2172 -0.6751
  859MOL0     C15832   9.684   6.305  10.897  0.2052  0.1267 -0.0566
  859MOL0     O15833   9.808   6.263  10.903 -0.3138  0.3682 -0.0181
  859MOL0     C15834   9.918   6.347  10.916  0.0872  0.1187  0.6708
  859MOL0     C15835  10.045   6.294  10.897  0.0224  0.2924  0.2741
  859MOL0     C15836  10.160   6.368  10.913 -0.0672  0.3901 -0.2813
  859MOL0     C15837  10.163   6.503  10.958  0.1691 -0.3226  0.0010
  859MOL0     O15838  10.276   6.577  10.980  0.9520 -0.0072  0.2073
  859MOL0     C15839  10.366   6.576  10.871 -0.1246 -0.0494 -0.6785
  859MOL0     C15840  10.462   6.687  10.868  0.4594 -0.4649  0.1233
  859MOL0     C15841  10.406   6.823  10.900  0.7846 -0.2319  0.1958
  859MOL0     C15842  10.506   6.924  10.840  0.4904  0.2456 -0.2842
  859MOL0     C15843  10.494   7.068  10.890  0.4240  0.4174 -0.0546
  859MOL0     C15844  10.365   7.145  10.856 -0.0851  0.6992  0.3332
  859MOL0     C15845  10.322   7.111  10.706 -0.2034 -0.1342  0.1807
  859MOL0     C15846  10.188   7.179  10.679 -0.1181 -0.3704  0.3814
  859MOL0     N15847  10.074   7.137  10.772  0.7641 -0.3641  0.1538
  859MOL0     C15848  10.038   7.007  10.799 -0.0160  0.0712 -0.0660
  859MOL0     C15849   9.902   7.020  10.837  0.0035  0.0952  0.3768
  859MOL0     C15850   9.795   6.914  10.871 -0.1980 -0.0800 -0.5095
  859MOL0     C15851   9.772   6.793  10.783 -0.5007 -0.1542 -0.7660
  859MOL0     C15852   9.730   6.840  10.645 -0.3408 -0.8098  0.0635
  859MOL0     C15853   9.710   6.722  10.546 -0.7701  0.5422 -0.2443
  859MOL0     O15854   9.835   6.655  10.526  0.0576 -0.0209  0.1751
  859MOL0     C15855   9.941   6.738  10.481 -1.0771 -0.0426  0.5307
  859MOL0     C15856   9.933   6.858  10.414 -0.3853  0.4709  0.2698
  859MOL0     C15857  10.047   6.934  10.374  1.4838  0.6414  1.3585
  859MOL0     C15858  10.172   6.892  10.412 -0.1608  0.2338 -0.0411
  859MOL0     C15859  10.294   6.956  10.352 -0.2027 -0.0841  0.7708
  859MOL0     O15860  10.418   6.889  10.368 -0.1501 -0.2351  0.1080
  859MOL0     C15861  10.537   6.947  10.320  0.1205 -0.0264 -0.5872
  859MOL0     C15862  10.646   6.942  10.410  0.1253  0.0093  0.4177
  859MOL0     C15863  10.768   6.996  10.374  0.1704 -0.5455 -0.1725
  859MOL0     C15864  10.778   7.066  10.252  0.5567  0.0344 -0.1228
  859MOL0     O15865  10.890   7.130  10.206  0.0885 -0.8236  0.3517
  859MOL0     C15866  11.005   7.126  10.281  0.6304  0.0115  0.3735
  859MOL0     C15867  11.080   6.988  10.294  0.5937  0.2663  0.8951
  859MOL0     C15868  11.220   7.026  10.356  1.2821 -0.5408 -0.1587
  859MOL0     C15869  11.319   6.905  10.369 -0.0252  0.0497 -0.0636
  859MOL0     C15870  11.412   6.936  10.488  0.6188  0.2185  0.5657
  859MOL0     C15871  11.544   6.869  10.472 -0.3721 -0.3283 -0.8916
  859MOL0     C15872  11.634   6.875  10.591 -0.7364  0.7208  0.4472
  859MOL0     C15873  11.763   6.793  10.578 -0.2569 -0.1351 -0.1675
  859MOL0    Cl15874  11.905   6.901  10.618  0.1333  0.1976  0.0561
  859MOL0     C15875  10.663   7.079  10.173  0.9680  0.0693  0.3323
  859MOL0     C15876  10.541   7.010  10.195 -1.1210 -0.6265  0.0687
  859MOL0     O15877  10.276   7.063  10.298 -0.3367 -0.7165 -0.1081
  859MOL0     C15878  10.183   6.771  10.485  0.6048 -0.6089  0.2682
  859MOL0     C15879  10.068   6.697  10.510 -1.0347  0.2115 -0.5621
  859MOL0     N15880   9.876   7.161  10.849 -0.3885  0.2490 -0.4733
  859MOL0     N15881   9.975   7.222  10.802 -0.5139  0.2204  0.2023
  859MOL0     C15882  10.033   6.545  10.982 -0.6568 -0.1488  0.0101
  859MOL0     C15883   9.919   6.475  10.967  0.2391  0.2129 -0.8316
  859MOL0     C15884   9.581   6.194  10.911 -0.4041  0.0238  0.1788
  859MOL0     C15885   9.628   6.060  10.917  1.1377  0.3683  0.8765
  859MOL0     C15886   9.542   5.953  10.921 -0.0695 -0.3564  0.2284
  859MOL0     C15887   9.406   5.976  10.929 -0.1610  0.1040  0.3592
  859MOL0     O15888   9.316   5.877  10.948  0.1042  0.4580 -0.4631
  859MOL0     C15889   9.341   5.735  10.911  0.4528 -0.0603  0.0882
  859MOL0     C15890   9.217   5.672  10.849  0.4967  0.2409  0.5302
  859MOL0     C15891   9.211   5.525  10.881 -0.0472  0.2986 -0.1282
  859MOL0     C15892   9.075   5.478  10.820  0.2805 -0.2425 -0.4500
  859MOL0     C15893   9.045   5.343  10.871 -0.4562  0.2030  0.1715
  859MOL0     C15894   9.013   5.237  10.923  0.4927  0.5732 -0.0577
  859MOL0     C15895   9.352   6.101  10.921 -0.0003  0.2718  0.1864
  859MOL0     C15896   9.438   6.215  10.913 -0.4420 -0.7131 -0.1153
  859MOL0     C15897   9.377   6.357  10.897 -0.2106 -0.1101  0.2598
  859MOL0     H15898  10.049   6.198  10.848 -3.0215 -0.3732  1.1580
  859MOL0     H15899  10.256   6.332  10.876  1.1567  3.1406  0.0338
  859MOL0     H15900  10.430   6.488  10.871 -1.1632 -0.8233 -0.0554
  859MOL0     H15901  10.310   6.581  10.777  0.1662 -1.7810 -0.9628
  859MOL0     H15902  10.515   6.683  10.772  0.5085  3.3322 -0.1805
  859MOL0     H15903  10.550   6.682  10.933  0.0681  2.0536  0.9689
  859MOL0     H15904  10.402   6.840  11.008  0.4672  1.1796 -0.0219
  859MOL0     H15905  10.306   6.834  10.859  0.5581  1.7365  1.1850
  859MOL0     H15906  10.609   6.901  10.870  0.2770  0.8213  0.9617
  859MOL0     H15907  10.499   6.919  10.731 -1.6513 -1.0238 -0.1463
  859MOL0     H15908  10.515   7.071  10.997  0.8975  1.9160 -0.1701
  859MOL0     H15909  10.578   7.118  10.842  0.2947  2.4616  1.7016
  859MOL0     H15910  10.276   7.126  10.916 -0.5359  1.0736 -0.2105
  859MOL0     H15911  10.391   7.251  10.860  0.2392  0.5973  1.1573
  859MOL0     H15912  10.307   7.003  10.693  0.1990 -0.0634 -0.9541
  859MOL0     H15913  10.396   7.146  10.634 -1.6292  1.1637 -0.7015
  859MOL0     H15914  10.193   7.286  10.703 -0.5663 -0.2810  0.0769
  859MOL0     H15915  10.178   7.163  10.571  0.6372 -0.3326  0.3021
  859MOL0     H15916  10.097   6.919  10.776  1.2848  1.0694 -0.7080
  859MOL0     H15917   9.809   6.881  10.974  1.4409  4.8277  1.0894
  859MOL0     H15918   9.705   6.975  10.873  0.5121  0.9928  1.6272
  859MOL0     H15919   9.864   6.734  10.779  2.1121  3.5460  0.3643
  859MOL0     H15920   9.690   6.737  10.829  0.9100 -0.8681  0.9998
  859MOL0     H15921   9.806   6.912  10.613 -0.8770  0.7925  2.1211
  859MOL0     H15922   9.632   6.887  10.656 -0.5637 -1.4739  1.1567
  859MOL0     H15923   9.688   6.779  10.455  3.0477 -1.1985 -2.4801
  859MOL0     H15924   9.635   6.653  10.587 -1.6969  1.9693  0.5975
  859MOL0     H15925   9.837   6.898  10.384  0.6659  1.4589 -1.9683
  859MOL0     H15926  10.025   7.027  10.323 -0.7583  0.5478  2.0422
  859MOL0     H15927  10.626   6.888  10.502 -1.3402 -0.9337 -0.4149
  859MOL0     H15928  10.848   6.995  10.447  0.5663 -0.2288 -0.5892
  859MOL0     H15929  11.073   7.202  10.241 -1.2916  0.6387 -1.8642
  859MOL0     H15930  10.987   7.152  10.386  0.8377 -0.6818  0.5864
  859MOL0     H15931  11.027   6.917  10.358 -0.6886 -0.4436 -0.8635
  859MOL0     H15932  11.103   6.945  10.196  2.5460 -0.6400  1.6955
  859MOL0     H15933  11.271   7.101  10.294 -1.9398  2.3110  0.3560
  859MOL0     H15934  11.200   7.066  10.455  1.3304  2.6098 -1.3010
  859MOL0     H15935  11.376   6.885  10.278 -0.3138 -1.4256  0.0543
  859MOL0     H15936  11.254   6.820  10.395  1.2168 -0.4715  1.5266
  859MOL0     H15937  11.368   6.916  10.586 -1.0869 -3.1392 -0.7017
  859MOL0     H15938  11.443   7.041  10.491  0.9528  0.1095  1.1851
  859MOL0     H15939  11.530   6.761  10.458 -0.9789 -0.5392  0.9981
  859MOL0     H15940  11.592   6.914  10.385  0.7025  0.3458  0.0289
  859MOL0     H15941  11.584   6.842  10.683  1.9490 -1.3844  1.2733
  859MOL0     H15942  11.648   6.982  10.610 -2.2694  0.8338  1.0399
  859MOL0     H15943  11.765   6.705  10.643  0.4954 -1.4436 -1.8856
  859MOL0     H15944  11.763   6.762  10.474  1.0363  2.0406 -0.8722
  859MOL0     H15945  10.662   7.116  10.071 -4.2090  0.0921  0.0913
  859MOL0     H15946  10.455   7.026  10.132  2.7099  0.3054 -5.6938
  859MOL0     H15947  10.283   6.734  10.504  0.8574  0.2810  0.7326
  859MOL0     H15948  10.081   6.600  10.558 -0.0696  0.5029 -0.2279
  859MOL0     H15949  10.036   6.644  11.027 -1.0597 -1.1423  2.3544
  859MOL0     H15950   9.830   6.522  11.007 -0.5971 -0.5110 -1.7839
  859MOL0     H15951   9.723   6.023  10.879 -0.2993 -1.7577 -0.8997
  859MOL0     H15952   9.587   5.855  10.929  2.6174  0.8925  1.8516
  859MOL0     H15953   9.379   5.681  10.999  0.4950 -2.3317 -1.2359
  859MOL0     H15954   9.422   5.737  10.838  0.7383 -0.2289  0.3958
  859MOL0     H15955   9.215   5.698  10.743  1.8815  2.1684  0.9062
  859MOL0     H15956   9.126   5.716  10.890  0.3405 -0.2960  0.7675
  859MOL0     H15957   9.210   5.514  10.989 -0.1944  1.0154 -0.0573
  859MOL0     H15958   9.294   5.471  10.834  1.1364  1.8926  0.0565
  859MOL0     H15959   8.996   5.550  10.846  1.2242  0.5777  0.1917
  859MOL0     H15960   9.086   5.472  10.711  0.7027 -1.9979 -0.3333
  859MOL0     H15961   8.984   5.142  10.963 -0.2891 -0.3089 -2.5569
  859MOL0     H15962   9.245   6.112  10.926 -0.1310 -1.1526  1.1837
  859MOL0     H15963   9.414   6.407  10.807  1.9457  1.2243  1.7937
  859MOL0     H15964   9.268   6.363  10.896 -0.6002 -4.1734  0.7440
  859MOL0     H15965   9.411   6.414  10.984 -1.4966 -0.3243  0.9270
  860MOL0     O15966  10.683   6.306   1.213 -0.4236  0.3204 -1.3298
  860MOL0     C15967  10.780   6.297   1.139  0.2994  0.2211  0.0930
  860MOL0     O15968  10.852   6.398   1.088  0.1216  0.8386  0.1512
  860MOL0     C15969  10.825   6.531   1.116 -0.4583  1.0731 -0.0177
  860MOL0     C15970  10.701   6.587   1.091  0.2654  0.4300 -0.3033
  860MOL0     C15971  10.687   6.727   1.109  0.3052 -0.4656  0.1409
  860MOL0     C15972  10.789   6.807   1.141  0.4516 -0.0914 -0.4820
  860MOL0     O15973  10.779   6.942   1.164 -0.3540 -0.4549 -0.6563
  860MOL0     C15974  10.760   7.025   1.054  0.1538  0.5507  0.0560
  860MOL0     C15975  10.882   7.028   0.963  0.7892  0.1085  0.0416
  860MOL0     C15976  11.000   7.079   1.036  0.2226  0.5415  0.3191
  860MOL0     C15977  11.114   7.105   0.950  0.1788 -0.4666 -0.0684
  860MOL0     C15978  11.244   7.134   1.031  0.2769 -0.1016 -0.2351
  860MOL0     C15979  11.239   7.280   1.081  0.5107  0.0687  0.2784
  860MOL0     C15980  11.360   7.330   1.153  1.1983  0.4640  0.0986
  860MOL0     C15981  11.494   7.259   1.108 -0.6926 -0.1743  0.8094
  860MOL0     N15982  11.608   7.312   1.181 -0.2933  0.3072  0.6792
  860MOL0     C15983  11.607   7.418   1.268  0.0161 -0.7907  0.3009
  860MOL0     C15984  11.735   7.458   1.271 -0.6488 -0.3136  0.2035
  860MOL0     C15985  11.789   7.567   1.354  1.1422 -0.4363 -0.7233
  860MOL0     C15986  11.696   7.624   1.459  0.0381 -0.5720 -0.3140
  860MOL0     C15987  11.620   7.749   1.422  0.0330  0.6816  0.2683
  860MOL0     C15988  11.530   7.795   1.530 -0.1555  0.4034  0.3565
  860MOL0     O15989  11.437   7.693   1.565 -0.0367 -0.0067  0.6141
  860MOL0     C15990  11.331   7.660   1.482 -0.7803  0.1997 -0.1321
  860MOL0     C15991  11.268   7.541   1.510 -0.4271 -0.6307 -0.1400
  860MOL0     C15992  11.159   7.503   1.441  0.2493  0.3713  0.6036
  860MOL0     C15993  11.101   7.581   1.339 -0.1447 -0.0987 -0.5237
  860MOL0     C15994  10.962   7.554   1.282 -0.5185 -0.6126  1.0078
  860MOL0     O15995  10.901   7.650   1.210 -0.1004  0.1648  0.1910
  860MOL0     C15996  10.781   7.616   1.147 -0.3370  0.1210  0.0737
  860MOL0     C15997  10.672   7.710   1.138 -0.0645 -0.0156 -0.3781
  860MOL0     C15998  10.542   7.663   1.106 -0.8526  0.4016 -0.5678
  860MOL0     C15999  10.528   7.524   1.076  0.7640  0.6027  0.1642
  860MOL0     O16000  10.411   7.464   1.043  0.1645 -0.1051 -0.6806
  860MOL0     C16001  10.296   7.555   1.022 -0.0349  0.0072 -0.4666
  860MOL0     C16002  10.196   7.485   0.929  0.1849 -0.0580  0.2683
  860MOL0     C16003  10.058   7.540   0.947 -0.7967 -0.2397 -0.0500
  860MOL0     C16004   9.943   7.454   0.896  0.2035 -0.2212 -1.2376
  860MOL0     C16005   9.822   7.550   0.901  0.9805  0.1484 -0.4257
  860MOL0     C16006   9.755   7.549   1.036 -0.9146  0.6432 -0.0911
  860MOL0     C16007   9.632   7.638   1.028 -0.7089 -0.6136 -0.5226
  860MOL0     C16008   9.543   7.621   1.151  0.4688 -1.0365  0.2746
  860MOL0    Cl16009   9.466   7.782   1.182  0.4935  0.4367 -0.2339
  860MOL0     C16010  10.637   7.443   1.049  0.0453  0.1081  0.2462
  860MOL0     C16011  10.762   7.489   1.080  0.4258  0.7108  0.2395
  860MOL0     O16012  10.903   7.461   1.334 -0.5616 -0.3588  0.9448
  860MOL0     C16013  11.178   7.690   1.298  0.1765 -0.7522  0.6154
  860MOL0     C16014  11.294   7.733   1.365  0.0173  1.1208 -0.1220
  860MOL0     N16015  11.811   7.368   1.196  0.8186  0.8193 -1.0616
  860MOL0     N16016  11.732   7.272   1.150  0.6751  1.1014  0.8292
  860MOL0     C16017  10.911   6.750   1.164  0.4911  0.6087 -0.3664
  860MOL0     C16018  10.924   6.611   1.156  0.0737  0.0662 -0.0470
  860MOL0     C16019  10.797   6.169   1.071 -0.3386 -0.0988  0.3876
  860MOL0     C16020  10.848   6.168   0.940  0.1470 -0.4918 -0.0182
  860MOL0     C16021  10.873   6.051   0.876  0.2453  0.4128  0.1602
  860MOL0     C16022  10.855   5.917   0.930  0.2028 -0.5893 -0.1326
  860MOL0     O16023  10.897   5.799   0.876  0.4392 -0.2326  0.1999
  860MOL0     C16024  10.937   5.807   0.740 -0.1510 -0.0893 -0.2544
  860MOL0     C16025  11.089   5.849   0.726 -0.3737  0.5662  0.0345
  860MOL0     C16026  11.182   5.756   0.812 -0.2816 -0.2692 -0.1456
  860MOL0     C16027  11.328   5.744   0.764  0.2342 -0.4875 -0.3903
  860MOL0     C16028  11.421   5.814   0.858  0.0401 -0.9344 -0.0169
  860MOL0     C16029  11.502   5.873   0.923 -0.0368  0.1545 -0.3293
  860MOL0     C16030  10.804   5.922   1.057  0.4533 -0.8972 -0.2469
  860MOL0     C16031  10.782   6.041   1.130 -1.1062 -0.6711  0.0104
  860MOL0     C16032  10.733   6.021   1.276 -0.2443 -0.0464 -0.5826
  860MOL0     H16033  10.605   6.540   1.070 -1.0758  2.5442  0.7871
  860MOL0     H16034  10.589   6.770   1.089  0.2498 -1.8808 -3.3859
  860MOL0     H16035  10.672   6.987   1.001  0.7984  0.1839 -0.7603
  860MOL0     H16036  10.742   7.130   1.083 -1.0303  0.0241  1.3551
  860MOL0     H16037  10.857   7.087   0.875 -0.2060  0.8135  0.7608
  860MOL0     H16038  10.900   6.928   0.922 -0.7562 -0.8300  1.5026
  860MOL0     H16039  11.039   6.997   1.096 -0.0259 -0.5709 -0.9815
  860MOL0     H16040  10.969   7.164   1.097 -1.4251  0.9941 -1.0507
  860MOL0     H16041  11.128   7.013   0.893 -0.8062 -0.4687 -0.3117
  860MOL0     H16042  11.099   7.188   0.880 -2.1859  0.6141  1.6077
  860MOL0     H16043  11.242   7.071   1.120 -2.6019  0.1875  0.0012
  860MOL0     H16044  11.333   7.113   0.971  0.8783  1.9660 -0.1322
  860MOL0     H16045  11.241   7.344   0.992  2.9663 -0.2811 -0.0006
  860MOL0     H16046  11.145   7.297   1.135 -1.1020 -1.2992 -1.9490
  860MOL0     H16047  11.341   7.315   1.260 -0.6122  2.9070  0.2086
  860MOL0     H16048  11.372   7.438   1.138  0.8997  0.5925  0.7314
  860MOL0     H16049  11.498   7.150   1.108 -0.3276 -0.1922 -1.3655
  860MOL0     H16050  11.515   7.280   1.003  2.2966 -2.3899  0.8362
  860MOL0     H16051  11.522   7.461   1.319 -1.2437 -2.2944 -0.4446
  860MOL0     H16052  11.875   7.519   1.403  0.8902 -0.5801 -0.4250
  860MOL0     H16053  11.829   7.647   1.291 -3.1072  2.8689  0.3759
  860MOL0     H16054  11.620   7.547   1.475 -2.5298  2.0268  0.8121
  860MOL0     H16055  11.748   7.636   1.555 -1.1058 -2.4147  0.6044
  860MOL0     H16056  11.565   7.723   1.331  4.1083 -2.0750 -1.6995
  860MOL0     H16057  11.691   7.830   1.401  1.0817 -0.6254 -1.5274
  860MOL0     H16058  11.481   7.891   1.510 -4.4260 -1.1972  1.8926
  860MOL0     H16059  11.587   7.815   1.621 -1.0329  0.8042  0.8364
  860MOL0     H16060  11.289   7.492   1.604 -0.6480  0.3156  0.4057
  860MOL0     H16061  11.103   7.414   1.469  0.3523 -0.7288 -2.3486
  860MOL0     H16062  10.696   7.813   1.163 -0.7576  0.3648 -1.2164
  860MOL0     H16063  10.454   7.726   1.114  0.2455  1.8228  0.8757
  860MOL0     H16064  10.253   7.568   1.122  2.6416  0.8733  0.6572
  860MOL0     H16065  10.324   7.651   0.978  0.0684  0.0119 -0.3897
  860MOL0     H16066  10.233   7.486   0.826 -1.8747 -2.3964 -0.6010
  860MOL0     H16067  10.194   7.383   0.970  1.3163 -0.3902 -0.4332
  860MOL0     H16068  10.049   7.563   1.054  2.2427  2.2027 -0.1971
  860MOL0     H16069  10.069   7.629   0.886 -0.3362 -0.6374 -0.5549
  860MOL0     H16070   9.925   7.372   0.966  0.0971  1.9218  1.4365
  860MOL0     H16071   9.962   7.420   0.794  0.0549 -0.2253 -1.2639
  860MOL0     H16072   9.743   7.510   0.837 -0.2521  0.1625  1.0383
  860MOL0     H16073   9.844   7.651   0.864 -0.9359  0.1451 -1.7173
  860MOL0     H16074   9.728   7.445   1.052 -1.2800  0.8623  0.7663
  860MOL0     H16075   9.822   7.586   1.114  0.9887 -0.4733 -1.1244
  860MOL0     H16076   9.576   7.617   0.936 -1.4851  1.4412 -0.5693
  860MOL0     H16077   9.673   7.739   1.017  2.5063 -1.8023 -0.5192
  860MOL0     H16078   9.467   7.545   1.128 -0.3676  0.1353 -1.0400
  860MOL0     H16079   9.598   7.601   1.244  1.0135 -0.5066  0.0707
  860MOL0     H16080  10.624   7.348   0.999 -0.1165  0.9243 -1.3332
  860MOL0     H16081  10.845   7.423   1.061 -0.1963 -0.4138  1.3112
  860MOL0     H16082  11.138   7.758   1.223  2.5582  1.9727  1.6464
  860MOL0     H16083  11.349   7.820   1.332  1.7322  0.6318  1.3020
  860MOL0     H16084  10.995   6.816   1.184  0.9652  0.8128 -2.7049
  860MOL0     H16085  11.027   6.578   1.154  0.3388  0.8831 -0.1967
  860MOL0     H16086  10.870   6.260   0.887  1.2401  0.3818  1.8583
  860MOL0     H16087  10.917   6.072   0.779  1.3926 -2.2549  0.0058
  860MOL0     H16088  10.874   5.880   0.687 -0.6415  0.0281  0.4743
  860MOL0     H16089  10.926   5.709   0.694  1.1089 -2.0071  3.1562
  860MOL0     H16090  11.105   5.953   0.754 -1.2207  1.1661 -1.5592
  860MOL0     H16091  11.112   5.840   0.619  0.1412 -0.7830  0.2393
  860MOL0     H16092  11.138   5.657   0.824  0.3247 -0.3995  1.2283
  860MOL0     H16093  11.181   5.799   0.913  2.3301  0.1770 -0.2305
  860MOL0     H16094  11.360   5.641   0.747  1.2526  0.0552 -1.9651
  860MOL0     H16095  11.329   5.790   0.665 -0.1187 -0.3419 -0.3310
  860MOL0     H16096  11.586   5.920   0.970 -0.4172 -0.0803  0.6104
  860MOL0     H16097  10.787   5.828   1.109  0.5454 -0.9344 -0.2850
  860MOL0     H16098  10.628   5.991   1.284 -0.3558  0.6465  0.7742
  860MOL0     H16099  10.795   5.946   1.327 -0.0820 -1.1359 -2.2942
  860MOL0     H16100  10.741   6.117   1.327  0.6184  0.7322 -2.1056
  861MOL0     O16101   9.128   5.954   3.214 -0.7615  0.1463  0.1864
  861MOL0     C16102   9.126   6.075   3.220 -0.5869  0.7113  0.7481
  861MOL0     O16103   9.221   6.158   3.175  0.0329  0.4400  0.3811
  861MOL0     C16104   9.355   6.116   3.163  0.1484  0.1943 -0.1550
  861MOL0     C16105   9.460   6.183   3.228  1.2365 -0.4192  0.2315
  861MOL0     C16106   9.590   6.158   3.198 -0.0342 -0.6495  0.1988
  861MOL0     C16107   9.630   6.063   3.111  0.0427  0.6757 -0.6338
  861MOL0     O16108   9.765   6.046   3.095 -0.3906  0.2312 -0.4302
  861MOL0     C16109   9.818   5.933   3.013  0.0078  0.4737  0.2606
  861MOL0     C16110   9.969   5.932   2.991  0.7005  0.5721 -1.1110
  861MOL0     C16111  10.045   5.975   3.121  0.8661 -0.2948  0.3743
  861MOL0     C16112  10.011   5.885   3.248 -0.6529 -0.4962  1.1322
  861MOL0     C16113  10.123   5.856   3.348  0.0145 -0.0587  0.4389
  861MOL0     C16114  10.176   5.985   3.416 -0.0553  0.0697  0.2700
  861MOL0     C16115  10.319   5.959   3.454 -0.1146 -0.3270  0.1495
  861MOL0     C16116  10.422   5.971   3.334 -0.4291  0.4548  0.3642
  861MOL0     N16117  10.531   5.869   3.326  0.5342  0.1889 -0.3401
  861MOL0     C16118  10.627   5.857   3.229 -0.1102 -0.6053 -0.1758
  861MOL0     C16119  10.720   5.765   3.278  0.8343 -0.6339 -0.6515
  861MOL0     C16120  10.845   5.699   3.223 -1.1594 -0.6404 -0.4269
  861MOL0     C16121  10.969   5.777   3.275  0.9087  0.0708  0.3944
  861MOL0     C16122  10.998   5.917   3.207  0.3612 -0.2789 -0.6865
  861MOL0     C16123  11.140   5.960   3.233  0.5854 -0.0585  0.4698
  861MOL0     O16124  11.222   5.857   3.170  0.0721  0.3894 -0.2884
  861MOL0     C16125  11.355   5.865   3.162 -0.6918 -0.4842  0.1045
  861MOL0     C16126  11.422   5.956   3.252 -0.4853 -0.1859  1.4890
  861MOL0     C16127  11.562   5.948   3.257 -0.2684  0.5378  0.2204
  861MOL0     C16128  11.631   5.844   3.193  0.1121  0.2262 -0.0693
  861MOL0     C16129  11.777   5.820   3.223  0.4125 -0.0299  0.3630
  861MOL0     O16130  11.857   5.916   3.280  0.1930 -0.2825  0.0148
  861MOL0     C16131  11.983   5.883   3.318 -0.2459  0.2433  0.0272
  861MOL0     C16132  12.093   5.954   3.278 -0.6616  0.1567 -0.5955
  861MOL0     C16133  12.224   5.926   3.320  0.5199  0.0511 -0.3118
  861MOL0     C16134  12.243   5.821   3.417 -0.2880 -0.3764  0.4252
  861MOL0     O16135  12.366   5.793   3.474 -0.6869  0.1313 -0.3615
  861MOL0     C16136  12.454   5.725   3.388  0.4775 -0.3113  0.0693
  861MOL0     C16137  12.566   5.669   3.470  0.1987 -0.2761  0.5469
  861MOL0     C16138  12.654   5.784   3.528 -0.5627  0.6010 -0.9848
  861MOL0     C16139  12.792   5.737   3.549 -0.3091 -1.2375 -1.0252
  861MOL0     C16140  12.878   5.842   3.622 -0.4846  0.1064  1.0097
  861MOL0     C16141  13.024   5.805   3.625 -0.0589  0.2323 -0.0299
  861MOL0     C16142  13.120   5.893   3.711  1.0815 -0.0144 -0.2018
  861MOL0     C16143  13.263   5.860   3.655  0.3965 -0.5032  0.3306
  861MOL0    Cl16144  13.374   5.936   3.765  0.2171 -0.3359  0.1852
  861MOL0     C16145  12.128   5.750   3.457  0.4791  0.0579  0.8984
  861MOL0     C16146  12.003   5.775   3.407 -0.2371 -0.4808 -1.2152
  861MOL0     O16147  11.816   5.712   3.190  0.2564  0.7009  0.7818
  861MOL0     C16148  11.556   5.765   3.102  0.3028  0.1640 -0.3167
  861MOL0     C16149  11.422   5.775   3.091 -0.6019 -0.6488  0.3774
  861MOL0     N16150  10.669   5.722   3.396  0.1258  0.4478  0.0313
  861MOL0     N16151  10.567   5.790   3.424 -0.1229  0.0025 -0.5065
  861MOL0     C16152   9.527   5.981   3.063  0.2947 -0.6450  0.3694
  861MOL0     C16153   9.391   6.013   3.077  0.0157  0.1865 -0.4158
  861MOL0     C16154   9.003   6.144   3.268  1.1061  0.5319  0.8039
  861MOL0     C16155   9.010   6.284   3.293 -0.1686  0.4453 -0.4184
  861MOL0     C16156   8.903   6.351   3.359  0.8508  0.2272  0.2203
  861MOL0     C16157   8.785   6.281   3.394 -0.9930  0.3457  0.3607
  861MOL0     O16158   8.665   6.335   3.430 -0.1883 -0.6471 -0.5580
  861MOL0     C16159   8.661   6.480   3.427  0.0257 -0.5431  0.9385
  861MOL0     C16160   8.519   6.531   3.442 -0.0617  0.6236  0.4014
  861MOL0     C16161   8.520   6.686   3.448 -0.2723  0.5260  0.3838
  861MOL0     C16162   8.395   6.739   3.502  0.1736 -0.1251  0.0653
  861MOL0     C16163   8.276   6.715   3.420 -0.4291  0.3511  0.0294
  861MOL0     C16164   8.177   6.707   3.355 -0.2662  0.6260  0.5000
  861MOL0     C16165   8.774   6.146   3.343 -0.1161 -0.2256  0.1803
  861MOL0     C16166   8.878   6.075   3.271 -0.2654 -0.8749 -1.1652
  861MOL0     C16167   8.848   5.942   3.207  0.3213 -0.5452 -0.7410
  861MOL0     H16168   9.450   6.264   3.300 -3.0916 -0.9068  0.4611
  861MOL0     H16169   9.661   6.224   3.246  0.1065 -1.5253  1.2196
  861MOL0     H16170   9.778   5.837   3.048  1.1647 -0.5721 -1.1298
  861MOL0     H16171   9.774   5.941   2.913  0.8207  0.0032 -0.1457
  861MOL0     H16172   9.996   5.989   2.901  2.4070 -2.1837 -2.5155
  861MOL0     H16173  10.010   5.841   2.945  2.5360  0.8085 -0.0032
  861MOL0     H16174  10.022   6.080   3.138  3.2934  0.8552 -2.5437
  861MOL0     H16175  10.154   5.978   3.108  0.9572 -2.5252  0.1528
  861MOL0     H16176   9.925   5.926   3.302 -0.4021  1.8647 -0.1292
  861MOL0     H16177   9.979   5.787   3.210 -0.6873  0.0423 -0.2796
  861MOL0     H16178  10.101   5.781   3.424  1.1532  1.4874  2.4108
  861MOL0     H16179  10.204   5.814   3.287 -0.3617  0.5959 -0.5384
  861MOL0     H16180  10.166   6.075   3.354  0.9030 -0.4199 -0.6107
  861MOL0     H16181  10.119   6.001   3.508  0.8206 -2.1130  1.2528
  861MOL0     H16182  10.323   5.861   3.503 -0.9128 -0.7020 -0.5041
  861MOL0     H16183  10.349   6.031   3.530 -0.9812 -0.0096  0.1994
  861MOL0     H16184  10.365   5.964   3.240 -0.1659 -3.6836  0.3254
  861MOL0     H16185  10.471   6.069   3.341  0.5222  0.1228 -1.0403
  861MOL0     H16186  10.642   5.904   3.133 -0.1447  0.0790  0.1425
  861MOL0     H16187  10.851   5.592   3.248  0.4816 -0.3638  0.5101
  861MOL0     H16188  10.846   5.706   3.114  1.7655 -1.7805 -0.5881
  861MOL0     H16189  10.951   5.784   3.382  0.5753 -2.2413  0.5487
  861MOL0     H16190  11.060   5.715   3.267  1.3933  0.8077  0.0653
  861MOL0     H16191  10.923   5.990   3.239  0.6300  0.3955 -1.5345
  861MOL0     H16192  10.972   5.904   3.101 -1.0589 -0.1788 -0.3719
  861MOL0     H16193  11.162   5.970   3.340 -0.2637  1.7890  0.5273
  861MOL0     H16194  11.150   6.061   3.191 -2.5969 -0.3726 -1.3958
  861MOL0     H16195  11.367   6.028   3.311 -1.4401  2.1244 -1.9066
  861MOL0     H16196  11.609   6.026   3.317 -2.7121  1.2636  1.3481
  861MOL0     H16197  12.079   6.036   3.209 -0.2851 -1.4684 -2.6912
  861MOL0     H16198  12.309   5.989   3.297  0.5738  0.3930  0.7685
  861MOL0     H16199  12.400   5.647   3.333  0.1031  0.6385 -0.9255
  861MOL0     H16200  12.497   5.794   3.316 -0.6495  1.9138  1.4273
  861MOL0     H16201  12.538   5.601   3.551  1.0780  1.7326  2.6664
  861MOL0     H16202  12.625   5.613   3.397  1.4150 -0.0101  1.3017
  861MOL0     H16203  12.641   5.879   3.476 -1.1306 -0.5331 -2.9975
  861MOL0     H16204  12.624   5.807   3.631 -2.7596 -0.7210 -1.2526
  861MOL0     H16205  12.840   5.711   3.454  0.8852  0.8817 -1.0647
  861MOL0     H16206  12.791   5.641   3.601 -1.0563 -0.9712 -0.5234
  861MOL0     H16207  12.846   5.835   3.727  0.7444  1.5999  1.5203
  861MOL0     H16208  12.856   5.943   3.587 -2.0030 -0.1365  1.1813
  861MOL0     H16209  13.041   5.716   3.685  1.0899  0.6362  0.2602
  861MOL0     H16210  13.066   5.786   3.525 -0.9763  0.8196 -0.5446
  861MOL0     H16211  13.123   5.875   3.819  1.5161  2.8725  0.3516
  861MOL0     H16212  13.091   5.996   3.690  1.6585 -0.1543 -1.7638
  861MOL0     H16213  13.277   5.752   3.654  2.8793 -0.2966  2.2706
  861MOL0     H16214  13.268   5.878   3.547 -2.9392 -1.9489 -0.1935
  861MOL0     H16215  12.151   5.674   3.531  1.3550 -1.7666 -1.1154
  861MOL0     H16216  11.924   5.716   3.452 -0.2998 -0.3346 -1.1334
  861MOL0     H16217  11.610   5.684   3.054  0.1358 -0.3852  0.4189
  861MOL0     H16218  11.372   5.690   3.046  1.6704 -2.7171  1.5184
  861MOL0     H16219   9.565   5.902   2.999 -0.8843  0.0907 -1.3327
  861MOL0     H16220   9.318   5.948   3.030 -1.1931  0.9429  0.3709
  861MOL0     H16221   9.102   6.340   3.277 -1.0286  1.9068 -0.3301
  861MOL0     H16222   8.899   6.458   3.377  0.0526  0.3626 -0.6692
  861MOL0     H16223   8.707   6.525   3.339 -0.6076 -0.1987  0.7790
  861MOL0     H16224   8.721   6.507   3.515  0.1101  0.7228  0.5040
  861MOL0     H16225   8.470   6.491   3.531 -0.2624 -0.6013 -0.2311
  861MOL0     H16226   8.464   6.500   3.353  1.7039 -2.8958  0.3840
  861MOL0     H16227   8.543   6.722   3.347 -0.2156  1.0871  0.5901
  861MOL0     H16228   8.602   6.733   3.503  1.5386  0.6240 -2.2099
  861MOL0     H16229   8.391   6.697   3.602  3.3075  0.0443  0.3730
  861MOL0     H16230   8.400   6.847   3.515 -3.9912  0.0885  1.1193
  861MOL0     H16231   8.089   6.700   3.295 -1.9208  1.3133  2.6953
  861MOL0     H16232   8.681   6.091   3.356  0.5072 -1.4924 -0.4894
  861MOL0     H16233   8.896   5.956   3.110  0.1000  0.5720 -0.6967
  861MOL0     H16234   8.878   5.856   3.269  0.3197 -1.7034 -2.2833
  861MOL0     H16235   8.743   5.938   3.177 -0.1316  2.3282  0.1744
  862MOL0     O16236   4.164   7.823   5.206 -0.8684 -0.1327  0.3375
  862MOL0     C16237   4.109   7.762   5.300 -0.1035 -0.0003  0.1112
  862MOL0     O16238   4.156   7.764   5.434 -0.1339  1.1313  0.5167
  862MOL0     C16239   4.267   7.834   5.452  0.1205 -0.3875 -0.3272
  862MOL0     C16240   4.384   7.763   5.466  0.1343 -0.7391  0.1787
  862MOL0     C16241   4.504   7.832   5.506  0.4352 -0.2152 -0.4131
  862MOL0     C16242   4.495   7.969   5.544 -1.0501 -0.0595  0.3004
  862MOL0     O16243   4.617   8.032   5.567 -0.5491  0.0389  0.1870
  862MOL0     C16244   4.690   7.990   5.686  0.3652  1.1794  0.1552
  862MOL0     C16245   4.805   8.091   5.702 -0.1689 -0.5912  0.0178
  862MOL0     C16246   4.914   8.025   5.795 -0.2592 -0.2749  0.3518
  862MOL0     C16247   5.018   8.122   5.843  0.0141  0.9831  0.5009
  862MOL0     C16248   5.143   8.125   5.755  0.0390  0.2923  1.0718
  862MOL0     C16249   5.272   8.152   5.824 -0.6753  0.5022  0.7410
  862MOL0     C16250   5.367   8.192   5.710 -1.0078  0.0635 -0.7224
  862MOL0     C16251   5.498   8.247   5.768  0.4706  0.2253 -0.5329
  862MOL0     N16252   5.578   8.133   5.812  0.1536 -0.2379  0.6579
  862MOL0     C16253   5.669   8.058   5.745  0.4452  0.4308  1.0455
  862MOL0     C16254   5.719   7.962   5.830  0.0928 -0.1382 -0.3131
  862MOL0     C16255   5.810   7.858   5.787 -0.7989 -0.1556 -0.0509
  862MOL0     C16256   5.954   7.865   5.849  0.5037  0.7170 -0.1252
  862MOL0     C16257   6.032   7.987   5.808  0.4260 -0.1403  0.2931
  862MOL0     C16258   6.185   7.970   5.815 -0.8373 -0.3297 -0.7856
  862MOL0     O16259   6.217   7.939   5.956 -0.6843 -0.4713  0.0770
  862MOL0     C16260   6.336   7.978   6.003 -0.0572 -0.3697 -0.6561
  862MOL0     C16261   6.356   7.948   6.135  0.0945 -0.2409 -0.3340
  862MOL0     C16262   6.476   7.967   6.215  0.0186 -0.4637  0.4975
  862MOL0     C16263   6.596   8.019   6.148  0.2704  0.3058  0.6220
  862MOL0     C16264   6.731   8.025   6.216  0.4834  0.0240 -0.6346
  862MOL0     O16265   6.739   7.969   6.340 -0.2795  0.6376 -0.3562
  862MOL0     C16266   6.854   7.997   6.419 -0.0272 -0.8100 -0.0125
  862MOL0     C16267   6.891   8.126   6.454 -0.2357  0.4541  0.3779
  862MOL0     C16268   7.011   8.151   6.518 -0.0733  0.0074  0.6450
  862MOL0     C16269   7.096   8.046   6.567  0.5989 -1.1704  0.3039
  862MOL0     O16270   7.199   8.081   6.651  0.5001  0.2163 -0.1396
  862MOL0     C16271   7.320   7.999   6.631  0.2819  0.0221 -0.6092
  862MOL0     C16272   7.449   8.077   6.667 -0.5765  0.0154  0.0395
  862MOL0     C16273   7.461   8.106   6.813 -0.1137 -0.2969 -0.2712
  862MOL0     C16274   7.603   8.124   6.861 -0.3285 -0.3177 -0.5384
  862MOL0     C16275   7.623   8.102   7.015  0.4082 -0.5185  0.0500
  862MOL0     C16276   7.764   8.095   7.050 -1.0457  0.4063 -0.5154
  862MOL0     C16277   7.772   8.067   7.203  0.0543  0.6151  0.3751
  862MOL0     C16278   7.913   8.091   7.257  0.2023 -0.5919  0.0962
  862MOL0    Cl16279   8.026   7.958   7.209 -0.1514 -0.4605  0.3996
  862MOL0     C16280   7.056   7.916   6.532  0.3194 -0.9131 -0.1301
  862MOL0     C16281   6.941   7.890   6.452  0.4001  0.3476 -0.0096
  862MOL0     O16282   6.814   8.093   6.161 -0.7318  0.3144 -0.5151
  862MOL0     C16283   6.572   8.062   6.012  0.1938 -0.8110 -0.4705
  862MOL0     C16284   6.458   8.023   5.941  0.2831 -0.3239  1.2195
  862MOL0     N16285   5.659   7.990   5.954  0.2492  0.3936 -0.3356
  862MOL0     N16286   5.593   8.094   5.946 -0.0378  0.0141  0.5145
  862MOL0     C16287   4.375   8.043   5.532  0.4252  0.0184  0.0348
  862MOL0     C16288   4.262   7.972   5.485 -0.3159 -0.1429 -0.5390
  862MOL0     C16289   3.990   7.670   5.269 -0.2701 -0.3557  0.3698
  862MOL0     C16290   3.940   7.602   5.387  0.2704 -0.6533  0.5760
  862MOL0     C16291   3.826   7.516   5.377 -0.5491 -1.0760  0.2253
  862MOL0     C16292   3.763   7.495   5.258  0.8991 -0.6457  0.0537
  862MOL0     O16293   3.658   7.410   5.243  0.6015 -0.4111  0.0596
  862MOL0     C16294   3.579   7.395   5.360 -0.4482  1.0003  0.2699
  862MOL0     C16295   3.514   7.519   5.426 -0.2361  0.7567 -0.0472
  862MOL0     C16296   3.397   7.564   5.349 -0.0923  0.5650 -0.5810
  862MOL0     C16297   3.378   7.714   5.350  0.2962  0.4110  0.6266
  862MOL0     C16298   3.476   7.790   5.273  0.0334  0.1730 -0.6852
  862MOL0     C16299   3.558   7.846   5.206 -0.0363 -0.0768  1.1097
  862MOL0     C16300   3.807   7.556   5.146  0.3698  0.7414 -0.0141
  862MOL0     C16301   3.912   7.645   5.150 -0.7727 -0.0358 -0.0034
  862MOL0     C16302   3.948   7.716   5.026  0.4165  0.0536  0.5439
  862MOL0     H16303   4.394   7.658   5.438 -1.4423 -1.1739  1.1490
  862MOL0     H16304   4.595   7.773   5.509  3.1750  3.6663  1.6390
  862MOL0     H16305   4.627   7.995   5.775 -0.2463 -0.9185 -0.1094
  862MOL0     H16306   4.733   7.891   5.671  1.8472  1.2151  3.4782
  862MOL0     H16307   4.771   8.184   5.748  2.9435 -0.3019  1.9832
  862MOL0     H16308   4.862   8.115   5.613  1.4117 -0.6860  0.9644
  862MOL0     H16309   4.960   7.953   5.727 -0.4139 -0.7218  0.7137
  862MOL0     H16310   4.870   7.970   5.879  0.0353 -0.7203  0.2196
  862MOL0     H16311   4.972   8.221   5.840 -1.7182  0.2301 -2.9567
  862MOL0     H16312   5.050   8.094   5.943  0.6135 -1.0081 -0.2050
  862MOL0     H16313   5.154   8.032   5.698 -0.4898  1.8560 -1.7767
  862MOL0     H16314   5.124   8.204   5.682 -0.2707 -0.4621  0.3266
  862MOL0     H16315   5.275   8.238   5.892 -1.1498  0.2279  1.1151
  862MOL0     H16316   5.307   8.058   5.870  1.2670  0.0200 -1.5434
  862MOL0     H16317   5.321   8.263   5.641  0.3270 -0.8436 -2.6425
  862MOL0     H16318   5.392   8.107   5.646  0.2651  1.6416 -2.4557
  862MOL0     H16319   5.550   8.303   5.690  1.6896 -0.8948 -0.5569
  862MOL0     H16320   5.486   8.319   5.850  0.8583  0.0943 -0.3581
  862MOL0     H16321   5.699   8.051   5.641  1.4234 -0.7177  1.3878
  862MOL0     H16322   5.781   7.758   5.823 -1.1675 -0.2400 -0.5706
  862MOL0     H16323   5.823   7.849   5.679 -1.6454  3.2386 -0.5384
  862MOL0     H16324   5.939   7.857   5.958  1.6023 -2.5137 -0.1145
  862MOL0     H16325   6.004   7.772   5.821 -0.4730  0.1637 -0.1157
  862MOL0     H16326   6.002   8.070   5.873 -3.2266 -1.2211  0.2714
  862MOL0     H16327   6.012   8.017   5.705  0.2338 -2.9435 -0.5743
  862MOL0     H16328   6.220   8.071   5.791 -4.5350  0.7014 -2.4041
  862MOL0     H16329   6.225   7.897   5.744  0.5877 -1.7196  1.3195
  862MOL0     H16330   6.263   7.908   6.175 -1.3231  2.3348 -0.8713
  862MOL0     H16331   6.474   7.931   6.317  0.9519 -0.1448  0.6338
  862MOL0     H16332   6.828   8.209   6.423  0.3596  1.0677  0.7803
  862MOL0     H16333   7.040   8.254   6.538 -1.3652  0.7242 -0.9638
  862MOL0     H16334   7.319   7.912   6.698  0.2356  1.1111  0.8491
  862MOL0     H16335   7.331   7.966   6.527 -0.6267  0.5357 -0.8809
  862MOL0     H16336   7.532   8.017   6.627 -1.1937 -3.3788  3.3385
  862MOL0     H16337   7.432   8.176   6.623 -2.0594 -0.4874 -0.5819
  862MOL0     H16338   7.399   8.189   6.847 -2.0246 -1.2603 -1.1701
  862MOL0     H16339   7.426   8.015   6.863 -1.7231  1.0628  1.2001
  862MOL0     H16340   7.646   8.217   6.823 -0.2657 -0.6436 -1.2777
  862MOL0     H16341   7.658   8.042   6.814  2.0718  0.3815  0.8619
  862MOL0     H16342   7.581   8.006   7.045 -1.0690  1.0317  3.4550
  862MOL0     H16343   7.567   8.180   7.066  0.5851 -1.3084  1.5147
  862MOL0     H16344   7.809   8.016   6.990 -1.4764  0.0875 -0.4268
  862MOL0     H16345   7.809   8.191   7.026 -3.5678  2.6102  2.7281
  862MOL0     H16346   7.739   7.966   7.231  0.0289  0.0296 -1.6417
  862MOL0     H16347   7.694   8.131   7.247 -1.2756 -0.4418 -0.3810
  862MOL0     H16348   7.948   8.189   7.222  0.4985 -0.7860 -0.1442
  862MOL0     H16349   7.924   8.108   7.365  2.6466  2.2205 -0.4625
  862MOL0     H16350   7.106   7.833   6.581  1.1184 -0.8957 -0.9001
  862MOL0     H16351   6.910   7.786   6.448  1.9128 -0.0975 -0.5195
  862MOL0     H16352   6.651   8.119   5.964  0.1976 -0.2469  0.1838
  862MOL0     H16353   6.460   8.035   5.833  0.7359  1.4620  1.3897
  862MOL0     H16354   4.373   8.149   5.554 -0.6624 -0.0466  0.3296
  862MOL0     H16355   4.164   8.017   5.493 -0.3519 -0.5857  2.7176
  862MOL0     H16356   3.984   7.615   5.485  1.5765 -2.0367  0.2099
  862MOL0     H16357   3.788   7.465   5.465 -3.3793 -3.3877 -2.1398
  862MOL0     H16358   3.637   7.352   5.442 -1.2695  1.5149  1.1445
  862MOL0     H16359   3.505   7.317   5.341 -0.2326  0.7217  0.5640
  862MOL0     H16360   3.584   7.601   5.441 -1.2699  1.4323  1.2560
  862MOL0     H16361   3.479   7.502   5.529 -1.9138  1.8823 -0.4155
  862MOL0     H16362   3.300   7.528   5.385 -0.5409  0.9472 -1.3878
  862MOL0     H16363   3.407   7.523   5.248  1.2653 -2.7261  0.7371
  862MOL0     H16364   3.287   7.740   5.294  1.4903  1.3674 -0.9273
  862MOL0     H16365   3.376   7.744   5.456 -1.3614 -0.2438  0.8149
  862MOL0     H16366   3.618   7.910   5.145  0.6078  0.1919  1.9948
  862MOL0     H16367   3.765   7.525   5.051  1.6357  0.4598 -0.4990
  862MOL0     H16368   4.055   7.715   5.004  0.4470  3.4903 -0.0289
  862MOL0     H16369   3.878   7.683   4.948 -0.7420  0.3218  1.4412
  862MOL0     H16370   3.931   7.822   5.046  0.1718 -0.0982  1.1631
  863MOL0     O16371   6.479  11.261   2.229  0.6412  0.5978 -0.3816
  863MOL0     C16372   6.377  11.324   2.267 -0.2941  0.1287  0.0713
  863MOL0     O16373   6.380  11.404   2.374 -0.3446 -0.7104  0.1316
  863MOL0     C16374   6.506  11.416   2.430  0.2090  0.3354 -0.1315
  863MOL0     C16375   6.520  11.350   2.552  0.3496  0.4549 -0.3755
  863MOL0     C16376   6.627  11.367   2.643 -0.3745  0.0911  0.9430
  863MOL0     C16377   6.724  11.458   2.606 -0.9374  0.3479 -0.0574
  863MOL0     O16378   6.831  11.489   2.689  0.1439  0.1891  0.2857
  863MOL0     C16379   6.786  11.545   2.807  0.1525 -0.2826  0.0363
  863MOL0     C16380   6.910  11.595   2.887  0.0504  0.6571 -0.6159
  863MOL0     C16381   6.983  11.481   2.956  0.7626  0.1048 -0.3636
  863MOL0     C16382   7.117  11.528   3.007  0.0602 -0.2635 -0.1917
  863MOL0     C16383   7.192  11.422   3.089  0.4305 -0.8594 -0.1393
  863MOL0     C16384   7.314  11.494   3.140  0.4580  0.0949 -0.0920
  863MOL0     C16385   7.408  11.402   3.223 -0.1152 -0.9447 -0.3791
  863MOL0     C16386   7.456  11.288   3.140  0.6239  0.3724 -0.4393
  863MOL0     N16387   7.523  11.195   3.233  0.0587 -1.1047  0.3238
  863MOL0     C16388   7.657  11.209   3.280  0.2690 -0.4748  0.9953
  863MOL0     C16389   7.678  11.118   3.381  0.0192  0.2167 -0.7253
  863MOL0     C16390   7.798  11.112   3.476  0.3301 -0.1836  0.5877
  863MOL0     C16391   7.885  10.988   3.444 -0.1700 -0.4055 -0.5945
  863MOL0     C16392   7.917  10.905   3.570  0.4552 -0.6781  0.4324
  863MOL0     C16393   7.997  10.775   3.553  0.2061 -0.5031  0.0675
  863MOL0     O16394   8.127  10.793   3.484  0.0879  0.8004 -0.3543
  863MOL0     C16395   8.213  10.691   3.494  0.2258 -0.0657  0.4531
  863MOL0     C16396   8.178  10.568   3.556 -0.8182 -0.4661 -0.9710
  863MOL0     C16397   8.282  10.471   3.571  0.4389  0.1522  0.1785
  863MOL0     C16398   8.410  10.498   3.529  0.3566 -0.4980  0.1745
  863MOL0     C16399   8.517  10.398   3.539 -0.6278 -0.9517  0.9166
  863MOL0     O16400   8.604  10.398   3.432  0.3371  0.3166  0.2098
  863MOL0     C16401   8.719  10.327   3.451 -0.3019  0.1946 -0.4101
  863MOL0     C16402   8.829  10.386   3.502  0.1714 -0.3063  0.1728
  863MOL0     C16403   8.947  10.318   3.522 -0.7014  0.9507  0.5132
  863MOL0     C16404   8.948  10.178   3.496 -0.6780  0.9472 -0.5962
  863MOL0     O16405   9.066  10.110   3.522 -0.2123  0.0332  0.1241
  863MOL0     C16406   9.093  10.004   3.430  0.8397  0.1620 -0.2234
  863MOL0     C16407   9.229   9.929   3.459 -0.3780  1.4758  0.2246
  863MOL0     C16408   9.352   9.989   3.389  0.7957 -0.3184  0.4532
  863MOL0     C16409   9.481   9.942   3.439 -0.6355  0.0193  0.2532
  863MOL0     C16410   9.494   9.792   3.431 -0.4108  0.1096  1.1878
  863MOL0     C16411   9.637   9.747   3.446 -0.7574 -0.0153 -0.2807
  863MOL0     C16412   9.739   9.780   3.333 -0.2775  0.5866 -0.3693
  863MOL0     C16413   9.705   9.735   3.195 -0.2100 -0.6856 -0.8365
  863MOL0    Cl16414   9.752   9.556   3.185  0.3816  0.1836 -0.2973
  863MOL0     C16415   8.830  10.118   3.439 -1.0007  0.1950  1.1565
  863MOL0     C16416   8.716  10.194   3.416  0.5541 -0.5843 -0.2407
  863MOL0     O16417   8.514  10.325   3.635 -0.5415 -0.1433  0.5272
  863MOL0     C16418   8.440  10.617   3.466 -0.2562  1.0429 -0.0024
  863MOL0     C16419   8.343  10.711   3.444  0.6313 -0.3153 -1.4123
  863MOL0     N16420   7.557  11.052   3.399  0.1304  0.0564 -0.0562
  863MOL0     N16421   7.480  11.090   3.303  0.5689  0.6604  0.0014
  863MOL0     C16422   6.712  11.530   2.476 -0.6111 -0.1206  0.2575
  863MOL0     C16423   6.607  11.501   2.388  0.4041  0.8798 -0.1702
  863MOL0     C16424   6.250  11.297   2.194 -0.0546 -0.1203  0.4700
  863MOL0     C16425   6.247  11.185   2.105  1.3096 -0.0200 -0.5155
  863MOL0     C16426   6.122  11.154   2.036 -0.4479  0.2765 -0.5165
  863MOL0     C16427   6.015  11.229   2.049  0.2013 -0.2109  0.3514
  863MOL0     O16428   5.893  11.189   1.996  0.5606 -0.0260  0.5965
  863MOL0     C16429   5.768  11.251   2.044  1.0430  0.4369 -0.1665
  863MOL0     C16430   5.713  11.336   1.938  0.8497  0.1497  0.5214
  863MOL0     C16431   5.571  11.388   1.956  0.9783  0.9576  0.3294
  863MOL0     C16432   5.556  11.485   2.073  0.3776 -0.8434 -0.1277
  863MOL0     C16433   5.412  11.518   2.100 -0.2934  0.8116 -0.2197
  863MOL0     C16434   5.296  11.528   2.140  0.0377 -0.0929  1.1520
  863MOL0     C16435   6.023  11.345   2.125 -0.2702  0.2361 -0.2947
  863MOL0     C16436   6.135  11.377   2.206  0.0238  0.2846  0.7049
  863MOL0     C16437   6.124  11.498   2.291 -0.3695 -0.3704 -0.6198
  863MOL0     H16438   6.443  11.275   2.568 -0.8303  1.7540  0.2583
  863MOL0     H16439   6.634  11.303   2.731  3.0655  2.4353  2.6480
  863MOL0     H16440   6.723  11.630   2.778 -0.5841 -0.1288  1.9480
  863MOL0     H16441   6.732  11.475   2.871  0.2023 -0.1485  0.2295
  863MOL0     H16442   6.883  11.677   2.955  1.3403  1.8260 -1.4634
  863MOL0     H16443   6.986  11.625   2.815 -0.1060 -3.8619 -3.0202
  863MOL0     H16444   6.994  11.390   2.897  1.1610 -0.7859  1.0248
  863MOL0     H16445   6.923  11.456   3.044 -0.1895  0.7809 -0.8078
  863MOL0     H16446   7.178  11.567   2.925  1.2972 -2.5598 -0.4366
  863MOL0     H16447   7.105  11.616   3.071  0.6184 -1.3036  1.3953
  863MOL0     H16448   7.137  11.388   3.177  0.3918  0.6221  0.4370
  863MOL0     H16449   7.217  11.336   3.025  0.2244 -1.9943  1.2488
  863MOL0     H16450   7.366  11.540   3.056  2.6100 -1.3980  0.3324
  863MOL0     H16451   7.285  11.577   3.205  5.3235  0.9304  1.3860
  863MOL0     H16452   7.362  11.379   3.319 -0.4707  8.1522  2.4839
  863MOL0     H16453   7.499  11.456   3.247  2.9221 -2.3947 -6.6359
  863MOL0     H16454   7.372  11.234   3.094  1.3685 -2.9638  1.7304
  863MOL0     H16455   7.520  11.317   3.057  0.4032 -3.0068 -1.9642
  863MOL0     H16456   7.733  11.269   3.232 -1.1298 -1.2636 -2.5146
  863MOL0     H16457   7.855  11.204   3.463  2.1484 -1.4396 -0.8015
  863MOL0     H16458   7.753  11.089   3.573 -0.2576 -0.3520  0.2820
  863MOL0     H16459   7.831  10.919   3.378 -0.7587 -2.3547  1.7618
  863MOL0     H16460   7.973  11.026   3.390  2.0132 -2.5887  1.1855
  863MOL0     H16461   7.821  10.872   3.611  0.8161 -1.6000  0.5646
  863MOL0     H16462   7.967  10.964   3.646 -0.3516 -1.1223  1.3316
  863MOL0     H16463   7.936  10.698   3.505 -3.6825  1.6000  1.2088
  863MOL0     H16464   8.011  10.744   3.657 -1.9913  1.0467  0.9094
  863MOL0     H16465   8.081  10.544   3.597  0.3764 -1.8901  1.2159
  863MOL0     H16466   8.252  10.378   3.617  0.5379  0.2229  0.3883
  863MOL0     H16467   8.825  10.491   3.530 -4.7219  0.3490 -1.8115
  863MOL0     H16468   9.025  10.377   3.570  1.6692 -1.3015 -0.3280
  863MOL0     H16469   9.016   9.926   3.435  0.7887  0.2243 -0.0067
  863MOL0     H16470   9.095  10.041   3.327 -5.4533  1.6754 -0.1940
  863MOL0     H16471   9.246   9.931   3.567  0.1250 -2.0346  0.3174
  863MOL0     H16472   9.219   9.825   3.427  2.0845  1.4771 -0.7912
  863MOL0     H16473   9.336   9.950   3.288 -2.2275 -2.7805  1.7294
  863MOL0     H16474   9.337  10.097   3.383  0.6946 -0.3636 -0.3028
  863MOL0     H16475   9.490   9.974   3.543  0.6628  0.5954 -0.0174
  863MOL0     H16476   9.563   9.996   3.392  0.6905 -1.1014  1.1631
  863MOL0     H16477   9.450   9.762   3.336 -2.8832  3.9997  0.8699
  863MOL0     H16478   9.435   9.736   3.505 -0.8143 -2.3498 -0.8611
  863MOL0     H16479   9.667   9.789   3.543 -4.5752 -1.9394  1.9587
  863MOL0     H16480   9.634   9.639   3.461 -0.9615  0.1428  0.9308
  863MOL0     H16481   9.837   9.737   3.357  0.7439  1.4246 -2.7902
  863MOL0     H16482   9.759   9.887   3.333 -0.4257  0.6243  0.5175
  863MOL0     H16483   9.600   9.747   3.165 -0.3020  0.4774 -0.1102
  863MOL0     H16484   9.773   9.790   3.129  0.1099 -1.4728 -1.1772
  863MOL0     H16485   8.827  10.017   3.400 -0.0357  1.3621 -2.3126
  863MOL0     H16486   8.628  10.155   3.367  0.5729 -0.1899 -0.6003
  863MOL0     H16487   8.539  10.646   3.434 -1.1166  4.4123  0.0158
  863MOL0     H16488   8.374  10.798   3.387  1.4967  0.4503  0.1541
  863MOL0     H16489   6.781  11.607   2.444 -0.8949 -0.0771 -0.2540
  863MOL0     H16490   6.610  11.538   2.286 -0.6196 -0.6224 -0.7756
  863MOL0     H16491   6.333  11.120   2.092  1.0310 -0.8740  1.4627
  863MOL0     H16492   6.132  11.062   1.980 -0.1926 -0.5542  0.8451
  863MOL0     H16493   5.772  11.305   2.139 -1.2685  0.8257 -0.2382
  863MOL0     H16494   5.696  11.169   2.056  3.0633 -1.3161  0.6746
  863MOL0     H16495   5.708  11.276   1.847  0.3331  0.7681  0.1351
  863MOL0     H16496   5.781  11.419   1.918  0.6108  0.1833 -0.1850
  863MOL0     H16497   5.501  11.305   1.967 -0.1790  1.3160 -3.0110
  863MOL0     H16498   5.537  11.441   1.866 -1.4614 -1.4995 -0.3397
  863MOL0     H16499   5.604  11.441   2.161  3.1219  0.5837 -0.7959
  863MOL0     H16500   5.610  11.578   2.054 -2.4572  0.9402 -0.0110
  863MOL0     H16501   5.191  11.539   2.159 -0.5808  1.6723 -2.4161
  863MOL0     H16502   5.939  11.413   2.124 -0.0214  0.5723  0.5185
  863MOL0     H16503   6.030  11.550   2.273 -0.1247  0.4706  0.3932
  863MOL0     H16504   6.134  11.460   2.394  0.7827  0.6611 -0.3223
  863MOL0     H16505   6.203  11.573   2.277  0.3232 -0.7791  0.8573
  864MOL0     O16506   7.918   6.915   9.523 -0.3460  0.3181 -0.3696
  864MOL0     C16507   7.876   6.843   9.615 -0.5731 -0.9705 -0.4934
  864MOL0     O16508   7.910   6.856   9.742 -0.1689 -0.0691 -0.2280
  864MOL0     C16509   8.000   6.951   9.774 -0.4673  0.0435 -0.2042
  864MOL0     C16510   8.144   6.925   9.787  0.0854 -0.5742  0.6592
  864MOL0     C16511   8.227   7.028   9.829 -0.8359  0.2891 -0.5146
  864MOL0     C16512   8.183   7.157   9.842  0.2724 -0.6831  0.0627
  864MOL0     O16513   8.265   7.257   9.882 -0.0291  0.4133 -0.5771
  864MOL0     C16514   8.397   7.248   9.834  0.7976  0.4757 -0.0184
  864MOL0     C16515   8.444   7.381   9.787  0.4620  0.1541  0.4389
  864MOL0     C16516   8.451   7.479   9.901 -0.8041 -0.1226 -0.3344
  864MOL0     C16517   8.574   7.468   9.993 -0.9148 -0.6444  0.4441
  864MOL0     C16518   8.583   7.604  10.082 -0.3333  0.2555  0.4400
  864MOL0     C16519   8.462   7.619  10.171  0.1233 -0.4924 -0.1578
  864MOL0     C16520   8.469   7.704  10.304 -0.8599  0.3865  0.9343
  864MOL0     C16521   8.553   7.840  10.291 -0.2318  0.8192  0.2680
  864MOL0     N16522   8.477   7.933  10.202 -0.2949 -0.5762 -0.2562
  864MOL0     C16523   8.513   7.956  10.073 -0.5324 -0.3747 -0.1415
  864MOL0     C16524   8.425   8.055  10.034 -0.0715  0.7061  0.1489
  864MOL0     C16525   8.418   8.122   9.897 -0.0868 -0.2703  0.4437
  864MOL0     C16526   8.498   8.249   9.889  0.4625 -0.6070 -0.4480
  864MOL0     C16527   8.450   8.335   9.766  0.3061  0.3150  0.1583
  864MOL0     C16528   8.545   8.443   9.724 -0.0789 -0.3673 -0.9315
  864MOL0     O16529   8.578   8.517   9.836  0.0550  0.1769 -0.1328
  864MOL0     C16530   8.688   8.598   9.825 -0.2713 -0.1919 -0.1822
  864MOL0     C16531   8.733   8.672   9.941 -0.1774  0.5334 -0.5685
  864MOL0     C16532   8.849   8.752   9.929  0.6944  0.0316  0.0067
  864MOL0     C16533   8.919   8.763   9.813 -0.2771  0.9467  0.4669
  864MOL0     C16534   9.045   8.843   9.804  0.4689  0.2817  0.1243
  864MOL0     O16535   9.127   8.813   9.694 -0.7267 -0.2514 -0.9611
  864MOL0     C16536   9.251   8.869   9.701  0.0064  0.0509  0.1040
  864MOL0     C16537   9.344   8.849   9.813  0.6875  0.9757 -0.5879
  864MOL0     C16538   9.476   8.897   9.814  0.4070  0.2276 -0.2694
  864MOL0     C16539   9.522   8.961   9.694  0.0271 -0.7074 -0.3436
  864MOL0     O16540   9.652   9.010   9.702 -0.2363  0.6067  0.9798
  864MOL0     C16541   9.690   9.121   9.626  0.2554 -0.7569  0.0164
  864MOL0     C16542   9.822   9.182   9.674 -0.8940  0.5826  0.3302
  864MOL0     C16543   9.934   9.092   9.626  0.9803 -0.7285  0.2993
  864MOL0     C16544  10.066   9.115   9.698 -0.0280  0.8251 -0.3618
  864MOL0     C16545  10.148   9.243   9.666  0.1287 -0.8094 -0.3856
  864MOL0     C16546  10.257   9.274   9.768 -0.3924  0.3407  0.2262
  864MOL0     C16547  10.351   9.383   9.709 -0.3626  0.6355 -0.5598
  864MOL0     C16548  10.471   9.425   9.800  0.0138  0.6331  0.8076
  864MOL0    Cl16549  10.397   9.521   9.932 -0.0816  0.1466 -0.2605
  864MOL0     C16550   9.435   8.983   9.591 -0.2863  0.8563  0.8752
  864MOL0     C16551   9.299   8.936   9.588 -0.4080 -0.9295  1.2056
  864MOL0     O16552   9.070   8.920   9.891  1.1506  0.3385 -0.1284
  864MOL0     C16553   8.873   8.692   9.695 -0.2859 -0.2276  0.0283
  864MOL0     C16554   8.759   8.615   9.704  0.0046  0.5819 -0.2296
  864MOL0     N16555   8.343   8.090  10.143  0.4944 -0.4407  0.6738
  864MOL0     N16556   8.376   8.010  10.244 -0.5448 -0.3234  0.5684
  864MOL0     C16557   8.046   7.184   9.824 -0.6553  0.2801  0.0196
  864MOL0     C16558   7.959   7.085   9.792 -0.2351 -0.1120 -0.1930
  864MOL0     C16559   7.796   6.725   9.576  0.0139 -0.6066 -0.4962
  864MOL0     C16560   7.702   6.740   9.476  0.3885  0.3336 -0.8366
  864MOL0     C16561   7.622   6.639   9.432 -0.4695  0.4433 -0.7664
  864MOL0     C16562   7.615   6.518   9.506 -0.2815  1.0790  1.0190
  864MOL0     O16563   7.528   6.408   9.480 -0.3726 -1.5102 -0.8899
  864MOL0     C16564   7.424   6.436   9.393 -0.1440 -0.0373  1.0416
  864MOL0     C16565   7.320   6.319   9.388 -0.5207 -0.5205 -0.1971
  864MOL0     C16566   7.227   6.322   9.266 -0.8418 -0.1187 -0.5629
  864MOL0     C16567   7.094   6.250   9.291 -0.1197 -0.1425  0.1243
  864MOL0     C16568   7.098   6.110   9.268 -0.5958  0.5805 -1.0948
  864MOL0     C16569   7.116   5.995   9.260  0.6370 -0.2563  0.2935
  864MOL0     C16570   7.697   6.499   9.611 -0.7387 -0.8978 -0.3399
  864MOL0     C16571   7.789   6.602   9.649 -0.2126  0.2800 -0.3884
  864MOL0     C16572   7.880   6.569   9.759 -0.3240  0.9352  0.3275
  864MOL0     H16573   8.186   6.829   9.758  3.2774  0.2205  2.1588
  864MOL0     H16574   8.330   7.001   9.849 -1.3006 -0.9651  0.3219
  864MOL0     H16575   8.457   7.209   9.917  0.6750 -0.2431 -0.2628
  864MOL0     H16576   8.409   7.185   9.746 -0.4255  2.6558 -1.8428
  864MOL0     H16577   8.381   7.421   9.707 -0.5410  0.2863  1.2720
  864MOL0     H16578   8.548   7.371   9.755 -0.0585 -0.4602 -1.1590
  864MOL0     H16579   8.364   7.469   9.967  1.2659 -1.9762  2.3205
  864MOL0     H16580   8.459   7.579   9.858  0.6167 -0.8781 -1.9437
  864MOL0     H16581   8.569   7.380  10.058 -2.2806 -0.3293  0.7995
  864MOL0     H16582   8.660   7.467   9.926  3.0695 -0.4122  5.0401
  864MOL0     H16583   8.667   7.593  10.151  0.9478  0.4894 -1.0400
  864MOL0     H16584   8.596   7.694  10.021  1.0404 -1.1445 -1.4646
  864MOL0     H16585   8.384   7.666  10.110  0.4074  1.6255  1.0221
  864MOL0     H16586   8.442   7.515  10.200  0.5803 -1.0698 -1.7987
  864MOL0     H16587   8.514   7.638  10.379  0.3035  0.3299  0.2064
  864MOL0     H16588   8.365   7.722  10.333 -1.9245 -1.3936 -1.4095
  864MOL0     H16589   8.570   7.896  10.383  0.5608  1.4765 -0.2556
  864MOL0     H16590   8.656   7.813  10.264  1.3255  0.8253  5.2123
  864MOL0     H16591   8.586   7.913  10.005  1.6150  0.7550  1.3235
  864MOL0     H16592   8.434   8.055   9.813  0.2937  1.0412 -0.5696
  864MOL0     H16593   8.314   8.151   9.875  0.2927 -0.2078 -1.4561
  864MOL0     H16594   8.472   8.309   9.977 -1.3630  0.4606 -1.6546
  864MOL0     H16595   8.602   8.216   9.885 -0.5812 -4.5850  0.8225
  864MOL0     H16596   8.352   8.381   9.782 -0.0353  0.2364 -1.5605
  864MOL0     H16597   8.432   8.268   9.682  1.3375 -0.9857  0.9189
  864MOL0     H16598   8.495   8.506   9.650 -0.7601 -0.8475 -0.8903
  864MOL0     H16599   8.635   8.401   9.678  2.7608  1.4957  2.3725
  864MOL0     H16600   8.672   8.668  10.030 -3.2277  1.4284 -2.4525
  864MOL0     H16601   8.876   8.807  10.019  0.1453  2.6435 -1.3281
  864MOL0     H16602   9.303   8.792   9.895 -1.3681  2.9772 -0.1325
  864MOL0     H16603   9.539   8.889   9.902  0.5811  0.1709 -0.3976
  864MOL0     H16604   9.716   9.085   9.526  1.5639 -0.9929  0.4178
  864MOL0     H16605   9.605   9.191   9.625  1.4354  0.9235  2.8968
  864MOL0     H16606   9.826   9.283   9.632  1.4169  0.4194  0.0536
  864MOL0     H16607   9.831   9.196   9.782  0.8268  4.5442 -0.1607
  864MOL0     H16608   9.909   8.987   9.638  1.0421 -0.8821 -0.7652
  864MOL0     H16609   9.959   9.117   9.522 -0.0027  2.4792  0.7272
  864MOL0     H16610  10.137   9.033   9.684  0.4374  0.4114  3.3559
  864MOL0     H16611  10.046   9.108   9.806 -1.8154  0.7840 -0.6668
  864MOL0     H16612  10.082   9.330   9.675 -0.7874 -1.6339  1.3505
  864MOL0     H16613  10.188   9.239   9.564  1.2816  1.7977 -0.1140
  864MOL0     H16614  10.218   9.302   9.866  1.1499 -0.3065  1.0670
  864MOL0     H16615  10.310   9.179   9.784 -2.7955 -0.9820  0.7744
  864MOL0     H16616  10.288   9.470   9.688  1.9066  2.4521 -0.1811
  864MOL0     H16617  10.404   9.338   9.625 -1.1974 -2.3248  0.3832
  864MOL0     H16618  10.519   9.334   9.836 -0.2223  0.3528  0.4139
  864MOL0     H16619  10.544   9.477   9.738  4.5355 -4.0979  1.5530
  864MOL0     H16620   9.470   9.046   9.510  0.3180  2.0984  2.0595
  864MOL0     H16621   9.236   8.965   9.504  1.0958 -2.4514 -0.5557
  864MOL0     H16622   8.920   8.724   9.603 -0.4499  1.3061  0.4375
  864MOL0     H16623   8.720   8.566   9.615  2.6834 -0.0603 -1.1412
  864MOL0     H16624   8.007   7.284   9.838 -0.9951  0.1706 -0.1355
  864MOL0     H16625   7.855   7.112   9.776 -0.2557  2.2312  3.0145
  864MOL0     H16626   7.691   6.837   9.428 -0.4105  0.9553  0.5332
  864MOL0     H16627   7.562   6.656   9.343 -2.1148 -2.9937 -0.4664
  864MOL0     H16628   7.456   6.452   9.289  2.7854  0.5845  1.9392
  864MOL0     H16629   7.373   6.526   9.425 -0.4888  0.6427 -1.2527
  864MOL0     H16630   7.257   6.332   9.476 -0.7168 -1.2287 -0.2256
  864MOL0     H16631   7.361   6.217   9.384 -0.2139 -0.3576 -1.7927
  864MOL0     H16632   7.281   6.284   9.179  4.5838  2.8043  1.0403
  864MOL0     H16633   7.213   6.428   9.244 -0.9187  0.1570  0.6981
  864MOL0     H16634   7.074   6.269   9.397 -1.9673  0.7010 -0.3272
  864MOL0     H16635   7.014   6.295   9.231 -0.4718  0.4534  1.0106
  864MOL0     H16636   7.120   5.889   9.244  1.9534 -0.0355 -1.1151
  864MOL0     H16637   7.668   6.419   9.678 -2.5709  0.9778  1.2532
  864MOL0     H16638   7.860   6.626   9.850 -0.3052 -0.5294  1.2834
  864MOL0     H16639   7.874   6.464   9.791  0.5931 -0.8234 -4.4495
  864MOL0     H16640   7.982   6.582   9.721 -0.7377  1.4957 -0.6072
  865MOL0     O16641   9.641   9.288   5.290 -0.0260  0.0663 -0.9824
  865MOL0     C16642   9.581   9.376   5.235 -0.2405  0.9678  1.0312
  865MOL0     O16643   9.622   9.502   5.220 -0.2281 -0.4487  0.4498
  865MOL0     C16644   9.750   9.527   5.257  0.2488  0.4169  0.5437
  865MOL0     C16645   9.781   9.576   5.376 -0.5131 -0.1704 -0.2918
  865MOL0     C16646   9.913   9.583   5.421 -0.3911 -0.9654 -1.3149
  865MOL0     C16647  10.014   9.531   5.345  0.6640  0.2404 -0.2219
  865MOL0     O16648  10.132   9.529   5.403 -0.0560 -0.2553  0.4913
  865MOL0     C16649  10.227   9.419   5.366  0.5513  0.7165 -0.1579
  865MOL0     C16650  10.362   9.480   5.410  0.5971 -0.0332 -0.2521
  865MOL0     C16651  10.481   9.398   5.359 -1.1025 -0.5619  0.2278
  865MOL0     C16652  10.612   9.467   5.384 -0.1148 -0.4956 -0.4834
  865MOL0     C16653  10.720   9.384   5.318  0.7432 -0.5889  0.7642
  865MOL0     C16654  10.855   9.465   5.324 -0.2777 -0.4360  0.8029
  865MOL0     C16655  10.963   9.389   5.262  0.2390 -0.1528  0.1221
  865MOL0     C16656  11.096   9.464   5.255 -0.9292  0.5077  0.2208
  865MOL0     N16657  11.204   9.381   5.305  0.0893  0.3522 -0.0236
  865MOL0     C16658  11.224   9.356   5.442  0.4912 -0.3133  0.0951
  865MOL0     C16659  11.330   9.275   5.451  0.1936  0.6632 -0.5559
  865MOL0     C16660  11.382   9.214   5.576  0.1823 -0.2131 -1.4582
  865MOL0     C16661  11.362   9.061   5.566 -0.3895  0.0966 -0.2253
  865MOL0     C16662  11.484   8.991   5.498  0.0992  0.4944 -0.3580
  865MOL0     C16663  11.614   8.997   5.574  0.0959  0.1278 -0.0614
  865MOL0     O16664  11.695   8.887   5.518  0.7368  0.9769 -0.3555
  865MOL0     C16665  11.804   8.837   5.581 -0.2198  0.1490  0.6486
  865MOL0     C16666  11.837   8.704   5.575 -0.3874 -0.6456  0.1403
  865MOL0     C16667  11.943   8.651   5.650  0.2457 -0.0442  0.1415
  865MOL0     C16668  12.023   8.727   5.732  0.1019  0.1216  0.3864
  865MOL0     C16669  12.135   8.660   5.800  0.1236  0.1185 -0.7049
  865MOL0     O16670  12.157   8.529   5.784  0.4465 -0.1932 -0.2199
  865MOL0     C16671  12.269   8.467   5.822 -0.4389  0.8499 -0.3422
  865MOL0     C16672  12.394   8.524   5.869 -0.7278 -0.2967  0.5187
  865MOL0     C16673  12.512   8.456   5.906 -0.3656  0.5362 -0.1525
  865MOL0     C16674  12.523   8.318   5.876 -0.0727  0.3300  0.0819
  865MOL0     O16675  12.638   8.248   5.899 -0.7591  0.0830 -0.0115
  865MOL0     C16676  12.759   8.319   5.876 -0.0033  0.5008  0.1467
  865MOL0     C16677  12.876   8.225   5.877 -0.5182  0.5348  0.1258
  865MOL0     C16678  13.003   8.306   5.869 -0.6198 -0.1212 -0.6956
  865MOL0     C16679  13.134   8.234   5.829  1.5295 -0.3887  0.2521
  865MOL0     C16680  13.257   8.326   5.848 -0.0770 -0.6198  0.2907
  865MOL0     C16681  13.384   8.258   5.784 -0.3329  1.0408  0.1743
  865MOL0     C16682  13.510   8.341   5.796 -0.2340  0.4734 -0.2090
  865MOL0     C16683  13.593   8.305   5.924 -0.5368 -0.7794  0.2783
  865MOL0    Cl16684  13.691   8.159   5.901  0.4290  0.1707  0.0385
  865MOL0     C16685  12.404   8.259   5.828  0.7938  0.1937  0.5493
  865MOL0     C16686  12.282   8.326   5.813  0.1407 -0.0389  0.0738
  865MOL0     O16687  12.189   8.737   5.884 -0.2935 -0.1976  0.9116
  865MOL0     C16688  12.011   8.868   5.718 -0.2338 -0.2964  0.2042
  865MOL0     C16689  11.900   8.923   5.644  0.2290  0.5929  0.3935
  865MOL0     N16690  11.369   9.246   5.319  0.8252 -0.0393  0.2228
  865MOL0     N16691  11.297   9.313   5.234  0.0932 -0.1008 -0.2182
  865MOL0     C16692   9.973   9.482   5.216 -0.9061  0.3517 -0.3008
  865MOL0     C16693   9.848   9.480   5.174 -0.1415  0.0509  0.3991
  865MOL0     C16694   9.443   9.343   5.188 -0.5493  0.0548  0.8350
  865MOL0     C16695   9.387   9.438   5.096 -0.9899 -0.5795 -0.4095
  865MOL0     C16696   9.261   9.426   5.049  0.6090 -0.2451 -0.0108
  865MOL0     C16697   9.184   9.311   5.072 -0.5151  1.1759 -0.2243
  865MOL0     O16698   9.066   9.311   5.005  0.0195 -0.2184  0.2374
  865MOL0     C16699   8.972   9.205   5.044 -0.0964 -0.2841 -0.1726
  865MOL0     C16700   9.022   9.066   4.981  0.0845  0.1456  0.0900
  865MOL0     C16701   9.043   9.076   4.834 -0.5271 -0.3622 -0.7347
  865MOL0     C16702   9.058   8.938   4.774 -0.0847  1.3062 -0.3097
  865MOL0     C16703   8.932   8.860   4.771  0.7311  0.0603  0.4160
  865MOL0     C16704   8.824   8.800   4.792  0.0202  0.3342  0.0762
  865MOL0     C16705   9.238   9.215   5.164 -0.2108  0.5374 -0.6175
  865MOL0     C16706   9.370   9.228   5.216  0.2551  0.5247  0.1374
  865MOL0     C16707   9.407   9.124   5.312 -0.1889  0.8951 -0.4295
  865MOL0     H16708   9.705   9.594   5.451 -0.3997  0.8583 -0.4144
  865MOL0     H16709   9.928   9.634   5.516  0.4761 -1.0705 -1.3818
  865MOL0     H16710  10.199   9.331   5.424 -1.3713  1.5161  0.1874
  865MOL0     H16711  10.212   9.394   5.261 -1.3795  2.3145 -0.3268
  865MOL0     H16712  10.376   9.509   5.515  0.8259 -2.6561  0.5170
  865MOL0     H16713  10.365   9.579   5.365 -0.2799  0.6183  1.0498
  865MOL0     H16714  10.473   9.369   5.254  2.2611  0.9760 -0.5748
  865MOL0     H16715  10.472   9.305   5.416 -2.5533 -0.3697  0.3598
  865MOL0     H16716  10.603   9.571   5.351 -1.4134  0.6586  3.0569
  865MOL0     H16717  10.624   9.473   5.493  0.6078 -1.0277 -0.5235
  865MOL0     H16718  10.727   9.283   5.360  1.1034 -0.4939  0.9443
  865MOL0     H16719  10.692   9.370   5.213  0.1477  3.4730  0.2295
  865MOL0     H16720  10.830   9.565   5.288 -1.0536 -0.8005  0.2857
  865MOL0     H16721  10.882   9.476   5.429  0.1046  0.3511  0.6282
  865MOL0     H16722  10.931   9.363   5.160  0.8717 -0.4655 -0.0023
  865MOL0     H16723  10.975   9.291   5.308 -2.7404  0.1422  1.7777
  865MOL0     H16724  11.137   9.494   5.158  1.6761  1.7945  1.6049
  865MOL0     H16725  11.087   9.557   5.311  0.7661  1.0879 -0.3830
  865MOL0     H16726  11.164   9.378   5.530  0.9661 -0.1639  0.3839
  865MOL0     H16727  11.488   9.239   5.590  0.2099 -0.1362 -1.8104
  865MOL0     H16728  11.330   9.256   5.662 -0.5004 -1.5284 -1.1990
  865MOL0     H16729  11.352   9.017   5.666 -0.7265 -1.3044 -0.8534
  865MOL0     H16730  11.271   9.040   5.511 -1.3325  1.4472  0.7538
  865MOL0     H16731  11.491   9.033   5.397  0.3910  0.5311 -0.3239
  865MOL0     H16732  11.456   8.886   5.503  0.7554  0.3818  2.6325
  865MOL0     H16733  11.596   8.974   5.679 -1.3302  1.0565 -0.0787
  865MOL0     H16734  11.665   9.094   5.565  1.5347 -0.3726  2.0279
  865MOL0     H16735  11.768   8.640   5.521 -0.6920  0.3968 -0.7405
  865MOL0     H16736  11.954   8.544   5.641 -3.2701 -0.4939 -0.0935
  865MOL0     H16737  12.405   8.632   5.877  0.2076 -0.3601  0.2903
  865MOL0     H16738  12.595   8.510   5.952 -0.8214  1.7608 -0.7099
  865MOL0     H16739  12.755   8.371   5.780  0.3304 -0.1056 -0.1978
  865MOL0     H16740  12.786   8.399   5.946 -0.3758  0.7204  0.0431
  865MOL0     H16741  12.879   8.156   5.962  0.2406 -2.1436 -1.9498
  865MOL0     H16742  12.869   8.155   5.794 -1.6008  0.0598  0.5973
  865MOL0     H16743  12.984   8.391   5.803 -1.8095 -1.0250 -1.5673
  865MOL0     H16744  13.018   8.327   5.975 -2.3673 -2.0676  0.0152
  865MOL0     H16745  13.125   8.217   5.722  0.5295 -0.6820  0.3665
  865MOL0     H16746  13.140   8.136   5.877  2.0291 -0.3134  0.3514
  865MOL0     H16747  13.267   8.338   5.956 -1.2341 -1.2762  0.4854
  865MOL0     H16748  13.253   8.427   5.807  0.5243  0.3299  2.4360
  865MOL0     H16749  13.400   8.157   5.823  0.4851  0.3210 -1.8634
  865MOL0     H16750  13.362   8.259   5.677  0.6369  3.4285 -0.0617
  865MOL0     H16751  13.476   8.445   5.793  1.4176  1.1389  2.0521
  865MOL0     H16752  13.574   8.315   5.711  4.6419  1.3361  2.8209
  865MOL0     H16753  13.660   8.389   5.941 -1.6264  0.5849 -1.6855
  865MOL0     H16754  13.527   8.301   6.011  1.9837 -1.1597  2.2878
  865MOL0     H16755  12.403   8.153   5.804  0.3017  0.5205 -0.9898
  865MOL0     H16756  12.193   8.273   5.780  1.1863 -1.0703 -1.1855
  865MOL0     H16757  12.094   8.925   5.758 -0.3560 -0.4900  0.7501
  865MOL0     H16758  11.912   9.031   5.645  3.8092  0.3235 -0.4168
  865MOL0     H16759  10.045   9.444   5.144 -2.2077  1.2928 -2.1880
  865MOL0     H16760   9.820   9.450   5.074  0.7902  2.5152 -0.6642
  865MOL0     H16761   9.443   9.529   5.079 -1.9300  0.0191 -0.3850
  865MOL0     H16762   9.218   9.503   4.985  1.7809  0.9738  0.6039
  865MOL0     H16763   8.872   9.236   5.013  0.0986  0.9039  0.3400
  865MOL0     H16764   8.965   9.199   5.153  1.2964  2.0304  0.1108
  865MOL0     H16765   8.949   8.987   5.001  0.4970 -0.3722 -0.4400
  865MOL0     H16766   9.117   9.031   5.022 -0.3842  0.4022  1.4450
  865MOL0     H16767   9.134   9.130   4.808 -0.0532 -0.3556  0.8031
  865MOL0     H16768   8.955   9.129   4.796 -0.1288  0.2778 -0.7697
  865MOL0     H16769   9.092   8.941   4.670 -3.0337  4.3834 -1.3890
  865MOL0     H16770   9.137   8.893   4.834 -1.0752  0.4194  0.3616
  865MOL0     H16771   8.732   8.748   4.805 -1.2520  1.8839 -1.9804
  865MOL0     H16772   9.183   9.129   5.202 -1.4409  1.3126 -0.5679
  865MOL0     H16773   9.319   9.063   5.334  0.7990  0.5517  3.3496
  865MOL0     H16774   9.493   9.068   5.274  0.3317  0.6296  1.0585
  865MOL0     H16775   9.422   9.152   5.417 -1.1836 -2.5725  0.7924
  866MOL0     O16776   9.622   0.008   7.235  0.7605  0.6304 -0.0154
  866MOL0     C16777   9.540   0.099   7.255 -0.2621 -0.0876 -1.0524
  866MOL0     O16778   9.562   0.234   7.242  0.0140 -0.2558 -0.0810
  866MOL0     C16779   9.690   0.264   7.206  0.5476 -0.6150  0.6380
  866MOL0     C16780   9.791   0.299   7.295 -0.1521  0.0859 -0.1235
  866MOL0     C16781   9.914   0.324   7.257 -0.6029 -0.0735  0.4038
  866MOL0     C16782   9.951   0.322   7.118 -0.2359  0.3768 -0.2740
  866MOL0     O16783  10.073   0.359   7.069  0.0566  0.1799 -0.1367
  866MOL0     C16784  10.183   0.384   7.165  0.5615  0.0766  0.4405
  866MOL0     C16785  10.317   0.377   7.089 -0.0181 -0.5135  0.0442
  866MOL0     C16786  10.434   0.396   7.175 -0.2662  0.4406 -0.3476
  866MOL0     C16787  10.565   0.346   7.123 -0.1140  0.6558  0.9193
  866MOL0     C16788  10.618   0.411   6.990  0.0950  0.2604 -0.3920
  866MOL0     C16789  10.680   0.548   7.017  0.7228  0.4814 -0.3487
  866MOL0     C16790  10.740   0.619   6.897  0.2428 -0.4724  0.2939
  866MOL0     C16791  10.834   0.739   6.931  0.2561  0.6378 -0.1330
  866MOL0     N16792  10.970   0.694   6.959  0.9161 -0.7233  0.4786
  866MOL0     C16793  11.063   0.657   6.860 -0.4414 -0.2468  0.0120
  866MOL0     C16794  11.166   0.590   6.923  0.5098  0.4900 -0.6897
  866MOL0     C16795  11.286   0.526   6.857  1.3453 -0.6954  0.5014
  866MOL0     C16796  11.410   0.610   6.882  0.1624 -0.0794  0.5414
  866MOL0     C16797  11.466   0.594   7.016 -0.5837  0.4065  0.2762
  866MOL0     C16798  11.618   0.624   7.013  0.7905  0.1013  0.2533
  866MOL0     O16799  11.643   0.760   6.986 -0.5157 -0.5712  0.3371
  866MOL0     C16800  11.775   0.799   6.975 -1.0105  0.5071 -0.4661
  866MOL0     C16801  11.887   0.716   6.953 -0.3156  0.2586 -0.4301
  866MOL0     C16802  12.018   0.780   6.941 -0.1517 -0.3783  0.3212
  866MOL0     C16803  12.036   0.919   6.956  0.3770  0.3691 -0.9332
  866MOL0     C16804  12.167   0.984   6.916  0.3014  0.2377  1.3555
  866MOL0     O16805  12.275   0.895   6.902 -0.4502  0.0399  0.6673
  866MOL0     C16806  12.406   0.939   6.870 -0.5356  0.5850 -0.0543
  866MOL0     C16807  12.476   0.899   6.759  0.0576 -0.4877 -0.0733
  866MOL0     C16808  12.613   0.944   6.745 -0.1336  0.4646  0.0439
  866MOL0     C16809  12.679   1.021   6.845 -0.1905  0.3517  0.2497
  866MOL0     O16810  12.805   1.046   6.823  0.3804  0.4349  0.3822
  866MOL0     C16811  12.891   1.098   6.931  0.4219 -0.0587 -0.3436
  866MOL0     C16812  12.998   1.173   6.856  0.2791  0.2379 -0.5170
  866MOL0     C16813  13.127   1.198   6.941 -0.4813  0.7137  0.0782
  866MOL0     C16814  13.186   1.071   7.001 -0.1618 -0.5538  0.0525
  866MOL0     C16815  13.325   1.102   7.058  0.4026  0.3033 -0.1880
  866MOL0     C16816  13.435   1.083   6.948 -0.4605 -0.1667 -0.2297
  866MOL0     C16817  13.567   1.148   6.985  0.2070 -0.6635 -0.1627
  866MOL0     C16818  13.634   1.087   7.117 -0.2170  0.5869 -0.8153
  866MOL0    Cl16819  13.754   1.195   7.181  0.0310 -0.1808 -0.1844
  866MOL0     C16820  12.591   1.073   6.946  0.5627  0.9545  0.1546
  866MOL0     C16821  12.462   1.025   6.960 -0.3816  0.6310 -0.4694
  866MOL0     O16822  12.173   1.108   6.911  0.3796 -0.4307  0.4460
  866MOL0     C16823  11.917   0.996   6.978 -0.5678 -0.4807  0.3762
  866MOL0     C16824  11.794   0.934   6.974  0.3033 -0.3388  0.0007
  866MOL0     N16825  11.150   0.613   7.054  0.3706 -0.7152 -0.9085
  866MOL0     N16826  11.032   0.672   7.077  0.5603  0.2490 -0.2495
  866MOL0     C16827   9.854   0.289   7.027 -0.5025 -0.4777  0.9761
  866MOL0     C16828   9.720   0.260   7.068  1.1938 -0.7747 -0.2250
  866MOL0     C16829   9.420   0.063   7.324  0.2218 -0.3675  0.5043
  866MOL0     C16830   9.366   0.150   7.411  0.3724  0.2137 -0.1201
  866MOL0     C16831   9.252   0.107   7.492 -0.0792  0.5300 -0.3307
  866MOL0     C16832   9.195  -0.023   7.478 -0.5853 -0.1390  0.2563
  866MOL0     O16833   9.100  -0.050   7.573  0.6998 -0.2335  0.0030
  866MOL0     C16834   9.041  -0.178   7.574 -0.5849 -0.7259  0.1339
  866MOL0     C16835   8.974  -0.198   7.720  0.4446  0.4248  0.6695
  866MOL0     C16836   9.083  -0.200   7.827  0.4531  0.5896  0.3176
  866MOL0     C16837   9.039  -0.133   7.963 -0.4306 -0.4525  0.4025
  866MOL0     C16838   9.018   0.012   7.936  0.0977  0.5922  0.6385
  866MOL0     C16839   8.986   0.121   7.899 -0.1001 -0.8454 -0.8275
  866MOL0     C16840   9.245  -0.106   7.377 -0.9060 -0.1410 -0.4746
  866MOL0     C16841   9.347  -0.059   7.294  0.9612  0.0766 -0.3231
  866MOL0     C16842   9.388  -0.156   7.180  0.0248 -0.1714  0.2096
  866MOL0     H16843   9.764   0.311   7.399  0.9309 -4.2427  0.8424
  866MOL0     H16844   9.988   0.340   7.334 -0.2001 -2.6081  0.6392
  866MOL0     H16845  10.173   0.483   7.212  1.7864 -1.1520  3.5498
  866MOL0     H16846  10.185   0.323   7.256  0.3871 -2.2732 -1.0407
  866MOL0     H16847  10.318   0.458   7.015 -0.6265  1.7309  2.3391
  866MOL0     H16848  10.319   0.277   7.044  4.9130 -1.3074  1.4763
  866MOL0     H16849  10.412   0.347   7.270  1.0761  1.9233  0.7806
  866MOL0     H16850  10.442   0.502   7.202 -0.4570  0.1163  1.0639
  866MOL0     H16851  10.643   0.360   7.199  0.3194  0.9498  0.4315
  866MOL0     H16852  10.550   0.242   7.095  2.5840  0.1626  1.0518
  866MOL0     H16853  10.695   0.348   6.944  1.8177  0.1749  2.3972
  866MOL0     H16854  10.542   0.427   6.912 -0.1683  1.0633  0.0233
  866MOL0     H16855  10.604   0.607   7.070 -0.8398 -3.4137  2.1821
  866MOL0     H16856  10.760   0.522   7.086 -0.3785 -2.3053 -0.0130
  866MOL0     H16857  10.661   0.630   6.822  1.6735  0.6028 -1.1141
  866MOL0     H16858  10.811   0.547   6.857 -0.2101 -2.2860  2.5316
  866MOL0     H16859  10.840   0.807   6.845  3.9288  0.4220 -0.1817
  866MOL0     H16860  10.788   0.790   7.016 -3.5550 -2.0838 -0.3090
  866MOL0     H16861  11.058   0.665   6.752  0.6976  0.3708 -0.0136
  866MOL0     H16862  11.299   0.420   6.878  0.5800 -1.0043 -0.5183
  866MOL0     H16863  11.267   0.509   6.751  3.4864 -1.0919  0.1442
  866MOL0     H16864  11.481   0.583   6.804 -0.0798  2.9290 -0.8563
  866MOL0     H16865  11.390   0.715   6.858  1.9079  0.7431  2.3164
  866MOL0     H16866  11.456   0.491   7.053  1.6112 -0.2562 -0.7964
  866MOL0     H16867  11.427   0.668   7.086 -0.9188  0.5576 -0.0696
  866MOL0     H16868  11.657   0.559   6.934 -0.9814 -2.1496  1.1091
  866MOL0     H16869  11.668   0.589   7.104  0.8324 -3.0942 -0.8581
  866MOL0     H16870  11.882   0.607   6.951  1.1558  0.1473  0.4868
  866MOL0     H16871  12.099   0.713   6.918 -0.1374 -0.1027 -0.4395
  866MOL0     H16872  12.430   0.836   6.684  2.4427 -0.6659 -1.5176
  866MOL0     H16873  12.651   0.917   6.647  0.1275 -0.5743  0.4196
  866MOL0     H16874  12.838   1.153   7.010 -3.0580 -2.5234 -0.6933
  866MOL0     H16875  12.937   1.006   6.969  1.2891  1.2746  2.0078
  866MOL0     H16876  13.019   1.116   6.765 -0.3296 -0.8256 -0.0036
  866MOL0     H16877  12.953   1.265   6.815  0.7583  0.3081 -0.8867
  866MOL0     H16878  13.195   1.248   6.872  0.1055 -0.9801 -0.6207
  866MOL0     H16879  13.102   1.272   7.018  0.3862 -2.7072  4.0165
  866MOL0     H16880  13.184   0.989   6.929  0.7404 -0.7785  0.2734
  866MOL0     H16881  13.131   1.035   7.089 -0.2942  2.8831  1.5182
  866MOL0     H16882  13.333   1.028   7.138 -1.3897 -2.0702 -2.0379
  866MOL0     H16883  13.320   1.199   7.109 -0.7027  0.5746 -0.7714
  866MOL0     H16884  13.451   0.976   6.931 -2.8225 -0.6766  0.3886
  866MOL0     H16885  13.391   1.130   6.859  0.8236  1.5467 -0.0145
  866MOL0     H16886  13.559   1.257   6.996 -1.5091 -0.8612  0.8309
  866MOL0     H16887  13.631   1.125   6.900  2.2900 -0.4387  1.2398
  866MOL0     H16888  13.566   1.067   7.200  1.7593 -0.6720  0.5921
  866MOL0     H16889  13.683   0.994   7.088 -0.9986 -0.3524  0.7768
  866MOL0     H16890  12.618   1.139   7.028 -0.9285 -0.3933  1.8163
  866MOL0     H16891  12.399   1.072   7.034  1.4257 -0.5232  1.9126
  866MOL0     H16892  11.926   1.104   6.970 -3.0791 -0.2342  0.2778
  866MOL0     H16893  11.713   1.004   6.992  1.3110  0.6186  1.0381
  866MOL0     H16894   9.888   0.298   6.925  1.6973 -0.0002  1.6894
  866MOL0     H16895   9.637   0.248   6.999  0.0824 -1.1839  1.1186
  866MOL0     H16896   9.404   0.250   7.426 -1.0438  0.5838  1.2925
  866MOL0     H16897   9.218   0.182   7.562 -0.5751 -0.0795  0.0928
  866MOL0     H16898   9.108  -0.263   7.557  1.7591  0.6505  1.8316
  866MOL0     H16899   8.961  -0.185   7.500  0.5394 -2.2912 -0.9900
  866MOL0     H16900   8.915  -0.290   7.721 -3.7811  2.9164  0.1745
  866MOL0     H16901   8.898  -0.122   7.740 -1.0720 -1.5604  3.0794
  866MOL0     H16902   9.180  -0.160   7.797  1.2989 -1.7444 -0.3198
  866MOL0     H16903   9.105  -0.307   7.835  1.3675  0.5635 -1.8831
  866MOL0     H16904   8.941  -0.171   7.994 -2.7175  3.7385 -1.0345
  866MOL0     H16905   9.113  -0.156   8.041  0.7744 -0.0430 -0.5854
  866MOL0     H16906   8.961   0.221   7.871  0.3481 -0.0640  1.3617
  866MOL0     H16907   9.212  -0.208   7.359 -0.0467 -0.9649  2.2027
  866MOL0     H16908   9.430  -0.096   7.099  0.7083  1.0574  1.4256
  866MOL0     H16909   9.461  -0.229   7.217  0.8762 -0.0536 -1.1627
  866MOL0     H16910   9.294  -0.201   7.148 -0.8905  1.8873 -0.1314
  867MOL0     O16911   7.451   5.639   4.364 -0.2977 -0.0898  0.2072
  867MOL0     C16912   7.473   5.529   4.415  0.3242  0.2327  0.0893
  867MOL0     O16913   7.376   5.451   4.480 -1.0373 -0.7248 -0.2002
  867MOL0     C16914   7.249   5.483   4.451 -0.3634  0.0492 -0.3440
  867MOL0     C16915   7.194   5.442   4.326 -0.2926  0.2463 -0.2861
  867MOL0     C16916   7.064   5.476   4.294  0.0728  0.1288  0.2185
  867MOL0     C16917   6.985   5.549   4.390  0.0765 -1.0754  0.4639
  867MOL0     O16918   6.859   5.586   4.357  0.6082  0.0763  0.1234
  867MOL0     C16919   6.775   5.484   4.301 -1.0231  0.5991 -0.1029
  867MOL0     C16920   6.620   5.510   4.284  0.5324  0.1524 -0.3225
  867MOL0     C16921   6.590   5.604   4.175  0.4615  0.2489  0.2790
  867MOL0     C16922   6.440   5.621   4.149  0.1789  0.0157  0.2551
  867MOL0     C16923   6.403   5.705   4.028  1.0168 -0.2521  0.1716
  867MOL0     C16924   6.253   5.725   4.000  0.3775 -0.4008  0.4483
  867MOL0     C16925   6.194   5.816   4.116  0.2794 -0.1922 -0.0739
  867MOL0     C16926   6.226   5.967   4.083 -0.4223  0.1321 -0.0493
  867MOL0     N16927   6.360   6.018   4.104 -0.4440 -0.7112  0.2494
  867MOL0     C16928   6.424   6.046   4.222  0.5932 -0.5762 -0.3029
  867MOL0     C16929   6.549   6.081   4.193 -0.0662  1.0217  0.5390
  867MOL0     C16930   6.652   6.118   4.290 -0.0551  0.0280  0.9166
  867MOL0     C16931   6.775   6.021   4.259 -0.2866 -0.4738 -0.0279
  867MOL0     C16932   6.859   6.069   4.133 -0.0645 -0.0714  0.7825
  867MOL0     C16933   6.996   6.019   4.139 -0.2576 -0.6938 -0.1320
  867MOL0     O16934   7.062   6.076   4.252  0.1383 -0.5793 -0.6869
  867MOL0     C16935   7.193   6.062   4.263  0.8651  0.5093  0.1909
  867MOL0     C16936   7.259   5.951   4.233  0.0650  0.2069 -0.7846
  867MOL0     C16937   7.398   5.955   4.226 -0.4701 -0.1322  0.2516
  867MOL0     C16938   7.471   6.067   4.249 -0.5215 -0.2088  0.9837
  867MOL0     C16939   7.616   6.068   4.251 -0.2614  0.3883  0.3205
  867MOL0     O16940   7.679   6.164   4.327  0.4388  0.6217  0.2787
  867MOL0     C16941   7.817   6.171   4.324  0.6216 -0.0659 -0.8267
  867MOL0     C16942   7.897   6.074   4.377 -0.5746 -0.0572 -0.6905
  867MOL0     C16943   8.042   6.085   4.384 -0.1478 -0.1305  0.4359
  867MOL0     C16944   8.102   6.199   4.333 -0.0475 -0.9324 -0.3707
  867MOL0     O16945   8.242   6.202   4.369  0.6515  0.3426 -0.3496
  867MOL0     C16946   8.299   6.327   4.385  0.3784 -0.8410 -0.0918
  867MOL0     C16947   8.438   6.328   4.439 -0.5973  0.2742  0.3829
  867MOL0     C16948   8.481   6.479   4.404 -1.1330 -0.9337  0.4964
  867MOL0     C16949   8.623   6.509   4.469 -0.4485 -0.0415  0.3002
  867MOL0     C16950   8.713   6.486   4.351 -0.1167  0.3649 -0.3021
  867MOL0     C16951   8.863   6.493   4.385  0.1811 -0.4251  0.5637
  867MOL0     C16952   8.950   6.441   4.273  0.0404  0.7740 -0.4933
  867MOL0     C16953   9.095   6.443   4.290 -0.2670 -0.4208 -0.2071
  867MOL0    Cl16954   9.146   6.596   4.363 -0.4765 -0.1720 -0.2902
  867MOL0     C16955   8.022   6.293   4.271  0.1888  0.3288  0.2353
  867MOL0     C16956   7.884   6.278   4.272 -0.0450  0.5271  0.2186
  867MOL0     O16957   7.670   5.988   4.178  0.6561 -0.3875  0.8458
  867MOL0     C16958   7.394   6.179   4.264  0.2579 -0.8784  0.2516
  867MOL0     C16959   7.257   6.184   4.281  0.2436  0.1820 -0.8636
  867MOL0     N16960   6.556   6.076   4.056 -0.3137  0.7798  1.0067
  867MOL0     N16961   6.444   6.035   3.999 -0.3168 -0.6023  1.0104
  867MOL0     C16962   7.046   5.581   4.512 -0.5908 -0.3612  0.2068
  867MOL0     C16963   7.171   5.545   4.544 -0.3668  0.1203  0.5262
  867MOL0     C16964   7.612   5.484   4.431  0.0305  0.3395 -0.2783
  867MOL0     C16965   7.637   5.362   4.486  0.5578  0.2833 -0.1107
  867MOL0     C16966   7.763   5.308   4.505  0.2180 -0.0409  0.3171
  867MOL0     C16967   7.875   5.385   4.475  0.5233 -0.2921 -0.2606
  867MOL0     O16968   7.991   5.326   4.503  0.0726 -0.3029 -0.4571
  867MOL0     C16969   8.108   5.397   4.457 -0.0498  0.1768 -0.3891
  867MOL0     C16970   8.243   5.324   4.503  1.3696 -0.1042  0.0818
  867MOL0     C16971   8.251   5.335   4.655 -0.0962 -1.0541  0.2656
  867MOL0     C16972   8.394   5.291   4.697 -0.9342  0.1275  1.1711
  867MOL0     C16973   8.491   5.398   4.686  0.7229  0.0896  1.0313
  867MOL0     C16974   8.560   5.494   4.677  0.3906  0.2768  0.0160
  867MOL0     C16975   7.853   5.506   4.414  0.1224  0.2194  1.1933
  867MOL0     C16976   7.728   5.563   4.397 -0.5222  0.1429  0.1821
  867MOL0     C16977   7.730   5.695   4.321  0.4997  0.7579 -0.4504
  867MOL0     H16978   7.257   5.375   4.267 -2.5826 -0.9921 -1.4577
  867MOL0     H16979   7.031   5.445   4.195  1.9981  0.3180 -0.5112
  867MOL0     H16980   6.812   5.450   4.204  0.7857 -0.7698  1.0044
  867MOL0     H16981   6.787   5.404   4.374 -0.6675  2.4696  2.0327
  867MOL0     H16982   6.571   5.532   4.379  1.0070 -2.8463  0.7353
  867MOL0     H16983   6.582   5.412   4.254 -2.4487  1.0987  0.0484
  867MOL0     H16984   6.642   5.576   4.083  4.2856 -0.9217  2.5485
  867MOL0     H16985   6.633   5.704   4.188  1.0397  0.0593 -0.1350
  867MOL0     H16986   6.407   5.518   4.132  2.7502 -1.0109  1.0287
  867MOL0     H16987   6.395   5.645   4.246 -1.9885  1.9535 -1.1366
  867MOL0     H16988   6.454   5.801   4.040 -1.5581  1.0782  1.2547
  867MOL0     H16989   6.453   5.669   3.938  0.8196  1.7465 -0.7796
  867MOL0     H16990   6.238   5.775   3.904  1.0074  0.7876  0.9438
  867MOL0     H16991   6.201   5.629   4.005  1.1488 -0.9354 -1.0472
  867MOL0     H16992   6.232   5.784   4.213  1.4109 -0.4167 -0.5829
  867MOL0     H16993   6.086   5.794   4.117 -0.0475  1.1190  2.5732
  867MOL0     H16994   6.202   6.006   3.984 -0.9704  1.2194  0.4868
  867MOL0     H16995   6.162   6.027   4.149 -0.2553  1.9354 -1.4505
  867MOL0     H16996   6.373   6.044   4.319  2.3950  4.2675  1.0070
  867MOL0     H16997   6.682   6.223   4.279  2.2942 -0.3902  2.6410
  867MOL0     H16998   6.619   6.100   4.393 -2.1802  0.2220  0.3207
  867MOL0     H16999   6.835   6.026   4.350 -0.3308 -1.5635  0.0780
  867MOL0     H17000   6.738   5.920   4.239 -1.7287  0.2459 -1.2641
  867MOL0     H17001   6.852   6.178   4.130 -2.7616 -0.1645  1.2462
  867MOL0     H17002   6.820   6.023   4.042  0.1271 -1.0459  1.1761
  867MOL0     H17003   7.051   6.050   4.050 -1.3037  0.8938 -0.2660
  867MOL0     H17004   7.003   5.911   4.153 -0.3997 -0.3851  3.0530
  867MOL0     H17005   7.213   5.853   4.222 -0.7635  0.4720  0.1633
  867MOL0     H17006   7.455   5.865   4.206  0.4428  0.1504  1.4871
  867MOL0     H17007   7.847   5.985   4.414 -1.4486  0.2987 -0.9830
  867MOL0     H17008   8.101   6.009   4.434 -0.8440  0.3483  2.0402
  867MOL0     H17009   8.306   6.377   4.288  4.7409  1.9722  1.3598
  867MOL0     H17010   8.236   6.395   4.444  2.0940  0.8344 -0.0865
  867MOL0     H17011   8.430   6.306   4.546 -1.5477  0.2451  0.3158
  867MOL0     H17012   8.497   6.259   4.378 -0.7723 -2.0251  2.6402
  867MOL0     H17013   8.486   6.502   4.297  0.1797 -1.5967  0.3902
  867MOL0     H17014   8.412   6.547   4.455 -0.3533 -0.2739  0.6937
  867MOL0     H17015   8.647   6.445   4.554 -2.6255 -1.3947 -0.0446
  867MOL0     H17016   8.645   6.608   4.510  0.1647 -0.7390  1.7233
  867MOL0     H17017   8.686   6.560   4.275 -4.1672  0.3349  0.8736
  867MOL0     H17018   8.698   6.384   4.316  1.3657 -0.2536  0.7884
  867MOL0     H17019   8.888   6.597   4.407  1.2728 -0.3758 -0.7377
  867MOL0     H17020   8.876   6.434   4.476 -2.7907 -0.7990  0.8633
  867MOL0     H17021   8.916   6.494   4.183 -3.6423 -1.9733 -0.9626
  867MOL0     H17022   8.925   6.334   4.276 -0.4779  0.9146  1.0071
  867MOL0     H17023   9.120   6.366   4.365  1.0384  3.8062  4.2110
  867MOL0     H17024   9.137   6.413   4.194 -1.2244  0.6978 -1.0037
  867MOL0     H17025   8.062   6.386   4.233 -1.6053  0.2113 -2.1705
  867MOL0     H17026   7.831   6.354   4.214 -1.3402 -2.5883 -3.0363
  867MOL0     H17027   7.462   6.263   4.277  1.5729 -1.9689  0.7173
  867MOL0     H17028   7.210   6.279   4.306 -1.7424 -0.4563 -1.9357
  867MOL0     H17029   6.984   5.637   4.582  0.7547 -1.6648  2.5735
  867MOL0     H17030   7.217   5.572   4.638  1.2128 -1.2041  0.1845
  867MOL0     H17031   7.558   5.294   4.516 -1.4656  2.2156 -0.8201
  867MOL0     H17032   7.783   5.228   4.575  0.4131 -2.4724 -2.3864
  867MOL0     H17033   8.108   5.501   4.492 -2.6117  0.3950 -0.8292
  867MOL0     H17034   8.101   5.395   4.348 -1.1768  0.7930 -0.3481
  867MOL0     H17035   8.336   5.366   4.462  3.3701 -0.6920  3.5734
  867MOL0     H17036   8.237   5.219   4.473  1.1494  0.2445 -1.1419
  867MOL0     H17037   8.176   5.267   4.696  1.0389 -1.2041  2.2095
  867MOL0     H17038   8.224   5.436   4.686 -0.6772 -0.4853 -1.9330
  867MOL0     H17039   8.389   5.249   4.798  1.5604 -1.7009  0.6296
  867MOL0     H17040   8.433   5.208   4.637 -0.5773  3.1984 -3.4275
  867MOL0     H17041   8.632   5.573   4.664  1.0090 -0.5328 -1.8646
  867MOL0     H17042   7.941   5.561   4.384 -0.2721  0.6377  0.7950
  867MOL0     H17043   7.705   5.780   4.386 -0.4028  0.6295 -0.6210
  867MOL0     H17044   7.830   5.713   4.281  0.9972 -0.6166  0.0924
  867MOL0     H17045   7.659   5.694   4.238 -1.4336  2.1638  1.1006
  868MOL0     O17046   5.337   9.706   3.623  0.2763  0.0844 -0.1054
  868MOL0     C17047   5.354   9.591   3.571 -0.4630 -0.4744  1.3113
  868MOL0     O17048   5.471   9.529   3.543 -0.2518 -0.0438 -0.1903
  868MOL0     C17049   5.594   9.590   3.534 -0.3265  0.3134 -0.7349
  868MOL0     C17050   5.613   9.724   3.496 -0.0344  0.1216 -0.0662
  868MOL0     C17051   5.750   9.768   3.488  0.0395 -1.1101 -0.1628
  868MOL0     C17052   5.855   9.682   3.515  0.1655  0.2396 -0.5295
  868MOL0     O17053   5.986   9.715   3.512  0.0950  0.1379  0.8200
  868MOL0     C17054   6.029   9.837   3.455  0.2676  0.1672  0.5653
  868MOL0     C17055   6.176   9.821   3.413 -0.4659 -0.7426 -0.2936
  868MOL0     C17056   6.197   9.711   3.307 -0.2853 -0.4017  0.6023
  868MOL0     C17057   6.354   9.681   3.311 -0.7207  0.1017  0.3707
  868MOL0     C17058   6.385   9.584   3.432  0.3042 -0.1844  0.3014
  868MOL0     C17059   6.536   9.581   3.466  0.1954 -0.0666 -0.2852
  868MOL0     C17060   6.550   9.451   3.555  0.0753  0.1421  0.4623
  868MOL0     C17061   6.695   9.398   3.562 -0.0726  0.3741  0.5615
  868MOL0     N17062   6.732   9.333   3.429  0.0668 -0.3313 -0.0440
  868MOL0     C17063   6.688   9.215   3.379 -0.1667 -0.5729  0.4039
  868MOL0     C17064   6.755   9.188   3.266 -0.3388  0.2442  0.3332
  868MOL0     C17065   6.731   9.076   3.169 -0.3323  0.4403  1.4469
  868MOL0     C17066   6.764   8.953   3.244  0.4313  0.1446 -0.3807
  868MOL0     C17067   6.905   8.920   3.267 -0.1154 -0.7559 -0.7485
  868MOL0     C17068   6.916   8.796   3.359  0.3280 -1.0906 -0.0315
  868MOL0     O17069   7.047   8.801   3.417 -0.2158  0.0688 -0.2302
  868MOL0     C17070   7.147   8.728   3.359 -0.4102 -0.2590  0.5215
  868MOL0     C17071   7.146   8.656   3.235  0.1892  1.0442 -0.5706
  868MOL0     C17072   7.264   8.606   3.187  0.4581 -0.4428 -0.1060
  868MOL0     C17073   7.391   8.631   3.246  0.1739  1.1351  0.3226
  868MOL0     C17074   7.515   8.590   3.168  0.6607 -0.2056  0.5232
  868MOL0     O17075   7.641   8.614   3.233  0.1443  0.3924 -0.2983
  868MOL0     C17076   7.757   8.591   3.168  0.1179 -0.1294  0.0606
  868MOL0     C17077   7.844   8.484   3.201  0.0496 -0.0627  0.4212
  868MOL0     C17078   7.968   8.466   3.133  0.0076 -0.3145 -1.1843
  868MOL0     C17079   8.005   8.546   3.026  0.4376  0.3477  0.1622
  868MOL0     O17080   8.123   8.513   2.974 -0.4225  0.1636 -0.1638
  868MOL0     C17081   8.181   8.615   2.897 -0.1259  0.3958 -0.2155
  868MOL0     C17082   8.298   8.564   2.823 -0.0106 -0.1317  0.6867
  868MOL0     C17083   8.337   8.632   2.681 -0.4176  0.7196 -0.2470
  868MOL0     C17084   8.479   8.594   2.640  0.5028 -0.1260 -0.8012
  868MOL0     C17085   8.503   8.640   2.492 -0.5126  0.3907  0.5067
  868MOL0     C17086   8.469   8.536   2.384 -0.2841  0.2284  0.0302
  868MOL0     C17087   8.488   8.585   2.244  0.2394  0.7776  0.4643
  868MOL0     C17088   8.545   8.474   2.152  0.1496  0.7704  0.4668
  868MOL0    Cl17089   8.712   8.431   2.189 -0.1584 -0.0767 -0.2454
  868MOL0     C17090   7.909   8.648   2.985  0.2716  0.7002  0.3610
  868MOL0     C17091   7.790   8.672   3.058  0.1604 -0.3109 -0.3087
  868MOL0     O17092   7.498   8.514   3.069 -0.1161  0.4758 -0.1700
  868MOL0     C17093   7.396   8.699   3.372 -0.1010  1.2334  0.1338
  868MOL0     C17094   7.272   8.737   3.431 -0.5932  0.0196  0.8449
  868MOL0     N17095   6.837   9.299   3.240 -0.3333 -0.4296 -0.3676
  868MOL0     N17096   6.821   9.383   3.339 -0.5028 -0.2456  0.3078
  868MOL0     C17097   5.829   9.553   3.565  0.4202 -0.4367 -0.0757
  868MOL0     C17098   5.703   9.494   3.555 -0.2720 -0.0458 -0.0817
  868MOL0     C17099   5.236   9.508   3.562  0.1459  0.7182 -1.1543
  868MOL0     C17100   5.226   9.388   3.628 -0.1916  0.3315  0.1388
  868MOL0     C17101   5.113   9.309   3.632 -0.0048  0.8116  0.3247
  868MOL0     C17102   4.994   9.354   3.581 -0.2021  0.2062  0.5526
  868MOL0     O17103   4.879   9.282   3.596  0.2291  0.5194 -0.1600
  868MOL0     C17104   4.754   9.330   3.564 -0.5161  0.1365  0.7982
  868MOL0     C17105   4.633   9.219   3.593 -0.6931  0.1381 -0.0715
  868MOL0     C17106   4.500   9.288   3.575  0.5427 -0.4393 -0.0684
  868MOL0     C17107   4.404   9.228   3.674 -0.3244  0.2080 -0.0481
  868MOL0     C17108   4.433   9.258   3.818  0.1435  0.2504 -0.5712
  868MOL0     C17109   4.448   9.290   3.932  0.5675 -0.8277  0.4535
  868MOL0     C17110   5.000   9.475   3.504 -0.1921 -0.6093  0.5902
  868MOL0     C17111   5.123   9.551   3.500  0.9287 -0.1340 -0.3197
  868MOL0     C17112   5.121   9.678   3.409 -0.3293  0.2605  0.4916
  868MOL0     H17113   5.531   9.792   3.475  0.2214  0.1344 -1.0879
  868MOL0     H17114   5.770   9.870   3.457  3.4412 -2.1579 -1.9488
  868MOL0     H17115   5.974   9.867   3.366  0.0101 -1.7872  0.0084
  868MOL0     H17116   6.023   9.917   3.529  2.5381 -0.7850  1.9165
  868MOL0     H17117   6.230   9.804   3.506 -2.7192  1.4566  1.5446
  868MOL0     H17118   6.222   9.907   3.363  0.2887 -1.1301 -0.2897
  868MOL0     H17119   6.166   9.761   3.215  0.9209  0.4172  0.6165
  868MOL0     H17120   6.139   9.623   3.335  1.2817 -1.4282  0.7899
  868MOL0     H17121   6.388   9.631   3.220 -0.0963  0.9475  0.1255
  868MOL0     H17122   6.411   9.772   3.331  0.3290 -0.4624  0.0583
  868MOL0     H17123   6.333   9.615   3.524  0.1990  0.6861 -0.0375
  868MOL0     H17124   6.355   9.481   3.413  6.6440 -2.2763 -0.3811
  868MOL0     H17125   6.596   9.563   3.375  1.2064  1.2881  0.0913
  868MOL0     H17126   6.573   9.676   3.506 -2.6486  1.3565 -0.8093
  868MOL0     H17127   6.490   9.374   3.506 -0.7601  1.8006 -1.2356
  868MOL0     H17128   6.511   9.463   3.656 -3.8393  0.2988 -0.9179
  868MOL0     H17129   6.764   9.480   3.585  0.9239  0.5481 -2.5816
  868MOL0     H17130   6.691   9.321   3.640 -1.6972  1.4843  1.6351
  868MOL0     H17131   6.616   9.155   3.434 -1.3994 -0.0548 -0.5841
  868MOL0     H17132   6.626   9.073   3.139 -0.4323 -0.2074  1.8238
  868MOL0     H17133   6.789   9.087   3.076 -1.3880 -0.6098  0.6324
  868MOL0     H17134   6.698   8.947   3.331  0.2202 -2.6701 -0.6546
  868MOL0     H17135   6.741   8.867   3.180  2.0518  1.3451 -2.7136
  868MOL0     H17136   6.962   9.005   3.307 -1.7396  0.4541 -0.9240
  868MOL0     H17137   6.951   8.902   3.170 -0.3519 -1.3449 -0.7510
  868MOL0     H17138   6.889   8.703   3.309  0.4840 -0.6313 -0.9992
  868MOL0     H17139   6.848   8.813   3.443 -1.2048 -0.2000 -1.4127
  868MOL0     H17140   7.051   8.639   3.186 -1.1517  1.9062  1.5525
  868MOL0     H17141   7.259   8.557   3.090 -0.6411 -0.3339 -0.1241
  868MOL0     H17142   7.817   8.423   3.286 -1.7556  0.4501  0.2558
  868MOL0     H17143   8.040   8.394   3.170 -1.8136 -0.5423  2.2911
  868MOL0     H17144   8.109   8.652   2.823  1.7143  2.2101 -1.1882
  868MOL0     H17145   8.205   8.696   2.967 -2.9428 -1.4845  3.2911
  868MOL0     H17146   8.385   8.566   2.890  0.3059 -2.8840  0.5013
  868MOL0     H17147   8.283   8.458   2.801  0.3137  0.1146 -0.8348
  868MOL0     H17148   8.261   8.609   2.606 -0.2973 -0.8476  0.0727
  868MOL0     H17149   8.336   8.741   2.690  0.1940  0.9310 -2.2942
  868MOL0     H17150   8.485   8.485   2.649  0.9412 -0.2897 -2.7194
  868MOL0     H17151   8.551   8.642   2.707 -0.3109 -0.5275  0.4080
  868MOL0     H17152   8.607   8.672   2.479 -0.4002 -0.3052 -0.4857
  868MOL0     H17153   8.441   8.728   2.472  1.1975  1.7012  0.7773
  868MOL0     H17154   8.536   8.453   2.406  0.9747  1.7234  2.2188
  868MOL0     H17155   8.371   8.487   2.384 -0.3653  0.2232 -2.7904
  868MOL0     H17156   8.560   8.667   2.242  1.1705 -0.0371 -0.1944
  868MOL0     H17157   8.392   8.626   2.209 -0.0909  1.8926  2.5368
  868MOL0     H17158   8.486   8.384   2.169 -0.6025  1.4730  1.6457
  868MOL0     H17159   8.538   8.490   2.044  1.8193 -1.3957 -0.0468
  868MOL0     H17160   7.921   8.703   2.892  3.4496  0.5458  0.5804
  868MOL0     H17161   7.726   8.757   3.037  0.9105  0.9018  1.9769
  868MOL0     H17162   7.490   8.737   3.411 -0.1362  0.8987  0.5450
  868MOL0     H17163   7.270   8.798   3.521  0.8073  0.2844  0.7183
  868MOL0     H17164   5.901   9.486   3.611 -2.0764 -1.3626  2.8538
  868MOL0     H17165   5.680   9.392   3.583  0.5989  0.1473  1.4303
  868MOL0     H17166   5.310   9.360   3.690 -1.4491 -1.0475  1.2944
  868MOL0     H17167   5.120   9.221   3.695  0.8825 -0.8708 -1.9837
  868MOL0     H17168   4.754   9.350   3.457  3.0564  0.3499  0.6981
  868MOL0     H17169   4.737   9.424   3.618 -2.8575  0.1036  0.2044
  868MOL0     H17170   4.641   9.183   3.696 -1.8310 -0.3988 -0.1495
  868MOL0     H17171   4.639   9.134   3.525 -1.2104 -1.8493  2.2006
  868MOL0     H17172   4.467   9.272   3.472 -0.6880 -2.6562  0.5843
  868MOL0     H17173   4.503   9.394   3.599 -0.3830 -0.4284  0.0570
  868MOL0     H17174   4.308   9.279   3.666  1.6181  4.4052  0.3153
  868MOL0     H17175   4.393   9.121   3.656  0.6870 -0.3470  2.2407
  868MOL0     H17176   4.461   9.328   4.032 -2.0866 -1.3763  1.0819
  868MOL0     H17177   4.922   9.508   3.436  1.9812 -2.5132 -3.0775
  868MOL0     H17178   5.218   9.711   3.369 -0.5490 -1.6215 -1.7328
  868MOL0     H17179   5.055   9.666   3.323 -2.0548  3.9056  1.1144
  868MOL0     H17180   5.068   9.757   3.464 -1.9832 -0.4950  0.0183
  869MOL0     O17181   1.887   0.414   3.131  0.6863  0.0385 -0.2379
  869MOL0     C17182   1.912   0.371   3.020 -0.3659 -0.0952 -0.7364
  869MOL0     O17183   2.033   0.387   2.956  0.0515  0.4473  0.1605
  869MOL0     C17184   2.148   0.402   3.027  0.8648 -0.1709  0.1729
  869MOL0     C17185   2.166   0.498   3.132  0.7542 -0.2160  0.2156
  869MOL0     C17186   2.290   0.516   3.191 -0.3965 -1.0061 -0.7378
  869MOL0     C17187   2.401   0.439   3.152 -0.0934 -0.3209 -0.4073
  869MOL0     O17188   2.530   0.456   3.195 -0.1758 -0.4720  0.0689
  869MOL0     C17189   2.535   0.522   3.315  0.1085 -0.2500  0.0191
  869MOL0     C17190   2.666   0.505   3.393 -0.3600 -0.0821 -0.6338
  869MOL0     C17191   2.757   0.616   3.365  0.4832 -0.5269  0.2820
  869MOL0     C17192   2.889   0.589   3.424  0.1868 -0.7067 -0.1422
  869MOL0     C17193   3.002   0.687   3.380  0.2283  0.5652 -0.5571
  869MOL0     C17194   3.142   0.643   3.446  0.3916 -0.2990 -0.2328
  869MOL0     C17195   3.251   0.639   3.342  0.0117 -0.3272 -0.2830
  869MOL0     C17196   3.390   0.581   3.385  0.9618 -0.7313  0.9644
  869MOL0     N17197   3.477   0.559   3.269 -0.4645  0.2167  0.9020
  869MOL0     C17198   3.464   0.460   3.172 -0.3156  0.6035 -0.4549
  869MOL0     C17199   3.583   0.467   3.092  0.1261 -0.6847  0.6416
  869MOL0     C17200   3.619   0.387   2.976  0.5677  0.7206 -0.2943
  869MOL0     C17201   3.756   0.331   2.981 -0.0948  0.6358  0.1989
  869MOL0     C17202   3.799   0.230   2.864  1.0555 -0.4935  0.5170
  869MOL0     C17203   3.938   0.178   2.873  0.4144 -0.2260 -0.4327
  869MOL0     O17204   3.963   0.088   2.766  0.3158 -0.6159 -0.0624
  869MOL0     C17205   4.077   0.009   2.755 -0.7800 -0.4273  0.8519
  869MOL0     C17206   4.196   0.035   2.829  0.4643  0.3083 -0.4196
  869MOL0     C17207   4.315  -0.045   2.812  0.3257  0.3530  0.2838
  869MOL0     C17208   4.322  -0.149   2.715  0.4899  0.5359  0.6119
  869MOL0     C17209   4.453  -0.212   2.685 -0.2676  0.7737  0.2396
  869MOL0     O17210   4.448  -0.352   2.665  1.0628  0.1215 -0.5206
  869MOL0     C17211   4.563  -0.407   2.612  0.1152  0.0565 -0.3273
  869MOL0     C17212   4.565  -0.490   2.491  0.4783 -0.0880  0.6360
  869MOL0     C17213   4.685  -0.560   2.451 -0.3323  0.4284  0.7064
  869MOL0     C17214   4.803  -0.550   2.522 -0.3095 -0.0401 -1.1082
  869MOL0     O17215   4.917  -0.609   2.466  0.5317  0.0787 -0.1153
  869MOL0     C17216   5.039  -0.604   2.539 -0.5653 -0.8137  0.0609
  869MOL0     C17217   5.142  -0.693   2.470 -0.1459 -0.3606  0.0274
  869MOL0     C17218   5.267  -0.709   2.557  0.3578 -0.2249  0.2175
  869MOL0     C17219   5.353  -0.815   2.487  0.3619  0.0023 -0.1963
  869MOL0     C17220   5.476  -0.850   2.559 -0.2662  0.1283 -0.4489
  869MOL0     C17221   5.552  -0.963   2.486  0.3682 -0.3588 -0.0679
  869MOL0     C17222   5.683  -1.002   2.565 -0.0137 -0.3817  0.5723
  869MOL0     C17223   5.764  -1.101   2.496 -0.2480  0.0555 -0.6699
  869MOL0    Cl17224   5.882  -1.031   2.391 -0.3533  0.2396  0.4172
  869MOL0     C17225   4.802  -0.471   2.641  0.3638 -0.1851 -0.1454
  869MOL0     C17226   4.688  -0.402   2.687  0.2013 -0.4012  0.2447
  869MOL0     O17227   4.554  -0.142   2.681 -0.8969  0.3526 -0.4796
  869MOL0     C17228   4.205  -0.171   2.643 -0.0622 -0.0874 -0.0995
  869MOL0     C17229   4.085  -0.094   2.663  0.9600  1.2912  1.0199
  869MOL0     N17230   3.668   0.563   3.156 -0.3392 -0.7739  0.4176
  869MOL0     N17231   3.602   0.611   3.259  0.5378 -0.1760 -0.1289
  869MOL0     C17232   2.380   0.345   3.054 -0.4455 -0.2382  0.8304
  869MOL0     C17233   2.257   0.330   2.993 -0.3751  0.1239 -0.1094
  869MOL0     C17234   1.795   0.319   2.948  2.0944 -0.5338  0.0567
  869MOL0     C17235   1.677   0.396   2.950  0.3042  0.9411  0.2143
  869MOL0     C17236   1.560   0.356   2.886 -0.2230  0.4932  0.9011
  869MOL0     C17237   1.555   0.242   2.803  1.0674  1.3408  0.1487
  869MOL0     O17238   1.431   0.225   2.736 -0.5698 -0.2989 -0.2861
  869MOL0     C17239   1.418   0.107   2.647 -0.2007 -0.4497  0.3454
  869MOL0     C17240   1.387  -0.027   2.724  0.8435 -0.0720 -0.7766
  869MOL0     C17241   1.410  -0.150   2.645  0.0298  0.2728 -0.5666
  869MOL0     C17242   1.501  -0.253   2.728  0.0185 -0.4960  0.2729
  869MOL0     C17243   1.420  -0.297   2.845  0.0104 -0.0789  0.6232
  869MOL0     C17244   1.371  -0.344   2.944 -0.2981 -0.2317  0.3013
  869MOL0     C17245   1.683   0.173   2.787  0.7898 -0.1199  0.1826
  869MOL0     C17246   1.799   0.208   2.862 -0.4249 -0.2177  0.8100
  869MOL0     C17247   1.914   0.110   2.854  0.3094 -0.4735 -0.4008
  869MOL0     H17248   2.085   0.559   3.171 -2.3938 -4.1240  0.3973
  869MOL0     H17249   2.293   0.591   3.269  0.0581  1.6516 -3.1370
  869MOL0     H17250   2.522   0.629   3.299 -1.2567 -0.4714 -0.5069
  869MOL0     H17251   2.449   0.493   3.377  0.9568  2.2647  2.6007
  869MOL0     H17252   2.721   0.418   3.358  1.2330  0.4747  0.3764
  869MOL0     H17253   2.653   0.502   3.502 -0.3672  3.2536 -0.4174
  869MOL0     H17254   2.720   0.710   3.406  1.0721  0.5827 -1.5939
  869MOL0     H17255   2.773   0.631   3.258 -0.4980  0.7367  0.2902
  869MOL0     H17256   2.879   0.601   3.533 -1.4764  0.7057 -0.4084
  869MOL0     H17257   2.932   0.490   3.407  1.1621 -0.4233  0.5492
  869MOL0     H17258   3.017   0.684   3.272 -0.8624 -1.0655 -0.7012
  869MOL0     H17259   2.980   0.791   3.404  1.6033  1.1639 -1.7732
  869MOL0     H17260   3.179   0.711   3.523  0.5871 -2.0293  1.2737
  869MOL0     H17261   3.133   0.545   3.495  1.8940  0.7497  2.3770
  869MOL0     H17262   3.271   0.737   3.298 -0.5665 -0.1462 -0.1468
  869MOL0     H17263   3.219   0.569   3.264 -0.0625  0.1548 -0.6839
  869MOL0     H17264   3.433   0.653   3.456 -1.4603 -1.2862  3.1472
  869MOL0     H17265   3.378   0.484   3.434  2.2987 -2.2188 -1.4431
  869MOL0     H17266   3.381   0.392   3.159  0.4019  0.1046 -2.9740
  869MOL0     H17267   3.546   0.307   2.993  0.6529  0.8833  0.8989
  869MOL0     H17268   3.607   0.446   2.885  0.9793 -3.1838 -3.1515
  869MOL0     H17269   3.824   0.416   2.976 -0.4363  1.1546  2.9324
  869MOL0     H17270   3.770   0.278   3.075  1.2094 -0.4502 -0.5752
  869MOL0     H17271   3.787   0.287   2.771 -1.5530  0.4750  1.3564
  869MOL0     H17272   3.728   0.148   2.860  1.2923 -0.7189  0.8574
  869MOL0     H17273   3.937   0.124   2.968 -0.8519 -0.3301 -0.4864
  869MOL0     H17274   4.015   0.255   2.879 -0.1360  0.3361 -0.4835
  869MOL0     H17275   4.194   0.110   2.907 -0.3780 -1.5770  1.4756
  869MOL0     H17276   4.399  -0.035   2.880  0.1724 -1.3181  0.7760
  869MOL0     H17277   4.469  -0.507   2.443 -0.3699  0.5302  2.0517
  869MOL0     H17278   4.678  -0.623   2.363 -2.2928  1.2655  0.2141
  869MOL0     H17279   5.081  -0.504   2.550  3.0776 -2.3396  1.6784
  869MOL0     H17280   5.023  -0.648   2.638  0.6346  0.5914  0.9147
  869MOL0     H17281   5.100  -0.792   2.452 -4.6979  1.7237 -3.1450
  869MOL0     H17282   5.175  -0.640   2.379 -0.1115 -0.2982  0.0769
  869MOL0     H17283   5.311  -0.612   2.581  1.5477 -0.1330 -2.0406
  869MOL0     H17284   5.229  -0.745   2.653 -0.6979  0.7067  0.1662
  869MOL0     H17285   5.370  -0.786   2.383 -0.6864  2.4806  0.2605
  869MOL0     H17286   5.293  -0.906   2.475 -1.1172  0.7516  1.0850
  869MOL0     H17287   5.460  -0.885   2.661  1.1867 -0.7087 -0.4818
  869MOL0     H17288   5.544  -0.766   2.573  0.6541 -0.0720 -3.0993
  869MOL0     H17289   5.479  -1.044   2.495  2.0532 -1.6545  4.8676
  869MOL0     H17290   5.581  -0.956   2.381 -3.3577 -1.3400 -1.3019
  869MOL0     H17291   5.648  -1.032   2.665 -4.7585  1.2788 -0.2851
  869MOL0     H17292   5.733  -0.905   2.577 -4.2387  2.2751 -0.7988
  869MOL0     H17293   5.810  -1.161   2.576  0.0874  1.7818  0.4830
  869MOL0     H17294   5.715  -1.170   2.427  0.6238 -0.3780 -0.8775
  869MOL0     H17295   4.887  -0.462   2.708  2.0471  0.1986 -2.2470
  869MOL0     H17296   4.693  -0.353   2.783  1.7455  2.9197 -1.3932
  869MOL0     H17297   4.201  -0.253   2.573  1.0918 -0.4974  0.2827
  869MOL0     H17298   4.004  -0.131   2.600  3.4655  1.5626 -2.6562
  869MOL0     H17299   2.468   0.293   3.017 -0.7645 -0.3990  0.3014
  869MOL0     H17300   2.239   0.260   2.911 -0.7314 -0.1712  0.2170
  869MOL0     H17301   1.668   0.480   3.018  1.0977 -1.5561  3.7152
  869MOL0     H17302   1.471   0.418   2.896 -1.6717 -1.0319 -1.4970
  869MOL0     H17303   1.502   0.098   2.577 -0.9177  0.5523 -0.6686
  869MOL0     H17304   1.332   0.132   2.584 -1.6555 -1.9421  1.6405
  869MOL0     H17305   1.283  -0.034   2.758  1.5018  0.2975  1.4760
  869MOL0     H17306   1.455  -0.035   2.810  3.9821  0.7304 -3.0178
  869MOL0     H17307   1.466  -0.118   2.556  0.6040  0.6621 -0.0756
  869MOL0     H17308   1.314  -0.196   2.619 -0.1913 -0.6486  1.6302
  869MOL0     H17309   1.523  -0.335   2.659 -2.1696 -1.7413  0.9353
  869MOL0     H17310   1.590  -0.204   2.767 -0.2213  0.7421 -0.6504
  869MOL0     H17311   1.309  -0.367   3.028 -1.8489  1.3890 -0.3106
  869MOL0     H17312   1.691   0.083   2.726  1.8198 -0.4165  0.7371
  869MOL0     H17313   1.900   0.066   2.755 -1.8866  1.9050 -1.2820
  869MOL0     H17314   2.016   0.149   2.856  0.7173 -1.5251 -0.0021
  869MOL0     H17315   1.906   0.047   2.943  0.3555  0.9050  0.6111
  870MOL0     O17316  11.043   0.990  10.349 -0.6322 -0.5711 -0.4547
  870MOL0     C17317  10.960   0.897  10.359  0.7606  0.2789 -0.3722
  870MOL0     O17318  10.964   0.787  10.296  0.0308  0.3979 -0.2425
  870MOL0     C17319  11.064   0.784  10.196  0.9595 -0.6156  0.4185
  870MOL0     C17320  11.182   0.722  10.219 -0.6846  0.0367 -0.4398
  870MOL0     C17321  11.279   0.715  10.113 -0.0580  0.6884 -0.0175
  870MOL0     C17322  11.250   0.757   9.983 -0.1526 -0.7054 -0.0667
  870MOL0     O17323  11.347   0.734   9.891  0.0883 -0.8107 -0.0659
  870MOL0     C17324  11.336   0.795   9.763  0.3055  0.2702 -0.6210
  870MOL0     C17325  11.451   0.744   9.669  0.0939 -0.0780 -0.4539
  870MOL0     C17326  11.596   0.763   9.721 -0.1256  0.2189 -0.2612
  870MOL0     C17327  11.628   0.902   9.762  0.6619 -0.0362  0.3397
  870MOL0     C17328  11.773   0.906   9.806 -0.0218  0.8528  0.5135
  870MOL0     C17329  11.883   0.872   9.706 -0.0383 -0.8116 -0.4601
  870MOL0     C17330  12.029   0.876   9.753  0.6096 -0.3125  0.0595
  870MOL0     C17331  12.037   0.874   9.914  0.5854 -0.4198  0.7235
  870MOL0     N17332  12.180   0.880   9.962 -0.2281 -0.2037  0.8248
  870MOL0     C17333  12.246   0.982  10.025  0.2372  0.2878 -1.1426
  870MOL0     C17334  12.383   0.950  10.030  0.4890 -0.3214  0.5657
  870MOL0     C17335  12.502   1.029  10.083  0.3736 -1.1268  0.2653
  870MOL0     C17336  12.563   1.096   9.968 -0.6326 -0.2422  0.0235
  870MOL0     C17337  12.695   1.161  10.025  0.4058 -0.1926 -0.2850
  870MOL0     C17338  12.823   1.079  10.041 -0.0473 -0.5081 -0.4015
  870MOL0     O17339  12.907   1.143  10.145  0.0375  0.6518 -0.3088
  870MOL0     C17340  13.046   1.137  10.144  0.4025  0.4360  0.4890
  870MOL0     C17341  13.121   1.222  10.217  0.1145 -0.1655 -0.1700
  870MOL0     C17342  13.262   1.218  10.206  0.8439 -0.4924 -0.4723
  870MOL0     C17343  13.327   1.132  10.120  0.1845 -0.5415 -0.8012
  870MOL0     C17344  13.465   1.132  10.114 -0.9952 -0.2733  0.0103
  870MOL0     O17345  13.519   1.026  10.051 -0.3552 -1.2408  0.5893
  870MOL0     C17346  13.647   1.035  10.007 -0.2512  0.7458  0.1594
  870MOL0     C17347  13.691   1.123   9.903  0.4465  0.6735 -1.2219
  870MOL0     C17348  13.815   1.121   9.849 -0.3826 -0.1887 -0.2362
  870MOL0     C17349  13.902   1.024   9.892 -0.1830 -1.0002  0.0597
  870MOL0     O17350  14.028   1.016   9.828  0.3385 -0.1095 -0.1198
  870MOL0     C17351  14.105   0.890   9.841  0.0097 -1.0599 -0.1713
  870MOL0     C17352  14.246   0.908   9.766  0.5083 -0.4061 -0.1684
  870MOL0     C17353  14.337   0.786   9.789  0.3536 -0.5590  0.4317
  870MOL0     C17354  14.297   0.660   9.708 -0.1606 -0.2358  0.1307
  870MOL0     C17355  14.391   0.542   9.732 -0.5129  0.0601  0.4973
  870MOL0     C17356  14.540   0.578   9.708 -0.2380 -0.3372 -0.0489
  870MOL0     C17357  14.624   0.467   9.655 -0.1671  0.2505 -0.1696
  870MOL0     C17358  14.643   0.363   9.762 -0.0275  0.2864  0.0389
  870MOL0    Cl17359  14.767   0.420   9.874  0.0717 -0.5892  0.4158
  870MOL0     C17360  13.864   0.942   9.999 -0.4317  0.2391  0.9094
  870MOL0     C17361  13.741   0.948  10.061  0.3234 -0.3072 -0.5765
  870MOL0     O17362  13.530   1.224  10.161 -0.3468 -0.0035  0.3237
  870MOL0     C17363  13.248   1.038  10.057 -0.2443  0.1450  0.6996
  870MOL0     C17364  13.112   1.036  10.080 -0.2641 -0.4751  0.1215
  870MOL0     N17365  12.403   0.829   9.968 -0.3749  0.0073 -0.6730
  870MOL0     N17366  12.284   0.786   9.935 -0.5318  0.1403 -0.4375
  870MOL0     C17367  11.123   0.817   9.961 -0.4895 -0.2916  0.7071
  870MOL0     C17368  11.033   0.832  10.065 -0.2889 -0.0381  0.9514
  870MOL0     C17369  10.849   0.932  10.453 -0.7950  0.4141  0.4335
  870MOL0     C17370  10.871   1.011  10.567 -0.5345  0.0354 -0.7095
  870MOL0     C17371  10.777   1.039  10.659 -0.2761 -0.5498  0.0177
  870MOL0     C17372  10.651   0.979  10.653  0.3323 -0.5113  0.1283
  870MOL0     O17373  10.566   1.003  10.768 -0.2109  0.7350  0.4049
  870MOL0     C17374  10.431   0.988  10.754 -0.0440  0.1412 -0.1110
  870MOL0     C17375  10.381   1.099  10.658  0.7305 -0.8360 -1.2259
  870MOL0     C17376  10.232   1.106  10.655 -0.3449 -0.4277 -0.3848
  870MOL0     C17377  10.190   1.186  10.533 -0.3217 -0.4739 -0.4759
  870MOL0     C17378  10.061   1.249  10.556  0.2602  0.5591 -0.8799
  870MOL0     C17379   9.956   1.316  10.556  0.1003 -0.3307  0.5405
  870MOL0     C17380  10.615   0.905  10.540 -0.1169  1.0663 -0.3908
  870MOL0     C17381  10.711   0.885  10.437  0.8447 -0.2155 -0.6395
  870MOL0     C17382  10.656   0.808  10.323  0.6932  0.3231  0.8340
  870MOL0     H17383  11.208   0.682  10.317 -1.0935  2.0863  0.5665
  870MOL0     H17384  11.376   0.672  10.137 -1.2438 -2.0500  0.1655
  870MOL0     H17385  11.236   0.784   9.720  0.2906 -1.2417 -0.2753
  870MOL0     H17386  11.341   0.904   9.767  0.8670  0.2700 -1.2351
  870MOL0     H17387  11.450   0.789   9.569  0.4742 -0.1954 -0.5110
  870MOL0     H17388  11.432   0.639   9.647 -1.2065  0.2825 -1.1444
  870MOL0     H17389  11.670   0.736   9.645 -0.9065  0.4097 -1.1113
  870MOL0     H17390  11.614   0.700   9.808 -0.7278  0.8733  0.3463
  870MOL0     H17391  11.601   0.971   9.682  1.8246 -2.9414 -2.8119
  870MOL0     H17392  11.555   0.919   9.842  1.6667 -3.0796  2.0695
  870MOL0     H17393  11.788   0.999   9.862 -1.0042  1.1642  0.2755
  870MOL0     H17394  11.778   0.826   9.880 -1.0515  0.4116  0.1246
  870MOL0     H17395  11.865   0.776   9.657  0.7361 -0.1156 -2.1728
  870MOL0     H17396  11.887   0.946   9.625  1.6715 -1.7504 -1.2853
  870MOL0     H17397  12.078   0.965   9.713  1.3191 -2.0678 -3.2898
  870MOL0     H17398  12.095   0.797   9.717  1.8214  0.1992  1.0716
  870MOL0     H17399  11.986   0.966   9.943 -0.9471 -0.2760 -2.0597
  870MOL0     H17400  11.990   0.781   9.949  0.3333 -1.1163 -1.3268
  870MOL0     H17401  12.202   1.078  10.053 -0.1661 -0.3001  0.3474
  870MOL0     H17402  12.471   1.093  10.166  1.8609 -0.2773  0.1997
  870MOL0     H17403  12.570   0.953  10.125  0.0999 -1.0651  0.8342
  870MOL0     H17404  12.585   1.034   9.881  0.9487  2.2564 -1.4681
  870MOL0     H17405  12.489   1.172   9.942  0.7176  0.8007 -0.9185
  870MOL0     H17406  12.674   1.185  10.129 -1.2795 -1.8495 -0.1848
  870MOL0     H17407  12.715   1.251   9.966  1.7112 -0.5028 -0.3335
  870MOL0     H17408  12.881   1.087   9.948 -1.3044 -2.9822 -1.5110
  870MOL0     H17409  12.798   0.975  10.061 -0.0661 -0.3154  0.6349
  870MOL0     H17410  13.073   1.305  10.267 -0.3353 -1.1328  1.0441
  870MOL0     H17411  13.315   1.276  10.281 -2.3957  1.1278  0.7363
  870MOL0     H17412  13.618   1.194   9.866  0.8557  0.7587 -1.8811
  870MOL0     H17413  13.838   1.201   9.779  1.2365 -2.1558 -2.0834
  870MOL0     H17414  14.122   0.873   9.947  1.0726  0.5957 -0.0432
  870MOL0     H17415  14.047   0.808   9.798 -0.7388 -1.2056  1.0910
  870MOL0     H17416  14.225   0.916   9.659 -0.2854  3.0997  0.1453
  870MOL0     H17417  14.282   1.006   9.799 -2.5887 -0.1532  2.9163
  870MOL0     H17418  14.441   0.816   9.771  0.6093 -1.0807  0.9731
  870MOL0     H17419  14.328   0.755   9.894  0.5361  1.2123  0.9984
  870MOL0     H17420  14.282   0.687   9.603  0.9649 -2.0723 -0.5513
  870MOL0     H17421  14.199   0.619   9.733  0.1831 -0.6896  0.7570
  870MOL0     H17422  14.370   0.455   9.669 -1.2904  1.8360 -1.8201
  870MOL0     H17423  14.366   0.509   9.834 -2.0172 -0.3543  0.0155
  870MOL0     H17424  14.549   0.666   9.644 -0.9965  1.6839  2.4870
  870MOL0     H17425  14.579   0.612   9.804 -1.4188  0.4742  0.1657
  870MOL0     H17426  14.716   0.508   9.613  1.3975 -3.2343 -0.4876
  870MOL0     H17427  14.567   0.419   9.575 -1.6410 -0.0316  1.0149
  870MOL0     H17428  14.555   0.346   9.824  0.4032  0.0410  0.5896
  870MOL0     H17429  14.673   0.268   9.716 -1.3013  0.2657 -0.7920
  870MOL0     H17430  13.937   0.883  10.054 -0.8040 -0.1484  0.9856
  870MOL0     H17431  13.703   0.890  10.144 -0.0307  1.6550  0.7139
  870MOL0     H17432  13.291   0.964   9.990  1.1533 -0.8914  2.6455
  870MOL0     H17433  13.047   0.961  10.036 -0.2188  0.5905 -1.8892
  870MOL0     H17434  11.099   0.845   9.859  4.0880 -2.2269 -1.1999
  870MOL0     H17435  10.940   0.877  10.030 -0.4181  0.3262  1.7538
  870MOL0     H17436  10.964   1.065  10.573 -0.5748  0.1195 -0.8322
  870MOL0     H17437  10.795   1.107  10.742  1.0766 -0.9387  0.0671
  870MOL0     H17438  10.379   0.996  10.850  1.6540  1.2634  0.7516
  870MOL0     H17439  10.418   0.885  10.718  1.2731 -0.7692  1.8607
  870MOL0     H17440  10.411   1.064  10.558  0.3743 -0.6893 -1.3854
  870MOL0     H17441  10.429   1.195  10.679  1.3893 -1.9341  3.1102
  870MOL0     H17442  10.205   1.162  10.745 -0.1326  0.5661 -0.9235
  870MOL0     H17443  10.176   1.015  10.677 -1.2251  0.1123 -0.2932
  870MOL0     H17444  10.261   1.269  10.519 -0.6313 -0.1959 -0.4006
  870MOL0     H17445  10.189   1.134  10.437  1.0281 -2.1144  0.3431
  870MOL0     H17446   9.856   1.351  10.572 -0.9709 -2.3071 -1.2762
  870MOL0     H17447  10.515   0.865  10.525  0.2243  0.6503 -1.6536
  870MOL0     H17448  10.711   0.827  10.230 -0.3888  1.8248  0.4684
  870MOL0     H17449  10.655   0.703  10.353 -1.8987 -0.4098 -1.4381
  870MOL0     H17450  10.553   0.837  10.301  0.6416  0.2848  1.0265
  871MOL0     O17451   0.079   2.953   3.378 -0.3191 -0.6244 -0.4089
  871MOL0     C17452   0.004   2.860   3.385  0.5353  0.5607 -0.4524
  871MOL0     O17453  -0.018   2.782   3.493 -0.7558 -0.4103  0.4484
  871MOL0     C17454   0.084   2.768   3.584  0.1328 -0.0850  0.4269
  871MOL0     C17455   0.216   2.734   3.548 -0.7408  0.8842  0.6250
  871MOL0     C17456   0.315   2.699   3.646  0.1889 -0.0446  0.6257
  871MOL0     C17457   0.287   2.714   3.781 -0.4997  0.0503  0.1464
  871MOL0     O17458   0.370   2.685   3.884  0.2968 -0.1744 -0.6821
  871MOL0     C17459   0.510   2.654   3.849  0.7634  0.1200  0.7128
  871MOL0     C17460   0.597   2.688   3.972  0.4951 -0.0568  0.7757
  871MOL0     C17461   0.728   2.608   3.975  0.1329 -0.0574 -1.0429
  871MOL0     C17462   0.834   2.667   4.076 -0.5691 -0.5813  0.6640
  871MOL0     C17463   0.972   2.605   4.031  0.3141  0.8912 -0.7257
  871MOL0     C17464   1.076   2.658   4.130 -0.4089 -0.1006  0.2770
  871MOL0     C17465   1.222   2.600   4.108  0.7182  0.6942 -0.2021
  871MOL0     C17466   1.311   2.676   4.009  0.4596  0.7128 -0.4072
  871MOL0     N17467   1.445   2.617   4.000 -0.0040  0.0051  0.0563
  871MOL0     C17468   1.499   2.530   3.912  0.8795 -1.1032 -0.5356
  871MOL0     C17469   1.629   2.535   3.915 -0.3698 -1.0355  0.2187
  871MOL0     C17470   1.726   2.460   3.827  0.5405 -0.9486 -0.8635
  871MOL0     C17471   1.805   2.354   3.903 -0.1003  0.1020 -0.3916
  871MOL0     C17472   1.901   2.276   3.814  0.0639 -0.4274  0.4549
  871MOL0     C17473   2.031   2.362   3.788  0.2962 -0.3798 -0.3825
  871MOL0     O17474   2.137   2.273   3.768  0.2695  0.2375  0.2030
  871MOL0     C17475   2.249   2.327   3.723  0.4264 -0.9116 -0.5456
  871MOL0     C17476   2.276   2.470   3.718  0.1296  0.1360  0.3864
  871MOL0     C17477   2.404   2.510   3.664  0.5156  0.7139 -0.9937
  871MOL0     C17478   2.493   2.421   3.603  0.3970  0.1987 -0.4644
  871MOL0     C17479   2.629   2.466   3.544  0.0544 -0.2464  0.4355
  871MOL0     O17480   2.728   2.371   3.507 -0.2310  0.6156 -0.3155
  871MOL0     C17481   2.856   2.401   3.455 -0.2802  0.3069  0.1481
  871MOL0     C17482   2.978   2.364   3.520  0.7675  0.0289 -0.0246
  871MOL0     C17483   3.099   2.397   3.457  0.3958  0.4360 -0.7455
  871MOL0     C17484   3.110   2.457   3.338  0.0543 -0.2763 -0.2740
  871MOL0     O17485   3.229   2.470   3.271 -0.5126 -0.8464  0.0879
  871MOL0     C17486   3.332   2.366   3.283 -0.0173 -0.6115 -0.2015
  871MOL0     C17487   3.452   2.380   3.191  0.1224 -0.0179  0.2620
  871MOL0     C17488   3.515   2.524   3.211 -0.2102  1.0610  0.4481
  871MOL0     C17489   3.649   2.527   3.135  0.0405  0.2758 -0.0788
  871MOL0     C17490   3.728   2.658   3.151 -0.2137 -0.1799  0.1323
  871MOL0     C17491   3.873   2.649   3.099  0.5697  0.9456  0.3674
  871MOL0     C17492   3.931   2.787   3.097 -0.3216 -0.3321 -0.7826
  871MOL0     C17493   4.077   2.782   3.079  0.5973 -0.3499  0.2603
  871MOL0    Cl17494   4.163   2.739   3.239  0.3017  0.1204  0.3256
  871MOL0     C17495   2.990   2.498   3.284  0.8131  0.0249  0.1101
  871MOL0     C17496   2.868   2.468   3.337  0.0978  0.1675  1.1394
  871MOL0     O17497   2.650   2.589   3.539  0.2346 -0.3029 -0.0732
  871MOL0     C17498   2.467   2.284   3.614  0.3274  0.4281  0.9498
  871MOL0     C17499   2.351   2.240   3.686  0.1099  0.3610 -0.7164
  871MOL0     N17500   1.661   2.616   4.027  0.0417  0.2089 -0.6607
  871MOL0     N17501   1.547   2.678   4.066 -0.3303  0.5690 -0.0413
  871MOL0     C17502   0.163   2.751   3.818  1.4277 -0.9357  0.4254
  871MOL0     C17503   0.064   2.764   3.725  0.4748 -0.4691  0.0082
  871MOL0     C17504  -0.092   2.838   3.271 -0.8409 -0.2355 -0.5006
  871MOL0     C17505  -0.149   2.951   3.216 -0.8399 -0.2082 -0.0316
  871MOL0     C17506  -0.251   2.946   3.125 -0.2559  0.3402  0.6376
  871MOL0     C17507  -0.277   2.821   3.064 -0.0707  0.5527  0.1540
  871MOL0     O17508  -0.370   2.818   2.964 -0.0804 -0.3966  0.4470
  871MOL0     C17509  -0.391   2.709   2.874 -0.0650  0.0680 -0.1116
  871MOL0     C17510  -0.293   2.703   2.755  0.2175  0.1610  0.0707
  871MOL0     C17511  -0.288   2.562   2.683 -0.0455  0.5698  0.3089
  871MOL0     C17512  -0.244   2.452   2.763  0.2789 -0.6872 -0.2520
  871MOL0     C17513  -0.120   2.483   2.825  0.4099 -0.3600  0.1566
  871MOL0     C17514  -0.025   2.502   2.898  0.0490  0.8213  0.6400
  871MOL0     C17515  -0.215   2.706   3.110 -0.7897 -0.3104 -0.1544
  871MOL0     C17516  -0.119   2.711   3.210 -0.5319 -0.8735  0.2970
  871MOL0     C17517  -0.049   2.589   3.256  0.2854  0.5176  1.0348
  871MOL0     H17518   0.226   2.729   3.440 -1.4072  1.9123  0.5011
  871MOL0     H17519   0.409   2.655   3.614 -0.2386  0.0532 -0.8370
  871MOL0     H17520   0.525   2.546   3.837 -0.2786  0.1406 -1.1437
  871MOL0     H17521   0.535   2.693   3.750  0.4960 -1.7272 -0.1332
  871MOL0     H17522   0.532   2.646   4.050 -1.2014 -0.5191 -0.8176
  871MOL0     H17523   0.611   2.796   3.985 -2.8272  0.4463  1.1664
  871MOL0     H17524   0.781   2.600   3.879  1.0449  1.0633 -0.6644
  871MOL0     H17525   0.720   2.503   4.003  1.9860  0.4246  1.6397
  871MOL0     H17526   0.846   2.775   4.070  1.0988 -0.8104 -1.1739
  871MOL0     H17527   0.787   2.646   4.172 -3.2807  0.2859 -0.3726
  871MOL0     H17528   0.973   2.497   4.019 -0.9549  1.0710 -3.1482
  871MOL0     H17529   1.016   2.632   3.934  2.5055  2.5535  0.6426
  871MOL0     H17530   1.083   2.766   4.144  0.9218 -0.2683  1.1694
  871MOL0     H17531   1.047   2.616   4.227 -2.0912 -0.8626 -0.5207
  871MOL0     H17532   1.229   2.491   4.097  1.7812  0.9076 -1.8367
  871MOL0     H17533   1.272   2.612   4.205 -0.3441 -2.3610  0.8415
  871MOL0     H17534   1.264   2.683   3.911 -3.1118 -0.0537  1.1120
  871MOL0     H17535   1.332   2.777   4.045  0.3651  0.3566  0.6858
  871MOL0     H17536   1.439   2.460   3.853 -1.0386 -0.4155  0.5094
  871MOL0     H17537   1.672   2.417   3.741  0.4703 -0.2438 -1.1760
  871MOL0     H17538   1.794   2.541   3.799 -0.8256  2.1601  3.8015
  871MOL0     H17539   1.851   2.408   3.985 -1.6593  1.9968 -0.6865
  871MOL0     H17540   1.731   2.281   3.939  0.5189 -0.4848 -0.2909
  871MOL0     H17541   1.854   2.252   3.717 -0.3875  0.3253  0.4833
  871MOL0     H17542   1.938   2.182   3.856  1.1835 -1.0136 -1.6905
  871MOL0     H17543   2.048   2.441   3.862  0.4142 -1.7968  1.1659
  871MOL0     H17544   2.016   2.417   3.695 -3.2140 -2.6971 -1.3905
  871MOL0     H17545   2.201   2.543   3.746 -0.7211 -0.9917  1.1733
  871MOL0     H17546   2.441   2.612   3.665  0.6529  0.6669 -1.2941
  871MOL0     H17547   2.972   2.293   3.601  0.5112 -1.6723 -1.4610
  871MOL0     H17548   3.186   2.381   3.521 -0.6229  1.0916  0.8463
  871MOL0     H17549   3.367   2.379   3.386 -1.3193 -1.4909  0.3809
  871MOL0     H17550   3.280   2.270   3.273 -1.3274 -0.1649  1.7088
  871MOL0     H17551   3.527   2.303   3.213 -2.2832 -2.4463  0.4682
  871MOL0     H17552   3.416   2.359   3.090  2.7968 -3.4509 -0.1772
  871MOL0     H17553   3.457   2.604   3.164 -1.0941  0.3475  0.3022
  871MOL0     H17554   3.527   2.550   3.317  1.2027 -2.2034  1.2201
  871MOL0     H17555   3.632   2.510   3.029  0.2131  1.9891 -0.4082
  871MOL0     H17556   3.708   2.443   3.173 -4.2933 -1.5492  3.5503
  871MOL0     H17557   3.736   2.695   3.254  2.2701 -1.5482  0.5161
  871MOL0     H17558   3.671   2.726   3.087 -3.1951 -0.8816  1.8371
  871MOL0     H17559   3.930   2.584   3.166 -0.9355  0.5497  1.3113
  871MOL0     H17560   3.883   2.606   2.999 -3.2844  3.7193 -1.4593
  871MOL0     H17561   3.900   2.838   3.189  2.2646  0.2836 -0.1772
  871MOL0     H17562   3.893   2.837   3.007 -0.9660  2.2600  0.8098
  871MOL0     H17563   4.095   2.724   2.988 -2.3980 -0.4606 -0.3693
  871MOL0     H17564   4.107   2.882   3.045 -2.3430  0.6195  0.2776
  871MOL0     H17565   2.985   2.563   3.197  0.9662  2.2028  1.6499
  871MOL0     H17566   2.777   2.495   3.285  1.1517 -1.1804 -1.6623
  871MOL0     H17567   2.545   2.223   3.569  2.0038  2.4291  0.9782
  871MOL0     H17568   2.329   2.137   3.712  0.2278 -0.0512 -2.1683
  871MOL0     H17569   0.144   2.763   3.924 -0.2762  0.6634 -0.0125
  871MOL0     H17570  -0.038   2.789   3.752  0.6096 -0.0847  0.1761
  871MOL0     H17571  -0.112   3.048   3.248  0.5832  0.4126 -3.1192
  871MOL0     H17572  -0.304   3.033   3.089 -0.2616  1.0620  2.3032
  871MOL0     H17573  -0.488   2.701   2.824  1.3486 -2.8027 -2.7581
  871MOL0     H17574  -0.389   2.612   2.925  0.7162 -0.2913 -0.7960
  871MOL0     H17575  -0.191   2.724   2.788  0.6262 -0.4131 -0.7971
  871MOL0     H17576  -0.315   2.790   2.691  1.3743  0.1280 -0.4044
  871MOL0     H17577  -0.218   2.560   2.599 -0.4228 -0.0539  0.0002
  871MOL0     H17578  -0.382   2.541   2.630  1.8937  2.5067 -4.4653
  871MOL0     H17579  -0.323   2.434   2.837  0.2352 -1.2824 -0.4385
  871MOL0     H17580  -0.238   2.361   2.702 -2.8385 -1.1330 -0.1102
  871MOL0     H17581   0.054   2.519   2.969 -1.1288  1.2538  1.8705
  871MOL0     H17582  -0.237   2.607   3.073 -0.0845 -0.2509 -0.7503
  871MOL0     H17583  -0.043   2.589   3.365  0.5213  1.0179  1.0263
  871MOL0     H17584  -0.094   2.495   3.223 -2.5784  1.7590  1.0986
  871MOL0     H17585   0.054   2.591   3.218  0.6234 -1.2563  1.7369
  872MOL0     O17586   9.034   2.891   8.861 -0.3254  0.2697  0.7171
  872MOL0     C17587   9.047   2.927   8.979  0.0481 -0.4747  0.2878
  872MOL0     O17588   9.154   3.005   9.025 -0.2849  0.3286 -1.1489
  872MOL0     C17589   9.280   2.949   9.013 -0.1285  0.2379 -0.3299
  872MOL0     C17590   9.390   3.037   9.040 -0.5438  0.0869  0.9636
  872MOL0     C17591   9.518   2.986   9.041  0.4847 -0.0885  1.6617
  872MOL0     C17592   9.546   2.851   9.001  1.0007 -0.2992 -0.1380
  872MOL0     O17593   9.670   2.799   8.994  0.3520  0.2888  0.6160
  872MOL0     C17594   9.780   2.886   8.980 -0.0218  0.2147  0.5547
  872MOL0     C17595   9.856   2.875   9.116 -0.0165 -0.1481  0.1143
  872MOL0     C17596  10.007   2.866   9.105 -0.9753  0.3377 -0.2028
  872MOL0     C17597  10.087   2.997   9.139 -0.2129  0.2519 -0.0686
  872MOL0     C17598  10.244   3.000   9.123  0.9956  0.1210  0.0675
  872MOL0     C17599  10.313   3.141   9.152  0.5303 -0.1604 -0.5319
  872MOL0     C17600  10.461   3.132   9.145  0.1415 -0.1845  0.1102
  872MOL0     C17601  10.527   3.074   9.269 -0.6256  0.2352 -0.1543
  872MOL0     N17602  10.676   3.078   9.262 -0.4275 -0.0453 -0.0707
  872MOL0     C17603  10.760   2.968   9.284  0.7024 -0.3601 -0.5548
  872MOL0     C17604  10.882   3.027   9.318  0.0412 -0.3303 -0.0616
  872MOL0     C17605  11.016   2.973   9.338 -0.3383  0.2037 -0.2658
  872MOL0     C17606  11.107   2.952   9.208  0.0631  0.2233 -0.0013
  872MOL0     C17607  11.129   3.093   9.152 -0.3505  0.7725  0.4266
  872MOL0     C17608  11.216   3.104   9.021  0.8849 -0.2642  1.0607
  872MOL0     O17609  11.311   2.995   9.010 -0.1443 -0.3020  1.2077
  872MOL0     C17610  11.412   2.999   8.918  0.3462 -0.1973 -0.2959
  872MOL0     C17611  11.514   2.910   8.930 -0.7860  0.4545 -0.0255
  872MOL0     C17612  11.634   2.907   8.849  0.7349  0.3808  0.0225
  872MOL0     C17613  11.653   3.006   8.752 -0.4869 -0.5675  0.0893
  872MOL0     C17614  11.764   3.018   8.656 -0.2634  0.3561  0.1651
  872MOL0     O17615  11.792   3.146   8.605  0.4620 -0.3370 -1.4813
  872MOL0     C17616  11.902   3.153   8.521  0.0787 -0.0507 -0.2439
  872MOL0     C17617  11.989   3.264   8.540 -0.5044  0.6824  0.5703
  872MOL0     C17618  12.102   3.283   8.464  0.5295 -0.3748 -0.3424
  872MOL0     C17619  12.143   3.188   8.374  0.3761 -0.1348 -0.7418
  872MOL0     O17620  12.253   3.214   8.307 -0.2235  0.3670 -0.0164
  872MOL0     C17621  12.327   3.113   8.236 -0.4206  0.5322 -0.4398
  872MOL0     C17622  12.457   3.168   8.158 -0.0300 -0.4618 -0.0811
  872MOL0     C17623  12.537   3.264   8.250 -0.0587 -0.4331 -0.4640
  872MOL0     C17624  12.674   3.306   8.187  0.6828 -0.3380 -1.1613
  872MOL0     C17625  12.731   3.431   8.266 -0.1336  0.1507  0.6214
  872MOL0     C17626  12.871   3.479   8.217  0.2574 -0.2520  0.2173
  872MOL0     C17627  12.922   3.608   8.287 -0.8148  0.8316 -0.3753
  872MOL0     C17628  13.055   3.644   8.233 -0.8285  1.0486 -0.4436
  872MOL0    Cl17629  13.176   3.529   8.316 -0.1942  0.2275  0.1941
  872MOL0     C17630  12.061   3.071   8.358 -0.8288 -0.7118  0.1096
  872MOL0     C17631  11.946   3.058   8.429 -0.2914  0.0566 -0.2939
  872MOL0     O17632  11.833   2.920   8.649  0.4256 -0.0301  1.1338
  872MOL0     C17633  11.549   3.102   8.744  0.4817 -0.2294 -0.7916
  872MOL0     C17634  11.429   3.099   8.817  0.4245  0.5540  0.2388
  872MOL0     N17635  10.866   3.165   9.313  0.3947  0.2919 -0.9749
  872MOL0     N17636  10.753   3.189   9.270  0.4728  0.0899 -0.3183
  872MOL0     C17637   9.438   2.761   8.974 -0.1150 -0.3814 -0.5210
  872MOL0     C17638   9.310   2.818   8.991 -0.2495  0.0506  0.2770
  872MOL0     C17639   8.943   2.887   9.080  1.2181  0.7978 -0.5597
  872MOL0     C17640   8.960   2.941   9.214 -0.2832 -0.5812 -0.0187
  872MOL0     C17641   8.886   2.888   9.325 -0.1787  0.4246  0.2047
  872MOL0     C17642   8.787   2.790   9.304 -0.0155 -0.4693  0.0583
  872MOL0     O17643   8.705   2.746   9.404  0.1463 -0.3170 -0.1584
  872MOL0     C17644   8.664   2.840   9.511  0.5829  0.5136  0.1435
  872MOL0     C17645   8.534   2.785   9.579 -0.1008  0.1005  0.3109
  872MOL0     C17646   8.412   2.778   9.479  0.1219  0.5825 -0.1473
  872MOL0     C17647   8.344   2.917   9.457  0.1559 -0.0347  0.9875
  872MOL0     C17648   8.209   2.889   9.414  0.4765  0.6396  0.6247
  872MOL0     C17649   8.093   2.885   9.371  0.6918  0.2980  0.4799
  872MOL0     C17650   8.768   2.737   9.173  0.1516  0.6822  0.0158
  872MOL0     C17651   8.839   2.786   9.060  0.4483  0.0787  0.0968
  872MOL0     C17652   8.801   2.727   8.922 -0.4493  0.5543 -0.7484
  872MOL0     H17653   9.362   3.138   9.069 -2.0362 -0.5004  1.6484
  872MOL0     H17654   9.604   3.050   9.057  0.5128  0.3177  0.0448
  872MOL0     H17655   9.836   2.838   8.899  0.1460  0.1535  0.7054
  872MOL0     H17656   9.755   2.990   8.958  0.4233  0.3867  0.8427
  872MOL0     H17657   9.804   2.801   9.178 -0.2874 -0.0012  0.0678
  872MOL0     H17658   9.840   2.969   9.170  0.9496  1.4797 -2.2520
  872MOL0     H17659  10.053   2.809   9.023  2.9433 -0.5515  2.3032
  872MOL0     H17660  10.037   2.802   9.189  3.2643  1.4404 -0.6227
  872MOL0     H17661  10.038   3.077   9.084 -0.9095  0.3245  0.6408
  872MOL0     H17662  10.068   3.010   9.246 -2.5916 -1.2051 -0.2409
  872MOL0     H17663  10.280   2.926   9.195  1.3032  0.2839  0.0834
  872MOL0     H17664  10.277   2.960   9.027  0.4420  1.4956 -0.7169
  872MOL0     H17665  10.276   3.217   9.083 -2.9347 -0.3499  0.9228
  872MOL0     H17666  10.277   3.169   9.251 -1.4460 -1.0510 -0.9597
  872MOL0     H17667  10.501   3.233   9.131 -0.3724 -0.1208 -0.9995
  872MOL0     H17668  10.487   3.067   9.061 -4.3031 -0.1168 -1.5593
  872MOL0     H17669  10.486   3.125   9.357 -1.1011 -0.4478  0.0308
  872MOL0     H17670  10.496   2.970   9.282  1.3478 -0.3610  0.0169
  872MOL0     H17671  10.724   2.866   9.287  0.8810 -0.4404 -1.0833
  872MOL0     H17672  11.069   3.025   9.419 -1.6134  0.3311  0.5200
  872MOL0     H17673  11.004   2.876   9.387  1.1823  0.5924  0.9476
  872MOL0     H17674  11.199   2.901   9.238 -2.1221 -3.4652  1.1142
  872MOL0     H17675  11.058   2.890   9.132  3.3731  1.0020 -3.0954
  872MOL0     H17676  11.175   3.154   9.230  1.3507 -1.2359  1.0997
  872MOL0     H17677  11.034   3.139   9.124 -0.2491  0.4058 -0.5734
  872MOL0     H17678  11.265   3.202   9.030  0.7873 -0.3409  2.6883
  872MOL0     H17679  11.145   3.103   8.938  1.0056  1.4260  0.9015
  872MOL0     H17680  11.508   2.844   9.016  0.7955 -0.1568 -0.3304
  872MOL0     H17681  11.713   2.835   8.864  0.3381 -0.3237 -1.1220
  872MOL0     H17682  11.989   3.325   8.629  4.3835  2.5604 -0.4463
  872MOL0     H17683  12.161   3.372   8.483 -0.6771  0.1238  1.2719
  872MOL0     H17684  12.358   3.036   8.307 -0.6689  0.2925 -0.5896
  872MOL0     H17685  12.260   3.062   8.166 -0.4715 -0.4825  0.3381
  872MOL0     H17686  12.516   3.079   8.135  2.1400  1.3192 -1.9029
  872MOL0     H17687  12.424   3.215   8.066 -0.6105 -0.2449  0.2341
  872MOL0     H17688  12.481   3.349   8.291  0.6515 -0.1584 -0.0461
  872MOL0     H17689  12.559   3.215   8.345  0.0634  2.9675  1.4146
  872MOL0     H17690  12.672   3.333   8.081  1.9037  1.5893 -0.7482
  872MOL0     H17691  12.742   3.220   8.191 -0.3346 -1.1866 -1.6153
  872MOL0     H17692  12.737   3.406   8.373 -1.4169 -0.9792  0.4569
  872MOL0     H17693  12.658   3.511   8.250 -0.0614  0.1739  0.4056
  872MOL0     H17694  12.936   3.394   8.240  1.8254  0.5563 -1.0308
  872MOL0     H17695  12.859   3.488   8.109  0.8667 -0.6085  0.1145
  872MOL0     H17696  12.925   3.597   8.396  3.0704 -0.6621 -0.4805
  872MOL0     H17697  12.844   3.677   8.253 -0.5590  0.4092 -1.9017
  872MOL0     H17698  13.058   3.635   8.124  0.6571  1.2550 -0.4475
  872MOL0     H17699  13.073   3.748   8.263 -1.9045  0.7355  1.4444
  872MOL0     H17700  12.086   2.998   8.281 -2.0849  2.0780 -3.1906
  872MOL0     H17701  11.874   2.976   8.421 -1.4725  0.7569  2.2984
  872MOL0     H17702  11.559   3.191   8.682  0.8385 -0.3931 -0.9685
  872MOL0     H17703  11.367   3.189   8.817 -1.0949 -0.4520 -0.1594
  872MOL0     H17704   9.444   2.654   8.957 -1.2225 -0.3106 -1.4825
  872MOL0     H17705   9.233   2.741   8.985  1.0447 -1.3784  1.3213
  872MOL0     H17706   9.037   3.014   9.239 -0.4460 -0.6795  0.8056
  872MOL0     H17707   8.913   2.937   9.418 -2.9126  0.3230  1.1581
  872MOL0     H17708   8.640   2.940   9.473  0.7016  0.5679  0.2129
  872MOL0     H17709   8.736   2.864   9.590 -2.3748 -0.6983  3.4835
  872MOL0     H17710   8.506   2.850   9.661 -1.0026  1.2094 -0.8360
  872MOL0     H17711   8.548   2.683   9.616 -0.0689 -0.1055 -0.2456
  872MOL0     H17712   8.342   2.704   9.519 -1.2725  1.4266 -0.9307
  872MOL0     H17713   8.445   2.739   9.383  1.7984 -3.1390  1.7395
  872MOL0     H17714   8.344   2.970   9.553 -2.5317  1.7063  0.1434
  872MOL0     H17715   8.390   2.978   9.380 -0.4300 -0.2068  0.4904
  872MOL0     H17716   7.994   2.895   9.331  0.2650 -0.2977  1.3536
  872MOL0     H17717   8.685   2.668   9.161 -1.8288  3.2435 -1.9139
  872MOL0     H17718   8.812   2.796   8.838  1.2963  2.8452  1.2270
  872MOL0     H17719   8.858   2.636   8.901  1.1693  2.1808 -4.2749
  872MOL0     H17720   8.693   2.708   8.916 -0.6380  0.7386  1.2956
  873MOL0     O17721   9.806   7.414   2.186 -0.0072  0.6597  0.0746
  873MOL0     C17722   9.709   7.386   2.124 -0.0525  0.1399 -0.2172
  873MOL0     O17723   9.696   7.282   2.038 -0.3946 -0.3274  0.2544
  873MOL0     C17724   9.783   7.180   2.055  0.2724 -0.5651 -0.0474
  873MOL0     C17725   9.765   7.082   2.157 -0.5111 -0.6784 -0.4495
  873MOL0     C17726   9.853   6.979   2.162 -0.5738 -0.1337  0.2569
  873MOL0     C17727   9.960   6.959   2.076 -0.4956  1.3322 -0.2090
  873MOL0     O17728  10.050   6.856   2.084 -0.3408  0.6435 -0.2863
  873MOL0     C17729  10.041   6.769   2.196  0.7876 -0.6602 -0.1062
  873MOL0     C17730  10.112   6.819   2.323  0.2253 -0.2998 -0.3716
  873MOL0     C17731  10.265   6.835   2.294 -0.0661 -0.5428 -1.2361
  873MOL0     C17732  10.332   6.916   2.402 -0.9930 -0.2230  0.1693
  873MOL0     C17733  10.494   6.899   2.377 -0.3299  0.6758  1.0059
  873MOL0     C17734  10.567   6.917   2.499  0.1221 -0.8673 -0.3923
  873MOL0     C17735  10.544   7.048   2.569 -0.4518 -1.1411 -0.1996
  873MOL0     C17736  10.560   7.178   2.478 -0.1487 -1.0382  0.9601
  873MOL0     N17737  10.696   7.198   2.419  0.1968 -0.2924 -1.2899
  873MOL0     C17738  10.755   7.136   2.316 -0.2974 -0.0162  0.3354
  873MOL0     C17739  10.884   7.176   2.318  0.3778 -0.0893  0.0564
  873MOL0     C17740  10.977   7.115   2.217  0.3956  0.4110  0.4812
  873MOL0     C17741  11.098   7.204   2.177  1.0334  0.1745  0.5257
  873MOL0     C17742  11.217   7.118   2.124  0.1120  0.6256 -0.1615
  873MOL0     C17743  11.343   7.201   2.102  0.2889 -0.8874  0.5434
  873MOL0     O17744  11.328   7.323   2.020  0.6902  0.3980 -0.5337
  873MOL0     C17745  11.444   7.387   1.996  0.2060  0.2122  0.6910
  873MOL0     C17746  11.548   7.381   2.094 -0.0629  0.3366  0.4646
  873MOL0     C17747  11.678   7.420   2.060 -0.8778  0.1807  0.2247
  873MOL0     C17748  11.708   7.473   1.931  0.1002  0.0735  0.0425
  873MOL0     C17749  11.855   7.503   1.899  0.5844  0.0821  0.1834
  873MOL0     O17750  11.951   7.491   2.000 -0.4720 -0.6125  0.9575
  873MOL0     C17751  12.078   7.517   1.964 -0.3377 -0.1887 -0.3307
  873MOL0     C17752  12.146   7.463   1.854 -0.1179  0.0024 -1.1610
  873MOL0     C17753  12.277   7.510   1.827 -0.8431 -0.0362 -1.2043
  873MOL0     C17754  12.336   7.602   1.910  0.5259 -0.2569 -0.8742
  873MOL0     O17755  12.461   7.644   1.868 -0.3612 -0.1887  0.1357
  873MOL0     C17756  12.458   7.783   1.828  0.1656  0.2992 -0.2607
  873MOL0     C17757  12.586   7.852   1.878  0.1070 -0.9213  0.0047
  873MOL0     C17758  12.621   7.834   2.025  0.1855 -0.2937  0.3607
  873MOL0     C17759  12.765   7.889   2.048  0.0600  0.8037 -0.4673
  873MOL0     C17760  12.831   7.860   2.187  0.5475 -0.4498 -0.3010
  873MOL0     C17761  12.975   7.894   2.198 -0.5074  0.6696  0.1167
  873MOL0     C17762  13.039   8.028   2.155 -1.1199  0.1799 -0.6669
  873MOL0     C17763  12.996   8.135   2.256  0.4573 -0.0471  0.1953
  873MOL0    Cl17764  12.819   8.175   2.238 -0.0208 -0.0906  0.1595
  873MOL0     C17765  12.279   7.647   2.024  0.2586  0.0437  0.4386
  873MOL0     C17766  12.146   7.605   2.054 -0.1841 -0.6406  0.2115
  873MOL0     O17767  11.873   7.545   1.780 -0.3657 -0.0492 -0.0514
  873MOL0     C17768  11.606   7.488   1.841  0.1231 -0.0172 -0.0386
  873MOL0     C17769  11.475   7.446   1.876 -0.2039 -0.1340 -0.1408
  873MOL0     N17770  10.906   7.267   2.422 -0.2891 -0.5242 -0.2967
  873MOL0     N17771  10.790   7.272   2.491 -0.1822  0.0852 -0.2832
  873MOL0     C17772   9.982   7.057   1.985  0.1039 -0.5057 -0.0717
  873MOL0     C17773   9.896   7.163   1.968  0.0072 -0.9060  0.4937
  873MOL0     C17774   9.585   7.474   2.139 -0.6919  0.9112  0.6093
  873MOL0     C17775   9.467   7.420   2.102 -0.2759 -0.1583 -0.5583
  873MOL0     C17776   9.347   7.491   2.118 -0.0873  0.3753 -0.8817
  873MOL0     C17777   9.353   7.623   2.158 -0.6093  0.1017 -0.6688
  873MOL0     O17778   9.246   7.704   2.152  0.4884  0.1740 -0.2690
  873MOL0     C17779   9.121   7.664   2.088 -0.9987 -0.8195  0.4382
  873MOL0     C17780   9.030   7.569   2.178  0.6349  0.3372 -0.3390
  873MOL0     C17781   8.963   7.645   2.285  0.4610  0.0301  0.7129
  873MOL0     C17782   8.878   7.558   2.385 -0.0730  0.1881 -0.2033
  873MOL0     C17783   8.751   7.528   2.322  0.2746  0.0646  0.0066
  873MOL0     C17784   8.643   7.504   2.275  1.0400 -0.9774  0.4161
  873MOL0     C17785   9.467   7.674   2.206 -0.1305  1.0621 -0.1265
  873MOL0     C17786   9.587   7.601   2.199 -0.1908  0.0625 -0.2763
  873MOL0     C17787   9.716   7.665   2.248 -0.3646 -0.6609  0.2800
  873MOL0     H17788   9.689   7.086   2.234 -1.7335  0.1936 -1.6684
  873MOL0     H17789   9.830   6.906   2.239  1.0381 -0.1263  0.7886
  873MOL0     H17790   9.940   6.729   2.204 -0.9327  2.3650 -3.7045
  873MOL0     H17791  10.110   6.694   2.156  2.2382  0.3445  0.4017
  873MOL0     H17792  10.105   6.746   2.404  0.6489 -1.3723 -1.2627
  873MOL0     H17793  10.071   6.913   2.360  2.0751  0.1956  0.5482
  873MOL0     H17794  10.281   6.884   2.197  2.2197  0.6909 -0.3187
  873MOL0     H17795  10.309   6.735   2.290 -0.1941 -0.6177 -0.8154
  873MOL0     H17796  10.314   7.024   2.410  3.5062  0.7839 -0.5556
  873MOL0     H17797  10.310   6.866   2.496 -1.2330  0.5672  0.5371
  873MOL0     H17798  10.518   6.798   2.342 -1.9044 -0.4293  2.8978
  873MOL0     H17799  10.525   6.974   2.303  1.8177 -0.1710  0.9995
  873MOL0     H17800  10.537   6.840   2.571  1.9890 -1.2478  0.0221
  873MOL0     H17801  10.672   6.914   2.470 -0.3329  0.9159 -2.5559
  873MOL0     H17802  10.612   7.061   2.653 -2.4255  1.5707  1.1270
  873MOL0     H17803  10.445   7.046   2.615  0.4607  0.9420  2.0711
  873MOL0     H17804  10.486   7.182   2.397  1.7452  0.6639 -0.8006
  873MOL0     H17805  10.542   7.266   2.542 -1.5463  0.4528 -1.3412
  873MOL0     H17806  10.704   7.067   2.249 -3.4592  2.1031  0.3485
  873MOL0     H17807  11.021   7.024   2.259 -0.6032 -0.0985  0.4490
  873MOL0     H17808  10.923   7.092   2.125  0.2960  1.8566  0.1492
  873MOL0     H17809  11.067   7.280   2.104 -2.0774  0.5225  2.0449
  873MOL0     H17810  11.134   7.262   2.262 -1.3541 -1.1881  2.5667
  873MOL0     H17811  11.195   7.070   2.028 -2.6383 -0.9404  1.1463
  873MOL0     H17812  11.250   7.046   2.199 -0.9502  0.6417  0.3404
  873MOL0     H17813  11.419   7.144   2.048 -0.4252 -0.8186 -0.5798
  873MOL0     H17814  11.368   7.219   2.207 -0.4410  0.4962  0.5046
  873MOL0     H17815  11.533   7.346   2.196  1.7108 -1.0661  0.2990
  873MOL0     H17816  11.756   7.409   2.135 -1.8126 -2.6785  0.8846
  873MOL0     H17817  12.093   7.388   1.796 -2.9976  1.8192 -1.0778
  873MOL0     H17818  12.318   7.458   1.741 -1.8076  0.2617 -1.8583
  873MOL0     H17819  12.447   7.797   1.720 -1.0362 -1.7637 -0.4621
  873MOL0     H17820  12.369   7.838   1.858 -0.2216  0.3185 -1.4065
  873MOL0     H17821  12.654   7.787   1.821 -2.7847 -3.0669 -1.2528
  873MOL0     H17822  12.609   7.954   1.845  2.1292 -1.6219 -0.9698
  873MOL0     H17823  12.564   7.894   2.096  1.5687  2.4270 -0.6564
  873MOL0     H17824  12.625   7.730   2.057 -0.4020 -0.8092 -1.1687
  873MOL0     H17825  12.756   7.997   2.035 -0.4980  0.6850 -1.0964
  873MOL0     H17826  12.838   7.861   1.971  0.0499  0.5436 -0.3842
  873MOL0     H17827  12.827   7.751   2.199  1.7352 -1.1151 -4.3246
  873MOL0     H17828  12.773   7.912   2.264 -0.2975 -0.1362 -1.1236
  873MOL0     H17829  12.996   7.883   2.304  0.2299  0.9611  0.0115
  873MOL0     H17830  13.036   7.827   2.137  0.6850  2.8978 -1.3141
  873MOL0     H17831  13.024   8.054   2.050  1.0304 -0.2019 -1.1163
  873MOL0     H17832  13.146   8.012   2.167 -1.3316 -1.6539 -0.8531
  873MOL0     H17833  13.026   8.106   2.357  1.2322 -1.3032 -0.3724
  873MOL0     H17834  13.054   8.226   2.236  3.4383 -1.7139  0.6019
  873MOL0     H17835  12.337   7.712   2.089  1.2907 -1.4544  1.0703
  873MOL0     H17836  12.097   7.661   2.132  0.3710  0.3103 -0.1045
  873MOL0     H17837  11.618   7.527   1.741 -1.0280 -1.7709 -0.9113
  873MOL0     H17838  11.396   7.461   1.803 -0.9829 -1.5989  0.3501
  873MOL0     H17839  10.067   7.043   1.919 -0.1343 -1.9395 -0.1118
  873MOL0     H17840   9.917   7.227   1.883  1.6914 -2.5248 -0.3879
  873MOL0     H17841   9.460   7.322   2.057  3.4749 -0.3782 -0.9430
  873MOL0     H17842   9.258   7.453   2.069 -2.5758  1.3905  2.4508
  873MOL0     H17843   9.133   7.618   1.989 -0.1103 -0.8531  0.5537
  873MOL0     H17844   9.057   7.749   2.064 -1.0617 -1.2131 -0.8670
  873MOL0     H17845   9.086   7.483   2.215 -0.5709 -0.5683 -0.5364
  873MOL0     H17846   8.951   7.534   2.111  0.8302 -0.2345 -0.2737
  873MOL0     H17847   8.903   7.730   2.251  0.0616 -0.4634  0.1542
  873MOL0     H17848   9.049   7.681   2.342  1.3685  1.0358 -1.1900
  873MOL0     H17849   8.927   7.464   2.414 -1.6628 -1.0205 -1.2122
  873MOL0     H17850   8.855   7.611   2.477  0.4595 -1.8862  1.2157
  873MOL0     H17851   8.544   7.495   2.235  1.7027 -2.9201 -0.9572
  873MOL0     H17852   9.463   7.777   2.240 -2.3466  2.0498 -2.9556
  873MOL0     H17853   9.701   7.763   2.294  2.2737  0.8405 -1.7577
  873MOL0     H17854   9.763   7.612   2.332  1.6656  1.1860  0.4186
  873MOL0     H17855   9.784   7.677   2.163 -1.0733  1.4060 -0.0563
  874MOL0     O17856   7.830   8.805   6.782  0.3479 -0.1225 -0.5434
  874MOL0     C17857   7.787   8.919   6.795  0.2913 -0.8196  0.0482
  874MOL0     O17858   7.750   9.003   6.692 -0.2493  0.3442  0.3862
  874MOL0     C17859   7.757   8.956   6.560  0.1365 -0.5841 -0.7529
  874MOL0     C17860   7.689   8.848   6.515  0.9562  0.0900 -0.3307
  874MOL0     C17861   7.699   8.798   6.381 -0.1811  0.8472 -0.4785
  874MOL0     C17862   7.784   8.858   6.285  0.1329 -0.9235 -0.3549
  874MOL0     O17863   7.793   8.810   6.154 -0.6373 -0.1914  0.5420
  874MOL0     C17864   7.818   8.896   6.041 -0.3885  0.4840  0.5528
  874MOL0     C17865   7.903   8.837   5.927  1.0977 -0.2431  0.1366
  874MOL0     C17866   8.024   8.764   5.985  0.0078 -0.1182  0.0618
  874MOL0     C17867   8.123   8.876   6.034 -0.1714  0.7930 -0.2090
  874MOL0     C17868   8.266   8.837   6.015 -0.5892 -0.1567 -0.2306
  874MOL0     C17869   8.373   8.950   6.034 -0.3126 -0.0336  0.0848
  874MOL0     C17870   8.512   8.893   5.994 -0.3374  0.5409 -0.6349
  874MOL0     C17871   8.616   9.004   5.990 -0.1169 -0.2280  0.8399
  874MOL0     N17872   8.751   8.957   5.953 -0.2362 -0.2881 -0.0405
  874MOL0     C17873   8.847   8.888   6.035 -0.7491  1.0003 -0.2865
  874MOL0     C17874   8.952   8.873   5.956  0.9180 -0.9182  0.2133
  874MOL0     C17875   9.082   8.806   5.991  1.4252 -0.7795 -0.4732
  874MOL0     C17876   9.202   8.883   5.936 -0.3419 -0.4462 -0.2659
  874MOL0     C17877   9.330   8.832   6.013 -0.4452  0.9988  0.9826
  874MOL0     C17878   9.466   8.894   5.981 -0.1336  0.1005 -0.5728
  874MOL0     O17879   9.482   8.927   5.848  0.2378  0.6838 -0.2881
  874MOL0     C17880   9.564   8.846   5.772 -0.1330  0.2162  0.2678
  874MOL0     C17881   9.589   8.709   5.818 -0.9201 -0.5524 -0.3005
  874MOL0     C17882   9.656   8.612   5.742  0.5292  0.0456 -0.3350
  874MOL0     C17883   9.712   8.656   5.616  0.4575 -0.2158 -1.1489
  874MOL0     C17884   9.792   8.563   5.534 -1.0311 -0.1616  1.4381
  874MOL0     O17885   9.885   8.617   5.443 -0.0246 -0.0354 -0.7380
  874MOL0     C17886   9.984   8.541   5.389 -0.2072 -0.2750  1.0582
  874MOL0     C17887   9.969   8.428   5.311  0.0897 -0.3948  1.6672
  874MOL0     C17888  10.072   8.363   5.237 -0.6480  0.2402 -0.0693
  874MOL0     C17889  10.204   8.410   5.253 -0.0825 -0.4468 -0.8538
  874MOL0     O17890  10.312   8.359   5.193 -0.1340  0.0519 -0.3818
  874MOL0     C17891  10.278   8.288   5.062  0.7410 -0.0763  0.1423
  874MOL0     C17892  10.408   8.258   4.985 -0.0788  0.2435 -0.3590
  874MOL0     C17893  10.377   8.186   4.849  0.4755 -0.6697 -0.7787
  874MOL0     C17894  10.492   8.197   4.745  0.2956 -0.6464 -0.3139
  874MOL0     C17895  10.441   8.131   4.612 -0.6157  0.2159 -0.0138
  874MOL0     C17896  10.562   8.129   4.512  1.4582  0.0979 -0.5142
  874MOL0     C17897  10.501   8.082   4.383  0.1231 -0.0527 -0.0162
  874MOL0     C17898  10.583   8.113   4.268 -0.3294 -0.2843  0.2741
  874MOL0    Cl17899  10.597   8.292   4.231 -0.2790  0.3591  0.0833
  874MOL0     C17900  10.221   8.514   5.345  0.1768 -0.1372  0.6654
  874MOL0     C17901  10.114   8.588   5.400 -0.7127 -0.2393 -0.5151
  874MOL0     O17902   9.765   8.445   5.547 -0.6216 -0.2357 -0.9551
  874MOL0     C17903   9.701   8.793   5.583  0.6587 -0.2117 -0.1708
  874MOL0     C17904   9.627   8.886   5.658 -0.3369 -0.6075 -0.1971
  874MOL0     N17905   8.920   8.917   5.824 -0.9164 -0.0242 -0.7157
  874MOL0     N17906   8.796   8.957   5.826  0.2333 -0.2475 -0.0581
  874MOL0     C17907   7.851   8.968   6.338  0.7261  0.4606 -0.0915
  874MOL0     C17908   7.835   9.020   6.470 -0.3320 -0.4894 -0.2796
  874MOL0     C17909   7.789   8.995   6.924 -0.3485  0.9748 -0.1009
  874MOL0     C17910   7.684   9.100   6.934 -0.1228  0.6476 -0.0481
  874MOL0     C17911   7.656   9.168   7.048  0.1158 -0.4253  0.0432
  874MOL0     C17912   7.749   9.160   7.161  0.3598  0.4467  0.4708
  874MOL0     O17913   7.742   9.218   7.288  1.0386  0.1646 -0.7124
  874MOL0     C17914   7.621   9.259   7.350 -0.3035 -0.2374 -0.4992
  874MOL0     C17915   7.577   9.149   7.454 -0.1783  0.2944 -0.3868
  874MOL0     C17916   7.650   9.178   7.591  0.0106  0.4533  0.3025
  874MOL0     C17917   7.610   9.081   7.703  0.6731  0.8578  0.1597
  874MOL0     C17918   7.489   9.138   7.762 -0.6396  0.3885 -0.3888
  874MOL0     C17919   7.376   9.160   7.796 -0.1976 -0.2447  0.9203
  874MOL0     C17920   7.844   9.064   7.148 -0.8133  1.1223 -0.2043
  874MOL0     C17921   7.864   8.976   7.038 -0.0250 -0.0880  0.8029
  874MOL0     C17922   7.958   8.860   7.062  0.6660  0.0227  0.3768
  874MOL0     H17923   7.626   8.796   6.587  2.2780  1.0562  1.5964
  874MOL0     H17924   7.638   8.714   6.350  0.9899 -0.3910  0.4300
  874MOL0     H17925   7.718   8.914   6.002 -0.2834  1.1014  0.5542
  874MOL0     H17926   7.860   8.994   6.065  1.9218 -0.4087  0.4184
  874MOL0     H17927   7.922   8.916   5.854  0.5067 -0.8100 -0.6494
  874MOL0     H17928   7.834   8.770   5.877 -0.9862  0.6501  1.6673
  874MOL0     H17929   8.064   8.709   5.900  1.5912 -2.5843  2.2511
  874MOL0     H17930   7.994   8.693   6.062 -0.1776 -0.3388 -0.2131
  874MOL0     H17931   8.102   8.973   5.989 -1.3864 -1.0304 -3.9953
  874MOL0     H17932   8.106   8.886   6.142  2.3504 -2.8092  0.7572
  874MOL0     H17933   8.297   8.751   6.075 -2.3186  0.7532  2.1315
  874MOL0     H17934   8.279   8.800   5.912  0.5876 -3.5742  1.0073
  874MOL0     H17935   8.358   9.045   5.982  0.8080  1.0725  1.6786
  874MOL0     H17936   8.379   8.966   6.142  0.9696  1.6187 -0.1888
  874MOL0     H17937   8.493   8.844   5.898 -2.1186  0.3874 -0.2353
  874MOL0     H17938   8.546   8.810   6.055 -2.5336 -0.4972 -0.7420
  874MOL0     H17939   8.587   9.086   5.923  1.8546  0.0606  0.2797
  874MOL0     H17940   8.629   9.043   6.091 -1.2615 -2.7525  2.0306
  874MOL0     H17941   8.846   8.852   6.137  0.8501  1.4619 -0.0893
  874MOL0     H17942   9.090   8.801   6.100 -2.0651  1.3322  0.0253
  874MOL0     H17943   9.073   8.704   5.954 -2.3542 -0.5192 -0.6525
  874MOL0     H17944   9.199   8.869   5.827 -0.0358 -0.4487 -0.2739
  874MOL0     H17945   9.205   8.991   5.955 -0.1393  0.3076 -3.7907
  874MOL0     H17946   9.331   8.723   6.006 -2.2136  0.9717  0.5939
  874MOL0     H17947   9.327   8.850   6.121  5.2567  1.6358  1.3389
  874MOL0     H17948   9.547   8.831   6.018 -0.7198 -0.3848 -0.0927
  874MOL0     H17949   9.466   8.994   6.027 -0.6854  1.1705 -2.7434
  874MOL0     H17950   9.545   8.675   5.911 -0.5585  2.6403  1.1388
  874MOL0     H17951   9.674   8.512   5.781 -2.8224 -0.3607  0.4860
  874MOL0     H17952   9.878   8.369   5.309  1.0232 -1.9647 -2.2117
  874MOL0     H17953  10.041   8.275   5.181 -1.3356  0.9133 -0.7699
  874MOL0     H17954  10.221   8.195   5.075 -0.0532 -0.3544 -4.1175
  874MOL0     H17955  10.215   8.347   4.996 -2.7360 -1.2294  2.1425
  874MOL0     H17956  10.467   8.348   4.969  0.7567 -0.4684 -1.4392
  874MOL0     H17957  10.472   8.200   5.053 -1.1940  2.0856  2.4366
  874MOL0     H17958  10.355   8.081   4.868 -1.7350 -0.2164 -0.5503
  874MOL0     H17959  10.289   8.235   4.807 -0.8276 -1.9505  0.3676
  874MOL0     H17960  10.579   8.145   4.785  0.7923  2.0887  2.5555
  874MOL0     H17961  10.518   8.302   4.727 -1.8173 -0.0347 -0.1005
  874MOL0     H17962  10.349   8.175   4.573  0.9177  1.2072 -2.7918
  874MOL0     H17963  10.427   8.025   4.635  0.3349 -0.3542 -1.8791
  874MOL0     H17964  10.601   8.231   4.505  1.8167  0.2631  2.4534
  874MOL0     H17965  10.633   8.058   4.556 -0.1502 -2.9660 -2.5422
  874MOL0     H17966  10.398   8.119   4.373  0.6190  1.5365  0.4971
  874MOL0     H17967  10.494   7.973   4.374 -3.4118  0.0825 -0.2738
  874MOL0     H17968  10.682   8.076   4.297  0.3774  1.3696  0.0947
  874MOL0     H17969  10.547   8.061   4.180 -0.5060  0.8603 -0.3491
  874MOL0     H17970  10.323   8.549   5.351  0.4724 -1.2051  2.3390
  874MOL0     H17971  10.144   8.677   5.455 -1.8661  0.7048 -1.3796
  874MOL0     H17972   9.747   8.822   5.489  2.1633  1.3461  0.9993
  874MOL0     H17973   9.613   8.987   5.623  1.7964  0.5514  2.0210
  874MOL0     H17974   7.925   9.024   6.280  1.6835  0.5921  1.1988
  874MOL0     H17975   7.887   9.109   6.505 -1.1236  0.6359 -1.8437
  874MOL0     H17976   7.621   9.119   6.848 -1.0368 -0.8951  0.2510
  874MOL0     H17977   7.566   9.228   7.050  0.9052  0.8109 -0.5447
  874MOL0     H17978   7.542   9.266   7.274  0.0043 -4.2299 -1.4189
  874MOL0     H17979   7.645   9.353   7.400  0.3358 -0.6055 -0.0985
  874MOL0     H17980   7.584   9.049   7.410 -2.9259  0.7306 -2.0636
  874MOL0     H17981   7.470   9.167   7.468 -0.3846 -0.8357 -0.3596
  874MOL0     H17982   7.636   9.284   7.614  1.5882  0.9581 -0.8493
  874MOL0     H17983   7.759   9.170   7.579  0.2943  0.2442  2.6200
  874MOL0     H17984   7.594   8.980   7.663 -1.0194 -0.1043  2.9474
  874MOL0     H17985   7.688   9.076   7.779  3.7540 -1.2302 -2.8517
  874MOL0     H17986   7.272   9.184   7.801 -0.3931 -0.8306 -0.1481
  874MOL0     H17987   7.918   9.060   7.227  1.0270 -0.0862 -1.8858
  874MOL0     H17988   8.051   8.894   7.110  1.9840 -2.3579 -0.3296
  874MOL0     H17989   7.912   8.790   7.132  1.1854 -1.6998 -0.9514
  874MOL0     H17990   7.983   8.822   6.963  1.3432  2.9353 -0.6779
  875MOL0     O17991   6.283   3.689   5.127  0.0654  0.0366 -0.0662
  875MOL0     C17992   6.237   3.635   5.229  0.3492  0.3689 -0.0036
  875MOL0     O17993   6.313   3.582   5.328 -0.1551  0.5923 -0.5000
  875MOL0     C17994   6.444   3.589   5.331  0.1571  1.4344 -0.3900
  875MOL0     C17995   6.510   3.471   5.355 -0.1594 -0.0283  0.4873
  875MOL0     C17996   6.655   3.476   5.366 -0.6602 -0.4410 -0.3623
  875MOL0     C17997   6.725   3.594   5.349  0.0655  0.0604 -0.4620
  875MOL0     O17998   6.861   3.614   5.362 -0.2430 -0.2123 -0.2868
  875MOL0     C17999   6.954   3.506   5.378  0.3120  0.1268  0.4627
  875MOL0     C18000   7.087   3.551   5.345  0.0354 -0.4906 -1.0230
  875MOL0     C18001   7.136   3.670   5.438  0.4871  0.0010  0.1157
  875MOL0     C18002   7.271   3.715   5.405 -0.6057  0.2213 -0.2329
  875MOL0     C18003   7.313   3.840   5.486  0.4125  0.2135  0.5147
  875MOL0     C18004   7.451   3.887   5.444 -0.5367 -0.1014 -0.4392
  875MOL0     C18005   7.576   3.805   5.467 -0.2624  0.0297  0.0068
  875MOL0     C18006   7.714   3.878   5.448  0.0939 -0.2781  0.1903
  875MOL0     N18007   7.827   3.795   5.483 -0.4359  0.3138 -1.1863
  875MOL0     C18008   7.950   3.827   5.432 -0.0504 -0.0163 -0.5937
  875MOL0     C18009   8.036   3.750   5.493 -0.3003  0.1626 -0.3773
  875MOL0     C18010   8.188   3.748   5.496  0.0175  0.0420  0.4393
  875MOL0     C18011   8.254   3.665   5.374 -0.2745 -0.3515 -0.1297
  875MOL0     C18012   8.402   3.653   5.410  0.0836  0.3481 -0.2277
  875MOL0     C18013   8.498   3.592   5.304  0.2492 -0.3265  0.4743
  875MOL0     O18014   8.601   3.516   5.373  0.1205  0.3834  0.4733
  875MOL0     C18015   8.713   3.473   5.305  0.5036  0.4258  0.2724
  875MOL0     C18016   8.810   3.548   5.230 -0.3588 -1.0136  0.6692
  875MOL0     C18017   8.929   3.489   5.179 -0.5264  0.8509  0.8184
  875MOL0     C18018   8.952   3.356   5.193  0.2450  0.3864 -0.4728
  875MOL0     C18019   9.065   3.289   5.137 -1.1376  0.4119 -0.3140
  875MOL0     O18020   9.140   3.357   5.047  0.1264 -0.1253 -0.0821
  875MOL0     C18021   9.270   3.328   5.053 -0.1388 -0.3490  0.6845
  875MOL0     C18022   9.331   3.215   4.986 -0.2580  0.3855 -0.0006
  875MOL0     C18023   9.470   3.201   4.980  0.0631 -0.7730  0.3520
  875MOL0     C18024   9.546   3.302   5.039  0.4348 -0.1001  0.5987
  875MOL0     O18025   9.673   3.308   4.997  0.0701  0.1034  0.8406
  875MOL0     C18026   9.762   3.408   5.053 -0.8573 -0.7238 -0.2967
  875MOL0     C18027   9.900   3.419   4.984  0.6785  0.7140  0.0740
  875MOL0     C18028  10.009   3.506   5.042 -0.0307  0.0898 -0.7171
  875MOL0     C18029  10.146   3.451   5.001 -0.0653 -0.0800 -1.4080
  875MOL0     C18030  10.267   3.507   5.094 -0.1419  0.5640 -0.6874
  875MOL0     C18031  10.409   3.450   5.062 -0.0881  0.5641 -0.5205
  875MOL0     C18032  10.452   3.464   4.916  0.8815  0.0147  0.3173
  875MOL0     C18033  10.493   3.603   4.881  0.1532  0.0901  0.2890
  875MOL0    Cl18034  10.656   3.634   4.952  0.0816 -0.2263 -0.4178
  875MOL0     C18035   9.486   3.397   5.119 -0.3090 -0.5723 -0.8032
  875MOL0     C18036   9.348   3.418   5.119  0.5120  0.4750 -0.2632
  875MOL0     O18037   9.083   3.166   5.155  0.0745 -0.0080  0.1748
  875MOL0     C18038   8.858   3.284   5.268  0.7203 -0.2548 -0.9203
  875MOL0     C18039   8.740   3.342   5.324 -0.4031  0.4463 -0.7389
  875MOL0     N18040   7.960   3.657   5.567  0.9435 -0.8563  0.0963
  875MOL0     N18041   7.834   3.695   5.578  0.1805  0.4088 -0.2077
  875MOL0     C18042   6.656   3.713   5.345 -0.0469 -0.7289  0.4432
  875MOL0     C18043   6.517   3.714   5.328  0.3599  0.3779  0.2960
  875MOL0     C18044   6.099   3.621   5.243 -0.1046 -0.2861 -0.1183
  875MOL0     C18045   6.045   3.562   5.358  0.4385  0.8724 -0.5575
  875MOL0     C18046   5.911   3.554   5.388 -0.5863 -0.6738 -0.4713
  875MOL0     C18047   5.824   3.612   5.308  0.0734  0.2749  0.2996
  875MOL0     O18048   5.693   3.609   5.349 -0.3919  0.5945 -0.5723
  875MOL0     C18049   5.661   3.721   5.429  0.0828  0.4829  0.0782
  875MOL0     C18050   5.547   3.705   5.530 -0.0992 -1.3070 -0.1939
  875MOL0     C18051   5.434   3.624   5.470  0.2725 -0.7115  0.1007
  875MOL0     C18052   5.323   3.585   5.566  0.9504 -0.7891  0.3927
  875MOL0     C18053   5.194   3.561   5.498 -0.4134  0.5079  0.8963
  875MOL0     C18054   5.102   3.526   5.426 -0.1259  0.7501 -0.2507
  875MOL0     C18055   5.864   3.673   5.186  0.3752 -0.9368 -0.4869
  875MOL0     C18056   6.004   3.680   5.152 -0.0859  1.8228  0.8635
  875MOL0     C18057   6.044   3.762   5.032  0.3754 -1.0878 -0.5730
  875MOL0     H18058   6.460   3.377   5.374  0.9176 -0.0871  3.4301
  875MOL0     H18059   6.711   3.389   5.399 -3.9099 -3.1077 -1.2369
  875MOL0     H18060   6.961   3.466   5.480 -0.1853  2.0419  1.2954
  875MOL0     H18061   6.917   3.426   5.314  0.0744  0.1092  0.6224
  875MOL0     H18062   7.093   3.585   5.242  0.2871  0.9919 -0.5386
  875MOL0     H18063   7.157   3.469   5.363  1.6553  0.0054 -4.2773
  875MOL0     H18064   7.137   3.629   5.539 -1.2585 -0.8631 -0.1719
  875MOL0     H18065   7.071   3.758   5.437  2.1683  1.3794  2.7359
  875MOL0     H18066   7.348   3.637   5.407 -1.4410 -0.6858  3.7810
  875MOL0     H18067   7.261   3.742   5.299 -2.3212 -0.7764 -0.3656
  875MOL0     H18068   7.245   3.926   5.478  2.0673  1.5862  0.6840
  875MOL0     H18069   7.321   3.807   5.590 -0.3238 -0.4365  0.3782
  875MOL0     H18070   7.445   3.908   5.337 -0.6053  0.8421 -0.2599
  875MOL0     H18071   7.475   3.985   5.486 -1.7372  0.5680 -1.2496
  875MOL0     H18072   7.571   3.727   5.390 -0.3700 -1.9133  1.8900
  875MOL0     H18073   7.566   3.764   5.568 -0.8831  2.9652  1.2145
  875MOL0     H18074   7.722   3.925   5.350  1.3082  2.8420  1.6596
  875MOL0     H18075   7.724   3.966   5.512  2.7583 -0.0606 -0.4054
  875MOL0     H18076   7.987   3.904   5.366 -0.1844  1.2963  0.7923
  875MOL0     H18077   8.228   3.848   5.483  3.3001 -1.2200  0.0492
  875MOL0     H18078   8.222   3.712   5.594 -2.4915  0.0790  1.3989
  875MOL0     H18079   8.204   3.570   5.350  1.3999 -1.1774 -0.4970
  875MOL0     H18080   8.239   3.731   5.289 -3.7254  3.5732  3.0996
  875MOL0     H18081   8.431   3.615   5.508  0.2936  1.8769  0.3231
  875MOL0     H18082   8.426   3.759   5.416 -1.1498  0.6870 -0.9127
  875MOL0     H18083   8.553   3.667   5.246  1.3025 -2.3525 -1.3199
  875MOL0     H18084   8.439   3.532   5.235 -1.4452  0.7837  0.9021
  875MOL0     H18085   8.789   3.653   5.213  0.1865 -0.4430  3.0545
  875MOL0     H18086   8.994   3.564   5.135 -0.3097  0.1022 -0.1533
  875MOL0     H18087   9.267   3.148   4.930  1.6390 -0.3904 -1.3612
  875MOL0     H18088   9.517   3.121   4.923 -2.2893 -1.8255 -0.2294
  875MOL0     H18089   9.725   3.511   5.053 -2.1543 -1.1284  1.7257
  875MOL0     H18090   9.775   3.382   5.159 -1.3996 -0.7871 -0.2446
  875MOL0     H18091   9.934   3.318   4.960  2.2523  1.7768 -2.7847
  875MOL0     H18092   9.889   3.460   4.883  0.1592 -0.1712 -0.2389
  875MOL0     H18093  10.003   3.611   5.014 -1.7786 -0.1801 -1.4863
  875MOL0     H18094  10.000   3.506   5.151 -1.2392  4.1717 -0.6716
  875MOL0     H18095  10.158   3.472   4.895 -1.7455  0.9605 -1.4349
  875MOL0     H18096  10.140   3.344   5.026  0.7142  0.2611  0.4284
  875MOL0     H18097  10.242   3.481   5.197  0.0657 -0.9802 -1.0001
  875MOL0     H18098  10.272   3.616   5.089  2.3181  0.6457  1.4863
  875MOL0     H18099  10.486   3.481   5.133  0.6349 -5.2640  1.7634
  875MOL0     H18100  10.412   3.341   5.074  0.2264  0.6837  0.5457
  875MOL0     H18101  10.379   3.413   4.852 -0.4796 -1.1395  2.6799
  875MOL0     H18102  10.540   3.399   4.905  0.8979  0.2228 -0.9977
  875MOL0     H18103  10.499   3.608   4.772  0.9285  0.7672  0.3558
  875MOL0     H18104  10.419   3.676   4.916  0.1443  1.0880 -1.6864
  875MOL0     H18105   9.539   3.482   5.159 -1.8018  1.0326 -2.0622
  875MOL0     H18106   9.314   3.509   5.166  3.9099  0.8376  1.8384
  875MOL0     H18107   8.872   3.178   5.284 -1.4185 -0.1253  2.9202
  875MOL0     H18108   8.669   3.280   5.378  2.2309 -1.2913  0.9578
  875MOL0     H18109   6.706   3.810   5.344 -0.6652 -0.3946  1.1191
  875MOL0     H18110   6.462   3.802   5.295 -0.1965 -0.2411 -0.4564
  875MOL0     H18111   6.100   3.520   5.441 -0.7034 -0.4740 -0.4578
  875MOL0     H18112   5.867   3.501   5.472  1.1436  0.2336  1.0721
  875MOL0     H18113   5.646   3.803   5.358 -1.6017 -0.1868 -0.3974
  875MOL0     H18114   5.746   3.742   5.495  0.3203 -1.6222  0.5259
  875MOL0     H18115   5.506   3.803   5.554 -0.2515 -1.8770  2.0867
  875MOL0     H18116   5.574   3.654   5.623 -1.6624  0.2656  1.1891
  875MOL0     H18117   5.465   3.544   5.402 -1.9475 -0.1878 -1.6231
  875MOL0     H18118   5.388   3.694   5.400 -1.5961 -0.4549  1.5199
  875MOL0     H18119   5.363   3.510   5.635  2.6280 -2.9968 -2.7758
  875MOL0     H18120   5.298   3.667   5.635 -0.1535 -0.9375  0.1765
  875MOL0     H18121   5.021   3.497   5.362  1.0847  1.2967 -2.1181
  875MOL0     H18122   5.786   3.715   5.122 -0.5760 -3.0424 -0.7860
  875MOL0     H18123   6.129   3.720   4.978  1.1517 -0.1145 -0.1350
  875MOL0     H18124   5.959   3.766   4.963 -0.0799  2.4343  0.0066
  875MOL0     H18125   6.076   3.860   5.068  5.2177 -2.4503 -0.4513
  876MOL0     O18126   5.255   9.030   0.903  0.3990  0.0793  0.1850
  876MOL0     C18127   5.191   8.981   0.803 -0.4112 -0.5161  0.1468
  876MOL0     O18128   5.237   8.992   0.678  0.8612  0.4458 -0.0057
  876MOL0     C18129   5.361   9.032   0.645 -0.7159  0.7029  0.8156
  876MOL0     C18130   5.363   9.154   0.577  0.4538 -0.5787 -0.9477
  876MOL0     C18131   5.485   9.214   0.538  0.0455 -0.0101  0.6786
  876MOL0     C18132   5.604   9.150   0.576  0.0096 -0.5520 -0.3915
  876MOL0     O18133   5.715   9.222   0.546 -0.0393 -0.5955 -0.2307
  876MOL0     C18134   5.851   9.164   0.544 -0.1432 -0.0388 -0.5616
  876MOL0     C18135   5.947   9.256   0.484 -1.3258 -0.9370  0.4673
  876MOL0     C18136   5.965   9.393   0.545  0.1456  0.0095 -0.3688
  876MOL0     C18137   6.069   9.391   0.652 -0.7147 -0.1825  0.4977
  876MOL0     C18138   6.073   9.518   0.723 -0.1983 -0.6928  0.1763
  876MOL0     C18139   6.151   9.517   0.859 -0.2785  0.7848  0.1168
  876MOL0     C18140   6.300   9.478   0.858 -0.1856  0.1786  0.3926
  876MOL0     C18141   6.369   9.562   0.757 -0.9013 -0.0632  0.5236
  876MOL0     N18142   6.514   9.550   0.770 -0.0749  0.1147 -0.5200
  876MOL0     C18143   6.586   9.435   0.775 -0.1361  0.0456 -0.3065
  876MOL0     C18144   6.711   9.481   0.797  0.4455  0.1521 -0.6776
  876MOL0     C18145   6.835   9.403   0.822 -0.4825  0.1562  0.2965
  876MOL0     C18146   6.911   9.363   0.702 -0.6336  0.5737 -0.3244
  876MOL0     C18147   7.030   9.275   0.722  1.0681 -0.6545  0.2824
  876MOL0     C18148   7.160   9.342   0.758  0.6520  0.4076 -0.3696
  876MOL0     O18149   7.263   9.245   0.778  0.1902 -0.3564  0.7563
  876MOL0     C18150   7.393   9.289   0.801  0.1558  0.5715  0.7267
  876MOL0     C18151   7.494   9.196   0.838  0.4613  0.4546  1.1190
  876MOL0     C18152   7.627   9.236   0.867 -0.0368 -0.7926  0.1354
  876MOL0     C18153   7.667   9.369   0.859 -0.4918 -0.1703  1.2232
  876MOL0     C18154   7.807   9.411   0.872  0.2339 -0.0400  0.1548
  876MOL0     O18155   7.844   9.543   0.854  0.0627  0.4837 -0.4695
  876MOL0     C18156   7.973   9.593   0.842 -0.0605  0.3141 -0.6266
  876MOL0     C18157   8.091   9.520   0.814  0.7006 -0.0944  0.0147
  876MOL0     C18158   8.211   9.591   0.787 -0.2226 -0.2608 -0.4317
  876MOL0     C18159   8.221   9.732   0.791  0.0579  0.3314 -0.9051
  876MOL0     O18160   8.340   9.792   0.787 -0.2583 -0.0012 -0.7083
  876MOL0     C18161   8.393   9.818   0.661 -0.8208  0.4562  0.1671
  876MOL0     C18162   8.505   9.716   0.625 -0.0891 -0.4388  0.5383
  876MOL0     C18163   8.599   9.778   0.527 -0.5034 -0.2737  0.1048
  876MOL0     C18164   8.706   9.678   0.487  0.8585 -0.3196  0.4358
  876MOL0     C18165   8.813   9.748   0.404 -0.5378  0.1220  0.2106
  876MOL0     C18166   8.919   9.646   0.363  0.0912  0.0159 -0.5077
  876MOL0     C18167   9.031   9.713   0.289 -0.0498 -0.3981 -0.1595
  876MOL0     C18168   9.142   9.615   0.228  0.2470 -0.0138  0.2186
  876MOL0    Cl18169   9.096   9.557   0.060 -0.1975 -0.4700 -0.2957
  876MOL0     C18170   8.107   9.797   0.820  0.3975  0.1709  0.3534
  876MOL0     C18171   7.983   9.731   0.855 -0.8085 -0.3635  0.0562
  876MOL0     O18172   7.882   9.325   0.899  0.5656 -0.1230 -0.3973
  876MOL0     C18173   7.564   9.465   0.832 -0.6172  0.3730 -0.1603
  876MOL0     C18174   7.430   9.425   0.806 -0.5859 -0.9885  0.1398
  876MOL0     N18175   6.715   9.616   0.808  0.8837 -0.5678 -0.2863
  876MOL0     N18176   6.594   9.659   0.790  0.3670  0.1503  0.6825
  876MOL0     C18177   5.602   9.028   0.650  0.6472 -0.4147  0.1579
  876MOL0     C18178   5.479   8.962   0.682 -1.0010  0.3610 -0.1753
  876MOL0     C18179   5.076   8.896   0.824 -0.0758 -0.6680 -0.4352
  876MOL0     C18180   5.057   8.834   0.946 -1.2202  0.2903  0.0335
  876MOL0     C18181   4.942   8.768   0.971  0.3545  0.1846  0.1279
  876MOL0     C18182   4.843   8.746   0.880  0.4431  0.4914  0.2207
  876MOL0     O18183   4.735   8.670   0.895 -0.4341  0.9263 -0.7294
  876MOL0     C18184   4.705   8.621   1.031 -0.0002  0.2854  0.1062
  876MOL0     C18185   4.563   8.561   1.035  0.4525 -0.2465 -0.6921
  876MOL0     C18186   4.444   8.650   0.987 -0.8075  0.6166 -0.6584
  876MOL0     C18187   4.317   8.576   1.005  0.8331  0.4349  0.2966
  876MOL0     C18188   4.296   8.466   0.912 -0.0807 -0.9514 -0.0954
  876MOL0     C18189   4.281   8.379   0.835  0.0802 -0.6099  0.2224
  876MOL0     C18190   4.864   8.795   0.750  1.1175 -0.1264  0.2484
  876MOL0     C18191   4.977   8.878   0.720  0.0531 -0.3459 -0.0952
  876MOL0     C18192   4.979   8.926   0.574 -0.2724 -0.3387 -0.6191
  876MOL0     H18193   5.270   9.211   0.577  0.9046  0.1715 -0.2423
  876MOL0     H18194   5.490   9.306   0.481 -0.4783 -0.4171 -0.0505
  876MOL0     H18195   5.884   9.141   0.646  0.2085 -2.8033 -1.2065
  876MOL0     H18196   5.840   9.074   0.482  2.4699 -0.3701 -0.6802
  876MOL0     H18197   5.905   9.272   0.385 -3.7633 -0.4064  1.5265
  876MOL0     H18198   6.045   9.208   0.469 -2.0308 -3.7623  3.7107
  876MOL0     H18199   5.867   9.412   0.591  1.5881  1.2570  2.4633
  876MOL0     H18200   5.980   9.467   0.467 -2.1528  2.3389  1.2203
  876MOL0     H18201   6.034   9.324   0.731 -0.6829  0.0364  0.6977
  876MOL0     H18202   6.170   9.372   0.613 -0.6674  0.6032  0.2221
  876MOL0     H18203   6.110   9.599   0.659  0.8287 -2.4494 -1.5573
  876MOL0     H18204   5.968   9.544   0.742 -0.3618  1.0409 -2.5052
  876MOL0     H18205   6.151   9.621   0.895  0.9355  0.3596  1.4616
  876MOL0     H18206   6.095   9.451   0.925  0.2010 -0.5496 -0.7729
  876MOL0     H18207   6.320   9.373   0.836  1.9807  0.6287 -0.0244
  876MOL0     H18208   6.341   9.500   0.957 -0.9729  1.2779  0.4913
  876MOL0     H18209   6.332   9.544   0.656 -0.7838  2.7355 -0.0832
  876MOL0     H18210   6.351   9.668   0.778 -2.4266  0.0839 -1.2886
  876MOL0     H18211   6.559   9.331   0.756  0.1526 -0.3127  1.1622
  876MOL0     H18212   6.905   9.464   0.881 -0.2432  0.1767 -0.0085
  876MOL0     H18213   6.798   9.317   0.879 -1.6050  1.2590  1.2993
  876MOL0     H18214   6.834   9.324   0.634 -0.9924  0.7575 -0.0273
  876MOL0     H18215   6.954   9.452   0.656  1.9945  0.0625  0.9441
  876MOL0     H18216   7.051   9.223   0.628  0.7120 -3.5155  1.6613
  876MOL0     H18217   7.006   9.204   0.802 -0.1605  0.9616  1.4086
  876MOL0     H18218   7.143   9.390   0.855  0.7046 -2.2081  1.0353
  876MOL0     H18219   7.181   9.418   0.683  1.4135  1.3045  0.7173
  876MOL0     H18220   7.468   9.091   0.827 -0.8069  0.9559 -1.6387
  876MOL0     H18221   7.700   9.157   0.879 -1.0508 -1.5281  1.9202
  876MOL0     H18222   8.102   9.412   0.816  1.5959 -0.0221  2.7045
  876MOL0     H18223   8.301   9.538   0.757  0.9891  2.2637 -1.5831
  876MOL0     H18224   8.312   9.819   0.588 -1.8627  1.2872  1.2909
  876MOL0     H18225   8.430   9.921   0.666  0.4562  0.0344 -0.0250
  876MOL0     H18226   8.566   9.683   0.709  0.8198  0.8424  0.4018
  876MOL0     H18227   8.449   9.632   0.582 -2.5331 -0.2363  3.0505
  876MOL0     H18228   8.543   9.813   0.440 -1.6483 -1.7498  0.1978
  876MOL0     H18229   8.656   9.865   0.560  1.3300 -0.9173 -1.2041
  876MOL0     H18230   8.672   9.595   0.425  1.4298 -0.7963  0.7438
  876MOL0     H18231   8.740   9.623   0.575 -1.2077 -2.8855 -0.2368
  876MOL0     H18232   8.862   9.824   0.466  0.9384 -1.4941  1.1271
  876MOL0     H18233   8.767   9.790   0.314  2.4752 -2.9302 -3.1024
  876MOL0     H18234   8.959   9.598   0.453  0.0170 -1.6953 -1.3512
  876MOL0     H18235   8.870   9.568   0.303  0.9982 -1.5716  0.7185
  876MOL0     H18236   9.086   9.777   0.358 -0.6621  1.9571 -1.7157
  876MOL0     H18237   8.994   9.772   0.205  3.6971 -0.0491 -1.7654
  876MOL0     H18238   9.237   9.669   0.219 -1.3657  2.9573 -0.1722
  876MOL0     H18239   9.159   9.524   0.288 -1.0024 -1.0043 -0.8655
  876MOL0     H18240   8.112   9.906   0.824 -0.5463  0.3193 -1.5672
  876MOL0     H18241   7.889   9.785   0.864  0.6581  2.8307 -1.8676
  876MOL0     H18242   7.601   9.567   0.833  0.2481  0.0909 -1.0703
  876MOL0     H18243   7.357   9.499   0.774 -0.3121 -1.6995 -2.3632
  876MOL0     H18244   5.692   8.978   0.685  0.5563 -0.7694 -0.1097
  876MOL0     H18245   5.468   8.871   0.740 -1.6143  0.3394 -0.3228
  876MOL0     H18246   5.138   8.843   1.017 -0.0362 -2.5451 -0.8416
  876MOL0     H18247   4.931   8.721   1.069 -0.5812 -1.2248 -0.6164
  876MOL0     H18248   4.718   8.705   1.099 -0.6795  1.5735 -1.3117
  876MOL0     H18249   4.779   8.547   1.065  2.6251  3.6053  2.3055
  876MOL0     H18250   4.549   8.536   1.140  0.3914  0.5769 -0.4990
  876MOL0     H18251   4.568   8.472   0.971 -0.2265  0.4704 -1.7902
  876MOL0     H18252   4.466   8.661   0.880  3.0304  0.9972  0.0500
  876MOL0     H18253   4.437   8.748   1.036  0.6179 -0.2112  1.3271
  876MOL0     H18254   4.303   8.544   1.108  1.5712 -0.1169  0.2317
  876MOL0     H18255   4.232   8.643   0.984  0.0787 -1.2235 -2.4034
  876MOL0     H18256   4.277   8.291   0.773  0.9603 -2.2521  2.3514
  876MOL0     H18257   4.790   8.757   0.680  0.7331 -1.7381  1.4580
  876MOL0     H18258   5.060   8.881   0.515 -0.6350  1.9103 -3.0130
  876MOL0     H18259   4.886   8.896   0.526 -2.0404  2.8897  0.5122
  876MOL0     H18260   4.987   9.035   0.574 -0.0288 -0.3440 -1.7253
  877MOL0     O18261   1.273  10.472   5.212  0.5952 -0.6792 -0.8462
  877MOL0     C18262   1.270  10.379   5.139 -0.0619  0.7261  0.5063
  877MOL0     O18263   1.358  10.276   5.123  0.0607  0.0300 -0.2401
  877MOL0     C18264   1.492  10.280   5.151 -0.3412  0.3446 -0.0153
  877MOL0     C18265   1.560  10.373   5.232  0.7323 -0.3014  0.8034
  877MOL0     C18266   1.695  10.368   5.262  0.0207 -0.4323 -0.2750
  877MOL0     C18267   1.766  10.259   5.227  0.5855  0.5368  0.3839
  877MOL0     O18268   1.892  10.241   5.278 -0.4464  0.0603  0.0389
  877MOL0     C18269   1.984  10.162   5.198 -0.6280  0.4752 -0.4465
  877MOL0     C18270   2.124  10.156   5.260 -0.3522 -0.3761 -0.5611
  877MOL0     C18271   2.201  10.296   5.249  0.1479  0.4995  0.3978
  877MOL0     C18272   2.341  10.270   5.283 -0.1551 -0.2265 -0.0199
  877MOL0     C18273   2.408  10.399   5.327  0.1485  0.0743 -0.0168
  877MOL0     C18274   2.564  10.371   5.348 -0.3181 -0.1117 -0.3365
  877MOL0     C18275   2.637  10.353   5.217  0.6379 -0.0458 -0.1888
  877MOL0     C18276   2.787  10.361   5.228 -0.9028  0.1772  0.4289
  877MOL0     N18277   2.834  10.497   5.246  0.5975  0.0689  0.3378
  877MOL0     C18278   2.942  10.543   5.330  0.5367 -0.2198  0.7149
  877MOL0     C18279   2.954  10.670   5.282 -0.4669  0.4990 -0.0454
  877MOL0     C18280   3.060  10.759   5.341  0.1724 -0.0406  0.5751
  877MOL0     C18281   3.187  10.714   5.270 -0.4201  0.2355  0.3349
  877MOL0     C18282   3.309  10.784   5.329 -0.0259  0.0274  0.1886
  877MOL0     C18283   3.434  10.772   5.244 -0.0540 -0.4235 -0.3170
  877MOL0     O18284   3.540  10.826   5.321 -0.5116  0.6915 -0.0704
  877MOL0     C18285   3.672  10.817   5.281  0.2397 -0.2061 -0.5952
  877MOL0     C18286   3.715  10.752   5.166 -0.8829  0.3357 -0.0120
  877MOL0     C18287   3.843  10.766   5.112 -0.9443  0.0782  0.4053
  877MOL0     C18288   3.939  10.831   5.182  0.9434  1.4869  0.4096
  877MOL0     C18289   4.083  10.824   5.136  0.3617 -0.5098 -0.4538
  877MOL0     O18290   4.168  10.918   5.185 -0.0867 -0.0270 -0.3438
  877MOL0     C18291   4.288  10.936   5.120  0.0641 -0.6612  0.4024
  877MOL0     C18292   4.385  10.832   5.107 -0.4563 -0.5849 -0.3419
  877MOL0     C18293   4.508  10.858   5.045 -0.2345  0.3325 -1.1105
  877MOL0     C18294   4.538  10.986   5.004  0.7116  0.0774  0.2572
  877MOL0     O18295   4.663  11.025   4.972  0.3654 -0.3134 -0.5213
  877MOL0     C18296   4.693  11.017   4.834  0.7509 -0.3510  0.3073
  877MOL0     C18297   4.822  11.079   4.803 -0.7389 -0.6685 -0.0338
  877MOL0     C18298   4.847  11.119   4.654 -0.1665  0.4170 -0.1359
  877MOL0     C18299   4.977  11.192   4.638  0.3379  0.3617 -0.5929
  877MOL0     C18300   4.984  11.225   4.486 -0.2048  0.2121  0.6371
  877MOL0     C18301   5.085  11.326   4.448 -0.2711 -0.2939  0.4147
  877MOL0     C18302   5.229  11.311   4.490 -0.3260  0.7057  0.1993
  877MOL0     C18303   5.287  11.181   4.456 -1.1064 -0.5061 -0.2774
  877MOL0    Cl18304   5.265  11.142   4.289 -0.0518 -0.4764 -0.0684
  877MOL0     C18305   4.441  11.084   5.013  0.1436 -0.1959  0.1622
  877MOL0     C18306   4.318  11.062   5.070  0.0695  0.3425 -0.7646
  877MOL0     O18307   4.111  10.736   5.064 -0.5497  1.0726 -0.4355
  877MOL0     C18308   3.898  10.899   5.299 -0.4653  0.2807 -0.6271
  877MOL0     C18309   3.765  10.894   5.350 -0.2276  0.4986 -0.8764
  877MOL0     N18310   2.866  10.699   5.183 -0.2106 -0.2095  0.0206
  877MOL0     N18311   2.785  10.603   5.170  0.1190  0.8499 -0.0506
  877MOL0     C18312   1.705  10.152   5.150 -0.8432  0.2568  0.3979
  877MOL0     C18313   1.572  10.166   5.102 -0.1419 -0.8229  0.2817
  877MOL0     C18314   1.141  10.362   5.059 -0.2952  0.3820  0.1477
  877MOL0     C18315   1.119  10.237   4.990  0.9805 -0.6599  0.3073
  877MOL0     C18316   1.008  10.211   4.918 -0.4125 -0.2892 -0.5533
  877MOL0     C18317   0.921  10.311   4.892  0.0640 -0.2568 -0.2047
  877MOL0     O18318   0.805  10.299   4.823  0.1019 -0.0467 -0.5331
  877MOL0     C18319   0.767  10.160   4.802  0.2419 -0.0715  0.0157
  877MOL0     C18320   0.614  10.127   4.762 -0.4785 -0.4316 -0.5194
  877MOL0     C18321   0.520  10.239   4.821  0.8918  0.6224 -0.1479
  877MOL0     C18322   0.371  10.187   4.820  0.5764 -0.2976 -0.1989
  877MOL0     C18323   0.309  10.186   4.687 -0.3874  0.6553  0.2723
  877MOL0     C18324   0.276  10.156   4.574  0.4869 -0.5249  0.3664
  877MOL0     C18325   0.931  10.433   4.951 -0.6299 -0.4743  0.0756
  877MOL0     C18326   1.033  10.459   5.047  0.4199 -0.6044 -0.2748
  877MOL0     C18327   1.021  10.596   5.111  0.3362  0.2282 -0.5263
  877MOL0     H18328   1.514  10.465   5.266  0.0241  0.1363 -1.1775
  877MOL0     H18329   1.757  10.439   5.317  1.2372 -1.0432 -0.8145
  877MOL0     H18330   1.950  10.059   5.193 -3.5232  1.0992  2.7078
  877MOL0     H18331   1.991  10.204   5.097 -1.6883  0.7123 -0.4357
  877MOL0     H18332   2.182  10.082   5.204  0.1133  1.1148 -2.1511
  877MOL0     H18333   2.123  10.122   5.364  1.1254  0.4958 -0.2207
  877MOL0     H18334   2.147  10.370   5.309  0.3062  0.6179  0.3942
  877MOL0     H18335   2.196  10.333   5.146 -0.3006 -1.4269 -0.3140
  877MOL0     H18336   2.338  10.193   5.361 -2.8214 -2.2785 -1.9178
  877MOL0     H18337   2.397  10.227   5.200  1.1695  1.6860 -0.1676
  877MOL0     H18338   2.403  10.482   5.257  3.0807  2.3122  2.1765
  877MOL0     H18339   2.354  10.437   5.414 -3.0561  2.0662 -2.6336
  877MOL0     H18340   2.590  10.460   5.406 -4.3649  0.6919  0.5525
  877MOL0     H18341   2.573  10.292   5.423  3.7092  1.5454  1.1696
  877MOL0     H18342   2.595  10.429   5.150  0.4320  0.5528  0.6053
  877MOL0     H18343   2.619  10.255   5.173 -0.6692 -0.5664  1.3996
  877MOL0     H18344   2.823  10.306   5.316  0.1656  2.8815  1.7992
  877MOL0     H18345   2.833  10.301   5.148 -1.2072  0.2589  0.1919
  877MOL0     H18346   3.012  10.495   5.398  1.5667  2.3603  1.5874
  877MOL0     H18347   3.028  10.858   5.308 -0.7921  0.4769  2.8740
  877MOL0     H18348   3.065  10.744   5.449  1.4373  0.9170  0.6699
  877MOL0     H18349   3.195  10.605   5.273  1.5329  0.3520  0.5135
  877MOL0     H18350   3.175  10.751   5.168 -2.4963  3.7080  1.6885
  877MOL0     H18351   3.332  10.745   5.429 -1.5106  0.7680  0.8510
  877MOL0     H18352   3.291  10.892   5.329  0.0116  0.2790 -4.9586
  877MOL0     H18353   3.429  10.828   5.151 -1.0960  2.3558  1.2907
  877MOL0     H18354   3.445  10.666   5.218 -2.8205 -0.7591 -0.4658
  877MOL0     H18355   3.634  10.707   5.108 -0.2703  0.0671 -0.6733
  877MOL0     H18356   3.860  10.715   5.018 -1.8784 -0.6403  0.6117
  877MOL0     H18357   4.371  10.733   5.149 -0.9604 -1.9361 -3.4055
  877MOL0     H18358   4.590  10.787   5.055  0.2697  1.1699  1.4699
  877MOL0     H18359   4.678  10.917   4.792  2.2000  0.8960 -3.7033
  877MOL0     H18360   4.614  11.076   4.788  2.7389  0.0238 -3.0331
  877MOL0     H18361   4.846  11.171   4.857 -0.7360 -0.0598 -1.0438
  877MOL0     H18362   4.892  11.005   4.841 -0.7254 -1.0701 -0.8039
  877MOL0     H18363   4.845  11.033   4.586 -1.0747  1.0711 -0.9538
  877MOL0     H18364   4.763  11.180   4.618 -1.7841 -0.6490  1.6406
  877MOL0     H18365   5.071  11.141   4.659  1.3272  2.0941 -0.5777
  877MOL0     H18366   4.986  11.279   4.703 -0.7288  0.3587 -0.4242
  877MOL0     H18367   4.887  11.264   4.455 -0.9192 -1.2077  1.0102
  877MOL0     H18368   5.005  11.129   4.438  0.8049 -0.4195  2.2472
  877MOL0     H18369   5.085  11.331   4.339 -0.3013 -1.0570  0.3722
  877MOL0     H18370   5.049  11.424   4.479  1.1391  0.7957 -1.2596
  877MOL0     H18371   5.237  11.322   4.599 -0.5695 -0.8393  0.4054
  877MOL0     H18372   5.287  11.382   4.431 -1.9031 -1.1034 -3.8899
  877MOL0     H18373   5.393  11.177   4.483 -1.1411 -0.5764 -0.1513
  877MOL0     H18374   5.241  11.099   4.511 -0.0592 -2.0026 -1.5503
  877MOL0     H18375   4.471  11.182   4.976 -0.6316  0.4692  1.2266
  877MOL0     H18376   4.240  11.134   5.094 -1.7396 -1.8945  0.4959
  877MOL0     H18377   3.975  10.969   5.332 -2.0336  1.5375  0.5424
  877MOL0     H18378   3.730  10.944   5.440 -4.4267  0.2250 -2.1652
  877MOL0     H18379   1.761  10.065   5.118 -0.2547  0.3795  1.0809
  877MOL0     H18380   1.529  10.091   5.037 -0.1897  0.6684 -1.5145
  877MOL0     H18381   1.197  10.165   5.011  1.6775 -0.0741 -0.2372
  877MOL0     H18382   1.003  10.130   4.846 -0.8461 -2.0843  1.3928
  877MOL0     H18383   0.782  10.108   4.897 -0.1424  0.5279  0.4139
  877MOL0     H18384   0.821  10.124   4.714 -0.2699  3.9182 -2.1936
  877MOL0     H18385   0.586  10.027   4.797 -0.8132 -0.1480  0.0450
  877MOL0     H18386   0.590  10.117   4.656 -1.5211  0.1370 -0.3454
  877MOL0     H18387   0.531  10.330   4.760 -0.6179  0.5914 -0.5027
  877MOL0     H18388   0.543  10.265   4.924  1.5589 -0.3907 -0.0222
  877MOL0     H18389   0.371  10.087   4.865  1.7581  1.0590  3.1060
  877MOL0     H18390   0.312  10.250   4.886 -0.1537 -0.5847 -0.5695
  877MOL0     H18391   0.251  10.141   4.471  2.9597  4.3937 -1.2950
  877MOL0     H18392   0.844  10.497   4.938 -0.4586 -0.1156  0.6371
  877MOL0     H18393   0.934  10.592   5.179  3.0180 -0.6874  3.1912
  877MOL0     H18394   1.104  10.627   5.175 -0.2981 -0.0503  0.4607
  877MOL0     H18395   1.004  10.667   5.030 -4.6678  1.0528  0.8530
  878MOL0     O18396   3.107   1.100   5.584  0.0327 -0.3905  0.3319
  878MOL0     C18397   3.142   0.986   5.565 -0.6649 -1.0201 -0.9881
  878MOL0     O18398   3.062   0.875   5.591 -0.1722 -0.2475 -0.3662
  878MOL0     C18399   2.923   0.898   5.605 -0.2962  0.4814  0.4632
  878MOL0     C18400   2.850   0.978   5.512 -0.2148 -0.6861 -0.1135
  878MOL0     C18401   2.711   0.984   5.523  0.2553  0.2357  0.2724
  878MOL0     C18402   2.651   0.930   5.638 -0.2327  0.7010  0.3353
  878MOL0     O18403   2.518   0.942   5.669  0.1104 -0.2979 -0.5443
  878MOL0     C18404   2.437   0.981   5.562  0.4512  0.3666  0.3438
  878MOL0     C18405   2.292   0.986   5.604 -0.0127  0.2500  0.1763
  878MOL0     C18406   2.211   1.069   5.505  0.1671 -0.1558  0.1269
  878MOL0     C18407   2.076   1.100   5.572 -0.7326  0.4728 -0.2213
  878MOL0     C18408   1.955   1.142   5.486 -0.8289  0.9412 -0.0390
  878MOL0     C18409   1.993   1.251   5.387  0.1778 -0.0571 -0.2900
  878MOL0     C18410   1.990   1.389   5.458  0.2552 -0.2013  0.7126
  878MOL0     C18411   2.002   1.511   5.354  0.6082 -0.0697  0.2671
  878MOL0     N18412   2.132   1.528   5.294  0.0737 -1.0456  0.1253
  878MOL0     C18413   2.249   1.482   5.354  0.9615 -0.2817 -0.2321
  878MOL0     C18414   2.343   1.538   5.274  0.1588 -0.4735 -1.3111
  878MOL0     C18415   2.490   1.522   5.308  0.8574 -0.5025  0.5776
  878MOL0     C18416   2.551   1.414   5.233 -0.3426 -0.5625 -0.2311
  878MOL0     C18417   2.680   1.364   5.302 -0.8302  0.0157  0.0616
  878MOL0     C18418   2.745   1.254   5.220 -0.1176 -0.7971  0.1029
  878MOL0     O18419   2.826   1.304   5.106 -0.3400 -0.1391 -0.1134
  878MOL0     C18420   2.923   1.213   5.058 -0.5066  0.6523  0.5623
  878MOL0     C18421   3.012   1.267   4.964  0.1038 -0.8963  0.0754
  878MOL0     C18422   3.119   1.198   4.916  0.3587  0.9292  1.0624
  878MOL0     C18423   3.139   1.058   4.963  0.3955 -0.5475 -0.0762
  878MOL0     C18424   3.256   0.981   4.928  0.2770  0.8130  0.2299
  878MOL0     O18425   3.342   1.034   4.843  0.4462 -0.8318  0.1635
  878MOL0     C18426   3.474   1.041   4.876 -1.5413 -0.1650  0.2026
  878MOL0     C18427   3.525   1.020   5.007  1.0126  0.9111 -0.3481
  878MOL0     C18428   3.664   1.029   5.035  0.0849 -0.3762 -0.4598
  878MOL0     C18429   3.763   1.054   4.947 -0.0082 -0.7336  0.1148
  878MOL0     O18430   3.901   1.070   4.960  0.1656  0.1386 -0.2133
  878MOL0     C18431   3.963   1.013   5.075 -0.5383 -0.8579 -0.3651
  878MOL0     C18432   4.116   0.997   5.054  0.2818 -0.2743  0.3733
  878MOL0     C18433   4.185   0.885   5.142  0.2544  0.1758 -0.0489
  878MOL0     C18434   4.311   0.841   5.076 -1.2960  0.0011  0.6086
  878MOL0     C18435   4.382   0.735   5.167 -0.0684 -0.0455  0.2942
  878MOL0     C18436   4.522   0.709   5.120 -0.4183 -0.4120  0.0168
  878MOL0     C18437   4.594   0.599   5.196  0.0124 -0.3113  0.3037
  878MOL0     C18438   4.750   0.614   5.158  0.1641 -0.4125  0.0298
  878MOL0    Cl18439   4.768   0.602   4.979 -0.1524 -0.2224 -0.4342
  878MOL0     C18440   3.719   1.059   4.814  0.4195 -0.5555  0.6019
  878MOL0     C18441   3.580   1.057   4.775  0.0047 -0.1428  0.3751
  878MOL0     O18442   3.279   0.880   4.998 -0.2515 -0.1417  0.1157
  878MOL0     C18443   3.041   0.997   5.042  0.2885  0.1156 -0.5624
  878MOL0     C18444   2.930   1.074   5.093  0.1755  0.1469  0.2396
  878MOL0     N18445   2.287   1.600   5.164  0.2934  0.4268 -0.4591
  878MOL0     N18446   2.163   1.598   5.182  0.2346 -0.2168  0.7216
  878MOL0     C18447   2.730   0.851   5.723 -0.2018 -0.4738  0.2871
  878MOL0     C18448   2.859   0.831   5.708  0.1266 -0.7036  0.6402
  878MOL0     C18449   3.281   0.978   5.516 -0.4106  0.2248  0.8008
  878MOL0     C18450   3.375   0.897   5.589  1.0005  0.1538  0.7966
  878MOL0     C18451   3.505   0.882   5.551  0.6879  0.2675 -0.2702
  878MOL0     C18452   3.553   0.962   5.442  0.1466  0.2879  0.1129
  878MOL0     O18453   3.683   0.970   5.390 -0.0955 -0.5546  0.6401
  878MOL0     C18454   3.796   0.950   5.476  0.0297 -1.0341 -0.4116
  878MOL0     C18455   3.821   1.056   5.589  0.1816  0.0071  0.0324
  878MOL0     C18456   3.943   1.020   5.676  0.2818 -0.1314 -0.0993
  878MOL0     C18457   3.991   1.138   5.757 -0.0780 -0.0837  0.0615
  878MOL0     C18458   4.132   1.120   5.785  0.0063 -0.2182 -0.1564
  878MOL0     C18459   4.253   1.119   5.804  0.0853 -0.0957 -0.5692
  878MOL0     C18460   3.465   1.045   5.373 -0.2707  0.3927 -0.0967
  878MOL0     C18461   3.329   1.057   5.411 -0.9466  0.3385  0.0782
  878MOL0     C18462   3.250   1.149   5.320  1.0670 -0.6938  0.8284
  878MOL0     H18463   2.907   1.036   5.440  1.2095 -0.2734  1.2848
  878MOL0     H18464   2.656   1.041   5.449  2.5621  1.6950 -0.4189
  878MOL0     H18465   2.472   1.080   5.530  1.1409  0.5484  1.5972
  878MOL0     H18466   2.450   0.914   5.477 -0.5989 -1.0323  1.2319
  878MOL0     H18467   2.278   1.032   5.702  2.2543  0.6262  0.3771
  878MOL0     H18468   2.243   0.889   5.617 -0.5193  0.3681 -0.8008
  878MOL0     H18469   2.196   1.008   5.416  0.5507  1.8899 -1.3987
  878MOL0     H18470   2.262   1.164   5.487 -0.5918  0.9206  3.0162
  878MOL0     H18471   2.048   1.007   5.623  0.3729  0.2623  0.0239
  878MOL0     H18472   2.079   1.175   5.651 -0.4944 -0.0080  0.2323
  878MOL0     H18473   1.918   1.057   5.428  0.5373 -0.0343  0.4510
  878MOL0     H18474   1.875   1.169   5.555  0.1728  0.1955  1.4852
  878MOL0     H18475   2.092   1.235   5.342 -0.2763 -1.2079 -0.9005
  878MOL0     H18476   1.922   1.245   5.305  1.1542  1.7033 -1.3361
  878MOL0     H18477   2.066   1.389   5.537  0.6001 -0.9095  0.3854
  878MOL0     H18478   1.894   1.405   5.508 -0.4817  1.0834 -1.0237
  878MOL0     H18479   1.925   1.511   5.277 -1.7956  3.6152  2.3682
  878MOL0     H18480   1.983   1.598   5.417 -0.5388 -0.0919 -0.0232
  878MOL0     H18481   2.272   1.442   5.453 -1.9925  1.3030  1.2331
  878MOL0     H18482   2.545   1.616   5.293 -1.0402  0.4397 -0.9273
  878MOL0     H18483   2.496   1.492   5.413 -0.3933  1.3318  1.2353
  878MOL0     H18484   2.474   1.337   5.225 -0.9133  0.0819 -1.0927
  878MOL0     H18485   2.588   1.445   5.135  1.3423 -2.2951 -0.2113
  878MOL0     H18486   2.657   1.336   5.405  2.6407  2.3223  1.6494
  878MOL0     H18487   2.751   1.444   5.326  0.4467 -1.6393  2.2415
  878MOL0     H18488   2.669   1.180   5.191 -0.5760 -0.0729 -0.5811
  878MOL0     H18489   2.829   1.221   5.282  1.2084  4.5925  1.6365
  878MOL0     H18490   2.987   1.370   4.941 -1.0756 -1.2536 -0.3020
  878MOL0     H18491   3.183   1.242   4.840  0.4522 -1.0709 -0.0821
  878MOL0     H18492   3.453   0.997   5.085  0.3262 -2.0464 -1.7102
  878MOL0     H18493   3.684   1.012   5.140  2.2629  2.1012 -0.3561
  878MOL0     H18494   3.940   1.076   5.161  2.2231 -0.1918 -0.0143
  878MOL0     H18495   3.929   0.911   5.095  0.7245 -1.6799 -2.1586
  878MOL0     H18496   4.123   0.956   4.952 -1.9763  1.8139 -0.7236
  878MOL0     H18497   4.174   1.090   5.064  2.2926 -1.6540  2.7002
  878MOL0     H18498   4.212   0.935   5.235  1.4825 -0.1040 -0.2451
  878MOL0     H18499   4.117   0.799   5.148  0.4400 -0.2572 -2.6664
  878MOL0     H18500   4.367   0.934   5.068 -0.1573 -0.6725  0.5388
  878MOL0     H18501   4.296   0.805   4.974 -2.8045 -2.6953  1.6841
  878MOL0     H18502   4.326   0.641   5.170 -0.4974  0.1989  0.0827
  878MOL0     H18503   4.397   0.778   5.267  0.0274 -5.5382  2.9929
  878MOL0     H18504   4.525   0.684   5.013 -0.9757 -0.2497 -0.0382
  878MOL0     H18505   4.581   0.800   5.129 -1.5617  0.2274  1.2772
  878MOL0     H18506   4.567   0.494   5.182  0.5568 -0.4134 -0.0294
  878MOL0     H18507   4.583   0.623   5.302  0.9897 -1.6153  0.7215
  878MOL0     H18508   4.794   0.709   5.191 -0.9927  0.6884 -1.4400
  878MOL0     H18509   4.813   0.535   5.198 -0.6542 -0.6534  0.8838
  878MOL0     H18510   3.796   1.051   4.738 -1.5452 -0.0387 -1.5657
  878MOL0     H18511   3.540   1.075   4.676  1.9811 -2.4975 -0.9604
  878MOL0     H18512   3.047   0.894   5.078  0.3363 -0.1604 -1.3380
  878MOL0     H18513   2.865   1.029   5.167  1.3349  0.5531  1.5462
  878MOL0     H18514   2.676   0.800   5.802  0.8434 -0.5618  0.9737
  878MOL0     H18515   2.909   0.762   5.775  1.9534  0.1929  0.2474
  878MOL0     H18516   3.326   0.842   5.668 -0.3010  1.3617  0.8727
  878MOL0     H18517   3.570   0.811   5.602  1.1591  0.2349 -0.9014
  878MOL0     H18518   3.888   0.949   5.416  2.2131 -1.6639  2.7148
  878MOL0     H18519   3.794   0.847   5.512  3.4235  0.2844  4.6503
  878MOL0     H18520   3.734   1.053   5.655 -0.4993  2.2240 -0.6544
  878MOL0     H18521   3.821   1.152   5.536  2.2703  0.3819  0.6384
  878MOL0     H18522   4.018   0.980   5.608  1.4132  0.0629  0.9868
  878MOL0     H18523   3.911   0.938   5.741 -2.1285  0.4516 -0.4393
  878MOL0     H18524   3.980   1.233   5.704  0.0599  1.5289  2.7668
  878MOL0     H18525   3.933   1.145   5.849 -1.0286 -1.6537 -0.3657
  878MOL0     H18526   4.359   1.132   5.806  0.2125 -0.7969 -1.8963
  878MOL0     H18527   3.509   1.111   5.299 -1.1892  2.1257  0.8349
  878MOL0     H18528   3.231   1.092   5.229  3.0569  0.0199 -0.0969
  878MOL0     H18529   3.159   1.189   5.365  2.5907  0.7862  2.8199
  878MOL0     H18530   3.304   1.241   5.296 -1.0737  0.1604 -1.0637
  879MOL0     O18531  10.433   1.980   0.895 -0.5343 -0.3870 -0.1827
  879MOL0     C18532  10.462   1.962   0.778  0.2370  0.3072  0.2367
  879MOL0     O18533  10.372   1.973   0.675 -0.5184  1.1128  0.0001
  879MOL0     C18534  10.235   1.986   0.689 -0.0875 -0.1742  0.6322
  879MOL0     C18535  10.178   2.090   0.770 -0.1617  0.3549  0.3620
  879MOL0     C18536  10.042   2.101   0.767 -0.2066 -0.5794  0.9801
  879MOL0     C18537   9.965   2.017   0.682  0.0191  0.2680 -0.5822
  879MOL0     O18538   9.836   2.056   0.674 -0.0986  0.1045  0.2499
  879MOL0     C18539   9.760   2.004   0.564 -0.2008  0.1337  0.0858
  879MOL0     C18540   9.621   2.059   0.574 -0.3412  0.7677  0.0717
  879MOL0     C18541   9.530   2.001   0.466 -0.2030 -0.4540 -0.1620
  879MOL0     C18542   9.384   2.048   0.488 -0.5489 -0.3459  0.0183
  879MOL0     C18543   9.306   1.994   0.368  0.5449  0.0938 -0.4536
  879MOL0     C18544   9.191   2.089   0.347 -0.0804  0.3669 -0.5369
  879MOL0     C18545   9.087   2.028   0.251 -0.1923  0.7900 -0.4632
  879MOL0     C18546   8.991   2.132   0.221  0.8383 -0.2456 -0.3958
  879MOL0     N18547   8.898   2.082   0.116 -0.5196 -0.8162  0.8967
  879MOL0     C18548   8.929   2.013   0.004 -0.3440 -0.3458 -0.2580
  879MOL0     C18549   8.821   2.015  -0.081 -0.9446  0.4996  0.0247
  879MOL0     C18550   8.806   1.965  -0.223 -0.0664  0.6830 -0.0225
  879MOL0     C18551   8.918   2.020  -0.304 -0.5410  0.3830  0.0387
  879MOL0     C18552   8.913   1.974  -0.454 -0.9801  0.5043 -0.0552
  879MOL0     C18553   9.037   2.032  -0.532 -0.5770  0.1250  0.1193
  879MOL0     O18554   9.157   1.982  -0.474 -0.3012 -0.1862 -0.3441
  879MOL0     C18555   9.270   2.037  -0.513  0.2631 -0.1440 -1.0703
  879MOL0     C18556   9.376   2.020  -0.432 -0.8459  0.0552 -0.5233
  879MOL0     C18557   9.505   2.057  -0.473  0.0932 -0.6928  0.4746
  879MOL0     C18558   9.523   2.129  -0.594 -0.2758 -0.0145 -0.6137
  879MOL0     C18559   9.650   2.171  -0.633  0.4167  0.9088  0.3038
  879MOL0     O18560   9.750   2.105  -0.567  0.1717 -0.2207 -0.0882
  879MOL0     C18561   9.876   2.131  -0.605  0.1790 -0.4568  0.0570
  879MOL0     C18562   9.935   2.101  -0.728  0.8826 -0.2040  0.1754
  879MOL0     C18563  10.070   2.099  -0.755 -0.4170 -0.1474 -0.0682
  879MOL0     C18564  10.155   2.145  -0.660 -1.0005 -0.2905 -0.4496
  879MOL0     O18565  10.287   2.165  -0.673 -0.5472  0.4237 -0.2781
  879MOL0     C18566  10.337   2.157  -0.803  0.3661 -1.1556  0.5080
  879MOL0     C18567  10.491   2.153  -0.787 -0.0291  0.4674  0.1254
  879MOL0     C18568  10.557   2.018  -0.743 -0.3483  0.4690  0.0413
  879MOL0     C18569  10.706   2.042  -0.696  0.2309  0.4894  0.6750
  879MOL0     C18570  10.773   1.910  -0.655 -0.3551  0.0140  0.0525
  879MOL0     C18571  10.911   1.933  -0.587  0.5885  0.0113 -0.4655
  879MOL0     C18572  11.008   2.024  -0.657 -0.1937  0.1566  0.2684
  879MOL0     C18573  11.139   2.042  -0.578  0.2407 -0.7923  0.4207
  879MOL0    Cl18574  11.235   1.895  -0.588 -0.5684  0.2711 -0.1376
  879MOL0     C18575  10.104   2.183  -0.532  0.1813 -0.3587  0.0270
  879MOL0     C18576   9.966   2.177  -0.508  0.0900  0.4474 -0.3216
  879MOL0     O18577   9.670   2.250  -0.723  0.3380  0.1633  0.4190
  879MOL0     C18578   9.408   2.164  -0.670  0.5088 -0.5723 -0.2350
  879MOL0     C18579   9.286   2.104  -0.634 -0.1841 -0.3359 -0.5682
  879MOL0     N18580   8.734   2.106  -0.029  0.8313 -0.0332 -0.9272
  879MOL0     N18581   8.779   2.149   0.093  0.3102  0.6145  0.8119
  879MOL0     C18582  10.030   1.916   0.606 -0.4816 -0.1176 -0.4797
  879MOL0     C18583  10.164   1.911   0.604 -0.4468 -0.7139  0.0905
  879MOL0     C18584  10.599   1.912   0.755  0.0046 -0.5439 -0.0900
  879MOL0     C18585  10.607   1.781   0.707 -0.3615 -0.6764  0.6851
  879MOL0     C18586  10.732   1.726   0.671  0.5496  0.4163  0.7945
  879MOL0     C18587  10.851   1.788   0.698  0.3252  0.6816  0.1761
  879MOL0     O18588  10.959   1.728   0.654 -0.0694  1.4165  0.5267
  879MOL0     C18589  11.093   1.784   0.669 -1.0097  0.2590 -0.0675
  879MOL0     C18590  11.177   1.694   0.572 -0.7141  0.8057  0.0406
  879MOL0     C18591  11.334   1.729   0.581  0.6949  0.4286  0.2712
  879MOL0     C18592  11.413   1.633   0.482 -0.1764 -0.7851 -0.4139
  879MOL0     C18593  11.365   1.637   0.342  0.4372  0.7895  0.8841
  879MOL0     C18594  11.323   1.633   0.226 -0.6222  0.1342 -1.1374
  879MOL0     C18595  10.847   1.915   0.762  1.1987 -0.1577  0.1442
  879MOL0     C18596  10.721   1.976   0.795  0.4823  1.1516  1.0269
  879MOL0     C18597  10.719   2.100   0.876  0.8122  0.3907  0.1201
  879MOL0     H18598  10.246   2.148   0.830  2.5129 -0.7506 -1.4015
  879MOL0     H18599   9.987   2.179   0.819  1.4948 -0.2306  2.3285
  879MOL0     H18600   9.811   2.029   0.470  2.0146 -1.6381  0.7109
  879MOL0     H18601   9.760   1.895   0.573  2.6508  0.1324  1.3067
  879MOL0     H18602   9.635   2.167   0.580  0.3489  0.9186 -2.7783
  879MOL0     H18603   9.579   2.028   0.670 -0.0597  1.9939  0.6089
  879MOL0     H18604   9.537   1.893   0.476 -1.0693 -0.4019  1.2618
  879MOL0     H18605   9.571   2.030   0.368  1.0917 -0.8699  0.2340
  879MOL0     H18606   9.342   2.004   0.579  0.7026  0.4301  1.0032
  879MOL0     H18607   9.390   2.157   0.494  2.7475 -0.2838 -1.9579
  879MOL0     H18608   9.366   1.995   0.276  2.1992 -1.6839  0.5253
  879MOL0     H18609   9.267   1.895   0.394 -1.2831  1.3946  2.2549
  879MOL0     H18610   9.158   2.117   0.448 -0.5680  0.5800 -0.7537
  879MOL0     H18611   9.237   2.178   0.303 -2.1571  0.7042 -2.2091
  879MOL0     H18612   9.046   1.938   0.298  0.5789 -0.2151 -1.6547
  879MOL0     H18613   9.138   2.001   0.158 -1.2086 -2.3515 -0.2116
  879MOL0     H18614   8.933   2.158   0.310  2.9682  3.1564  0.1879
  879MOL0     H18615   9.031   2.226   0.181 -1.0534 -0.2806 -2.5730
  879MOL0     H18616   9.020   1.956  -0.010  1.0220  1.2993  1.3897
  879MOL0     H18617   8.814   1.856  -0.216  1.2132  0.8286  1.4542
  879MOL0     H18618   8.712   1.998  -0.268 -2.0040 -2.9059  1.0414
  879MOL0     H18619   8.896   2.127  -0.296 -1.2392  0.1140  4.8187
  879MOL0     H18620   9.010   1.991  -0.253 -2.3819  0.3552  3.6482
  879MOL0     H18621   8.814   2.007  -0.489 -1.6268  0.2738  1.4720
  879MOL0     H18622   8.919   1.865  -0.457  0.1879  0.5871 -1.7697
  879MOL0     H18623   9.029   2.140  -0.518  2.2969  0.4078  0.2034
  879MOL0     H18624   9.028   2.019  -0.641  1.8491 -0.6700 -0.0443
  879MOL0     H18625   9.365   1.968  -0.338  0.4643  1.2623  0.3503
  879MOL0     H18626   9.573   2.039  -0.391  0.0749  0.7975  0.8509
  879MOL0     H18627   9.870   2.061  -0.805 -0.1142  2.1447 -0.2940
  879MOL0     H18628  10.104   2.050  -0.845 -0.4171 -1.7093  0.7428
  879MOL0     H18629  10.308   2.068  -0.860 -1.5220  0.6006 -1.4578
  879MOL0     H18630  10.304   2.244  -0.859  0.2588 -0.0697  2.2066
  879MOL0     H18631  10.537   2.182  -0.882  0.3580  0.0988  0.1983
  879MOL0     H18632  10.515   2.229  -0.712 -2.1602 -0.9260  2.3844
  879MOL0     H18633  10.490   1.969  -0.671 -1.4520 -0.2100 -1.3840
  879MOL0     H18634  10.563   1.956  -0.833 -1.4979 -0.8292  0.8160
  879MOL0     H18635  10.697   2.109  -0.611 -0.3481  1.0171  0.2042
  879MOL0     H18636  10.773   2.091  -0.767  0.6165  0.0692  0.7416
  879MOL0     H18637  10.776   1.838  -0.738 -1.2182 -2.5994  2.1649
  879MOL0     H18638  10.707   1.865  -0.581 -1.5599  0.1021 -0.9368
  879MOL0     H18639  10.897   1.984  -0.491 -0.8732 -1.6610  0.2602
  879MOL0     H18640  10.956   1.835  -0.573  1.2817  0.5626  1.4423
  879MOL0     H18641  10.974   2.127  -0.671  1.1524  0.9437  2.2712
  879MOL0     H18642  11.041   1.980  -0.751  0.8828 -2.1998  1.6540
  879MOL0     H18643  11.190   2.119  -0.637 -1.7801 -0.2489 -0.6865
  879MOL0     H18644  11.129   2.081  -0.476  1.6187 -0.1772  0.3457
  879MOL0     H18645  10.152   2.218  -0.441 -0.5036 -1.4482  0.8408
  879MOL0     H18646   9.920   2.202  -0.413 -2.4372 -0.5790 -1.2050
  879MOL0     H18647   9.413   2.218  -0.764 -0.5169 -0.0426 -0.0007
  879MOL0     H18648   9.205   2.121  -0.704 -0.7584  0.3291  0.2361
  879MOL0     H18649   9.975   1.843   0.548 -4.0114  1.0298  1.1277
  879MOL0     H18650  10.215   1.836   0.545  2.7934  0.7012  0.8535
  879MOL0     H18651  10.519   1.731   0.669  1.0231 -1.6236 -1.5040
  879MOL0     H18652  10.733   1.631   0.618 -0.2859 -0.2374  1.9060
  879MOL0     H18653  11.129   1.768   0.770  1.0371  0.2859 -0.7554
  879MOL0     H18654  11.097   1.887   0.630 -0.4196 -0.7490 -2.9371
  879MOL0     H18655  11.140   1.730   0.475  3.0246  2.9674 -0.7726
  879MOL0     H18656  11.163   1.590   0.602  1.3059  1.0637  2.1196
  879MOL0     H18657  11.358   1.701   0.684  0.1772  0.9817  0.5534
  879MOL0     H18658  11.346   1.837   0.563  0.0347  0.2384 -1.4723
  879MOL0     H18659  11.519   1.657   0.497 -0.6971  0.4224  1.7823
  879MOL0     H18660  11.394   1.532   0.520 -0.0023 -1.1327 -1.2436
  879MOL0     H18661  11.310   1.637   0.120  1.2487 -0.6248 -1.4401
  879MOL0     H18662  10.945   1.955   0.786  2.2174 -2.8900  0.9152
  879MOL0     H18663  10.685   2.085   0.978  0.8248  0.2921  0.1100
  879MOL0     H18664  10.822   2.135   0.892 -0.3800  3.8026  1.3150
  879MOL0     H18665  10.666   2.187   0.834  0.3962 -1.2971 -3.2069
  880MOL0     O18666   9.418   9.988  10.892 -0.1818  0.6792  0.0939
  880MOL0     C18667   9.374  10.053  10.990 -0.7631 -0.5033 -0.4185
  880MOL0     O18668   9.423  10.181  11.033 -0.2499  0.1384  0.3717
  880MOL0     C18669   9.506  10.241  10.944 -0.5255  0.8199 -0.0146
  880MOL0     C18670   9.641  10.214  10.960 -0.3400  0.4603  0.0899
  880MOL0     C18671   9.741  10.281  10.890 -1.3470 -0.7400 -0.0742
  880MOL0     C18672   9.702  10.380  10.795  0.1547 -0.3655 -0.3337
  880MOL0     O18673   9.789  10.446  10.715  0.1493 -0.1339 -0.2120
  880MOL0     C18674   9.905  10.495  10.781 -0.2663  0.0495  0.1469
  880MOL0     C18675   9.905  10.638  10.730  0.5357  0.0048 -0.5776
  880MOL0     C18676  10.030  10.708  10.779 -0.3359  0.3246  0.4253
  880MOL0     C18677  10.059  10.849  10.719  0.4457  0.5583  0.9172
  880MOL0     C18678  10.203  10.885  10.760  0.3975 -0.3709  0.6084
  880MOL0     C18679  10.245  11.027  10.709  0.6319  0.1210 -0.1863
  880MOL0     C18680  10.368  11.075  10.790 -0.6864  0.2417 -0.0582
  880MOL0     C18681  10.496  11.011  10.739  0.5779 -0.1137  0.2163
  880MOL0     N18682  10.616  11.090  10.780  0.3535 -0.0646 -0.0833
  880MOL0     C18683  10.674  11.215  10.740  0.1371  0.2195 -0.7669
  880MOL0     C18684  10.778  11.232  10.827 -0.4898  0.0077 -0.9827
  880MOL0     C18685  10.861  11.363  10.829  0.2988 -1.3088 -0.0361
  880MOL0     C18686  10.965  11.383  10.719  0.0291 -0.4454  0.3272
  880MOL0     C18687  11.064  11.272  10.717 -0.0944  0.5085 -0.6484
  880MOL0     C18688  11.172  11.256  10.825 -0.4082 -0.5175 -0.2204
  880MOL0     O18689  11.271  11.363  10.792 -0.0603 -0.4900  0.1394
  880MOL0     C18690  11.376  11.380  10.879  0.2257  0.5785 -0.0387
  880MOL0     C18691  11.468  11.280  10.895 -0.4621 -0.0150  0.6705
  880MOL0     C18692  11.568  11.294  10.987 -0.4899  0.0288  0.2789
  880MOL0     C18693  11.580  11.400  11.076  0.5179  0.0383  0.0137
  880MOL0     C18694  11.691  11.402  11.172  0.6025 -0.2072  0.5707
  880MOL0     O18695  11.799  11.324  11.147  0.4546  0.0031 -0.3374
  880MOL0     C18696  11.912  11.328  11.224 -1.3746 -0.1843  0.6315
  880MOL0     C18697  11.940  11.245  11.331 -0.3915  0.4108 -0.0205
  880MOL0     C18698  12.060  11.248  11.397  0.9781  0.7642 -0.1420
  880MOL0     C18699  12.165  11.340  11.369 -0.4106 -0.5157  0.3850
  880MOL0     O18700  12.288  11.344  11.432  0.5756 -0.5292  0.6444
  880MOL0     C18701  12.344  11.222  11.461 -0.4839  0.1502 -0.9204
  880MOL0     C18702  12.492  11.251  11.459 -0.6274 -0.7794  0.2752
  880MOL0     C18703  12.574  11.120  11.466 -0.4066 -0.0141 -0.3510
  880MOL0     C18704  12.707  11.148  11.529 -0.2538  0.8103  0.4170
  880MOL0     C18705  12.777  11.017  11.565  0.9164 -0.2788 -0.4986
  880MOL0     C18706  12.913  11.057  11.634 -0.1517  0.2774  0.2855
  880MOL0     C18707  13.002  10.932  11.661 -0.0558 -0.3893  0.0798
  880MOL0     C18708  13.132  10.962  11.733 -0.2486  0.1244 -0.1544
  880MOL0    Cl18709  13.238  11.070  11.640 -0.1143  0.1597  0.6206
  880MOL0     C18710  12.144  11.425  11.261  0.0773 -0.3509 -0.3592
  880MOL0     C18711  12.019  11.419  11.192  0.1458 -0.3606 -0.9715
  880MOL0     O18712  11.682  11.478  11.270 -0.8476  0.9189  0.1056
  880MOL0     C18713  11.489  11.508  11.059 -0.7209  0.0491  0.4906
  880MOL0     C18714  11.382  11.488  10.968 -0.0653 -0.0166 -0.1970
  880MOL0     N18715  10.784  11.136  10.915 -0.3325  1.0430  0.6202
  880MOL0     N18716  10.693  11.044  10.883 -0.8804  0.3135 -0.0604
  880MOL0     C18717   9.564  10.404  10.777 -0.1096  0.2355 -0.2608
  880MOL0     C18718   9.471  10.330  10.850  0.4703 -0.5386 -0.1052
  880MOL0     C18719   9.259   9.984  11.059  0.0347  0.1533 -0.5140
  880MOL0     C18720   9.217   9.863  11.009 -0.4630 -0.0933 -0.3081
  880MOL0     C18721   9.087   9.814  11.046  0.1505  0.0209 -0.3396
  880MOL0     C18722   9.009   9.886  11.131  0.2085  0.2673 -0.1693
  880MOL0     O18723   8.900   9.821  11.173 -0.1165  0.1239  0.0676
  880MOL0     C18724   8.815   9.878  11.285 -0.3893  0.4997  0.5411
  880MOL0     C18725   8.673   9.811  11.281 -0.1891  0.3370 -0.0591
  880MOL0     C18726   8.664   9.664  11.322 -1.1055  0.4470 -0.1355
  880MOL0     C18727   8.516   9.624  11.311 -0.1619 -0.7098 -0.1933
  880MOL0     C18728   8.443   9.675  11.427 -0.2514  0.4093 -0.0534
  880MOL0     C18729   8.409   9.723  11.533  0.1098 -0.8688 -0.0139
  880MOL0     C18730   9.057  10.004  11.185  0.8416  0.0484  0.3343
  880MOL0     C18731   9.174  10.059  11.147 -0.9561 -0.0923  0.3452
  880MOL0     C18732   9.223  10.183  11.215  0.2675 -0.2254 -0.1230
  880MOL0     H18733   9.667  10.156  11.048  0.4924 -1.7085 -1.4923
  880MOL0     H18734   9.845  10.269  10.918 -0.9866 -2.0697 -1.8179
  880MOL0     H18735   9.882  10.495  10.888 -2.1784  0.2885 -0.2247
  880MOL0     H18736  10.000  10.445  10.760  1.5662  2.0481  3.0190
  880MOL0     H18737   9.819  10.696  10.765  0.5247  0.5983 -1.5499
  880MOL0     H18738   9.877  10.651  10.626 -1.1557 -1.4033 -0.3524
  880MOL0     H18739  10.111  10.643  10.743 -0.9332 -0.1575 -0.0616
  880MOL0     H18740  10.037  10.716  10.888 -0.7270 -0.6214  0.5341
  880MOL0     H18741  10.056  10.830  10.612  1.5151  0.1780  0.9392
  880MOL0     H18742   9.987  10.919  10.761  1.7880  1.2802  2.0891
  880MOL0     H18743  10.205  10.895  10.869 -1.2874  2.4056  0.4977
  880MOL0     H18744  10.275  10.805  10.742  0.3998 -0.6197  1.6686
  880MOL0     H18745  10.270  11.020  10.603  0.8112  0.6941 -0.1840
  880MOL0     H18746  10.161  11.092  10.734 -0.6035 -0.5986 -2.2135
  880MOL0     H18747  10.362  11.042  10.894  3.6285 -0.0981  0.2930
  880MOL0     H18748  10.373  11.184  10.794 -1.0238  0.2127  2.3270
  880MOL0     H18749  10.507  10.911  10.783  1.1864 -0.2140 -0.1583
  880MOL0     H18750  10.496  11.002  10.630  0.3688  0.5733  0.1557
  880MOL0     H18751  10.639  11.286  10.666  0.9188  0.2686 -1.1000
  880MOL0     H18752  10.796  11.449  10.814  1.6517 -0.1620  0.4268
  880MOL0     H18753  10.900  11.386  10.928 -1.3238  1.2067  0.1084
  880MOL0     H18754  10.912  11.398  10.624  2.2074  1.2237 -0.7085
  880MOL0     H18755  11.028  11.470  10.737 -0.5214 -0.5238  3.0917
  880MOL0     H18756  11.115  11.277  10.620  2.0879 -0.6219  0.3725
  880MOL0     H18757  11.011  11.177  10.709  1.5836 -0.3396 -2.8780
  880MOL0     H18758  11.214  11.155  10.827  0.2096 -0.2684 -0.3190
  880MOL0     H18759  11.130  11.277  10.924 -2.3971 -2.1281 -0.6415
  880MOL0     H18760  11.455  11.192  10.832  1.0238  1.6913 -2.2602
  880MOL0     H18761  11.631  11.206  10.994 -0.3489  0.2244  1.8162
  880MOL0     H18762  11.863  11.178  11.368 -2.9554  3.4759  0.7267
  880MOL0     H18763  12.077  11.182  11.481  0.8274  1.5680  0.5283
  880MOL0     H18764  12.304  11.179  11.554 -2.1849  2.3096 -0.5822
  880MOL0     H18765  12.331  11.158  11.373  0.3571 -0.9139 -0.3052
  880MOL0     H18766  12.529  11.304  11.371 -0.2862 -0.3486  0.6752
  880MOL0     H18767  12.505  11.314  11.547  2.3994  0.8490 -1.1790
  880MOL0     H18768  12.513  11.054  11.527 -2.0441  2.0304  0.3453
  880MOL0     H18769  12.600  11.071  11.372  4.2395  0.7188  0.2817
  880MOL0     H18770  12.694  11.221  11.610 -2.0870  2.4410 -1.2261
  880MOL0     H18771  12.767  11.205  11.457 -0.7153  0.1968 -0.4646
  880MOL0     H18772  12.780  10.959  11.472 -1.1915  0.2977 -0.9902
  880MOL0     H18773  12.712  10.971  11.640 -0.3857 -0.0735 -1.4501
  880MOL0     H18774  12.952  11.132  11.564  0.3325 -0.0919  0.1467
  880MOL0     H18775  12.895  11.114  11.725 -1.7792  1.7398 -0.8806
  880MOL0     H18776  13.034  10.880  11.570  2.1887 -0.5845  0.9141
  880MOL0     H18777  12.952  10.855  11.720 -0.0054 -0.6307 -0.1864
  880MOL0     H18778  13.118  11.007  11.832  1.6955  0.0914  0.1654
  880MOL0     H18779  13.180  10.867  11.755 -1.2446 -0.9205 -2.1732
  880MOL0     H18780  12.219  11.499  11.239 -1.2172  1.0565 -0.2356
  880MOL0     H18781  11.993  11.492  11.116 -0.6920  1.8437  1.2678
  880MOL0     H18782  11.491  11.598  11.120  0.0270 -0.0228  0.5791
  880MOL0     H18783  11.301  11.561  10.961 -0.4556 -0.4209  0.0613
  880MOL0     H18784   9.537  10.475  10.700 -1.7131  3.3893  2.9219
  880MOL0     H18785   9.369  10.360  10.827  0.7750 -0.0609 -0.9119
  880MOL0     H18786   9.279   9.805  10.942  0.3140 -1.5441  1.5539
  880MOL0     H18787   9.058   9.714  11.013 -2.4437  0.5415  0.1215
  880MOL0     H18788   8.803   9.986  11.275  1.3797  0.8993  2.0467
  880MOL0     H18789   8.861   9.868  11.384  1.3785  3.0868  0.0674
  880MOL0     H18790   8.622   9.819  11.184  0.9368 -1.5341 -0.8737
  880MOL0     H18791   8.608   9.868  11.349  0.4593  4.3682 -2.4888
  880MOL0     H18792   8.712   9.636  11.416 -0.3796 -2.2742 -1.2270
  880MOL0     H18793   8.726   9.617  11.245 -1.4964  1.0119 -0.8104
  880MOL0     H18794   8.465   9.659  11.221 -1.5926 -2.9013 -0.3173
  880MOL0     H18795   8.500   9.517  11.301  0.7258 -0.6708 -2.5439
  880MOL0     H18796   8.385   9.753  11.633 -3.3509  3.1433 -1.7308
  880MOL0     H18797   8.995  10.042  11.266 -0.0586 -0.0785 -0.2688
  880MOL0     H18798   9.240  10.273  11.155 -0.1196  2.5609  3.6155
  880MOL0     H18799   9.151  10.218  11.290 -1.8590 -1.7095 -1.3599
  880MOL0     H18800   9.318  10.159  11.263 -0.4009 -0.3344  1.1723
  881MOL0     O18801   4.826   5.784   8.066  0.1695 -0.2075 -0.4665
  881MOL0     C18802   4.770   5.838   8.165 -0.2093 -0.1365  0.8695
  881MOL0     O18803   4.830   5.914   8.259 -0.8202  0.5281 -0.1167
  881MOL0     C18804   4.970   5.924   8.239 -0.2419 -0.0904 -0.4174
  881MOL0     C18805   5.038   5.983   8.128 -0.2528  0.3566 -0.2883
  881MOL0     C18806   5.178   5.962   8.126  0.0018 -0.4785  0.4296
  881MOL0     C18807   5.251   5.896   8.227 -0.1177 -0.3876  0.3363
  881MOL0     O18808   5.385   5.902   8.223 -0.3592 -0.1930  0.2753
  881MOL0     C18809   5.461   5.823   8.307 -0.6790 -1.1176  0.5688
  881MOL0     C18810   5.611   5.841   8.269  0.3267  0.5557 -0.1128
  881MOL0     C18811   5.702   5.778   8.379  0.2080 -0.2165  1.3518
  881MOL0     C18812   5.841   5.849   8.376  0.1975 -0.2290  0.4954
  881MOL0     C18813   5.913   5.794   8.494 -0.0155 -0.4695 -0.5438
  881MOL0     C18814   6.068   5.817   8.483  0.2571 -0.4071  1.1024
  881MOL0     C18815   6.155   5.693   8.457  0.2832  0.3997  0.5012
  881MOL0     C18816   6.162   5.599   8.561 -0.4408  0.7998  0.0709
  881MOL0     N18817   6.216   5.644   8.687  0.2424  0.0908  0.5045
  881MOL0     C18818   6.350   5.689   8.692  0.4480 -0.2650  0.4354
  881MOL0     C18819   6.348   5.767   8.801 -0.4584 -0.0651  0.1951
  881MOL0     C18820   6.468   5.840   8.864 -0.0633  0.0701 -0.6364
  881MOL0     C18821   6.580   5.742   8.891 -1.3628 -0.5477 -0.0842
  881MOL0     C18822   6.711   5.815   8.927  0.2034 -0.6451  0.5058
  881MOL0     C18823   6.794   5.853   8.801  0.6690  0.5121  0.1346
  881MOL0     O18824   6.767   5.982   8.749  0.1495 -0.1088 -0.6259
  881MOL0     C18825   6.864   6.081   8.770 -0.2318 -0.2041  0.3990
  881MOL0     C18826   6.893   6.171   8.666  0.6561 -0.0966 -0.4315
  881MOL0     C18827   6.992   6.269   8.676  0.3925 -0.1660 -0.4252
  881MOL0     C18828   7.068   6.275   8.792 -0.6073  0.1969  0.6599
  881MOL0     C18829   7.175   6.378   8.805  0.0140 -0.6039 -0.7866
  881MOL0     O18830   7.242   6.372   8.926  0.1077 -0.2192  0.0669
  881MOL0     C18831   7.364   6.436   8.944  0.0609 -0.4571 -0.2397
  881MOL0     C18832   7.374   6.574   8.956 -0.8721  0.6088  0.1177
  881MOL0     C18833   7.491   6.630   9.012 -0.1078 -0.4444  0.7495
  881MOL0     C18834   7.601   6.553   9.054 -0.2658  0.1488  0.1353
  881MOL0     O18835   7.711   6.599   9.111 -0.0501 -0.0876  0.8394
  881MOL0     C18836   7.727   6.745   9.108  0.8902  0.1311 -0.0846
  881MOL0     C18837   7.866   6.768   9.163  0.0940 -0.1317 -0.0104
  881MOL0     C18838   7.965   6.720   9.063 -0.3960  0.1986  0.3996
  881MOL0     C18839   8.109   6.770   9.083 -0.4343  0.4911 -0.2191
  881MOL0     C18840   8.182   6.777   8.949 -1.3120 -0.3001 -0.6293
  881MOL0     C18841   8.285   6.892   8.950 -0.2602 -0.5863 -0.3520
  881MOL0     C18842   8.403   6.871   9.050  0.6174  0.3873 -0.3204
  881MOL0     C18843   8.505   6.985   9.044 -0.1768  0.1431  0.1347
  881MOL0    Cl18844   8.666   6.917   9.073  0.2302  0.0309  0.3797
  881MOL0     C18845   7.590   6.410   9.047 -0.4325 -0.5934 -0.3994
  881MOL0     C18846   7.472   6.357   8.991 -0.5990  0.4210  0.3954
  881MOL0     O18847   7.203   6.440   8.708 -0.2454 -0.1036  0.1621
  881MOL0     C18848   7.046   6.179   8.890  0.1736  0.3362 -0.1647
  881MOL0     C18849   6.937   6.088   8.890 -0.0486  0.6290 -0.8974
  881MOL0     N18850   6.220   5.768   8.863 -0.4681  0.1000 -0.1028
  881MOL0     N18851   6.146   5.681   8.794 -0.4627 -0.2117 -0.8127
  881MOL0     C18852   5.183   5.839   8.332 -0.7853  0.3595 -0.7029
  881MOL0     C18853   5.043   5.856   8.336 -0.5070  0.6951  0.3080
  881MOL0     C18854   4.629   5.819   8.167  0.8043  0.3281  0.4078
  881MOL0     C18855   4.564   5.712   8.095  0.3385 -0.3580 -0.0554
  881MOL0     C18856   4.425   5.697   8.096 -0.1300  0.5222  0.8846
  881MOL0     C18857   4.340   5.788   8.160  0.7920 -0.9163  0.0601
  881MOL0     O18858   4.203   5.788   8.175 -0.4175  0.3326 -0.1573
  881MOL0     C18859   4.141   5.692   8.096  0.2729 -0.9473 -1.4238
  881MOL0     C18860   3.990   5.701   8.113 -0.5413  0.1832  0.1025
  881MOL0     C18861   3.902   5.611   8.019 -0.2109  0.3638  0.2023
  881MOL0     C18862   3.979   5.547   7.900 -0.0722  0.9200 -1.4829
  881MOL0     C18863   3.990   5.638   7.796 -0.0767  0.0449  0.5919
  881MOL0     C18864   3.989   5.716   7.701 -0.0974 -0.0554  0.5504
  881MOL0     C18865   4.402   5.891   8.230  0.4763 -0.2488 -0.0213
  881MOL0     C18866   4.541   5.908   8.236  0.0428  0.6136 -0.3907
  881MOL0     C18867   4.586   6.028   8.312  1.4190  0.2925  0.3639
  881MOL0     H18868   4.969   6.023   8.055  1.0909 -1.7352 -2.8955
  881MOL0     H18869   5.230   6.013   8.046 -1.3307  1.8685  0.9603
  881MOL0     H18870   5.449   5.876   8.401  1.6662 -2.7831  1.9148
  881MOL0     H18871   5.426   5.720   8.320 -1.6444 -0.6002  2.2324
  881MOL0     H18872   5.633   5.947   8.257  2.3721  0.0359 -1.5794
  881MOL0     H18873   5.623   5.806   8.166 -0.0512  3.1743 -1.1044
  881MOL0     H18874   5.701   5.674   8.346  0.4669 -0.6023  2.5312
  881MOL0     H18875   5.651   5.776   8.476 -1.5608 -0.1116  0.4741
  881MOL0     H18876   5.895   5.813   8.288  0.4568 -1.9458  1.2995
  881MOL0     H18877   5.820   5.956   8.373 -0.3330 -0.3648 -1.7164
  881MOL0     H18878   5.879   5.847   8.584  0.4543  0.2785 -0.7952
  881MOL0     H18879   5.889   5.689   8.512 -0.8884 -0.5814 -2.1897
  881MOL0     H18880   6.092   5.907   8.426 -1.3537  0.6370  1.9749
  881MOL0     H18881   6.101   5.843   8.584  0.2252 -0.4933  1.1352
  881MOL0     H18882   6.259   5.723   8.441  1.2744 -2.8715 -0.0321
  881MOL0     H18883   6.115   5.647   8.367 -0.3214 -0.0109  0.9663
  881MOL0     H18884   6.062   5.557   8.578  0.3934 -0.3349  2.5878
  881MOL0     H18885   6.234   5.527   8.522  0.1228  1.9628 -1.1062
  881MOL0     H18886   6.425   5.679   8.615 -0.3918  1.6506 -0.7014
  881MOL0     H18887   6.509   5.908   8.788  0.8604  3.3104  2.4866
  881MOL0     H18888   6.434   5.901   8.948  1.4990  0.2585 -0.1165
  881MOL0     H18889   6.555   5.667   8.967 -1.1306  1.0498  1.6302
  881MOL0     H18890   6.611   5.682   8.804 -1.0135  0.2040 -0.4932
  881MOL0     H18891   6.759   5.738   8.989 -0.3705 -1.9676 -0.6155
  881MOL0     H18892   6.686   5.903   8.986  0.3847  0.7354 -1.3952
  881MOL0     H18893   6.776   5.768   8.734  2.9740 -2.0602  2.5029
  881MOL0     H18894   6.902   5.848   8.817  1.0250 -2.2618 -2.2183
  881MOL0     H18895   6.834   6.160   8.575 -1.8224 -0.8484  1.1735
  881MOL0     H18896   7.006   6.337   8.593  0.5003  0.6668  0.2513
  881MOL0     H18897   7.293   6.632   8.913 -0.2491  0.2949 -1.5534
  881MOL0     H18898   7.490   6.739   9.009 -1.1940 -0.4000  1.8185
  881MOL0     H18899   7.714   6.794   9.011  1.8072 -1.7351 -1.2036
  881MOL0     H18900   7.669   6.808   9.176  3.3575  3.8612 -1.1278
  881MOL0     H18901   7.882   6.873   9.190 -0.6441  0.0421 -0.2060
  881MOL0     H18902   7.866   6.704   9.251 -2.1966 -0.0176  0.1447
  881MOL0     H18903   7.984   6.612   9.064  1.2835  0.3509 -2.8927
  881MOL0     H18904   7.933   6.749   8.962 -0.6189 -3.8896 -0.8931
  881MOL0     H18905   8.173   6.722   9.158  2.0523  4.5153  0.5459
  881MOL0     H18906   8.106   6.872   9.123 -1.3443  0.6661 -0.7001
  881MOL0     H18907   8.107   6.802   8.875 -1.6362  0.4668 -0.0606
  881MOL0     H18908   8.226   6.680   8.925  0.7145  0.4400 -0.1498
  881MOL0     H18909   8.345   6.897   8.858 -0.0529 -0.4404 -0.2104
  881MOL0     H18910   8.223   6.981   8.967  0.4417  0.0109 -0.8238
  881MOL0     H18911   8.444   6.773   9.024  0.5454 -0.4176  2.3071
  881MOL0     H18912   8.364   6.865   9.152 -1.1237  0.1579 -0.9618
  881MOL0     H18913   8.500   7.023   8.941 -2.6674 -2.8012 -0.9616
  881MOL0     H18914   8.483   7.071   9.108  0.3549 -0.0115  0.5373
  881MOL0     H18915   7.669   6.347   9.086 -0.7051  0.2116  1.6012
  881MOL0     H18916   7.463   6.250   8.978 -0.3640  0.5902 -1.3830
  881MOL0     H18917   7.112   6.165   8.974  2.4565 -0.8946 -2.0497
  881MOL0     H18918   6.930   6.017   8.971  0.9953 -1.5504 -2.6078
  881MOL0     H18919   5.237   5.785   8.409  2.1458  1.2330 -1.9947
  881MOL0     H18920   4.996   5.817   8.426 -0.9174 -0.8945 -0.5500
  881MOL0     H18921   4.620   5.636   8.043 -1.9831 -0.7687 -2.1481
  881MOL0     H18922   4.380   5.604   8.064  1.2876 -0.5624  1.8518
  881MOL0     H18923   4.158   5.586   8.121  0.1771 -0.4645  0.9363
  881MOL0     H18924   4.169   5.705   7.992 -1.4015  2.1821 -1.6005
  881MOL0     H18925   3.960   5.805   8.099  1.2501  0.7335  0.1558
  881MOL0     H18926   3.977   5.663   8.215  4.0592  0.1743  0.9105
  881MOL0     H18927   3.806   5.649   7.984 -0.8124 -1.5075 -0.3098
  881MOL0     H18928   3.877   5.526   8.084 -1.7852  0.8469  0.2761
  881MOL0     H18929   4.076   5.507   7.933 -1.8314 -1.3098  1.5834
  881MOL0     H18930   3.915   5.466   7.863 -1.4519  1.0400  0.4927
  881MOL0     H18931   4.002   5.797   7.631 -2.0965  3.3219  3.7361
  881MOL0     H18932   4.334   5.960   8.278  0.1930 -0.1263 -0.5845
  881MOL0     H18933   4.630   6.007   8.410 -2.4245 -0.4683  2.1450
  881MOL0     H18934   4.664   6.082   8.259 -1.4619  2.9766 -1.4804
  881MOL0     H18935   4.505   6.101   8.315  0.3731 -0.8254  0.5134
  882MOL0     O18936   9.196   4.700   3.146  0.0825 -0.1846 -0.3506
  882MOL0     C18937   9.109   4.741   3.075  1.5037 -0.0034  0.7521
  882MOL0     O18938   9.107   4.741   2.938 -0.5306 -0.0932 -0.2930
  882MOL0     C18939   9.237   4.748   2.892 -0.1405  0.5060  0.2830
  882MOL0     C18940   9.335   4.847   2.915  0.3675 -0.3581 -0.2515
  882MOL0     C18941   9.461   4.854   2.857 -0.0932  0.6729 -0.0912
  882MOL0     C18942   9.505   4.750   2.768 -0.0386 -0.1555 -0.0874
  882MOL0     O18943   9.635   4.748   2.722 -0.4433 -0.2193  0.2490
  882MOL0     C18944   9.667   4.635   2.644 -0.1617 -1.0728  0.0364
  882MOL0     C18945   9.811   4.668   2.595 -0.0839  0.5945  0.3243
  882MOL0     C18946   9.919   4.671   2.707  0.5381  0.5756  0.4907
  882MOL0     C18947  10.050   4.682   2.637 -0.1866 -0.2358  0.3471
  882MOL0     C18948  10.167   4.649   2.736  0.2471 -0.8956 -0.2294
  882MOL0     C18949  10.166   4.513   2.792  0.2059  0.4415 -0.1697
  882MOL0     C18950  10.210   4.405   2.695 -0.5148  0.4322  0.7330
  882MOL0     C18951  10.251   4.275   2.784 -0.3139  0.8437  0.3754
  882MOL0     N18952  10.392   4.259   2.826  0.2366 -0.4306  0.1585
  882MOL0     C18953  10.498   4.219   2.742 -0.3593 -0.9600 -0.8170
  882MOL0     C18954  10.602   4.230   2.822  0.0118 -0.0955  0.6925
  882MOL0     C18955  10.751   4.196   2.791  0.8872  0.4045 -0.6291
  882MOL0     C18956  10.776   4.064   2.721  0.3346 -0.1802 -0.0011
  882MOL0     C18957  10.749   3.938   2.815  0.1219 -0.5743  0.4893
  882MOL0     C18958  10.767   3.799   2.753 -0.3132  0.5391  0.4231
  882MOL0     O18959  10.905   3.799   2.709  0.6391 -0.1454  0.8402
  882MOL0     C18960  10.954   3.693   2.640  0.0650  0.2850  0.2032
  882MOL0     C18961  11.095   3.690   2.614  0.0818 -0.8574  0.8092
  882MOL0     C18962  11.162   3.581   2.550  0.8547 -0.0072 -0.6953
  882MOL0     C18963  11.078   3.476   2.499 -0.1061 -0.1353 -0.1343
  882MOL0     C18964  11.143   3.367   2.428  0.0510  0.6232  1.0224
  882MOL0     O18965  11.275   3.341   2.467  0.0015 -0.1982  0.0785
  882MOL0     C18966  11.354   3.256   2.397  0.0826  0.6346 -0.7853
  882MOL0     C18967  11.445   3.300   2.305  1.1362 -0.1799  0.1467
  882MOL0     C18968  11.536   3.209   2.242  0.1198  0.1782 -0.0009
  882MOL0     C18969  11.522   3.074   2.266  0.4705  0.0959  0.7622
  882MOL0     O18970  11.600   2.983   2.196  0.6353 -0.4494 -0.3032
  882MOL0     C18971  11.609   2.987   2.053 -0.2353  0.2425  0.0561
  882MOL0     C18972  11.489   2.919   1.990  0.7192  0.8004  0.0327
  882MOL0     C18973  11.481   2.924   1.833 -0.6014  0.3641  0.9476
  882MOL0     C18974  11.362   2.842   1.781  0.3565  0.5861  0.7523
  882MOL0     C18975  11.245   2.943   1.757 -0.1695 -0.2556 -0.9052
  882MOL0     C18976  11.101   2.892   1.712 -0.1155 -0.1698 -0.1890
  882MOL0     C18977  11.064   2.755   1.768  0.7787 -0.3239  0.7833
  882MOL0     C18978  10.933   2.721   1.697 -0.2725 -0.3936 -0.9676
  882MOL0    Cl18979  10.913   2.553   1.745  0.1314 -0.1267 -0.2708
  882MOL0     C18980  11.428   3.031   2.356 -0.0276 -0.0092  0.1410
  882MOL0     C18981  11.349   3.123   2.428  0.0050  0.2502  0.2999
  882MOL0     O18982  11.077   3.311   2.336  0.6078  0.5885  0.3189
  882MOL0     C18983  10.938   3.485   2.523 -0.2242  0.0288 -0.2579
  882MOL0     C18984  10.880   3.596   2.582  0.3725  0.4277 -0.5194
  882MOL0     N18985  10.563   4.283   2.944  0.0497  0.4255  0.1394
  882MOL0     N18986  10.441   4.303   2.949 -0.3395  0.0009  0.3615
  882MOL0     C18987   9.412   4.657   2.737 -0.0182  0.2985  0.6513
  882MOL0     C18988   9.279   4.663   2.787 -0.2175  0.6374  0.1226
  882MOL0     C18989   8.971   4.766   3.144 -0.0258  0.7550  0.4961
  882MOL0     C18990   8.861   4.753   3.058 -0.3045 -0.3159  0.3946
  882MOL0     C18991   8.730   4.766   3.100 -0.3873 -0.7544  0.1589
  882MOL0     C18992   8.710   4.804   3.235  0.6982 -0.0063 -0.3292
  882MOL0     O18993   8.589   4.838   3.286 -0.0817  0.2273  0.3146
  882MOL0     C18994   8.469   4.837   3.211  0.5263 -0.0966  0.0753
  882MOL0     C18995   8.349   4.868   3.291  0.4551  0.2778  0.4079
  882MOL0     C18996   8.357   5.006   3.359  0.3189  0.2343 -0.6299
  882MOL0     C18997   8.230   5.090   3.334 -0.0350 -0.2805  0.0569
  882MOL0     C18998   8.108   5.015   3.383 -0.5021 -0.4682  0.5297
  882MOL0     C18999   8.013   4.949   3.414  0.6363 -0.5250  0.8682
  882MOL0     C19000   8.820   4.823   3.323 -0.4686 -0.3206  0.4576
  882MOL0     C19001   8.948   4.807   3.275  0.2049  0.2963 -0.5834
  882MOL0     C19002   9.065   4.815   3.378 -0.0275  0.3062  0.1271
  882MOL0     H19003   9.312   4.928   2.982 -0.5089 -0.1987 -0.7352
  882MOL0     H19004   9.522   4.943   2.866 -1.0365  1.4472 -1.1331
  882MOL0     H19005   9.656   4.546   2.707  0.1279  0.1748  1.9109
  882MOL0     H19006   9.601   4.626   2.557  0.2319 -0.3417 -0.3488
  882MOL0     H19007   9.805   4.762   2.539 -3.5546 -0.9435 -2.2389
  882MOL0     H19008   9.841   4.592   2.523  3.3553  3.3388 -1.4730
  882MOL0     H19009   9.908   4.585   2.774 -1.5522  0.8291  0.5224
  882MOL0     H19010   9.907   4.759   2.770  0.6759  0.2087  1.0358
  882MOL0     H19011  10.047   4.622   2.545  1.0358 -0.9086  0.7189
  882MOL0     H19012  10.066   4.784   2.599  0.9519 -0.4997  0.0678
  882MOL0     H19013  10.258   4.661   2.676  0.3562  0.0997  0.1250
  882MOL0     H19014  10.177   4.722   2.816  0.4270 -0.2478 -0.8301
  882MOL0     H19015  10.240   4.511   2.873  1.4529 -4.2571 -1.1169
  882MOL0     H19016  10.078   4.473   2.843  3.0216 -2.2826  3.1068
  882MOL0     H19017  10.297   4.428   2.632  0.4204 -2.4177  0.8389
  882MOL0     H19018  10.130   4.370   2.629  1.0616  2.3720 -2.5123
  882MOL0     H19019  10.187   4.260   2.871 -1.8606  1.0190 -0.6781
  882MOL0     H19020  10.246   4.188   2.718  2.6973  2.0900 -1.7168
  882MOL0     H19021  10.488   4.171   2.645 -2.5294 -2.3243  0.0079
  882MOL0     H19022  10.785   4.279   2.728  0.3644  0.2298 -1.1588
  882MOL0     H19023  10.802   4.205   2.887 -1.8149  1.9371  0.7847
  882MOL0     H19024  10.712   4.046   2.635 -0.0696 -1.2630  0.5087
  882MOL0     H19025  10.877   4.070   2.679  0.9851  0.0131  1.5002
  882MOL0     H19026  10.656   3.945   2.873  1.3852  0.7309  2.4805
  882MOL0     H19027  10.824   3.944   2.894  0.6977 -3.1707  0.2263
  882MOL0     H19028  10.685   3.796   2.680 -1.6834 -0.7245  1.9441
  882MOL0     H19029  10.740   3.724   2.827 -2.0540  0.7501  0.0327
  882MOL0     H19030  11.157   3.773   2.647 -1.3715  1.4965 -1.9721
  882MOL0     H19031  11.269   3.570   2.539  1.1922 -1.7129  2.8543
  882MOL0     H19032  11.458   3.403   2.274  0.4028 -0.4941 -1.3247
  882MOL0     H19033  11.616   3.246   2.179  0.4219  0.1694  0.3785
  882MOL0     H19034  11.627   3.087   2.013  2.0102 -0.7890 -1.7998
  882MOL0     H19035  11.695   2.930   2.015  0.0437 -0.2640  1.4229
  882MOL0     H19036  11.493   2.818   2.031  0.5857  0.7537 -0.0687
  882MOL0     H19037  11.404   2.971   2.037  0.7886 -0.8474  2.1386
  882MOL0     H19038  11.481   3.022   1.783  0.7975 -0.8148 -1.5879
  882MOL0     H19039  11.566   2.873   1.786 -0.9157  1.6045 -1.1323
  882MOL0     H19040  11.324   2.772   1.856 -1.7395  0.1996 -0.5810
  882MOL0     H19041  11.381   2.786   1.689 -3.5725 -3.4139  1.9840
  882MOL0     H19042  11.281   3.008   1.678  1.6855  2.6665  2.0928
  882MOL0     H19043  11.235   2.995   1.853  2.3292 -2.1852  0.5064
  882MOL0     H19044  11.027   2.966   1.744  0.6874 -0.4795  2.5823
  882MOL0     H19045  11.100   2.888   1.602  0.2530 -1.7534 -0.1580
  882MOL0     H19046  11.055   2.755   1.877  1.0933  1.6087  0.8355
  882MOL0     H19047  11.150   2.700   1.728  1.0235  1.8318 -2.0051
  882MOL0     H19048  10.844   2.779   1.723  0.1095  0.4872 -1.5442
  882MOL0     H19049  10.938   2.727   1.588 -1.2784 -0.1460 -1.0119
  882MOL0     H19050  11.413   2.928   2.389  0.5263 -1.3117 -3.2330
  882MOL0     H19051  11.274   3.086   2.497 -1.0857 -2.0745 -1.9822
  882MOL0     H19052  10.882   3.403   2.478  0.7697 -1.1890  0.6830
  882MOL0     H19053  10.772   3.599   2.586  0.3410  0.1455 -1.1768
  882MOL0     H19054   9.425   4.582   2.660 -2.5284  0.8648 -0.4365
  882MOL0     H19055   9.202   4.604   2.740 -0.3830  0.9479 -0.0039
  882MOL0     H19056   8.862   4.734   2.951 -0.5588 -0.3781  0.4038
  882MOL0     H19057   8.646   4.750   3.033 -0.7069 -3.4584  1.0644
  882MOL0     H19058   8.455   4.744   3.155 -3.0160 -0.5995  1.5304
  882MOL0     H19059   8.477   4.919   3.139  0.5412  2.5981  2.9068
  882MOL0     H19060   8.324   4.794   3.368 -1.5118  1.1147  0.6256
  882MOL0     H19061   8.269   4.876   3.218  1.5781  2.1943 -0.7014
  882MOL0     H19062   8.436   5.069   3.318 -0.6555  1.7210 -0.3002
  882MOL0     H19063   8.387   4.991   3.463  0.3065  2.0276 -0.3461
  882MOL0     H19064   8.230   5.186   3.388 -0.6809  0.4514 -1.2037
  882MOL0     H19065   8.217   5.115   3.228  1.0757 -3.1862 -0.8584
  882MOL0     H19066   7.930   4.889   3.446 -0.1482  0.8058  1.4429
  882MOL0     H19067   8.805   4.871   3.419  2.1864  2.2917 -0.2862
  882MOL0     H19068   9.114   4.717   3.377 -1.0172 -0.1968 -0.6022
  882MOL0     H19069   9.138   4.892   3.352 -0.5286  1.0991  0.9678
  882MOL0     H19070   9.038   4.845   3.480 -3.5802  0.4939 -0.7350
  883MOL0     O19071   9.353  10.851   6.837  0.8602 -0.0984 -0.2643
  883MOL0     C19072   9.406  10.782   6.759 -0.8227  0.0112  1.0184
  883MOL0     O19073   9.379  10.651   6.733  0.4730  0.0610  0.2066
  883MOL0     C19074   9.250  10.613   6.761 -0.4481 -0.0409  0.6113
  883MOL0     C19075   9.212  10.595   6.894  0.3555 -1.3405 -0.7551
  883MOL0     C19076   9.090  10.538   6.933  0.5891 -0.1744  0.1339
  883MOL0     C19077   8.992  10.504   6.834 -0.0620 -0.0968 -0.6674
  883MOL0     O19078   8.861  10.476   6.853 -0.1723 -0.1626 -0.3008
  883MOL0     C19079   8.808  10.443   6.983 -0.8514 -0.0130 -0.2282
  883MOL0     C19080   8.655  10.436   6.971 -0.0759 -0.3270 -0.0657
  883MOL0     C19081   8.592  10.397   7.108  1.4292  0.7150 -0.1818
  883MOL0     C19082   8.452  10.329   7.095 -1.3730  0.0720  0.1080
  883MOL0     C19083   8.363  10.351   7.216  0.4037  0.0577 -0.0600
  883MOL0     C19084   8.285  10.225   7.262  0.4623  1.0170  0.2286
  883MOL0     C19085   8.384  10.116   7.305  0.0842  0.0812  0.2202
  883MOL0     C19086   8.310   9.998   7.378  1.0172 -0.5472 -0.5536
  883MOL0     N19087   8.229  10.047   7.501  0.3855  0.6042  0.1497
  883MOL0     C19088   8.279  10.094   7.618 -0.5582 -0.2722 -0.6359
  883MOL0     C19089   8.177  10.122   7.698 -1.3020  1.2795 -0.1452
  883MOL0     C19090   8.182  10.195   7.832 -0.0903  0.3404 -0.0772
  883MOL0     C19091   8.160  10.341   7.838 -0.8996 -0.2839  0.3249
  883MOL0     C19092   8.269  10.432   7.773  0.3974  0.9493  0.1596
  883MOL0     C19093   8.409  10.416   7.838 -0.0478 -0.8506 -0.3715
  883MOL0     O19094   8.487  10.304   7.793 -0.0856 -0.8060 -0.1434
  883MOL0     C19095   8.563  10.317   7.682  0.3304  0.2350  0.1972
  883MOL0     C19096   8.553  10.404   7.570  0.2707 -0.0597 -0.8321
  883MOL0     C19097   8.646  10.398   7.468  0.5409 -0.3290  0.6344
  883MOL0     C19098   8.769  10.330   7.484 -0.8231  0.4731 -0.3348
  883MOL0     C19099   8.880  10.348   7.386 -0.0270  0.4684  0.8402
  883MOL0     O19100   8.980  10.254   7.393  0.4884 -0.6983 -0.0591
  883MOL0     C19101   9.099  10.266   7.325  0.4525 -0.0035 -1.6240
  883MOL0     C19102   9.103  10.291   7.191  0.8691 -0.1208 -0.5613
  883MOL0     C19103   9.229  10.297   7.128  0.2100  0.4214 -0.2471
  883MOL0     C19104   9.348  10.268   7.200 -0.9350 -0.5913  0.6042
  883MOL0     O19105   9.475  10.264   7.138 -0.3066  0.1984 -0.5068
  883MOL0     C19106   9.509  10.374   7.045  0.4946  0.3656  0.5993
  883MOL0     C19107   9.535  10.504   7.123 -0.1374 -0.0002  0.1640
  883MOL0     C19108   9.620  10.592   7.038  0.8056  0.1125 -1.2636
  883MOL0     C19109   9.617  10.733   7.080  0.4159  0.5036  0.0150
  883MOL0     C19110   9.732  10.810   7.006 -0.1938 -0.3512  0.2035
  883MOL0     C19111   9.726  10.964   7.028 -0.0705 -0.0661 -0.0158
  883MOL0     C19112   9.864  11.029   6.977  0.4444 -0.2198 -0.3000
  883MOL0     C19113   9.871  11.182   7.005  0.2988  0.2227  0.2289
  883MOL0    Cl19114   9.994  11.227   6.878  0.2132 -0.3180 -0.5407
  883MOL0     C19115   9.333  10.237   7.336 -1.1280 -0.4437  0.4758
  883MOL0     C19116   9.212  10.254   7.400 -0.7880 -0.6548 -0.2516
  883MOL0     O19117   8.871  10.444   7.307  0.3060 -0.3591  0.5917
  883MOL0     C19118   8.779  10.242   7.601 -0.1876 -0.3244  0.4285
  883MOL0     C19119   8.673  10.232   7.685  0.2790  0.1074 -0.2800
  883MOL0     N19120   8.061  10.098   7.635  0.3671 -0.4475 -0.1915
  883MOL0     N19121   8.092  10.047   7.516  0.7477  0.7698  0.2594
  883MOL0     C19122   9.027  10.534   6.700  0.2358  0.0390 -0.1615
  883MOL0     C19123   9.152  10.579   6.660  0.1510 -0.7744 -1.0815
  883MOL0     C19124   9.522  10.850   6.688 -0.3848  0.2302  0.7847
  883MOL0     C19125   9.562  10.983   6.726 -0.2818  0.3097  0.1445
  883MOL0     C19126   9.664  11.057   6.669  0.5605  0.1766 -0.0966
  883MOL0     C19127   9.731  10.998   6.557 -0.4416 -0.1007 -0.4676
  883MOL0     O19128   9.830  11.052   6.483  0.5763 -0.4651  0.3977
  883MOL0     C19129   9.868  11.184   6.506 -0.9168 -0.0092 -0.2125
  883MOL0     C19130   9.961  11.233   6.393  0.0884 -0.8478 -0.4893
  883MOL0     C19131  10.088  11.154   6.374 -0.0083 -0.2233  0.6254
  883MOL0     C19132  10.168  11.221   6.265 -0.4564  0.2709 -0.4515
  883MOL0     C19133  10.283  11.138   6.245  0.1415  0.2818 -1.2215
  883MOL0     C19134  10.370  11.066   6.241 -0.3325  0.4465  0.1122
  883MOL0     C19135   9.708  10.866   6.529 -0.4778 -0.3019 -0.4866
  883MOL0     C19136   9.607  10.791   6.591  0.2355  0.4677 -0.1437
  883MOL0     C19137   9.604  10.641   6.567 -0.9612 -0.9875  0.2346
  883MOL0     H19138   9.287  10.630   6.964 -2.5431  2.0395  0.9752
  883MOL0     H19139   9.068  10.527   7.038 -0.3111  2.1152  0.2519
  883MOL0     H19140   8.858  10.348   7.005  0.3907  0.3960 -1.1348
  883MOL0     H19141   8.835  10.519   7.057  0.7654 -0.3603 -0.4234
  883MOL0     H19142   8.621  10.367   6.894 -2.4684 -0.8144  1.3314
  883MOL0     H19143   8.613  10.533   6.942  0.1928 -0.0887  0.3233
  883MOL0     H19144   8.580  10.491   7.163 -0.7139 -0.2877  1.2587
  883MOL0     H19145   8.656  10.337   7.174  1.4128  1.0673  0.1587
  883MOL0     H19146   8.404  10.368   7.005  0.2681  2.2155  0.0669
  883MOL0     H19147   8.469  10.221   7.087 -1.6360 -0.1283  1.8156
  883MOL0     H19148   8.415  10.380   7.308 -1.9021  0.0817  1.3092
  883MOL0     H19149   8.289  10.425   7.189 -2.2186 -1.3190  2.7063
  883MOL0     H19150   8.229  10.251   7.352  0.9246  0.1285  0.7852
  883MOL0     H19151   8.218  10.185   7.186  2.2724 -2.7569  0.4214
  883MOL0     H19152   8.471  10.162   7.353 -0.5176  1.3271  0.1486
  883MOL0     H19153   8.414  10.062   7.214 -2.2752 -1.6432  0.3775
  883MOL0     H19154   8.250   9.941   7.307  0.9999  0.2209 -1.1642
  883MOL0     H19155   8.386   9.924   7.405  0.2999 -1.1156 -0.0505
  883MOL0     H19156   8.386  10.104   7.628 -0.3071 -3.1171  0.4719
  883MOL0     H19157   8.101  10.171   7.901  1.9361  0.1877  2.4314
  883MOL0     H19158   8.274  10.167   7.885  0.0057 -2.0653 -1.3586
  883MOL0     H19159   8.066  10.363   7.786  0.6286 -1.6560 -3.3307
  883MOL0     H19160   8.146  10.370   7.942 -3.0968 -1.1398  0.3140
  883MOL0     H19161   8.242  10.537   7.783 -1.0267  0.4646  1.7771
  883MOL0     H19162   8.277  10.392   7.671  0.1822 -2.2561  1.2919
  883MOL0     H19163   8.419  10.433   7.945  2.4616 -0.7468 -0.5596
  883MOL0     H19164   8.455  10.512   7.813 -3.6588  1.5639  1.4075
  883MOL0     H19165   8.475  10.478   7.559  2.3598  2.2387 -1.1673
  883MOL0     H19166   8.635  10.477   7.395 -1.7219 -3.1587 -2.3616
  883MOL0     H19167   9.010  10.323   7.145  1.2256  2.2505  0.2304
  883MOL0     H19168   9.238  10.310   7.021  0.2398 -0.6940 -0.3933
  883MOL0     H19169   9.597  10.343   6.988  0.6953  0.0976  1.0485
  883MOL0     H19170   9.429  10.377   6.970  0.7142  1.7525  0.3961
  883MOL0     H19171   9.438  10.547   7.149 -1.0181 -1.9909  0.3876
  883MOL0     H19172   9.591  10.480   7.214 -1.8082  0.3028  1.3268
  883MOL0     H19173   9.721  10.552   7.049  0.2332 -1.2666 -0.7340
  883MOL0     H19174   9.588  10.583   6.933 -0.5234 -0.7219 -0.8215
  883MOL0     H19175   9.622  10.742   7.189  2.4118  0.3498 -0.0353
  883MOL0     H19176   9.521  10.778   7.054  0.1451 -0.1116 -0.0601
  883MOL0     H19177   9.723  10.785   6.900  1.9817  0.1506 -0.1464
  883MOL0     H19178   9.832  10.772   7.029  0.5378  1.0942 -0.4533
  883MOL0     H19179   9.645  11.018   6.978  2.6921  3.7461 -0.8621
  883MOL0     H19180   9.704  10.984   7.133 -0.5211 -1.2973  0.1449
  883MOL0     H19181   9.879  11.013   6.870  2.2117  1.3550 -0.3470
  883MOL0     H19182   9.942  10.973   7.029 -1.8515 -0.7218  2.9384
  883MOL0     H19183   9.777  11.236   6.988  1.2526  1.6713 -0.7037
  883MOL0     H19184   9.905  11.198   7.107 -0.9307  2.8870  0.2949
  883MOL0     H19185   9.415  10.188   7.389 -0.8034  0.2591  0.6292
  883MOL0     H19186   9.205  10.219   7.502 -2.7783  1.1089  0.3073
  883MOL0     H19187   8.872  10.187   7.610 -0.1122 -0.9035 -2.7369
  883MOL0     H19188   8.675  10.174   7.777  0.0395  1.6438  0.7196
  883MOL0     H19189   8.943  10.493   6.645  0.5175 -1.0895  0.2226
  883MOL0     H19190   9.171  10.576   6.554 -1.2669  0.5335 -1.4084
  883MOL0     H19191   9.504  11.026   6.807  2.2925 -0.4190  2.5360
  883MOL0     H19192   9.685  11.158   6.702 -1.1735  1.4367 -2.4932
  883MOL0     H19193   9.923  11.195   6.600 -3.7202  0.3707  1.5009
  883MOL0     H19194   9.778  11.245   6.515  0.1109  1.5052  0.0986
  883MOL0     H19195   9.996  11.334   6.415  0.4299 -1.3526  1.4436
  883MOL0     H19196   9.906  11.238   6.299 -1.1454  4.3890  0.1906
  883MOL0     H19197  10.064  11.052   6.344  1.4304 -0.5419  0.4768
  883MOL0     H19198  10.148  11.148   6.465  1.4076  2.1288 -0.0497
  883MOL0     H19199  10.121  11.215   6.167 -0.4167  1.8153 -0.5890
  883MOL0     H19200  10.192  11.325   6.289 -1.2103  0.0345  1.5254
  883MOL0     H19201  10.459  11.008   6.225 -1.2225 -0.7604 -0.6616
  883MOL0     H19202   9.785  10.826   6.464  1.0516 -2.8062  2.5951
  883MOL0     H19203   9.629  10.574   6.650  1.6728 -1.1168 -0.5793
  883MOL0     H19204   9.509  10.615   6.518 -0.7608  1.1657 -1.4282
  883MOL0     H19205   9.682  10.616   6.495  0.1187  3.4114 -0.3750
  884MOL0     O19206   6.711   7.762   9.522  0.1472 -0.5913  0.3107
  884MOL0     C19207   6.704   7.802   9.636  0.6675 -1.0521 -0.4840
  884MOL0     O19208   6.798   7.777   9.731 -0.4465 -1.4241 -0.2657
  884MOL0     C19209   6.923   7.747   9.691 -0.0967 -0.3870  0.3446
  884MOL0     C19210   6.957   7.610   9.667 -0.5562  0.5070  0.0880
  884MOL0     C19211   7.079   7.580   9.613  0.0045 -0.8379  0.5915
  884MOL0     C19212   7.179   7.673   9.614 -0.6475  0.3268 -0.0797
  884MOL0     O19213   7.299   7.626   9.565  0.5143  0.0016 -0.3539
  884MOL0     C19214   7.412   7.687   9.630 -0.4337  0.7070  0.6522
  884MOL0     C19215   7.527   7.575   9.633  1.3475  0.6198  0.1486
  884MOL0     C19216   7.547   7.497   9.497  0.8777  0.2272  0.4653
  884MOL0     C19217   7.699   7.467   9.485 -0.2331  0.3962 -0.7742
  884MOL0     C19218   7.717   7.362   9.374 -0.4793  0.1783 -0.3769
  884MOL0     C19219   7.862   7.333   9.327 -0.1414 -0.1881 -0.0036
  884MOL0     C19220   7.888   7.204   9.238 -0.4336  0.5313 -0.4485
  884MOL0     C19221   7.816   7.193   9.114  0.2749 -0.0629  0.8822
  884MOL0     N19222   7.825   7.315   9.037 -0.5986 -0.2121  0.1753
  884MOL0     C19223   7.732   7.418   9.023 -0.8742 -0.2451  0.8128
  884MOL0     C19224   7.806   7.529   9.006 -0.3375 -0.1457  0.0333
  884MOL0     C19225   7.750   7.661   8.959  0.6497 -0.9149  0.3876
  884MOL0     C19226   7.605   7.697   9.011  0.0643  0.2960  0.9964
  884MOL0     C19227   7.591   7.735   9.165 -0.4865  0.2466 -0.4374
  884MOL0     C19228   7.434   7.744   9.191  0.1926 -0.6305  0.1140
  884MOL0     O19229   7.352   7.625   9.170  0.3800 -0.8138  0.6506
  884MOL0     C19230   7.216   7.645   9.149  0.5326  0.2004  0.2124
  884MOL0     C19231   7.134   7.670   9.263 -0.3715  0.3563 -0.2123
  884MOL0     C19232   6.996   7.720   9.232  0.4022  0.2910  0.5738
  884MOL0     C19233   6.970   7.776   9.102 -0.6970  0.3352  0.2611
  884MOL0     C19234   6.842   7.849   9.067 -0.1546  0.1259  0.6504
  884MOL0     O19235   6.756   7.892   9.167 -0.4102 -0.2138  0.5487
  884MOL0     C19236   6.632   7.928   9.132  0.1946  0.0211 -0.6838
  884MOL0     C19237   6.538   7.828   9.096 -0.1326 -0.7360 -0.1597
  884MOL0     C19238   6.395   7.860   9.108 -0.4169 -0.1423  0.1366
  884MOL0     C19239   6.361   7.989   9.157 -0.0422  0.3842 -0.1748
  884MOL0     O19240   6.233   8.028   9.182 -0.0269 -0.2421 -0.1037
  884MOL0     C19241   6.130   7.957   9.120 -0.2295 -0.2032  0.6097
  884MOL0     C19242   5.985   8.022   9.124  0.2818 -0.3129 -0.5886
  884MOL0     C19243   5.966   8.110   9.006  0.1319  0.4640  0.7703
  884MOL0     C19244   5.847   8.192   9.034  0.3686  0.7698 -0.0651
  884MOL0     C19245   5.796   8.252   8.901  1.3665 -0.8440  0.3479
  884MOL0     C19246   5.665   8.341   8.908  0.4245 -0.9967  0.0754
  884MOL0     C19247   5.604   8.356   8.772 -0.5088  0.2914 -0.6998
  884MOL0     C19248   5.494   8.462   8.772 -0.0394 -0.0592 -0.0976
  884MOL0    Cl19249   5.379   8.459   8.901 -0.3985  0.0226 -0.1819
  884MOL0     C19250   6.457   8.077   9.200 -0.3923  0.3657 -0.3266
  884MOL0     C19251   6.594   8.048   9.190  1.4047  0.3827  0.1088
  884MOL0     O19252   6.822   7.870   8.949  0.0584 -0.0270  0.7018
  884MOL0     C19253   7.052   7.737   8.995 -0.6918 -0.0663  0.3898
  884MOL0     C19254   7.174   7.678   9.019 -0.2719 -0.0422  0.6974
  884MOL0     N19255   7.937   7.491   8.973 -0.3716 -0.0104 -0.0057
  884MOL0     N19256   7.944   7.361   8.991 -0.5288  0.6897  0.1323
  884MOL0     C19257   7.160   7.804   9.644  0.9622 -0.0263 -0.3823
  884MOL0     C19258   7.028   7.844   9.679  0.2328  0.6263  0.4682
  884MOL0     C19259   6.585   7.884   9.683 -0.1462 -0.3202  0.3882
  884MOL0     C19260   6.591   7.945   9.816 -0.0267  0.2206  0.0021
  884MOL0     C19261   6.479   8.012   9.870  0.8522 -0.5000 -0.0316
  884MOL0     C19262   6.372   8.030   9.785 -0.0792 -1.0481 -0.6503
  884MOL0     O19263   6.266   8.116   9.813 -0.3527 -0.2756  0.2498
  884MOL0     C19264   6.147   8.046   9.828 -0.2187  0.5808 -1.1460
  884MOL0     C19265   6.028   8.096   9.744 -0.1153 -0.0359 -0.7498
  884MOL0     C19266   5.899   8.027   9.783  0.4698  0.3924 -0.0362
  884MOL0     C19267   5.806   8.027   9.664 -0.6867  1.2057  0.8385
  884MOL0     C19268   5.833   7.912   9.569  0.1614  0.0586  0.2919
  884MOL0     C19269   5.870   7.820   9.500 -0.0040 -0.4571 -0.0564
  884MOL0     C19270   6.379   7.992   9.653  0.0480 -0.0981  0.7679
  884MOL0     C19271   6.474   7.909   9.609  1.1857  0.1568  0.1803
  884MOL0     C19272   6.455   7.851   9.475 -0.0076  0.0332 -0.8352
  884MOL0     H19273   6.884   7.530   9.678  1.5684 -1.5186  0.2762
  884MOL0     H19274   7.101   7.476   9.591 -1.1399 -0.9253 -0.2452
  884MOL0     H19275   7.444   7.772   9.569 -3.3595  1.1082 -0.5000
  884MOL0     H19276   7.395   7.733   9.728  0.2979 -0.4236  1.3394
  884MOL0     H19277   7.497   7.496   9.702 -0.2660  0.1105 -1.0667
  884MOL0     H19278   7.614   7.631   9.669 -0.2366  1.8724  2.2223
  884MOL0     H19279   7.517   7.558   9.411  2.7734  0.7553  0.1221
  884MOL0     H19280   7.491   7.404   9.503  3.4810 -1.4366  0.8224
  884MOL0     H19281   7.768   7.548   9.461 -0.0430 -0.2131 -2.4732
  884MOL0     H19282   7.735   7.420   9.576  0.4555 -1.0066 -1.7235
  884MOL0     H19283   7.674   7.263   9.394  1.1137 -1.0617 -2.5914
  884MOL0     H19284   7.659   7.389   9.285 -0.3319 -0.3663 -0.6452
  884MOL0     H19285   7.896   7.420   9.270 -2.4739  1.3030  0.7221
  884MOL0     H19286   7.926   7.323   9.416 -0.8480  2.4781  0.8934
  884MOL0     H19287   7.851   7.129   9.308  0.2539 -1.1018 -1.7411
  884MOL0     H19288   7.995   7.180   9.231 -0.3420  1.2082 -1.4845
  884MOL0     H19289   7.851   7.110   9.052 -0.2504  0.7341 -0.5359
  884MOL0     H19290   7.709   7.176   9.126  0.4083 -0.1942  1.9352
  884MOL0     H19291   7.624   7.405   9.023 -0.9066 -0.0058  0.5167
  884MOL0     H19292   7.820   7.735   8.998  1.1455 -1.3492  0.3247
  884MOL0     H19293   7.757   7.659   8.849  1.7911 -2.6241  0.4537
  884MOL0     H19294   7.561   7.776   8.949  2.4600  0.5620 -0.5084
  884MOL0     H19295   7.546   7.609   8.985  0.7874  0.2920 -0.8093
  884MOL0     H19296   7.645   7.829   9.180 -0.1632  0.1112 -0.7374
  884MOL0     H19297   7.631   7.658   9.232  0.0294  0.0417 -0.9760
  884MOL0     H19298   7.398   7.827   9.129  3.3087  0.5247 -0.3038
  884MOL0     H19299   7.415   7.779   9.293  0.7776 -1.7523  0.6191
  884MOL0     H19300   7.163   7.643   9.364  0.0955  2.3912  0.2453
  884MOL0     H19301   6.926   7.725   9.315  1.0024 -1.8268  1.2799
  884MOL0     H19302   6.567   7.730   9.058  1.1767  0.1976 -1.7485
  884MOL0     H19303   6.324   7.784   9.075 -0.7063  0.7704 -1.4382
  884MOL0     H19304   6.158   7.937   9.016  0.9593 -1.3231  1.1178
  884MOL0     H19305   6.123   7.860   9.169 -1.2287 -0.7751 -0.5989
  884MOL0     H19306   5.917   7.937   9.110  2.6000 -2.2693 -0.7710
  884MOL0     H19307   5.968   8.078   9.216  4.3006 -0.5401  0.5184
  884MOL0     H19308   6.053   8.170   8.979  0.3641 -1.1643 -2.5979
  884MOL0     H19309   5.944   8.044   8.922  0.2871  0.6994  0.5464
  884MOL0     H19310   5.870   8.261   9.116  1.2121 -0.2624  0.6039
  884MOL0     H19311   5.770   8.129   9.079  0.6780 -0.0946 -0.7178
  884MOL0     H19312   5.777   8.175   8.826  0.9358  1.8720 -2.5373
  884MOL0     H19313   5.869   8.318   8.855 -0.6332  0.7390 -0.7520
  884MOL0     H19314   5.586   8.297   8.970 -1.1047 -2.1084 -2.4999
  884MOL0     H19315   5.682   8.442   8.946 -0.2999 -1.0470  0.5698
  884MOL0     H19316   5.563   8.258   8.743  0.5150  0.3326 -2.4262
  884MOL0     H19317   5.678   8.376   8.694 -1.3147 -0.7921 -1.7922
  884MOL0     H19318   5.533   8.564   8.765 -0.2902  0.0786  0.4474
  884MOL0     H19319   5.426   8.442   8.689 -0.3003  0.2112  0.0495
  884MOL0     H19320   6.433   8.174   9.242  2.3046  1.0341 -0.1481
  884MOL0     H19321   6.671   8.116   9.222  0.4228  0.2433  3.0812
  884MOL0     H19322   7.022   7.757   8.892  0.9137  2.0466  0.2572
  884MOL0     H19323   7.241   7.658   8.936 -0.6598  0.0431  0.3608
  884MOL0     H19324   7.229   7.885   9.621  1.0967 -0.4700 -1.6459
  884MOL0     H19325   6.999   7.948   9.683  0.3444  0.6410  1.0829
  884MOL0     H19326   6.676   7.923   9.880  0.8257 -3.0872 -2.0487
  884MOL0     H19327   6.477   8.049   9.972  1.2911 -0.2142 -0.1272
  884MOL0     H19328   6.130   8.072   9.933  0.0566 -0.2711 -0.8750
  884MOL0     H19329   6.162   7.938   9.821 -3.9386 -0.2006  0.3787
  884MOL0     H19330   6.050   8.080   9.638 -1.6478 -0.4735 -1.0196
  884MOL0     H19331   6.004   8.198   9.773  1.4944  0.1176  0.1362
  884MOL0     H19332   5.853   8.085   9.864 -1.2899 -1.7771  0.5997
  884MOL0     H19333   5.909   7.923   9.814 -1.1951  0.1371 -0.2824
  884MOL0     H19334   5.703   8.016   9.699 -0.6037  1.4885  1.1757
  884MOL0     H19335   5.822   8.119   9.607  1.0536  0.7788  0.5879
  884MOL0     H19336   5.906   7.740   9.439 -2.8088 -1.0086 -1.1292
  884MOL0     H19337   6.293   8.008   9.589 -1.0509  1.2668  2.4911
  884MOL0     H19338   6.536   7.873   9.404 -0.2018 -1.6329 -1.5977
  884MOL0     H19339   6.454   7.743   9.487 -1.4615  0.1473  0.3247
  884MOL0     H19340   6.358   7.875   9.431 -0.2320 -1.4700 -1.2023
  885MOL0     O19341  11.186  10.265   5.444 -0.1589 -0.1754 -0.2003
  885MOL0     C19342  11.235  10.352   5.371 -0.1161 -0.8715 -0.2646
  885MOL0     O19343  11.164  10.422   5.265  0.3329 -0.3447 -0.8409
  885MOL0     C19344  11.023  10.429   5.277  0.3614 -0.2003  0.9565
  885MOL0     C19345  10.949  10.346   5.185 -0.6511 -0.2364 -0.4796
  885MOL0     C19346  10.806  10.338   5.202 -1.1948 -0.1559  0.0231
  885MOL0     C19347  10.739  10.403   5.301  0.0602 -0.1586  0.0294
  885MOL0     O19348  10.602  10.383   5.317  0.4864  0.3693 -0.0866
  885MOL0     C19349  10.523  10.481   5.388 -1.1719 -0.2468 -0.0409
  885MOL0     C19350  10.376  10.453   5.393 -0.4157  0.2978 -0.4724
  885MOL0     C19351  10.301  10.556   5.475 -0.7410  0.3637 -0.2414
  885MOL0     C19352  10.153  10.529   5.465  0.8166 -0.7098  0.8404
  885MOL0     C19353  10.067  10.556   5.595 -0.0854 -0.0024 -0.1469
  885MOL0     C19354   9.915  10.511   5.561  0.7798 -0.3671 -0.0955
  885MOL0     C19355   9.839  10.616   5.477 -0.7037  0.2766  0.4175
  885MOL0     C19356   9.742  10.571   5.371 -0.0375 -0.7995  0.6993
  885MOL0     N19357   9.611  10.527   5.427 -0.3744 -0.2558  0.6272
  885MOL0     C19358   9.554  10.575   5.545  0.1695 -0.1174  0.9969
  885MOL0     C19359   9.447  10.506   5.565  0.6731  0.4051 -0.1136
  885MOL0     C19360   9.348  10.517   5.684  0.0783 -0.0874  0.2778
  885MOL0     C19361   9.376  10.409   5.791  0.4768 -0.9428  0.5047
  885MOL0     C19362   9.417  10.275   5.732  0.5802 -0.8824 -0.4040
  885MOL0     C19363   9.433  10.159   5.838 -0.5913 -0.9936  0.0947
  885MOL0     O19364   9.519  10.198   5.952  0.8124  0.5273 -0.9482
  885MOL0     C19365   9.650  10.229   5.946 -0.7071 -0.3266 -0.1556
  885MOL0     C19366   9.733  10.233   5.830  0.0614  0.2366 -0.1123
  885MOL0     C19367   9.866  10.254   5.853 -0.5952  0.4836  0.2373
  885MOL0     C19368   9.918  10.291   5.974 -0.2367  0.2190 -0.6377
  885MOL0     C19369  10.065  10.297   5.993 -0.5059 -0.3907 -0.1715
  885MOL0     O19370  10.151  10.251   5.899 -0.5390 -0.7418  1.0435
  885MOL0     C19371  10.283  10.280   5.877 -0.0229 -0.2328 -0.0293
  885MOL0     C19372  10.369  10.323   5.981 -0.0909 -0.3568 -0.0352
  885MOL0     C19373  10.503  10.330   5.956 -0.2811  0.6297  0.0770
  885MOL0     C19374  10.563  10.298   5.829  0.0233 -0.2045  0.7236
  885MOL0     O19375  10.696  10.309   5.818 -0.0901  0.3188 -0.2525
  885MOL0     C19376  10.756  10.256   5.700 -0.2887 -0.5051 -0.5926
  885MOL0     C19377  10.911  10.241   5.709 -0.5806  0.1849 -0.3688
  885MOL0     C19378  10.974  10.374   5.701 -0.9588 -0.7621 -0.1952
  885MOL0     C19379  11.000  10.444   5.839  0.0478 -0.4820 -0.0931
  885MOL0     C19380  11.061  10.580   5.833 -0.3807  0.3278  0.3676
  885MOL0     C19381  11.113  10.629   5.965 -0.8009  0.4218 -0.8550
  885MOL0     C19382  11.002  10.652   6.066  0.6211 -1.2825  0.0297
  885MOL0     C19383  11.032  10.760   6.170 -0.3739 -0.0844  0.2098
  885MOL0    Cl19384  11.197  10.731   6.256 -0.1898 -0.0438 -0.3788
  885MOL0     C19385  10.474  10.271   5.726  0.2486  0.6267 -0.3212
  885MOL0     C19386  10.340  10.271   5.749 -0.6175  0.5124  0.8675
  885MOL0     O19387  10.102  10.358   6.096 -0.1787 -0.0633  0.0213
  885MOL0     C19388   9.826  10.299   6.080  0.1465  0.5022 -0.3256
  885MOL0     C19389   9.697  10.265   6.066  0.2564  0.7171  0.2837
  885MOL0     N19390   9.425  10.418   5.456 -0.0693  0.4146  0.3829
  885MOL0     N19391   9.527  10.433   5.377 -0.2200  0.1468  0.0285
  885MOL0     C19392  10.818  10.500   5.375  0.2461  0.0758  0.9235
  885MOL0     C19393  10.957  10.511   5.370  0.0966 -0.2203 -0.1690
  885MOL0     C19394  11.382  10.377   5.377 -0.1666  0.6563 -0.0786
  885MOL0     C19395  11.466  10.265   5.394  0.2741  0.1015  0.1485
  885MOL0     C19396  11.609  10.269   5.407  0.0739  0.7224  0.6326
  885MOL0     C19397  11.664  10.398   5.412 -1.2058 -0.1538  0.6542
  885MOL0     O19398  11.792  10.394   5.455  1.0894 -0.0345 -0.5907
  885MOL0     C19399  11.880  10.499   5.409  0.2498 -0.7180 -1.0018
  885MOL0     C19400  11.987  10.459   5.315  0.6795  0.5806  0.6708
  885MOL0     C19401  11.933  10.431   5.173 -0.1921  0.1481  0.2626
  885MOL0     C19402  11.866  10.552   5.101 -0.4724  0.1963  0.6894
  885MOL0     C19403  11.957  10.672   5.084 -0.0548 -0.2989  0.5701
  885MOL0     C19404  12.027  10.779   5.073  0.2658  0.6068  0.0067
  885MOL0     C19405  11.585  10.511   5.419 -0.1954 -0.7797  0.3906
  885MOL0     C19406  11.450  10.507   5.392  0.4553  1.0147 -0.1685
  885MOL0     C19407  11.363  10.625   5.388  0.7592 -0.4147  0.2724
  885MOL0     H19408  11.001  10.287   5.110 -0.0184 -0.2104 -0.0673
  885MOL0     H19409  10.753  10.276   5.130 -0.9033  0.5001 -0.7690
  885MOL0     H19410  10.558  10.485   5.491  2.2619 -0.1774 -1.0826
  885MOL0     H19411  10.540  10.576   5.336  2.0692 -1.4453 -1.4120
  885MOL0     H19412  10.365  10.351   5.430 -1.3056  0.9920  1.2746
  885MOL0     H19413  10.330  10.459   5.294  0.6566 -2.0265 -1.1873
  885MOL0     H19414  10.325  10.660   5.449  0.0450  0.3167  0.2550
  885MOL0     H19415  10.324  10.549   5.582 -1.8281 -1.6184 -0.0832
  885MOL0     H19416  10.117  10.586   5.379  0.8497 -0.2089  1.1519
  885MOL0     H19417  10.141  10.426   5.431 -0.5384 -0.6343  1.0345
  885MOL0     H19418  10.107  10.490   5.672 -3.8140 -3.7995 -1.1093
  885MOL0     H19419  10.074  10.660   5.629 -1.2182 -1.1337  4.1202
  885MOL0     H19420   9.917  10.412   5.513  1.7233 -0.4745  0.1624
  885MOL0     H19421   9.862  10.501   5.656  1.6504  1.6229  0.6425
  885MOL0     H19422   9.923  10.673   5.436  2.3284 -3.0165  1.5735
  885MOL0     H19423   9.794  10.688   5.546 -2.1816  0.0587 -0.2868
  885MOL0     H19424   9.715  10.655   5.306 -0.4593 -0.8161  0.8512
  885MOL0     H19425   9.790  10.492   5.312  1.3643  0.0783  0.6172
  885MOL0     H19426   9.595  10.645   5.618 -1.6367  0.0721  1.8783
  885MOL0     H19427   9.356  10.618   5.726  1.0887  0.7531 -1.8226
  885MOL0     H19428   9.246  10.509   5.644 -0.7638  0.7152  2.1542
  885MOL0     H19429   9.456  10.438   5.859 -0.4889  2.8107  0.2555
  885MOL0     H19430   9.281  10.393   5.844 -0.2786  1.8215  0.1449
  885MOL0     H19431   9.514  10.291   5.685  0.1556  0.8394 -0.7889
  885MOL0     H19432   9.345  10.236   5.659  0.4330 -0.1088 -0.6888
  885MOL0     H19433   9.484  10.082   5.780 -2.5853 -0.7740 -2.0882
  885MOL0     H19434   9.337  10.119   5.870 -1.1744  1.5587  1.9233
  885MOL0     H19435   9.687  10.206   5.735  0.3589  0.4996 -0.3348
  885MOL0     H19436   9.933  10.242   5.769  1.3847  1.4577  1.5911
  885MOL0     H19437  10.347  10.321   6.087 -2.3069  1.3981 -0.3819
  885MOL0     H19438  10.568  10.352   6.040  1.2841  0.7240 -1.1155
  885MOL0     H19439  10.723  10.154   5.679  1.5849 -1.3375  0.2482
  885MOL0     H19440  10.725  10.305   5.607  0.4417  2.0811  0.4359
  885MOL0     H19441  10.949  10.192   5.799  1.8529 -2.4090 -2.6008
  885MOL0     H19442  10.946  10.178   5.627  1.2776  1.8553 -0.9545
  885MOL0     H19443  11.074  10.372   5.655  1.1954 -1.1228  3.9742
  885MOL0     H19444  10.914  10.444   5.642 -1.6806 -1.4308 -0.2687
  885MOL0     H19445  11.072  10.384   5.895  1.2194  1.0946  0.1495
  885MOL0     H19446  10.903  10.459   5.887 -0.0847  1.0674 -0.7805
  885MOL0     H19447  10.993  10.646   5.778 -2.1008 -3.4804 -2.5470
  885MOL0     H19448  11.154  10.575   5.776 -0.8847  0.8208 -0.5228
  885MOL0     H19449  11.185  10.559   6.008 -1.3363 -0.2122 -0.9876
  885MOL0     H19450  11.167  10.723   5.951 -2.3179  2.0422  2.7769
  885MOL0     H19451  10.969  10.558   6.110 -0.7884 -1.6533 -1.7293
  885MOL0     H19452  10.911  10.682   6.013 -0.2561 -0.8637  1.6815
  885MOL0     H19453  11.033  10.860   6.124 -1.0626 -0.8400 -1.5407
  885MOL0     H19454  10.954  10.769   6.246 -0.7848  2.2814 -0.3820
  885MOL0     H19455  10.512  10.258   5.625 -0.1290 -0.2763 -0.3515
  885MOL0     H19456  10.266  10.251   5.672  1.7984  0.9248 -1.7141
  885MOL0     H19457   9.853  10.328   6.181 -2.8135 -0.6077  0.9065
  885MOL0     H19458   9.635  10.265   6.155  0.4700  0.1550  0.4348
  885MOL0     H19459  10.767  10.561   5.450  0.1146 -2.6331  3.1916
  885MOL0     H19460  11.029  10.568   5.427 -1.0796 -2.0617  3.4835
  885MOL0     H19461  11.425  10.165   5.402  2.1686 -0.7478 -0.0544
  885MOL0     H19462  11.680  10.189   5.425 -0.9099 -0.0352  1.2258
  885MOL0     H19463  11.935  10.544   5.492  0.6863 -0.6704 -1.3146
  885MOL0     H19464  11.834  10.589   5.366  1.2967  0.5545  0.4265
  885MOL0     H19465  12.051  10.378   5.349  2.2997  0.7825 -1.6235
  885MOL0     H19466  12.053  10.546   5.307  0.6970  0.3979 -2.3176
  885MOL0     H19467  11.850  10.359   5.176  1.9294 -2.4300  0.8386
  885MOL0     H19468  12.007  10.377   5.113 -0.5293  0.8179 -0.7866
  885MOL0     H19469  11.827  10.519   5.004 -0.0881  0.5499  0.4119
  885MOL0     H19470  11.786  10.601   5.156 -0.9791  1.3674 -1.0015
  885MOL0     H19471  12.088  10.867   5.066  1.9381 -0.6089 -1.8280
  885MOL0     H19472  11.634  10.602   5.454  0.9536 -0.8555 -0.9306
  885MOL0     H19473  11.305  10.618   5.296  1.1390 -0.7370  0.0559
  885MOL0     H19474  11.302  10.627   5.479  1.0940 -3.9213  0.7401
  885MOL0     H19475  11.417  10.719   5.397 -0.6107  0.3087  1.2837
  886MOL0     O19476   2.702   7.568   2.736 -0.2384 -0.0632 -0.4004
  886MOL0     C19477   2.670   7.510   2.837  0.2065 -0.0197  0.5593
  886MOL0     O19478   2.748   7.496   2.950  0.3029  0.2544 -0.7565
  886MOL0     C19479   2.868   7.572   2.963 -0.2034 -0.3020 -0.2641
  886MOL0     C19480   2.983   7.531   2.892  0.3599  0.7823 -0.6760
  886MOL0     C19481   3.093   7.608   2.876 -0.4644 -0.4253  0.1364
  886MOL0     C19482   3.084   7.745   2.913  0.0964  0.4131 -0.9853
  886MOL0     O19483   3.178   7.839   2.895  0.4742  0.6955 -0.1588
  886MOL0     C19484   3.237   7.829   2.770  0.1131  0.4332 -0.3222
  886MOL0     C19485   3.311   7.959   2.725  0.7779 -0.5664 -0.7674
  886MOL0     C19486   3.406   8.011   2.838  0.4175  0.3833  0.2781
  886MOL0     C19487   3.526   8.077   2.778  0.1243  0.2150  0.9840
  886MOL0     C19488   3.624   8.114   2.897 -0.5961  0.1952 -0.7746
  886MOL0     C19489   3.749   8.165   2.830 -0.2696  0.0583  0.5981
  886MOL0     C19490   3.849   8.230   2.926 -0.4597  0.1664  0.6812
  886MOL0     C19491   3.889   8.132   3.033  0.5320  0.2304  0.5827
  886MOL0     N19492   4.006   8.194   3.103 -0.0334  0.1229 -0.2880
  886MOL0     C19493   4.133   8.217   3.048  0.2430  0.9928  0.0554
  886MOL0     C19494   4.199   8.284   3.137 -0.5657 -0.2755  0.2942
  886MOL0     C19495   4.332   8.356   3.115 -0.3508 -0.1217 -0.5675
  886MOL0     C19496   4.320   8.504   3.147 -0.2135 -0.1215 -0.1500
  886MOL0     C19497   4.266   8.573   3.024 -0.9734  0.4600 -0.3452
  886MOL0     C19498   4.366   8.582   2.908 -0.7848  0.3699  0.5664
  886MOL0     O19499   4.452   8.697   2.931  0.1122 -0.1710 -0.3408
  886MOL0     C19500   4.582   8.668   2.951 -0.0582 -0.6089  0.0784
  886MOL0     C19501   4.661   8.604   2.854  0.4992  0.0333  0.7266
  886MOL0     C19502   4.799   8.589   2.868 -0.0692  0.1118  0.4944
  886MOL0     C19503   4.865   8.637   2.977  0.4734 -0.2505 -1.2565
  886MOL0     C19504   5.016   8.619   2.980 -0.2334  0.1260 -0.0867
  886MOL0     O19505   5.071   8.535   2.885 -0.0405 -0.9185 -0.6633
  886MOL0     C19506   5.210   8.518   2.881  0.6287  0.3988 -1.2773
  886MOL0     C19507   5.289   8.484   2.996  0.2268  0.3158  0.6085
  886MOL0     C19508   5.427   8.462   2.994 -1.0685 -0.1681  0.3191
  886MOL0     C19509   5.492   8.467   2.865 -0.3340  0.5196 -0.7139
  886MOL0     O19510   5.621   8.431   2.861  0.0128 -0.0040 -0.0123
  886MOL0     C19511   5.717   8.537   2.889 -0.4316  0.4545  0.6293
  886MOL0     C19512   5.762   8.616   2.768 -0.4467  0.2806  0.4401
  886MOL0     C19513   5.829   8.523   2.666  0.2450 -1.2083  1.0250
  886MOL0     C19514   5.970   8.498   2.705  0.4979  0.8086 -0.4308
  886MOL0     C19515   6.048   8.426   2.585 -0.9845  0.3260  1.0993
  886MOL0     C19516   6.200   8.395   2.616  0.0201 -0.3464 -0.3370
  886MOL0     C19517   6.280   8.519   2.592  0.2160  0.3412  0.1030
  886MOL0     C19518   6.426   8.498   2.642  0.4567  0.3970 -0.4509
  886MOL0    Cl19519   6.447   8.510   2.813  0.5232 -0.1820  0.5047
  886MOL0     C19520   5.421   8.484   2.755 -0.0819  0.7878  0.8254
  886MOL0     C19521   5.276   8.510   2.754  0.9209 -0.2746 -0.8082
  886MOL0     O19522   5.075   8.682   3.063 -0.2651 -0.7631 -0.5384
  886MOL0     C19523   4.784   8.706   3.077 -1.1235  0.5307  0.0251
  886MOL0     C19524   4.645   8.723   3.065  0.1762 -0.5364 -0.4463
  886MOL0     N19525   4.111   8.324   3.233  0.2747 -0.2194 -1.0488
  886MOL0     N19526   4.000   8.263   3.222 -0.6808  0.5625  0.7716
  886MOL0     C19527   2.975   7.794   2.986  0.5872  0.5997  0.5246
  886MOL0     C19528   2.871   7.701   3.019 -0.1928 -0.3535 -0.2721
  886MOL0     C19529   2.529   7.464   2.850  1.3629  0.1838  0.8200
  886MOL0     C19530   2.489   7.412   2.972  0.0172 -0.4914  0.2417
  886MOL0     C19531   2.363   7.361   3.005 -0.5534  0.5952  0.5041
  886MOL0     C19532   2.267   7.362   2.909 -0.7042  0.4352  0.3359
  886MOL0     O19533   2.146   7.299   2.937 -0.0272  0.2565 -0.5239
  886MOL0     C19534   2.043   7.383   2.987 -0.3958 -0.2753 -0.0536
  886MOL0     C19535   1.912   7.309   3.026  0.6602 -0.6614 -0.0286
  886MOL0     C19536   1.912   7.219   3.152  0.4241 -0.3326  0.0587
  886MOL0     C19537   1.906   7.292   3.291  0.1955 -0.2913 -0.2804
  886MOL0     C19538   1.770   7.357   3.300  0.5758  0.0710  0.9165
  886MOL0     C19539   1.652   7.385   3.307  0.0100  0.3042 -0.9756
  886MOL0     C19540   2.296   7.407   2.781  0.1251 -0.7676 -0.3549
  886MOL0     C19541   2.420   7.463   2.747 -1.4180 -0.0907 -0.5835
  886MOL0     C19542   2.433   7.534   2.615 -1.0267 -0.6406 -0.0793
  886MOL0     H19543   2.982   7.428   2.856  0.0091  0.5449 -0.0196
  886MOL0     H19544   3.186   7.578   2.830 -1.0488  1.7845 -2.7689
  886MOL0     H19545   3.309   7.748   2.774  2.9378  2.8042  0.1805
  886MOL0     H19546   3.164   7.814   2.690 -0.9124  3.4189 -0.0833
  886MOL0     H19547   3.237   8.038   2.708  0.7144 -0.0522  1.5505
  886MOL0     H19548   3.365   7.939   2.632 -0.4364 -0.0227 -1.6165
  886MOL0     H19549   3.431   7.935   2.913 -1.0920 -1.1215 -0.6599
  886MOL0     H19550   3.345   8.087   2.889  2.8214  0.6488  3.0118
  886MOL0     H19551   3.571   8.009   2.705  0.7815  1.3451  0.3090
  886MOL0     H19552   3.496   8.162   2.717  0.1864 -1.2766 -1.2311
  886MOL0     H19553   3.586   8.190   2.967  1.1960 -1.5590  2.3720
  886MOL0     H19554   3.643   8.027   2.960  0.3500 -0.3420 -1.7877
  886MOL0     H19555   3.799   8.087   2.771 -1.4937  0.9448 -1.7486
  886MOL0     H19556   3.707   8.241   2.763 -1.0645 -1.2292 -0.4188
  886MOL0     H19557   3.811   8.330   2.950 -3.2184 -0.9419  1.3021
  886MOL0     H19558   3.929   8.246   2.853 -2.2820  1.0855 -1.2120
  886MOL0     H19559   3.815   8.117   3.112  0.2624  0.3821  0.3622
  886MOL0     H19560   3.906   8.028   3.002 -0.2509 -0.4891  2.3998
  886MOL0     H19561   4.158   8.186   2.947  0.9166  2.6220 -0.2979
  886MOL0     H19562   4.379   8.305   3.200 -0.5173 -1.3203 -1.1814
  886MOL0     H19563   4.394   8.328   3.030  0.5854  0.0947  0.0291
  886MOL0     H19564   4.264   8.518   3.240 -0.3199 -2.2276  0.1439
  886MOL0     H19565   4.422   8.543   3.150 -0.6693  1.1389 -0.6019
  886MOL0     H19566   4.232   8.675   3.040 -2.8784 -0.2566  0.4934
  886MOL0     H19567   4.175   8.517   2.999  0.5694 -3.7552  2.2506
  886MOL0     H19568   4.305   8.594   2.818  0.5103 -1.4951 -0.6342
  886MOL0     H19569   4.421   8.488   2.902  0.4134  1.1239 -1.1724
  886MOL0     H19570   4.629   8.557   2.762 -0.2226 -0.2131  1.0955
  886MOL0     H19571   4.853   8.532   2.793 -0.2130  0.0395  0.4471
  886MOL0     H19572   5.244   8.491   3.095 -1.3345 -1.4728  0.0801
  886MOL0     H19573   5.486   8.432   3.080  0.3345  0.8256 -0.2537
  886MOL0     H19574   5.674   8.608   2.960  0.1380  0.5126  0.9271
  886MOL0     H19575   5.805   8.496   2.940 -1.0389  0.0827  1.4034
  886MOL0     H19576   5.669   8.666   2.740 -1.0830  0.0518  2.0075
  886MOL0     H19577   5.841   8.685   2.798  0.4048  0.7117 -2.4937
  886MOL0     H19578   5.769   8.434   2.646  1.4487 -2.2934  2.0606
  886MOL0     H19579   5.854   8.582   2.577  0.9059 -1.4828  1.0278
  886MOL0     H19580   5.967   8.428   2.789 -2.6496 -0.6806 -1.6253
  886MOL0     H19581   6.030   8.585   2.731  0.3996  1.2878 -1.7128
  886MOL0     H19582   6.052   8.492   2.498  2.5040  0.3860  1.1574
  886MOL0     H19583   6.001   8.329   2.567  0.9177 -0.8647  2.1500
  886MOL0     H19584   6.201   8.366   2.722 -1.3789  0.5801 -0.0353
  886MOL0     H19585   6.227   8.303   2.563 -0.7580  0.8139 -2.9281
  886MOL0     H19586   6.229   8.608   2.628 -1.2011 -0.6180  0.5607
  886MOL0     H19587   6.284   8.538   2.484 -1.0593  0.5730  0.0837
  886MOL0     H19588   6.470   8.404   2.608  1.2613  0.9104 -0.8578
  886MOL0     H19589   6.486   8.570   2.586  1.1688 -1.7138 -2.5764
  886MOL0     H19590   5.478   8.474   2.663 -0.3860 -2.1734  0.8496
  886MOL0     H19591   5.220   8.530   2.664 -1.7719 -3.4402 -0.0133
  886MOL0     H19592   4.843   8.756   3.153  0.9387 -1.5848 -0.0647
  886MOL0     H19593   4.591   8.785   3.137  0.4497 -1.9408  1.0330
  886MOL0     H19594   2.967   7.900   3.006  0.5094  1.3110 -2.8007
  886MOL0     H19595   2.782   7.744   3.064  0.3374 -2.1086  2.7272
  886MOL0     H19596   2.562   7.411   3.053 -0.9713  0.6487  1.1987
  886MOL0     H19597   2.346   7.318   3.103 -2.0196 -1.4495 -0.5884
  886MOL0     H19598   2.020   7.460   2.913 -0.5302 -0.4911 -0.2396
  886MOL0     H19599   2.076   7.433   3.078  0.7143  1.0127 -1.1282
  886MOL0     H19600   1.890   7.252   2.935  2.0040  0.7528 -1.3054
  886MOL0     H19601   1.836   7.388   3.038  2.5688  1.1232  0.8498
  886MOL0     H19602   2.007   7.164   3.147  0.6755  0.1248 -0.2622
  886MOL0     H19603   1.827   7.151   3.143 -0.3593  0.7521 -1.0003
  886MOL0     H19604   1.920   7.226   3.377 -3.2815  1.2961  1.7829
  886MOL0     H19605   1.978   7.374   3.296  0.7535 -0.6990 -1.4468
  886MOL0     H19606   1.558   7.433   3.326  0.4758  0.4454  1.2399
  886MOL0     H19607   2.215   7.407   2.709  0.2268  1.4330 -0.5239
  886MOL0     H19608   2.481   7.486   2.529 -0.8003 -0.1425 -0.2296
  886MOL0     H19609   2.335   7.571   2.582 -1.1314 -1.4554 -0.7289
  886MOL0     H19610   2.489   7.627   2.627 -3.4646  0.8642  0.2742
  887MOL0     O19611  10.689   7.251   0.796 -0.2580  0.5874 -0.3376
  887MOL0     C19612  10.666   7.297   0.683  0.4016  0.5458 -0.2337
  887MOL0     O19613  10.750   7.391   0.615  0.7552 -1.1195 -0.8518
  887MOL0     C19614  10.868   7.426   0.667  2.1258 -0.2210  0.8227
  887MOL0     C19615  10.990   7.397   0.603 -0.1225 -1.3185 -0.5564
  887MOL0     C19616  11.116   7.441   0.648  0.3524 -0.5318  0.0507
  887MOL0     C19617  11.124   7.518   0.770 -0.2898  0.5837  0.4371
  887MOL0     O19618  11.238   7.549   0.841 -0.3928  0.3563 -0.0878
  887MOL0     C19619  11.361   7.538   0.769 -0.3737  0.2988 -1.0963
  887MOL0     C19620  11.470   7.614   0.842 -0.2801  0.3754  0.1163
  887MOL0     C19621  11.610   7.552   0.822 -1.0769  0.1983  0.1118
  887MOL0     C19622  11.709   7.633   0.905 -0.4430 -0.0198  1.3471
  887MOL0     C19623  11.850   7.564   0.891  0.2428 -0.1420 -0.4328
  887MOL0     C19624  11.947   7.652   0.960 -0.0579 -0.5524  0.3160
  887MOL0     C19625  12.097   7.622   0.920  0.0931  0.6357  0.4292
  887MOL0     C19626  12.199   7.727   0.973  0.0964  0.6814 -0.3854
  887MOL0     N19627  12.332   7.699   0.911  0.4130 -0.6083  0.1281
  887MOL0     C19628  12.385   7.737   0.785  0.1544 -0.9903 -0.0949
  887MOL0     C19629  12.516   7.702   0.786 -0.0795  0.8043 -0.2204
  887MOL0     C19630  12.617   7.700   0.667 -0.4192  0.0260 -0.5460
  887MOL0     C19631  12.739   7.612   0.705  0.3820  1.1276  0.5504
  887MOL0     C19632  12.856   7.622   0.603 -0.5336  0.5098 -0.3146
  887MOL0     C19633  12.938   7.742   0.619  0.0910 -1.0303 -0.5293
  887MOL0     O19634  13.038   7.756   0.516 -0.2929 -0.2763  0.3050
  887MOL0     C19635  13.147   7.825   0.561  0.0594  0.3332 -0.5742
  887MOL0     C19636  13.126   7.937   0.645 -0.6670  0.0861 -0.0561
  887MOL0     C19637  13.238   8.004   0.698  0.1494 -1.0647 -0.1048
  887MOL0     C19638  13.369   7.952   0.662 -0.9606 -0.5623 -0.0430
  887MOL0     C19639  13.491   8.019   0.712  0.1807 -0.7859  0.2282
  887MOL0     O19640  13.611   7.954   0.712 -0.0011  0.5751  0.6456
  887MOL0     C19641  13.714   8.007   0.781 -0.4997  0.0734  0.1155
  887MOL0     C19642  13.809   8.081   0.722  0.1980 -0.0071  0.3607
  887MOL0     C19643  13.930   8.125   0.784  0.3401  0.7478  0.4297
  887MOL0     C19644  13.965   8.080   0.910  0.4041  0.2261 -0.6248
  887MOL0     O19645  14.085   8.106   0.967 -0.3245 -0.7928 -0.2550
  887MOL0     C19646  14.165   8.213   0.918  0.1267  0.2032  0.8865
  887MOL0     C19647  14.281   8.240   1.011  0.1759 -0.2856  0.3947
  887MOL0     C19648  14.381   8.125   1.018  0.5621  0.4192  0.0825
  887MOL0     C19649  14.471   8.128   0.895  0.2689 -0.1883  0.4081
  887MOL0     C19650  14.596   8.031   0.904 -0.6631  0.2157 -1.3661
  887MOL0     C19651  14.551   7.888   0.909 -0.4915  0.1990 -0.3709
  887MOL0     C19652  14.668   7.793   0.938  0.2998  0.0847  0.4622
  887MOL0     C19653  14.626   7.651   0.975 -0.4189  0.4538 -0.0593
  887MOL0    Cl19654  14.752   7.551   1.043 -0.1473 -0.0189 -0.2618
  887MOL0     C19655  13.864   8.004   0.976 -0.4342 -1.0237 -0.3210
  887MOL0     C19656  13.743   7.966   0.911 -0.1572 -0.4330 -0.1144
  887MOL0     O19657  13.479   8.123   0.777  0.5901 -0.2084 -0.6183
  887MOL0     C19658  13.385   7.839   0.578  0.3791 -0.9067  0.0367
  887MOL0     C19659  13.275   7.775   0.534  0.0030 -0.5044 -0.2858
  887MOL0     N19660  12.546   7.649   0.913 -0.2395  0.6287 -0.0221
  887MOL0     N19661  12.441   7.639   0.981  0.8813 -0.2422 -0.0541
  887MOL0     C19662  10.998   7.552   0.826 -0.2200  0.2973  0.0159
  887MOL0     C19663  10.871   7.514   0.772 -0.9943  0.4609 -1.1286
  887MOL0     C19664  10.535   7.262   0.619 -0.6792  0.3723  0.2703
  887MOL0     C19665  10.530   7.293   0.474  0.3244 -0.4187 -0.2198
  887MOL0     C19666  10.414   7.249   0.403 -0.5289 -0.1708 -0.5282
  887MOL0     C19667  10.305   7.182   0.461  0.1873  0.1739  0.0541
  887MOL0     O19668  10.190   7.150   0.387 -0.0943  0.5994  0.3099
  887MOL0     C19669  10.077   7.073   0.433 -1.0126 -0.4152 -0.5184
  887MOL0     C19670   9.953   7.154   0.415 -0.7652  0.5365  0.2386
  887MOL0     C19671   9.914   7.248   0.521 -0.6255 -0.3804  0.0027
  887MOL0     C19672   9.779   7.314   0.497 -0.3546  0.1138  0.5371
  887MOL0     C19673   9.671   7.226   0.532  0.1208 -0.4692 -0.0730
  887MOL0     C19674   9.576   7.162   0.563  0.3592 -0.1132 -0.2254
  887MOL0     C19675  10.311   7.157   0.596 -0.4716 -0.1689  0.0987
  887MOL0     C19676  10.431   7.191   0.674  0.0565 -0.3424  0.5264
  887MOL0     C19677  10.413   7.159   0.824 -0.5400 -0.3623 -0.0767
  887MOL0     H19678  10.973   7.339   0.513  0.0430 -1.6428 -0.3770
  887MOL0     H19679  11.207   7.412   0.596  0.0902 -0.7845 -0.2751
  887MOL0     H19680  11.387   7.433   0.753  0.8709  0.1943  1.1013
  887MOL0     H19681  11.349   7.573   0.667  0.8870 -4.1080 -3.0036
  887MOL0     H19682  11.452   7.620   0.949 -0.1969  2.5805  0.0420
  887MOL0     H19683  11.466   7.720   0.815 -3.6651  0.7919  1.7470
  887MOL0     H19684  11.629   7.545   0.714 -0.8932 -0.5808  0.1888
  887MOL0     H19685  11.606   7.449   0.857  0.1594 -0.9207 -2.7784
  887MOL0     H19686  11.712   7.738   0.876  0.8302 -0.6281 -0.9853
  887MOL0     H19687  11.676   7.619   1.009 -0.2191  1.5786  1.6566
  887MOL0     H19688  11.844   7.466   0.939 -0.2993  0.0414 -0.1275
  887MOL0     H19689  11.860   7.548   0.783 -1.2590  0.1959 -0.6338
  887MOL0     H19690  11.914   7.751   0.927  0.8861 -0.1735  0.4765
  887MOL0     H19691  11.942   7.654   1.070  1.1635  0.2897  0.3794
  887MOL0     H19692  12.103   7.633   0.811  3.5084  1.4818  0.6025
  887MOL0     H19693  12.126   7.520   0.948  1.3983  0.7779 -0.3422
  887MOL0     H19694  12.164   7.828   0.951 -0.2817  0.3218 -1.5106
  887MOL0     H19695  12.213   7.712   1.081 -1.1496  3.1341  0.1935
  887MOL0     H19696  12.329   7.771   0.698 -0.7805 -1.7331  0.2022
  887MOL0     H19697  12.580   7.649   0.578 -0.0885 -1.5897  0.2072
  887MOL0     H19698  12.657   7.801   0.652 -1.3178  0.3377 -0.9621
  887MOL0     H19699  12.762   7.630   0.810 -2.2645 -3.2067  2.1766
  887MOL0     H19700  12.714   7.505   0.706  0.4639  1.1006  2.2880
  887MOL0     H19701  12.825   7.611   0.499  1.5365 -1.6725 -0.8107
  887MOL0     H19702  12.920   7.536   0.627  1.7473  1.9548 -0.8958
  887MOL0     H19703  12.976   7.731   0.722 -0.1351 -1.3718 -0.4795
  887MOL0     H19704  12.879   7.833   0.613 -0.1578 -0.8679  2.6847
  887MOL0     H19705  13.028   7.981   0.663  1.4909  5.1632  1.1289
  887MOL0     H19706  13.233   8.103   0.741  2.2479 -0.1474 -1.7825
  887MOL0     H19707  13.791   8.111   0.619  2.1528  1.0996  0.3054
  887MOL0     H19708  13.986   8.199   0.727  1.5198 -1.1009 -0.9147
  887MOL0     H19709  14.202   8.192   0.817 -2.0305  0.6931 -0.0634
  887MOL0     H19710  14.111   8.308   0.906  0.3084  0.3991  1.5906
  887MOL0     H19711  14.330   8.332   0.979  0.8173 -0.8334 -0.2174
  887MOL0     H19712  14.239   8.254   1.111  0.5177  0.9008  0.3782
  887MOL0     H19713  14.444   8.136   1.107  1.1703  0.6020 -0.3621
  887MOL0     H19714  14.329   8.029   1.024  1.1475  0.1317  0.7316
  887MOL0     H19715  14.522   8.225   0.891  2.4834 -1.0746  3.4297
  887MOL0     H19716  14.407   8.115   0.807 -2.2077  1.1603  1.8775
  887MOL0     H19717  14.649   8.044   0.999 -1.0046  2.4938 -1.4406
  887MOL0     H19718  14.663   8.048   0.820  1.2964  2.5042  0.5191
  887MOL0     H19719  14.471   7.873   0.982 -1.6147 -2.3586 -1.9840
  887MOL0     H19720  14.503   7.850   0.818 -1.1968 -0.5327  0.2909
  887MOL0     H19721  14.729   7.819   1.025  2.2034 -0.9811 -0.4843
  887MOL0     H19722  14.724   7.812   0.846 -2.1322  2.1193 -0.7292
  887MOL0     H19723  14.545   7.643   1.048  0.0666 -0.1155  0.4328
  887MOL0     H19724  14.588   7.602   0.884 -1.9115 -1.0871  1.3307
  887MOL0     H19725  13.881   7.959   1.073 -1.8082  1.9934  1.4320
  887MOL0     H19726  13.683   7.898   0.971 -1.5685  0.1338 -0.8533
  887MOL0     H19727  13.487   7.814   0.554  0.4572  1.0989 -1.9732
  887MOL0     H19728  13.280   7.684   0.477 -2.0667 -2.6557  2.6593
  887MOL0     H19729  10.995   7.611   0.917 -1.0234  2.8786 -1.5593
  887MOL0     H19730  10.777   7.556   0.806 -1.9404  0.1883 -3.1952
  887MOL0     H19731  10.604   7.361   0.434 -0.6514  1.4532  1.0385
  887MOL0     H19732  10.404   7.271   0.298  0.3602  0.5331 -0.4807
  887MOL0     H19733  10.101   7.036   0.533 -0.8198 -2.2783 -1.2134
  887MOL0     H19734  10.051   6.982   0.377  2.0961 -0.9605 -1.2758
  887MOL0     H19735   9.869   7.085   0.411 -0.9436  0.5392  2.6474
  887MOL0     H19736   9.968   7.215   0.326 -1.3465 -1.8655 -1.5930
  887MOL0     H19737   9.990   7.327   0.511 -0.1139 -1.1676 -5.6786
  887MOL0     H19738   9.907   7.203   0.620 -2.1726 -3.8130 -1.4948
  887MOL0     H19739   9.776   7.396   0.568 -1.6769 -0.3675  1.0621
  887MOL0     H19740   9.783   7.349   0.393 -0.9508  0.2335  0.5516
  887MOL0     H19741   9.507   7.083   0.587  2.7791 -1.6146  2.3663
  887MOL0     H19742  10.226   7.123   0.655 -1.1496  3.5387  1.5568
  887MOL0     H19743  10.308   7.134   0.840 -0.7450  0.5354  0.0216
  887MOL0     H19744  10.480   7.074   0.843 -0.5477 -0.7819 -1.7260
  887MOL0     H19745  10.452   7.241   0.885  0.1532 -1.4365  0.9549
  888MOL0     O19746   2.398   8.050   8.963 -0.2887  0.3316 -0.3031
  888MOL0     C19747   2.456   7.956   8.903  0.2714  0.2614  0.1319
  888MOL0     O19748   2.547   7.975   8.802  0.4470 -0.0451 -0.8099
  888MOL0     C19749   2.618   8.082   8.768  0.5362 -0.6761  0.6712
  888MOL0     C19750   2.562   8.202   8.722  1.0552  0.4892  0.8533
  888MOL0     C19751   2.643   8.305   8.677 -0.9176 -0.6439 -0.3999
  888MOL0     C19752   2.783   8.291   8.674  0.3152 -0.2408  0.2550
  888MOL0     O19753   2.859   8.382   8.615  0.5826  0.0163  0.5557
  888MOL0     C19754   2.847   8.509   8.676  0.5508 -0.4952  0.2211
  888MOL0     C19755   2.904   8.622   8.594 -0.1646 -0.0164  0.6485
  888MOL0     C19756   3.051   8.597   8.568 -0.3011 -0.0370 -0.0327
  888MOL0     C19757   3.126   8.704   8.485 -0.3598 -0.3780  0.4987
  888MOL0     C19758   3.264   8.662   8.457 -0.5866 -0.7759  0.6815
  888MOL0     C19759   3.364   8.626   8.570  0.4659 -0.3488  0.7521
  888MOL0     C19760   3.494   8.574   8.512 -0.0298 -0.4786  0.2075
  888MOL0     C19761   3.577   8.538   8.628 -0.9371  0.4999 -0.4574
  888MOL0     N19762   3.649   8.659   8.693  0.4132 -0.3709  0.1975
  888MOL0     C19763   3.772   8.707   8.660 -0.1680  0.2981  0.0188
  888MOL0     C19764   3.804   8.809   8.746  0.8666  0.0849  0.3414
  888MOL0     C19765   3.921   8.896   8.766 -0.0573  0.8547 -0.0154
  888MOL0     C19766   4.058   8.837   8.740 -0.3566  0.0201 -0.5293
  888MOL0     C19767   4.074   8.689   8.791 -0.1777  0.0231  0.3816
  888MOL0     C19768   4.217   8.640   8.774  0.3788 -0.1665 -0.2774
  888MOL0     O19769   4.241   8.597   8.639  0.0331  0.5464 -1.0725
  888MOL0     C19770   4.358   8.532   8.615 -0.8176  0.3320 -0.4617
  888MOL0     C19771   4.371   8.477   8.486  0.6776  1.3312 -0.5158
  888MOL0     C19772   4.476   8.394   8.450 -0.5057  0.9560  0.0064
  888MOL0     C19773   4.586   8.381   8.542  0.8448 -0.5727 -0.5661
  888MOL0     C19774   4.701   8.295   8.514 -0.3948 -0.4480  1.2880
  888MOL0     O19775   4.807   8.330   8.589  0.4720  0.5385 -0.3356
  888MOL0     C19776   4.932   8.287   8.564  0.6679 -0.4422 -0.4608
  888MOL0     C19777   4.994   8.236   8.446 -0.2371 -0.6629 -0.4903
  888MOL0     C19778   5.127   8.198   8.448  0.3388 -0.1285 -0.1596
  888MOL0     C19779   5.206   8.213   8.558  0.3927  0.1674 -0.2431
  888MOL0     O19780   5.336   8.182   8.571  0.2436 -0.0402 -0.6336
  888MOL0     C19781   5.403   8.153   8.447  0.1678  0.9578  0.4571
  888MOL0     C19782   5.555   8.129   8.467 -0.7700  0.2071  0.5962
  888MOL0     C19783   5.572   7.992   8.527 -0.4527  0.6088 -0.2609
  888MOL0     C19784   5.720   7.961   8.556  1.5834  0.3682  0.2694
  888MOL0     C19785   5.757   7.866   8.678 -0.1099 -0.1588 -0.0093
  888MOL0     C19786   5.691   7.728   8.665 -0.5686 -0.2698  0.1656
  888MOL0     C19787   5.732   7.646   8.787 -0.3939  0.2123  0.2794
  888MOL0     C19788   5.685   7.503   8.777  0.2888  0.9423  0.2254
  888MOL0    Cl19789   5.512   7.509   8.816  0.4470 -0.2893  0.1625
  888MOL0     C19790   5.151   8.268   8.673 -0.8249  0.4571  0.5682
  888MOL0     C19791   5.012   8.298   8.676  1.1010 -0.4825  0.0052
  888MOL0     O19792   4.696   8.207   8.426  0.6717 -1.0171 -0.4450
  888MOL0     C19793   4.575   8.439   8.669  0.4262  0.1543  0.2448
  888MOL0     C19794   4.465   8.516   8.707 -0.1266  0.5118  0.3002
  888MOL0     N19795   3.695   8.819   8.833  0.2291 -0.2507 -0.3291
  888MOL0     N19796   3.609   8.730   8.793  0.1655 -0.2541 -0.3927
  888MOL0     C19797   2.836   8.172   8.712 -0.6001 -0.5311  0.2260
  888MOL0     C19798   2.759   8.066   8.758 -0.1597 -0.0031  0.0482
  888MOL0     C19799   2.419   7.816   8.943  0.5095  0.9165  0.6090
  888MOL0     C19800   2.309   7.793   9.035 -0.2412 -0.1434  0.2666
  888MOL0     C19801   2.261   7.666   9.064  0.2381  0.4435  0.1569
  888MOL0     C19802   2.328   7.552   9.017 -0.8304  1.0190  0.2530
  888MOL0     O19803   2.290   7.417   9.033 -0.0189 -0.5544  0.1590
  888MOL0     C19804   2.206   7.385   9.142 -0.2072 -0.0784  0.1517
  888MOL0     C19805   2.170   7.237   9.130  0.0502  0.5909 -0.2226
  888MOL0     C19806   2.085   7.184   9.251  0.9828  0.0728 -0.9976
  888MOL0     C19807   2.034   7.035   9.224  0.7516 -0.0591  0.4546
  888MOL0     C19808   1.925   7.039   9.117 -0.8584  0.5029 -0.3649
  888MOL0     C19809   1.829   7.045   9.044 -0.2651 -0.6124 -0.3988
  888MOL0     C19810   2.444   7.568   8.947 -0.3281 -0.4401  0.2422
  888MOL0     C19811   2.484   7.701   8.905 -0.0969 -0.0179  0.0068
  888MOL0     C19812   2.616   7.707   8.842  0.7508 -0.7159 -0.1152
  888MOL0     H19813   2.455   8.221   8.721  1.1017  0.8666  1.6694
  888MOL0     H19814   2.591   8.395   8.645 -0.7337  1.0352  3.5035
  888MOL0     H19815   2.746   8.533   8.711 -0.3348 -3.3730 -0.1069
  888MOL0     H19816   2.897   8.506   8.773 -1.0052  0.3393  1.1050
  888MOL0     H19817   2.887   8.722   8.634 -1.1763  0.3074 -0.5424
  888MOL0     H19818   2.848   8.634   8.501 -0.1082  0.7887  0.7152
  888MOL0     H19819   3.073   8.507   8.510  2.0581  0.9554 -0.7963
  888MOL0     H19820   3.098   8.573   8.664 -2.8195 -0.3220  1.2368
  888MOL0     H19821   3.072   8.714   8.390  1.0711 -0.7787 -0.4000
  888MOL0     H19822   3.126   8.804   8.527 -1.2021  0.9868 -2.4528
  888MOL0     H19823   3.271   8.581   8.382 -1.5996  1.0189 -1.4633
  888MOL0     H19824   3.307   8.744   8.399 -1.8713 -0.7970 -0.3590
  888MOL0     H19825   3.384   8.714   8.631 -2.4579  0.1784  1.0832
  888MOL0     H19826   3.309   8.558   8.636 -1.5725  1.9696  1.5984
  888MOL0     H19827   3.538   8.656   8.454  0.3597 -0.4045  0.6065
  888MOL0     H19828   3.469   8.487   8.450  2.6502 -0.8711 -0.4573
  888MOL0     H19829   3.527   8.471   8.699 -0.5280  2.0273  1.3828
  888MOL0     H19830   3.663   8.483   8.588 -0.5403 -0.3436  1.4285
  888MOL0     H19831   3.826   8.660   8.578  0.0325 -1.0305  0.8800
  888MOL0     H19832   3.902   8.991   8.715 -0.7338  0.7813  0.0804
  888MOL0     H19833   3.915   8.917   8.873 -0.4737  0.2216  0.0962
  888MOL0     H19834   4.079   8.829   8.633 -0.6589 -2.2465 -0.4764
  888MOL0     H19835   4.132   8.898   8.794  0.1562 -2.5156  1.9198
  888MOL0     H19836   4.004   8.618   8.746 -1.2490  0.9335  0.5529
  888MOL0     H19837   4.061   8.697   8.900  0.9457  0.2537  0.5133
  888MOL0     H19838   4.248   8.559   8.841  2.9828 -0.2824 -1.4987
  888MOL0     H19839   4.284   8.722   8.801 -2.6050  2.4370 -0.2144
  888MOL0     H19840   4.300   8.485   8.404 -1.0571 -1.2687  0.5762
  888MOL0     H19841   4.483   8.341   8.355 -0.6881  0.0375  0.4992
  888MOL0     H19842   4.936   8.217   8.356 -1.5975 -1.0844  0.4349
  888MOL0     H19843   5.163   8.154   8.355 -2.7959  0.1350 -1.6245
  888MOL0     H19844   5.354   8.070   8.397  2.5325  1.3408 -2.8051
  888MOL0     H19845   5.393   8.236   8.377 -1.2353 -2.4595 -3.7971
  888MOL0     H19846   5.605   8.136   8.370 -3.0346 -3.2251 -1.0258
  888MOL0     H19847   5.592   8.206   8.535  1.1580 -0.0831 -0.0781
  888MOL0     H19848   5.522   8.010   8.623  0.4502  2.4012 -0.0835
  888MOL0     H19849   5.522   7.910   8.475 -0.7404  0.5304  0.1316
  888MOL0     H19850   5.777   8.053   8.571  0.2057  1.1523  0.8836
  888MOL0     H19851   5.755   7.913   8.464  3.3370  1.0497  0.5534
  888MOL0     H19852   5.732   7.900   8.778  1.5256 -1.5726  0.9337
  888MOL0     H19853   5.867   7.864   8.680 -0.1181 -0.4172  0.2079
  888MOL0     H19854   5.582   7.728   8.651 -0.6381 -0.4756  0.6862
  888MOL0     H19855   5.731   7.689   8.571  1.4402  0.2664  0.7499
  888MOL0     H19856   5.690   7.692   8.877  0.3138 -3.5592  2.7204
  888MOL0     H19857   5.841   7.651   8.792 -0.2879  0.6711 -1.5886
  888MOL0     H19858   5.701   7.451   8.681  1.2582  0.4821  0.6148
  888MOL0     H19859   5.743   7.448   8.852  0.2255 -1.6415 -1.4956
  888MOL0     H19860   5.219   8.290   8.755  0.0618 -2.6136  0.7697
  888MOL0     H19861   4.965   8.340   8.765 -1.7192 -1.0939 -1.1165
  888MOL0     H19862   4.655   8.434   8.742  1.0951 -2.2297 -0.5484
  888MOL0     H19863   4.470   8.551   8.810 -2.4128 -1.3657  1.1736
  888MOL0     H19864   2.942   8.157   8.695 -0.5609 -0.3839  0.3380
  888MOL0     H19865   2.798   7.966   8.775  0.5589  0.1848 -0.4654
  888MOL0     H19866   2.252   7.871   9.085 -0.3865 -1.8162  2.9056
  888MOL0     H19867   2.169   7.657   9.121 -0.1499 -0.0143 -0.5307
  888MOL0     H19868   2.116   7.446   9.130 -0.1934 -0.1720 -0.4875
  888MOL0     H19869   2.259   7.407   9.235 -0.3580  1.2870 -0.0647
  888MOL0     H19870   2.263   7.181   9.119  0.8650  0.1990  5.6508
  888MOL0     H19871   2.118   7.230   9.033  0.5982 -1.9208 -0.3847
  888MOL0     H19872   1.992   7.240   9.268 -0.0316 -1.2473 -1.9250
  888MOL0     H19873   2.145   7.167   9.340  0.1755  1.8673 -0.0684
  888MOL0     H19874   2.120   6.973   9.201  0.4387 -0.0716 -0.7498
  888MOL0     H19875   1.995   6.997   9.319 -1.2066  1.0128  0.1443
  888MOL0     H19876   1.738   7.049   8.988 -1.4566  0.7005  1.4921
  888MOL0     H19877   2.508   7.482   8.930  0.3168  0.0858 -0.0241
  888MOL0     H19878   2.675   7.796   8.867  3.6544 -2.4530 -0.2868
  888MOL0     H19879   2.673   7.620   8.876 -0.8737 -1.9148 -0.3714
  888MOL0     H19880   2.601   7.696   8.734 -3.0346 -0.2782  0.2612
  889MOL0     O19881   3.866   4.263   7.919 -0.1571  0.1787  0.3719
  889MOL0     C19882   3.868   4.184   7.825  0.2752 -0.2487  0.7265
  889MOL0     O19883   3.979   4.119   7.779  0.0784  0.1787  0.4973
  889MOL0     C19884   4.079   4.092   7.868 -0.8076 -0.5320 -0.5012
  889MOL0     C19885   4.107   3.959   7.888  1.0822 -0.8647 -0.5922
  889MOL0     C19886   4.193   3.928   7.994 -0.0728  0.0361 -0.4001
  889MOL0     C19887   4.273   4.024   8.055  0.1363 -0.1699  0.9083
  889MOL0     O19888   4.362   3.975   8.151  0.9080 -0.6354 -0.1084
  889MOL0     C19889   4.433   4.075   8.224 -0.1723 -0.1246  0.2385
  889MOL0     C19890   4.534   4.001   8.316 -0.2672  0.0264  0.6218
  889MOL0     C19891   4.655   4.098   8.358  0.2247 -0.8266 -0.1103
  889MOL0     C19892   4.777   4.016   8.419  0.5094 -0.3112 -0.0674
  889MOL0     C19893   4.885   3.986   8.322 -0.8029  0.4427  0.3880
  889MOL0     C19894   4.845   3.881   8.215  0.0773  0.7881 -0.8283
  889MOL0     C19895   4.964   3.796   8.182  0.4776  0.3639 -0.5106
  889MOL0     C19896   4.935   3.687   8.082  0.0701  0.8916 -0.1267
  889MOL0     N19897   5.041   3.584   8.080  0.0387 -0.1387  0.0296
  889MOL0     C19898   5.156   3.571   7.997  0.3573 -0.4908 -0.6495
  889MOL0     C19899   5.194   3.443   8.013  0.5060  0.0865 -0.5352
  889MOL0     C19900   5.318   3.402   7.942  0.2952 -0.0334  0.1492
  889MOL0     C19901   5.379   3.281   8.021  0.7969 -0.1882  0.0206
  889MOL0     C19902   5.502   3.228   7.950  0.5072 -0.7816 -0.6631
  889MOL0     C19903   5.615   3.208   8.047 -0.1436 -0.1881  0.7507
  889MOL0     O19904   5.673   3.332   8.087  0.7248  0.7789  0.1380
  889MOL0     C19905   5.797   3.359   8.038  0.3271  0.0287 -0.1129
  889MOL0     C19906   5.845   3.308   7.914 -0.1220 -0.6188 -0.8047
  889MOL0     C19907   5.963   3.359   7.862  0.7275 -0.1585  0.1569
  889MOL0     C19908   6.046   3.453   7.932  0.3194  0.2834  0.2020
  889MOL0     C19909   6.173   3.495   7.869  0.4001 -0.0075  0.4019
  889MOL0     O19910   6.235   3.403   7.789 -0.7175  0.1698 -0.2345
  889MOL0     C19911   6.363   3.417   7.765  0.2769  0.2161  0.2461
  889MOL0     C19912   6.438   3.309   7.803 -0.2324  0.4255 -1.0949
  889MOL0     C19913   6.578   3.317   7.794 -0.3676 -0.5192  0.0997
  889MOL0     C19914   6.641   3.417   7.733  0.2110 -0.1043 -0.6721
  889MOL0     O19915   6.777   3.413   7.728  0.1053 -0.0266 -0.0889
  889MOL0     C19916   6.843   3.515   7.808  0.7733 -0.4532 -0.4169
  889MOL0     C19917   6.984   3.531   7.748 -0.3599  0.2047  0.2255
  889MOL0     C19918   7.069   3.399   7.757 -0.4194 -0.0418  0.3844
  889MOL0     C19919   7.074   3.329   7.628  0.6369  0.3497  1.2595
  889MOL0     C19920   7.170   3.214   7.639 -0.8942 -0.2103  0.8583
  889MOL0     C19921   7.192   3.144   7.499 -0.4407  0.2484 -0.3916
  889MOL0     C19922   7.274   3.015   7.509 -0.0845 -0.3997 -0.1177
  889MOL0     C19923   7.279   2.947   7.370 -0.5417 -0.1606 -0.1964
  889MOL0    Cl19924   7.345   2.781   7.419 -0.0007 -0.1824 -0.2864
  889MOL0     C19925   6.563   3.528   7.683  0.2213 -0.7409  0.2713
  889MOL0     C19926   6.421   3.527   7.705 -0.0820  0.1185 -0.1913
  889MOL0     O19927   6.222   3.602   7.916 -0.2025  1.0393  0.4572
  889MOL0     C19928   5.997   3.506   8.056  0.2402  0.4387 -0.1284
  889MOL0     C19929   5.879   3.453   8.109 -0.0694 -0.4210 -0.0474
  889MOL0     N19930   5.102   3.373   8.097  0.3776 -0.1007  0.3739
  889MOL0     N19931   5.016   3.457   8.133 -1.0254 -0.2047  0.0838
  889MOL0     C19932   4.253   4.158   8.020  0.0482  0.5592 -0.1079
  889MOL0     C19933   4.160   4.190   7.925  0.6215 -1.0504  1.0333
  889MOL0     C19934   3.742   4.177   7.740 -0.7519  0.3086 -0.1052
  889MOL0     C19935   3.762   4.112   7.620 -0.5775 -0.0245  0.0772
  889MOL0     C19936   3.656   4.083   7.533  0.7012  0.7875  1.3079
  889MOL0     C19937   3.521   4.122   7.565 -0.5314 -0.3112  0.3274
  889MOL0     O19938   3.413   4.097   7.486  0.2312 -0.0178 -0.4326
  889MOL0     C19939   3.439   4.026   7.363  0.0786  0.0258 -0.0384
  889MOL0     C19940   3.315   4.049   7.288  0.2965 -0.2667  0.4397
  889MOL0     C19941   3.182   4.002   7.344  0.0315 -0.9209 -0.9407
  889MOL0     C19942   3.080   3.997   7.229 -0.3779 -0.2812 -0.4084
  889MOL0     C19943   3.028   4.131   7.193 -0.1772 -0.9307 -0.8718
  889MOL0     C19944   2.981   4.243   7.173  0.3808 -0.0712  0.5804
  889MOL0     C19945   3.498   4.184   7.680 -0.5392  0.3317 -0.6628
  889MOL0     C19946   3.606   4.219   7.768 -0.8420 -0.1857 -0.4856
  889MOL0     C19947   3.568   4.302   7.889 -0.0873 -0.2393  0.5178
  889MOL0     H19948   4.044   3.887   7.838  2.0678 -2.2600  0.1049
  889MOL0     H19949   4.213   3.824   8.019  2.9029 -0.3307 -3.5477
  889MOL0     H19950   4.481   4.140   8.151 -1.7010  0.3474 -0.3747
  889MOL0     H19951   4.364   4.137   8.282  0.7860 -0.2953  1.6216
  889MOL0     H19952   4.571   3.915   8.260 -0.1379  0.2685  0.3338
  889MOL0     H19953   4.481   3.959   8.402 -0.0777 -2.3804 -0.3472
  889MOL0     H19954   4.632   4.181   8.425  2.4075  0.3590 -0.7116
  889MOL0     H19955   4.698   4.148   8.270  0.2508 -1.9405 -0.7512
  889MOL0     H19956   4.827   4.072   8.497 -2.1784 -0.1914  1.6818
  889MOL0     H19957   4.740   3.925   8.466  2.3851 -1.4465 -0.6337
  889MOL0     H19958   4.925   4.077   8.277 -0.3752  1.6109  2.9272
  889MOL0     H19959   4.967   3.951   8.386 -0.9341  0.0347  0.3397
  889MOL0     H19960   4.784   3.808   8.269  2.0672  0.3822  0.9881
  889MOL0     H19961   4.802   3.917   8.121 -1.0722 -0.9506 -1.0090
  889MOL0     H19962   4.998   3.748   8.274 -2.2418 -0.1259  0.3165
  889MOL0     H19963   5.043   3.863   8.148  1.9008 -0.8191  0.3162
  889MOL0     H19964   4.839   3.642   8.106  0.0262  1.1964  0.2770
  889MOL0     H19965   4.923   3.739   7.987  1.5340  2.4066  0.4781
  889MOL0     H19966   5.199   3.632   7.919 -1.7855 -1.0442 -2.3759
  889MOL0     H19967   5.285   3.364   7.845  0.4697 -1.8979  0.7721
  889MOL0     H19968   5.383   3.490   7.937 -0.1127  0.4616  2.4733
  889MOL0     H19969   5.405   3.310   8.123  2.4714 -1.8343  0.1079
  889MOL0     H19970   5.307   3.199   8.024  1.9815 -1.3589 -1.5636
  889MOL0     H19971   5.532   3.287   7.863  0.7131  0.5320  0.2666
  889MOL0     H19972   5.478   3.125   7.921 -2.4313 -1.6128  3.6845
  889MOL0     H19973   5.689   3.136   8.010 -1.4072 -1.7868  1.2185
  889MOL0     H19974   5.581   3.150   8.133 -0.4511 -1.0116  0.0920
  889MOL0     H19975   5.790   3.239   7.851 -0.0500 -2.0874  0.6675
  889MOL0     H19976   5.991   3.325   7.763 -2.4637 -1.2865 -0.4870
  889MOL0     H19977   6.394   3.218   7.840 -0.3087  1.3091  1.1284
  889MOL0     H19978   6.647   3.237   7.817  1.0830  0.4676 -0.6780
  889MOL0     H19979   6.790   3.610   7.799  1.7290  0.0285 -1.1664
  889MOL0     H19980   6.864   3.481   7.909 -0.7465  0.7253  0.3304
  889MOL0     H19981   6.974   3.581   7.651 -1.9440 -1.0487 -0.2979
  889MOL0     H19982   7.037   3.605   7.808 -2.0030  0.8019  0.9799
  889MOL0     H19983   7.171   3.423   7.788 -0.2733  2.0640 -1.4367
  889MOL0     H19984   7.029   3.329   7.830  2.4969 -0.8428  1.3260
  889MOL0     H19985   7.103   3.401   7.551 -4.8607  1.9768  0.2190
  889MOL0     H19986   6.984   3.282   7.587 -0.7001  1.6649  2.5691
  889MOL0     H19987   7.133   3.142   7.711 -0.0973 -0.8631  0.6331
  889MOL0     H19988   7.268   3.250   7.674  0.0339 -2.4780  0.7887
  889MOL0     H19989   7.094   3.122   7.455 -0.5110  0.1542 -0.1869
  889MOL0     H19990   7.240   3.214   7.430 -1.8111 -0.7243 -2.4321
  889MOL0     H19991   7.235   2.947   7.585 -0.9318  0.3878  0.1566
  889MOL0     H19992   7.372   3.052   7.540  0.2927  0.2262 -1.9279
  889MOL0     H19993   7.183   2.934   7.320 -1.1931  3.2286 -0.0743
  889MOL0     H19994   7.354   2.983   7.300 -0.5857  1.0848  0.3816
  889MOL0     H19995   6.606   3.611   7.627 -1.2314  1.4265  2.2056
  889MOL0     H19996   6.360   3.614   7.685 -0.8725 -0.7820 -1.8298
  889MOL0     H19997   6.061   3.581   8.101 -0.5097  0.8651  0.2349
  889MOL0     H19998   5.851   3.473   8.212 -0.7242 -0.4863 -0.2107
  889MOL0     H19999   4.309   4.238   8.067 -2.1829  2.2376 -0.1329
  889MOL0     H20000   4.140   4.291   7.891 -0.3596 -1.6420 -0.2239
  889MOL0     H20001   3.854   4.079   7.574  0.4483  1.1044  1.2474
  889MOL0     H20002   3.699   4.043   7.441 -1.3858  1.1765  0.0937
  889MOL0     H20003   3.437   3.921   7.391  0.7809  0.4311  1.7290
  889MOL0     H20004   3.534   4.048   7.314  0.7737 -0.5968  0.9962
  889MOL0     H20005   3.340   3.988   7.201  1.5313 -1.0715  1.3291
  889MOL0     H20006   3.298   4.153   7.257 -1.2349 -0.9166 -1.0395
  889MOL0     H20007   3.157   4.066   7.429  2.0440 -0.8668 -0.3468
  889MOL0     H20008   3.205   3.900   7.375 -1.7289 -0.9274  0.5433
  889MOL0     H20009   3.129   3.942   7.148  0.5035  0.2261 -0.2250
  889MOL0     H20010   3.002   3.929   7.264 -0.4930 -0.5514 -1.1643
  889MOL0     H20011   2.922   4.333   7.168 -2.0481 -1.5457  1.0873
  889MOL0     H20012   3.396   4.215   7.701 -1.3355 -0.4491 -3.0996
  889MOL0     H20013   3.626   4.267   7.975 -1.3271  1.5180  2.1300
  889MOL0     H20014   3.594   4.408   7.880 -1.7619  0.1154 -0.6456
  889MOL0     H20015   3.461   4.301   7.911 -0.0171  1.3951  1.0483
  890MOL0     O20016   9.369   9.703   3.021  0.8181  0.3751  0.1491
  890MOL0     C20017   9.334   9.712   2.904  0.2409 -0.7939  0.3866
  890MOL0     O20018   9.407   9.771   2.807 -0.1182 -0.1135  0.5776
  890MOL0     C20019   9.540   9.799   2.827  0.5526 -1.0262 -0.2196
  890MOL0     C20020   9.639   9.705   2.822 -0.8906  0.5373 -0.7227
  890MOL0     C20021   9.778   9.729   2.835 -0.5773  0.0546  0.1529
  890MOL0     C20022   9.823   9.862   2.850  0.1064 -0.4437  0.8615
  890MOL0     O20023   9.950   9.911   2.870  0.6345  0.8225  0.7446
  890MOL0     C20024  10.051   9.817   2.901  0.7574 -0.0904 -0.3916
  890MOL0     C20025  10.177   9.914   2.924  0.0679 -0.0863 -0.3930
  890MOL0     C20026  10.312   9.831   2.921  0.1289  0.2928  0.0241
  890MOL0     C20027  10.425   9.929   2.925  0.0415 -0.2618  0.5949
  890MOL0     C20028  10.561   9.852   2.908 -0.1140  0.1653  0.1167
  890MOL0     C20029  10.568   9.774   2.775  0.1650 -0.4506  0.3384
  890MOL0     C20030  10.704   9.715   2.741 -1.2516 -0.0994  0.9367
  890MOL0     C20031  10.779   9.649   2.858 -0.0556 -1.2034 -0.2358
  890MOL0     N20032  10.877   9.557   2.806 -0.9662 -0.1277  0.7800
  890MOL0     C20033  10.866   9.423   2.806  0.0844  0.0791  0.3535
  890MOL0     C20034  10.997   9.389   2.803  0.2463  0.3462 -0.7286
  890MOL0     C20035  11.031   9.241   2.818  0.1665 -0.5177 -0.4096
  890MOL0     C20036  11.015   9.213   2.967 -0.6098  1.3900 -0.5039
  890MOL0     C20037  11.009   9.054   2.985 -0.3091  0.7761  0.5058
  890MOL0     C20038  10.883   8.978   2.934 -0.3612 -0.6109  0.6044
  890MOL0     O20039  10.764   9.049   2.976  0.7126 -0.1954 -0.4850
  890MOL0     C20040  10.638   9.018   2.922  0.1843 -0.0069  0.1538
  890MOL0     C20041  10.593   8.889   2.872 -0.7739 -0.4176  0.7857
  890MOL0     C20042  10.464   8.872   2.828  0.0359  0.2820  0.4612
  890MOL0     C20043  10.357   8.957   2.843 -0.4576  0.1290 -0.0704
  890MOL0     C20044  10.216   8.934   2.819  0.3574  0.4187  0.4909
  890MOL0     O20045  10.186   8.812   2.760  0.0408  0.6480 -0.7603
  890MOL0     C20046  10.059   8.755   2.754  0.2856 -0.3776  1.1233
  890MOL0     C20047   9.936   8.815   2.749 -0.3619 -0.3203  0.5236
  890MOL0     C20048   9.820   8.748   2.730 -0.0677  0.6786  0.1271
  890MOL0     C20049   9.805   8.612   2.705 -0.4442 -0.5594 -0.3752
  890MOL0     O20050   9.683   8.546   2.686 -0.8333 -0.3476  0.0362
  890MOL0     C20051   9.561   8.623   2.678  0.1630  0.5814 -0.6983
  890MOL0     C20052   9.537   8.653   2.535  0.0964 -0.4963 -0.1942
  890MOL0     C20053   9.606   8.780   2.484  0.4138 -0.6112  0.4748
  890MOL0     C20054   9.539   8.827   2.348  0.8317 -0.9626  1.0224
  890MOL0     C20055   9.584   8.976   2.317 -0.5887  0.2296  0.0811
  890MOL0     C20056   9.569   9.031   2.179  0.0608 -0.3619 -0.5616
  890MOL0     C20057   9.591   9.181   2.164 -0.0789 -0.4013  1.3032
  890MOL0     C20058   9.608   9.218   2.010  0.0166  0.1560  0.0397
  890MOL0    Cl20059   9.768   9.176   1.946  0.4873 -0.0325  0.2579
  890MOL0     C20060   9.938   8.547   2.690 -0.0925  0.2710  0.4617
  890MOL0     C20061  10.058   8.615   2.716  0.5262  0.3550 -0.2389
  890MOL0     O20062  10.138   9.027   2.847  0.1241 -0.4489 -0.5802
  890MOL0     C20063  10.403   9.088   2.887 -0.2542  0.6917 -0.7189
  890MOL0     C20064  10.538   9.113   2.924 -0.1141  0.2539 -0.0972
  890MOL0     N20065  11.080   9.495   2.780 -0.0757 -0.4538 -0.3229
  890MOL0     N20066  11.004   9.608   2.782 -0.5438  0.3494  0.0773
  890MOL0     C20067   9.722   9.965   2.853 -0.0701 -0.2386 -0.8056
  890MOL0     C20068   9.584   9.930   2.843 -0.0070  0.7199 -0.3074
  890MOL0     C20069   9.220   9.640   2.860  0.2243 -0.0344 -0.2723
  890MOL0     C20070   9.138   9.709   2.769  0.2583  1.0722  0.9987
  890MOL0     C20071   9.034   9.640   2.709  0.0761 -0.1905  0.1313
  890MOL0     C20072   8.994   9.507   2.745 -0.7062  0.6207 -0.1879
  890MOL0     O20073   8.900   9.429   2.683 -0.9699  0.2483 -0.9895
  890MOL0     C20074   8.824   9.483   2.582  0.1141 -1.0245  0.1031
  890MOL0     C20075   8.702   9.404   2.536  0.0658  0.0471 -0.1904
  890MOL0     C20076   8.573   9.461   2.603 -0.8586 -0.0720  1.4103
  890MOL0     C20077   8.444   9.391   2.555  0.0769  0.7230 -0.1212
  890MOL0     C20078   8.438   9.256   2.617  0.6600  0.1577  0.3767
  890MOL0     C20079   8.404   9.155   2.660 -0.0238  0.3665 -0.4103
  890MOL0     C20080   9.076   9.445   2.841  0.3495  0.7507 -0.2198
  890MOL0     C20081   9.187   9.510   2.904  0.6062  0.1158  0.8825
  890MOL0     C20082   9.285   9.427   2.988 -0.4298 -0.7039  0.4748
  890MOL0     H20083   9.616   9.602   2.799  1.5550  0.3950 -3.0589
  890MOL0     H20084   9.849   9.647   2.848 -1.2524 -0.3773  1.2758
  890MOL0     H20085  10.020   9.758   2.988  0.1229  0.0170 -0.5414
  890MOL0     H20086  10.073   9.760   2.811 -2.0197 -1.7688 -0.1262
  890MOL0     H20087  10.174   9.966   3.020  3.5041 -0.0860 -0.1578
  890MOL0     H20088  10.182   9.987   2.844 -1.2359  0.8954  0.3889
  890MOL0     H20089  10.308   9.768   2.832  0.0253 -0.5376  0.6043
  890MOL0     H20090  10.323   9.757   3.001 -0.9659 -1.2223 -1.1517
  890MOL0     H20091  10.412  10.007   2.850 -1.3652  0.4259  1.5090
  890MOL0     H20092  10.424   9.975   3.024  0.4762 -2.7025  1.8241
  890MOL0     H20093  10.641   9.924   2.926  1.9052 -2.8887  5.2620
  890MOL0     H20094  10.572   9.784   2.993 -2.1548  0.2419  0.5147
  890MOL0     H20095  10.499   9.691   2.758  0.2562  0.1480 -4.1240
  890MOL0     H20096  10.545   9.847   2.697 -2.5155 -2.0342 -0.4660
  890MOL0     H20097  10.766   9.800   2.709  0.8257 -1.2115  1.7587
  890MOL0     H20098  10.701   9.650   2.653  1.5754  0.6819  0.1513
  890MOL0     H20099  10.830   9.731   2.909 -1.1247 -0.1146 -0.8360
  890MOL0     H20100  10.709   9.605   2.929 -1.8513  0.4342 -0.9099
  890MOL0     H20101  10.772   9.369   2.813 -0.9327  1.5124 -1.4687
  890MOL0     H20102  10.962   9.177   2.761 -2.4962  0.2090  1.7957
  890MOL0     H20103  11.135   9.223   2.787  0.3320  1.7702 -1.3548
  890MOL0     H20104  11.104   9.253   3.015  0.7177 -0.7854 -1.0310
  890MOL0     H20105  10.926   9.256   3.014  1.2436  2.6182  2.1515
  890MOL0     H20106  11.006   9.032   3.092 -0.5479  0.6627  0.4752
  890MOL0     H20107  11.102   9.019   2.937 -1.3982 -2.6836  0.6752
  890MOL0     H20108  10.888   8.874   2.970  4.2027 -0.5103  0.8951
  890MOL0     H20109  10.884   8.980   2.825 -1.9511  1.9601  0.5555
  890MOL0     H20110  10.666   8.809   2.868  1.5111  1.5887  0.2509
  890MOL0     H20111  10.441   8.776   2.782 -0.5505  0.1574  0.9871
  890MOL0     H20112   9.928   8.924   2.750  0.8417 -0.1780 -0.6503
  890MOL0     H20113   9.732   8.813   2.731 -0.9314 -0.3592 -1.8704
  890MOL0     H20114   9.478   8.561   2.713 -1.1291  1.8680 -1.3525
  890MOL0     H20115   9.569   8.710   2.744  1.8842 -1.0865  1.4732
  890MOL0     H20116   9.567   8.568   2.472  1.6821  1.4655 -2.2545
  890MOL0     H20117   9.428   8.666   2.525 -0.2094  1.7126  3.9759
  890MOL0     H20118   9.598   8.859   2.559  3.1377  1.8436 -1.6052
  890MOL0     H20119   9.712   8.763   2.465  0.7349  0.9092  0.7740
  890MOL0     H20120   9.430   8.822   2.350  0.5561  0.0613 -3.0803
  890MOL0     H20121   9.566   8.769   2.260  2.2954 -0.8679  1.3872
  890MOL0     H20122   9.686   8.993   2.353 -0.2967  2.3094 -1.5089
  890MOL0     H20123   9.528   9.048   2.377  0.0686  1.2400 -0.4840
  890MOL0     H20124   9.643   8.976   2.119  1.8778 -1.0557  2.1509
  890MOL0     H20125   9.467   9.020   2.142 -1.1974  2.5733  1.6442
  890MOL0     H20126   9.672   9.215   2.229 -1.0636 -1.2415  3.0434
  890MOL0     H20127   9.505   9.243   2.192  0.0793 -0.4360  1.8795
  890MOL0     H20128   9.526   9.169   1.957 -1.4316  3.1331 -0.6470
  890MOL0     H20129   9.596   9.326   2.000  0.2882  0.1658 -0.1804
  890MOL0     H20130   9.927   8.448   2.647  0.1595  0.9274 -1.1900
  890MOL0     H20131  10.144   8.551   2.702  1.3269  1.8292 -2.5801
  890MOL0     H20132  10.332   9.168   2.905  0.0385  0.6214  0.8499
  890MOL0     H20133  10.577   9.211   2.951  2.7164 -1.1401  1.2344
  890MOL0     H20134   9.755  10.068   2.863  0.0828 -0.5043  2.2974
  890MOL0     H20135   9.522  10.018   2.852  0.9394  1.6409 -2.1879
  890MOL0     H20136   9.164   9.811   2.744  1.2352  0.3233 -1.3325
  890MOL0     H20137   8.978   9.695   2.634 -1.7753 -1.6819  0.3296
  890MOL0     H20138   8.885   9.483   2.491  0.3174 -1.9222  0.2273
  890MOL0     H20139   8.799   9.587   2.605  2.9588 -0.3284  0.4226
  890MOL0     H20140   8.714   9.298   2.560 -2.7501  0.2686  2.9855
  890MOL0     H20141   8.701   9.417   2.428 -1.4702  0.1961 -0.1799
  890MOL0     H20142   8.566   9.569   2.583  1.8507 -0.2761 -1.3596
  890MOL0     H20143   8.586   9.443   2.710  1.4256 -2.5741  0.7934
  890MOL0     H20144   8.354   9.448   2.580 -3.7146 -4.0031 -1.4024
  890MOL0     H20145   8.436   9.371   2.447 -0.1524  2.3477 -0.4233
  890MOL0     H20146   8.374   9.057   2.691  0.5461  0.1142 -0.6372
  890MOL0     H20147   9.064   9.342   2.873  2.0375  0.9711  1.2775
  890MOL0     H20148   9.277   9.325   2.948 -1.6585 -0.0071 -1.1817
  890MOL0     H20149   9.383   9.472   2.973 -1.7910  2.2727 -0.1446
  890MOL0     H20150   9.249   9.432   3.091 -0.6432 -0.2767  0.3798
  891MOL0     O20151   5.629   0.782   1.536 -0.2460 -0.6734 -0.2529
  891MOL0     C20152   5.585   0.705   1.620  0.0523  0.7632 -0.0646
  891MOL0     O20153   5.649   0.674   1.735  0.0107 -0.2223 -0.3128
  891MOL0     C20154   5.784   0.702   1.754 -0.6235  0.1535  0.3879
  891MOL0     C20155   5.883   0.670   1.654 -0.3395  0.1555 -0.4059
  891MOL0     C20156   6.015   0.723   1.679 -0.1974 -0.6571 -0.0372
  891MOL0     C20157   6.054   0.810   1.780 -0.3606 -0.3561 -0.4069
  891MOL0     O20158   6.180   0.846   1.789  0.0037  0.1588  0.1247
  891MOL0     C20159   6.198   0.982   1.834 -0.5810 -0.3337 -0.2887
  891MOL0     C20160   6.345   0.996   1.874  0.1044 -0.2390  0.9847
  891MOL0     C20161   6.443   0.963   1.758  0.5374 -0.6885  0.0792
  891MOL0     C20162   6.418   1.050   1.635 -0.0160 -0.2108  0.1510
  891MOL0     C20163   6.543   1.072   1.552 -0.8228  0.4481  0.3519
  891MOL0     C20164   6.543   1.175   1.432 -0.4553 -0.1022  0.2796
  891MOL0     C20165   6.692   1.187   1.373  0.9211 -0.5517  0.6799
  891MOL0     C20166   6.735   1.061   1.278 -0.4226  0.0392 -0.8569
  891MOL0     N20167   6.870   1.072   1.221  0.1055 -0.7860 -0.2668
  891MOL0     C20168   6.983   1.125   1.282  0.1906  0.7684 -0.5058
  891MOL0     C20169   7.062   1.167   1.184  0.0227  0.2273  0.6164
  891MOL0     C20170   7.204   1.214   1.193  0.0589  0.6222  0.0836
  891MOL0     C20171   7.296   1.129   1.102 -0.0099 -0.2941  0.0017
  891MOL0     C20172   7.444   1.170   1.101  0.2890  0.1048  0.4838
  891MOL0     C20173   7.532   1.083   1.025  0.0994  0.8022  0.4180
  891MOL0     O20174   7.662   1.143   1.027 -0.0853  0.0220 -0.3746
  891MOL0     C20175   7.773   1.079   0.986 -0.4293  0.1312  0.7645
  891MOL0     C20176   7.889   1.145   1.022  0.3594 -0.0951  0.8669
  891MOL0     C20177   8.008   1.107   0.961  0.8114  0.3250 -0.9482
  891MOL0     C20178   8.014   1.000   0.866 -0.1563 -0.1719  0.1724
  891MOL0     C20179   8.127   0.970   0.774  0.0014  0.2362  0.3761
  891MOL0     O20180   8.120   0.871   0.676  0.5844 -0.2297  0.1452
  891MOL0     C20181   8.234   0.826   0.618 -0.6803  0.1902  0.0556
  891MOL0     C20182   8.269   0.695   0.636 -0.3439 -0.0271 -0.0743
  891MOL0     C20183   8.371   0.633   0.565  0.1113 -0.2414  0.5929
  891MOL0     C20184   8.454   0.706   0.480 -0.1395 -0.3184 -0.0163
  891MOL0     O20185   8.564   0.659   0.414  0.2490 -0.3250  0.7525
  891MOL0     C20186   8.620   0.526   0.456  0.0406  0.0106  0.0336
  891MOL0     C20187   8.744   0.473   0.382  0.0082  0.5351  0.4812
  891MOL0     C20188   8.766   0.319   0.401  0.7109  0.4510 -0.1851
  891MOL0     C20189   8.905   0.274   0.353 -0.3226 -0.1656  0.1563
  891MOL0     C20190   8.927   0.118   0.362  0.5399 -0.0500 -0.6881
  891MOL0     C20191   9.061   0.071   0.315 -0.7325  0.5739 -0.5308
  891MOL0     C20192   9.104  -0.055   0.392  0.0388  0.7575  0.0483
  891MOL0     C20193   9.250  -0.091   0.354  0.5929 -0.3221  0.0415
  891MOL0    Cl20194   9.285  -0.256   0.405  0.0882  0.4510 -0.3399
  891MOL0     C20195   8.418   0.844   0.462 -0.2886  0.3713  0.4040
  891MOL0     C20196   8.306   0.904   0.523 -0.1717  0.6714 -0.0552
  891MOL0     O20197   8.233   1.034   0.802  0.0773 -0.1756  0.4928
  891MOL0     C20198   7.894   0.930   0.843  0.0408  0.3164 -0.5605
  891MOL0     C20199   7.775   0.967   0.898 -0.1556  0.3421  0.2099
  891MOL0     N20200   6.995   1.136   1.061 -0.5364 -0.1473  0.1923
  891MOL0     N20201   6.892   1.077   1.087  0.6644  0.6092  0.1459
  891MOL0     C20202   5.953   0.833   1.881 -0.9487  0.0516  0.0729
  891MOL0     C20203   5.823   0.781   1.862  0.3620  0.3587 -0.5989
  891MOL0     C20204   5.455   0.636   1.595 -0.8079  1.0049  0.0680
  891MOL0     C20205   5.427   0.520   1.663 -0.4018 -0.9365 -0.0680
  891MOL0     C20206   5.307   0.444   1.647  0.6451 -0.2951 -0.3111
  891MOL0     C20207   5.211   0.498   1.555  0.1117  0.2389  0.0801
  891MOL0     O20208   5.082   0.441   1.536 -0.4530  0.1017 -0.1941
  891MOL0     C20209   5.049   0.302   1.569  0.5193 -0.6970 -0.2811
  891MOL0     C20210   4.973   0.303   1.704 -0.6797  0.0896  0.3451
  891MOL0     C20211   4.897   0.174   1.714 -0.4026  0.2643  0.2133
  891MOL0     C20212   4.863   0.132   1.852  0.1114  0.9074 -0.4238
  891MOL0     C20213   4.763   0.213   1.918 -0.4029  0.7276 -0.6335
  891MOL0     C20214   4.689   0.290   1.971  1.0177 -0.4275  0.0312
  891MOL0     C20215   5.236   0.616   1.496 -0.4770  0.3881  0.8082
  891MOL0     C20216   5.350   0.688   1.509  0.3130 -0.6329  0.2180
  891MOL0     C20217   5.365   0.810   1.416 -0.3474  0.2319 -0.8573
  891MOL0     H20218   5.860   0.602   1.573  1.6544 -1.7105  0.4902
  891MOL0     H20219   6.089   0.706   1.603 -2.0001 -2.2439 -1.5339
  891MOL0     H20220   6.173   1.049   1.752  1.0912  0.6164 -0.0681
  891MOL0     H20221   6.145   1.020   1.922  0.2186 -1.2492  0.6234
  891MOL0     H20222   6.369   0.941   1.966 -0.7826  0.2800  1.5401
  891MOL0     H20223   6.350   1.102   1.901 -0.3516 -0.1454  0.7142
  891MOL0     H20224   6.450   0.857   1.735  2.9919 -0.4320 -0.6345
  891MOL0     H20225   6.542   0.984   1.799 -0.8903 -0.2055  3.6524
  891MOL0     H20226   6.340   1.008   1.571 -0.4683  0.1063  0.4904
  891MOL0     H20227   6.386   1.151   1.660  1.5734  0.5807 -0.8964
  891MOL0     H20228   6.626   1.107   1.614 -0.1797  1.1291 -0.8479
  891MOL0     H20229   6.569   0.979   1.499 -0.7260  0.5646  0.1933
  891MOL0     H20230   6.470   1.140   1.359  0.7652 -0.4183 -0.8303
  891MOL0     H20231   6.510   1.275   1.463  2.1351  1.1526 -0.7286
  891MOL0     H20232   6.759   1.198   1.459 -0.7570  2.8907  1.7123
  891MOL0     H20233   6.687   1.277   1.312 -2.2381 -0.9979  0.1512
  891MOL0     H20234   6.742   0.967   1.334  2.4713  0.9905  0.6173
  891MOL0     H20235   6.668   1.042   1.194 -1.0490 -1.6057 -0.0220
  891MOL0     H20236   6.995   1.110   1.389  2.6786 -2.2916 -1.0567
  891MOL0     H20237   7.196   1.316   1.155 -1.4401  0.4990  0.0037
  891MOL0     H20238   7.253   1.212   1.291 -1.5491  0.4499  0.9115
  891MOL0     H20239   7.290   1.027   1.142  0.1909 -0.8236 -1.2590
  891MOL0     H20240   7.257   1.125   1.000 -2.4996  0.1199  0.8628
  891MOL0     H20241   7.488   1.177   1.200  0.7392 -0.1607  0.3054
  891MOL0     H20242   7.445   1.265   1.047 -1.3166 -0.2955 -0.3167
  891MOL0     H20243   7.493   1.065   0.925  0.9753 -0.1551  0.2246
  891MOL0     H20244   7.543   0.988   1.079 -0.6745  0.0985 -0.6409
  891MOL0     H20245   7.883   1.222   1.097  1.4591  0.1921  0.6766
  891MOL0     H20246   8.088   1.178   0.978  1.1048 -0.2425  0.0703
  891MOL0     H20247   8.205   0.648   0.710 -0.0359 -1.7360 -0.8498
  891MOL0     H20248   8.396   0.529   0.583 -0.5890 -0.9204 -1.9563
  891MOL0     H20249   8.639   0.539   0.563  0.5986 -0.9227  0.0641
  891MOL0     H20250   8.538   0.455   0.444  1.1131 -1.0374 -1.5390
  891MOL0     H20251   8.733   0.505   0.278  0.4574  0.2090  0.3308
  891MOL0     H20252   8.834   0.526   0.415  1.4823 -1.5779  0.0379
  891MOL0     H20253   8.748   0.305   0.508 -0.1552  3.4417  0.1515
  891MOL0     H20254   8.682   0.270   0.351 -0.1035  0.9814  0.6256
  891MOL0     H20255   8.982   0.323   0.413 -0.0078 -2.1672  1.5024
  891MOL0     H20256   8.907   0.303   0.248 -0.6192  0.9347  0.4502
  891MOL0     H20257   8.851   0.057   0.314  0.6654 -1.5506  0.9143
  891MOL0     H20258   8.910   0.100   0.469 -2.0645  1.1262 -0.8311
  891MOL0     H20259   9.053   0.044   0.210  0.0602 -2.0649  0.0090
  891MOL0     H20260   9.130   0.154   0.334 -0.6454  0.5502 -0.7451
  891MOL0     H20261   9.038  -0.138   0.365 -3.8800  2.5305  3.1660
  891MOL0     H20262   9.091  -0.042   0.500  2.3078  2.9533  0.1594
  891MOL0     H20263   9.253  -0.073   0.246  1.3790  0.6250  0.2075
  891MOL0     H20264   9.317  -0.021   0.404 -2.0036  1.6103  1.0736
  891MOL0     H20265   8.479   0.904   0.395  0.2881 -0.8264 -0.1656
  891MOL0     H20266   8.275   1.006   0.504  1.3364  1.0003 -0.9245
  891MOL0     H20267   7.886   0.851   0.769  0.0364  1.2374 -1.5762
  891MOL0     H20268   7.684   0.909   0.882  1.4454 -2.3082  0.1057
  891MOL0     H20269   5.981   0.897   1.964 -0.0958  1.9063 -1.5545
  891MOL0     H20270   5.753   0.814   1.938  0.2068 -2.8324  0.7834
  891MOL0     H20271   5.499   0.479   1.733  1.0966  3.3533  1.2193
  891MOL0     H20272   5.276   0.364   1.714 -2.7431  0.6542 -0.5192
  891MOL0     H20273   5.139   0.241   1.580 -0.0765 -1.3154  1.3820
  891MOL0     H20274   4.984   0.262   1.491  0.3894 -1.6770  0.3145
  891MOL0     H20275   4.902   0.385   1.717 -2.4804 -1.4498  0.6870
  891MOL0     H20276   5.051   0.313   1.780  0.9160 -0.4805 -1.1468
  891MOL0     H20277   4.957   0.099   1.662  0.2925  2.1401 -1.8640
  891MOL0     H20278   4.813   0.195   1.646  0.2381 -0.4865 -0.8419
  891MOL0     H20279   4.821   0.031   1.844  0.1053  0.9363 -0.7489
  891MOL0     H20280   4.947   0.125   1.922 -0.2188  1.6031  0.0559
  891MOL0     H20281   4.620   0.358   2.017  2.1211  0.8419 -0.1323
  891MOL0     H20282   5.154   0.643   1.430 -0.3253 -1.7813 -0.3627
  891MOL0     H20283   5.403   0.775   1.320  0.5781 -2.3401  0.3591
  891MOL0     H20284   5.271   0.862   1.392  0.6356  2.2077 -0.5874
  891MOL0     H20285   5.428   0.890   1.456 -0.4977  0.2295 -0.6098
  892MOL0     O20286   8.530   0.384  10.136  0.0959  0.0017 -0.3890
  892MOL0     C20287   8.550   0.324  10.241  0.7153  0.9974 -0.2319
  892MOL0     O20288   8.676   0.301  10.292  0.5601  0.0244  0.1919
  892MOL0     C20289   8.781   0.372  10.235  0.6413 -0.4378 -0.7500
  892MOL0     C20290   8.845   0.458  10.322 -0.9840 -0.0996  0.5631
  892MOL0     C20291   8.951   0.536  10.277  0.3032 -0.1059  0.3091
  892MOL0     C20292   8.994   0.537  10.141 -0.2040 -0.1743  0.3663
  892MOL0     O20293   9.095   0.620  10.092 -0.2316  0.3198  0.1727
  892MOL0     C20294   9.166   0.713  10.184  0.8374 -0.1868  0.0824
  892MOL0     C20295   9.279   0.771  10.103  0.6720 -0.1365 -0.4705
  892MOL0     C20296   9.230   0.885  10.012 -0.1754 -0.0659 -0.3318
  892MOL0     C20297   9.321   0.912   9.894 -0.1001 -1.1838 -0.1340
  892MOL0     C20298   9.255   0.833   9.773 -0.3404 -0.3318  0.5763
  892MOL0     C20299   9.133   0.906   9.710  0.4799  0.9147 -0.4369
  892MOL0     C20300   9.192   1.022   9.628 -0.1580  0.9484  0.3393
  892MOL0     C20301   9.081   1.094   9.553  1.3668 -1.2151 -0.9438
  892MOL0     N20302   9.136   1.226   9.515  0.1994 -0.2320 -1.3753
  892MOL0     C20303   9.248   1.256   9.441 -0.3726  0.3499  0.2542
  892MOL0     C20304   9.266   1.394   9.462  0.7480 -0.2471 -0.3139
  892MOL0     C20305   9.360   1.494   9.413 -0.0226  1.1260  0.5547
  892MOL0     C20306   9.501   1.436   9.395 -0.5847 -0.8904  0.3703
  892MOL0     C20307   9.584   1.537   9.322  0.1006 -1.0482 -0.7154
  892MOL0     C20308   9.732   1.505   9.296  0.9857  0.7108  0.2072
  892MOL0     O20309   9.796   1.606   9.221 -0.1868 -0.0097 -0.3359
  892MOL0     C20310   9.928   1.582   9.183  0.4077 -0.4881 -0.6994
  892MOL0     C20311  10.004   1.495   9.258  0.5841 -0.2536  0.2934
  892MOL0     C20312  10.137   1.475   9.227 -0.8263 -0.0671 -0.3991
  892MOL0     C20313  10.200   1.536   9.125 -0.5335  0.0767  0.2226
  892MOL0     C20314  10.341   1.512   9.095  0.0642  0.2264  0.6903
  892MOL0     O20315  10.386   1.587   8.989  0.2126  0.0847 -0.6537
  892MOL0     C20316  10.519   1.581   8.960  0.2544  0.7279  0.9938
  892MOL0     C20317  10.598   1.459   8.949 -0.5875 -0.3837 -0.2746
  892MOL0     C20318  10.739   1.461   8.920 -0.0146 -0.6433 -0.2019
  892MOL0     C20319  10.796   1.583   8.894 -0.0099 -0.5529  0.7214
  892MOL0     O20320  10.933   1.583   8.863  0.1617 -0.1779  0.0743
  892MOL0     C20321  11.004   1.710   8.885  0.1364  0.0651 -0.2496
  892MOL0     C20322  11.154   1.682   8.897  0.5005  0.2879 -0.3264
  892MOL0     C20323  11.205   1.615   9.026  0.2618 -0.8773  0.4133
  892MOL0     C20324  11.345   1.585   8.999 -1.0693 -0.3239 -0.0307
  892MOL0     C20325  11.392   1.469   9.077 -0.4528 -0.2215  1.2032
  892MOL0     C20326  11.541   1.452   9.050  0.6807  0.1980 -0.3335
  892MOL0     C20327  11.594   1.332   9.127  0.2272  0.7910  0.4237
  892MOL0     C20328  11.744   1.323   9.099 -0.4029  0.0790  0.0059
  892MOL0    Cl20329  11.838   1.463   9.168 -0.5621  0.3295  0.4750
  892MOL0     C20330  10.723   1.701   8.887 -0.1130 -0.3484 -0.8000
  892MOL0     C20331  10.587   1.701   8.921 -0.7907  0.9242 -0.6708
  892MOL0     O20332  10.407   1.438   9.166  0.3253 -0.4202  0.5187
  892MOL0     C20333  10.131   1.643   9.057  0.3548  0.6442 -0.3923
  892MOL0     C20334   9.998   1.666   9.096 -0.6660 -0.5029  0.5476
  892MOL0     N20335   9.181   1.424   9.570  0.1993 -0.0823  0.3606
  892MOL0     N20336   9.102   1.328   9.591 -0.4539  0.0887  0.4191
  892MOL0     C20337   8.936   0.445  10.055  0.4421 -0.1257  0.1526
  892MOL0     C20338   8.826   0.364  10.105  0.0961  0.0696 -0.0110
  892MOL0     C20339   8.438   0.254  10.310  0.2998 -0.5076  0.0253
  892MOL0     C20340   8.454   0.212  10.448 -0.2951 -0.2284 -0.4951
  892MOL0     C20341   8.345   0.154  10.521  0.0619 -0.4394  1.2991
  892MOL0     C20342   8.219   0.136  10.464 -0.5626 -0.0668  0.3163
  892MOL0     O20343   8.127   0.088  10.553  0.0478 -0.5224  0.7164
  892MOL0     C20344   7.992   0.065  10.500 -0.6150 -0.9620  0.4109
  892MOL0     C20345   7.902   0.057  10.628  0.1800 -0.3150 -0.1059
  892MOL0     C20346   7.759  -0.006  10.592 -0.1858  0.3609  0.0823
  892MOL0     C20347   7.683   0.075  10.476  0.9146 -0.3108 -0.3972
  892MOL0     C20348   7.538   0.049  10.482  1.1994 -0.2253 -0.0758
  892MOL0     C20349   7.415   0.053  10.490 -0.2921 -0.2174  0.3987
  892MOL0     C20350   8.207   0.169  10.327  0.2553  0.0635  0.3005
  892MOL0     C20351   8.312   0.217  10.250 -0.1709  0.1226  0.5932
  892MOL0     C20352   8.289   0.230  10.101 -0.2882  0.3331  0.1035
  892MOL0     H20353   8.804   0.472  10.422 -0.4540  1.1837  0.6210
  892MOL0     H20354   9.004   0.608  10.338  1.0941  0.3557 -0.8746
  892MOL0     H20355   9.102   0.799  10.206 -0.2020 -0.7457 -0.6909
  892MOL0     H20356   9.199   0.677  10.282  1.2255  0.6037  0.2506
  892MOL0     H20357   9.317   0.685  10.047 -0.0108 -0.8621  0.1472
  892MOL0     H20358   9.361   0.798  10.171  1.6213 -5.4527  0.9924
  892MOL0     H20359   9.213   0.967  10.082 -1.7740 -0.2728 -0.4586
  892MOL0     H20360   9.131   0.859   9.975 -0.5231 -1.3960  1.3991
  892MOL0     H20361   9.330   1.019   9.874  3.5365 -1.2600  0.3649
  892MOL0     H20362   9.424   0.881   9.915 -0.3767 -2.8081 -1.0559
  892MOL0     H20363   9.328   0.816   9.693 -0.6490 -2.5708  0.7046
  892MOL0     H20364   9.239   0.731   9.807  1.1575 -1.5798 -2.1593
  892MOL0     H20365   9.063   0.850   9.646  1.2967  0.0153 -0.5647
  892MOL0     H20366   9.068   0.942   9.790 -0.4302  0.8959 -1.1508
  892MOL0     H20367   9.280   0.992   9.570  0.2758 -2.1450  2.3353
  892MOL0     H20368   9.228   1.092   9.705  0.6688  2.3812 -1.2889
  892MOL0     H20369   9.046   1.042   9.464  1.5493 -0.2492 -1.5954
  892MOL0     H20370   8.987   1.099   9.609  0.0494  0.0766 -3.1301
  892MOL0     H20371   9.308   1.194   9.375 -1.1089  2.7034 -2.8864
  892MOL0     H20372   9.323   1.513   9.311 -0.6508 -1.5337  0.2164
  892MOL0     H20373   9.357   1.586   9.472  0.9136  1.4183  0.1607
  892MOL0     H20374   9.541   1.416   9.494  1.1328 -3.9054 -0.7721
  892MOL0     H20375   9.485   1.343   9.338  2.4903 -2.8495  2.3982
  892MOL0     H20376   9.587   1.638   9.365 -2.1908 -0.1958 -2.3352
  892MOL0     H20377   9.538   1.550   9.224  1.1433 -0.6694 -1.1644
  892MOL0     H20378   9.742   1.414   9.236  0.4322  1.4288 -1.0078
  892MOL0     H20379   9.779   1.485   9.393  1.6889 -1.0145 -0.4499
  892MOL0     H20380   9.971   1.423   9.332 -0.2685 -2.9004 -2.4312
  892MOL0     H20381  10.204   1.409   9.282  1.0032  1.1461 -1.0544
  892MOL0     H20382  10.546   1.369   8.980 -1.4193  0.2044  0.0780
  892MOL0     H20383  10.803   1.374   8.925  1.7356  0.3122 -3.0531
  892MOL0     H20384  10.996   1.772   8.795  3.2988 -1.2734 -1.5826
  892MOL0     H20385  10.979   1.770   8.974  1.0818 -0.5196  0.4280
  892MOL0     H20386  11.187   1.624   8.810 -0.1751  2.1471 -1.9018
  892MOL0     H20387  11.190   1.785   8.896 -0.6595  0.7029 -1.0407
  892MOL0     H20388  11.200   1.685   9.110 -0.4508  1.5795 -1.5680
  892MOL0     H20389  11.140   1.527   9.030 -0.3184 -0.4837 -0.2321
  892MOL0     H20390  11.412   1.670   9.015 -0.1608 -0.1415 -3.8133
  892MOL0     H20391  11.358   1.555   8.895  0.8256  0.7208 -0.1390
  892MOL0     H20392  11.345   1.376   9.044  1.6724  0.0185 -3.1649
  892MOL0     H20393  11.383   1.478   9.186 -0.5031 -3.9032  1.6423
  892MOL0     H20394  11.547   1.432   8.943 -2.7356  1.0395 -0.8145
  892MOL0     H20395  11.599   1.540   9.079  0.0924 -0.2597  2.5459
  892MOL0     H20396  11.549   1.242   9.086 -0.9994  0.6758  1.9452
  892MOL0     H20397  11.580   1.335   9.236 -0.2898  1.3465  0.3462
  892MOL0     H20398  11.793   1.237   9.145 -0.0857 -0.0517 -0.5726
  892MOL0     H20399  11.758   1.304   8.992  1.7984  1.7069 -0.0642
  892MOL0     H20400  10.773   1.796   8.874  0.1828 -0.3531  0.2293
  892MOL0     H20401  10.543   1.799   8.937 -1.6216  0.1077  2.9760
  892MOL0     H20402  10.191   1.699   8.986  0.7298 -2.0737 -2.3602
  892MOL0     H20403   9.949   1.757   9.062 -1.0167 -0.1500  1.9486
  892MOL0     H20404   8.967   0.433   9.952 -0.2873  0.2147 -0.1141
  892MOL0     H20405   8.780   0.280  10.053 -2.5192  2.0848 -1.1944
  892MOL0     H20406   8.543   0.233  10.506 -0.2491 -1.5675 -0.0452
  892MOL0     H20407   8.347   0.123  10.625 -0.5444  0.6700  1.6594
  892MOL0     H20408   7.983  -0.021  10.432  0.0703 -1.5625  1.0655
  892MOL0     H20409   7.965   0.151  10.438  0.3227 -0.7634  0.2677
  892MOL0     H20410   7.878   0.152  10.677 -1.0740 -0.5586 -0.2124
  892MOL0     H20411   7.947  -0.005  10.706 -2.7986 -0.2174  1.8457
  892MOL0     H20412   7.696  -0.014  10.681  1.3237 -2.1520  1.0129
  892MOL0     H20413   7.769  -0.112  10.568 -2.7888 -0.0460  0.5181
  892MOL0     H20414   7.692   0.181  10.501 -0.1723 -0.7267  2.1200
  892MOL0     H20415   7.728   0.056  10.378  2.3853  2.2624 -0.3120
  892MOL0     H20416   7.308   0.059  10.492 -0.3742 -0.5802 -1.3911
  892MOL0     H20417   8.113   0.143  10.279  0.2692 -0.0162  0.3145
  892MOL0     H20418   8.188   0.207  10.067 -0.3505  0.9550 -0.1599
  892MOL0     H20419   8.310   0.332  10.065 -0.9997  0.1382 -0.9146
  892MOL0     H20420   8.368   0.167  10.059  1.5604  1.8785  1.0978
  893MOL0     O20421   4.225   3.991   4.050 -0.0169  0.0349  0.3586
  893MOL0     C20422   4.213   4.017   3.927 -0.0477  0.5725 -0.1601
  893MOL0     O20423   4.308   3.995   3.831  0.3562  0.5841  0.2059
  893MOL0     C20424   4.433   3.942   3.866 -0.8360  0.1406  0.2285
  893MOL0     C20425   4.505   3.978   3.985 -0.6639  0.8287 -0.2389
  893MOL0     C20426   4.623   3.916   4.014 -0.7577 -0.0657  0.4064
  893MOL0     C20427   4.676   3.815   3.927  1.1616  0.4546 -0.0559
  893MOL0     O20428   4.802   3.756   3.929  0.3282  0.6700 -0.4368
  893MOL0     C20429   4.858   3.740   4.064  0.6234 -0.3503 -0.4053
  893MOL0     C20430   4.981   3.832   4.066 -0.3413  0.5882 -0.5019
  893MOL0     C20431   5.089   3.777   3.967 -0.3755 -1.4290 -0.8338
  893MOL0     C20432   5.204   3.874   3.946  0.1634  0.4494 -0.4751
  893MOL0     C20433   5.322   3.823   3.862  0.1736 -0.2843 -0.5209
  893MOL0     C20434   5.424   3.727   3.936 -0.2049  0.2410 -0.0713
  893MOL0     C20435   5.525   3.666   3.828  0.2619  0.2351  0.9088
  893MOL0     C20436   5.649   3.596   3.888 -0.9592  0.1984  0.3081
  893MOL0     N20437   5.753   3.561   3.786  0.0001  0.4108 -0.5996
  893MOL0     C20438   5.780   3.442   3.732  0.2045  0.8991 -0.6889
  893MOL0     C20439   5.879   3.457   3.648  0.0676  0.0574  0.3762
  893MOL0     C20440   5.950   3.355   3.568 -0.5204  0.0698 -0.4338
  893MOL0     C20441   6.096   3.382   3.583  0.0323  0.2338  0.2781
  893MOL0     C20442   6.179   3.257   3.529 -1.0078  0.2814  0.8787
  893MOL0     C20443   6.323   3.273   3.583  0.2151 -0.7738 -1.1360
  893MOL0     O20444   6.399   3.157   3.538 -0.3896  0.4258  0.2888
  893MOL0     C20445   6.539   3.150   3.569  0.2280 -0.9034 -0.4085
  893MOL0     C20446   6.619   3.256   3.613  0.9030  0.0875 -0.5265
  893MOL0     C20447   6.755   3.232   3.630  1.2451 -0.2487  0.7107
  893MOL0     C20448   6.811   3.106   3.608 -0.9178 -0.6252 -0.1785
  893MOL0     C20449   6.948   3.082   3.660  0.2734 -0.1629 -0.4115
  893MOL0     O20450   7.003   3.194   3.702  0.1219 -0.1428  0.5123
  893MOL0     C20451   7.137   3.202   3.735  0.9549  0.2206  0.2325
  893MOL0     C20452   7.175   3.189   3.871  0.4800  0.5858 -0.6044
  893MOL0     C20453   7.307   3.194   3.908  1.0579  0.2561  0.0458
  893MOL0     C20454   7.397   3.215   3.812 -0.5132  0.2397  0.0426
  893MOL0     O20455   7.530   3.235   3.844 -0.6012  0.0494  0.3241
  893MOL0     C20456   7.621   3.129   3.807  0.1193  0.4340  0.0033
  893MOL0     C20457   7.744   3.111   3.887 -0.3471  0.1809 -0.4337
  893MOL0     C20458   7.847   3.018   3.816 -0.7651  0.3475 -0.0510
  893MOL0     C20459   7.983   3.030   3.897  0.6087  0.0926  0.5611
  893MOL0     C20460   8.095   2.948   3.830 -0.3189 -0.1932  0.5110
  893MOL0     C20461   8.224   2.994   3.897  0.3908 -0.4899  0.3474
  893MOL0     C20462   8.333   2.894   3.864  0.4574 -0.1729  0.4509
  893MOL0     C20463   8.466   2.919   3.943  0.2087 -0.4674  0.4503
  893MOL0    Cl20464   8.577   2.785   3.919  0.1388  0.1186  0.0073
  893MOL0     C20465   7.361   3.213   3.673 -0.3090 -0.6549 -0.6130
  893MOL0     C20466   7.234   3.210   3.636 -0.7669  0.1789 -0.3376
  893MOL0     O20467   7.001   2.970   3.642 -0.1062 -0.7058  0.4675
  893MOL0     C20468   6.723   3.002   3.571 -0.2198 -0.6086  0.4975
  893MOL0     C20469   6.589   3.030   3.548  0.0078  0.6338 -0.2901
  893MOL0     N20470   5.906   3.597   3.641 -0.6116 -0.3128  0.3205
  893MOL0     N20471   5.832   3.660   3.727  0.7084  0.1173 -0.4424
  893MOL0     C20472   4.602   3.784   3.810 -0.6556 -0.3729 -0.3218
  893MOL0     C20473   4.489   3.846   3.778  0.8227 -0.1230  0.3419
  893MOL0     C20474   4.076   4.055   3.875  0.6284  0.7847  0.2960
  893MOL0     C20475   4.056   4.054   3.734  0.0538 -0.4673  1.0250
  893MOL0     C20476   3.933   4.090   3.679  0.0167 -0.2937 -0.5815
  893MOL0     C20477   3.815   4.111   3.758 -0.2909 -0.0736 -0.5385
  893MOL0     O20478   3.701   4.152   3.691  0.0440  0.1305 -0.3917
  893MOL0     C20479   3.586   4.143   3.769  0.8480  0.4994  0.2713
  893MOL0     C20480   3.461   4.155   3.673 -0.4643 -0.0535  0.8499
  893MOL0     C20481   3.469   4.298   3.628  0.0609 -0.1244  0.4539
  893MOL0     C20482   3.375   4.319   3.505 -0.1849  1.1506 -0.6675
  893MOL0     C20483   3.237   4.301   3.544 -0.0739 -0.0626  0.8668
  893MOL0     C20484   3.116   4.301   3.575 -0.1362 -0.7896  0.4528
  893MOL0     C20485   3.832   4.106   3.901  0.3653 -0.2547 -0.0186
  893MOL0     C20486   3.957   4.078   3.952  1.1891 -0.1508  0.1389
  893MOL0     C20487   3.961   4.080   4.106 -0.3795 -0.1934  0.0459
  893MOL0     H20488   4.460   4.042   4.059  0.7111  1.2280  0.2903
  893MOL0     H20489   4.681   3.937   4.104 -0.4497  1.0191 -0.0402
  893MOL0     H20490   4.784   3.767   4.140 -0.4225  0.1829 -1.5851
  893MOL0     H20491   4.876   3.635   4.088 -0.1935 -0.1430  1.2873
  893MOL0     H20492   5.032   3.832   4.163 -0.7360 -1.4165 -0.2579
  893MOL0     H20493   4.939   3.928   4.034 -1.3348  0.4892  0.4493
  893MOL0     H20494   5.043   3.745   3.873 -0.1393 -3.1271 -0.4095
  893MOL0     H20495   5.124   3.683   4.011  2.1919 -0.3168 -0.2837
  893MOL0     H20496   5.166   3.962   3.893  1.2155  0.3151 -1.4847
  893MOL0     H20497   5.242   3.902   4.045 -2.5358 -1.8173  1.3781
  893MOL0     H20498   5.284   3.784   3.767 -2.8872 -0.5722  0.6875
  893MOL0     H20499   5.371   3.919   3.847 -0.4092  0.4475  1.7759
  893MOL0     H20500   5.481   3.789   4.006  1.1362 -0.7846 -0.2113
  893MOL0     H20501   5.369   3.645   3.983 -0.4784  1.2290  1.4054
  893MOL0     H20502   5.561   3.753   3.772 -0.0658 -2.2081 -3.5339
  893MOL0     H20503   5.485   3.597   3.754  0.1683  1.8911 -0.6459
  893MOL0     H20504   5.697   3.666   3.957 -0.9745 -1.0072  1.5756
  893MOL0     H20505   5.614   3.511   3.947 -0.4494 -0.0677  0.2332
  893MOL0     H20506   5.737   3.343   3.746  1.6929  0.4162  0.8356
  893MOL0     H20507   5.933   3.256   3.611  0.9629  0.7134  1.7836
  893MOL0     H20508   5.927   3.346   3.461 -0.0737 -3.4875 -0.3486
  893MOL0     H20509   6.122   3.475   3.531  2.3108 -0.3836  0.1855
  893MOL0     H20510   6.119   3.403   3.688  2.1733 -0.2902 -0.0332
  893MOL0     H20511   6.187   3.250   3.420 -1.0290  0.0715  0.8910
  893MOL0     H20512   6.133   3.167   3.571 -1.2685  2.0331  4.7362
  893MOL0     H20513   6.319   3.287   3.691 -1.3645  2.7574 -1.5083
  893MOL0     H20514   6.365   3.371   3.561  0.2911  0.5226  3.6233
  893MOL0     H20515   6.577   3.354   3.633  2.1754  0.9957 -2.0234
  893MOL0     H20516   6.815   3.317   3.662 -1.0680  2.2695 -1.1995
  893MOL0     H20517   7.094   3.183   3.942 -0.1461 -0.2096 -1.3719
  893MOL0     H20518   7.346   3.196   4.009  2.1885 -0.7199 -0.3476
  893MOL0     H20519   7.574   3.031   3.802 -2.3906  1.5962 -2.5511
  893MOL0     H20520   7.641   3.145   3.700  2.0525  0.6122  0.3589
  893MOL0     H20521   7.795   3.206   3.906  0.1571  0.6858 -3.6655
  893MOL0     H20522   7.706   3.083   3.985  0.2937 -0.6612 -0.4109
  893MOL0     H20523   7.802   2.920   3.804  0.7974 -0.3353 -0.6319
  893MOL0     H20524   7.871   3.045   3.713  2.6426  1.1234  0.8069
  893MOL0     H20525   7.971   2.998   4.001  1.6157 -0.5856  0.4859
  893MOL0     H20526   8.011   3.136   3.892  1.1289 -0.0947 -2.0130
  893MOL0     H20527   8.108   2.975   3.725  0.6711  1.3357  0.9931
  893MOL0     H20528   8.080   2.840   3.835 -2.3870  0.0836  0.9551
  893MOL0     H20529   8.254   3.096   3.872 -2.8492  0.0892 -1.7210
  893MOL0     H20530   8.210   2.975   4.004  1.5212 -1.0473  0.4027
  893MOL0     H20531   8.349   2.907   3.757 -0.9284  2.7906  0.5030
  893MOL0     H20532   8.288   2.797   3.886 -1.7127  1.0173  1.6200
  893MOL0     H20533   8.514   3.013   3.913  0.6746 -1.1431 -1.0119
  893MOL0     H20534   8.444   2.921   4.050  1.4397  0.5624  0.7175
  893MOL0     H20535   7.445   3.232   3.608  1.0773 -3.6818  0.1210
  893MOL0     H20536   7.212   3.218   3.530  2.5541  1.1846 -1.0952
  893MOL0     H20537   6.750   2.898   3.557 -1.4322 -0.6720 -1.7787
  893MOL0     H20538   6.527   2.941   3.535  0.7841 -0.2527  1.7482
  893MOL0     H20539   4.631   3.705   3.742 -0.8292 -3.8831  3.2760
  893MOL0     H20540   4.443   3.809   3.687  0.2775 -0.6779  0.8395
  893MOL0     H20541   4.132   4.034   3.660 -0.4096 -0.4306  0.5336
  893MOL0     H20542   3.908   4.094   3.573 -3.8667  1.4899  0.2283
  893MOL0     H20543   3.572   4.229   3.835 -1.1819  0.7091 -0.3410
  893MOL0     H20544   3.596   4.051   3.829  1.3663  0.7241  0.5373
  893MOL0     H20545   3.365   4.146   3.726 -0.6962 -0.9263  0.2997
  893MOL0     H20546   3.463   4.075   3.598 -0.3283  0.6666  0.0642
  893MOL0     H20547   3.568   4.327   3.593 -0.1625 -0.6032 -0.6106
  893MOL0     H20548   3.430   4.368   3.702 -2.1962  0.3370 -1.0795
  893MOL0     H20549   3.383   4.421   3.466 -0.0959  1.7624  0.9043
  893MOL0     H20550   3.392   4.246   3.426  2.1133 -1.1729  1.8012
  893MOL0     H20551   3.012   4.305   3.600 -0.2450 -0.2709 -0.0547
  893MOL0     H20552   3.741   4.110   3.959  0.1491  0.3198 -0.3920
  893MOL0     H20553   4.041   4.145   4.143  0.2782 -1.8881  1.7439
  893MOL0     H20554   3.866   4.120   4.144 -0.2553 -0.5555  0.7494
  893MOL0     H20555   3.957   3.982   4.153  1.9985  0.6399  2.2037
  894MOL0     O20556   1.757   9.080   3.502 -0.2460  0.0566  0.0923
  894MOL0     C20557   1.716   9.039   3.611  0.5847 -0.1777 -0.4475
  894MOL0     O20558   1.792   9.039   3.720  0.2265 -0.4736 -0.3326
  894MOL0     C20559   1.923   9.078   3.710 -0.2498 -0.3800 -0.2602
  894MOL0     C20560   2.017   8.986   3.755 -0.0582  1.1522  0.6062
  894MOL0     C20561   2.148   9.020   3.763 -0.3235 -0.4472  0.0990
  894MOL0     C20562   2.185   9.149   3.720  0.0022  0.0636 -0.1352
  894MOL0     O20563   2.314   9.176   3.730 -0.7192 -0.0205  0.2744
  894MOL0     C20564   2.353   9.314   3.723  0.0802 -0.0597 -0.6467
  894MOL0     C20565   2.502   9.323   3.728 -0.5126 -0.1985  0.1752
  894MOL0     C20566   2.571   9.282   3.865 -0.6012 -0.5105  0.7170
  894MOL0     C20567   2.720   9.301   3.849 -0.3918 -0.2598  0.0068
  894MOL0     C20568   2.788   9.245   3.970 -0.9445 -0.6125  0.0319
  894MOL0     C20569   2.945   9.268   3.955  0.3704 -0.4869  0.3477
  894MOL0     C20570   2.997   9.410   3.992  0.0862 -0.4654  0.6381
  894MOL0     C20571   3.153   9.415   4.021  0.6518 -0.1062  0.5473
  894MOL0     N20572   3.171   9.520   4.117 -0.3961  0.6704 -0.6654
  894MOL0     C20573   3.230   9.644   4.089 -0.0964 -0.2945  0.0770
  894MOL0     C20574   3.245   9.697   4.213  0.1184  0.2464  0.3965
  894MOL0     C20575   3.290   9.834   4.244  0.0988 -0.9269 -0.3637
  894MOL0     C20576   3.406   9.885   4.164 -0.4792 -0.4910 -0.5040
  894MOL0     C20577   3.414  10.039   4.147  1.1578 -1.0011 -1.0073
  894MOL0     C20578   3.386  10.116   4.277  0.8888 -0.9329  0.3115
  894MOL0     O20579   3.433  10.252   4.284 -0.4488 -0.4915 -0.0953
  894MOL0     C20580   3.561  10.279   4.311  0.4751  0.5944 -0.7763
  894MOL0     C20581   3.644  10.179   4.361  0.7742  0.3134  0.5813
  894MOL0     C20582   3.775  10.203   4.388 -0.0969  0.1945 -0.2367
  894MOL0     C20583   3.828  10.330   4.374  0.4858 -0.1447  0.0167
  894MOL0     C20584   3.969  10.360   4.393  0.0312  0.2539 -0.1131
  894MOL0     O20585   4.011  10.490   4.391  0.5992  0.4559 -0.2563
  894MOL0     C20586   4.144  10.503   4.429  0.0129 -0.8741  0.3074
  894MOL0     C20587   4.184  10.526   4.564  0.1000 -0.1529  0.1304
  894MOL0     C20588   4.316  10.555   4.595  0.4417 -1.2645  0.2520
  894MOL0     C20589   4.418  10.561   4.507 -0.4091 -0.6931  0.2741
  894MOL0     O20590   4.551  10.573   4.555  0.1430  0.2823 -0.2780
  894MOL0     C20591   4.650  10.620   4.463 -0.2481 -1.2365  0.5293
  894MOL0     C20592   4.786  10.609   4.528 -0.0173 -0.0649  0.1667
  894MOL0     C20593   4.907  10.668   4.453  0.1112 -0.5184 -0.3543
  894MOL0     C20594   5.026  10.681   4.552  0.2223 -1.0716  0.1727
  894MOL0     C20595   5.128  10.775   4.499  0.7144 -0.3471  0.1143
  894MOL0     C20596   5.181  10.749   4.359 -0.0058  0.0329  0.1307
  894MOL0     C20597   5.325  10.800   4.334  0.5460 -0.7254  0.4288
  894MOL0     C20598   5.352  10.808   4.174 -0.4929 -0.0414  0.3963
  894MOL0    Cl20599   5.350  10.642   4.105 -0.1103  0.8622 -0.2935
  894MOL0     C20600   4.392  10.528   4.377  0.1289 -0.6350  0.1203
  894MOL0     C20601   4.250  10.512   4.336  0.3633 -0.0034  0.0554
  894MOL0     O20602   4.032  10.265   4.428  0.2234  0.4151  1.1126
  894MOL0     C20603   3.738  10.433   4.336 -0.3441  0.1304 -1.1199
  894MOL0     C20604   3.603  10.408   4.305 -0.3769  0.2148 -0.4100
  894MOL0     N20605   3.212   9.599   4.309 -0.9391  0.3190  0.7765
  894MOL0     N20606   3.174   9.496   4.251  0.6500 -0.0167  0.1393
  894MOL0     C20607   2.092   9.244   3.680 -1.0209 -0.7850  0.7176
  894MOL0     C20608   1.954   9.208   3.672  0.6708 -0.4220 -0.6982
  894MOL0     C20609   1.583   8.977   3.600  0.5271  0.4470  0.2096
  894MOL0     C20610   1.514   8.950   3.474  0.1689  1.1083 -0.5560
  894MOL0     C20611   1.390   8.881   3.465  0.4270  0.5308 -0.1412
  894MOL0     C20612   1.316   8.868   3.576 -0.6921 -0.2273 -0.5296
  894MOL0     O20613   1.196   8.815   3.568  0.2491  0.4014 -0.3723
  894MOL0     C20614   1.131   8.754   3.456  0.2414 -0.2042  0.5283
  894MOL0     C20615   1.029   8.854   3.391  0.5975 -0.4683 -0.0132
  894MOL0     C20616   0.942   8.916   3.503 -0.0574 -1.5249  0.2715
  894MOL0     C20617   0.830   9.002   3.434 -0.0232 -0.7376 -0.0603
  894MOL0     C20618   0.733   8.930   3.348 -0.4364 -1.1020  0.1198
  894MOL0     C20619   0.648   8.870   3.285 -0.5813 -0.1262 -0.3433
  894MOL0     C20620   1.377   8.893   3.705 -0.4775 -0.0206  0.7003
  894MOL0     C20621   1.510   8.940   3.716 -0.0130 -0.4336 -0.4244
  894MOL0     C20622   1.562   8.943   3.857  0.1254  0.3344  0.2525
  894MOL0     H20623   1.999   8.886   3.793 -0.0979  1.8832  2.6238
  894MOL0     H20624   2.214   8.944   3.803  2.6203 -0.8456 -4.7502
  894MOL0     H20625   2.322   9.364   3.630  0.0156 -0.5900 -0.9140
  894MOL0     H20626   2.308   9.367   3.807  0.3095  2.1698 -1.8311
  894MOL0     H20627   2.529   9.428   3.714  0.1441 -0.7219 -3.7584
  894MOL0     H20628   2.538   9.259   3.646 -2.3979  0.6453 -1.3898
  894MOL0     H20629   2.545   9.180   3.895 -2.5880 -0.2178  0.1804
  894MOL0     H20630   2.540   9.347   3.947  1.2411  0.4866  0.6631
  894MOL0     H20631   2.762   9.249   3.762  0.0740 -1.0317  0.6782
  894MOL0     H20632   2.744   9.407   3.844  0.5588 -0.5254 -2.2949
  894MOL0     H20633   2.752   9.289   4.063 -0.7311  1.5496 -0.8467
  894MOL0     H20634   2.771   9.137   3.970 -0.9385 -0.6176  0.6375
  894MOL0     H20635   3.000   9.195   4.015  1.2588 -1.6355 -1.7685
  894MOL0     H20636   2.972   9.247   3.851  1.2229  2.7242 -0.1692
  894MOL0     H20637   2.954   9.438   4.089 -4.1254 -1.6497 -0.6882
  894MOL0     H20638   2.963   9.494   3.930  0.3652  0.4405  1.6742
  894MOL0     H20639   3.182   9.322   4.070  1.0886  0.3841  1.2372
  894MOL0     H20640   3.215   9.430   3.932  1.0020 -1.1183  0.6118
  894MOL0     H20641   3.242   9.693   3.993  1.0839  1.5107  1.0911
  894MOL0     H20642   3.202   9.898   4.233 -0.2812 -1.1664  1.0314
  894MOL0     H20643   3.313   9.839   4.351 -2.0715  1.0518  0.0830
  894MOL0     H20644   3.502   9.869   4.214 -0.8348  0.7351  0.6261
  894MOL0     H20645   3.404   9.835   4.067 -3.0378 -1.3140 -0.1018
  894MOL0     H20646   3.353  10.074   4.063  0.0631  1.2262  0.6067
  894MOL0     H20647   3.516  10.065   4.117 -0.1924  1.9009 -3.7108
  894MOL0     H20648   3.417  10.045   4.355 -0.5684 -1.3761  0.5271
  894MOL0     H20649   3.277  10.123   4.285  0.9296 -1.2678  1.2164
  894MOL0     H20650   3.623  10.072   4.370  1.3408  0.3153  2.2487
  894MOL0     H20651   3.846  10.125   4.412  1.1805  1.3868 -0.0256
  894MOL0     H20652   4.114  10.510   4.645 -1.2383 -1.9686 -1.2902
  894MOL0     H20653   4.340  10.576   4.699 -0.7773 -2.7231  0.8704
  894MOL0     H20654   4.653  10.565   4.369 -0.2912  1.1106 -0.9016
  894MOL0     H20655   4.632  10.726   4.442 -0.4331 -1.2101  0.8124
  894MOL0     H20656   4.779  10.669   4.620 -1.7584 -0.2419  0.1728
  894MOL0     H20657   4.801  10.502   4.546 -0.6570  0.2264  2.8577
  894MOL0     H20658   4.941  10.608   4.368 -0.2301 -1.5232  0.1972
  894MOL0     H20659   4.895  10.770   4.417  2.2372  1.2699  3.3928
  894MOL0     H20660   5.085  10.590   4.567 -1.0983 -1.6514  2.2373
  894MOL0     H20661   4.995  10.729   4.645 -1.9716  0.2290 -1.1356
  894MOL0     H20662   5.209  10.790   4.570 -0.5593  2.4903  1.1204
  894MOL0     H20663   5.073  10.869   4.498  0.2371 -0.6233  0.1851
  894MOL0     H20664   5.191  10.642   4.341  1.5633  0.4996 -2.1190
  894MOL0     H20665   5.110  10.802   4.295  1.5506  1.5274 -0.4114
  894MOL0     H20666   5.396  10.732   4.383 -0.0015  0.1175  2.4626
  894MOL0     H20667   5.348  10.896   4.381 -0.6586 -0.8629  1.3358
  894MOL0     H20668   5.271  10.863   4.124  0.6921  1.0016 -0.4500
  894MOL0     H20669   5.450  10.856   4.164 -0.3525 -0.1694  1.0967
  894MOL0     H20670   4.475  10.519   4.308  1.9928  0.5501  2.1035
  894MOL0     H20671   4.236  10.486   4.232  2.1780 -0.8839 -0.0093
  894MOL0     H20672   3.772  10.535   4.321 -1.7659  0.5341 -1.8585
  894MOL0     H20673   3.535  10.481   4.264  1.0048  0.3234 -2.6795
  894MOL0     H20674   2.121   9.343   3.645 -1.1846 -0.9044  0.2326
  894MOL0     H20675   1.879   9.276   3.634  0.9085 -0.7142 -1.7231
  894MOL0     H20676   1.567   8.977   3.383 -0.2812  0.5336 -0.9953
  894MOL0     H20677   1.344   8.871   3.367  0.1290 -4.0331  0.2239
  894MOL0     H20678   1.085   8.658   3.481  4.0329 -2.1118  0.8421
  894MOL0     H20679   1.205   8.723   3.382 -0.6131 -1.1863  0.0539
  894MOL0     H20680   0.965   8.800   3.321 -0.2284  1.8013 -1.1205
  894MOL0     H20681   1.088   8.928   3.336  0.5027 -0.9803 -0.8283
  894MOL0     H20682   1.000   8.984   3.566  2.9359  0.8730 -4.5047
  894MOL0     H20683   0.897   8.844   3.572 -0.7547 -0.2271  1.2108
  894MOL0     H20684   0.768   9.046   3.512  0.8142 -0.4457  0.4611
  894MOL0     H20685   0.885   9.079   3.378  1.3437 -0.0901  2.0538
  894MOL0     H20686   0.580   8.816   3.223 -1.5783  2.3515 -1.5628
  894MOL0     H20687   1.320   8.871   3.795 -0.4460  0.1943  0.7735
  894MOL0     H20688   1.565   9.045   3.898  0.3028  1.1779 -1.7496
  894MOL0     H20689   1.498   8.886   3.925  1.2771  0.0124  1.0812
  894MOL0     H20690   1.664   8.906   3.868 -1.2694 -3.4093  2.5569
  895MOL0     O20691  10.110  10.000   1.463 -0.1285 -0.8878  0.1150
  895MOL0     C20692  10.063  10.096   1.400  0.0189 -1.0150  0.7252
  895MOL0     O20693  10.078  10.229   1.436 -0.8582  0.5302 -0.3601
  895MOL0     C20694  10.182  10.271   1.518  0.1120  0.6704 -0.7657
  895MOL0     C20695  10.304  10.215   1.544  0.6278  0.0527 -0.1172
  895MOL0     C20696  10.405  10.270   1.635  1.3719  0.1965  0.6562
  895MOL0     C20697  10.377  10.390   1.691  0.8412 -0.1099  0.0104
  895MOL0     O20698  10.467  10.452   1.773 -0.3671  0.4750  0.4186
  895MOL0     C20699  10.450  10.436   1.916  1.0539 -0.0819 -0.1734
  895MOL0     C20700  10.564  10.496   2.005 -0.8252  0.2359 -0.3938
  895MOL0     C20701  10.689  10.402   1.995  0.4476  0.2836 -0.5155
  895MOL0     C20702  10.781  10.449   2.114  0.0888  0.4400  0.4948
  895MOL0     C20703  10.927  10.402   2.129  0.3776 -0.7006 -0.2920
  895MOL0     C20704  11.002  10.470   2.245  0.3337 -0.3699 -0.5868
  895MOL0     C20705  11.119  10.381   2.275  0.1638  0.3809 -0.2219
  895MOL0     C20706  11.214  10.429   2.390  0.5476 -0.2293  0.6088
  895MOL0     N20707  11.260  10.568   2.366 -0.4356  0.3977 -0.6817
  895MOL0     C20708  11.206  10.689   2.404 -0.6329  0.4885 -0.0929
  895MOL0     C20709  11.276  10.784   2.344 -0.2774  0.5815 -0.5617
  895MOL0     C20710  11.255  10.927   2.347  0.1535 -0.2121  0.3405
  895MOL0     C20711  11.330  10.991   2.459 -0.5260 -0.4335 -0.3351
  895MOL0     C20712  11.485  10.973   2.439  0.2563  0.4803  0.0155
  895MOL0     C20713  11.549  11.032   2.561 -0.0745 -0.2430 -0.9406
  895MOL0     O20714  11.690  11.042   2.555  0.4512 -0.4064 -0.7558
  895MOL0     C20715  11.759  11.079   2.669  1.2556  0.4938 -0.5251
  895MOL0     C20716  11.889  11.044   2.670 -0.9463 -1.0040 -0.0181
  895MOL0     C20717  11.972  11.078   2.779  0.1535 -0.0924  0.2976
  895MOL0     C20718  11.921  11.142   2.899  0.2890  0.3109 -0.2905
  895MOL0     C20719  11.995  11.150   3.022 -0.2184 -1.1149  0.3943
  895MOL0     O20720  12.130  11.140   3.008  0.1855 -0.5297 -0.0218
  895MOL0     C20721  12.210  11.173   3.117  0.4666 -0.1761  0.1002
  895MOL0     C20722  12.174  11.270   3.209 -0.4694 -0.1899 -0.5057
  895MOL0     C20723  12.268  11.309   3.312 -1.0854 -0.1010  1.2249
  895MOL0     C20724  12.387  11.241   3.324 -1.0353 -0.0669 -0.2409
  895MOL0     O20725  12.479  11.269   3.422 -0.3378 -0.1286 -0.1914
  895MOL0     C20726  12.440  11.260   3.560 -0.3281  0.0547  0.2799
  895MOL0     C20727  12.449  11.396   3.638 -0.1140 -0.8451  0.2530
  895MOL0     C20728  12.591  11.464   3.625 -0.1463 -0.6327  0.1627
  895MOL0     C20729  12.669  11.453   3.760 -0.5649 -0.2954 -0.2930
  895MOL0     C20730  12.818  11.502   3.769 -0.9549 -0.3187  0.2791
  895MOL0     C20731  12.912  11.424   3.680 -0.5712 -0.0066 -0.0339
  895MOL0     C20732  12.940  11.283   3.740 -0.4346  0.2900 -0.0936
  895MOL0     C20733  13.075  11.224   3.679  0.8262 -0.4171  0.3390
  895MOL0    Cl20734  13.055  11.235   3.510  0.7303 -0.3490 -0.0387
  895MOL0     C20735  12.414  11.140   3.238 -0.9516  0.7470  0.4818
  895MOL0     C20736  12.328  11.114   3.126 -1.3112  0.2420 -0.4529
  895MOL0     O20737  11.932  11.186   3.124 -0.2791 -0.4494  0.0290
  895MOL0     C20738  11.788  11.166   2.904  0.9597 -0.4743  0.6735
  895MOL0     C20739  11.707  11.131   2.794  0.4733  0.5194  0.2608
  895MOL0     N20740  11.365  10.718   2.261  0.7512 -0.6389 -0.7172
  895MOL0     N20741  11.354  10.588   2.274  0.3287  0.0995  0.7203
  895MOL0     C20742  10.251  10.446   1.674 -0.3583 -0.4748  0.4772
  895MOL0     C20743  10.156  10.392   1.586 -0.0199  0.1810 -0.0067
  895MOL0     C20744   9.969  10.074   1.287  0.5031  0.8845 -0.0420
  895MOL0     C20745   9.983  10.163   1.172 -0.0175  0.4193 -0.4703
  895MOL0     C20746   9.889  10.149   1.065 -0.0381  0.1315  0.3784
  895MOL0     C20747   9.797  10.050   1.066  0.4070  0.8016  1.3775
  895MOL0     O20748   9.716  10.037   0.956  0.0114  0.1082 -0.1568
  895MOL0     C20749   9.788   9.976   0.850 -0.8748 -0.1944 -0.3340
  895MOL0     C20750   9.717  10.005   0.729  0.2729  0.0297  0.7476
  895MOL0     C20751   9.581   9.938   0.710  0.4938  0.8195  0.7224
  895MOL0     C20752   9.530   9.961   0.563 -0.1860 -0.1673 -0.1940
  895MOL0     C20753   9.412   9.875   0.535 -0.1637  0.4270 -0.3743
  895MOL0     C20754   9.323   9.789   0.528 -0.0240  0.0589  1.2741
  895MOL0     C20755   9.785   9.962   1.171 -0.5983 -1.1145 -0.4313
  895MOL0     C20756   9.870   9.974   1.283  0.5738  0.2085  0.1886
  895MOL0     C20757   9.853   9.887   1.404 -0.0456  0.2035 -0.6983
  895MOL0     H20758  10.323  10.129   1.480  0.8384 -0.4256  0.5723
  895MOL0     H20759  10.494  10.219   1.668  1.5066  0.3369  0.5107
  895MOL0     H20760  10.358  10.485   1.948  1.8065  0.9915  0.4252
  895MOL0     H20761  10.446  10.331   1.946  0.0648  0.4484  1.6870
  895MOL0     H20762  10.526  10.497   2.107  1.1957  1.0606  0.3915
  895MOL0     H20763  10.587  10.601   1.982 -0.9491  0.3596  0.0462
  895MOL0     H20764  10.742  10.409   1.899  0.7346 -0.7331 -0.4403
  895MOL0     H20765  10.667  10.296   2.004  1.2093  0.1342 -0.2993
  895MOL0     H20766  10.790  10.558   2.119 -1.1390  0.5448  0.7031
  895MOL0     H20767  10.735  10.419   2.208 -1.7013  2.1045  0.2238
  895MOL0     H20768  10.934  10.297   2.159  2.4950 -0.5199  0.0233
  895MOL0     H20769  10.979  10.408   2.033 -1.5362 -1.1188 -1.4213
  895MOL0     H20770  11.029  10.568   2.206  0.5030 -0.0856  0.2122
  895MOL0     H20771  10.943  10.484   2.336  1.6972  0.9351  0.1393
  895MOL0     H20772  11.168  10.373   2.178  0.2564 -0.4220 -0.1136
  895MOL0     H20773  11.085  10.284   2.314  0.7349  0.4556  0.4735
  895MOL0     H20774  11.158  10.429   2.484  0.8540 -0.3976  0.7918
  895MOL0     H20775  11.295  10.356   2.404 -0.8898 -2.4564 -1.6747
  895MOL0     H20776  11.111  10.683   2.457  0.4318 -1.6137  1.7532
  895MOL0     H20777  11.273  10.978   2.252  1.2899 -2.2746 -0.6252
  895MOL0     H20778  11.148  10.943   2.363  0.0651 -0.7957  0.3560
  895MOL0     H20779  11.311  11.098   2.467  3.8682  0.3757  3.1082
  895MOL0     H20780  11.294  10.951   2.554 -4.0464  2.1029 -0.3980
  895MOL0     H20781  11.509  11.023   2.345 -0.4127  0.7651 -0.0095
  895MOL0     H20782  11.508  10.866   2.426 -0.0299  0.3981  0.1744
  895MOL0     H20783  11.535  10.969   2.650  2.2353  2.7051  1.7331
  895MOL0     H20784  11.508  11.132   2.580 -0.7609 -0.2513 -2.2643
  895MOL0     H20785  11.943  11.007   2.583  1.6624 -2.8237  2.2010
  895MOL0     H20786  12.078  11.058   2.769  0.0236 -0.3082 -0.8730
  895MOL0     H20787  12.078  11.319   3.219 -0.3310 -0.2583  1.5045
  895MOL0     H20788  12.253  11.399   3.371 -0.3968 -0.9195  2.6925
  895MOL0     H20789  12.337  11.222   3.560 -0.5149  0.5453  0.8161
  895MOL0     H20790  12.504  11.178   3.593 -1.4525 -0.5019  1.1532
  895MOL0     H20791  12.383  11.473   3.598  0.3375 -0.7234 -0.2692
  895MOL0     H20792  12.422  11.391   3.744 -2.9039  0.5497 -0.3077
  895MOL0     H20793  12.656  11.414   3.552  0.3101  0.4167 -0.1690
  895MOL0     H20794  12.592  11.568   3.591  0.7894 -0.8148 -0.4111
  895MOL0     H20795  12.678  11.347   3.783 -0.8137  0.1934  2.4456
  895MOL0     H20796  12.615  11.513   3.834  2.6462  0.1823  1.8963
  895MOL0     H20797  12.863  11.485   3.868  0.2580 -0.6372 -0.3078
  895MOL0     H20798  12.832  11.607   3.743  4.3320 -0.6109  0.8627
  895MOL0     H20799  12.879  11.420   3.575  1.4148  1.0188 -0.7560
  895MOL0     H20800  13.001  11.486   3.664  0.2288 -0.8755  0.9453
  895MOL0     H20801  12.861  11.209   3.726  0.7094 -1.5410  2.3787
  895MOL0     H20802  12.962  11.284   3.848  1.9573  0.6602 -0.5233
  895MOL0     H20803  13.155  11.288   3.719 -1.3387  1.4614  1.9055
  895MOL0     H20804  13.109  11.125   3.709  0.2288 -1.0343 -0.9656
  895MOL0     H20805  12.504  11.080   3.242 -1.1877  0.4103  0.7546
  895MOL0     H20806  12.349  11.042   3.047 -1.6321 -0.0779 -0.2530
  895MOL0     H20807  11.734  11.203   2.990  0.5462 -1.5481  0.8883
  895MOL0     H20808  11.603  11.157   2.809  0.5140  1.3809 -0.8488
  895MOL0     H20809  10.219  10.531   1.733 -1.4496  0.7901 -1.8012
  895MOL0     H20810  10.057  10.434   1.571  0.0164 -0.5458 -2.8756
  895MOL0     H20811  10.069  10.227   1.158  1.2824 -0.8066  1.4507
  895MOL0     H20812   9.890  10.219   0.982 -1.7974  1.4370  1.4005
  895MOL0     H20813   9.806   9.868   0.861  2.0131  0.1290 -1.1158
  895MOL0     H20814   9.881  10.032   0.835 -3.0601  3.1802 -2.8156
  895MOL0     H20815   9.785   9.979   0.647  1.9197  0.3963  1.9501
  895MOL0     H20816   9.714  10.113   0.715 -0.8501 -0.3931 -3.7798
  895MOL0     H20817   9.504   9.974   0.778 -0.4308 -0.5856  0.4733
  895MOL0     H20818   9.594   9.829   0.716 -0.5401  0.3575 -2.8901
  895MOL0     H20819   9.504  10.066   0.542 -4.0437 -0.3378  2.5529
  895MOL0     H20820   9.612   9.938   0.494 -0.6641  4.7606 -2.8810
  895MOL0     H20821   9.242   9.721   0.511 -0.5996  1.0356 -0.0378
  895MOL0     H20822   9.714   9.880   1.169 -0.3507 -1.4009 -3.4904
  895MOL0     H20823   9.938   9.820   1.419 -0.8114 -0.5788  0.3218
  895MOL0     H20824   9.853   9.946   1.496  0.7055  0.4459 -0.8491
  895MOL0     H20825   9.764   9.826   1.388 -0.8788  0.7713  1.3945
  896MOL0     O20826   2.662   5.749  10.092  0.5533  0.0317 -0.1850
  896MOL0     C20827   2.559   5.820  10.105  0.2260 -0.6227  0.4976
  896MOL0     O20828   2.561   5.956  10.150  0.0448  0.1698 -0.0414
  896MOL0     C20829   2.690   6.007  10.167  0.2696 -0.4527  0.0364
  896MOL0     C20830   2.778   5.961  10.264 -0.5044  0.4831 -0.2387
  896MOL0     C20831   2.905   6.021  10.264 -0.0127 -0.2787 -0.4124
  896MOL0     C20832   2.937   6.132  10.191 -0.1739  0.1139  0.5611
  896MOL0     O20833   3.065   6.183  10.204 -0.3853 -0.8831  0.4848
  896MOL0     C20834   3.086   6.315  10.147  0.2404 -0.4113 -0.7150
  896MOL0     C20835   3.228   6.359  10.195 -0.1674 -0.9616  0.5653
  896MOL0     C20836   3.344   6.279  10.131 -0.4824 -0.1581 -0.3218
  896MOL0     C20837   3.486   6.346  10.138  0.3421 -1.0623 -0.0886
  896MOL0     C20838   3.603   6.251  10.104  0.0687  0.4222 -0.3944
  896MOL0     C20839   3.741   6.314  10.090 -0.0496  0.5077  0.0853
  896MOL0     C20840   3.853   6.212  10.041  0.0157 -0.0802 -0.3718
  896MOL0     C20841   3.984   6.292  10.048  0.7229 -0.2589 -0.4394
  896MOL0     N20842   4.099   6.209   9.995  0.2535  0.0176 -0.4203
  896MOL0     C20843   4.134   6.196   9.863  0.1754 -1.1619 -0.8488
  896MOL0     C20844   4.253   6.126   9.872  0.5316 -0.3075 -0.3850
  896MOL0     C20845   4.338   6.079   9.757  0.5755 -0.2359  0.2209
  896MOL0     C20846   4.462   6.162   9.756 -0.7188 -0.0358  0.2333
  896MOL0     C20847   4.540   6.102   9.632 -0.4361  0.5183 -0.6531
  896MOL0     C20848   4.692   6.133   9.633  0.2363 -0.3841  0.5428
  896MOL0     O20849   4.753   6.099   9.762  0.4936  0.1185 -0.5262
  896MOL0     C20850   4.882   6.136   9.778 -0.0814 -0.0059  0.8001
  896MOL0     C20851   4.922   6.145   9.915 -0.3848  0.6326 -0.1554
  896MOL0     C20852   5.046   6.183   9.946 -0.1830 -0.0306  0.0330
  896MOL0     C20853   5.139   6.230   9.852  0.0367 -0.2377 -0.2900
  896MOL0     C20854   5.265   6.289   9.904 -0.4608 -0.1083  0.2034
  896MOL0     O20855   5.283   6.321  10.036 -0.7962  0.3629 -0.7456
  896MOL0     C20856   5.402   6.372  10.085 -0.2071  0.0293  0.9877
  896MOL0     C20857   5.516   6.296  10.083  0.0072 -0.4074  0.0587
  896MOL0     C20858   5.632   6.358  10.121 -1.1656 -0.4231  0.0456
  896MOL0     C20859   5.636   6.485  10.173 -0.6850 -0.0971 -0.0670
  896MOL0     O20860   5.761   6.525  10.216  0.3544 -0.3299  0.4991
  896MOL0     C20861   5.790   6.669  10.236  0.7631  0.8379  0.2530
  896MOL0     C20862   5.939   6.685  10.231 -0.6820  0.0136 -0.4752
  896MOL0     C20863   6.000   6.617  10.348 -0.0158 -0.0943 -0.5226
  896MOL0     C20864   6.138   6.557  10.324 -0.7686 -0.5560 -0.3269
  896MOL0     C20865   6.206   6.514  10.451 -0.0824  0.0356 -0.1799
  896MOL0     C20866   6.355   6.499  10.444 -0.0243 -0.0099  0.1297
  896MOL0     C20867   6.428   6.484  10.581 -0.7056 -0.5749  0.0228
  896MOL0     C20868   6.581   6.509  10.566  0.0085  0.3817  0.8012
  896MOL0    Cl20869   6.679   6.490  10.718  0.1421 -0.0338 -0.2646
  896MOL0     C20870   5.509   6.564  10.186 -0.0891  0.0852  1.2559
  896MOL0     C20871   5.396   6.500  10.129 -0.7050 -0.2361 -0.1860
  896MOL0     O20872   5.345   6.318   9.810  0.5052 -0.1193  0.2977
  896MOL0     C20873   5.100   6.232   9.718 -0.3348  0.1606  0.1007
  896MOL0     C20874   4.973   6.189   9.681 -0.0311  0.5930 -0.8598
  896MOL0     N20875   4.270   6.079   9.998 -0.3367  0.6900 -0.8659
  896MOL0     N20876   4.182   6.137  10.074  0.5908 -0.7029 -0.2695
  896MOL0     C20877   2.841   6.191  10.115  0.1490 -0.1059 -0.1815
  896MOL0     C20878   2.716   6.124  10.102  0.7285 -0.6181  0.5230
  896MOL0     C20879   2.423   5.777  10.065  0.0459  0.0813 -0.2296
  896MOL0     C20880   2.320   5.857  10.118 -0.0176  0.7143  0.6909
  896MOL0     C20881   2.181   5.830  10.087 -0.3093 -0.3367  0.3714
  896MOL0     C20882   2.150   5.731   9.998 -0.1221  0.0140  0.3343
  896MOL0     O20883   2.021   5.722   9.966  0.0356 -0.7101 -0.6373
  896MOL0     C20884   1.975   5.633   9.858  0.8960  0.3544 -0.4987
  896MOL0     C20885   1.818   5.637   9.848  0.0616 -0.6352  0.2772
  896MOL0     C20886   1.762   5.756   9.768  0.1773 -0.0167 -0.5367
  896MOL0     C20887   1.610   5.764   9.746 -0.4647  1.4675  0.8616
  896MOL0     C20888   1.581   5.830   9.622  0.7267 -0.1932  0.1210
  896MOL0     C20889   1.543   5.873   9.511  1.0162 -0.3401 -0.0279
  896MOL0     C20890   2.250   5.641   9.955  0.0935 -0.3599 -0.6727
  896MOL0     C20891   2.388   5.663   9.987  0.3164 -0.3155 -0.7663
  896MOL0     C20892   2.494   5.583   9.911  0.1502 -0.2435 -0.2429
  896MOL0     H20893   2.756   5.874  10.325 -2.1385  0.1565 -1.2194
  896MOL0     H20894   2.981   5.976  10.328  0.7299 -1.7905 -2.2682
  896MOL0     H20895   3.076   6.319  10.038  2.3593  2.1694 -0.9102
  896MOL0     H20896   3.012   6.384  10.188  1.9549  1.3296 -0.3796
  896MOL0     H20897   3.236   6.361  10.305 -1.5620 -0.6337  0.6810
  896MOL0     H20898   3.247   6.461  10.161  0.6724 -1.5877 -0.8954
  896MOL0     H20899   3.324   6.252  10.027 -3.4538 -0.2442  0.1990
  896MOL0     H20900   3.355   6.184  10.185 -1.0493 -0.0423  0.0054
  896MOL0     H20901   3.490   6.440  10.083 -4.4301  0.7745  2.0964
  896MOL0     H20902   3.502   6.377  10.242  0.5346  1.0234 -0.7152
  896MOL0     H20903   3.611   6.177  10.184  1.8519  0.0289 -0.9024
  896MOL0     H20904   3.573   6.196  10.014 -0.3907 -0.9342  0.5518
  896MOL0     H20905   3.729   6.394  10.016  0.8096 -1.1272 -1.9416
  896MOL0     H20906   3.765   6.361  10.186 -0.6787  0.0118  0.4921
  896MOL0     H20907   3.832   6.193   9.935  0.5908 -2.2892 -0.1402
  896MOL0     H20908   3.852   6.123  10.104 -2.7542  0.2546  0.1719
  896MOL0     H20909   3.979   6.379   9.981  3.1598 -1.0174 -1.7410
  896MOL0     H20910   4.002   6.321  10.152  1.6353 -2.6672  0.1347
  896MOL0     H20911   4.095   6.230   9.768  0.4862 -5.2193 -2.6753
  896MOL0     H20912   4.357   5.974   9.782 -3.0125 -0.9386  0.5168
  896MOL0     H20913   4.303   6.086   9.653  2.9026  2.7542 -0.5026
  896MOL0     H20914   4.445   6.270   9.747 -0.0274 -0.0903 -2.8499
  896MOL0     H20915   4.513   6.152   9.852  1.8202 -2.6863 -1.2498
  896MOL0     H20916   4.500   6.144   9.539  1.0149  0.6918 -1.2264
  896MOL0     H20917   4.528   5.994   9.644 -1.7654  0.8491  1.5516
  896MOL0     H20918   4.714   6.238   9.612  1.6879 -1.1431 -2.2527
  896MOL0     H20919   4.733   6.066   9.556 -2.6532 -1.8529  0.1466
  896MOL0     H20920   4.854   6.121   9.997 -1.5313  2.5049 -0.5043
  896MOL0     H20921   5.079   6.179  10.049  0.4723  0.4484 -0.1501
  896MOL0     H20922   5.528   6.197  10.042  1.5037  0.5834 -2.0835
  896MOL0     H20923   5.728   6.307  10.123 -1.1308 -0.5769 -2.3347
  896MOL0     H20924   5.749   6.746  10.169  1.4976  1.3409  0.3767
  896MOL0     H20925   5.752   6.697  10.335  1.6004 -0.9324  1.1202
  896MOL0     H20926   5.973   6.640  10.137 -1.6397  1.4801 -1.5918
  896MOL0     H20927   5.955   6.793  10.234 -1.3846  0.1382  3.4211
  896MOL0     H20928   6.004   6.687  10.433  1.3120 -3.0168  2.0251
  896MOL0     H20929   5.934   6.536  10.381 -0.2827  0.2628 -0.1704
  896MOL0     H20930   6.186   6.641  10.274 -4.4306 -0.0804 -3.5720
  896MOL0     H20931   6.137   6.476  10.250  1.0383 -0.1154 -0.8848
  896MOL0     H20932   6.151   6.425  10.485 -1.8676  1.0433 -0.2898
  896MOL0     H20933   6.174   6.574  10.537 -0.4372  1.6195 -1.3839
  896MOL0     H20934   6.387   6.413  10.383  0.6195  0.6016 -0.4147
  896MOL0     H20935   6.398   6.583  10.389  1.0504 -0.5231  0.1634
  896MOL0     H20936   6.402   6.388  10.626 -1.7257  0.0411  0.8178
  896MOL0     H20937   6.383   6.560  10.647  2.7981  3.5640 -1.8515
  896MOL0     H20938   6.623   6.442  10.491 -3.0675 -0.2643 -0.5217
  896MOL0     H20939   6.584   6.614  10.536 -0.3206  0.3863  0.7805
  896MOL0     H20940   5.512   6.663  10.229  0.3407 -0.3122  2.1825
  896MOL0     H20941   5.310   6.565  10.115  0.2138  1.5493  1.9450
  896MOL0     H20942   5.164   6.277   9.643  2.4554  1.2625  2.9321
  896MOL0     H20943   4.937   6.192   9.578 -2.2506  0.9300 -0.1211
  896MOL0     H20944   2.865   6.282  10.060  1.3595  1.3733  2.6049
  896MOL0     H20945   2.634   6.163  10.041  0.9956 -1.4592 -0.3878
  896MOL0     H20946   2.345   5.937  10.187  3.1682 -2.4389  3.5976
  896MOL0     H20947   2.099   5.898  10.111 -1.0674 -1.2745  0.5189
  896MOL0     H20948   2.010   5.532   9.879 -0.8270 -0.7229 -2.5891
  896MOL0     H20949   2.017   5.666   9.762 -0.1838 -1.1525 -1.5184
  896MOL0     H20950   1.772   5.649   9.947  0.7308  1.3243  0.4119
  896MOL0     H20951   1.779   5.547   9.800 -1.5610 -0.4416  1.1491
  896MOL0     H20952   1.808   5.751   9.669 -2.3534 -0.2633 -1.7873
  896MOL0     H20953   1.809   5.841   9.819  2.0866 -1.0839 -0.4307
  896MOL0     H20954   1.566   5.664   9.747  2.7397 -0.0918 -0.3420
  896MOL0     H20955   1.565   5.827   9.823 -0.7493  0.6381  1.3893
  896MOL0     H20956   1.502   5.913   9.421  1.4553  1.8471  0.6743
  896MOL0     H20957   2.233   5.558   9.887 -1.2395  1.4229 -2.6421
  896MOL0     H20958   2.443   5.516   9.842 -2.0340 -0.0675  1.0913
  896MOL0     H20959   2.553   5.665   9.868  0.3044 -0.4973 -0.5141
  896MOL0     H20960   2.565   5.535   9.979  1.8200  2.6190  0.2168
  897MOL0     O20961   7.586   9.384   2.200 -0.2485 -0.2604 -0.2886
  897MOL0     C20962   7.584   9.276   2.258  0.3551 -1.3316 -0.7260
  897MOL0     O20963   7.500   9.246   2.370  0.4410  0.3388  0.4039
  897MOL0     C20964   7.446   9.354   2.438  0.0834 -0.2436  0.2654
  897MOL0     C20965   7.531   9.444   2.499 -0.1079 -0.0932 -0.1525
  897MOL0     C20966   7.476   9.541   2.578  1.1336 -0.0074 -0.6894
  897MOL0     C20967   7.343   9.570   2.573  0.4880  0.9546 -0.3216
  897MOL0     O20968   7.296   9.677   2.635  0.7121 -0.1199 -0.8131
  897MOL0     C20969   7.250   9.788   2.550  0.2026 -0.4559  0.2172
  897MOL0     C20970   7.124   9.846   2.618 -0.7324 -0.3671 -0.3387
  897MOL0     C20971   7.049   9.956   2.546 -0.4391 -0.2123  0.7885
  897MOL0     C20972   7.136  10.079   2.508  0.8482 -0.5476 -0.3678
  897MOL0     C20973   7.060  10.210   2.470  0.9505 -0.0715  0.4513
  897MOL0     C20974   7.067  10.323   2.575  0.0361  1.1208  0.1656
  897MOL0     C20975   6.988  10.451   2.542  0.7198  0.3667 -0.6516
  897MOL0     C20976   6.984  10.565   2.642 -0.2349 -1.0327 -0.2454
  897MOL0     N20977   7.117  10.614   2.674 -0.1008 -0.3761 -0.2064
  897MOL0     C20978   7.176  10.707   2.610  0.3374  0.3592 -0.1089
  897MOL0     C20979   7.310  10.717   2.639  1.1935  0.5966  0.9947
  897MOL0     C20980   7.408  10.811   2.577 -0.5046  0.6699 -0.0432
  897MOL0     C20981   7.552  10.796   2.626  0.1228  0.1263  0.5314
  897MOL0     C20982   7.638  10.909   2.572  0.5845 -0.5545 -0.2111
  897MOL0     C20983   7.782  10.904   2.628  0.5366 -0.2603 -0.4599
  897MOL0     O20984   7.864  10.837   2.532 -1.2203  0.0635 -0.0011
  897MOL0     C20985   8.003  10.823   2.553  0.4747  0.5467  0.3041
  897MOL0     C20986   8.084  10.796   2.437  0.1067 -0.2110 -0.4032
  897MOL0     C20987   8.226  10.808   2.446  1.2923 -0.6176 -0.0249
  897MOL0     C20988   8.285  10.820   2.571  0.5947 -1.0419  0.5803
  897MOL0     C20989   8.428  10.818   2.581 -0.1753 -0.0774  0.7826
  897MOL0     O20990   8.461  10.859   2.705 -0.1601 -0.0619 -0.4843
  897MOL0     C20991   8.588  10.861   2.750  0.1615 -0.1089  0.3230
  897MOL0     C20992   8.610  10.974   2.836 -0.8311  0.3888  0.9089
  897MOL0     C20993   8.746  10.989   2.875  0.1923 -0.4259 -0.1924
  897MOL0     C20994   8.836  10.890   2.861 -0.4953 -0.1361 -0.1186
  897MOL0     O20995   8.953  10.921   2.923 -0.4326  0.2712 -1.2426
  897MOL0     C20996   9.072  10.883   2.857 -0.0395  0.2495 -0.1738
  897MOL0     C20997   9.195  10.944   2.930  0.1315 -0.5332 -0.1443
  897MOL0     C20998   9.317  10.903   2.839  0.0171 -0.2522  0.7590
  897MOL0     C20999   9.450  10.960   2.879 -0.3873 -0.1216  0.4900
  897MOL0     C21000   9.560  10.949   2.767  0.5472 -1.0698  0.1180
  897MOL0     C21001   9.690  11.009   2.795 -0.0591 -0.2732 -0.3360
  897MOL0     C21002   9.756  10.957   2.919 -0.8059  0.1823 -0.1234
  897MOL0     C21003   9.891  11.029   2.943  0.3526  0.0936  0.1218
  897MOL0    Cl21004  10.028  10.929   2.867 -0.1271  0.3379 -0.0224
  897MOL0     C21005   8.821  10.784   2.771 -0.4047 -0.8955  0.2792
  897MOL0     C21006   8.692  10.774   2.716 -0.4829  0.8389  0.2285
  897MOL0     O21007   8.500  10.803   2.485 -0.3973 -0.8719 -0.1398
  897MOL0     C21008   8.206  10.838   2.688 -0.6102 -0.3029 -0.6173
  897MOL0     C21009   8.067  10.841   2.674  0.2004 -0.3022 -0.2307
  897MOL0     N21010   7.335  10.619   2.731 -0.0172 -0.6564  0.6723
  897MOL0     N21011   7.221  10.566   2.758  0.2436 -0.4147 -0.2081
  897MOL0     C21012   7.253   9.488   2.508 -0.0179  0.8392  0.0548
  897MOL0     C21013   7.311   9.382   2.438  0.6576 -0.4738  0.5805
  897MOL0     C21014   7.652   9.165   2.202  0.2315 -0.0501 -0.1870
  897MOL0     C21015   7.631   9.037   2.255  0.6612 -0.0484 -0.1508
  897MOL0     C21016   7.704   8.921   2.229  0.0244 -1.3400  0.6862
  897MOL0     C21017   7.807   8.933   2.127  0.1550 -0.0879  0.0046
  897MOL0     O21018   7.905   8.846   2.078  0.2163  0.0080 -0.2441
  897MOL0     C21019   7.852   8.708   2.098 -0.5319 -0.3887 -0.2214
  897MOL0     C21020   7.937   8.601   2.031  0.5329 -0.3260  0.6777
  897MOL0     C21021   8.082   8.600   2.077 -0.4731  1.2119 -0.9279
  897MOL0     C21022   8.173   8.693   1.999  0.6368  0.1897  0.3087
  897MOL0     C21023   8.256   8.621   1.907  0.1258  0.3048  0.4108
  897MOL0     C21024   8.290   8.546   1.817 -0.1459  0.3071 -0.4527
  897MOL0     C21025   7.834   9.057   2.078  0.5087  0.0917  0.4972
  897MOL0     C21026   7.755   9.173   2.102 -0.0331 -1.3690 -0.3180
  897MOL0     C21027   7.794   9.302   2.019 -0.7747 -0.0249 -0.8947
  897MOL0     H21028   7.637   9.422   2.505  0.0565 -1.0284 -3.8226
  897MOL0     H21029   7.544   9.615   2.618 -0.4188  1.5085 -0.7396
  897MOL0     H21030   7.323   9.870   2.540 -0.2119 -0.1017  0.0767
  897MOL0     H21031   7.214   9.761   2.451 -2.6668  3.5081 -0.0665
  897MOL0     H21032   7.149   9.880   2.719 -2.9944  0.9399 -0.1371
  897MOL0     H21033   7.064   9.755   2.622  1.8409 -2.0904  1.4240
  897MOL0     H21034   6.957   9.985   2.598  0.5269 -0.7794  2.8905
  897MOL0     H21035   7.009   9.907   2.457 -0.4509 -1.7345  1.6068
  897MOL0     H21036   7.219  10.090   2.578  1.0738  1.3370 -0.8589
  897MOL0     H21037   7.187  10.041   2.419 -0.7479  0.5345 -1.8100
  897MOL0     H21038   7.088  10.251   2.373  1.2318  2.0213  1.3661
  897MOL0     H21039   6.956  10.177   2.459  1.0975 -0.3905 -0.0016
  897MOL0     H21040   7.039  10.289   2.675 -2.0462  0.2592 -0.6455
  897MOL0     H21041   7.170  10.355   2.594 -0.7523  4.3067 -0.3840
  897MOL0     H21042   6.884  10.419   2.524  1.8373 -3.4760 -1.2311
  897MOL0     H21043   7.022  10.495   2.448  0.6888  1.0997 -0.3279
  897MOL0     H21044   6.920  10.648   2.610 -1.0679 -1.6073 -0.1031
  897MOL0     H21045   6.935  10.515   2.726 -0.0897 -1.0785 -0.1875
  897MOL0     H21046   7.127  10.778   2.544 -0.2446 -0.2606 -0.3530
  897MOL0     H21047   7.403  10.802   2.468 -0.3343 -0.2083  0.0165
  897MOL0     H21048   7.384  10.914   2.605  0.0049  1.0355 -0.9081
  897MOL0     H21049   7.557  10.803   2.735 -0.0887  1.8108  0.4705
  897MOL0     H21050   7.584  10.692   2.614 -3.5545 -1.1811  0.9267
  897MOL0     H21051   7.593  11.002   2.607  2.2898  0.5917 -0.9501
  897MOL0     H21052   7.634  10.890   2.464  2.9855  0.1072 -0.4835
  897MOL0     H21053   7.774  10.849   2.722 -1.6748 -0.7136 -0.8618
  897MOL0     H21054   7.821  11.004   2.651  0.8297 -0.4415 -0.1564
  897MOL0     H21055   8.035  10.783   2.341  0.2315  0.0494 -0.5026
  897MOL0     H21056   8.302  10.795   2.370  1.0251 -0.9391 -0.2368
  897MOL0     H21057   8.531  11.047   2.849  1.4971  3.2988 -0.2232
  897MOL0     H21058   8.764  11.085   2.922  2.1820 -0.1657 -1.3955
  897MOL0     H21059   9.082  10.775   2.850  1.8871  0.2512  1.5970
  897MOL0     H21060   9.075  10.921   2.755  1.1277 -2.5512 -1.2581
  897MOL0     H21061   9.196  11.052   2.949 -0.0790 -0.0575 -2.5538
  897MOL0     H21062   9.200  10.905   3.032  3.6674  2.1575  0.9238
  897MOL0     H21063   9.331  10.795   2.851 -1.6298 -0.2672  3.0991
  897MOL0     H21064   9.302  10.928   2.734  2.0694  2.0035  0.9195
  897MOL0     H21065   9.484  10.912   2.971  0.7933  1.5858  0.9805
  897MOL0     H21066   9.452  11.066   2.905  0.7864 -0.5321  2.2543
  897MOL0     H21067   9.515  11.004   2.684 -1.2117  1.1495  2.3793
  897MOL0     H21068   9.564  10.845   2.732 -2.0983 -1.3690  0.4732
  897MOL0     H21069   9.758  10.991   2.711 -0.2095  0.0583 -0.5292
  897MOL0     H21070   9.681  11.118   2.802  3.6231  0.3182 -2.3495
  897MOL0     H21071   9.767  10.848   2.918 -2.9464 -0.0835  0.0242
  897MOL0     H21072   9.693  10.983   3.005  1.7243 -0.0201  1.9385
  897MOL0     H21073   9.891  11.132   2.905 -0.9137 -0.6258 -1.9957
  897MOL0     H21074   9.919  11.044   3.048 -5.8582 -0.2942  2.2102
  897MOL0     H21075   8.905  10.727   2.733 -0.0014  1.4903 -2.8277
  897MOL0     H21076   8.685  10.698   2.638 -1.3548  0.7393  0.3945
  897MOL0     H21077   8.246  10.856   2.787 -1.1784 -0.4815 -0.3523
  897MOL0     H21078   8.013  10.862   2.765 -0.4538 -1.2021 -0.3994
  897MOL0     H21079   7.145   9.503   2.514  0.1922  2.8873 -0.6771
  897MOL0     H21080   7.244   9.315   2.384  0.6130 -0.7512  0.9833
  897MOL0     H21081   7.547   9.017   2.321  0.6588  0.0998 -0.1100
  897MOL0     H21082   7.669   8.835   2.285 -3.1199  0.2285  1.3792
  897MOL0     H21083   7.750   8.721   2.060 -0.2164  1.1285 -0.6272
  897MOL0     H21084   7.851   8.689   2.206 -0.0524  1.8717  0.2331
  897MOL0     H21085   7.921   8.592   1.923 -2.9163 -1.2496  1.1487
  897MOL0     H21086   7.889   8.511   2.070 -0.2098 -0.5983 -0.8027
  897MOL0     H21087   8.121   8.498   2.066 -0.7667  1.2773 -2.9734
  897MOL0     H21088   8.095   8.625   2.183  2.2806 -2.6716 -0.1351
  897MOL0     H21089   8.113   8.761   1.938  0.4495 -0.2912 -0.0513
  897MOL0     H21090   8.235   8.748   2.071  1.3218 -0.3769  0.1616
  897MOL0     H21091   8.317   8.480   1.737 -1.3333  1.0004 -1.4463
  897MOL0     H21092   7.916   9.077   2.010  1.8639  0.5641  2.1821
  897MOL0     H21093   7.704   9.346   1.974 -2.1132 -0.3933  1.2858
  897MOL0     H21094   7.836   9.370   2.094 -1.6684 -0.7479  0.2870
  897MOL0     H21095   7.875   9.294   1.946  2.1528  2.1543  1.8223
  898MOL0     O21096   4.508   3.488   1.600 -0.3019 -0.1187  0.2656
  898MOL0     C21097   4.484   3.459   1.718  0.5061  0.7603 -0.4061
  898MOL0     O21098   4.561   3.391   1.805  0.4462 -0.2159 -0.6265
  898MOL0     C21099   4.677   3.348   1.754 -0.7257  0.5090 -0.6415
  898MOL0     C21100   4.685   3.211   1.708  0.1913 -0.9432  0.2504
  898MOL0     C21101   4.803   3.148   1.657  0.6752 -0.5198 -0.9346
  898MOL0     C21102   4.920   3.225   1.653  0.4293 -0.3248 -0.5151
  898MOL0     O21103   5.027   3.171   1.586 -0.5351 -0.1128  0.3837
  898MOL0     C21104   5.138   3.259   1.555  0.2970  0.3494  0.6950
  898MOL0     C21105   5.257   3.172   1.524 -0.4484  0.3260 -0.2878
  898MOL0     C21106   5.386   3.256   1.538  0.1829  0.1271 -0.2543
  898MOL0     C21107   5.505   3.181   1.488 -0.2866  0.2168 -0.0262
  898MOL0     C21108   5.634   3.242   1.526 -0.3497  0.2221 -0.0454
  898MOL0     C21109   5.750   3.170   1.462  0.6797  0.3652  0.7435
  898MOL0     C21110   5.881   3.215   1.530  0.3125 -0.6163  0.1255
  898MOL0     C21111   5.906   3.132   1.662  1.0343 -0.8025 -0.4301
  898MOL0     N21112   6.045   3.157   1.713  0.1538 -0.6893  0.4025
  898MOL0     C21113   6.069   3.248   1.816  0.8613 -0.3199  0.0872
  898MOL0     C21114   6.204   3.275   1.814  0.3058  0.1764  0.7290
  898MOL0     C21115   6.291   3.353   1.905  1.1976 -0.3452  0.8774
  898MOL0     C21116   6.332   3.483   1.845 -0.0622  0.8265  0.5214
  898MOL0     C21117   6.209   3.578   1.823 -0.0898  0.5962  1.0215
  898MOL0     C21118   6.235   3.730   1.802 -0.4457 -0.4339 -0.0214
  898MOL0     O21119   6.293   3.760   1.672  0.2506 -0.0755  0.3221
  898MOL0     C21120   6.426   3.784   1.663 -0.7704 -0.5834 -0.2436
  898MOL0     C21121   6.488   3.868   1.754  0.2291  0.3561 -1.7686
  898MOL0     C21122   6.626   3.912   1.736  0.2673 -0.5623  0.3150
  898MOL0     C21123   6.705   3.857   1.634 -0.1586 -0.0165  1.4123
  898MOL0     C21124   6.849   3.872   1.622  0.2446 -0.2750 -0.6593
  898MOL0     O21125   6.894   3.965   1.704  0.1892  0.6564  0.0436
  898MOL0     C21126   7.029   3.985   1.717 -0.5926  0.0141  0.1563
  898MOL0     C21127   7.123   3.898   1.782  0.2373 -0.4776  0.6743
  898MOL0     C21128   7.260   3.925   1.768  0.4792 -0.5934 -0.6463
  898MOL0     C21129   7.303   4.041   1.711 -0.0808  0.4718 -0.3914
  898MOL0     O21130   7.431   4.073   1.722  0.1808 -0.2006 -0.1822
  898MOL0     C21131   7.488   4.147   1.614  0.1212  0.1454  0.4016
  898MOL0     C21132   7.635   4.151   1.641 -0.0306  0.5108 -0.3545
  898MOL0     C21133   7.693   4.011   1.650  1.0036  0.1735 -0.5209
  898MOL0     C21134   7.835   3.996   1.612  0.1816 -0.2571 -0.1080
  898MOL0     C21135   7.931   4.090   1.690 -1.0240  0.0620  0.4700
  898MOL0     C21136   8.083   4.074   1.649 -0.2565 -0.1263 -0.2035
  898MOL0     C21137   8.157   4.153   1.750  0.9978  0.1625  0.9164
  898MOL0     C21138   8.298   4.207   1.713  0.0156  0.8885  0.0495
  898MOL0    Cl21139   8.312   4.302   1.562  0.0322 -0.0990  0.2008
  898MOL0     C21140   7.213   4.128   1.648  0.2069 -0.3300 -0.4023
  898MOL0     C21141   7.076   4.096   1.645  0.1249 -0.0384  0.2772
  898MOL0     O21142   6.918   3.819   1.537  0.4036 -0.0580  0.1136
  898MOL0     C21143   6.644   3.760   1.551  0.4329 -0.5099  0.5413
  898MOL0     C21144   6.503   3.733   1.558 -0.4241 -0.2293 -0.1235
  898MOL0     N21145   6.252   3.211   1.697  0.2555 -0.7030 -0.5279
  898MOL0     N21146   6.159   3.140   1.647  0.1427 -0.1530  0.5425
  898MOL0     C21147   4.914   3.354   1.695  0.0263 -0.8764 -0.3369
  898MOL0     C21148   4.795   3.417   1.741  0.4121 -0.4123 -1.1768
  898MOL0     C21149   4.341   3.483   1.764 -0.0318 -0.1057  0.0809
  898MOL0     C21150   4.273   3.578   1.693 -0.0598  0.3954  0.0509
  898MOL0     C21151   4.133   3.589   1.699  0.0887 -0.6382 -1.5585
  898MOL0     C21152   4.053   3.523   1.794 -0.0459 -0.1024 -0.4374
  898MOL0     O21153   3.913   3.544   1.814 -0.1271  0.4458  0.0055
  898MOL0     C21154   3.833   3.574   1.701  0.1042  0.0423  0.8072
  898MOL0     C21155   3.851   3.466   1.598  0.3412 -0.9277  0.0877
  898MOL0     C21156   3.834   3.329   1.663  0.3724 -0.4409  0.3871
  898MOL0     C21157   3.707   3.261   1.605 -0.2891  0.6041 -0.3399
  898MOL0     C21158   3.587   3.329   1.648  0.8170  0.2990  0.0170
  898MOL0     C21159   3.483   3.388   1.673 -0.3265 -0.6479 -0.1489
  898MOL0     C21160   4.134   3.445   1.876  1.3233  0.4255  0.2577
  898MOL0     C21161   4.268   3.410   1.858  0.2683 -0.6917 -0.2952
  898MOL0     C21162   4.320   3.315   1.964 -0.0043  0.0355  0.8701
  898MOL0     H21163   4.590   3.159   1.716  0.0800 -0.6886  0.5906
  898MOL0     H21164   4.805   3.047   1.619  2.4945  0.2234 -3.0148
  898MOL0     H21165   5.117   3.309   1.460  0.2348 -0.0000  0.5251
  898MOL0     H21166   5.166   3.330   1.633  0.1030  1.9610 -0.6393
  898MOL0     H21167   5.242   3.126   1.426  0.0213 -1.0584  0.2600
  898MOL0     H21168   5.257   3.094   1.601  2.5420  2.4679  2.1165
  898MOL0     H21169   5.395   3.270   1.646  3.1639 -2.4860 -0.0167
  898MOL0     H21170   5.373   3.351   1.485 -1.1117  0.8716  1.2777
  898MOL0     H21171   5.503   3.081   1.532  2.6318 -0.6679 -1.6976
  898MOL0     H21172   5.499   3.165   1.380  2.6165 -1.3601 -0.0413
  898MOL0     H21173   5.633   3.345   1.490 -4.4772  0.0335 -0.9402
  898MOL0     H21174   5.648   3.232   1.634 -0.4855 -2.3403 -0.1942
  898MOL0     H21175   5.737   3.061   1.460 -2.6585  0.6738 -1.4623
  898MOL0     H21176   5.750   3.198   1.357 -0.7178  2.1385  1.1809
  898MOL0     H21177   5.893   3.323   1.544  3.5350 -0.7485 -0.9235
  898MOL0     H21178   5.963   3.186   1.464  0.7646 -0.7751  0.7482
  898MOL0     H21179   5.826   3.159   1.732  1.3800 -0.6022 -0.1046
  898MOL0     H21180   5.903   3.026   1.637  2.5822 -0.3987 -2.6180
  898MOL0     H21181   6.001   3.281   1.894  0.6390  1.0168 -0.6411
  898MOL0     H21182   6.225   3.375   1.990  0.3636  0.1696  0.1159
  898MOL0     H21183   6.373   3.287   1.935  0.3674 -0.7775  2.3091
  898MOL0     H21184   6.408   3.538   1.901 -1.6213  4.9747 -1.0116
  898MOL0     H21185   6.368   3.462   1.744 -1.2331 -0.6452  0.3804
  898MOL0     H21186   6.143   3.580   1.910  0.6389 -0.5682  1.6261
  898MOL0     H21187   6.140   3.547   1.744  2.2400 -0.4133 -0.7060
  898MOL0     H21188   6.291   3.786   1.879  0.5542  1.0379 -1.7318
  898MOL0     H21189   6.139   3.781   1.804  0.2220  1.1793 -3.1982
  898MOL0     H21190   6.436   3.918   1.835 -3.0895 -0.8464 -2.9512
  898MOL0     H21191   6.673   3.975   1.811 -2.3064 -0.4944  1.9996
  898MOL0     H21192   7.079   3.816   1.839 -0.3193 -0.1513  0.7263
  898MOL0     H21193   7.337   3.859   1.807  0.5187 -0.6054 -0.7435
  898MOL0     H21194   7.469   4.102   1.516 -0.8724  1.8475 -0.2416
  898MOL0     H21195   7.443   4.247   1.606 -1.0612 -0.3273  0.8032
  898MOL0     H21196   7.684   4.205   1.560  0.4787  3.0449  1.5288
  898MOL0     H21197   7.650   4.204   1.735  1.2041 -1.5007  0.6522
  898MOL0     H21198   7.679   3.982   1.754  0.7830  1.4690 -0.1796
  898MOL0     H21199   7.639   3.937   1.589  0.2743  0.6144 -0.4198
  898MOL0     H21200   7.841   4.016   1.504 -0.3633  0.6568  0.0193
  898MOL0     H21201   7.865   3.893   1.632 -1.3328 -0.6502  0.2032
  898MOL0     H21202   7.916   4.052   1.792 -0.4551 -1.4111  0.0333
  898MOL0     H21203   7.898   4.190   1.664 -1.4821 -0.8088 -2.7693
  898MOL0     H21204   8.104   3.966   1.649 -1.1971 -0.3517  1.7061
  898MOL0     H21205   8.100   4.113   1.548 -2.1704  0.6971 -0.2505
  898MOL0     H21206   8.162   4.102   1.846  2.4145  2.6561  2.2886
  898MOL0     H21207   8.101   4.246   1.761 -2.1710 -0.8162 -4.0235
  898MOL0     H21208   8.329   4.275   1.793 -0.0014  1.2569 -0.2516
  898MOL0     H21209   8.358   4.115   1.713 -1.8006 -0.3539  0.4958
  898MOL0     H21210   7.235   4.223   1.600  0.6458 -0.3165 -0.1787
  898MOL0     H21211   7.008   4.173   1.608  0.5268  0.2473  0.1195
  898MOL0     H21212   6.697   3.710   1.471 -3.7460 -1.5789 -1.8535
  898MOL0     H21213   6.444   3.679   1.485  1.1516  0.0481 -1.6717
  898MOL0     H21214   5.002   3.417   1.696 -1.2263  1.0725 -2.2399
  898MOL0     H21215   4.792   3.517   1.783  0.4882 -1.2882  1.0733
  898MOL0     H21216   4.325   3.627   1.611 -2.0488 -2.7947 -3.4535
  898MOL0     H21217   4.079   3.644   1.623  3.2433  0.5239 -3.1316
  898MOL0     H21218   3.863   3.670   1.658 -0.0241  0.2392  1.1612
  898MOL0     H21219   3.732   3.580   1.741 -1.3460 -0.5686 -2.4088
  898MOL0     H21220   3.948   3.475   1.548 -1.0972 -0.1336 -2.8181
  898MOL0     H21221   3.778   3.491   1.521  0.6758  0.8030  0.3048
  898MOL0     H21222   3.848   3.327   1.772  3.4523  0.2924  0.0896
  898MOL0     H21223   3.915   3.266   1.625  1.1245 -0.2563  1.6188
  898MOL0     H21224   3.706   3.270   1.496 -0.8180 -0.0085 -0.3919
  898MOL0     H21225   3.712   3.155   1.631 -1.4793 -0.3043 -3.4030
  898MOL0     H21226   3.393   3.443   1.692 -0.7374 -0.6263 -1.9661
  898MOL0     H21227   4.077   3.387   1.948 -0.3579 -0.9641 -2.0476
  898MOL0     H21228   4.347   3.220   1.916 -0.3731  1.0103 -1.3975
  898MOL0     H21229   4.408   3.358   2.012  0.2902 -0.4635  0.7879
  898MOL0     H21230   4.247   3.303   2.044 -0.3733 -1.1932  0.3728
  899MOL0     O21231   3.289   2.094   5.943  0.1549  0.4737  0.1205
  899MOL0     C21232   3.277   1.982   5.994 -1.0715 -0.2292  0.8477
  899MOL0     O21233   3.386   1.904   6.023 -0.2112  0.5714  0.3997
  899MOL0     C21234   3.515   1.951   6.019  0.8773  0.2847  0.7284
  899MOL0     C21235   3.605   1.852   5.995 -0.1919 -1.2728  0.0778
  899MOL0     C21236   3.742   1.884   5.981 -0.2993  0.6344  1.2437
  899MOL0     C21237   3.782   2.012   5.996 -0.9088  0.2874 -0.7427
  899MOL0     O21238   3.920   2.026   5.993  0.3960  0.7164  0.5404
  899MOL0     C21239   3.976   2.154   5.990 -0.4075 -0.3862  0.3406
  899MOL0     C21240   4.122   2.139   5.945 -0.6388  0.1745  0.5291
  899MOL0     C21241   4.220   2.063   6.041  0.1658  1.0816  0.5315
  899MOL0     C21242   4.304   1.952   5.964  0.4697  0.6747 -0.0948
  899MOL0     C21243   4.385   1.877   6.067 -0.1461  0.1574 -0.7082
  899MOL0     C21244   4.468   1.769   6.000 -0.0851  0.0151 -0.4910
  899MOL0     C21245   4.577   1.724   6.109  0.7150 -0.5801 -0.0848
  899MOL0     C21246   4.705   1.694   6.027 -0.0101 -1.3478 -0.1638
  899MOL0     N21247   4.821   1.667   6.120  0.3220  0.1425 -0.3367
  899MOL0     C21248   4.818   1.569   6.218  0.4912  0.0536 -0.8379
  899MOL0     C21249   4.935   1.568   6.271 -1.1579 -0.4772 -0.5169
  899MOL0     C21250   4.990   1.489   6.381  0.2390  0.1026  0.0487
  899MOL0     C21251   5.130   1.441   6.383  0.0847 -0.1466 -0.7145
  899MOL0     C21252   5.184   1.365   6.260  0.2903  0.6750  0.3943
  899MOL0     C21253   5.334   1.368   6.259 -0.0724 -0.0412 -0.4903
  899MOL0     O21254   5.381   1.289   6.151 -0.1842 -0.3569  1.0888
  899MOL0     C21255   5.514   1.305   6.120  0.5800  0.3866 -0.4229
  899MOL0     C21256   5.608   1.368   6.198 -1.0593  0.0142 -0.0457
  899MOL0     C21257   5.737   1.400   6.144 -0.0899  0.4995 -0.0813
  899MOL0     C21258   5.770   1.357   6.009  0.2504  0.1761  0.4640
  899MOL0     C21259   5.901   1.389   5.942  0.7790 -0.2766 -0.9411
  899MOL0     O21260   5.991   1.462   6.021 -0.0518  0.5911  0.2872
  899MOL0     C21261   6.114   1.505   5.984  1.2004 -0.1689  0.1955
  899MOL0     C21262   6.210   1.519   6.082  0.4134 -0.9205  0.1458
  899MOL0     C21263   6.342   1.573   6.057  0.1860  0.4939  0.3319
  899MOL0     C21264   6.373   1.603   5.922 -0.4612  0.4779  0.7192
  899MOL0     O21265   6.499   1.655   5.882  0.5344  0.2192 -0.3243
  899MOL0     C21266   6.590   1.704   5.976 -0.2090 -0.1484 -0.0673
  899MOL0     C21267   6.689   1.797   5.900  0.1736  0.6709  0.1595
  899MOL0     C21268   6.761   1.887   6.000  0.0168  0.2492  0.3009
  899MOL0     C21269   6.829   2.013   5.941 -0.3440  0.2063 -0.6212
  899MOL0     C21270   6.717   2.111   5.902  0.0175  0.3403 -0.8419
  899MOL0     C21271   6.756   2.249   5.856 -0.6177 -0.6190  0.8135
  899MOL0     C21272   6.861   2.253   5.740 -0.4351  0.1621 -0.0062
  899MOL0     C21273   6.900   2.394   5.700  0.5718 -0.0267 -0.3953
  899MOL0    Cl21274   6.929   2.494   5.843 -0.1346 -0.0635 -0.1982
  899MOL0     C21275   6.281   1.580   5.821  0.5624  0.5117  0.2323
  899MOL0     C21276   6.149   1.532   5.852 -0.3647 -0.1004  0.4174
  899MOL0     O21277   5.928   1.341   5.839 -0.0760  0.0517 -0.1254
  899MOL0     C21278   5.673   1.282   5.936  0.4479 -0.4429 -0.2071
  899MOL0     C21279   5.554   1.252   6.000  0.7612 -0.8337  0.1533
  899MOL0     N21280   5.018   1.656   6.202 -0.5076  0.0868  0.6077
  899MOL0     N21281   4.946   1.726   6.116 -0.2581  0.7178  0.3773
  899MOL0     C21282   3.693   2.117   6.029  0.1105 -0.0156  0.4017
  899MOL0     C21283   3.558   2.086   6.026  0.8982  0.0599  0.3747
  899MOL0     C21284   3.147   1.922   6.004  0.1362  1.1167  0.2085
  899MOL0     C21285   3.031   2.003   5.979  0.5637  0.1621  0.1985
  899MOL0     C21286   2.904   1.955   5.993  1.1411  0.2688 -0.1951
  899MOL0     C21287   2.870   1.824   6.038  0.3186  0.5204  0.2078
  899MOL0     O21288   2.737   1.792   6.040 -0.4843  0.5637 -0.2749
  899MOL0     C21289   2.704   1.656   5.993  0.0656 -0.5192 -0.4448
  899MOL0     C21290   2.560   1.626   6.018  0.2015 -0.0742 -0.1166
  899MOL0     C21291   2.464   1.721   5.937  0.0223  0.2997  1.1920
  899MOL0     C21292   2.323   1.721   6.005 -0.7064 -0.2587  1.4579
  899MOL0     C21293   2.340   1.784   6.134 -0.7405 -0.3754  0.1833
  899MOL0     C21294   2.350   1.844   6.234 -0.9501 -0.0826  0.6829
  899MOL0     C21295   2.978   1.731   6.056  0.7062 -0.6276 -1.0356
  899MOL0     C21296   3.111   1.782   6.050 -0.6935  0.0832 -0.1157
  899MOL0     C21297   3.207   1.664   6.081  1.0890 -0.1540  0.4538
  899MOL0     H21298   3.563   1.753   5.980  0.9113 -2.1800  2.4211
  899MOL0     H21299   3.811   1.805   5.950  2.1597  3.0293  0.2067
  899MOL0     H21300   3.929   2.217   5.914  2.3889  1.6865  0.1552
  899MOL0     H21301   3.968   2.189   6.093 -2.0880 -2.4332  0.9714
  899MOL0     H21302   4.161   2.239   5.925  1.7175 -0.5081  1.4574
  899MOL0     H21303   4.131   2.089   5.848 -0.4009 -0.3732  0.8294
  899MOL0     H21304   4.164   2.014   6.121 -0.1634  1.2448  0.4037
  899MOL0     H21305   4.279   2.144   6.084 -1.8452  3.3639 -0.8039
  899MOL0     H21306   4.240   1.878   5.915  1.6342 -0.8917  0.6596
  899MOL0     H21307   4.358   2.001   5.882 -0.0614  1.5822  0.0771
  899MOL0     H21308   4.445   1.948   6.126 -1.1715  0.9796 -0.6337
  899MOL0     H21309   4.324   1.824   6.141 -0.2776 -0.1897 -1.0642
  899MOL0     H21310   4.411   1.687   5.955 -0.6416 -0.2729  0.7083
  899MOL0     H21311   4.527   1.821   5.924  0.5883  0.1889  0.1447
  899MOL0     H21312   4.552   1.636   6.168  1.8532 -2.1775 -1.8785
  899MOL0     H21313   4.598   1.798   6.187 -0.3426 -2.5349  2.1586
  899MOL0     H21314   4.696   1.607   5.961 -2.0515  0.0447 -1.8667
  899MOL0     H21315   4.730   1.785   5.973 -0.7786 -2.1422 -1.9282
  899MOL0     H21316   4.737   1.505   6.255  1.3895 -0.6086  0.0517
  899MOL0     H21317   4.968   1.547   6.471 -1.1214 -0.1804 -0.0926
  899MOL0     H21318   4.928   1.400   6.372  2.5970 -1.7238  0.7272
  899MOL0     H21319   5.191   1.531   6.391  0.8141 -0.6112 -0.9681
  899MOL0     H21320   5.144   1.376   6.471 -0.0167  1.5933  0.6283
  899MOL0     H21321   5.146   1.409   6.167  2.6613 -0.9305 -1.4666
  899MOL0     H21322   5.146   1.262   6.263  1.9087 -0.0253 -1.1929
  899MOL0     H21323   5.389   1.327   6.345 -0.1539  2.6533  0.9642
  899MOL0     H21324   5.360   1.474   6.253 -2.0214  0.3880 -2.6206
  899MOL0     H21325   5.592   1.397   6.302  0.0189 -1.3083  0.5172
  899MOL0     H21326   5.811   1.457   6.199  1.4316  0.3036 -1.8270
  899MOL0     H21327   6.191   1.495   6.187  1.4628  4.2540  1.8075
  899MOL0     H21328   6.400   1.599   6.145 -2.3752 -0.7592  2.5368
  899MOL0     H21329   6.559   1.764   6.062  1.8392  2.6583 -1.1555
  899MOL0     H21330   6.647   1.616   6.007  1.8639  0.9986 -0.4302
  899MOL0     H21331   6.757   1.729   5.848 -1.4867 -1.2320  0.3433
  899MOL0     H21332   6.625   1.846   5.825 -0.1603  2.4811  1.5566
  899MOL0     H21333   6.697   1.920   6.082 -0.2238  0.9178 -0.1464
  899MOL0     H21334   6.840   1.824   6.042 -0.5032 -0.2156  0.5989
  899MOL0     H21335   6.891   1.973   5.861  2.2048  1.3685  0.6486
  899MOL0     H21336   6.895   2.060   6.015  1.4830 -2.0919 -0.6827
  899MOL0     H21337   6.640   2.121   5.980 -0.0361 -1.1246 -0.6836
  899MOL0     H21338   6.668   2.058   5.820 -1.0328  0.3558 -0.2386
  899MOL0     H21339   6.676   2.310   5.812 -0.9549 -2.9497 -2.1071
  899MOL0     H21340   6.812   2.286   5.943  0.0814 -3.2244  1.5567
  899MOL0     H21341   6.827   2.205   5.648 -0.6639  2.3213 -1.1264
  899MOL0     H21342   6.951   2.209   5.784  0.8427  0.4726 -2.1499
  899MOL0     H21343   6.994   2.387   5.646 -0.3008 -4.2830 -1.6889
  899MOL0     H21344   6.824   2.427   5.628  1.9604 -0.0270 -1.8971
  899MOL0     H21345   6.308   1.603   5.718  0.8848  1.6566  0.5506
  899MOL0     H21346   6.079   1.536   5.769  0.7607 -3.8686 -0.9143
  899MOL0     H21347   5.699   1.261   5.833 -0.6885 -2.0242 -0.2149
  899MOL0     H21348   5.487   1.194   5.937  0.6998 -2.9754  2.0526
  899MOL0     H21349   3.719   2.221   6.045  1.3668 -0.6360  2.9134
  899MOL0     H21350   3.498   2.176   6.036  0.1254 -0.5537  1.4764
  899MOL0     H21351   3.040   2.109   5.960  0.6359 -0.0601 -1.0611
  899MOL0     H21352   2.825   2.024   5.966  1.7245  1.0461  0.0498
  899MOL0     H21353   2.764   1.579   6.043 -0.6137  0.9401  2.9105
  899MOL0     H21354   2.720   1.651   5.885  0.8159 -2.0234 -0.2906
  899MOL0     H21355   2.550   1.643   6.126 -0.3803 -2.1910  0.2068
  899MOL0     H21356   2.538   1.519   6.006 -0.8033 -0.2833  2.7831
  899MOL0     H21357   2.439   1.671   5.842 -2.1779  3.3804 -0.0133
  899MOL0     H21358   2.497   1.823   5.916 -0.5889  0.6334  1.8092
  899MOL0     H21359   2.256   1.773   5.936  2.2183  0.7874 -0.7933
  899MOL0     H21360   2.286   1.618   6.016  2.3120 -1.6045  0.1499
  899MOL0     H21361   2.379   1.912   6.311  0.9310 -0.8310  0.6879
  899MOL0     H21362   2.963   1.631   6.096 -2.1255  1.0326  2.6347
  899MOL0     H21363   3.238   1.668   6.186 -0.5527 -0.3925  0.9818
  899MOL0     H21364   3.161   1.568   6.056 -0.6009  0.6878  0.1509
  899MOL0     H21365   3.289   1.674   6.010  0.1168  0.9791 -0.5598
  900MOL0     O21366   4.215   9.674   2.606  0.3291  0.5191 -0.5590
  900MOL0     C21367   4.273   9.738   2.519 -0.1361 -0.3649  0.4199
  900MOL0     O21368   4.220   9.775   2.400  0.2443 -0.6524  0.6101
  900MOL0     C21369   4.096   9.727   2.373  0.8275  0.1074 -0.7384
  900MOL0     C21370   3.979   9.769   2.443  0.0876 -0.2799 -0.3576
  900MOL0     C21371   3.853   9.715   2.425  0.3011  0.4315  0.2915
  900MOL0     C21372   3.827   9.624   2.321 -0.1324  0.2092  0.2567
  900MOL0     O21373   3.695   9.578   2.307  0.7867 -0.4642 -0.0753
  900MOL0     C21374   3.664   9.492   2.197  0.1788 -0.5541 -0.2255
  900MOL0     C21375   3.518   9.468   2.186  0.4825 -0.4993  0.6345
  900MOL0     C21376   3.438   9.603   2.180  0.5321  0.1411 -0.6362
  900MOL0     C21377   3.302   9.579   2.122 -0.6556 -0.2085 -0.0345
  900MOL0     C21378   3.213   9.702   2.164  0.8541  0.7838 -0.7814
  900MOL0     C21379   3.208   9.814   2.065 -0.7372  0.5995 -0.1652
  900MOL0     C21380   3.121   9.933   2.110  0.2474 -0.7783  0.9124
  900MOL0     C21381   3.162   9.996   2.247 -0.0576  0.4126  0.3665
  900MOL0     N21382   3.306  10.041   2.228  0.2746 -0.9541 -0.8379
  900MOL0     C21383   3.414   9.967   2.277 -0.4042  0.6941  0.2513
  900MOL0     C21384   3.524  10.044   2.246  0.5180  0.8333 -0.8371
  900MOL0     C21385   3.670  10.003   2.273 -0.6958 -0.4346 -0.0188
  900MOL0     C21386   3.727  10.046   2.413  0.2321  0.1362 -0.1499
  900MOL0     C21387   3.779  10.195   2.415  0.7798 -0.4125  0.3034
  900MOL0     C21388   3.859  10.223   2.546  0.4693  0.4546  0.0390
  900MOL0     O21389   3.968  10.130   2.558  0.3474 -0.6343  0.4740
  900MOL0     C21390   4.087  10.154   2.483  0.5120 -0.6709 -0.0145
  900MOL0     C21391   4.103  10.258   2.389  0.3337 -0.8944  0.1834
  900MOL0     C21392   4.230  10.284   2.332  0.0520 -0.2341  0.9211
  900MOL0     C21393   4.338  10.213   2.380 -0.2285 -0.0070  0.2472
  900MOL0     C21394   4.474  10.244   2.312 -0.2603 -0.1576 -0.6789
  900MOL0     O21395   4.584  10.203   2.388  0.4122 -0.7411  0.2446
  900MOL0     C21396   4.710  10.192   2.327 -1.4473  0.0287  0.1855
  900MOL0     C21397   4.814  10.270   2.372  0.3945 -0.1825 -0.0452
  900MOL0     C21398   4.938  10.249   2.320 -1.0929  0.9016 -0.6505
  900MOL0     C21399   4.973  10.167   2.213 -0.5831  0.4001 -0.1119
  900MOL0     O21400   5.106  10.161   2.169  0.3012  0.5534 -0.0251
  900MOL0     C21401   5.134  10.085   2.060  0.1439  0.0828 -0.3294
  900MOL0     C21402   5.276  10.105   2.006 -0.0419  0.6298 -0.0202
  900MOL0     C21403   5.375  10.064   2.115  0.1887 -0.1613  0.2348
  900MOL0     C21404   5.515  10.061   2.049  0.7841 -0.1495  0.1817
  900MOL0     C21405   5.620  10.014   2.142 -1.3796  0.8216 -0.7891
  900MOL0     C21406   5.753  10.019   2.067  0.1382  0.7846  0.8008
  900MOL0     C21407   5.883   9.969   2.143  0.2568 -0.3385  0.2176
  900MOL0     C21408   5.985  10.083   2.128 -0.4810 -0.3695  1.2700
  900MOL0    Cl21409   6.038  10.091   1.954  0.2957 -0.2730 -0.0762
  900MOL0     C21410   4.865  10.100   2.163  0.7672  0.7722 -0.1166
  900MOL0     C21411   4.733  10.113   2.215  0.1418 -0.0757 -0.7183
  900MOL0     O21412   4.478  10.298   2.200  0.6875  0.2924  0.2073
  900MOL0     C21413   4.325  10.115   2.474 -1.3130 -0.2257  0.7666
  900MOL0     C21414   4.199  10.088   2.521 -0.6504  0.4330 -0.6129
  900MOL0     N21415   3.479  10.157   2.176 -0.7128 -0.0293 -0.5825
  900MOL0     N21416   3.349  10.156   2.170  0.3718 -0.5916  0.4232
  900MOL0     C21417   3.940   9.587   2.242  0.3375  0.9076  0.2198
  900MOL0     C21418   4.072   9.636   2.268 -0.0150 -0.6234  0.2793
  900MOL0     C21419   4.418   9.775   2.549 -0.9715  0.5497 -0.0796
  900MOL0     C21420   4.497   9.806   2.439 -0.4379 -0.3529  0.0685
  900MOL0     C21421   4.638   9.826   2.441  0.1779 -0.3428  0.1206
  900MOL0     C21422   4.702   9.814   2.566 -0.0522  0.5993  0.1952
  900MOL0     O21423   4.840   9.831   2.586 -0.0229 -0.1223 -0.4334
  900MOL0     C21424   4.927   9.901   2.479 -0.7693  0.5776  0.4125
  900MOL0     C21425   4.999   9.795   2.400  0.2668  0.2682  0.1882
  900MOL0     C21426   5.132   9.745   2.461 -0.4644 -0.2190  0.1152
  900MOL0     C21427   5.172   9.615   2.403 -0.6324 -0.1579  0.7705
  900MOL0     C21428   5.296   9.553   2.455 -0.6611 -0.0170  0.2471
  900MOL0     C21429   5.396   9.505   2.505 -0.1705 -0.9702  0.2754
  900MOL0     C21430   4.622   9.792   2.676  0.0002 -0.2870 -0.4385
  900MOL0     C21431   4.482   9.771   2.675  0.6889 -0.4838  0.2138
  900MOL0     C21432   4.429   9.751   2.809  0.7836  0.9138  0.4211
  900MOL0     H21433   3.992   9.843   2.521  0.6838  0.7112 -1.3692
  900MOL0     H21434   3.768   9.740   2.487  0.0942 -0.1047  0.2332
  900MOL0     H21435   3.708   9.535   2.106  0.6745  3.0655  1.5831
  900MOL0     H21436   3.714   9.395   2.209  1.8772  0.3624  0.5048
  900MOL0     H21437   3.496   9.406   2.273  2.3745 -3.0086 -0.5273
  900MOL0     H21438   3.500   9.404   2.099  1.8193 -0.1160  0.0470
  900MOL0     H21439   3.488   9.677   2.117  0.9087 -0.6494 -1.2786
  900MOL0     H21440   3.432   9.635   2.285  0.8461  2.2440 -1.2259
  900MOL0     H21441   3.300   9.567   2.013  1.1980  0.2399 -0.1524
  900MOL0     H21442   3.263   9.487   2.168 -0.4969  0.2205  0.9723
  900MOL0     H21443   3.111   9.663   2.170  0.8985  0.7231 -0.4583
  900MOL0     H21444   3.234   9.739   2.264  0.5888  1.4623 -0.9700
  900MOL0     H21445   3.307   9.848   2.036 -0.6897  1.7344  1.1943
  900MOL0     H21446   3.167   9.773   1.972  0.2405 -1.9459  0.4420
  900MOL0     H21447   3.019   9.898   2.129 -0.3010  1.3354  2.3448
  900MOL0     H21448   3.119  10.010   2.031 -2.2095 -2.1367 -0.4700
  900MOL0     H21449   3.102  10.086   2.262 -1.2811 -0.1190 -1.1334
  900MOL0     H21450   3.165   9.924   2.329  0.2160 -0.9765 -0.8233
  900MOL0     H21451   3.415   9.870   2.324  0.2273  0.4602 -0.2324
  900MOL0     H21452   3.673   9.894   2.280  3.9326 -0.5122 -0.1464
  900MOL0     H21453   3.735  10.032   2.189 -1.4663 -1.1711 -0.8895
  900MOL0     H21454   3.648  10.027   2.486 -0.7497  0.5282 -1.0713
  900MOL0     H21455   3.811   9.979   2.431  0.8533  1.0499  0.4134
  900MOL0     H21456   3.694  10.263   2.399  1.6153  0.6938  0.4035
  900MOL0     H21457   3.836  10.193   2.321  0.4840 -4.6798  0.0479
  900MOL0     H21458   3.794  10.221   2.633  1.3648 -0.0995  0.7187
  900MOL0     H21459   3.889  10.327   2.533  3.4269 -0.4614 -1.4194
  900MOL0     H21460   4.022  10.325   2.363  1.9903  1.4253  0.6778
  900MOL0     H21461   4.248  10.360   2.257 -1.1560 -2.4708 -1.8264
  900MOL0     H21462   4.812  10.344   2.453 -0.4249 -0.5649  0.2871
  900MOL0     H21463   5.023  10.298   2.368 -1.4809  0.2587  0.7392
  900MOL0     H21464   5.127   9.983   2.097  0.9477  0.6790  1.6210
  900MOL0     H21465   5.064  10.109   1.980 -3.1820 -0.2458  2.2405
  900MOL0     H21466   5.285  10.037   1.921  0.9984  0.7443 -0.0080
  900MOL0     H21467   5.285  10.208   1.970 -2.1207  1.0818  0.5767
  900MOL0     H21468   5.376  10.139   2.195 -0.2656  0.2681 -0.1548
  900MOL0     H21469   5.354   9.964   2.154  3.2745 -0.9932 -0.0306
  900MOL0     H21470   5.538  10.164   2.021 -2.5676  0.9751  1.0761
  900MOL0     H21471   5.511   9.997   1.961 -0.1322 -3.0953  2.1997
  900MOL0     H21472   5.603   9.910   2.174  0.0014  0.4777 -1.0824
  900MOL0     H21473   5.625  10.074   2.233 -0.2267 -2.1557  1.2879
  900MOL0     H21474   5.751   9.958   1.976  1.8305  0.5226  0.9026
  900MOL0     H21475   5.768  10.119   2.026  0.1844 -0.0420 -1.3457
  900MOL0     H21476   5.925   9.876   2.103  2.6605 -0.0148  1.7923
  900MOL0     H21477   5.855   9.957   2.249 -0.0360  0.3194  0.2193
  900MOL0     H21478   5.937  10.176   2.158  0.1575 -0.9183  4.3161
  900MOL0     H21479   6.069  10.064   2.196  1.9984 -2.4992 -2.0189
  900MOL0     H21480   4.883  10.036   2.077 -0.1112 -1.6815  1.4265
  900MOL0     H21481   4.654  10.048   2.177  0.4237 -1.3387  0.7630
  900MOL0     H21482   4.412  10.053   2.493 -1.9348 -1.5664 -0.5836
  900MOL0     H21483   4.183  10.000   2.582 -1.3244 -0.7708 -2.4337
  900MOL0     H21484   3.929   9.521   2.156 -1.3207  0.0358  1.0537
  900MOL0     H21485   4.163   9.615   2.214  0.6875 -0.8480  1.5146
  900MOL0     H21486   4.447   9.810   2.343 -1.1696 -0.4056  0.4361
  900MOL0     H21487   4.679   9.856   2.345 -1.4667 -0.3917 -0.6361
  900MOL0     H21488   5.000   9.963   2.532  1.3748 -1.2574 -0.2630
  900MOL0     H21489   4.866   9.967   2.416 -0.6746  2.0979  1.8565
  900MOL0     H21490   5.019   9.832   2.299  0.0900 -2.0863 -0.7843
  900MOL0     H21491   4.924   9.716   2.388  0.8502 -0.2044 -0.4244
  900MOL0     H21492   5.119   9.722   2.567  0.0309  0.0795  0.2430
  900MOL0     H21493   5.207   9.824   2.453  0.4926 -1.2283 -1.2936
  900MOL0     H21494   5.101   9.541   2.442 -0.8103  0.0137  0.7780
  900MOL0     H21495   5.163   9.623   2.294 -1.0842 -1.9462  0.6567
  900MOL0     H21496   5.479   9.451   2.546 -0.4717 -1.0673  0.7667
  900MOL0     H21497   4.670   9.780   2.772  0.5413  0.5950 -0.5895
  900MOL0     H21498   4.320   9.757   2.798  0.7564  0.2455  0.2925
  900MOL0     H21499   4.446   9.650   2.846  0.2888  0.0389 -1.6320
  900MOL0     H21500   4.464   9.822   2.885  3.1260 -1.3986  1.6481
  901MOL0     O21501   7.151   7.103   1.323 -0.1315  0.4274  0.8653
  901MOL0     C21502   7.162   7.127   1.445  0.4788  0.7653  0.3684
  901MOL0     O21503   7.281   7.134   1.517 -0.4435  0.6788 -0.1824
  901MOL0     C21504   7.399   7.120   1.444 -0.4186 -1.0501  0.5144
  901MOL0     C21505   7.486   7.224   1.446  0.5535 -0.1478  0.0381
  901MOL0     C21506   7.612   7.207   1.384 -0.3992 -0.4405 -1.1485
  901MOL0     C21507   7.652   7.093   1.318  0.9297  0.4099 -0.0791
  901MOL0     O21508   7.768   7.070   1.263 -0.0287 -0.3393  0.4019
  901MOL0     C21509   7.865   7.178   1.272 -0.0874  0.0457  0.1600
  901MOL0     C21510   7.989   7.131   1.207 -0.3622 -0.7543  1.3257
  901MOL0     C21511   8.096   7.240   1.199  0.0361  0.1532 -0.4263
  901MOL0     C21512   8.200   7.235   1.318  0.3825 -0.2122  0.3599
  901MOL0     C21513   8.300   7.345   1.292 -0.5460 -0.1893 -0.3775
  901MOL0     C21514   8.408   7.368   1.404 -0.7789  0.7093  0.2824
  901MOL0     C21515   8.544   7.381   1.338  0.5823 -0.0748  0.1600
  901MOL0     C21516   8.603   7.261   1.273 -0.3632 -0.0674 -0.2425
  901MOL0     N21517   8.723   7.298   1.201 -0.6130  0.2594 -0.0066
  901MOL0     C21518   8.803   7.404   1.231  0.3474  0.5925  0.7221
  901MOL0     C21519   8.869   7.428   1.120  0.3177  0.9644  0.2315
  901MOL0     C21520   8.944   7.560   1.105 -0.7211  0.5756  0.4631
  901MOL0     C21521   9.087   7.538   1.065  0.5473 -0.7975  0.0463
  901MOL0     C21522   9.107   7.448   0.945  0.4304  0.1059  0.0457
  901MOL0     C21523   9.259   7.412   0.907 -0.4884  0.0315 -0.7231
  901MOL0     O21524   9.321   7.335   1.008  0.2400  0.1488  0.5466
  901MOL0     C21525   9.444   7.281   0.990  0.0613  0.5488  0.4815
  901MOL0     C21526   9.525   7.296   0.875 -0.3093  0.6347  0.9090
  901MOL0     C21527   9.654   7.236   0.871  0.2169 -0.3283  0.0087
  901MOL0     C21528   9.704   7.173   0.985 -0.0144 -0.2293  0.8903
  901MOL0     C21529   9.843   7.118   0.988  0.2615 -0.2834  0.3315
  901MOL0     O21530   9.894   7.092   1.113 -0.0018  0.4433 -0.0834
  901MOL0     C21531  10.031   7.092   1.122 -0.1003  0.3770 -0.4523
  901MOL0     C21532  10.092   7.192   1.187  0.8146 -0.4712 -0.0634
  901MOL0     C21533  10.229   7.198   1.220 -0.7250 -0.1763 -0.0465
  901MOL0     C21534  10.306   7.086   1.182 -0.0871 -0.0083 -0.3552
  901MOL0     O21535  10.435   7.063   1.216  0.0528  0.0933  0.2497
  901MOL0     C21536  10.514   7.159   1.292  0.0133 -0.4332  0.0448
  901MOL0     C21537  10.502   7.141   1.442 -0.0944 -0.0919  0.2046
  901MOL0     C21538  10.512   7.009   1.506 -0.2954 -0.0103  0.5816
  901MOL0     C21539  10.481   7.012   1.652  1.7097 -0.0884 -0.3322
  901MOL0     C21540  10.514   6.875   1.713  0.5186  0.7689  0.8082
  901MOL0     C21541  10.503   6.872   1.858 -0.9888  0.5326 -0.1149
  901MOL0     C21542  10.572   6.742   1.913  0.1904 -0.3865  0.3506
  901MOL0     C21543  10.572   6.749   2.059 -0.2317  0.6228 -0.2251
  901MOL0    Cl21544  10.673   6.608   2.109 -0.4549 -0.6863 -0.1124
  901MOL0     C21545  10.250   6.979   1.109  0.6569 -0.0438 -0.2880
  901MOL0     C21546  10.110   6.983   1.077  0.2344 -1.1701 -0.0820
  901MOL0     O21547   9.906   7.111   0.880  1.0595  0.1348  0.0113
  901MOL0     C21548   9.622   7.154   1.094 -0.9682 -0.5387  0.3599
  901MOL0     C21549   9.493   7.208   1.101 -0.1298 -0.3507  0.8003
  901MOL0     N21550   8.829   7.332   1.019 -0.1933  0.5482  0.2368
  901MOL0     N21551   8.738   7.261   1.073  0.0788 -0.1981 -0.0457
  901MOL0     C21552   7.556   6.987   1.313  0.0962  0.3624 -0.3259
  901MOL0     C21553   7.428   7.001   1.379  0.1960 -0.0506  1.2151
  901MOL0     C21554   7.036   7.106   1.511 -0.4404 -0.3409  0.1563
  901MOL0     C21555   6.937   7.199   1.487 -0.1629 -0.5473  0.0803
  901MOL0     C21556   6.814   7.192   1.544  0.3708  1.0372  0.4290
  901MOL0     C21557   6.782   7.076   1.624  0.4228  0.2017 -0.0125
  901MOL0     O21558   6.664   7.059   1.687  0.5366  0.2845 -0.6188
  901MOL0     C21559   6.564   7.156   1.666 -0.0770 -0.8732  0.1121
  901MOL0     C21560   6.450   7.117   1.766 -0.0892  0.7894 -0.4072
  901MOL0     C21561   6.347   7.029   1.684 -0.9812 -0.1582  0.1761
  901MOL0     C21562   6.261   7.092   1.573  0.0545 -0.5760 -0.6880
  901MOL0     C21563   6.221   7.221   1.634  0.6603  1.4747  0.6904
  901MOL0     C21564   6.201   7.327   1.689  0.2802  0.4008  0.0437
  901MOL0     C21565   6.874   6.975   1.625 -1.0227 -0.1940  0.6743
  901MOL0     C21566   7.009   6.994   1.586  0.4441  0.0702  0.0575
  901MOL0     C21567   7.112   6.891   1.625  0.2547 -0.1993  0.7696
  901MOL0     H21568   7.474   7.318   1.498 -2.4798 -1.2958  1.6234
  901MOL0     H21569   7.682   7.289   1.393 -2.9559  1.8498 -0.6930
  901MOL0     H21570   7.825   7.262   1.215  1.4040 -0.3879 -1.6320
  901MOL0     H21571   7.883   7.206   1.376 -0.5481 -0.7907  0.4754
  901MOL0     H21572   7.962   7.097   1.107 -1.2144  0.1412  1.2260
  901MOL0     H21573   8.023   7.044   1.264  0.5448  0.2275  2.3463
  901MOL0     H21574   8.043   7.336   1.201 -2.1394 -0.9581  2.3809
  901MOL0     H21575   8.152   7.231   1.106  1.2864 -1.9685  0.4495
  901MOL0     H21576   8.145   7.238   1.412  0.9018 -0.3021  0.6726
  901MOL0     H21577   8.258   7.143   1.333 -0.0075 -0.5343 -0.0767
  901MOL0     H21578   8.341   7.344   1.190  0.0544 -0.2585 -0.1442
  901MOL0     H21579   8.241   7.436   1.303  1.2622  0.8557  1.4748
  901MOL0     H21580   8.393   7.453   1.471  1.0326  2.2801 -1.1873
  901MOL0     H21581   8.402   7.275   1.461  0.5609 -1.1678 -2.4244
  901MOL0     H21582   8.615   7.419   1.413  1.2859 -0.5114 -0.2665
  901MOL0     H21583   8.534   7.461   1.263  1.3925 -0.1840 -0.0770
  901MOL0     H21584   8.628   7.184   1.346  4.8288  0.3018 -1.2101
  901MOL0     H21585   8.533   7.221   1.200 -0.8908 -0.8575  0.6896
  901MOL0     H21586   8.802   7.477   1.311 -0.2965  0.3151  0.9770
  901MOL0     H21587   8.887   7.618   1.032  2.3699 -1.1971 -3.8017
  901MOL0     H21588   8.932   7.605   1.204 -1.0728  0.3092  0.5446
  901MOL0     H21589   9.130   7.638   1.058 -3.0787  0.7930 -1.8476
  901MOL0     H21590   9.138   7.492   1.150  0.1117 -1.1075  0.1412
  901MOL0     H21591   9.058   7.490   0.857  0.0527  2.4310  1.2672
  901MOL0     H21592   9.055   7.354   0.967 -1.1215  0.5637 -1.4801
  901MOL0     H21593   9.309   7.509   0.899 -1.7566  0.8409  0.5484
  901MOL0     H21594   9.255   7.357   0.813 -3.3875  0.0409 -0.6948
  901MOL0     H21595   9.500   7.359   0.790 -2.0271 -0.9716  0.1581
  901MOL0     H21596   9.710   7.247   0.779 -2.2076  1.6622 -1.3718
  901MOL0     H21597  10.028   7.270   1.227 -0.6587 -1.6665 -0.0120
  901MOL0     H21598  10.273   7.276   1.282  0.4464  0.4467 -1.5801
  901MOL0     H21599  10.619   7.139   1.271 -0.4557 -1.3323 -1.6319
  901MOL0     H21600  10.489   7.264   1.271  0.8071  0.0497  1.3622
  901MOL0     H21601  10.578   7.209   1.481  2.4881 -2.0000 -1.2265
  901MOL0     H21602  10.406   7.183   1.475  0.1295 -0.6659  1.6812
  901MOL0     H21603  10.436   6.950   1.453  1.7489 -1.0399 -1.3375
  901MOL0     H21604  10.614   6.971   1.502 -0.5597 -0.7547  0.7496
  901MOL0     H21605  10.377   7.043   1.669  1.9988  1.3188 -0.9928
  901MOL0     H21606  10.537   7.096   1.693  0.9431  1.5275 -2.3749
  901MOL0     H21607  10.619   6.859   1.688  0.7288  2.2452  0.6544
  901MOL0     H21608  10.448   6.805   1.661 -1.3904  2.5793  0.6662
  901MOL0     H21609  10.544   6.958   1.911  0.3568  0.0906 -0.4089
  901MOL0     H21610  10.398   6.878   1.888 -0.6169  1.1503  1.1303
  901MOL0     H21611  10.676   6.745   1.881  0.0402  2.2972 -0.1286
  901MOL0     H21612  10.524   6.648   1.883 -0.6444  0.0386  0.3305
  901MOL0     H21613  10.606   6.849   2.088 -0.4446  0.9358 -1.0138
  901MOL0     H21614  10.471   6.722   2.092 -0.9460  1.8461 -1.2932
  901MOL0     H21615  10.300   6.884   1.096  3.3941  1.2710 -0.0572
  901MOL0     H21616  10.076   6.900   1.017  0.1024 -1.9583  1.0365
  901MOL0     H21617   9.657   7.098   1.180 -1.2771 -1.4640 -0.0962
  901MOL0     H21618   9.437   7.205   1.194 -0.1675  2.0671  0.9171
  901MOL0     H21619   7.589   6.895   1.267  2.6064  0.7813  0.4709
  901MOL0     H21620   7.349   6.926   1.378  0.6128 -0.4979  0.2066
  901MOL0     H21621   6.970   7.288   1.433 -2.1589  0.2418  0.0767
  901MOL0     H21622   6.747   7.278   1.537 -0.6544  0.2748  0.6180
  901MOL0     H21623   6.531   7.167   1.562  1.4839  2.2437 -0.1650
  901MOL0     H21624   6.595   7.256   1.697 -0.5059 -0.9424  0.7732
  901MOL0     H21625   6.404   7.204   1.814  1.5466  1.4881 -0.0292
  901MOL0     H21626   6.495   7.063   1.850 -3.6946 -3.0081 -0.6102
  901MOL0     H21627   6.271   6.990   1.752 -0.8459 -0.5002  0.1329
  901MOL0     H21628   6.402   6.941   1.651  0.7397  0.8375  0.2547
  901MOL0     H21629   6.319   7.113   1.482 -0.8455  0.5476 -1.0258
  901MOL0     H21630   6.175   7.031   1.544 -1.0060  0.8301 -0.6163
  901MOL0     H21631   6.186   7.415   1.749 -1.2540 -1.1082  2.0252
  901MOL0     H21632   6.855   6.877   1.669 -0.1822 -0.6926 -0.0433
  901MOL0     H21633   7.179   6.919   1.707  3.0999 -1.2155 -1.0226
  901MOL0     H21634   7.063   6.796   1.649  0.2057 -0.3055  0.2592
  901MOL0     H21635   7.175   6.877   1.536 -0.0901 -0.4278  0.5567
  902MOL0     O21636   0.376   6.324  10.367  0.1557  0.1144  0.1951
  902MOL0     C21637   0.376   6.417  10.451 -1.3488  1.4775 -0.0879
  902MOL0     O21638   0.489   6.465  10.501  0.0750 -0.4724  0.4901
  902MOL0     C21639   0.607   6.416  10.446 -0.5021  0.1056  0.5815
  902MOL0     C21640   0.651   6.288  10.483 -0.4628  0.0925 -0.0300
  902MOL0     C21641   0.788   6.256  10.452  0.4086  0.6784  1.4380
  902MOL0     C21642   0.876   6.343  10.375 -0.2818  0.2108  0.2186
  902MOL0     O21643   0.996   6.316  10.317 -0.0780  0.5499 -0.0149
  902MOL0     C21644   1.041   6.183  10.349 -0.0706 -0.5809  0.3829
  902MOL0     C21645   1.186   6.161  10.305 -0.5497  0.0250 -0.3385
  902MOL0     C21646   1.274   6.269  10.374 -0.6762  0.1739 -0.0267
  902MOL0     C21647   1.423   6.231  10.347 -0.6293  0.0912 -0.3781
  902MOL0     C21648   1.513   6.319  10.434  0.4479 -0.3567  0.8688
  902MOL0     C21649   1.514   6.458  10.375 -0.3672 -0.0691 -0.6396
  902MOL0     C21650   1.619   6.546  10.442 -0.8491  0.3470  0.2924
  902MOL0     C21651   1.758   6.491  10.420  0.4199 -0.1514 -0.0936
  902MOL0     N21652   1.867   6.588  10.394 -0.2464 -0.3767 -0.6632
  902MOL0     C21653   1.929   6.671  10.478  0.2836 -0.2841 -0.3596
  902MOL0     C21654   2.015   6.741  10.408 -0.0261 -0.1735  0.3453
  902MOL0     C21655   2.109   6.844  10.474 -0.9498  0.1226 -0.8320
  902MOL0     C21656   2.239   6.863  10.394 -1.0884  1.0450 -0.6298
  902MOL0     C21657   2.346   6.949  10.465 -0.1357  0.0752 -0.7619
  902MOL0     C21658   2.470   6.967  10.370  0.3871 -0.6281 -0.8245
  902MOL0     O21659   2.584   7.009  10.446 -0.4582 -0.2030 -0.0980
  902MOL0     C21660   2.687   7.061  10.365  0.4275  0.7182 -0.4582
  902MOL0     C21661   2.704   7.060  10.226 -0.4512  1.0132  0.9663
  902MOL0     C21662   2.821   7.106  10.167 -0.1157 -0.3064  0.7173
  902MOL0     C21663   2.922   7.165  10.243  0.5551 -0.0855 -0.3812
  902MOL0     C21664   3.054   7.206  10.192  0.0609  0.4444 -0.2462
  902MOL0     O21665   3.137   7.255  10.286 -0.4217 -0.5397  0.7134
  902MOL0     C21666   3.258   7.301  10.245 -0.3774  0.1983  0.3878
  902MOL0     C21667   3.373   7.231  10.288 -1.0564  0.0207 -0.9582
  902MOL0     C21668   3.500   7.275  10.252 -0.5833  0.0299  0.6551
  902MOL0     C21669   3.523   7.380  10.164 -0.0139 -0.2875  0.2563
  902MOL0     O21670   3.646   7.420  10.117  0.5575 -0.2118  0.1804
  902MOL0     C21671   3.726   7.474  10.216 -0.2706 -0.4813  0.0962
  902MOL0     C21672   3.868   7.422  10.197 -0.3785  0.3624  0.3197
  902MOL0     C21673   3.960   7.501  10.295  0.8267 -0.0669  0.2215
  902MOL0     C21674   4.103   7.455  10.289  0.5219 -0.2973  0.9425
  902MOL0     C21675   4.173   7.485  10.420 -0.2202 -0.0774 -0.4269
  902MOL0     C21676   4.320   7.446  10.403  1.0166 -0.1421  0.1445
  902MOL0     C21677   4.396   7.550  10.320 -0.3011 -0.1180 -0.3455
  902MOL0     C21678   4.545   7.538  10.334 -0.3624  0.3690 -0.5266
  902MOL0    Cl21679   4.595   7.598  10.484  0.1840  0.0503 -0.0405
  902MOL0     C21680   3.413   7.447  10.114  0.2330  0.1736  0.2481
  902MOL0     C21681   3.279   7.411  10.157 -0.0867 -0.0569  0.2934
  902MOL0     O21682   3.072   7.194  10.069  0.0864 -0.0775  0.9486
  902MOL0     C21683   2.896   7.174  10.385  0.5054 -0.5310  0.9543
  902MOL0     C21684   2.785   7.118  10.444  0.0870 -0.4837  0.0909
  902MOL0     N21685   1.996   6.708  10.271  0.8927 -0.4120 -0.3602
  902MOL0     N21686   1.908   6.619  10.269  0.0350  0.4973 -0.6574
  902MOL0     C21687   0.823   6.471  10.343 -0.3491 -0.0468 -0.5148
  902MOL0     C21688   0.689   6.506  10.376 -0.0464  0.1932 -0.4028
  902MOL0     C21689   0.243   6.458  10.505 -0.7451 -0.6091  1.0092
  902MOL0     C21690   0.228   6.471  10.642  0.7571 -0.0166 -0.6757
  902MOL0     C21691   0.115   6.529  10.698  0.4825  0.7007 -0.7063
  902MOL0     C21692   0.003   6.557  10.612  0.0215 -0.0527 -0.4681
  902MOL0     O21693  -0.113   6.602  10.671 -0.0927  0.2580 -0.4126
  902MOL0     C21694  -0.232   6.622  10.592  0.4060 -0.1269  0.7710
  902MOL0     C21695  -0.340   6.703  10.672 -0.9086  0.0204  0.2676
  902MOL0     C21696  -0.297   6.842  10.724 -0.9081 -0.5136 -0.0257
  902MOL0     C21697  -0.408   6.914  10.794 -0.6788 -0.8811  0.7189
  902MOL0     C21698  -0.435   6.849  10.921 -0.3784 -1.3856 -0.4059
  902MOL0     C21699  -0.470   6.787  11.021  0.1735 -0.9099 -0.7214
  902MOL0     C21700   0.011   6.530  10.473 -0.6037  0.4032 -0.1534
  902MOL0     C21701   0.135   6.486  10.418 -0.7699 -0.6303 -0.5945
  902MOL0     C21702   0.151   6.461  10.277 -0.0689 -0.4568  0.1524
  902MOL0     H21703   0.594   6.222  10.547 -2.1775  1.1105 -0.4431
  902MOL0     H21704   0.818   6.152  10.457 -2.2299 -0.2101  0.5321
  902MOL0     H21705   1.035   6.164  10.457 -2.4000 -0.7308  0.2767
  902MOL0     H21706   0.976   6.110  10.298 -0.8258 -0.5240  1.2322
  902MOL0     H21707   1.196   6.174  10.196 -0.0208  0.5984 -0.2283
  902MOL0     H21708   1.213   6.058  10.326 -1.0337 -0.0717 -0.1609
  902MOL0     H21709   1.253   6.275  10.481 -0.8480  2.4378 -0.1305
  902MOL0     H21710   1.258   6.368  10.330 -0.0139  0.8250  1.1454
  902MOL0     H21711   1.444   6.127  10.373 -1.1282 -0.6378 -2.6548
  902MOL0     H21712   1.446   6.240  10.240 -1.1400  3.3447 -0.3128
  902MOL0     H21713   1.481   6.338  10.536  0.4089  2.7531  0.3823
  902MOL0     H21714   1.612   6.275  10.446 -0.5977 -2.8379  1.1737
  902MOL0     H21715   1.529   6.458  10.267  0.2299 -0.8395 -0.5647
  902MOL0     H21716   1.422   6.507  10.410  1.9843  2.4652  2.6571
  902MOL0     H21717   1.603   6.536  10.550 -0.5306  2.7621  0.6147
  902MOL0     H21718   1.603   6.642  10.394  0.8842 -0.2722 -1.6316
  902MOL0     H21719   1.787   6.433  10.508 -1.2352 -1.0438 -0.0820
  902MOL0     H21720   1.753   6.427  10.331  0.5675 -1.1859  0.6207
  902MOL0     H21721   1.915   6.694  10.583 -2.6492  0.1678 -0.7716
  902MOL0     H21722   2.066   6.943  10.493  1.0613  1.0786 -1.0546
  902MOL0     H21723   2.146   6.809  10.571  0.1007  1.3093 -0.7778
  902MOL0     H21724   2.280   6.764  10.373  1.9780  2.0540  0.1325
  902MOL0     H21725   2.203   6.921  10.308 -3.9065  2.1450  1.1468
  902MOL0     H21726   2.383   6.898  10.554  0.4225  3.4725  1.1180
  902MOL0     H21727   2.302   7.041  10.503  1.2738 -0.5455  2.7495
  902MOL0     H21728   2.446   7.035  10.288  0.1224  0.0884 -0.1709
  902MOL0     H21729   2.497   6.872  10.324 -1.6613 -2.0567  0.7307
  902MOL0     H21730   2.633   7.019  10.156  1.5460  0.1010 -0.6006
  902MOL0     H21731   2.841   7.091  10.061 -1.6970 -0.3732  0.4128
  902MOL0     H21732   3.361   7.149  10.358 -0.2085 -0.2557 -1.1251
  902MOL0     H21733   3.587   7.216  10.279 -0.9935 -0.3320  1.2051
  902MOL0     H21734   3.723   7.583  10.217  2.4070 -0.3400 -0.1569
  902MOL0     H21735   3.693   7.441  10.315  1.7350 -0.6440  0.7557
  902MOL0     H21736   3.861   7.315  10.219 -3.6177  0.3336 -0.3729
  902MOL0     H21737   3.904   7.436  10.094 -0.9005 -0.7302 -0.0243
  902MOL0     H21738   3.955   7.607  10.267  1.5880  0.0896  0.6484
  902MOL0     H21739   3.922   7.482  10.396  1.1896  2.0635  0.8064
  902MOL0     H21740   4.158   7.494  10.203  0.4812  0.8344  1.4019
  902MOL0     H21741   4.097   7.346  10.281 -2.0275 -0.0769 -3.1846
  902MOL0     H21742   4.126   7.423  10.497  2.4774 -1.3276  0.3634
  902MOL0     H21743   4.152   7.587  10.452 -1.5807 -0.5175  0.1363
  902MOL0     H21744   4.364   7.431  10.503 -1.3858  0.0503  1.3063
  902MOL0     H21745   4.321   7.350  10.351  0.3499  1.4333 -2.9751
  902MOL0     H21746   4.366   7.652  10.342  1.1341  0.4458 -0.8882
  902MOL0     H21747   4.381   7.537  10.212 -1.5389 -1.1558 -0.0806
  902MOL0     H21748   4.574   7.434  10.321 -0.7780  0.2434 -0.4864
  902MOL0     H21749   4.590   7.609  10.264  0.7129  0.6445  0.4158
  902MOL0     H21750   3.406   7.536  10.053 -0.7251  0.1870  0.3598
  902MOL0     H21751   3.192   7.461  10.116  1.5273  0.4444 -2.7575
  902MOL0     H21752   2.972   7.214  10.451 -0.0381  1.8252  0.2205
  902MOL0     H21753   2.762   7.130  10.549 -1.5595  2.4943 -0.5027
  902MOL0     H21754   0.902   6.532  10.302  1.8360 -2.5534 -0.2670
  902MOL0     H21755   0.649   6.604  10.354 -0.0086 -0.2932 -3.0305
  902MOL0     H21756   0.295   6.442  10.722  0.9751  0.1626 -0.7909
  902MOL0     H21757   0.102   6.547  10.804 -0.3913  3.1130 -1.1539
  902MOL0     H21758  -0.277   6.527  10.565  1.2121 -0.7674  1.6136
  902MOL0     H21759  -0.213   6.679  10.501  0.0743  0.4933  1.0783
  902MOL0     H21760  -0.372   6.643  10.758  0.0435 -1.8036 -0.5967
  902MOL0     H21761  -0.430   6.714  10.611 -1.7853 -1.3441  1.2731
  902MOL0     H21762  -0.273   6.892  10.630  2.5290 -4.2896 -1.4515
  902MOL0     H21763  -0.208   6.835  10.787 -0.0095  0.0880 -1.1926
  902MOL0     H21764  -0.389   7.021  10.806 -1.6508 -0.8919  2.5921
  902MOL0     H21765  -0.492   6.911  10.724 -1.3851 -1.9913  1.5913
  902MOL0     H21766  -0.507   6.740  11.110  0.6008 -0.3944 -0.2626
  902MOL0     H21767  -0.068   6.566  10.407 -0.6546  1.2050  0.3398
  902MOL0     H21768   0.179   6.359  10.249  0.9492 -0.7235  2.0219
  902MOL0     H21769   0.062   6.488  10.219  1.2643  1.4293 -1.1224
  902MOL0     H21770   0.233   6.521  10.237  0.5906 -2.1615 -1.1745
  903MOL0     O21771   8.654   9.900   7.193 -0.3512 -0.3163 -0.8059
  903MOL0     C21772   8.702   9.800   7.144  0.0681  0.4583 -0.7760
  903MOL0     O21773   8.631   9.687   7.131 -0.3796  0.5185 -0.5690
  903MOL0     C21774   8.521   9.680   7.205  0.1289 -0.1384 -0.1386
  903MOL0     C21775   8.397   9.681   7.151 -0.2964 -0.7730 -1.1596
  903MOL0     C21776   8.286   9.663   7.229  0.5479 -0.1458  0.4945
  903MOL0     C21777   8.292   9.654   7.365  1.4334  0.0344  0.0160
  903MOL0     O21778   8.183   9.633   7.451 -0.2516 -0.2050  0.2880
  903MOL0     C21779   8.050   9.652   7.393  0.4842  0.2789 -0.4336
  903MOL0     C21780   7.942   9.665   7.499 -0.9803 -0.4703 -0.6466
  903MOL0     C21781   7.811   9.684   7.436  0.7905  0.9932 -0.3693
  903MOL0     C21782   7.700   9.663   7.527 -0.1864 -0.4523  0.4001
  903MOL0     C21783   7.562   9.706   7.470 -0.1355 -0.1731  0.6563
  903MOL0     C21784   7.460   9.685   7.585  0.4359 -0.2928  0.2777
  903MOL0     C21785   7.319   9.753   7.559 -0.0479  0.5481 -0.4634
  903MOL0     C21786   7.318   9.905   7.569  0.7076 -0.0924  0.2765
  903MOL0     N21787   7.397   9.956   7.683 -0.5340 -0.1957  0.6208
  903MOL0     C21788   7.513  10.036   7.664 -0.4823  0.7530  0.7803
  903MOL0     C21789   7.549  10.058   7.791  0.5099 -0.6155 -0.2154
  903MOL0     C21790   7.676  10.112   7.832 -0.6074 -0.3823 -0.4004
  903MOL0     C21791   7.758  10.010   7.928  0.6141  0.0403  0.1101
  903MOL0     C21792   7.806   9.893   7.849 -0.2152 -0.3564 -0.6523
  903MOL0     C21793   7.834   9.772   7.932 -0.5696  0.4895 -0.4031
  903MOL0     O21794   7.951   9.802   8.018  0.6735 -0.2054  0.3073
  903MOL0     C21795   8.067   9.826   7.950 -0.0636 -0.1057  0.0135
  903MOL0     C21796   8.112   9.762   7.838 -0.7633  0.0805 -0.4165
  903MOL0     C21797   8.237   9.776   7.781 -1.0191 -0.5706  0.1032
  903MOL0     C21798   8.333   9.859   7.840  0.3767 -0.3736  0.6425
  903MOL0     C21799   8.463   9.872   7.781 -0.5843 -0.2930 -0.5960
  903MOL0     O21800   8.514   9.768   7.701  0.0842 -0.1653 -0.6920
  903MOL0     C21801   8.632   9.785   7.633  0.3381  0.8780 -0.5645
  903MOL0     C21802   8.720   9.681   7.662  0.6023  0.5790 -0.0552
  903MOL0     C21803   8.849   9.690   7.610 -0.1205  0.0625  0.4851
  903MOL0     C21804   8.895   9.789   7.527 -0.1344 -0.1502  0.3830
  903MOL0     O21805   9.022   9.775   7.481  0.1882  0.4203 -0.4680
  903MOL0     C21806   9.097   9.891   7.474  0.1794 -0.2660 -0.9441
  903MOL0     C21807   9.232   9.874   7.400 -0.0467  0.2339  0.0832
  903MOL0     C21808   9.312   9.758   7.452  0.8051  0.1150 -0.5339
  903MOL0     C21809   9.455   9.750   7.412  0.0592  1.3282  0.2430
  903MOL0     C21810   9.533   9.654   7.495  0.5487 -0.3213  0.1441
  903MOL0     C21811   9.687   9.664   7.484  0.0828  0.0209 -0.8192
  903MOL0     C21812   9.728   9.677   7.343  0.1551 -0.3329  0.2004
  903MOL0     C21813   9.883   9.666   7.337  0.9851 -0.9305 -0.3467
  903MOL0    Cl21814   9.940   9.824   7.388  0.0390  0.0373  0.3587
  903MOL0     C21815   8.798   9.885   7.486 -0.4465 -0.5553  0.0791
  903MOL0     C21816   8.671   9.885   7.543  0.0477  0.4378 -0.4003
  903MOL0     O21817   8.518   9.975   7.807 -0.5464 -0.2385 -0.6993
  903MOL0     C21818   8.293   9.927   7.959  0.9314  0.2593  0.5159
  903MOL0     C21819   8.156   9.923   8.005  0.4165  0.0280  0.0954
  903MOL0     N21820   7.445  10.017   7.877 -0.6958 -0.6761  0.0295
  903MOL0     N21821   7.363   9.951   7.811  0.0237 -0.4830  0.7819
  903MOL0     C21822   8.415   9.628   7.422  0.7867  0.3553 -0.2859
  903MOL0     C21823   8.530   9.651   7.341 -1.0897 -0.1355 -0.8128
  903MOL0     C21824   8.839   9.808   7.085  0.5223 -0.4831 -0.7808
  903MOL0     C21825   8.920   9.918   7.127  0.5118  0.0574  0.3608
  903MOL0     C21826   9.052   9.937   7.079  0.2494  0.3574  0.3011
  903MOL0     C21827   9.108   9.851   6.992 -0.4292 -0.9882  0.5733
  903MOL0     O21828   9.236   9.855   6.943 -0.5292 -0.2915 -0.0688
  903MOL0     C21829   9.340   9.916   7.020  0.3824  0.0504 -0.1137
  903MOL0     C21830   9.456   9.942   6.934 -0.3086  0.4846 -0.2044
  903MOL0     C21831   9.513   9.818   6.855  0.9992 -0.8082 -0.4139
  903MOL0     C21832   9.505   9.690   6.943  0.2424 -0.7088  0.2458
  903MOL0     C21833   9.571   9.581   6.861 -0.8542 -0.2461 -0.4810
  903MOL0     C21834   9.631   9.493   6.798  0.5096  0.1718  0.8770
  903MOL0     C21835   9.030   9.744   6.946  0.1845 -0.7384  1.3008
  903MOL0     C21836   8.897   9.718   6.998 -0.8706  0.4041 -1.0161
  903MOL0     C21837   8.826   9.601   6.933 -0.1765  0.0723 -0.1708
  903MOL0     H21838   8.386   9.691   7.044  2.3277 -1.8704 -1.5898
  903MOL0     H21839   8.192   9.662   7.175  0.9692 -0.7203 -0.2453
  903MOL0     H21840   8.049   9.738   7.326 -2.8889  0.1143 -0.7266
  903MOL0     H21841   8.025   9.561   7.339 -0.5417 -1.3920  2.6109
  903MOL0     H21842   7.957   9.752   7.564 -1.7378 -1.1711  0.4950
  903MOL0     H21843   7.946   9.582   7.570  1.0715  2.3240  2.8695
  903MOL0     H21844   7.804   9.609   7.358 -1.4304 -0.0370  0.7122
  903MOL0     H21845   7.792   9.786   7.400 -0.2119  1.4439  1.2927
  903MOL0     H21846   7.696   9.565   7.574  0.4513  0.7756  3.2266
  903MOL0     H21847   7.713   9.733   7.610  1.1174 -0.0311 -0.1369
  903MOL0     H21848   7.550   9.811   7.442  0.8334 -0.4642 -0.9843
  903MOL0     H21849   7.532   9.650   7.381  1.0897 -0.3642  0.3503
  903MOL0     H21850   7.454   9.576   7.593  2.0341 -0.3727  0.6688
  903MOL0     H21851   7.502   9.724   7.678  0.4441  0.8439 -0.1951
  903MOL0     H21852   7.251   9.710   7.632  2.0608 -1.5134  0.4007
  903MOL0     H21853   7.285   9.725   7.459  0.3834 -0.3136 -0.3745
  903MOL0     H21854   7.335   9.963   7.478  2.2135  0.2962  0.7883
  903MOL0     H21855   7.216   9.935   7.597  0.3754 -1.4470  0.5850
  903MOL0     H21856   7.580  10.039   7.578 -1.4245 -1.1243 -0.0708
  903MOL0     H21857   7.740  10.135   7.746 -0.3471  0.6949  0.0809
  903MOL0     H21858   7.654  10.203   7.888  1.6175 -0.1046  0.1008
  903MOL0     H21859   7.838  10.049   7.991  1.1013 -3.2672  1.7623
  903MOL0     H21860   7.698   9.968   8.010  2.5141  0.6532  1.8748
  903MOL0     H21861   7.894   9.919   7.789  1.9399  1.5905  3.0423
  903MOL0     H21862   7.732   9.867   7.772 -1.3473 -2.1956  0.9792
  903MOL0     H21863   7.853   9.686   7.867  0.5971  0.4568 -0.0281
  903MOL0     H21864   7.746   9.741   7.990 -1.2409  0.5900 -1.3277
  903MOL0     H21865   8.048   9.686   7.795  1.2888 -1.5564 -0.7544
  903MOL0     H21866   8.262   9.721   7.692  1.7428  0.1722  0.3159
  903MOL0     H21867   8.683   9.596   7.718 -0.4160  1.9410  1.4675
  903MOL0     H21868   8.918   9.614   7.645 -2.7690 -1.9448  1.7405
  903MOL0     H21869   9.038   9.963   7.415  0.1057  0.8224  0.4076
  903MOL0     H21870   9.122   9.924   7.575  3.3223 -0.0049 -1.6930
  903MOL0     H21871   9.200   9.862   7.296  0.8042  1.2405 -0.3160
  903MOL0     H21872   9.286   9.969   7.408  1.7064 -0.6766 -0.3637
  903MOL0     H21873   9.313   9.765   7.561  0.3199 -4.2057 -0.0745
  903MOL0     H21874   9.256   9.665   7.438  0.8015  0.1090 -0.4804
  903MOL0     H21875   9.498   9.850   7.425  0.8049  1.1259 -0.5648
  903MOL0     H21876   9.451   9.714   7.309  3.8073  0.7230  0.1619
  903MOL0     H21877   9.504   9.557   7.452  1.5322  0.6873 -3.0317
  903MOL0     H21878   9.505   9.655   7.601 -1.2806  0.0377 -0.3069
  903MOL0     H21879   9.726   9.748   7.542  3.8863 -2.5583  0.7198
  903MOL0     H21880   9.735   9.571   7.513 -1.2918 -0.6890 -0.7136
  903MOL0     H21881   9.700   9.775   7.304  1.2788  0.7363  1.9050
  903MOL0     H21882   9.690   9.606   7.269 -1.1630  1.9257 -1.3950
  903MOL0     H21883   9.917   9.593   7.411 -1.3744 -1.6133  0.1301
  903MOL0     H21884   9.924   9.650   7.237  0.2476 -0.8800 -0.6608
  903MOL0     H21885   8.817   9.951   7.402 -1.5553  0.1293  0.3455
  903MOL0     H21886   8.598   9.955   7.503 -1.5289 -1.6859 -1.4435
  903MOL0     H21887   8.353  10.001   8.011  1.3220  0.2717  0.0542
  903MOL0     H21888   8.128   9.983   8.091 -1.5113  1.5419 -1.4856
  903MOL0     H21889   8.421   9.593   7.524 -1.1438 -4.5708 -1.5821
  903MOL0     H21890   8.628   9.639   7.388 -2.2122 -0.8240  1.5251
  903MOL0     H21891   8.881   9.993   7.196 -2.9677 -2.5284  1.4915
  903MOL0     H21892   9.103  10.026   7.115  0.7113  0.5578 -0.8023
  903MOL0     H21893   9.368   9.847   7.101  0.8880 -1.1539 -1.2910
  903MOL0     H21894   9.296  10.004   7.068 -1.4197 -0.8987  0.0948
  903MOL0     H21895   9.542   9.979   6.991  0.3648  0.6447 -1.2946
  903MOL0     H21896   9.435  10.017   6.857 -0.9700  0.5300  0.0165
  903MOL0     H21897   9.611   9.842   6.813  0.2604 -1.1406 -2.4412
  903MOL0     H21898   9.436   9.809   6.778 -1.7388  1.3063  1.8689
  903MOL0     H21899   9.545   9.709   7.044  1.5981 -2.7139  0.1429
  903MOL0     H21900   9.398   9.674   6.958 -0.1777  2.4962  1.6285
  903MOL0     H21901   9.690   9.426   6.738  0.7782  0.6979  0.5508
  903MOL0     H21902   9.071   9.681   6.867  2.4942  0.0579  1.7882
  903MOL0     H21903   8.837   9.516   7.001  1.8499 -0.6887 -1.3459
  903MOL0     H21904   8.720   9.612   6.910 -0.0265  0.1598 -0.8497
  903MOL0     H21905   8.878   9.576   6.841  1.3646  1.8405  0.1433
  904MOL0     O21906   9.680   0.473   0.898  0.2430  1.0957 -1.0539
  904MOL0     C21907   9.613   0.530   0.814 -0.2676  0.6399 -0.0229
  904MOL0     O21908   9.646   0.530   0.679 -0.3438 -0.1464 -0.1480
  904MOL0     C21909   9.756   0.475   0.633 -0.7045  1.0060 -0.8631
  904MOL0     C21910   9.845   0.534   0.538 -0.0718  0.3104 -0.0079
  904MOL0     C21911   9.956   0.463   0.490 -0.1997  0.3045  0.1860
  904MOL0     C21912   9.982   0.331   0.542 -0.4038 -0.6936  0.3515
  904MOL0     O21913  10.095   0.253   0.504 -0.0380  0.0142 -0.0521
  904MOL0     C21914  10.149   0.255   0.367  0.4183 -0.1579  0.1680
  904MOL0     C21915  10.231   0.129   0.334  0.1384 -0.0311 -0.9567
  904MOL0     C21916  10.376   0.144   0.382 -0.0007 -0.3262 -0.6499
  904MOL0     C21917  10.459   0.025   0.348 -0.1826  1.1913 -0.1810
  904MOL0     C21918  10.606   0.039   0.387 -0.6425  0.5415 -0.2460
  904MOL0     C21919  10.683  -0.082   0.338  0.6454 -0.3805  0.3775
  904MOL0     C21920  10.834  -0.085   0.347 -0.0463 -0.1348  0.5273
  904MOL0     C21921  10.893  -0.060   0.488 -0.2767  0.3044  0.5540
  904MOL0     N21922  11.040  -0.059   0.485 -0.4174 -0.9188  0.2631
  904MOL0     C21923  11.122   0.023   0.410 -0.2063  0.3289 -0.6338
  904MOL0     C21924  11.253  -0.019   0.439  0.9911 -0.1841 -0.2557
  904MOL0     C21925  11.377   0.027   0.367  0.4719 -0.1453  0.1774
  904MOL0     C21926  11.409  -0.060   0.246 -0.2838  0.3758 -0.6696
  904MOL0     C21927  11.533  -0.001   0.170  1.5148  0.3770  0.5760
  904MOL0     C21928  11.659   0.008   0.248  1.2063 -0.5699  0.8795
  904MOL0     O21929  11.701  -0.124   0.263 -0.3534  0.0438 -0.0673
  904MOL0     C21930  11.806  -0.151   0.341 -0.9985 -0.9707 -0.6340
  904MOL0     C21931  11.849  -0.284   0.338 -0.2329 -0.6833 -0.0690
  904MOL0     C21932  11.972  -0.319   0.398 -0.3126 -0.5375 -0.7215
  904MOL0     C21933  12.045  -0.223   0.470  0.4423 -0.9382 -0.1824
  904MOL0     C21934  12.178  -0.255   0.541 -0.5217 -0.9992  0.1844
  904MOL0     O21935  12.257  -0.151   0.578 -0.1680 -0.1089 -0.0603
  904MOL0     C21936  12.381  -0.172   0.631  1.0081  0.0703 -0.0916
  904MOL0     C21937  12.485  -0.224   0.549  0.1493 -0.0472 -1.1591
  904MOL0     C21938  12.610  -0.245   0.607  0.6631  0.4268  0.7802
  904MOL0     C21939  12.646  -0.196   0.734  0.0498  0.3826 -0.3438
  904MOL0     O21940  12.786  -0.198   0.745  1.1414  0.2554 -0.9388
  904MOL0     C21941  12.832  -0.092   0.830  0.1365 -0.1830  0.9548
  904MOL0     C21942  12.978  -0.074   0.824 -0.6600 -0.2437 -0.3285
  904MOL0     C21943  13.055  -0.211   0.814 -0.1611  0.5727 -0.0689
  904MOL0     C21944  13.214  -0.193   0.793  1.3287 -0.7392  0.0709
  904MOL0     C21945  13.292  -0.317   0.783 -0.0500  0.1289  0.4302
  904MOL0     C21946  13.438  -0.280   0.760  0.0458 -0.5406  0.2566
  904MOL0     C21947  13.495  -0.197   0.877 -0.5951 -0.0222  0.0129
  904MOL0     C21948  13.637  -0.165   0.835 -0.1668  0.1015  0.3493
  904MOL0    Cl21949  13.717  -0.058   0.938 -0.5986 -0.1804 -0.5003
  904MOL0     C21950  12.549  -0.140   0.812  1.1591 -0.8583  0.1519
  904MOL0     C21951  12.424  -0.125   0.761  0.9934  0.3975 -0.0874
  904MOL0     O21952  12.213  -0.371   0.542 -0.1384 -0.5067 -0.0988
  904MOL0     C21953  12.002  -0.089   0.475 -0.1290 -0.6648 -0.2002
  904MOL0     C21954  11.876  -0.059   0.418 -0.7956 -0.2563  0.2034
  904MOL0     N21955  11.247  -0.128   0.515  0.3007  0.7745 -0.1586
  904MOL0     N21956  11.121  -0.149   0.543 -0.8558 -0.7489 -0.7931
  904MOL0     C21957   9.906   0.283   0.639  0.3059  0.1360 -0.3917
  904MOL0     C21958   9.790   0.349   0.684  0.8083 -0.1970  0.7361
  904MOL0     C21959   9.491   0.598   0.859 -0.2708  1.3726  0.2544
  904MOL0     C21960   9.391   0.521   0.926  0.2902 -0.6613 -0.0043
  904MOL0     C21961   9.268   0.584   0.953 -0.5902 -0.0378 -0.8042
  904MOL0     C21962   9.242   0.720   0.925 -0.1844 -0.0444 -0.5869
  904MOL0     O21963   9.119   0.781   0.959 -0.7187 -0.0165 -0.1448
  904MOL0     C21964   9.015   0.695   1.009 -0.5478 -0.3191 -0.2570
  904MOL0     C21965   8.885   0.767   1.019 -1.0053  0.8313 -0.0526
  904MOL0     C21966   8.788   0.691   1.108 -0.1448 -0.2701 -0.6061
  904MOL0     C21967   8.660   0.779   1.125 -0.0125  0.0790  0.0148
  904MOL0     C21968   8.586   0.799   0.992 -0.2296 -0.5349 -0.2426
  904MOL0     C21969   8.541   0.809   0.874  0.5175  0.5182 -0.0666
  904MOL0     C21970   9.342   0.795   0.860  0.0651  0.2850 -0.5073
  904MOL0     C21971   9.464   0.733   0.833 -0.3286 -0.3531 -0.0173
  904MOL0     C21972   9.563   0.821   0.765 -0.5583 -0.1153  0.7184
  904MOL0     H21973   9.818   0.637   0.515  0.9393  1.0546  1.9287
  904MOL0     H21974  10.020   0.507   0.415  0.1923 -1.2484 -0.4267
  904MOL0     H21975  10.062   0.257   0.301 -0.8033 -1.7989  1.6333
  904MOL0     H21976  10.207   0.343   0.338 -1.3269  0.3668 -2.0903
  904MOL0     H21977  10.238   0.105   0.228 -1.2879 -0.8338 -0.8824
  904MOL0     H21978  10.185   0.048   0.391 -2.6936  4.6460  4.5928
  904MOL0     H21979  10.375   0.167   0.489  2.5798  2.4681 -1.0873
  904MOL0     H21980  10.419   0.234   0.336 -0.1415 -0.4635 -1.0467
  904MOL0     H21981  10.434  -0.071   0.396  3.3062  0.8809  1.3386
  904MOL0     H21982  10.461   0.003   0.241  0.5809  0.8592 -0.1060
  904MOL0     H21983  10.650   0.128   0.341 -2.0823  1.5613  0.2819
  904MOL0     H21984  10.613   0.053   0.496 -3.4257 -0.6255  0.1754
  904MOL0     H21985  10.644  -0.174   0.384  1.0688  0.3445  2.2732
  904MOL0     H21986  10.659  -0.085   0.231 -4.4137 -0.6104  1.2632
  904MOL0     H21987  10.859  -0.004   0.278  0.2830 -0.6507  0.0289
  904MOL0     H21988  10.866  -0.184   0.312  2.5584  0.6881  0.3171
  904MOL0     H21989  10.865   0.040   0.524 -0.5693  0.9149 -1.2700
  904MOL0     H21990  10.863  -0.144   0.551  0.5486 -1.2172 -1.0040
  904MOL0     H21991  11.086   0.104   0.348  2.2493  3.4503  1.6464
  904MOL0     H21992  11.353   0.130   0.341 -0.3122 -0.5498 -0.7715
  904MOL0     H21993  11.459   0.027   0.440  2.0734  2.9953 -1.4068
  904MOL0     H21994  11.429  -0.162   0.279  1.2716  0.8348 -0.0654
  904MOL0     H21995  11.325  -0.063   0.177 -1.1790 -0.3788  0.4169
  904MOL0     H21996  11.512   0.104   0.144  0.9773  0.8957  2.9218
  904MOL0     H21997  11.540  -0.054   0.074 -1.4484 -2.5573  1.8150
  904MOL0     H21998  11.633   0.062   0.340 -0.4972  2.9618 -1.4410
  904MOL0     H21999  11.730   0.064   0.186  0.6679  0.6228  1.3024
  904MOL0     H22000  11.803  -0.358   0.273 -0.3954  0.3707 -1.1851
  904MOL0     H22001  12.009  -0.421   0.406  1.7039  0.2249  0.5398
  904MOL0     H22002  12.442  -0.272   0.461 -2.0358 -1.7620  0.7214
  904MOL0     H22003  12.683  -0.297   0.545 -0.5161  2.1537 -2.3224
  904MOL0     H22004  12.783   0.003   0.811 -1.6723 -1.4319 -0.9747
  904MOL0     H22005  12.807  -0.117   0.934  5.5518 -0.1373  2.6289
  904MOL0     H22006  12.997  -0.013   0.734 -0.8502 -0.1151 -0.2819
  904MOL0     H22007  13.010  -0.024   0.916 -1.9077 -1.1500  0.6367
  904MOL0     H22008  13.038  -0.270   0.905 -1.9075  1.2867  0.1169
  904MOL0     H22009  13.013  -0.269   0.732  1.2783 -2.3097  1.0914
  904MOL0     H22010  13.248  -0.120   0.867  1.9960 -0.6299 -0.3406
  904MOL0     H22011  13.226  -0.145   0.696  3.2063  1.9103  1.4918
  904MOL0     H22012  13.259  -0.380   0.699 -0.4213 -1.0059  1.4081
  904MOL0     H22013  13.274  -0.371   0.877 -3.3646  1.1886  0.5466
  904MOL0     H22014  13.498  -0.372   0.758 -1.0696 -1.2733 -1.5327
  904MOL0     H22015  13.448  -0.218   0.671 -1.3248 -1.9018 -0.8974
  904MOL0     H22016  13.505  -0.253   0.971 -2.2540  0.0243  0.2528
  904MOL0     H22017  13.446  -0.103   0.902  0.6548  0.3691  1.1152
  904MOL0     H22018  13.697  -0.256   0.828 -1.0373 -0.5642  1.2913
  904MOL0     H22019  13.641  -0.129   0.732  0.4178  1.5146  0.8366
  904MOL0     H22020  12.559  -0.102   0.913 -2.1392 -0.8755  0.6077
  904MOL0     H22021  12.355  -0.068   0.824 -0.4427 -2.1439  0.8056
  904MOL0     H22022  12.048  -0.011   0.535  1.5232 -0.3582 -1.8028
  904MOL0     H22023  11.850   0.046   0.415 -0.1802 -0.1183 -0.8430
  904MOL0     H22024   9.931   0.187   0.684  4.0443  1.6050  1.0259
  904MOL0     H22025   9.714   0.310   0.750 -0.7562  1.1284 -0.1903
  904MOL0     H22026   9.424   0.420   0.947  0.8621 -0.1677  1.6623
  904MOL0     H22027   9.201   0.525   1.015 -1.0491  0.8605 -0.4359
  904MOL0     H22028   9.055   0.665   1.106  0.4449 -0.6778 -0.7580
  904MOL0     H22029   9.000   0.605   0.948  0.9978 -1.3812  0.8264
  904MOL0     H22030   8.844   0.765   0.918 -0.3679 -1.0332 -0.3194
  904MOL0     H22031   8.901   0.872   1.044 -1.3540  0.4938  1.7242
  904MOL0     H22032   8.834   0.684   1.207  0.4306 -0.0275 -0.8498
  904MOL0     H22033   8.754   0.592   1.077  1.0767 -1.3836  1.3823
  904MOL0     H22034   8.598   0.730   1.202  3.1337 -3.7393  0.4436
  904MOL0     H22035   8.680   0.882   1.156  2.2020  1.1775 -4.3787
  904MOL0     H22036   8.503   0.844   0.780  1.2236 -3.2956 -1.9785
  904MOL0     H22037   9.309   0.895   0.832  1.6088  0.3052 -2.4636
  904MOL0     H22038   9.661   0.776   0.748  0.0062  0.8905  1.2013
  904MOL0     H22039   9.522   0.854   0.670 -0.2040  1.4913  1.0819
  904MOL0     H22040   9.583   0.902   0.836 -2.6282 -0.5514  1.8854
  905MOL0     O22041   7.630   9.668   5.434  0.1281  0.0838 -0.1604
  905MOL0     C22042   7.591   9.580   5.515  0.4573  0.5802 -1.1955
  905MOL0     O22043   7.621   9.441   5.500  0.5114  0.3575 -0.0427
  905MOL0     C22044   7.705   9.400   5.398  0.2557 -0.6457  0.1878
  905MOL0     C22045   7.841   9.438   5.404  0.0254 -0.3792 -0.1646
  905MOL0     C22046   7.935   9.377   5.322 -0.6025  0.0833 -0.1575
  905MOL0     C22047   7.891   9.279   5.228 -0.3607 -0.7708 -0.9933
  905MOL0     O22048   7.981   9.232   5.136  0.7831  0.1593 -0.3659
  905MOL0     C22049   8.034   9.339   5.050  0.1534 -0.7497 -0.2850
  905MOL0     C22050   8.101   9.272   4.937 -0.5345  0.4327 -0.2604
  905MOL0     C22051   8.129   9.370   4.819 -0.3681 -0.4617 -0.0737
  905MOL0     C22052   8.006   9.395   4.737  0.4338  0.1940 -0.0730
  905MOL0     C22053   7.999   9.532   4.671 -0.7280  0.5005 -0.2485
  905MOL0     C22054   7.949   9.658   4.758 -0.2508 -0.0433  0.1968
  905MOL0     C22055   7.950   9.789   4.674 -0.6762 -0.2563 -0.3456
  905MOL0     C22056   8.085   9.859   4.673  0.6573  0.3718  0.4938
  905MOL0     N22057   8.191   9.808   4.588 -0.8526  0.6092 -0.1949
  905MOL0     C22058   8.203   9.827   4.457  0.8534 -0.0939  0.6893
  905MOL0     C22059   8.329   9.786   4.433  0.2431  0.7565  0.4653
  905MOL0     C22060   8.414   9.802   4.311  0.3142  0.0380 -0.3895
  905MOL0     C22061   8.359   9.738   4.185 -0.1820  0.5812  0.8033
  905MOL0     C22062   8.248   9.816   4.114  0.3324 -0.2917 -1.1367
  905MOL0     C22063   8.221   9.747   3.982  0.0067 -0.0104  0.6450
  905MOL0     O22064   8.159   9.616   4.001  1.0329 -0.6004 -0.5234
  905MOL0     C22065   8.218   9.502   3.967  0.2405 -1.0017  0.3824
  905MOL0     C22066   8.158   9.380   4.004  0.1184  0.0030 -0.3963
  905MOL0     C22067   8.223   9.258   3.978 -0.2176 -0.6089 -0.1472
  905MOL0     C22068   8.333   9.254   3.888  0.2755  0.5188 -0.5242
  905MOL0     C22069   8.398   9.122   3.862  0.0576  0.6415 -0.0422
  905MOL0     O22070   8.337   9.012   3.910  0.0891  0.0220 -0.2067
  905MOL0     C22071   8.399   8.889   3.921  0.1173 -0.6076  0.2600
  905MOL0     C22072   8.533   8.869   3.958  0.4114  1.0477 -0.4166
  905MOL0     C22073   8.587   8.749   3.979  0.5338  0.1230 -0.1128
  905MOL0     C22074   8.511   8.634   3.972  0.1095  0.0492 -0.1917
  905MOL0     O22075   8.564   8.504   3.991  0.3208 -0.1236 -0.6004
  905MOL0     C22076   8.474   8.407   4.056  0.5058  0.7990  0.8381
  905MOL0     C22077   8.565   8.319   4.137 -0.3741  0.2001  0.0090
  905MOL0     C22078   8.635   8.403   4.248 -0.2470 -0.2388 -0.3953
  905MOL0     C22079   8.765   8.338   4.298  0.4219  0.2489 -0.0038
  905MOL0     C22080   8.833   8.434   4.398 -0.3393  0.2624 -0.5249
  905MOL0     C22081   8.942   8.359   4.482  0.2333  0.3261 -0.0341
  905MOL0     C22082   9.048   8.275   4.404  0.0617 -0.3974  0.3430
  905MOL0     C22083   9.144   8.377   4.331 -0.1217 -0.4074  0.3066
  905MOL0    Cl22084   9.284   8.280   4.267  0.1689 -0.3261 -0.0945
  905MOL0     C22085   8.369   8.645   3.934 -0.6529 -0.8057 -0.7830
  905MOL0     C22086   8.324   8.771   3.905  1.2013 -0.7802 -0.0650
  905MOL0     O22087   8.504   9.122   3.801 -0.2443  0.2844  0.2180
  905MOL0     C22088   8.385   9.375   3.855 -0.3875 -0.2247 -0.3565
  905MOL0     C22089   8.332   9.496   3.889  0.4308 -0.0908 -0.8393
  905MOL0     N22090   8.386   9.733   4.557  0.4852  0.7362  0.3445
  905MOL0     N22091   8.306   9.756   4.644  1.1483 -1.0780 -0.2574
  905MOL0     C22092   7.764   9.241   5.230 -0.4291 -0.8548  0.5142
  905MOL0     C22093   7.665   9.300   5.313  0.4723 -0.9266 -0.1502
  905MOL0     C22094   7.522   9.615   5.642 -0.0376 -0.9169  0.6349
  905MOL0     C22095   7.541   9.536   5.754  0.2645  0.3084 -0.4923
  905MOL0     C22096   7.477   9.559   5.873  0.1261  0.4297 -0.0584
  905MOL0     C22097   7.398   9.664   5.890  0.6927 -0.3760 -1.1878
  905MOL0     O22098   7.338   9.670   6.014 -0.3774  0.3354 -0.7342
  905MOL0     C22099   7.255   9.784   6.032 -0.5752 -0.1700  0.3828
  905MOL0     C22100   7.244   9.816   6.175 -0.2427 -0.4992  0.2335
  905MOL0     C22101   7.179   9.699   6.247  0.9842  1.1882  0.2096
  905MOL0     C22102   7.186   9.716   6.400 -0.0297  0.1965 -0.5980
  905MOL0     C22103   7.101   9.619   6.478 -0.3545 -0.1037  0.5850
  905MOL0     C22104   7.026   9.537   6.525 -0.2396  0.5389 -0.2251
  905MOL0     C22105   7.384   9.758   5.786 -0.5003  0.0192  0.4838
  905MOL0     C22106   7.452   9.739   5.663 -0.2393 -0.0768  0.4998
  905MOL0     C22107   7.434   9.852   5.563 -0.5106  0.0690 -0.0431
  905MOL0     H22108   7.863   9.507   5.485 -2.3577 -2.0763  2.1031
  905MOL0     H22109   8.037   9.414   5.334 -0.9940  0.7138  1.4484
  905MOL0     H22110   7.951   9.398   5.010  0.1819 -0.3001  0.3115
  905MOL0     H22111   8.095   9.410   5.106  0.8835  0.4352 -2.4691
  905MOL0     H22112   8.040   9.191   4.895 -1.0518  0.9139 -0.4510
  905MOL0     H22113   8.193   9.230   4.978 -0.5191  0.7584  0.0418
  905MOL0     H22114   8.218   9.345   4.759  0.0830  1.1900 -0.1425
  905MOL0     H22115   8.155   9.469   4.856 -3.2090 -0.0004  0.9257
  905MOL0     H22116   8.008   9.319   4.658 -0.5978  1.6765 -1.6043
  905MOL0     H22117   7.915   9.383   4.797  0.5142  3.9642  1.0124
  905MOL0     H22118   8.101   9.556   4.638 -0.7274  2.1262  0.8036
  905MOL0     H22119   7.937   9.513   4.583 -0.2017  3.1169 -1.2935
  905MOL0     H22120   7.843   9.651   4.788 -0.4290  1.9610  0.1911
  905MOL0     H22121   8.002   9.675   4.852  3.0229  1.5865 -1.7909
  905MOL0     H22122   7.887   9.861   4.727 -0.1157  0.2950 -0.4093
  905MOL0     H22123   7.910   9.779   4.573 -1.6510 -2.9178  0.2316
  905MOL0     H22124   8.052   9.956   4.636 -2.7906  1.0886  4.6755
  905MOL0     H22125   8.116   9.878   4.776  1.1373  3.3384 -0.1197
  905MOL0     H22126   8.132   9.868   4.386  0.1644 -0.4776  1.1507
  905MOL0     H22127   8.421   9.908   4.288  0.4374 -0.0904 -0.9736
  905MOL0     H22128   8.517   9.767   4.327  0.8864  2.5071  1.8721
  905MOL0     H22129   8.439   9.718   4.113 -1.0012  0.5478 -0.1098
  905MOL0     H22130   8.322   9.636   4.200  1.2509 -0.5270 -2.2478
  905MOL0     H22131   8.278   9.921   4.103 -0.9266  0.5754  2.4064
  905MOL0     H22132   8.160   9.828   4.177  1.3359  1.9678 -0.0317
  905MOL0     H22133   8.308   9.749   3.916 -0.7353  3.5233 -0.4567
  905MOL0     H22134   8.155   9.802   3.914 -0.7162 -0.7158  0.7666
  905MOL0     H22135   8.062   9.373   4.055  1.6659 -3.1639  2.4636
  905MOL0     H22136   8.171   9.170   4.017 -0.8252  0.2666  1.0943
  905MOL0     H22137   8.599   8.953   3.975 -0.4038  1.0699  3.3233
  905MOL0     H22138   8.682   8.738   4.031  0.5164  1.0642  0.1336
  905MOL0     H22139   8.402   8.455   4.123 -4.0845 -1.6427 -1.8267
  905MOL0     H22140   8.415   8.353   3.981  0.6358  0.8825  0.6755
  905MOL0     H22141   8.508   8.238   4.184 -0.3396 -0.3027 -0.7924
  905MOL0     H22142   8.639   8.263   4.078  0.4640  0.0130  1.1903
  905MOL0     H22143   8.658   8.508   4.228  1.7492 -0.6545 -0.4394
  905MOL0     H22144   8.561   8.415   4.328 -0.6281  2.6461 -1.0360
  905MOL0     H22145   8.835   8.318   4.216  1.5254 -2.4864  1.4453
  905MOL0     H22146   8.733   8.241   4.338 -3.5786  0.4481 -2.2651
  905MOL0     H22147   8.757   8.488   4.455  0.3706  1.5835 -0.7765
  905MOL0     H22148   8.881   8.512   4.339  1.0621 -0.4507 -0.3629
  905MOL0     H22149   8.987   8.438   4.543  1.9285  1.7651 -2.9084
  905MOL0     H22150   8.894   8.285   4.547  1.5027  0.0566  0.6107
  905MOL0     H22151   8.996   8.205   4.338 -1.0787 -0.0952  0.8970
  905MOL0     H22152   9.113   8.213   4.467  0.2753 -2.0462 -1.4105
  905MOL0     H22153   9.088   8.427   4.252  1.7522  2.0460  0.4205
  905MOL0     H22154   9.182   8.460   4.390 -0.7404 -0.3633  0.6510
  905MOL0     H22155   8.309   8.556   3.916  0.0736 -1.9175  1.7889
  905MOL0     H22156   8.222   8.785   3.870  0.7794  2.1774  1.9866
  905MOL0     H22157   8.469   9.371   3.787  2.7715  1.8541  3.0306
  905MOL0     H22158   8.389   9.581   3.852 -0.3043  0.7989  0.0121
  905MOL0     H22159   7.742   9.162   5.159  2.7755 -0.2864 -1.3275
  905MOL0     H22160   7.562   9.269   5.295 -0.5395  0.9825  1.8739
  905MOL0     H22161   7.607   9.453   5.736 -0.3309 -0.6686  1.5921
  905MOL0     H22162   7.492   9.497   5.961 -1.2246  1.3117  0.8399
  905MOL0     H22163   7.156   9.758   5.992 -0.9034 -0.5330  1.4141
  905MOL0     H22164   7.292   9.880   5.993  0.9901 -0.1681  1.7886
  905MOL0     H22165   7.183   9.907   6.183 -3.3264 -2.1889 -1.9595
  905MOL0     H22166   7.344   9.838   6.213  1.5173 -1.0786 -3.5965
  905MOL0     H22167   7.221   9.601   6.222  2.7022  2.1374 -0.7505
  905MOL0     H22168   7.075   9.706   6.215  1.3094  2.5419 -0.6268
  905MOL0     H22169   7.290   9.709   6.435 -0.2703  0.0001  0.0982
  905MOL0     H22170   7.154   9.818   6.424  2.3976  0.8435  0.1595
  905MOL0     H22171   6.968   9.464   6.578 -2.5513  0.6154 -2.4325
  905MOL0     H22172   7.325   9.848   5.792  1.0555  1.0591  0.6150
  905MOL0     H22173   7.373   9.926   5.615 -0.0459  0.5601 -0.1838
  905MOL0     H22174   7.531   9.890   5.530 -1.1264  0.4396 -1.5244
  905MOL0     H22175   7.385   9.821   5.471  0.6915 -0.6436 -0.4670
  906MOL0     O22176   2.381   5.377   9.457  0.1280 -0.6563 -0.0313
  906MOL0     C22177   2.495   5.405   9.426 -0.5150  0.3074 -0.2027
  906MOL0     O22178   2.528   5.455   9.307 -0.3064 -0.5497 -0.0534
  906MOL0     C22179   2.440   5.473   9.201 -0.3546 -0.5721 -0.3557
  906MOL0     C22180   2.388   5.370   9.134 -0.3740  0.1399 -0.3081
  906MOL0     C22181   2.303   5.393   9.019 -0.5747  0.6325 -0.1418
  906MOL0     C22182   2.266   5.520   8.984 -0.1451 -0.2947 -0.1551
  906MOL0     O22183   2.180   5.552   8.881  0.4159 -0.2128 -0.4138
  906MOL0     C22184   2.141   5.455   8.781  0.0341  0.7431 -0.0510
  906MOL0     C22185   2.029   5.538   8.719 -0.3879 -0.0572  1.3293
  906MOL0     C22186   1.932   5.458   8.631 -0.5660  0.3754 -0.3579
  906MOL0     C22187   1.786   5.514   8.622 -0.3111  0.8781 -0.4205
  906MOL0     C22188   1.716   5.463   8.496 -0.7504 -0.0531  0.1405
  906MOL0     C22189   1.566   5.459   8.524 -0.0678 -0.3451 -0.4232
  906MOL0     C22190   1.504   5.594   8.561  0.1158 -0.4615 -0.1343
  906MOL0     C22191   1.512   5.646   8.701  0.0694 -0.1901  0.1612
  906MOL0     N22192   1.461   5.541   8.787 -0.0487  0.7411 -0.4266
  906MOL0     C22193   1.330   5.498   8.786  0.1747 -0.4820  0.1517
  906MOL0     C22194   1.320   5.397   8.874 -0.0967 -0.5365 -0.3530
  906MOL0     C22195   1.198   5.331   8.938  0.7086  0.3355  1.0570
  906MOL0     C22196   1.060   5.405   8.912 -0.2333 -0.6452  0.4519
  906MOL0     C22197   0.942   5.356   9.006 -0.6421  0.2072 -0.8360
  906MOL0     C22198   0.810   5.440   8.973 -0.0143  0.2732 -0.0363
  906MOL0     O22199   0.702   5.421   9.066  0.5739 -0.2517 -0.5744
  906MOL0     C22200   0.715   5.431   9.204 -0.1027  0.2227  0.3366
  906MOL0     C22201   0.795   5.528   9.270  0.3225 -0.0389  0.2378
  906MOL0     C22202   0.786   5.539   9.410  0.2993  0.1630  0.1284
  906MOL0     C22203   0.702   5.453   9.481 -0.0474 -0.6447  0.6646
  906MOL0     C22204   0.705   5.454   9.631  0.3437  0.6271  0.3253
  906MOL0     O22205   0.782   5.544   9.694  0.0423  0.8049 -0.0604
  906MOL0     C22206   0.782   5.527   9.827 -0.2237  0.3917 -1.1006
  906MOL0     C22207   0.674   5.558   9.902  0.2582 -0.5939 -0.2325
  906MOL0     C22208   0.673   5.549  10.039 -0.0573 -0.7781  0.1129
  906MOL0     C22209   0.783   5.506  10.106 -0.4556 -0.0720 -0.0135
  906MOL0     O22210   0.774   5.493  10.243  0.6494 -0.3803  1.1455
  906MOL0     C22211   0.869   5.416  10.320 -0.4519 -0.2109 -0.1542
  906MOL0     C22212   0.818   5.379  10.462  0.3640 -0.3757 -0.1069
  906MOL0     C22213   0.695   5.299  10.468  0.5915 -0.3191  0.3797
  906MOL0     C22214   0.685   5.173  10.372  0.2175 -0.3242  0.0148
  906MOL0     C22215   0.552   5.096  10.378 -0.2717 -0.8755  0.1828
  906MOL0     C22216   0.433   5.181  10.327 -0.0684  0.3017  0.3903
  906MOL0     C22217   0.304   5.107  10.309  0.2005  0.0333  0.8299
  906MOL0     C22218   0.214   5.099  10.437  0.7934 -0.0326 -0.0349
  906MOL0    Cl22219   0.037   5.075  10.406  0.1161  0.1019  0.6138
  906MOL0     C22220   0.902   5.479  10.029  1.9173  0.2455 -0.2291
  906MOL0     C22221   0.901   5.487   9.889  0.5774  0.2788  0.0604
  906MOL0     O22222   0.636   5.365   9.690  0.3122 -0.5189  0.4876
  906MOL0     C22223   0.633   5.354   9.416 -0.6481  0.6737 -0.3451
  906MOL0     C22224   0.641   5.339   9.282 -0.3892  0.8114  0.7224
  906MOL0     N22225   1.449   5.386   8.930  0.1866 -0.0982  0.1911
  906MOL0     N22226   1.530   5.472   8.875  0.5631  0.0303  0.7303
  906MOL0     C22227   2.322   5.624   9.064  0.5389 -0.1354 -0.2049
  906MOL0     C22228   2.414   5.604   9.164  0.8486 -0.7302  0.6112
  906MOL0     C22229   2.597   5.414   9.535 -0.1701 -0.3664 -0.9425
  906MOL0     C22230   2.671   5.531   9.556 -0.0713  0.7371 -0.2270
  906MOL0     C22231   2.760   5.548   9.661  0.1626  0.3763 -0.0651
  906MOL0     C22232   2.769   5.446   9.756 -0.4265  1.0100  0.4036
  906MOL0     O22233   2.844   5.447   9.872  0.3865 -0.0426  0.5086
  906MOL0     C22234   2.873   5.582   9.916  0.0475  0.1914  0.5672
  906MOL0     C22235   2.910   5.580  10.064  0.1325  0.2458  0.6784
  906MOL0     C22236   2.991   5.700  10.109  0.9678  0.6994  0.0070
  906MOL0     C22237   3.131   5.695  10.048 -0.0410  0.2447 -0.2930
  906MOL0     C22238   3.220   5.795  10.109  0.0062 -0.5585  0.1621
  906MOL0     C22239   3.306   5.875  10.155  0.1673  0.2535  0.0322
  906MOL0     C22240   2.707   5.318   9.728  0.4947 -0.3066 -0.2151
  906MOL0     C22241   2.620   5.303   9.617  0.7756  0.1377  0.6350
  906MOL0     C22242   2.558   5.167   9.584 -0.1950 -0.5363 -0.4925
  906MOL0     H22243   2.409   5.271   9.172 -0.7555  0.8393  1.8873
  906MOL0     H22244   2.275   5.306   8.960  2.9280 -0.2514 -0.7550
  906MOL0     H22245   2.221   5.425   8.713 -0.5203 -2.6925  0.6075
  906MOL0     H22246   2.103   5.366   8.833 -0.1930  0.8670 -0.0050
  906MOL0     H22247   2.077   5.613   8.655  0.6851  0.1160  2.2879
  906MOL0     H22248   1.970   5.606   8.780 -0.5857  1.6958 -0.6855
  906MOL0     H22249   1.924   5.360   8.679 -1.0484  1.4565  1.9113
  906MOL0     H22250   1.965   5.438   8.529 -2.1317 -0.3885 -0.7422
  906MOL0     H22251   1.742   5.503   8.722  0.4520  1.2438 -0.0312
  906MOL0     H22252   1.797   5.619   8.595  1.6829  1.2860  1.6179
  906MOL0     H22253   1.738   5.529   8.411  2.2461  1.5816  1.9820
  906MOL0     H22254   1.751   5.362   8.472  0.7733  0.5962 -0.5339
  906MOL0     H22255   1.519   5.413   8.437  0.1966 -0.0682 -0.7183
  906MOL0     H22256   1.551   5.387   8.605 -0.0442  0.0033 -0.1056
  906MOL0     H22257   1.400   5.604   8.527 -0.1924 -0.3170  0.8252
  906MOL0     H22258   1.554   5.671   8.501  1.1430  1.9964  3.5042
  906MOL0     H22259   1.614   5.668   8.734  0.2377  0.1545 -0.5666
  906MOL0     H22260   1.455   5.737   8.723 -1.2036 -1.5418  3.0193
  906MOL0     H22261   1.248   5.528   8.723  1.3929  1.5061 -0.5759
  906MOL0     H22262   1.184   5.225   8.914 -1.1355  0.3778  1.7814
  906MOL0     H22263   1.227   5.333   9.044  0.5615  0.3687  1.0962
  906MOL0     H22264   1.069   5.514   8.918  1.1017 -0.7415  0.3971
  906MOL0     H22265   1.019   5.392   8.811 -3.4865  0.6395  1.4728
  906MOL0     H22266   0.979   5.366   9.108  0.5968  0.5493 -1.2932
  906MOL0     H22267   0.912   5.253   8.986 -1.8855  0.1745  1.0518
  906MOL0     H22268   0.779   5.417   8.870  2.1542 -0.2058 -0.6487
  906MOL0     H22269   0.834   5.546   8.981 -1.8908  0.5792  2.4226
  906MOL0     H22270   0.857   5.598   9.215  1.8938 -1.5982 -0.0574
  906MOL0     H22271   0.850   5.606   9.466 -0.2682  0.1748  0.7784
  906MOL0     H22272   0.592   5.587   9.838  0.7606  0.1722 -0.5491
  906MOL0     H22273   0.583   5.574  10.094 -1.8148  0.0501 -2.9106
  906MOL0     H22274   0.891   5.323  10.267  0.3242 -0.2012  0.1317
  906MOL0     H22275   0.964   5.470  10.331 -1.7137  1.9575  0.8105
  906MOL0     H22276   0.899   5.320  10.506 -0.6182 -1.4881  0.2521
  906MOL0     H22277   0.810   5.470  10.522  0.6590  1.5538 -2.8125
  906MOL0     H22278   0.676   5.265  10.571  2.3972 -1.5904  0.3331
  906MOL0     H22279   0.614   5.367  10.440  1.1370  0.3747  0.4525
  906MOL0     H22280   0.763   5.104  10.405 -0.4375  0.7214  4.3176
  906MOL0     H22281   0.696   5.195  10.265 -0.4002  1.5990  0.3044
  906MOL0     H22282   0.520   5.070  10.479 -0.7911  0.2074  0.3088
  906MOL0     H22283   0.565   5.002  10.323  2.3753 -1.2131  1.2338
  906MOL0     H22284   0.418   5.261  10.400 -0.2965  3.1029 -2.5302
  906MOL0     H22285   0.460   5.234  10.236  1.4112  0.2065  0.7398
  906MOL0     H22286   0.318   5.003  10.277 -0.3857  0.8921 -2.7033
  906MOL0     H22287   0.247   5.154  10.228 -0.5949 -0.0180  1.3407
  906MOL0     H22288   0.250   5.017  10.501  4.1839  0.6835 -0.8458
  906MOL0     H22289   0.220   5.187  10.502  0.9725 -1.9008  2.6733
  906MOL0     H22290   0.992   5.440  10.076 -0.3049 -5.4505  0.1338
  906MOL0     H22291   0.984   5.453   9.828 -1.0286 -1.0084 -1.5486
  906MOL0     H22292   0.567   5.280   9.461  0.1420 -2.3936 -3.6854
  906MOL0     H22293   0.595   5.256   9.230 -3.2007  4.4115 -3.1896
  906MOL0     H22294   2.284   5.723   9.041 -1.8827 -0.8617  0.4122
  906MOL0     H22295   2.456   5.685   9.222  0.7916  0.6878 -1.2432
  906MOL0     H22296   2.653   5.611   9.485 -2.4269 -1.5088 -2.3659
  906MOL0     H22297   2.823   5.636   9.651  1.3437 -0.4782 -0.3051
  906MOL0     H22298   2.788   5.650   9.907  0.9133  1.8885  3.8514
  906MOL0     H22299   2.947   5.626   9.849 -0.7515  0.7075  0.0132
  906MOL0     H22300   2.968   5.490  10.088  0.2636  0.6346  1.8940
  906MOL0     H22301   2.825   5.547  10.126  0.2750  2.1473  1.9634
  906MOL0     H22302   3.000   5.702  10.218 -0.4149 -0.7378  0.1721
  906MOL0     H22303   2.940   5.787  10.067 -1.8940 -0.4934  0.7853
  906MOL0     H22304   3.173   5.596  10.069  0.2921  0.2670 -0.8604
  906MOL0     H22305   3.116   5.714   9.942 -1.6274 -0.2869 -0.2046
  906MOL0     H22306   3.376   5.948  10.191 -0.4598  0.7131  0.3588
  906MOL0     H22307   2.721   5.232   9.793 -2.6435 -0.8780 -0.1012
  906MOL0     H22308   2.613   5.087   9.635  0.8121  0.5590  0.2180
  906MOL0     H22309   2.452   5.170   9.610 -0.5679  3.7420 -1.7999
  906MOL0     H22310   2.561   5.157   9.475 -2.7821  1.8528 -0.8827
  907MOL0     O22311  10.803   5.880   8.325 -0.4257  0.2256  0.4727
  907MOL0     C22312  10.719   5.966   8.362 -0.7621  0.4914 -0.5042
  907MOL0     O22313  10.749   6.106   8.379  0.1174 -0.0203  0.1683
  907MOL0     C22314  10.865   6.156   8.321  0.4851 -0.3071  0.0553
  907MOL0     C22315  10.920   6.264   8.379 -0.3738  0.8707 -0.5310
  907MOL0     C22316  11.039   6.315   8.334  0.0524 -0.0790 -1.3975
  907MOL0     C22317  11.098   6.271   8.214 -0.7685 -0.7381  0.6675
  907MOL0     O22318  11.213   6.319   8.157 -0.1610 -0.2457 -0.2173
  907MOL0     C22319  11.222   6.459   8.135  0.6058  0.5187 -0.3840
  907MOL0     C22320  11.318   6.495   8.026  0.5309 -0.1738  0.8550
  907MOL0     C22321  11.447   6.411   8.043 -0.2777 -0.3846  0.0945
  907MOL0     C22322  11.558   6.450   7.954  0.5734 -0.0380 -0.8937
  907MOL0     C22323  11.677   6.347   7.959  0.6414  0.3972 -0.1683
  907MOL0     C22324  11.766   6.390   7.844 -0.2918 -0.5600 -1.0579
  907MOL0     C22325  11.899   6.313   7.846 -0.4229 -0.1692  0.2087
  907MOL0     C22326  11.977   6.350   7.721  0.5154 -0.2391  0.2141
  907MOL0     N22327  12.115   6.317   7.744 -0.5217  0.1863  0.4427
  907MOL0     C22328  12.157   6.190   7.776 -1.0828 -0.0019  0.3382
  907MOL0     C22329  12.279   6.211   7.833  0.0374 -0.4231 -0.3802
  907MOL0     C22330  12.380   6.099   7.868 -0.1906  0.1621  0.5460
  907MOL0     C22331  12.531   6.143   7.874  0.7128 -0.1897 -0.0063
  907MOL0     C22332  12.558   6.170   8.027  0.4322  0.2166 -0.2437
  907MOL0     C22333  12.684   6.241   8.050  0.8001  0.9439  0.5723
  907MOL0     O22334  12.796   6.156   8.004  1.1457 -1.2119 -0.3302
  907MOL0     C22335  12.918   6.209   8.041  0.0067  0.7296 -0.6997
  907MOL0     C22336  13.016   6.117   8.070  0.4681  0.0906 -0.5167
  907MOL0     C22337  13.148   6.155   8.091  0.9789  0.6290  1.0569
  907MOL0     C22338  13.180   6.289   8.100 -0.2773 -0.0357 -0.8402
  907MOL0     C22339  13.319   6.325   8.128 -0.0963  0.0871 -0.8341
  907MOL0     O22340  13.408   6.222   8.160 -0.0711 -0.3122  1.0011
  907MOL0     C22341  13.539   6.273   8.185  0.0719  0.3284  1.0816
  907MOL0     C22342  13.619   6.329   8.079  0.1924  0.3810  0.6040
  907MOL0     C22343  13.752   6.340   8.095  0.1384  0.2676  0.9210
  907MOL0     C22344  13.811   6.308   8.216  1.0241 -0.3265  0.1140
  907MOL0     O22345  13.943   6.309   8.230 -0.2461 -0.9192 -0.5542
  907MOL0     C22346  14.023   6.249   8.117  0.7307 -0.7796 -0.1971
  907MOL0     C22347  14.163   6.231   8.179  0.9237 -0.3007 -0.1258
  907MOL0     C22348  14.169   6.135   8.300 -0.5376 -0.5321 -0.1243
  907MOL0     C22349  14.164   6.210   8.439  0.5019  0.7996 -0.4629
  907MOL0     C22350  14.127   6.113   8.552  0.1781  0.0753  0.7195
  907MOL0     C22351  14.163   6.175   8.692 -0.7359 -0.4482 -0.7657
  907MOL0     C22352  14.314   6.149   8.716  0.2969  0.3607 -0.3765
  907MOL0     C22353  14.349   6.175   8.868 -0.2435 -0.0471  0.2133
  907MOL0    Cl22354  14.284   6.339   8.922 -0.0722  0.6708 -0.0121
  907MOL0     C22355  13.733   6.266   8.327 -0.0152 -0.2271 -0.1149
  907MOL0     C22356  13.591   6.251   8.308  0.4271 -0.3551 -0.5919
  907MOL0     O22357  13.347   6.446   8.119 -0.0914  0.3652 -0.8507
  907MOL0     C22358  13.076   6.385   8.086 -0.4812  0.0318  0.6374
  907MOL0     C22359  12.950   6.345   8.053 -0.3884 -0.1126  0.0015
  907MOL0     N22360  12.305   6.353   7.833  0.1696 -0.1489  0.1958
  907MOL0     N22361  12.201   6.410   7.790  0.2859 -0.3815  0.3601
  907MOL0     C22362  11.043   6.167   8.145  0.0610 -1.0066  0.2463
  907MOL0     C22363  10.926   6.109   8.199  0.1177 -0.2770  0.0482
  907MOL0     C22364  10.582   5.932   8.398  0.1313  1.0502  0.0765
  907MOL0     C22365  10.481   6.032   8.402 -0.9055  0.0686  0.6014
  907MOL0     C22366  10.357   6.012   8.436  0.2609 -0.8824 -0.9813
  907MOL0     C22367  10.314   5.884   8.474  0.4987 -0.3939 -1.0362
  907MOL0     O22368  10.190   5.852   8.526  0.0090  0.3316 -0.3634
  907MOL0     C22369  10.147   5.957   8.621  0.0203  0.1209 -0.1132
  907MOL0     C22370  10.028   5.897   8.701  0.0325 -0.4569 -0.3936
  907MOL0     C22371  10.058   5.789   8.809 -0.9348  0.0461 -0.9379
  907MOL0     C22372  10.132   5.663   8.754 -0.0805 -0.1264 -0.4561
  907MOL0     C22373  10.128   5.540   8.838  0.2001  0.5210  0.3700
  907MOL0     C22374  10.142   5.431   8.893 -1.1515 -0.0127 -0.0013
  907MOL0     C22375  10.404   5.784   8.462  0.3219 -0.2638  0.2669
  907MOL0     C22376  10.539   5.801   8.423 -0.3495 -0.6896  0.4037
  907MOL0     C22377  10.629   5.686   8.403  0.1078 -0.5443  0.2166
  907MOL0     H22378  10.881   6.309   8.469 -0.8952  2.7770 -1.6694
  907MOL0     H22379  11.086   6.399   8.385  0.0332 -1.2938  0.7504
  907MOL0     H22380  11.123   6.500   8.115  0.2687  0.7659  1.5633
  907MOL0     H22381  11.245   6.525   8.220 -0.0540 -0.6084  0.6935
  907MOL0     H22382  11.341   6.601   8.031 -1.9387  0.3658  2.8418
  907MOL0     H22383  11.273   6.479   7.927  1.6507  1.4942  0.0347
  907MOL0     H22384  11.420   6.305   8.038 -0.8508 -0.2062 -0.7288
  907MOL0     H22385  11.484   6.430   8.145 -1.7932  1.7801  0.2922
  907MOL0     H22386  11.529   6.463   7.849  0.2098  0.0133 -0.7920
  907MOL0     H22387  11.593   6.550   7.982 -2.8973  1.0022  0.2425
  907MOL0     H22388  11.717   6.341   8.061  1.6479  1.6981 -0.4548
  907MOL0     H22389  11.632   6.249   7.944 -1.5547  0.9154  2.2660
  907MOL0     H22390  11.731   6.377   7.741  1.5915  0.3799 -1.8714
  907MOL0     H22391  11.788   6.497   7.851 -0.0596 -0.6992  0.6009
  907MOL0     H22392  11.885   6.205   7.848 -0.5115 -0.1749 -0.4562
  907MOL0     H22393  11.957   6.343   7.933  0.5214 -0.7054 -0.2243
  907MOL0     H22394  11.940   6.316   7.624  3.0361  1.9992 -1.6582
  907MOL0     H22395  11.968   6.458   7.712 -2.7093 -0.3643  0.6055
  907MOL0     H22396  12.102   6.101   7.747 -0.5259  0.3627 -2.0444
  907MOL0     H22397  12.354   6.035   7.952 -3.6132  0.1686 -0.3632
  907MOL0     H22398  12.382   6.033   7.781  0.1443 -3.3664  3.0450
  907MOL0     H22399  12.603   6.068   7.841  0.6936  1.5736 -4.7671
  907MOL0     H22400  12.538   6.234   7.815  1.7398  1.9085  3.1035
  907MOL0     H22401  12.555   6.072   8.076 -0.1657  1.2095  1.8312
  907MOL0     H22402  12.474   6.234   8.055  0.1156 -0.0705 -0.5119
  907MOL0     H22403  12.691   6.251   8.158  0.3802 -0.1226  0.7058
  907MOL0     H22404  12.682   6.342   8.007 -0.5063  0.1251 -1.4452
  907MOL0     H22405  12.988   6.013   8.080  1.4330 -0.0755  0.8259
  907MOL0     H22406  13.220   6.076   8.112 -0.7454 -1.4782 -0.6145
  907MOL0     H22407  13.576   6.348   7.982  0.7131  0.7534  0.4394
  907MOL0     H22408  13.819   6.368   8.014  1.3497 -1.5371  1.2289
  907MOL0     H22409  13.973   6.156   8.088 -2.0328  0.9607 -1.4034
  907MOL0     H22410  14.026   6.315   8.030 -4.0388  0.0568 -0.0217
  907MOL0     H22411  14.221   6.197   8.094 -1.0273  1.2531 -2.2008
  907MOL0     H22412  14.201   6.331   8.203 -0.8394  0.1709  0.8983
  907MOL0     H22413  14.076   6.077   8.302 -1.5662  1.0345  1.5893
  907MOL0     H22414  14.258   6.073   8.296 -1.6288 -2.3076  1.4660
  907MOL0     H22415  14.100   6.297   8.430 -1.5925 -0.6837 -0.7056
  907MOL0     H22416  14.264   6.251   8.455  0.7629 -0.1061  0.3605
  907MOL0     H22417  14.182   6.022   8.524 -1.3344  0.0581 -2.6387
  907MOL0     H22418  14.019   6.100   8.552 -0.0511  1.5653 -0.8535
  907MOL0     H22419  14.141   6.282   8.699  2.2062  0.1950 -0.2000
  907MOL0     H22420  14.110   6.127   8.775  2.1349 -0.7223  1.0581
  907MOL0     H22421  14.368   6.218   8.651  0.0023  0.7110 -0.2540
  907MOL0     H22422  14.343   6.050   8.682  2.0883  0.4563  0.7577
  907MOL0     H22423  14.309   6.096   8.932  0.4930  0.1131  0.8890
  907MOL0     H22424  14.458   6.174   8.869 -0.2031 -1.3881 -1.2502
  907MOL0     H22425  13.790   6.240   8.415 -1.8959  3.8902  2.6456
  907MOL0     H22426  13.535   6.205   8.388 -0.7952 -0.3189 -1.4087
  907MOL0     H22427  13.114   6.486   8.073  0.9731 -0.7046 -1.4510
  907MOL0     H22428  12.865   6.407   8.025 -1.4993 -2.1612 -1.4345
  907MOL0     H22429  11.095   6.133   8.056  1.3294  1.6008 -0.1194
  907MOL0     H22430  10.869   6.038   8.140 -0.9713  1.3061 -0.9015
  907MOL0     H22431  10.498   6.131   8.360 -0.9606 -0.7921 -1.6167
  907MOL0     H22432  10.279   6.086   8.431  1.0457 -0.0819 -1.5968
  907MOL0     H22433  10.119   6.055   8.580 -0.9880 -0.0086  0.2384
  907MOL0     H22434  10.225   5.967   8.696  0.6066  1.1984 -0.8331
  907MOL0     H22435   9.949   5.861   8.635 -1.3754  0.2650  0.8301
  907MOL0     H22436   9.973   5.975   8.754  1.3241  1.5913 -1.9574
  907MOL0     H22437   9.956   5.763   8.837 -0.9435 -1.2450 -2.1013
  907MOL0     H22438  10.117   5.837   8.888  0.2325  2.1502 -2.9335
  907MOL0     H22439  10.085   5.631   8.661 -1.4792  0.4462  0.0195
  907MOL0     H22440  10.237   5.693   8.745  0.5848 -0.0320  4.5188
  907MOL0     H22441  10.171   5.340   8.941 -0.4378  1.2442  2.0782
  907MOL0     H22442  10.365   5.686   8.486  0.1619  0.0848  1.4936
  907MOL0     H22443  10.659   5.666   8.300  1.2008  1.7377  0.0389
  907MOL0     H22444  10.713   5.698   8.473  0.3809  1.2364 -0.3813
  907MOL0     H22445  10.575   5.593   8.424  0.6559 -0.8229  0.4103
  908MOL0     O22446   8.638   8.340   6.174  0.6264  0.4863 -0.2376
  908MOL0     C22447   8.663   8.311   6.288 -0.9322 -1.3228  0.1848
  908MOL0     O22448   8.791   8.255   6.319  0.1194  0.5659  0.1634
  908MOL0     C22449   8.898   8.270   6.227  0.3161  0.3847 -0.2742
  908MOL0     C22450   8.939   8.393   6.173 -0.5100 -0.1500  0.6424
  908MOL0     C22451   9.062   8.410   6.101 -0.1709  0.6664 -0.3016
  908MOL0     C22452   9.142   8.295   6.088  1.0440 -0.0447 -0.1667
  908MOL0     O22453   9.255   8.293   6.018 -0.4347  0.0814 -0.2850
  908MOL0     C22454   9.246   8.367   5.894 -0.3810 -0.1600 -0.3530
  908MOL0     C22455   9.370   8.354   5.811 -0.3035  0.0848  0.2460
  908MOL0     C22456   9.417   8.211   5.783 -0.1044 -0.2569  0.7858
  908MOL0     C22457   9.555   8.204   5.708  0.1735 -0.0175  0.8320
  908MOL0     C22458   9.593   8.073   5.659  0.5265 -0.3258 -0.6197
  908MOL0     C22459   9.734   8.060   5.605 -0.1606 -0.6688  1.0382
  908MOL0     C22460   9.782   7.926   5.545 -0.8387  0.5901  0.3921
  908MOL0     C22461   9.934   7.932   5.493 -0.6961  0.0481  0.2637
  908MOL0     N22462   9.978   7.810   5.428  0.3094  0.5649  0.0427
  908MOL0     C22463  10.066   7.716   5.474 -0.1537 -0.0453  0.2266
  908MOL0     C22464  10.075   7.612   5.384  0.6095 -0.7669  0.4768
  908MOL0     C22465  10.162   7.495   5.413 -0.3065  0.1301 -0.7008
  908MOL0     C22466  10.291   7.496   5.329  0.2125  0.1059  0.3363
  908MOL0     C22467  10.364   7.361   5.346  0.0425 -0.2857  0.3383
  908MOL0     C22468  10.478   7.344   5.247  0.6751 -1.1891  0.8281
  908MOL0     O22469  10.595   7.413   5.283  0.4654 -0.5177 -0.3643
  908MOL0     C22470  10.706   7.401   5.208  0.1029  0.0440  0.5393
  908MOL0     C22471  10.825   7.444   5.265  0.8123 -0.2073  0.4769
  908MOL0     C22472  10.940   7.437   5.189 -0.3972 -0.7727 -0.0519
  908MOL0     C22473  10.936   7.399   5.051  0.2099  0.1707 -0.9040
  908MOL0     C22474  11.048   7.414   4.967 -0.8859 -0.2652  0.6732
  908MOL0     O22475  11.045   7.368   4.839  0.8034 -0.4347  0.2044
  908MOL0     C22476  11.149   7.408   4.763  0.3661  0.9165 -0.3874
  908MOL0     C22477  11.252   7.312   4.755  0.7207 -1.1524  0.4617
  908MOL0     C22478  11.366   7.333   4.678  0.7913  0.1492 -0.4161
  908MOL0     C22479  11.369   7.446   4.594  0.2744  0.1505 -0.3557
  908MOL0     O22480  11.465   7.483   4.517 -0.2064  0.2512  0.3078
  908MOL0     C22481  11.561   7.387   4.474  0.3491  0.4439  0.4283
  908MOL0     C22482  11.692   7.379   4.561 -0.0433  0.2742 -0.1402
  908MOL0     C22483  11.751   7.522   4.554 -0.1778  0.6333 -0.6125
  908MOL0     C22484  11.906   7.524   4.572 -0.5786  0.7720  0.5907
  908MOL0     C22485  11.939   7.654   4.639  0.2437  0.1629  0.1688
  908MOL0     C22486  12.083   7.672   4.631  0.2999  0.3452  0.4590
  908MOL0     C22487  12.156   7.603   4.742  0.1898  0.0970 -0.5408
  908MOL0     C22488  12.309   7.651   4.738  0.1489 -0.1891  0.5802
  908MOL0    Cl22489  12.416   7.574   4.868 -0.3183 -0.1031 -0.1208
  908MOL0     C22490  11.254   7.529   4.582 -0.3885 -0.0290 -0.2840
  908MOL0     C22491  11.138   7.509   4.666  0.5010  0.6318 -0.1747
  908MOL0     O22492  11.150   7.472   5.013  0.8255 -0.0051 -0.5787
  908MOL0     C22493  10.823   7.344   4.990  0.2715 -0.9339 -0.4481
  908MOL0     C22494  10.709   7.342   5.074 -0.4117 -0.1835 -0.4522
  908MOL0     N22495   9.988   7.636   5.285  0.1192 -0.4145  0.0375
  908MOL0     N22496   9.928   7.758   5.308  0.6998  0.0616 -0.0615
  908MOL0     C22497   9.090   8.169   6.124  0.1986  0.3107 -0.1468
  908MOL0     C22498   8.968   8.160   6.188  1.0954 -0.0612 -0.6633
  908MOL0     C22499   8.556   8.320   6.392 -0.5943 -0.7108  0.6910
  908MOL0     C22500   8.575   8.239   6.503  0.0109 -0.1482  0.0181
  908MOL0     C22501   8.472   8.223   6.590 -0.8145  0.2689  0.1303
  908MOL0     C22502   8.350   8.283   6.566 -0.8353 -0.7146  0.3741
  908MOL0     O22503   8.266   8.268   6.675  0.8636 -0.4678  0.8304
  908MOL0     C22504   8.123   8.314   6.676 -0.5726 -0.0106  0.2506
  908MOL0     C22505   8.039   8.237   6.567  0.5962  0.2572 -0.7674
  908MOL0     C22506   7.889   8.228   6.597 -0.4796  0.5760  0.1954
  908MOL0     C22507   7.818   8.366   6.588 -0.1814  1.0532  0.4402
  908MOL0     C22508   7.833   8.428   6.453  0.0049  0.0544 -0.1566
  908MOL0     C22509   7.852   8.498   6.350  0.6625  0.0490  0.0213
  908MOL0     C22510   8.334   8.367   6.453  0.1392 -0.1388 -0.4915
  908MOL0     C22511   8.444   8.398   6.371  0.0084  0.2429 -0.7123
  908MOL0     C22512   8.426   8.500   6.260  0.1377 -0.4394  0.1818
  908MOL0     H22513   8.867   8.474   6.179  1.3759  1.6289  0.1797
  908MOL0     H22514   9.093   8.504   6.057  1.4838  0.0682 -0.4821
  908MOL0     H22515   9.163   8.319   5.840  0.0004 -2.5115  1.0241
  908MOL0     H22516   9.231   8.475   5.907  0.4475 -0.1327  0.4377
  908MOL0     H22517   9.453   8.401   5.866 -1.0193  1.7774 -0.0564
  908MOL0     H22518   9.369   8.417   5.721  3.2870  0.4429  0.3138
  908MOL0     H22519   9.352   8.171   5.705 -0.6962  1.3749  0.3947
  908MOL0     H22520   9.413   8.148   5.873  0.1763 -1.2332  0.1206
  908MOL0     H22521   9.548   8.284   5.634 -3.0565  0.0797  1.1166
  908MOL0     H22522   9.634   8.242   5.774  0.0707  1.4845  0.1281
  908MOL0     H22523   9.588   7.995   5.736 -0.9460 -1.4327 -1.7663
  908MOL0     H22524   9.518   8.044   5.585  1.6318  0.1102 -1.9677
  908MOL0     H22525   9.764   8.143   5.541 -0.7461 -1.5449 -0.4321
  908MOL0     H22526   9.792   8.067   5.697  0.7511  1.8732  0.3524
  908MOL0     H22527   9.718   7.899   5.460 -1.7379 -0.2748  1.3193
  908MOL0     H22528   9.772   7.851   5.624 -2.6071  1.6790  1.2449
  908MOL0     H22529   9.948   8.018   5.426  0.0684  0.1316  0.5199
  908MOL0     H22530   9.995   7.951   5.581  0.5935  1.9887 -0.9675
  908MOL0     H22531  10.124   7.720   5.566 -0.2911  0.0757  0.3107
  908MOL0     H22532  10.201   7.511   5.514  0.9846 -0.8106 -1.0237
  908MOL0     H22533  10.110   7.399   5.407 -2.2229  1.0798  0.0292
  908MOL0     H22534  10.271   7.525   5.225 -1.0675  4.1728  1.5081
  908MOL0     H22535  10.359   7.565   5.380  0.3983 -1.4713  2.3220
  908MOL0     H22536  10.297   7.276   5.331  1.5347 -1.8233  1.8639
  908MOL0     H22537  10.400   7.353   5.449 -1.3339  2.3965  1.1203
  908MOL0     H22538  10.447   7.389   5.152 -1.3781  2.3897  2.9632
  908MOL0     H22539  10.499   7.237   5.238  2.6873 -1.1776  3.9582
  908MOL0     H22540  10.823   7.501   5.357 -2.7731  1.1259 -0.2725
  908MOL0     H22541  11.030   7.477   5.234 -0.4257  0.2838 -0.8943
  908MOL0     H22542  11.251   7.225   4.820  0.4474  0.1329  2.2792
  908MOL0     H22543  11.447   7.261   4.677  0.0575 -0.6697 -1.5058
  908MOL0     H22544  11.514   7.290   4.455  0.8808  0.5744 -1.8049
  908MOL0     H22545  11.596   7.424   4.377 -0.5696 -3.9642 -1.8326
  908MOL0     H22546  11.662   7.353   4.663  1.3021  1.5274  0.6136
  908MOL0     H22547  11.756   7.303   4.516  0.2035  0.4667 -0.1149
  908MOL0     H22548  11.731   7.572   4.458 -2.2760 -0.7203 -0.9263
  908MOL0     H22549  11.706   7.574   4.639  1.0568  3.9272 -1.8144
  908MOL0     H22550  11.951   7.505   4.474 -0.5756 -0.1690  0.7674
  908MOL0     H22551  11.926   7.443   4.643 -2.2137 -0.6634 -0.4875
  908MOL0     H22552  11.924   7.649   4.747  2.0070 -1.1738  0.3862
  908MOL0     H22553  11.881   7.737   4.598 -0.7789 -0.3524  0.5359
  908MOL0     H22554  12.127   7.633   4.538  1.4734  0.6376  0.8718
  908MOL0     H22555  12.093   7.778   4.652 -0.5521 -0.1953  4.2038
  908MOL0     H22556  12.155   7.494   4.729 -3.3957 -0.3658  2.1489
  908MOL0     H22557  12.113   7.634   4.837 -1.7300 -0.2057 -1.2763
  908MOL0     H22558  12.349   7.646   4.636  1.3342  1.1277  0.9577
  908MOL0     H22559  12.297   7.757   4.761  0.1770  0.0194 -0.2971
  908MOL0     H22560  11.261   7.619   4.522  0.7251  0.1057  0.0177
  908MOL0     H22561  11.050   7.573   4.672  0.2742  0.1987  2.2520
  908MOL0     H22562  10.811   7.314   4.887  0.0797  0.6914 -0.9384
  908MOL0     H22563  10.618   7.309   5.024 -1.1301 -0.5507  1.0135
  908MOL0     H22564   9.148   8.081   6.102  2.8003  1.7529  0.4883
  908MOL0     H22565   8.912   8.071   6.216 -2.1879  1.9419 -0.3800
  908MOL0     H22566   8.672   8.193   6.519  0.5792  0.3520 -1.7771
  908MOL0     H22567   8.489   8.171   6.684  1.0768  3.0691  1.4766
  908MOL0     H22568   8.110   8.422   6.659 -0.0515  0.1366  0.7661
  908MOL0     H22569   8.074   8.294   6.772 -1.5709 -2.4593 -0.6892
  908MOL0     H22570   8.075   8.134   6.556 -0.5793 -0.1128 -1.4008
  908MOL0     H22571   8.056   8.281   6.469 -4.0497  2.1666 -1.0124
  908MOL0     H22572   7.867   8.186   6.696  0.1169 -1.9129 -0.6515
  908MOL0     H22573   7.853   8.151   6.527  3.5212 -0.1715 -1.3211
  908MOL0     H22574   7.710   8.368   6.607 -0.4121 -1.3830 -0.3305
  908MOL0     H22575   7.849   8.433   6.669 -0.4953  2.8500 -0.8468
  908MOL0     H22576   7.856   8.567   6.267 -0.5605 -1.1198 -1.0638
  908MOL0     H22577   8.241   8.421   6.441 -0.6261 -0.9007  1.5039
  908MOL0     H22578   8.386   8.443   6.176  0.0815  2.1799 -1.6966
  908MOL0     H22579   8.353   8.578   6.286  0.9084 -0.2891  2.1069
  908MOL0     H22580   8.519   8.546   6.224 -0.7590  1.6342  0.3698
  909MOL0     O22581  10.285   8.315   3.537  0.4118  0.0752 -0.7752
  909MOL0     C22582  10.219   8.217   3.559  0.9290  0.6927  1.1002
  909MOL0     O22583  10.268   8.091   3.582 -0.2746  0.2711  0.5104
  909MOL0     C22584  10.387   8.093   3.650  0.5636 -0.3337  0.0771
  909MOL0     C22585  10.428   8.168   3.761 -0.2528 -0.3119 -0.4010
  909MOL0     C22586  10.546   8.136   3.830  0.3932 -0.9476  0.2329
  909MOL0     C22587  10.640   8.037   3.791  0.1571 -0.9432  0.2202
  909MOL0     O22588  10.769   8.028   3.842  0.0625  0.2218  0.0803
  909MOL0     C22589  10.807   8.099   3.963  0.8892  0.0329  0.4970
  909MOL0     C22590  10.956   8.097   3.972 -0.5673 -0.2408 -0.2798
  909MOL0     C22591  11.003   7.976   4.064  0.5077  0.6871  0.1503
  909MOL0     C22592  11.155   7.988   4.101 -0.2975  0.3079  0.8743
  909MOL0     C22593  11.241   8.076   3.994  0.3955  0.1452 -0.6174
  909MOL0     C22594  11.395   8.071   4.019  0.4568 -0.0107 -0.0372
  909MOL0     C22595  11.456   7.936   3.979 -1.4553 -0.3586  0.3639
  909MOL0     C22596  11.569   7.959   3.883 -0.2170  0.1413 -0.0331
  909MOL0     N22597  11.663   7.851   3.855  0.2296 -0.1545  0.0752
  909MOL0     C22598  11.635   7.755   3.761  0.5314  0.5842 -0.0161
  909MOL0     C22599  11.717   7.658   3.788  0.4966  0.5524 -0.4479
  909MOL0     C22600  11.723   7.527   3.712  0.8679 -0.6088 -0.3609
  909MOL0     C22601  11.847   7.507   3.625 -0.0946 -0.0016 -0.1663
  909MOL0     C22602  11.974   7.482   3.714 -0.0211 -0.0548 -0.2839
  909MOL0     C22603  11.948   7.377   3.822  0.6008 -0.2266 -0.0312
  909MOL0     O22604  12.058   7.304   3.874  0.1790 -0.7125  0.0122
  909MOL0     C22605  12.130   7.366   3.973 -0.6270  1.1171  0.2017
  909MOL0     C22606  12.222   7.290   4.054 -0.4370 -1.3956  1.1367
  909MOL0     C22607  12.299   7.351   4.157 -0.8411  0.3803  0.3928
  909MOL0     C22608  12.282   7.483   4.190 -0.5554 -0.2417 -0.4817
  909MOL0     C22609  12.367   7.541   4.293  0.4779 -0.2756 -0.2751
  909MOL0     O22610  12.461   7.460   4.333  0.5825  0.5948  0.1887
  909MOL0     C22611  12.569   7.512   4.409  0.5802 -0.0406  0.1153
  909MOL0     C22612  12.653   7.611   4.370  0.8326 -0.6912 -0.4081
  909MOL0     C22613  12.773   7.634   4.430  0.9313 -0.2029 -0.0968
  909MOL0     C22614  12.806   7.568   4.550  0.5280 -0.2126  0.3219
  909MOL0     O22615  12.923   7.602   4.611  0.2526 -0.0727 -0.3522
  909MOL0     C22616  13.009   7.496   4.645 -0.3935 -0.8963  0.3665
  909MOL0     C22617  13.143   7.551   4.687 -0.6767  0.4800  0.3766
  909MOL0     C22618  13.224   7.450   4.778  0.2966  0.0276 -0.3355
  909MOL0     C22619  13.337   7.523   4.850 -0.4842  0.1140  0.0548
  909MOL0     C22620  13.413   7.426   4.939 -0.2504  0.6095 -0.7074
  909MOL0     C22621  13.502   7.487   5.046 -0.7384 -0.6655 -0.1495
  909MOL0     C22622  13.556   7.377   5.140  0.0375  0.6992  0.3050
  909MOL0     C22623  13.596   7.440   5.275 -0.2354 -0.1210  0.1305
  909MOL0    Cl22624  13.694   7.322   5.368  0.6008 -0.4955  0.1508
  909MOL0     C22625  12.721   7.469   4.594 -0.3816 -0.2677  0.2899
  909MOL0     C22626  12.605   7.435   4.518 -0.2323  0.0908  0.2009
  909MOL0     O22627  12.349   7.663   4.335 -0.3203  0.7861 -0.1838
  909MOL0     C22628  12.182   7.561   4.120  0.9543  1.1876 -0.3001
  909MOL0     C22629  12.109   7.498   4.012 -0.4436 -0.7213 -0.8249
  909MOL0     N22630  11.802   7.697   3.891  0.2433 -0.3777  0.1128
  909MOL0     N22631  11.766   7.816   3.932 -0.2335 -0.3905 -0.8495
  909MOL0     C22632  10.607   7.976   3.668  0.5988  0.4381  0.1829
  909MOL0     C22633  10.481   8.000   3.609 -0.1868 -0.1339  0.0115
  909MOL0     C22634  10.075   8.236   3.537 -0.5369  0.1285  0.0036
  909MOL0     C22635  10.025   8.290   3.417 -0.1590 -0.6730 -0.3864
  909MOL0     C22636   9.889   8.289   3.379  0.5780  0.4477  0.0562
  909MOL0     C22637   9.799   8.243   3.474  0.1631 -0.0368  0.1481
  909MOL0     O22638   9.666   8.239   3.440  0.5556  0.0389 -0.3079
  909MOL0     C22639   9.586   8.123   3.475 -0.6130 -0.0995 -0.1997
  909MOL0     C22640   9.592   8.023   3.362 -0.2695 -0.8670 -0.1817
  909MOL0     C22641   9.542   8.073   3.220  0.2657  0.0265  0.5189
  909MOL0     C22642   9.512   7.958   3.131 -0.7136  0.2147  0.4095
  909MOL0     C22643   9.393   7.881   3.169  0.1441  0.7162  0.6966
  909MOL0     C22644   9.315   7.813   3.226 -0.0885  0.7481 -0.3282
  909MOL0     C22645   9.847   8.197   3.600  0.0015 -1.0354 -0.9218
  909MOL0     C22646   9.980   8.172   3.619 -0.2926 -1.9254  0.2483
  909MOL0     C22647  10.014   8.111   3.749 -1.4058 -0.6389 -0.1220
  909MOL0     H22648  10.365   8.248   3.798 -1.7098 -1.1655 -0.9705
  909MOL0     H22649  10.574   8.197   3.915  1.9315 -0.0033 -0.8806
  909MOL0     H22650  10.767   8.201   3.962 -2.6897 -1.2235  1.1775
  909MOL0     H22651  10.764   8.045   4.047  0.8658 -0.0683  0.4193
  909MOL0     H22652  10.995   8.191   4.012  1.5667 -1.7499  1.4479
  909MOL0     H22653  10.993   8.090   3.870 -0.6025  1.0433 -0.4019
  909MOL0     H22654  10.994   7.880   4.012 -3.0637  1.9144 -1.7690
  909MOL0     H22655  10.946   7.962   4.156 -1.3756  2.6062 -0.6565
  909MOL0     H22656  11.171   8.040   4.196 -1.9202  1.3866  0.6019
  909MOL0     H22657  11.192   7.887   4.120 -3.7294 -0.9248  1.7741
  909MOL0     H22658  11.223   8.045   3.891 -1.6225 -0.7913 -0.0423
  909MOL0     H22659  11.198   8.177   4.003 -1.8127 -0.7604 -0.2226
  909MOL0     H22660  11.446   8.156   3.973  1.0174 -0.8710 -1.0489
  909MOL0     H22661  11.400   8.079   4.128 -1.6947 -1.5924  0.2231
  909MOL0     H22662  11.379   7.866   3.943 -1.0484 -0.4859 -0.2750
  909MOL0     H22663  11.489   7.895   4.075 -3.9011  0.8550  1.8429
  909MOL0     H22664  11.529   7.996   3.788  1.0247  0.8222 -0.3137
  909MOL0     H22665  11.621   8.044   3.927 -1.9108  1.7224 -0.9355
  909MOL0     H22666  11.561   7.755   3.682  0.7920 -2.1761 -0.3359
  909MOL0     H22667  11.704   7.448   3.786 -1.1013  1.1271  1.0911
  909MOL0     H22668  11.639   7.534   3.643  1.9882  1.5330 -1.6300
  909MOL0     H22669  11.821   7.427   3.555 -3.6937  0.8030  0.0480
  909MOL0     H22670  11.859   7.600   3.567 -0.3636  0.2736  0.2145
  909MOL0     H22671  12.002   7.583   3.745 -0.4357  0.5795 -1.8619
  909MOL0     H22672  12.050   7.431   3.655  1.8970  0.4256  1.6899
  909MOL0     H22673  11.877   7.305   3.779 -1.2062  0.1294  2.1999
  909MOL0     H22674  11.890   7.433   3.895 -1.7296  1.4634 -2.9418
  909MOL0     H22675  12.228   7.184   4.031 -0.9076 -1.6001  1.9160
  909MOL0     H22676  12.373   7.288   4.206 -1.0098 -0.6182 -0.5740
  909MOL0     H22677  12.618   7.655   4.277 -1.5664 -1.0273  0.2566
  909MOL0     H22678  12.832   7.711   4.380  0.8719 -1.5033 -2.2768
  909MOL0     H22679  12.975   7.438   4.732  1.4038 -3.0355 -0.2652
  909MOL0     H22680  13.027   7.427   4.563  1.5033 -0.3739  0.3039
  909MOL0     H22681  13.211   7.584   4.608 -0.3146  1.9755  1.2644
  909MOL0     H22682  13.132   7.642   4.748 -2.0699 -0.0649  0.9813
  909MOL0     H22683  13.159   7.412   4.857  2.6721 -3.7373  0.0566
  909MOL0     H22684  13.266   7.360   4.733 -0.3094 -1.7529  2.4179
  909MOL0     H22685  13.297   7.604   4.912 -0.1729  2.2660 -2.3956
  909MOL0     H22686  13.400   7.570   4.774 -0.2787 -1.0108 -0.4963
  909MOL0     H22687  13.454   7.343   4.881 -0.5186  0.7071 -1.0420
  909MOL0     H22688  13.335   7.377   4.997 -1.1910  0.9756 -1.6292
  909MOL0     H22689  13.587   7.538   5.001 -2.2260  0.1890 -2.1395
  909MOL0     H22690  13.432   7.554   5.098 -0.7546 -0.3760 -0.5436
  909MOL0     H22691  13.647   7.338   5.094  0.6898  2.2557  0.2005
  909MOL0     H22692  13.482   7.298   5.157  1.8504 -0.9771  0.6938
  909MOL0     H22693  13.660   7.526   5.256 -0.2266 -0.1489  0.0328
  909MOL0     H22694  13.505   7.472   5.327 -0.3632  2.7438 -1.6312
  909MOL0     H22695  12.753   7.399   4.671  1.8385  1.9998  1.5713
  909MOL0     H22696  12.554   7.344   4.547 -2.2497  1.1451  0.1372
  909MOL0     H22697  12.166   7.668   4.130  1.3578  1.0507  2.4504
  909MOL0     H22698  12.039   7.567   3.965  0.5417  0.0341 -1.2183
  909MOL0     H22699  10.680   7.914   3.618  0.9676  0.1673  1.0376
  909MOL0     H22700  10.458   7.938   3.523 -1.2971  1.2536 -0.7183
  909MOL0     H22701  10.093   8.339   3.346 -0.4740 -0.3587 -0.4758
  909MOL0     H22702   9.853   8.340   3.290 -0.8582 -1.3437 -0.4289
  909MOL0     H22703   9.484   8.145   3.509 -0.2468 -2.1005  2.6004
  909MOL0     H22704   9.635   8.066   3.555 -0.7423 -0.6667 -0.5197
  909MOL0     H22705   9.534   7.935   3.392 -1.6869  0.7414  2.1763
  909MOL0     H22706   9.698   7.997   3.361 -0.0153 -0.1194  1.8096
  909MOL0     H22707   9.623   8.130   3.174 -1.1791  2.2115  0.5320
  909MOL0     H22708   9.458   8.143   3.230  0.2001 -0.1184  1.0142
  909MOL0     H22709   9.490   8.002   3.032 -2.1179  0.4556  0.8030
  909MOL0     H22710   9.597   7.890   3.120  0.9587  2.2722 -0.1647
  909MOL0     H22711   9.247   7.760   3.290  0.3735  0.7408  0.1689
  909MOL0     H22712   9.773   8.163   3.672 -0.4912  2.2400  0.3235
  909MOL0     H22713  10.091   8.164   3.806 -0.3147 -0.9675 -1.2391
  909MOL0     H22714   9.926   8.096   3.813 -0.8323 -2.7928  0.2334
  909MOL0     H22715  10.044   8.007   3.734  0.2794 -0.6234  2.4195
  910MOL0     O22716   4.201   6.792   5.282  0.5046  0.4003 -0.1190
  910MOL0     C22717   4.195   6.752   5.172  0.3723 -1.4243 -0.4765
  910MOL0     O22718   4.287   6.764   5.075  0.4450  0.3167 -0.5672
  910MOL0     C22719   4.415   6.801   5.099 -0.2140  0.3226 -0.6731
  910MOL0     C22720   4.492   6.708   5.173  0.1960 -0.5016  0.2562
  910MOL0     C22721   4.620   6.745   5.210  0.7762 -0.0297  0.2833
  910MOL0     C22722   4.679   6.871   5.172  0.8010 -0.4033  0.6980
  910MOL0     O22723   4.808   6.898   5.203  0.1633  1.1735 -0.5877
  910MOL0     C22724   4.886   6.979   5.125 -1.1018  0.0898 -0.0295
  910MOL0     C22725   5.012   7.015   5.205 -0.4490  0.9724 -0.6985
  910MOL0     C22726   5.135   6.940   5.187 -0.3411  0.0276 -0.6143
  910MOL0     C22727   5.228   6.978   5.310  0.1418 -0.2224 -0.5156
  910MOL0     C22728   5.363   6.913   5.279  0.2011  0.3138  0.4417
  910MOL0     C22729   5.466   6.930   5.395 -0.3600 -0.0430 -0.5456
  910MOL0     C22730   5.614   6.902   5.359  0.3434 -0.3849 -0.2641
  910MOL0     C22731   5.712   6.895   5.469  0.1093  0.0288 -0.6445
  910MOL0     N22732   5.708   6.765   5.537 -0.6735 -0.5379 -0.2702
  910MOL0     C22733   5.775   6.652   5.493  0.3726  0.3928  0.0032
  910MOL0     C22734   5.764   6.570   5.601 -0.0818  0.4889  0.7192
  910MOL0     C22735   5.824   6.431   5.617  0.0327  0.4229  0.0470
  910MOL0     C22736   5.855   6.352   5.488  0.7265  0.8748 -0.2348
  910MOL0     C22737   5.924   6.220   5.518 -0.5728 -0.0649  0.4044
  910MOL0     C22738   5.977   6.158   5.388  0.3233 -0.2568  0.0977
  910MOL0     O22739   6.087   6.238   5.334 -0.1810 -0.4893  0.8235
  910MOL0     C22740   6.214   6.211   5.384 -0.6457  0.0881 -0.2981
  910MOL0     C22741   6.239   6.130   5.500 -1.0149 -1.0593  0.1847
  910MOL0     C22742   6.366   6.115   5.551  0.3368 -0.6272  0.1789
  910MOL0     C22743   6.477   6.181   5.484  1.0114 -0.2869  0.1535
  910MOL0     C22744   6.612   6.171   5.532 -0.5721  0.2568 -0.5185
  910MOL0     O22745   6.711   6.187   5.434 -0.8378  0.2870 -0.1780
  910MOL0     C22746   6.843   6.185   5.469  0.2864  0.4011 -0.2698
  910MOL0     C22747   6.888   6.094   5.566 -0.8653 -0.9400 -0.9360
  910MOL0     C22748   7.025   6.077   5.593  0.3597  0.0511 -0.6960
  910MOL0     C22749   7.110   6.159   5.534  0.1837 -0.2885 -0.2246
  910MOL0     O22750   7.245   6.155   5.568 -0.0089  0.2206 -0.0883
  910MOL0     C22751   7.304   6.016   5.562 -0.0223  0.0570  0.4301
  910MOL0     C22752   7.458   6.030   5.597 -0.7798 -0.2930 -1.0564
  910MOL0     C22753   7.548   6.095   5.486 -0.2119  0.5264 -1.5535
  910MOL0     C22754   7.691   6.116   5.532 -0.2508  0.5839  0.0019
  910MOL0     C22755   7.689   6.250   5.617  0.0615  0.9028 -0.1474
  910MOL0     C22756   7.827   6.285   5.690 -0.6210 -0.2604 -0.0894
  910MOL0     C22757   7.932   6.327   5.587 -0.6255  0.5758 -0.6127
  910MOL0     C22758   7.884   6.459   5.528 -0.5027  0.3442  0.6465
  910MOL0    Cl22759   8.016   6.538   5.441 -0.5162 -0.0801  0.0876
  910MOL0     C22760   7.070   6.246   5.441 -1.0453  0.3376 -1.1442
  910MOL0     C22761   6.936   6.268   5.415  0.8745  0.2713  0.0968
  910MOL0     O22762   6.627   6.156   5.648  0.2246  0.0322  0.2964
  910MOL0     C22763   6.454   6.273   5.379  0.6369  1.2108 -0.8813
  910MOL0     C22764   6.314   6.279   5.325 -0.4859 -0.0353  0.0032
  910MOL0     N22765   5.696   6.631   5.704 -0.2489 -0.0316  0.1383
  910MOL0     N22766   5.671   6.750   5.670 -0.0042 -0.2892  0.1078
  910MOL0     C22767   4.602   6.965   5.096  0.2714  0.4000 -0.0427
  910MOL0     C22768   4.470   6.923   5.059 -0.4774 -0.0207  0.2998
  910MOL0     C22769   4.066   6.715   5.129  0.7409  0.3372 -0.1161
  910MOL0     C22770   4.034   6.727   4.992 -0.3495  0.4876  0.1505
  910MOL0     C22771   3.904   6.701   4.950 -0.2797 -0.1902  1.0718
  910MOL0     C22772   3.803   6.651   5.037  0.3595  1.4771 -1.0869
  910MOL0     O22773   3.680   6.607   4.987  0.0283  0.4877 -0.3022
  910MOL0     C22774   3.582   6.710   4.970 -0.0487 -0.4318  1.1307
  910MOL0     C22775   3.441   6.660   4.985  0.3305  0.3834  0.1435
  910MOL0     C22776   3.388   6.540   4.906  0.2968 -0.2393  0.4390
  910MOL0     C22777   3.359   6.583   4.763  0.5821  0.0144 -0.0141
  910MOL0     C22778   3.267   6.487   4.702 -0.5027  0.8977 -0.6511
  910MOL0     C22779   3.203   6.402   4.646  0.2445  0.0600 -0.1819
  910MOL0     C22780   3.845   6.623   5.168 -0.6477  0.2937  0.0843
  910MOL0     C22781   3.976   6.653   5.220 -0.0046 -0.2915 -0.3560
  910MOL0     C22782   3.988   6.631   5.371 -0.9033 -0.2645  0.6132
  910MOL0     H22783   4.451   6.621   5.223 -0.1134  0.9825  2.7435
  910MOL0     H22784   4.679   6.678   5.271  0.9392 -2.3015 -2.1736
  910MOL0     H22785   4.912   6.928   5.032 -1.4803 -0.1029 -0.0294
  910MOL0     H22786   4.838   7.074   5.100 -0.1475  1.1054  1.7836
  910MOL0     H22787   4.973   7.004   5.307  2.3278  0.4918  0.3945
  910MOL0     H22788   5.039   7.119   5.185  2.8896  0.8352  2.0904
  910MOL0     H22789   5.187   6.962   5.094 -0.9074 -0.0944 -0.9615
  910MOL0     H22790   5.120   6.832   5.189  1.9890 -0.3505 -1.3222
  910MOL0     H22791   5.251   7.085   5.308 -2.2788  0.4102  0.8445
  910MOL0     H22792   5.185   6.948   5.406 -0.1822  0.8593 -0.3025
  910MOL0     H22793   5.355   6.804   5.268  0.3925  0.5881 -4.3829
  910MOL0     H22794   5.401   6.939   5.180  1.8300 -0.1812  0.9145
  910MOL0     H22795   5.459   7.030   5.439  3.8250 -0.9170  2.7791
  910MOL0     H22796   5.438   6.867   5.481  0.2363 -0.1057 -0.3931
  910MOL0     H22797   5.657   6.974   5.289  2.0149 -1.8616 -0.8444
  910MOL0     H22798   5.613   6.800   5.320  0.3287 -1.0556  1.4180
  910MOL0     H22799   5.809   6.902   5.419 -0.1369  1.0181 -1.0086
  910MOL0     H22800   5.703   6.973   5.544  0.1861 -0.8099  0.2556
  910MOL0     H22801   5.825   6.627   5.400 -2.9328 -1.2586 -1.5024
  910MOL0     H22802   5.914   6.442   5.679 -0.4859  1.7272  0.5910
  910MOL0     H22803   5.761   6.373   5.685  0.0918  0.4902  0.1584
  910MOL0     H22804   5.754   6.340   5.450  0.4808  0.7520  0.4382
  910MOL0     H22805   5.904   6.417   5.415  0.4904  0.2528 -0.9536
  910MOL0     H22806   5.855   6.147   5.560 -0.6790 -0.7541 -0.9399
  910MOL0     H22807   6.011   6.230   5.585 -1.9751  1.9048  2.0776
  910MOL0     H22808   5.891   6.163   5.321 -0.5640  1.1950  1.2507
  910MOL0     H22809   6.016   6.058   5.408  0.7616 -0.1697 -0.3130
  910MOL0     H22810   6.150   6.089   5.547 -2.2614  1.2187 -0.0505
  910MOL0     H22811   6.382   6.048   5.634 -0.8965 -0.4336  0.6040
  910MOL0     H22812   6.817   6.020   5.603 -0.9087 -0.1240  0.6932
  910MOL0     H22813   7.056   6.003   5.666 -0.8895 -0.7671 -0.9637
  910MOL0     H22814   7.257   5.946   5.631  1.0359 -1.7378 -0.5982
  910MOL0     H22815   7.309   5.962   5.467  0.0054 -0.6472  0.8312
  910MOL0     H22816   7.467   6.081   5.694  0.0223 -0.2570 -1.1367
  910MOL0     H22817   7.512   5.936   5.617  1.1515  0.7198 -1.2431
  910MOL0     H22818   7.529   6.025   5.404  0.0563 -1.1013 -0.2767
  910MOL0     H22819   7.505   6.187   5.447  2.0293  1.0542 -2.9319
  910MOL0     H22820   7.749   6.149   5.445  0.4302  1.7433  0.8617
  910MOL0     H22821   7.734   6.027   5.578  0.3653 -0.2315 -2.0347
  910MOL0     H22822   7.614   6.233   5.695 -2.0861 -0.6091 -2.4022
  910MOL0     H22823   7.649   6.334   5.560 -3.0375 -1.6065 -2.0221
  910MOL0     H22824   7.813   6.375   5.751 -0.9297  1.2057 -2.1897
  910MOL0     H22825   7.863   6.203   5.752  0.8263  1.1566  1.0438
  910MOL0     H22826   7.957   6.249   5.515 -2.2817 -1.3617  0.7887
  910MOL0     H22827   8.022   6.347   5.647 -1.2453  2.1094 -0.1306
  910MOL0     H22828   7.799   6.459   5.460 -0.6823  0.2175  0.8671
  910MOL0     H22829   7.851   6.541   5.593  0.5384  0.9110  0.4766
  910MOL0     H22830   7.152   6.300   5.395  1.3764 -0.3390  2.0493
  910MOL0     H22831   6.899   6.344   5.346  0.8966 -0.5960 -0.9012
  910MOL0     H22832   6.535   6.327   5.330 -0.0327  0.8906 -2.3791
  910MOL0     H22833   6.301   6.353   5.247 -1.3567  1.1028  1.1723
  910MOL0     H22834   4.629   7.057   5.045  0.5518  0.6698  0.5766
  910MOL0     H22835   4.418   6.988   4.989 -0.4039  0.2467  0.4903
  910MOL0     H22836   4.102   6.774   4.921 -0.6493  1.7634  0.6720
  910MOL0     H22837   3.878   6.713   4.845 -0.4480 -0.3699  1.0930
  910MOL0     H22838   3.585   6.751   4.868  1.8564 -0.5357  1.1155
  910MOL0     H22839   3.605   6.791   5.040 -0.4094 -1.2308  2.1980
  910MOL0     H22840   3.373   6.743   4.963  1.1605  0.2476 -3.5429
  910MOL0     H22841   3.423   6.632   5.089 -3.7933 -0.9592 -0.7372
  910MOL0     H22842   3.295   6.509   4.955 -2.3528  1.8841 -2.7829
  910MOL0     H22843   3.458   6.456   4.906 -0.9972 -1.3643 -0.4050
  910MOL0     H22844   3.322   6.686   4.761  1.7006  0.4701  0.8927
  910MOL0     H22845   3.451   6.576   4.704  0.5462  3.8680 -0.8073
  910MOL0     H22846   3.160   6.321   4.591 -0.0976  0.2386 -0.1754
  910MOL0     H22847   3.779   6.573   5.238  0.2932  1.4993  1.9093
  910MOL0     H22848   3.993   6.727   5.423 -1.7643  1.3714 -2.0600
  910MOL0     H22849   3.895   6.588   5.409 -1.3369  0.9048  0.9294
  910MOL0     H22850   4.068   6.564   5.401  0.8585  2.3253  2.0401
  911MOL0     O22851   5.585   3.019   2.897  0.0969 -0.0149  0.3950
  911MOL0     C22852   5.632   3.083   2.990 -0.9716 -0.7260 -0.3895
  911MOL0     O22853   5.575   3.191   3.053  0.0112 -0.3080  0.4884
  911MOL0     C22854   5.456   3.231   3.013 -0.3362 -0.2046  0.1270
  911MOL0     C22855   5.340   3.157   3.046 -0.2638 -0.3300  0.7362
  911MOL0     C22856   5.212   3.212   3.032 -0.2218  0.5135  1.1610
  911MOL0     C22857   5.189   3.335   2.961  0.1671  1.3028 -0.7432
  911MOL0     O22858   5.064   3.372   2.941  0.1101 -0.4136 -0.2897
  911MOL0     C22859   5.036   3.515   2.952 -0.6905  0.7712 -0.7476
  911MOL0     C22860   4.896   3.548   2.998  0.1906  0.0061  0.6335
  911MOL0     C22861   4.879   3.697   3.025 -0.4903 -0.4695  0.5254
  911MOL0     C22862   4.754   3.719   3.114 -0.2081  0.7120 -0.0160
  911MOL0     C22863   4.750   3.867   3.153  1.3229 -0.6004  0.5723
  911MOL0     C22864   4.646   3.933   3.061  1.4943  0.4770 -0.9037
  911MOL0     C22865   4.645   4.083   3.066  0.0440  0.2063  0.5642
  911MOL0     C22866   4.568   4.134   3.196  0.4822  0.2056 -0.7226
  911MOL0     N22867   4.537   4.275   3.172  0.0743 -0.2649 -0.8991
  911MOL0     C22868   4.635   4.374   3.170 -0.3693  0.5081  1.4341
  911MOL0     C22869   4.572   4.482   3.114  0.6568  0.8573 -0.1555
  911MOL0     C22870   4.648   4.609   3.086  0.2457  0.2844  0.0272
  911MOL0     C22871   4.738   4.599   2.962 -0.5263  0.2720  0.4404
  911MOL0     C22872   4.815   4.728   2.941  0.7309 -0.8381  0.1428
  911MOL0     C22873   4.903   4.767   3.067  0.5998 -0.2827 -0.5081
  911MOL0     O22874   4.974   4.887   3.031 -0.5954  0.1858 -0.1317
  911MOL0     C22875   5.088   4.915   3.100 -0.0624 -0.5162 -0.1349
  911MOL0     C22876   5.117   4.879   3.229  0.3285 -0.5154 -0.0877
  911MOL0     C22877   5.232   4.924   3.295 -0.4409  0.6639  0.1759
  911MOL0     C22878   5.311   5.017   3.233 -0.6646  0.2975  0.9394
  911MOL0     C22879   5.433   5.055   3.304  0.6234  0.5522 -0.3028
  911MOL0     O22880   5.509   4.957   3.360  0.7015 -0.5129 -0.0782
  911MOL0     C22881   5.611   5.012   3.435 -0.4636  0.8022  0.5014
  911MOL0     C22882   5.589   5.075   3.558 -0.7943  0.1339  0.3419
  911MOL0     C22883   5.688   5.122   3.642 -0.4754 -0.5120 -0.2835
  911MOL0     C22884   5.820   5.115   3.603 -0.2215 -0.7432 -0.1865
  911MOL0     O22885   5.911   5.176   3.688 -0.4618  0.3875  0.9443
  911MOL0     C22886   6.048   5.185   3.652  0.8804 -0.3919  0.3444
  911MOL0     C22887   6.124   5.296   3.721 -0.1353 -0.0122  0.3631
  911MOL0     C22888   6.261   5.247   3.754 -0.3757 -0.1773 -0.3843
  911MOL0     C22889   6.345   5.348   3.846  1.5291  0.3697 -0.1070
  911MOL0     C22890   6.497   5.314   3.841 -0.0841 -0.5684 -0.2568
  911MOL0     C22891   6.547   5.377   3.716 -1.1190  0.0720 -0.1588
  911MOL0     C22892   6.690   5.327   3.667  0.1434  0.1447  0.0648
  911MOL0     C22893   6.811   5.414   3.717  0.3193 -0.2433  0.5152
  911MOL0    Cl22894   6.957   5.334   3.648 -0.0750  0.2928 -0.1438
  911MOL0     C22895   5.845   5.047   3.486  0.2941  0.0869  0.7883
  911MOL0     C22896   5.750   4.994   3.406 -0.4947  0.2247 -0.0126
  911MOL0     O22897   5.462   5.176   3.304 -0.6471  0.1303  0.2517
  911MOL0     C22898   5.275   5.068   3.105 -0.6889  0.1048  0.3722
  911MOL0     C22899   5.168   5.013   3.035  0.8056  0.6658  0.4895
  911MOL0     N22900   4.441   4.452   3.085 -0.0373  0.9096 -0.1260
  911MOL0     N22901   4.421   4.324   3.121 -0.3115 -0.0718 -0.2262
  911MOL0     C22902   5.303   3.399   2.921  0.5048 -0.1232 -0.7757
  911MOL0     C22903   5.429   3.352   2.952  0.1052  0.5536  0.2529
  911MOL0     C22904   5.764   3.047   3.038  0.2693 -0.2185  0.0720
  911MOL0     C22905   5.865   3.136   3.068 -0.2879  0.8152 -0.1678
  911MOL0     C22906   5.993   3.098   3.117 -0.4068  0.0769  0.1129
  911MOL0     C22907   6.030   2.968   3.150 -0.0214 -0.4027 -0.2434
  911MOL0     O22908   6.146   2.933   3.216 -0.6228  0.3999  0.6016
  911MOL0     C22909   6.253   3.028   3.227  0.2799  0.8826  0.0002
  911MOL0     C22910   6.378   2.967   3.281 -0.3079 -0.8277  0.1004
  911MOL0     C22911   6.460   2.894   3.172  0.4441  0.5051  0.2895
  911MOL0     C22912   6.584   2.839   3.219 -1.3278  0.0040 -0.4051
  911MOL0     C22913   6.685   2.937   3.235 -0.5493 -0.5262 -0.4255
  911MOL0     C22914   6.777   3.017   3.232  0.8309  0.6256  0.3482
  911MOL0     C22915   5.937   2.873   3.118  0.0215 -0.0663 -0.0298
  911MOL0     C22916   5.809   2.909   3.063  0.5499  0.2077 -1.3504
  911MOL0     C22917   5.712   2.799   3.064  0.3894 -0.4381 -0.1901
  911MOL0     H22918   5.361   3.060   3.090 -2.3318 -2.1605 -1.9574
  911MOL0     H22919   5.130   3.147   3.058  0.4849 -1.6226 -1.5243
  911MOL0     H22920   5.094   3.564   3.030  0.7050  0.4163 -1.5289
  911MOL0     H22921   5.061   3.563   2.857  1.4261 -1.7332 -1.5935
  911MOL0     H22922   4.867   3.498   3.091  1.6362 -0.6315  0.7723
  911MOL0     H22923   4.826   3.517   2.919 -0.4729 -1.1126  1.6110
  911MOL0     H22924   4.868   3.750   2.930 -0.0222  2.3274  1.9259
  911MOL0     H22925   4.970   3.734   3.073  2.3808 -3.3896 -2.1551
  911MOL0     H22926   4.664   3.685   3.062  1.6088 -0.9052 -2.3680
  911MOL0     H22927   4.769   3.662   3.206  1.8826  0.9380 -0.1541
  911MOL0     H22928   4.719   3.871   3.258 -1.8585  0.9443 -0.3295
  911MOL0     H22929   4.836   3.931   3.131 -0.3065  1.2231 -0.7963
  911MOL0     H22930   4.671   3.902   2.959 -3.8276 -0.0230 -2.3358
  911MOL0     H22931   4.546   3.894   3.081  1.8922 -0.4383 -0.6363
  911MOL0     H22932   4.589   4.118   2.979  4.2479 -0.0647 -2.5598
  911MOL0     H22933   4.746   4.123   3.059  0.3375 -0.8190 -1.8268
  911MOL0     H22934   4.469   4.087   3.204  1.0703 -0.7896  4.6189
  911MOL0     H22935   4.618   4.116   3.291 -1.5832 -1.9979  0.0521
  911MOL0     H22936   4.742   4.366   3.184  0.3146  4.2761 -0.3598
  911MOL0     H22937   4.577   4.692   3.083  0.7941  0.7643  0.0077
  911MOL0     H22938   4.703   4.636   3.176 -2.3867  0.1873  1.7561
  911MOL0     H22939   4.806   4.514   2.973  1.2163  1.3412 -1.4323
  911MOL0     H22940   4.668   4.592   2.879  0.4300 -0.3422 -0.3440
  911MOL0     H22941   4.743   4.809   2.925  0.0430 -1.4055  0.3195
  911MOL0     H22942   4.876   4.706   2.853 -0.2096 -0.7170 -0.5627
  911MOL0     H22943   4.973   4.683   3.077  0.3692 -0.1892  3.6110
  911MOL0     H22944   4.844   4.777   3.159  2.4877  0.5370  0.6722
  911MOL0     H22945   5.045   4.811   3.274  0.6739 -1.4771 -0.9492
  911MOL0     H22946   5.263   4.884   3.391  3.3710  3.2043  0.2406
  911MOL0     H22947   5.485   5.093   3.584 -1.3096 -0.1010 -1.4507
  911MOL0     H22948   5.671   5.181   3.731  1.0842 -1.7716  0.9180
  911MOL0     H22949   6.095   5.087   3.662  1.1541 -0.5554 -2.0292
  911MOL0     H22950   6.057   5.195   3.544  1.4548 -0.3869  0.3862
  911MOL0     H22951   6.122   5.387   3.661 -0.2181  0.3421  0.8955
  911MOL0     H22952   6.072   5.309   3.816 -1.6922 -1.2091 -0.2667
  911MOL0     H22953   6.260   5.150   3.805  0.9799 -0.4573 -0.8449
  911MOL0     H22954   6.321   5.218   3.668  0.8211  0.7228  0.1285
  911MOL0     H22955   6.299   5.344   3.945  0.6493  0.9752 -0.4814
  911MOL0     H22956   6.327   5.450   3.811 -0.5306 -0.1451 -0.6882
  911MOL0     H22957   6.504   5.205   3.835 -1.8914 -0.6286 -2.9366
  911MOL0     H22958   6.542   5.359   3.930 -1.2792 -0.7777  0.4774
  911MOL0     H22959   6.477   5.359   3.635  0.3624 -0.0255 -1.4688
  911MOL0     H22960   6.544   5.483   3.740  0.5987 -0.0149  0.5958
  911MOL0     H22961   6.691   5.328   3.558 -0.3686 -1.6710  0.0031
  911MOL0     H22962   6.694   5.219   3.688  2.6911 -0.3414 -2.3886
  911MOL0     H22963   6.808   5.519   3.686 -1.0819 -0.4051  0.0271
  911MOL0     H22964   6.813   5.413   3.827 -1.2883  1.1936  0.5977
  911MOL0     H22965   5.946   5.027   3.452  0.0179 -2.6768  1.3498
  911MOL0     H22966   5.786   4.944   3.317  0.8969  0.5306  0.3516
  911MOL0     H22967   5.337   5.140   3.053 -4.6364  1.3408 -3.2198
  911MOL0     H22968   5.132   5.044   2.938 -0.0947  4.5530  1.8761
  911MOL0     H22969   5.302   3.490   2.861 -0.9638 -0.1531 -0.8203
  911MOL0     H22970   5.518   3.409   2.927 -0.6489  1.5788 -0.2074
  911MOL0     H22971   5.859   3.242   3.044  2.1149  1.1732  0.4475
  911MOL0     H22972   6.063   3.180   3.126 -1.6005  1.3968 -1.9709
  911MOL0     H22973   6.227   3.113   3.291  2.2761 -0.3577  2.6580
  911MOL0     H22974   6.268   3.069   3.127  0.8710 -1.0114 -0.7243
  911MOL0     H22975   6.358   2.906   3.370  1.4794 -0.0650  1.1018
  911MOL0     H22976   6.450   3.044   3.313  2.0955 -1.4050 -3.3232
  911MOL0     H22977   6.476   2.968   3.093  0.8691  1.1188  0.9321
  911MOL0     H22978   6.398   2.807   3.146 -1.5204  1.9054  0.0419
  911MOL0     H22979   6.576   2.777   3.309 -0.8562 -0.4442 -0.6620
  911MOL0     H22980   6.615   2.768   3.141  1.3349  0.6960 -0.0781
  911MOL0     H22981   6.867   3.074   3.223  1.6724 -0.9992 -3.4617
  911MOL0     H22982   5.962   2.768   3.132  2.6855  0.5559  0.3783
  911MOL0     H22983   5.671   2.803   2.963 -2.0117  2.2282  0.7553
  911MOL0     H22984   5.763   2.704   3.085  1.2312  0.2489  1.0391
  911MOL0     H22985   5.635   2.809   3.141  0.9881  1.2444  0.2357
  912MOL0     O22986   4.625   4.930   3.225  0.7719 -0.2305 -0.1207
  912MOL0     C22987   4.521   4.989   3.213  1.2954 -1.0916 -0.3922
  912MOL0     O22988   4.508   5.115   3.176 -0.0193 -0.3255  0.5130
  912MOL0     C22989   4.615   5.181   3.121 -0.0608  1.2532 -0.5917
  912MOL0     C22990   4.618   5.317   3.145  0.0924 -0.3123 -0.3439
  912MOL0     C22991   4.723   5.409   3.090 -0.1364  0.3858 -0.2555
  912MOL0     C22992   4.821   5.347   3.012 -0.3658 -0.3235 -0.1951
  912MOL0     O22993   4.918   5.424   2.966  0.7089 -0.1459  0.9170
  912MOL0     C22994   5.051   5.360   2.972 -0.0615 -0.2983 -0.3972
  912MOL0     C22995   5.148   5.488   2.964 -0.5982  0.1248 -0.0338
  912MOL0     C22996   5.293   5.465   3.020 -0.1818  0.6476  0.4415
  912MOL0     C22997   5.373   5.597   3.024  0.5311  0.5975  0.1322
  912MOL0     C22998   5.518   5.580   3.072 -0.2314  0.1150  0.7620
  912MOL0     C22999   5.538   5.524   3.213 -0.6519 -0.4777 -0.0916
  912MOL0     C23000   5.683   5.540   3.271  0.1874  0.3315  0.2838
  912MOL0     C23001   5.698   5.446   3.390  0.8254  0.0848 -0.0334
  912MOL0     N23002   5.835   5.453   3.441  0.9194  0.2680  0.0202
  912MOL0     C23003   5.874   5.569   3.510  1.0773  0.5060  0.9294
  912MOL0     C23004   6.001   5.584   3.483 -0.1733  0.3548  0.0643
  912MOL0     C23005   6.074   5.704   3.542  0.8083  0.7752 -0.5112
  912MOL0     C23006   6.219   5.685   3.585  0.0327 -0.5949  0.0081
  912MOL0     C23007   6.318   5.692   3.463 -0.3324 -0.5229 -0.2705
  912MOL0     C23008   6.467   5.679   3.501 -0.2211  0.4530  0.5432
  912MOL0     O23009   6.501   5.770   3.605 -0.5938  0.2304  0.5794
  912MOL0     C23010   6.630   5.776   3.644  0.2726 -0.4524 -0.3272
  912MOL0     C23011   6.654   5.810   3.775 -1.3038  0.4433 -0.2879
  912MOL0     C23012   6.785   5.806   3.830  0.0991 -0.2790  0.2589
  912MOL0     C23013   6.891   5.783   3.743  0.1517  0.9512 -1.2056
  912MOL0     C23014   7.020   5.783   3.798 -0.6577  0.3215 -0.4823
  912MOL0     O23015   7.114   5.727   3.725 -0.1418  0.5069  0.1127
  912MOL0     C23016   7.245   5.718   3.764 -0.4775  0.4953  0.1382
  912MOL0     C23017   7.311   5.816   3.838  0.5121 -0.4894 -0.4962
  912MOL0     C23018   7.442   5.808   3.855 -0.2418 -0.3325  0.3199
  912MOL0     C23019   7.522   5.707   3.798 -0.4012  0.1406 -0.9454
  912MOL0     O23020   7.664   5.691   3.806  0.0846  0.4221  0.2485
  912MOL0     C23021   7.740   5.780   3.889  0.5911  0.5896 -0.3926
  912MOL0     C23022   7.869   5.714   3.939 -0.1776 -0.6830 -0.4751
  912MOL0     C23023   7.942   5.810   4.042 -0.0028 -0.2175  0.5034
  912MOL0     C23024   8.054   5.717   4.093 -0.9363 -0.0079  0.3366
  912MOL0     C23025   8.126   5.795   4.207  0.7009 -0.0403  0.1948
  912MOL0     C23026   8.249   5.723   4.253  0.2088 -1.0561 -0.4334
  912MOL0     C23027   8.322   5.789   4.372 -0.2790  0.1307 -0.5352
  912MOL0     C23028   8.447   5.709   4.426  0.8594  0.6504  0.0766
  912MOL0    Cl23029   8.548   5.659   4.284  0.0976 -0.2162  0.3721
  912MOL0     C23030   7.456   5.604   3.736  1.0056  0.2946 -0.1250
  912MOL0     C23031   7.321   5.604   3.718  0.2278 -0.3376 -0.1101
  912MOL0     O23032   7.032   5.810   3.919  0.4177  0.2799 -0.2227
  912MOL0     C23033   6.869   5.751   3.613  0.7726 -1.1837  0.5400
  912MOL0     C23034   6.740   5.748   3.562  0.2198  0.3240  0.3690
  912MOL0     N23035   6.045   5.494   3.391 -0.3102  0.6916 -0.1741
  912MOL0     N23036   5.946   5.412   3.364 -0.0441 -0.5665 -1.0689
  912MOL0     C23037   4.807   5.206   2.981  0.1033 -0.0990  1.3161
  912MOL0     C23038   4.715   5.124   3.031 -0.2249 -0.5470  0.4922
  912MOL0     C23039   4.398   4.907   3.256 -0.0401  0.0321  0.4507
  912MOL0     C23040   4.419   4.774   3.273 -0.2222  0.5934 -0.3964
  912MOL0     C23041   4.313   4.689   3.304  0.8802  0.0504 -0.1895
  912MOL0     C23042   4.180   4.737   3.319  0.5830  0.8643 -0.9305
  912MOL0     O23043   4.091   4.643   3.351  0.9064  0.4146 -0.1476
  912MOL0     C23044   3.953   4.677   3.363 -0.0002 -0.3334 -0.7177
  912MOL0     C23045   3.857   4.558   3.344 -0.0471 -0.1720  0.3536
  912MOL0     C23046   3.718   4.603   3.302  0.0717  1.0998 -0.9718
  912MOL0     C23047   3.639   4.476   3.264 -0.5365  0.8623 -0.3108
  912MOL0     C23048   3.514   4.512   3.202 -0.5936 -0.1192  1.3196
  912MOL0     C23049   3.407   4.559   3.167 -0.2341 -0.3463 -0.2258
  912MOL0     C23050   4.157   4.879   3.308  0.3471  0.1292  0.5328
  912MOL0     C23051   4.265   4.963   3.281 -0.9591  0.0236 -0.2575
  912MOL0     C23052   4.232   5.110   3.271 -0.7186 -0.1760  0.4129
  912MOL0     H23053   4.529   5.361   3.188  1.2293  1.3747  0.3712
  912MOL0     H23054   4.710   5.517   3.098 -2.0988  0.0649  2.0914
  912MOL0     H23055   5.060   5.300   3.063 -0.0580 -1.0365 -0.8736
  912MOL0     H23056   5.074   5.289   2.892  1.9811 -0.6950  0.4705
  912MOL0     H23057   5.105   5.575   3.013  0.6482  0.3988  0.6249
  912MOL0     H23058   5.156   5.515   2.858 -0.6252 -1.7155 -0.5421
  912MOL0     H23059   5.339   5.388   2.957 -1.4812  0.1595  0.0643
  912MOL0     H23060   5.280   5.429   3.122 -4.5720  1.1905  0.2720
  912MOL0     H23061   5.376   5.658   2.934  3.7551  0.8119  0.2875
  912MOL0     H23062   5.315   5.656   3.095  0.3422  0.3538  0.1841
  912MOL0     H23063   5.572   5.527   2.994  1.0002  0.3217  1.4459
  912MOL0     H23064   5.562   5.680   3.066  1.2086 -0.4570  1.2283
  912MOL0     H23065   5.477   5.581   3.284  2.6749  1.9185  1.1586
  912MOL0     H23066   5.502   5.422   3.206  0.5661 -0.7999 -2.5310
  912MOL0     H23067   5.703   5.641   3.306  1.0516 -0.1647  1.2664
  912MOL0     H23068   5.760   5.519   3.196  0.1298  2.0493 -0.2853
  912MOL0     H23069   5.624   5.476   3.465  0.2261  0.7666 -0.8900
  912MOL0     H23070   5.676   5.346   3.351  1.1611  0.0986 -0.2581
  912MOL0     H23071   5.812   5.630   3.575 -2.3106  0.7569 -2.2447
  912MOL0     H23072   6.062   5.784   3.469 -1.8501  0.8681 -0.0811
  912MOL0     H23073   6.021   5.736   3.632  1.2851  1.7555 -0.5691
  912MOL0     H23074   6.249   5.763   3.655 -0.8782 -1.6794  1.6808
  912MOL0     H23075   6.233   5.596   3.647  2.6440  2.1057  3.7590
  912MOL0     H23076   6.313   5.788   3.410  3.1396  0.0229  0.1643
  912MOL0     H23077   6.294   5.611   3.394  1.2395 -1.0640 -0.2154
  912MOL0     H23078   6.527   5.686   3.410 -2.6124  0.5897 -1.1175
  912MOL0     H23079   6.479   5.575   3.533  1.2829  0.0839 -1.0598
  912MOL0     H23080   6.573   5.835   3.842 -0.9523 -0.6071  0.5609
  912MOL0     H23081   6.803   5.827   3.934 -1.0770 -0.0737  0.4373
  912MOL0     H23082   7.258   5.904   3.873 -0.5778 -1.5003  0.4697
  912MOL0     H23083   7.486   5.891   3.909 -0.4840  0.1082 -0.1500
  912MOL0     H23084   7.761   5.871   3.831 -1.0271 -1.4402 -4.6267
  912MOL0     H23085   7.675   5.801   3.975  0.2378 -1.3791 -0.1267
  912MOL0     H23086   7.844   5.613   3.974  3.9947 -1.0423  2.2749
  912MOL0     H23087   7.939   5.697   3.857  2.6071 -0.9424  1.7802
  912MOL0     H23088   7.981   5.892   3.981  2.0126 -2.4683 -1.4009
  912MOL0     H23089   7.877   5.855   4.118  1.0709 -0.5974  1.6864
  912MOL0     H23090   8.125   5.687   4.015  0.5178 -0.2367  1.7065
  912MOL0     H23091   8.008   5.630   4.140 -1.4890  0.7010  1.1420
  912MOL0     H23092   8.061   5.805   4.294  3.4218 -4.3101  3.0836
  912MOL0     H23093   8.154   5.894   4.171 -1.7108  0.8248  0.5252
  912MOL0     H23094   8.213   5.627   4.291  0.1796 -0.3579  1.4454
  912MOL0     H23095   8.315   5.721   4.166  1.2610  3.3550  0.0351
  912MOL0     H23096   8.248   5.805   4.452  1.7982 -3.2133  2.3200
  912MOL0     H23097   8.360   5.880   4.324  3.5186 -2.8549 -3.8653
  912MOL0     H23098   8.514   5.766   4.490  1.7278  3.0100 -2.7277
  912MOL0     H23099   8.414   5.619   4.480  2.8007  1.0041  1.9782
  912MOL0     H23100   7.510   5.526   3.683 -0.6818  0.8198 -2.7937
  912MOL0     H23101   7.262   5.534   3.660 -0.0383  1.1466 -1.7239
  912MOL0     H23102   6.955   5.737   3.547  1.9704  1.0229  1.5168
  912MOL0     H23103   6.718   5.734   3.456 -0.5309 -1.7489  0.7407
  912MOL0     H23104   4.885   5.173   2.912  0.0333  1.3868  0.4694
  912MOL0     H23105   4.725   5.018   3.010 -1.1040 -0.8338  1.4097
  912MOL0     H23106   4.517   4.729   3.260 -0.7778 -0.7600 -0.0229
  912MOL0     H23107   4.335   4.583   3.318 -2.0678 -0.3686  2.3133
  912MOL0     H23108   3.924   4.764   3.303 -3.8670  2.5000  4.3902
  912MOL0     H23109   3.937   4.720   3.462  0.6138  0.9747 -1.1680
  912MOL0     H23110   3.853   4.502   3.438 -0.2500 -0.1351  0.3669
  912MOL0     H23111   3.899   4.503   3.259 -0.9687  0.4005 -0.4949
  912MOL0     H23112   3.737   4.668   3.216  2.2394  0.0016 -1.3992
  912MOL0     H23113   3.688   4.657   3.392  0.0753  2.9505 -2.0331
  912MOL0     H23114   3.691   4.409   3.196 -0.9977 -0.6363  0.7734
  912MOL0     H23115   3.614   4.414   3.350  2.3697  0.2566  0.1978
  912MOL0     H23116   3.313   4.611   3.165 -1.5223 -2.4561  1.4188
  912MOL0     H23117   4.063   4.923   3.337 -0.6770 -1.5369 -0.1184
  912MOL0     H23118   4.266   5.129   3.169  0.5639 -2.4284  0.3393
  912MOL0     H23119   4.126   5.136   3.279 -0.0772  2.0487  3.2295
  912MOL0     H23120   4.291   5.166   3.344  0.0412 -0.8835  0.3498
  913MOL0     O23121   7.419   5.092   0.704  0.5001 -0.2670 -0.5235
  913MOL0     C23122   7.414   5.206   0.655  0.3323  0.7741 -0.2043
  913MOL0     O23123   7.518   5.300   0.659 -0.1187  0.2355  0.2629
  913MOL0     C23124   7.645   5.265   0.717 -0.0804 -0.1136  0.3605
  913MOL0     C23125   7.761   5.293   0.638  0.5068  0.2000  0.2257
  913MOL0     C23126   7.889   5.262   0.692 -0.4615  0.1798  0.6613
  913MOL0     C23127   7.905   5.199   0.812 -0.5630  0.6145  0.2302
  913MOL0     O23128   8.038   5.196   0.849  0.2895  0.5909 -0.0519
  913MOL0     C23129   8.061   5.151   0.988  0.3611  0.6494  0.6506
  913MOL0     C23130   8.214   5.148   1.016 -0.1581  0.1507  0.0394
  913MOL0     C23131   8.299   5.131   0.893 -0.4891 -0.5923  0.6537
  913MOL0     C23132   8.444   5.133   0.924  0.0151 -0.7197  0.5072
  913MOL0     C23133   8.529   5.141   0.794 -0.1219 -0.6246 -0.1074
  913MOL0     C23134   8.674   5.135   0.827 -0.5418 -0.1591  0.5170
  913MOL0     C23135   8.760   5.103   0.698  1.2256  0.4712 -0.6082
  913MOL0     C23136   8.904   5.140   0.730  0.2390 -0.1993 -0.4196
  913MOL0     N23137   8.989   5.132   0.610  0.2308  0.2000 -0.3825
  913MOL0     C23138   9.057   5.021   0.580  0.1935 -0.2600  0.2465
  913MOL0     C23139   9.136   5.051   0.475 -0.1695  0.1898 -0.6459
  913MOL0     C23140   9.230   4.957   0.406  0.4101  0.3262 -0.7233
  913MOL0     C23141   9.359   4.957   0.481  0.2282 -0.1596 -0.0701
  913MOL0     C23142   9.455   4.879   0.393 -0.2879  0.5797  0.0551
  913MOL0     C23143   9.602   4.893   0.451 -0.4367  0.2273 -0.9064
  913MOL0     O23144   9.694   4.843   0.349  0.3041  0.8711  0.4499
  913MOL0     C23145   9.825   4.834   0.393  0.0951  0.1054  1.0175
  913MOL0     C23146   9.878   4.869   0.517  0.0856 -0.6036 -0.0272
  913MOL0     C23147  10.008   4.841   0.553  0.0808  0.2350  0.2075
  913MOL0     C23148  10.084   4.755   0.465 -0.0274  0.1757  0.1448
  913MOL0     C23149  10.222   4.712   0.502 -0.2096  0.6716 -0.3854
  913MOL0     O23150  10.256   4.732   0.634  0.5629  0.4831 -0.8400
  913MOL0     C23151  10.388   4.711   0.673  0.2521  0.8287 -0.0799
  913MOL0     C23152  10.428   4.603   0.757  1.2985 -0.1928  0.7177
  913MOL0     C23153  10.564   4.573   0.787  1.0670  0.4823 -0.0312
  913MOL0     C23154  10.661   4.657   0.735 -0.2362 -0.7787  0.4443
  913MOL0     O23155  10.795   4.631   0.736  0.0425 -0.9548  0.3366
  913MOL0     C23156  10.841   4.513   0.790 -0.0401  0.0718  0.8736
  913MOL0     C23157  10.990   4.533   0.803 -0.3837  0.6507 -0.2838
  913MOL0     C23158  11.076   4.489   0.677 -0.5273 -0.4278  0.0784
  913MOL0     C23159  11.215   4.464   0.735  0.9930 -0.5611  0.4614
  913MOL0     C23160  11.324   4.419   0.631  0.8963  0.0953  0.1212
  913MOL0     C23161  11.363   4.545   0.550 -0.7030 -0.1708 -0.4437
  913MOL0     C23162  11.449   4.505   0.421  0.1546 -0.5969 -0.4277
  913MOL0     C23163  11.355   4.431   0.320  0.0872 -0.0941  0.5689
  913MOL0    Cl23164  11.455   4.378   0.175  0.3708 -0.2286  0.1945
  913MOL0     C23165  10.629   4.766   0.657  0.7177  0.1598 -0.7918
  913MOL0     C23166  10.495   4.787   0.627 -0.0280  0.0394  0.4802
  913MOL0     O23167  10.302   4.670   0.417 -0.1645  0.6023 -0.1766
  913MOL0     C23168  10.043   4.730   0.332 -0.3943 -0.4817  0.8609
  913MOL0     C23169   9.910   4.770   0.305 -0.1024  0.9487 -0.4334
  913MOL0     N23170   9.106   5.183   0.441  0.0324 -0.2648 -0.0403
  913MOL0     N23171   9.023   5.228   0.521 -0.1911  0.5795  0.5075
  913MOL0     C23172   7.798   5.157   0.889  0.6223  0.1557  0.5978
  913MOL0     C23173   7.667   5.198   0.837 -0.7671  0.4171 -1.1527
  913MOL0     C23174   7.296   5.251   0.579 -0.3385  0.4425 -0.5874
  913MOL0     C23175   7.212   5.151   0.528 -0.6456 -0.5500  0.7342
  913MOL0     C23176   7.086   5.179   0.470 -1.0194 -0.0348 -0.7429
  913MOL0     C23177   7.039   5.308   0.465  0.9037  0.0929  0.3732
  913MOL0     O23178   6.913   5.346   0.409  0.2615  0.1426  0.2727
  913MOL0     C23179   6.797   5.261   0.414 -0.6162  0.1722 -0.5427
  913MOL0     C23180   6.682   5.310   0.330 -0.4509 -0.4649  0.3394
  913MOL0     C23181   6.611   5.430   0.382 -0.2096  1.0942  0.2082
  913MOL0     C23182   6.692   5.557   0.406  1.5834 -0.2472  0.6538
  913MOL0     C23183   6.594   5.660   0.430 -1.5599 -0.6208 -0.4951
  913MOL0     C23184   6.530   5.762   0.440 -0.0519 -0.2177 -0.4234
  913MOL0     C23185   7.121   5.411   0.507  0.2002 -0.1099 -0.0216
  913MOL0     C23186   7.250   5.387   0.574 -0.2601  0.3384 -0.9393
  913MOL0     C23187   7.324   5.501   0.635  0.8155 -0.5415  0.6022
  913MOL0     H23188   7.758   5.323   0.534  0.4318 -0.6246 -0.0147
  913MOL0     H23189   7.976   5.287   0.633 -0.5536  1.3725  1.0174
  913MOL0     H23190   8.008   5.216   1.058  0.3954  2.9200 -1.3002
  913MOL0     H23191   8.015   5.052   0.998  3.2416 -0.7066  1.5690
  913MOL0     H23192   8.230   5.053   1.069  1.7877 -1.4196 -3.0822
  913MOL0     H23193   8.240   5.239   1.070 -0.5699  0.5119 -0.3566
  913MOL0     H23194   8.283   5.216   0.825  1.6204 -1.6652 -1.3340
  913MOL0     H23195   8.269   5.037   0.846 -2.6749  0.2483  0.2630
  913MOL0     H23196   8.452   5.222   0.988  0.4873  0.3861 -1.0231
  913MOL0     H23197   8.481   5.045   0.976  1.9239  0.3478  1.0355
  913MOL0     H23198   8.487   5.060   0.734 -0.5514 -0.0444 -0.5925
  913MOL0     H23199   8.508   5.232   0.738 -0.1364  0.0487  0.9573
  913MOL0     H23200   8.712   5.230   0.864  1.3568  0.2158 -2.1056
  913MOL0     H23201   8.690   5.056   0.901 -0.3848 -1.7612 -1.1514
  913MOL0     H23202   8.722   5.157   0.611 -1.2330 -0.7842 -0.3864
  913MOL0     H23203   8.738   5.001   0.666 -3.7218  1.3425 -0.7686
  913MOL0     H23204   8.904   5.246   0.757 -0.7023 -0.5192  0.9311
  913MOL0     H23205   8.948   5.088   0.815  1.6078 -0.8232 -1.4588
  913MOL0     H23206   9.065   4.931   0.641  1.3278  0.1002  0.6519
  913MOL0     H23207   9.187   4.857   0.397  2.0795 -0.8571  2.8540
  913MOL0     H23208   9.255   5.005   0.311 -0.4521  2.8360  0.2296
  913MOL0     H23209   9.391   5.056   0.512 -0.0321  0.6265 -2.1597
  913MOL0     H23210   9.335   4.900   0.572  1.7290 -3.2842 -1.4943
  913MOL0     H23211   9.450   4.918   0.291  2.0391  1.8306  0.3509
  913MOL0     H23212   9.415   4.777   0.385 -0.1942  0.6216 -1.1073
  913MOL0     H23213   9.622   4.821   0.530  3.1106 -3.3413 -4.5244
  913MOL0     H23214   9.637   4.989   0.490  0.4389 -0.8913  1.1997
  913MOL0     H23215   9.806   4.913   0.586 -0.6914 -2.8754  0.7132
  913MOL0     H23216  10.041   4.862   0.654  1.4307  0.6720 -0.2917
  913MOL0     H23217  10.354   4.531   0.788  0.2453 -0.2522 -1.7145
  913MOL0     H23218  10.586   4.480   0.838 -2.2163 -0.1236  0.4611
  913MOL0     H23219  10.790   4.481   0.882  2.1117 -0.9977  1.7860
  913MOL0     H23220  10.831   4.436   0.712  2.7058  1.3358 -0.8504
  913MOL0     H23221  11.011   4.640   0.813  0.5346  0.4958 -0.4790
  913MOL0     H23222  11.026   4.480   0.892 -2.3750  0.3763  0.4325
  913MOL0     H23223  11.038   4.401   0.624  1.8834 -2.3856  1.3986
  913MOL0     H23224  11.074   4.572   0.607 -0.8448 -0.8303 -0.3995
  913MOL0     H23225  11.205   4.390   0.815 -0.3115 -0.6818  0.1954
  913MOL0     H23226  11.260   4.557   0.771  3.9777 -1.5758 -0.3352
  913MOL0     H23227  11.294   4.341   0.561  1.5070  0.0911 -0.1422
  913MOL0     H23228  11.400   4.371   0.693  2.1963  0.9893 -0.7068
  913MOL0     H23229  11.272   4.598   0.521 -1.2665 -0.9072 -0.0475
  913MOL0     H23230  11.421   4.608   0.618  2.0161 -3.9123  1.0904
  913MOL0     H23231  11.539   4.452   0.454 -0.4263 -0.1944  1.9859
  913MOL0     H23232  11.493   4.599   0.389 -0.9156  1.0361  2.4810
  913MOL0     H23233  11.312   4.344   0.371 -1.7303 -1.5973 -3.2044
  913MOL0     H23234  11.278   4.501   0.285  3.1528  2.6010 -1.2716
  913MOL0     H23235  10.712   4.833   0.636  1.0327  0.0628  0.0614
  913MOL0     H23236  10.456   4.863   0.559 -1.5547 -1.7503 -0.7425
  913MOL0     H23237  10.098   4.670   0.261  2.4760  0.8975  1.7728
  913MOL0     H23238   9.877   4.723   0.214  3.5585 -1.7424 -0.6118
  913MOL0     H23239   7.801   5.107   0.985 -0.8393 -0.1883  0.4903
  913MOL0     H23240   7.593   5.163   0.908 -1.1056  2.4349 -0.4295
  913MOL0     H23241   7.257   5.054   0.507 -0.7143 -0.2931 -0.6926
  913MOL0     H23242   7.026   5.098   0.430 -0.7353  0.0057 -1.2654
  913MOL0     H23243   6.768   5.242   0.518  2.5066 -0.6906  0.2694
  913MOL0     H23244   6.831   5.165   0.375  0.9664  0.5640 -0.2177
  913MOL0     H23245   6.610   5.231   0.306 -2.3903  1.3715 -0.1752
  913MOL0     H23246   6.735   5.343   0.240 -1.8028  0.1417 -0.2546
  913MOL0     H23247   6.579   5.394   0.481 -0.0655  0.8249  0.1579
  913MOL0     H23248   6.522   5.452   0.323 -1.0481  1.2939  1.5091
  913MOL0     H23249   6.755   5.533   0.492 -0.5547 -1.1459  2.0487
  913MOL0     H23250   6.747   5.580   0.315  0.6502  0.1809  0.1754
  913MOL0     H23251   6.469   5.850   0.442  2.4005  1.7372 -3.3279
  913MOL0     H23252   7.081   5.511   0.494 -1.1257 -0.2056  2.6911
  913MOL0     H23253   7.258   5.588   0.626 -0.4599 -1.5710 -0.3750
  913MOL0     H23254   7.353   5.490   0.739  1.7112 -2.3985  0.1886
  913MOL0     H23255   7.410   5.520   0.570  0.4026 -0.3167  0.1088
  914MOL0     O23256   1.916  10.520   2.542 -0.6311  0.1402  0.4073
  914MOL0     C23257   1.864  10.627   2.548  0.1843 -1.0938 -0.0539
  914MOL0     O23258   1.921  10.746   2.548 -0.1551 -0.1293 -0.3176
  914MOL0     C23259   2.066  10.762   2.543  1.3089 -0.0018  0.1696
  914MOL0     C23260   2.131  10.860   2.627  0.6708  0.3837 -0.1407
  914MOL0     C23261   2.272  10.866   2.624 -0.5741 -0.4039  0.1503
  914MOL0     C23262   2.349  10.782   2.531  0.3285 -0.6904  0.3020
  914MOL0     O23263   2.492  10.791   2.531 -0.1206  0.5761  0.7132
  914MOL0     C23264   2.558  10.844   2.416  0.1454  0.0595  0.3558
  914MOL0     C23265   2.704  10.868   2.468 -0.5904  0.0515  0.1241
  914MOL0     C23266   2.770  10.960   2.359  0.8280  0.1213  0.4869
  914MOL0     C23267   2.896  11.024   2.419  0.9930  0.4463 -0.8798
  914MOL0     C23268   2.973  11.103   2.321 -0.1361 -0.2904 -0.3591
  914MOL0     C23269   3.092  11.174   2.388 -0.8757 -0.1731  0.2179
  914MOL0     C23270   3.193  11.187   2.285 -0.1126 -0.4031 -0.1318
  914MOL0     C23271   3.328  11.234   2.334 -0.6845 -0.4789 -0.5019
  914MOL0     N23272   3.407  11.140   2.425  0.1623  0.3248  0.7842
  914MOL0     C23273   3.482  11.034   2.385  0.0441  0.4133  0.6918
  914MOL0     C23274   3.554  10.996   2.490  0.1961  0.0020 -0.0847
  914MOL0     C23275   3.641  10.870   2.505  0.4779 -0.1160  0.3654
  914MOL0     C23276   3.756  10.879   2.410 -0.8897 -0.8077  0.4162
  914MOL0     C23277   3.863  10.975   2.447 -0.3019  0.1197 -0.7416
  914MOL0     C23278   3.972  10.981   2.339 -0.0490  0.6131  0.0659
  914MOL0     O23279   4.061  10.874   2.361 -0.5234  0.2193 -0.0720
  914MOL0     C23280   4.166  10.849   2.268 -0.4343 -0.3015  0.0353
  914MOL0     C23281   4.206  10.941   2.165  0.4224 -0.0039 -0.1126
  914MOL0     C23282   4.324  10.919   2.094 -0.5094  0.0167 -0.0504
  914MOL0     C23283   4.404  10.806   2.124  0.2904  0.1641 -0.5988
  914MOL0     C23284   4.535  10.788   2.051  0.3038  0.0048  0.3716
  914MOL0     O23285   4.611  10.687   2.097  0.1866  0.0468 -0.1248
  914MOL0     C23286   4.740  10.647   2.051 -0.1486  0.0550  0.1374
  914MOL0     C23287   4.804  10.699   1.935 -0.3343 -0.8323 -0.5087
  914MOL0     C23288   4.937  10.686   1.924  0.7106 -0.6142 -0.2828
  914MOL0     C23289   5.012  10.618   2.020  0.4093  0.0601  0.3623
  914MOL0     O23290   5.143  10.616   1.995 -0.1188  0.3767  0.5984
  914MOL0     C23291   5.230  10.544   2.084  0.5436  0.0443  0.4398
  914MOL0     C23292   5.368  10.573   2.044 -0.6799  0.4091  0.9590
  914MOL0     C23293   5.408  10.706   1.993  0.1800  0.1050  0.2237
  914MOL0     C23294   5.544  10.704   1.916  1.0717 -0.4370  0.4246
  914MOL0     C23295   5.568  10.843   1.847 -0.0302 -0.6414  0.4658
  914MOL0     C23296   5.719  10.850   1.815 -0.3440 -0.2887 -0.0284
  914MOL0     C23297   5.745  10.952   1.708  0.2196  0.5944  0.3797
  914MOL0     C23298   5.891  10.980   1.673  0.1933  0.0917 -0.0715
  914MOL0    Cl23299   5.982  10.836   1.634  0.5758 -0.1493 -0.7234
  914MOL0     C23300   4.951  10.567   2.140 -0.8540  0.7855  1.1737
  914MOL0     C23301   4.811  10.583   2.149 -0.1788  0.3787 -0.1334
  914MOL0     O23302   4.573  10.866   1.960 -0.4357 -0.0746  0.2796
  914MOL0     C23303   4.354  10.709   2.210 -0.9244 -0.5888 -0.5753
  914MOL0     C23304   4.242  10.738   2.282  0.7243 -0.1405  0.0542
  914MOL0     N23305   3.527  11.081   2.596  0.4151  0.9093  0.5770
  914MOL0     N23306   3.436  11.167   2.551  0.4620  0.1779 -0.3419
  914MOL0     C23307   2.280  10.697   2.451  0.4997  0.2825 -0.1237
  914MOL0     C23308   2.142  10.687   2.453  1.6683 -0.4136 -0.1224
  914MOL0     C23309   1.718  10.623   2.546  0.4985 -0.7582 -0.0330
  914MOL0     C23310   1.652  10.562   2.432  0.0686  0.1873 -0.4921
  914MOL0     C23311   1.514  10.568   2.426  0.7513 -0.0083 -0.0755
  914MOL0     C23312   1.436  10.636   2.531 -0.3542  0.0972  0.1794
  914MOL0     O23313   1.298  10.643   2.528  0.2982  0.4760  0.2434
  914MOL0     C23314   1.245  10.677   2.399 -0.0646 -0.0017  0.0869
  914MOL0     C23315   1.196  10.818   2.417  1.1856 -0.8038  0.2539
  914MOL0     C23316   1.070  10.815   2.502  0.0249  0.4382 -0.2218
  914MOL0     C23317   0.979  10.937   2.500 -0.6890 -0.8550  0.4285
  914MOL0     C23318   0.998  11.021   2.617  1.0062  0.3645  0.1038
  914MOL0     C23319   1.021  11.110   2.694  0.5057 -0.2639  0.4527
  914MOL0     C23320   1.504  10.689   2.642  0.3405 -0.0281 -0.0965
  914MOL0     C23321   1.644  10.691   2.652  0.4457 -0.1697 -0.3403
  914MOL0     C23322   1.688  10.760   2.779 -0.2341  0.8420 -0.1935
  914MOL0     H23323   2.077  10.919   2.700  1.1882  0.3421  0.2830
  914MOL0     H23324   2.329  10.936   2.683  0.0832 -2.0888  1.6221
  914MOL0     H23325   2.554  10.768   2.337 -0.0686 -2.0233  2.2570
  914MOL0     H23326   2.515  10.937   2.380 -1.4986  0.2627  2.5857
  914MOL0     H23327   2.758  10.774   2.464  0.0469  0.3169  1.7893
  914MOL0     H23328   2.704  10.916   2.566  0.3746  0.5125 -0.0874
  914MOL0     H23329   2.707  11.044   2.328 -0.1378  0.0701  2.1817
  914MOL0     H23330   2.795  10.902   2.270 -2.2718  2.6795 -2.2930
  914MOL0     H23331   2.860  11.089   2.499  0.0378 -1.7579  0.5643
  914MOL0     H23332   2.956  10.939   2.453 -1.9553 -0.3288  3.0811
  914MOL0     H23333   2.997  11.032   2.241 -0.6661  0.4769 -1.2298
  914MOL0     H23334   2.900  11.180   2.290 -2.5561 -0.2041  4.5793
  914MOL0     H23335   3.055  11.267   2.432 -0.8681 -0.2026  0.2866
  914MOL0     H23336   3.136  11.112   2.466 -0.8257 -1.1601 -0.5769
  914MOL0     H23337   3.159  11.253   2.204  2.1783  0.5055 -0.4100
  914MOL0     H23338   3.213  11.088   2.243  1.0528  0.4268 -1.6339
  914MOL0     H23339   3.399  11.255   2.253  0.1988  0.2308  0.4358
  914MOL0     H23340   3.304  11.323   2.392  0.1413 -1.0248  0.7060
  914MOL0     H23341   3.491  10.984   2.289  3.8222 -0.3094  1.2691
  914MOL0     H23342   3.676  10.868   2.609 -0.3870  3.1337  0.8446
  914MOL0     H23343   3.593  10.775   2.482  6.1154 -3.0007 -1.3034
  914MOL0     H23344   3.805  10.781   2.410 -0.2833 -0.5109  0.6800
  914MOL0     H23345   3.729  10.911   2.309 -1.0374  0.2175  0.7676
  914MOL0     H23346   3.914  10.956   2.542  2.1637  0.3891 -1.9365
  914MOL0     H23347   3.829  11.079   2.455  1.1042  0.4393  3.1869
  914MOL0     H23348   4.027  11.075   2.347 -1.8843  2.0278 -2.4398
  914MOL0     H23349   3.937  10.976   2.236 -0.6031  0.6871  0.2503
  914MOL0     H23350   4.153  11.032   2.136 -1.6480 -1.9634 -3.0684
  914MOL0     H23351   4.352  10.980   2.009  0.1989  0.2829  0.3695
  914MOL0     H23352   4.747  10.736   1.851  1.4759  0.5959 -1.1660
  914MOL0     H23353   4.986  10.724   1.835 -0.0241  0.4672 -0.2511
  914MOL0     H23354   5.211  10.588   2.183 -0.3479  0.7889 -0.0419
  914MOL0     H23355   5.211  10.437   2.086 -0.4366  0.2117  0.7677
  914MOL0     H23356   5.429  10.548   2.131  1.1283  3.6560  0.7941
  914MOL0     H23357   5.402  10.500   1.970  1.5565  1.2429  1.0934
  914MOL0     H23358   5.331  10.752   1.930 -0.5251  1.2264  1.8352
  914MOL0     H23359   5.440  10.775   2.071 -1.6964 -0.1823  1.2960
  914MOL0     H23360   5.551  10.618   1.849 -1.1257 -0.6396  0.4049
  914MOL0     H23361   5.615  10.681   1.996  1.2667  1.2656  0.7698
  914MOL0     H23362   5.543  10.923   1.917  0.6700 -2.1128  2.5055
  914MOL0     H23363   5.509  10.851   1.755 -0.1226  1.9826  0.6874
  914MOL0     H23364   5.768  10.888   1.905  0.0367 -2.0854  0.5768
  914MOL0     H23365   5.760  10.750   1.795 -1.3380 -1.0087  1.3556
  914MOL0     H23366   5.688  11.042   1.734 -2.2680 -0.1144 -2.1974
  914MOL0     H23367   5.695  10.908   1.622 -1.9651  0.0765  1.8317
  914MOL0     H23368   5.890  11.052   1.590  3.4077 -1.6815 -1.8362
  914MOL0     H23369   5.959  11.033   1.739 -0.2683  1.6361 -0.7765
  914MOL0     H23370   4.998  10.525   2.229 -2.6920 -3.5516  0.2986
  914MOL0     H23371   4.761  10.538   2.235 -0.9164 -2.6395 -1.9755
  914MOL0     H23372   4.403  10.615   2.232 -1.1689 -0.0672  2.7096
  914MOL0     H23373   4.194  10.672   2.353 -2.9613  2.3039  0.1011
  914MOL0     H23374   2.343  10.649   2.377 -0.0184 -1.2193  0.3727
  914MOL0     H23375   2.098  10.625   2.375  1.5060  1.2557 -1.3955
  914MOL0     H23376   1.703  10.509   2.352 -0.6003 -1.1508 -0.0630
  914MOL0     H23377   1.466  10.522   2.340  3.4461  0.9609 -2.2428
  914MOL0     H23378   1.159  10.617   2.371 -1.6790  0.6022  3.2427
  914MOL0     H23379   1.323  10.686   2.322  0.1275  0.8532  0.3663
  914MOL0     H23380   1.181  10.859   2.317  1.4672  0.0011  0.5303
  914MOL0     H23381   1.277  10.879   2.458  0.9949 -0.5649  0.2802
  914MOL0     H23382   1.107  10.791   2.602 -1.0020 -0.3010 -0.0001
  914MOL0     H23383   1.007  10.734   2.464 -0.3186 -0.8495  2.8196
  914MOL0     H23384   1.001  10.996   2.411  2.3849  0.7991  2.0980
  914MOL0     H23385   0.878  10.897   2.485 -0.6458 -1.1832  0.9734
  914MOL0     H23386   1.040  11.179   2.774  0.1224 -1.3316  1.5018
  914MOL0     H23387   1.435  10.739   2.710  1.4676  2.3376 -0.5682
  914MOL0     H23388   1.741  10.854   2.761  1.0042  0.5513  1.6443
  914MOL0     H23389   1.596  10.778   2.835 -2.6725  0.1385 -3.6631
  914MOL0     H23390   1.747  10.684   2.831 -3.4803 -0.2169  2.2280
  915MOL0     O23391   2.141   6.668   3.841  0.0074 -0.4142  0.1276
  915MOL0     C23392   2.049   6.703   3.923 -0.4450 -0.5167  0.3727
  915MOL0     O23393   2.066   6.739   4.054 -0.5889 -0.1394  0.4638
  915MOL0     C23394   2.196   6.756   4.101 -0.2049 -0.2756  0.1930
  915MOL0     C23395   2.269   6.874   4.093 -0.0278  0.1421  0.4533
  915MOL0     C23396   2.396   6.896   4.145  0.0253  0.1967 -0.3921
  915MOL0     C23397   2.454   6.790   4.215 -0.1960  0.4707  0.6861
  915MOL0     O23398   2.580   6.818   4.259 -0.3322  0.4559 -0.2310
  915MOL0     C23399   2.678   6.715   4.294  0.3015  0.4134  0.2188
  915MOL0     C23400   2.806   6.791   4.342  0.1754 -0.5497  0.6609
  915MOL0     C23401   2.923   6.708   4.343 -0.1791  0.8338 -0.4236
  915MOL0     C23402   3.035   6.775   4.431 -0.0542  0.8820 -0.1161
  915MOL0     C23403   3.161   6.688   4.433  0.2599  0.0098 -0.6529
  915MOL0     C23404   3.234   6.683   4.300 -0.0587 -0.3288  0.3163
  915MOL0     C23405   3.364   6.606   4.300 -0.7050 -0.4302  0.1023
  915MOL0     C23406   3.418   6.592   4.157  0.0725 -0.8321  0.1076
  915MOL0     N23407   3.501   6.716   4.122 -0.3276 -0.2379  0.1380
  915MOL0     C23408   3.628   6.772   4.158 -0.2416  0.3563 -0.5523
  915MOL0     C23409   3.629   6.899   4.106 -0.8431 -0.5322  0.5231
  915MOL0     C23410   3.713   7.019   4.138  0.1444  1.0403 -0.2625
  915MOL0     C23411   3.860   6.987   4.115 -0.2258  0.0133 -0.2414
  915MOL0     C23412   3.950   7.096   4.178 -0.8573 -0.0128 -0.2386
  915MOL0     C23413   4.097   7.057   4.158 -0.0970  0.1513  0.1552
  915MOL0     O23414   4.179   7.148   4.231 -0.0190 -0.4420  0.1984
  915MOL0     C23415   4.308   7.118   4.234 -0.2537  0.7565  0.4467
  915MOL0     C23416   4.374   7.020   4.159 -0.3265 -0.7943  0.1669
  915MOL0     C23417   4.516   7.015   4.158  0.2193 -0.5434  0.0784
  915MOL0     C23418   4.599   7.100   4.232  0.0556 -0.6174  0.7938
  915MOL0     C23419   4.745   7.092   4.238  0.4565  0.4761  0.1184
  915MOL0     O23420   4.798   7.144   4.346  0.7680 -1.0432 -0.0825
  915MOL0     C23421   4.934   7.141   4.354 -0.3601 -0.1544 -0.0184
  915MOL0     C23422   5.003   7.017   4.359 -0.5081  0.1277  0.9347
  915MOL0     C23423   5.142   7.001   4.356  0.8501  0.0268 -0.0205
  915MOL0     C23424   5.212   7.117   4.349  0.0478  0.0160  0.1711
  915MOL0     O23425   5.342   7.107   4.308 -0.2163 -0.1834 -0.3652
  915MOL0     C23426   5.434   7.214   4.306  0.8014 -0.0781  0.0308
  915MOL0     C23427   5.481   7.260   4.444  0.2847 -0.0707 -0.7518
  915MOL0     C23428   5.559   7.393   4.447  0.3238  0.3286  0.4547
  915MOL0     C23429   5.705   7.372   4.476  0.1103  0.4121 -0.3695
  915MOL0     C23430   5.795   7.496   4.493 -0.4044  0.6232 -0.0689
  915MOL0     C23431   5.770   7.598   4.608  0.0051  0.1632 -0.4936
  915MOL0     C23432   5.880   7.694   4.620 -0.2271 -0.4615 -0.6585
  915MOL0     C23433   5.980   7.654   4.728  0.0844 -0.2985 -1.2360
  915MOL0    Cl23434   6.088   7.794   4.761 -0.0214 -0.2535  0.4083
  915MOL0     C23435   5.151   7.247   4.360  0.3790 -0.0701 -0.2310
  915MOL0     C23436   5.011   7.257   4.356  1.1737 -0.0900 -0.2688
  915MOL0     O23437   4.802   7.046   4.137  0.3984 -0.2842 -0.1294
  915MOL0     C23438   4.534   7.189   4.318 -0.0282 -0.2010 -0.7308
  915MOL0     C23439   4.394   7.206   4.311  0.0771  0.2077  0.0857
  915MOL0     N23440   3.512   6.915   4.032 -0.5042  0.2101 -0.4534
  915MOL0     N23441   3.452   6.805   4.026  0.4658  0.3483 -0.4209
  915MOL0     C23442   2.385   6.665   4.223 -0.7518  0.0788 -0.3531
  915MOL0     C23443   2.253   6.652   4.180  0.4096 -0.2833 -0.3325
  915MOL0     C23444   1.908   6.703   3.877 -0.8542 -0.2395  0.0750
  915MOL0     C23445   1.822   6.780   3.963 -0.6061 -0.0463 -0.4662
  915MOL0     C23446   1.689   6.810   3.925 -0.2999  0.1143  0.3230
  915MOL0     C23447   1.631   6.749   3.813  0.4139 -1.3251 -0.3570
  915MOL0     O23448   1.499   6.762   3.790 -0.0431 -0.6076 -0.5326
  915MOL0     C23449   1.429   6.713   3.679 -0.2131  0.5279 -0.2780
  915MOL0     C23450   1.284   6.756   3.692 -0.4912 -0.1010 -0.0534
  915MOL0     C23451   1.206   6.727   3.560  0.3970  0.4094  0.9499
  915MOL0     C23452   1.061   6.781   3.584 -1.2327  0.1607 -0.4894
  915MOL0     C23453   0.980   6.763   3.463  0.0607  0.5852 -0.0578
  915MOL0     C23454   0.921   6.739   3.363  0.1498  0.5664  0.0587
  915MOL0     C23455   1.712   6.666   3.732  0.0381 -1.8196 -0.1963
  915MOL0     C23456   1.847   6.645   3.762 -0.1844 -0.2213  0.5168
  915MOL0     C23457   1.923   6.548   3.667  0.2003 -1.7145  0.4164
  915MOL0     H23458   2.223   6.966   4.056 -0.4800  0.0554  0.7936
  915MOL0     H23459   2.451   6.989   4.142  1.9454 -0.8825 -1.3457
  915MOL0     H23460   2.641   6.637   4.360 -1.5048  1.8639  1.0115
  915MOL0     H23461   2.708   6.665   4.202 -1.5455  0.3295 -0.3831
  915MOL0     H23462   2.784   6.841   4.437 -0.4034  2.3331 -0.8751
  915MOL0     H23463   2.835   6.863   4.265  1.0142 -1.1182  0.4396
  915MOL0     H23464   2.959   6.691   4.241 -1.1067  0.3397 -0.6783
  915MOL0     H23465   2.889   6.621   4.399 -2.3587  1.3559 -0.8579
  915MOL0     H23466   3.047   6.872   4.383 -2.7140  0.3412 -2.0837
  915MOL0     H23467   2.988   6.784   4.530  1.8916 -2.3648  1.2552
  915MOL0     H23468   3.228   6.725   4.511 -1.5870 -1.8979  2.0464
  915MOL0     H23469   3.138   6.585   4.461  2.8058 -0.2744  0.7394
  915MOL0     H23470   3.168   6.652   4.218 -0.4213  1.6273 -0.1863
  915MOL0     H23471   3.264   6.785   4.275  1.3618 -0.8903 -0.3941
  915MOL0     H23472   3.348   6.505   4.340 -2.1083  0.2124  1.2580
  915MOL0     H23473   3.435   6.665   4.358 -0.0638 -1.3380  0.2664
  915MOL0     H23474   3.494   6.514   4.145  2.1230  0.9380  0.7714
  915MOL0     H23475   3.344   6.563   4.082 -0.7050 -0.1012  0.5807
  915MOL0     H23476   3.705   6.727   4.220 -0.1379  0.8635 -0.3105
  915MOL0     H23477   3.685   7.105   4.076 -1.9197  0.0967 -0.7275
  915MOL0     H23478   3.686   7.041   4.242  0.5662  0.6932 -0.0762
  915MOL0     H23479   3.903   6.898   4.162 -0.6646  1.3670  2.9340
  915MOL0     H23480   3.887   6.993   4.009  1.8882 -2.8775  0.0064
  915MOL0     H23481   3.924   7.095   4.284 -2.0510 -0.7284 -0.5216
  915MOL0     H23482   3.926   7.197   4.142  2.0830  0.1983 -1.8553
  915MOL0     H23483   4.112   7.066   4.050 -1.2874 -2.8198 -0.3643
  915MOL0     H23484   4.110   6.954   4.193  4.0190 -0.0374 -1.3611
  915MOL0     H23485   4.315   6.956   4.093 -3.2221  1.3791  0.4265
  915MOL0     H23486   4.557   6.923   4.117 -1.5148 -2.4567  2.3397
  915MOL0     H23487   4.945   6.925   4.363 -1.2727  0.5813  0.3904
  915MOL0     H23488   5.188   6.904   4.346 -1.3522 -0.8721 -2.7893
  915MOL0     H23489   5.530   7.182   4.264  2.2853  1.5717  1.9435
  915MOL0     H23490   5.400   7.299   4.246  3.5967  1.3703  0.3239
  915MOL0     H23491   5.395   7.277   4.509  0.6129 -0.0080 -0.3338
  915MOL0     H23492   5.548   7.183   4.483  0.9899 -0.0567 -1.8853
  915MOL0     H23493   5.537   7.457   4.361  1.1971  2.5824  1.7972
  915MOL0     H23494   5.523   7.460   4.526  2.5975 -0.4774  2.2953
  915MOL0     H23495   5.749   7.309   4.398  0.6266  0.9697 -0.5390
  915MOL0     H23496   5.714   7.322   4.573  2.0959  2.8103  0.8056
  915MOL0     H23497   5.787   7.549   4.398 -1.0756  1.1681  0.2816
  915MOL0     H23498   5.897   7.461   4.511 -0.6671  0.7682  1.9030
  915MOL0     H23499   5.684   7.661   4.582  1.1403  1.5955 -0.9345
  915MOL0     H23500   5.760   7.535   4.697 -0.9766  1.7286  0.5668
  915MOL0     H23501   5.840   7.794   4.641  1.5885  0.5891 -1.9320
  915MOL0     H23502   5.939   7.696   4.527  0.4473 -1.4264 -0.2632
  915MOL0     H23503   5.937   7.628   4.825 -0.6166 -1.6500 -1.8866
  915MOL0     H23504   6.035   7.564   4.700  0.9512 -0.2138  0.1042
  915MOL0     H23505   5.204   7.342   4.363 -2.2763  1.5065  0.4986
  915MOL0     H23506   4.957   7.351   4.356  3.0036  1.0203 -0.1956
  915MOL0     H23507   4.582   7.260   4.384 -0.3727 -0.8905  0.2832
  915MOL0     H23508   4.356   7.282   4.378  4.2634  1.8579  0.8733
  915MOL0     H23509   2.431   6.583   4.277 -2.0456 -0.8819 -0.6645
  915MOL0     H23510   2.195   6.561   4.198  0.9969 -1.0344 -2.0274
  915MOL0     H23511   1.858   6.834   4.050 -2.8941 -1.2623  1.3806
  915MOL0     H23512   1.626   6.872   3.988 -1.5912 -1.6103  0.7726
  915MOL0     H23513   1.432   6.604   3.677 -2.7234  0.3966 -1.4487
  915MOL0     H23514   1.482   6.754   3.592  0.4240  0.6683  0.1733
  915MOL0     H23515   1.282   6.863   3.712 -1.1117  0.1783 -1.4302
  915MOL0     H23516   1.248   6.695   3.775 -0.2509 -1.9637 -1.2368
  915MOL0     H23517   1.206   6.620   3.537  0.3078  0.2596  1.6187
  915MOL0     H23518   1.261   6.771   3.477 -1.1187 -0.4883 -0.5918
  915MOL0     H23519   1.031   6.709   3.660  1.7365 -1.2796 -0.5293
  915MOL0     H23520   1.054   6.886   3.617 -3.0352  0.8824 -2.8559
  915MOL0     H23521   0.870   6.709   3.273 -0.4555 -0.6896  0.7942
  915MOL0     H23522   1.665   6.621   3.645 -0.7433 -3.8515  1.2110
  915MOL0     H23523   2.009   6.599   3.622 -0.3545  1.8573  2.9352
  915MOL0     H23524   1.950   6.455   3.717  1.1301 -1.2504  0.8037
  915MOL0     H23525   1.866   6.517   3.579 -0.2991 -2.4212  0.9817
  916MOL0     O23526   0.296   8.306   6.884  0.1775  0.2533  0.3135
  916MOL0     C23527   0.360   8.373   6.806  0.6382  0.0534 -0.6579
  916MOL0     O23528   0.490   8.401   6.817 -0.2324  0.1638 -0.4234
  916MOL0     C23529   0.561   8.342   6.913 -0.3075 -1.3015  0.0846
  916MOL0     C23530   0.621   8.215   6.902  0.0126 -0.9518  0.2917
  916MOL0     C23531   0.682   8.159   7.010  0.5459  0.8863  0.0063
  916MOL0     C23532   0.700   8.233   7.126 -0.1343  0.3142 -0.1881
  916MOL0     O23533   0.764   8.171   7.230 -0.0606  0.1026  0.1672
  916MOL0     C23534   0.892   8.109   7.199  0.2175  0.0307  0.3467
  916MOL0     C23535   0.976   8.069   7.322  0.3675 -0.0202  0.8140
  916MOL0     C23536   0.884   8.000   7.424  0.2310 -0.2041 -0.1785
  916MOL0     C23537   0.961   7.923   7.543  0.8086 -1.5160  0.5316
  916MOL0     C23538   1.003   8.030   7.650 -0.5473  0.6022 -0.0243
  916MOL0     C23539   1.073   7.955   7.765 -0.3820 -0.4427  0.3180
  916MOL0     C23540   1.061   8.031   7.895  0.0554  0.2145  0.2279
  916MOL0     C23541   1.109   8.183   7.888  0.5899  0.7252 -0.5097
  916MOL0     N23542   1.257   8.173   7.865 -0.0357  0.1293 -0.2368
  916MOL0     C23543   1.351   8.191   7.967 -0.1805 -0.4322  1.1612
  916MOL0     C23544   1.467   8.224   7.895  0.3390 -0.1384  0.0938
  916MOL0     C23545   1.597   8.249   7.953  0.2022  0.0073  0.4787
  916MOL0     C23546   1.658   8.121   7.998  0.6357  0.0635  0.3017
  916MOL0     C23547   1.736   8.040   7.884 -0.4392 -0.1725 -0.4880
  916MOL0     C23548   1.846   7.956   7.957  0.0595 -0.2373  0.5529
  916MOL0     O23549   1.786   7.826   7.994 -0.2245  0.2107 -0.1628
  916MOL0     C23550   1.868   7.747   8.068 -0.4559  0.0778  0.8874
  916MOL0     C23551   1.822   7.618   8.092 -0.4999 -0.0915  0.1468
  916MOL0     C23552   1.900   7.532   8.172 -0.3154 -0.4024 -0.3511
  916MOL0     C23553   2.021   7.576   8.236  0.7684 -0.0285 -0.1725
  916MOL0     C23554   2.109   7.480   8.307 -0.4593 -0.1105  0.8214
  916MOL0     O23555   2.236   7.529   8.333 -0.3630 -0.4080  0.0316
  916MOL0     C23556   2.325   7.470   8.424  0.4362  0.1494 -0.3371
  916MOL0     C23557   2.458   7.464   8.399 -0.5732  0.2019 -0.4950
  916MOL0     C23558   2.547   7.431   8.498  0.1072 -0.2735 -0.5156
  916MOL0     C23559   2.505   7.386   8.620 -0.0204  0.0968 -0.4320
  916MOL0     O23560   2.604   7.349   8.713 -0.3213 -0.7479  0.1278
  916MOL0     C23561   2.571   7.230   8.778 -0.7023 -0.0147 -0.4061
  916MOL0     C23562   2.700   7.192   8.854  0.2253  0.5988 -0.2585
  916MOL0     C23563   2.716   7.265   8.986 -0.5073  0.3114 -0.4304
  916MOL0     C23564   2.770   7.177   9.100 -0.5164 -0.8339  0.1913
  916MOL0     C23565   2.789   7.242   9.239  0.2786 -0.1978 -0.3529
  916MOL0     C23566   2.651   7.255   9.302 -0.6127 -0.1707 -1.6187
  916MOL0     C23567   2.653   7.312   9.445 -0.2112 -0.0897 -0.1529
  916MOL0     C23568   2.499   7.342   9.476 -0.1404 -0.3330 -0.1950
  916MOL0    Cl23569   2.427   7.186   9.522  0.3855  0.4442  0.3274
  916MOL0     C23570   2.366   7.390   8.647 -0.4984  0.2063 -0.2860
  916MOL0     C23571   2.279   7.433   8.550 -0.1334 -0.4864 -0.4264
  916MOL0     O23572   2.068   7.371   8.345  0.7604  0.0132  0.2544
  916MOL0     C23573   2.060   7.704   8.210  0.3438  0.6254 -0.2558
  916MOL0     C23574   1.977   7.795   8.143  1.4515 -0.0884 -0.5638
  916MOL0     N23575   1.434   8.232   7.761  0.7726  0.2882 -0.2584
  916MOL0     N23576   1.310   8.197   7.743 -0.1099 -0.3281  0.2780
  916MOL0     C23577   0.652   8.362   7.143 -0.6838 -0.2249  0.9035
  916MOL0     C23578   0.582   8.424   7.036 -0.3832 -0.2227  0.5340
  916MOL0     C23579   0.291   8.445   6.694  0.8256 -0.7607 -0.5980
  916MOL0     C23580   0.335   8.572   6.650 -0.4356  0.9902  0.2830
  916MOL0     C23581   0.286   8.639   6.546 -0.2411 -0.7548  0.7634
  916MOL0     C23582   0.192   8.583   6.469  0.6795  0.0452  0.1812
  916MOL0     O23583   0.150   8.656   6.356  0.0375 -0.2448  0.3380
  916MOL0     C23584   0.019   8.632   6.309  0.0329  1.0766 -0.1980
  916MOL0     C23585  -0.020   8.755   6.230 -0.8967 -0.0966  0.3113
  916MOL0     C23586  -0.032   8.883   6.309  0.1699  0.7747  0.0323
  916MOL0     C23587  -0.079   9.001   6.222  0.7535 -0.2540  0.4830
  916MOL0     C23588  -0.144   9.115   6.300  0.6109  0.3495 -0.0121
  916MOL0     C23589  -0.204   9.192   6.370  0.1069  0.9572  0.2642
  916MOL0     C23590   0.127   8.464   6.513  0.1328 -0.2583  0.3189
  916MOL0     C23591   0.175   8.395   6.626  0.1678  0.0962 -0.5386
  916MOL0     C23592   0.102   8.277   6.670  0.4942  0.2016  0.0820
  916MOL0     H23593   0.600   8.164   6.809  2.6718 -0.4619 -0.6843
  916MOL0     H23594   0.702   8.053   7.002 -2.1683  0.2904  0.0183
  916MOL0     H23595   0.882   8.022   7.134 -2.9732  1.0390 -0.6969
  916MOL0     H23596   0.949   8.183   7.143  0.7816  0.7238  1.7851
  916MOL0     H23597   1.017   8.159   7.368  0.3739  0.7060 -0.5595
  916MOL0     H23598   1.065   8.011   7.298  3.4017  4.7360 -0.8105
  916MOL0     H23599   0.834   7.918   7.370 -1.3354  0.4826  0.1577
  916MOL0     H23600   0.808   8.067   7.466  3.3585  2.5963  1.5119
  916MOL0     H23601   0.884   7.862   7.591 -3.8011  3.0569 -0.1463
  916MOL0     H23602   1.047   7.869   7.503  1.7973  0.2736  0.1383
  916MOL0     H23603   1.077   8.092   7.599 -1.1155  1.3435  0.0391
  916MOL0     H23604   0.919   8.090   7.686  0.1572 -1.1699  5.5084
  916MOL0     H23605   1.021   7.859   7.770  1.2295 -1.5902 -2.7432
  916MOL0     H23606   1.174   7.928   7.732 -1.8261 -0.2203 -5.1258
  916MOL0     H23607   1.111   7.979   7.977 -0.9649  1.4386  1.6949
  916MOL0     H23608   0.954   8.034   7.920  0.2905 -0.8501  1.4770
  916MOL0     H23609   1.064   8.239   7.806 -2.1235 -0.2247  0.2158
  916MOL0     H23610   1.075   8.236   7.977  1.5919 -1.2962  1.1756
  916MOL0     H23611   1.340   8.183   8.075  0.3420 -2.5759  1.0901
  916MOL0     H23612   1.664   8.302   7.885  1.6858 -1.2818  0.8888
  916MOL0     H23613   1.579   8.307   8.044 -3.0539 -3.9938  2.7277
  916MOL0     H23614   1.737   8.158   8.065  0.7939  0.8841 -0.3225
  916MOL0     H23615   1.599   8.050   8.057  1.6751  0.6105  2.0863
  916MOL0     H23616   1.782   8.108   7.812 -1.5258  0.4044 -0.6626
  916MOL0     H23617   1.670   7.972   7.829 -0.3369  0.5421 -1.5152
  916MOL0     H23618   1.871   8.004   8.052  0.2572 -0.0730  0.4180
  916MOL0     H23619   1.934   7.932   7.896  1.7064 -0.3606  2.8336
  916MOL0     H23620   1.727   7.584   8.053  0.6475 -2.2816 -0.8945
  916MOL0     H23621   1.863   7.432   8.195  1.2071 -0.8409  0.2967
  916MOL0     H23622   2.494   7.516   8.310 -1.7986  2.6867  0.3603
  916MOL0     H23623   2.651   7.432   8.465  0.2900 -1.7116 -0.0239
  916MOL0     H23624   2.487   7.231   8.848  0.6920 -0.3214  1.3380
  916MOL0     H23625   2.555   7.152   8.703 -1.1428 -0.0804 -0.2474
  916MOL0     H23626   2.688   7.084   8.866  2.5149  0.1951 -1.1940
  916MOL0     H23627   2.790   7.194   8.793  0.5037 -0.8840  0.0663
  916MOL0     H23628   2.767   7.360   8.966  1.1793  0.0352  2.1713
  916MOL0     H23629   2.620   7.298   9.025  0.0500  2.8341 -1.0337
  916MOL0     H23630   2.866   7.130   9.075  0.2806  0.7088  0.2465
  916MOL0     H23631   2.690   7.103   9.111 -2.7454  1.3355 -0.6442
  916MOL0     H23632   2.849   7.333   9.229 -0.3369  0.0189 -2.8178
  916MOL0     H23633   2.844   7.173   9.304 -0.6226 -0.1780  0.4443
  916MOL0     H23634   2.582   7.310   9.237 -1.7077  0.5799  0.1123
  916MOL0     H23635   2.603   7.157   9.311 -0.7301  0.0512  0.6854
  916MOL0     H23636   2.703   7.409   9.451 -0.5426 -0.0160  2.0663
  916MOL0     H23637   2.705   7.239   9.507 -0.2227 -2.1995 -2.4558
  916MOL0     H23638   2.483   7.408   9.562  0.0718 -0.3313 -0.1546
  916MOL0     H23639   2.460   7.385   9.383  2.2004  0.0221 -1.1033
  916MOL0     H23640   2.323   7.367   8.744 -0.5508  1.4974  0.0077
  916MOL0     H23641   2.172   7.435   8.569 -0.4064  1.7429 -1.7862
  916MOL0     H23642   2.148   7.744   8.260  2.3751  0.2078 -3.2163
  916MOL0     H23643   2.004   7.898   8.125 -0.4531  0.3073 -1.4223
  916MOL0     H23644   0.664   8.412   7.238 -0.0295  0.2624  0.5650
  916MOL0     H23645   0.547   8.526   7.045  2.6840  0.9747  0.0581
  916MOL0     H23646   0.414   8.615   6.711  1.3571 -2.3516  0.5946
  916MOL0     H23647   0.324   8.739   6.525 -3.1772  0.7095  1.8300
  916MOL0     H23648  -0.051   8.626   6.393  2.9098 -1.0603  2.2505
  916MOL0     H23649   0.007   8.539   6.252  0.6149 -0.6030  2.2870
  916MOL0     H23650  -0.114   8.732   6.178 -0.9158 -1.9374  1.0873
  916MOL0     H23651   0.060   8.769   6.157  1.8267  1.5362  3.4034
  916MOL0     H23652   0.063   8.910   6.357  1.2645 -1.1447 -0.9321
  916MOL0     H23653  -0.100   8.865   6.392 -0.4355  2.0988 -0.1626
  916MOL0     H23654   0.005   9.050   6.172 -1.5102  2.0992 -1.2627
  916MOL0     H23655  -0.145   8.961   6.144  1.0419  1.1367 -0.5021
  916MOL0     H23656  -0.268   9.264   6.416 -0.6795  1.3439 -1.3768
  916MOL0     H23657   0.033   8.436   6.468 -1.3244 -0.5317  3.3127
  916MOL0     H23658   0.009   8.268   6.613  0.3797 -4.4244  0.6110
  916MOL0     H23659   0.160   8.189   6.642  0.7816  1.3259 -3.3201
  916MOL0     H23660   0.079   8.269   6.777  1.0302  0.3950  0.2137
  917MOL0     O23661   5.125   3.413   8.887  0.7267 -0.4618 -0.0728
  917MOL0     C23662   5.138   3.513   8.962  0.1728  0.6859 -0.4963
  917MOL0     O23663   5.251   3.576   8.997 -0.3085  0.0744  0.7711
  917MOL0     C23664   5.383   3.518   8.975 -0.1758  0.0573  0.3566
  917MOL0     C23665   5.417   3.404   8.902  0.0133  0.0989  0.3588
  917MOL0     C23666   5.546   3.349   8.887  0.2127 -1.0970  0.1127
  917MOL0     C23667   5.651   3.427   8.944  0.3156 -0.4802 -0.1497
  917MOL0     O23668   5.778   3.404   8.925  0.0344 -0.3529  0.6510
  917MOL0     C23669   5.819   3.343   8.796  0.2280 -0.3968  0.6266
  917MOL0     C23670   5.964   3.312   8.810 -0.2662 -0.1676  0.2325
  917MOL0     C23671   6.020   3.268   8.672  0.1372 -0.0345 -0.6342
  917MOL0     C23672   6.174   3.266   8.675  0.8097  0.4166 -0.5365
  917MOL0     C23673   6.225   3.251   8.536  0.2460 -0.7651 -0.7307
  917MOL0     C23674   6.382   3.279   8.530  0.0509  0.4506  0.6567
  917MOL0     C23675   6.460   3.154   8.578  0.1496 -0.6578  0.1872
  917MOL0     C23676   6.453   3.018   8.500 -0.4026 -0.1492  0.2509
  917MOL0     N23677   6.572   2.953   8.549 -0.0615  0.3080 -0.0590
  917MOL0     C23678   6.702   2.979   8.504 -0.3348  0.2615 -0.4343
  917MOL0     C23679   6.781   2.903   8.582 -0.1741  1.0232  0.4664
  917MOL0     C23680   6.930   2.875   8.566  0.5128  0.2779 -0.4693
  917MOL0     C23681   7.028   2.903   8.676  0.5632 -0.0416 -0.1655
  917MOL0     C23682   7.145   2.795   8.683  0.2300  1.2330 -0.0993
  917MOL0     C23683   7.285   2.839   8.712  0.0477  0.3040 -0.3880
  917MOL0     O23684   7.320   2.932   8.610  0.6330  0.3618  0.4106
  917MOL0     C23685   7.449   2.964   8.600 -1.0461 -0.2458  0.2050
  917MOL0     C23686   7.555   2.895   8.666 -0.7826  0.0102 -0.8703
  917MOL0     C23687   7.686   2.952   8.669 -0.0023 -0.2414 -0.1060
  917MOL0     C23688   7.713   3.064   8.589 -0.2557  0.0330 -0.1376
  917MOL0     C23689   7.849   3.118   8.593  0.5035  0.4777 -0.0529
  917MOL0     O23690   7.944   3.063   8.675  0.4008  0.5398  0.5920
  917MOL0     C23691   8.065   3.109   8.642  0.2375  0.4245  0.8801
  917MOL0     C23692   8.126   3.071   8.521  0.0489 -0.7796  0.5189
  917MOL0     C23693   8.252   3.128   8.496  0.3911  0.1465  0.8408
  917MOL0     C23694   8.316   3.206   8.586  0.1616  0.5448 -0.0147
  917MOL0     O23695   8.448   3.250   8.577  0.2044  0.0543 -0.2914
  917MOL0     C23696   8.546   3.169   8.507  0.0529  0.4160 -0.1103
  917MOL0     C23697   8.684   3.237   8.521 -0.4504  0.2929 -0.5608
  917MOL0     C23698   8.709   3.367   8.445  0.3291 -0.3118 -0.5172
  917MOL0     C23699   8.840   3.443   8.499  0.2239 -1.4366  0.1482
  917MOL0     C23700   8.976   3.382   8.471 -0.4888 -0.0354  0.2248
  917MOL0     C23701   9.083   3.467   8.545 -0.4842  0.8378 -0.2465
  917MOL0     C23702   9.229   3.406   8.543  0.1267  1.0871  0.4505
  917MOL0     C23703   9.262   3.320   8.671  0.2436 -0.1338  0.1564
  917MOL0    Cl23704   9.430   3.313   8.694  0.2815  0.3251 -0.0142
  917MOL0     C23705   8.262   3.227   8.717 -0.6888 -0.1792  0.7552
  917MOL0     C23706   8.131   3.189   8.739 -0.7539  0.0075 -0.0662
  917MOL0     O23707   7.871   3.209   8.513  0.7636  0.8239 -0.4320
  917MOL0     C23708   7.616   3.114   8.507  0.8420 -0.4387 -0.7566
  917MOL0     C23709   7.484   3.068   8.516 -0.0045  0.2926  0.3064
  917MOL0     N23710   6.699   2.822   8.663  0.0968 -0.1057 -0.7427
  917MOL0     N23711   6.575   2.862   8.651 -0.2947  0.5963 -0.1522
  917MOL0     C23712   5.624   3.545   9.014 -0.3692 -0.4400 -0.4290
  917MOL0     C23713   5.496   3.587   9.028 -0.0141 -0.3861 -0.5797
  917MOL0     C23714   5.019   3.584   9.015 -0.1570  0.4050  0.0423
  917MOL0     C23715   4.905   3.562   8.942  0.0919  0.2621  0.2286
  917MOL0     C23716   4.782   3.604   8.982 -0.1005  0.1466 -0.3157
  917MOL0     C23717   4.772   3.678   9.098 -0.0757  0.7240 -0.4212
  917MOL0     O23718   4.662   3.745   9.115 -0.4512 -1.0458 -0.1305
  917MOL0     C23719   4.590   3.717   9.241  0.4864  0.0960  0.0283
  917MOL0     C23720   4.478   3.820   9.262 -0.3579 -0.7049  0.4845
  917MOL0     C23721   4.527   3.955   9.292 -0.6927 -0.5439  0.8473
  917MOL0     C23722   4.424   4.063   9.284 -0.0613 -0.2596 -0.2627
  917MOL0     C23723   4.475   4.187   9.343  0.1925 -0.0821 -0.4535
  917MOL0     C23724   4.529   4.288   9.389 -0.4977  0.0140 -0.0840
  917MOL0     C23725   4.887   3.709   9.169  0.1000 -0.0357  0.4473
  917MOL0     C23726   5.017   3.668   9.126  0.4764  0.2046 -0.4534
  917MOL0     C23727   5.137   3.725   9.199  0.2123 -0.1042  0.2986
  917MOL0     H23728   5.341   3.338   8.859  0.6824 -0.1501 -0.4742
  917MOL0     H23729   5.553   3.260   8.826 -0.5693 -2.6102  2.1411
  917MOL0     H23730   5.757   3.257   8.771  0.0714 -0.1375  0.1176
  917MOL0     H23731   5.795   3.409   8.712  0.2861  0.2908  1.1396
  917MOL0     H23732   5.989   3.245   8.893 -0.5678  0.4132  0.8059
  917MOL0     H23733   6.009   3.409   8.834 -0.1680 -0.4332  1.1817
  917MOL0     H23734   5.990   3.340   8.596  2.7845 -0.3540 -2.1003
  917MOL0     H23735   5.978   3.170   8.645  0.2252 -0.8884  1.9865
  917MOL0     H23736   6.212   3.361   8.716  0.9237 -0.3344  1.1647
  917MOL0     H23737   6.206   3.185   8.741  0.6692  1.7725  1.2588
  917MOL0     H23738   6.202   3.162   8.476  2.1479 -2.0320  0.3262
  917MOL0     H23739   6.171   3.332   8.486  0.0441 -0.8828 -0.7047
  917MOL0     H23740   6.414   3.300   8.427  3.0094 -1.0633  1.1924
  917MOL0     H23741   6.412   3.372   8.579  2.7970  0.2215 -0.4134
  917MOL0     H23742   6.440   3.140   8.685  1.4483 -1.7263  0.3067
  917MOL0     H23743   6.566   3.179   8.567  0.3259 -2.2388 -2.4142
  917MOL0     H23744   6.362   2.963   8.526  0.3746 -1.4484  0.3467
  917MOL0     H23745   6.471   3.045   8.395  1.3098  2.0506  1.0401
  917MOL0     H23746   6.728   3.035   8.415 -1.9889  1.3022 -0.2919
  917MOL0     H23747   6.944   2.768   8.546  3.2874  0.9282 -2.5619
  917MOL0     H23748   6.978   2.911   8.475  0.2460 -0.2711 -0.8368
  917MOL0     H23749   7.082   2.995   8.654 -1.3679  1.0522 -0.5443
  917MOL0     H23750   6.974   2.908   8.771  1.9446  1.6233  0.5892
  917MOL0     H23751   7.160   2.759   8.581 -0.6618  2.0010 -0.5131
  917MOL0     H23752   7.118   2.721   8.758  1.0207  1.1571  0.1179
  917MOL0     H23753   7.345   2.750   8.691  0.1637  0.6471 -1.5750
  917MOL0     H23754   7.298   2.881   8.812  2.0967  0.8968 -0.8702
  917MOL0     H23755   7.539   2.804   8.722  3.1584  1.0924  2.4894
  917MOL0     H23756   7.764   2.899   8.722 -0.4011 -1.7168 -0.9282
  917MOL0     H23757   8.077   3.006   8.449  0.8358  1.2181 -2.0275
  917MOL0     H23758   8.308   3.105   8.406 -0.9853  1.7218 -0.5022
  917MOL0     H23759   8.554   3.071   8.555  0.5592  0.2007 -0.6242
  917MOL0     H23760   8.521   3.154   8.402  1.1136 -2.1352 -0.0702
  917MOL0     H23761   8.697   3.255   8.628  2.9168  1.4420 -1.0405
  917MOL0     H23762   8.763   3.165   8.502  0.8122  1.3310  0.5295
  917MOL0     H23763   8.733   3.351   8.339  4.9893  0.2886  0.2275
  917MOL0     H23764   8.628   3.432   8.479  0.4687 -1.2784  1.7710
  917MOL0     H23765   8.820   3.452   8.606  1.1226  5.8949  0.2125
  917MOL0     H23766   8.841   3.550   8.477  0.8055 -0.9102  2.4326
  917MOL0     H23767   9.016   3.371   8.370  0.3478  2.1548  0.2496
  917MOL0     H23768   8.967   3.281   8.511 -1.2132 -0.7344 -1.5863
  917MOL0     H23769   9.099   3.567   8.501  3.9123  0.5772  0.2841
  917MOL0     H23770   9.053   3.472   8.650 -0.4908 -1.5064 -0.0912
  917MOL0     H23771   9.303   3.486   8.531  0.9965  0.5016  1.7463
  917MOL0     H23772   9.227   3.336   8.459 -1.2796  0.5863  0.8756
  917MOL0     H23773   9.212   3.367   8.756 -1.1301 -1.7784  0.3142
  917MOL0     H23774   9.219   3.219   8.670 -0.8313  0.3061  0.2864
  917MOL0     H23775   8.330   3.264   8.793 -0.6053  0.5134  0.3584
  917MOL0     H23776   8.090   3.200   8.839 -0.3424 -1.7718  0.3375
  917MOL0     H23777   7.651   3.175   8.424  1.7348 -2.8556 -2.2413
  917MOL0     H23778   7.402   3.112   8.460 -2.3321 -3.2179  0.6344
  917MOL0     H23779   5.701   3.613   9.048  0.5681 -1.7174  0.0891
  917MOL0     H23780   5.481   3.689   9.064  0.6106 -1.5401  3.4231
  917MOL0     H23781   4.905   3.501   8.852 -0.3352  1.1060 -0.3544
  917MOL0     H23782   4.701   3.586   8.912 -1.0129  2.6033 -0.0029
  917MOL0     H23783   4.657   3.726   9.328  1.2601  0.8294 -0.6220
  917MOL0     H23784   4.542   3.619   9.243  0.9183 -0.1464  2.5304
  917MOL0     H23785   4.415   3.770   9.336 -1.8473 -0.8219 -0.8006
  917MOL0     H23786   4.415   3.825   9.172  0.0351 -0.8967  0.1986
  917MOL0     H23787   4.613   3.980   9.228 -0.7311 -0.9318  0.6389
  917MOL0     H23788   4.568   3.952   9.393  2.4589 -0.4906 -0.3110
  917MOL0     H23789   4.400   4.074   9.178 -0.1162  0.1284 -0.2105
  917MOL0     H23790   4.328   4.054   9.336  0.3769 -1.2706  0.4001
  917MOL0     H23791   4.569   4.383   9.420 -0.3510 -0.1700  0.2910
  917MOL0     H23792   4.893   3.762   9.264  3.5758  1.6077 -0.5455
  917MOL0     H23793   5.200   3.643   9.233  0.8156  1.2391  2.6390
  917MOL0     H23794   5.198   3.790   9.135 -0.8609  0.2670 -0.3681
  917MOL0     H23795   5.099   3.777   9.287  0.0021 -2.0000  1.3903
  918MOL0     O23796   1.170   2.273   4.189  0.7876 -0.6323  0.2406
  918MOL0     C23797   1.175   2.200   4.290  0.3488  0.1023 -0.4069
  918MOL0     O23798   1.285   2.141   4.348  0.2223 -0.0877 -0.3098
  918MOL0     C23799   1.415   2.188   4.321 -0.1571  1.3065 -0.0706
  918MOL0     C23800   1.508   2.090   4.347 -0.2862  0.4629  0.3088
  918MOL0     C23801   1.643   2.111   4.321  0.9488 -0.3242  0.2358
  918MOL0     C23802   1.675   2.230   4.257 -0.3974 -0.5865 -0.6064
  918MOL0     O23803   1.807   2.243   4.236  0.3734  0.5336  0.2407
  918MOL0     C23804   1.867   2.368   4.280 -0.6773  1.4445 -0.6591
  918MOL0     C23805   2.011   2.339   4.315  0.2265  0.3984 -0.1299
  918MOL0     C23806   2.099   2.324   4.185  0.3652  0.3007 -0.8709
  918MOL0     C23807   2.247   2.300   4.222 -0.3066 -0.0088  0.6261
  918MOL0     C23808   2.326   2.315   4.089  0.6363 -0.5747  0.3083
  918MOL0     C23809   2.468   2.270   4.103 -0.5912  1.0180  0.0691
  918MOL0     C23810   2.553   2.321   3.991 -0.2162 -0.5088 -0.2391
  918MOL0     C23811   2.697   2.292   4.017  0.5226  0.2446 -0.0438
  918MOL0     N23812   2.790   2.377   3.939  0.7351 -0.4941  0.3365
  918MOL0     C23813   2.785   2.513   3.915 -0.0540  0.7321  0.1237
  918MOL0     C23814   2.900   2.543   3.841  0.3527  0.0872  0.1862
  918MOL0     C23815   2.930   2.683   3.798 -0.6924  0.8783 -0.2131
  918MOL0     C23816   3.017   2.751   3.899 -0.0750 -0.0377 -0.7109
  918MOL0     C23817   3.090   2.876   3.830 -0.5163 -0.4225 -0.0108
  918MOL0     C23818   3.138   2.972   3.943 -0.8310  0.0775 -0.5578
  918MOL0     O23819   3.236   2.911   4.033 -0.8500  0.0740 -0.1700
  918MOL0     C23820   3.327   3.003   4.089 -0.1851  1.1227  0.6261
  918MOL0     C23821   3.434   2.954   4.164  0.1841  0.7400  0.4679
  918MOL0     C23822   3.510   3.035   4.243  0.4266 -0.0773  1.0593
  918MOL0     C23823   3.489   3.172   4.241  0.4361  0.2466 -0.3952
  918MOL0     C23824   3.587   3.264   4.325  0.2335  0.2242  1.0445
  918MOL0     O23825   3.597   3.393   4.272  0.0986 -0.2023  0.1768
  918MOL0     C23826   3.686   3.474   4.330 -0.5773  0.3110 -0.8923
  918MOL0     C23827   3.784   3.529   4.253 -0.4663  0.4682 -0.4315
  918MOL0     C23828   3.874   3.623   4.313  0.4590  0.6087  0.0657
  918MOL0     C23829   3.859   3.663   4.443 -0.0371 -0.3447  0.1133
  918MOL0     O23830   3.939   3.761   4.494  0.3186  0.2577 -0.6407
  918MOL0     C23831   4.003   3.741   4.623  0.0207 -0.0502 -0.0538
  918MOL0     C23832   4.025   3.878   4.693  0.2576 -0.8110  0.1251
  918MOL0     C23833   4.115   3.979   4.602 -0.2722  0.3641  0.9198
  918MOL0     C23834   4.110   4.128   4.637 -0.0684  1.6579  0.5660
  918MOL0     C23835   4.218   4.210   4.569  0.1602 -0.6513 -0.4512
  918MOL0     C23836   4.179   4.235   4.422  0.0082 -0.3577 -0.3660
  918MOL0     C23837   4.282   4.328   4.346  0.0851  0.1080  0.3394
  918MOL0     C23838   4.255   4.332   4.195 -0.7022  0.1495 -0.2079
  918MOL0    Cl23839   4.104   4.415   4.170  0.0361 -0.1456 -0.4799
  918MOL0     C23840   3.757   3.599   4.517 -0.2997 -0.3082  0.3150
  918MOL0     C23841   3.677   3.505   4.462 -1.2632  0.3416 -1.4908
  918MOL0     O23842   3.655   3.213   4.411  0.4710 -0.7276 -0.5318
  918MOL0     C23843   3.386   3.230   4.165 -0.5019 -0.4313  0.0887
  918MOL0     C23844   3.305   3.147   4.078  0.6379  0.1913  0.5979
  918MOL0     N23845   2.978   2.435   3.845  0.0416  0.2272  0.3118
  918MOL0     N23846   2.915   2.338   3.902 -0.3790 -0.0578  0.3524
  918MOL0     C23847   1.582   2.330   4.221 -0.3485  0.8099  0.0863
  918MOL0     C23848   1.451   2.311   4.262  0.5739  0.6833  0.6307
  918MOL0     C23849   1.047   2.167   4.363 -0.5394  0.0625 -0.8880
  918MOL0     C23850   0.930   2.169   4.291 -0.8939  0.5793  0.1221
  918MOL0     C23851   0.810   2.145   4.352 -0.7330 -0.4837  0.0359
  918MOL0     C23852   0.802   2.120   4.482  0.6969  1.0391  0.1385
  918MOL0     O23853   0.676   2.105   4.535  0.2043  0.2438  0.2555
  918MOL0     C23854   0.657   2.077   4.669 -0.4142  0.2867 -0.1565
  918MOL0     C23855   0.692   1.930   4.711  0.5457  0.4809 -0.3955
  918MOL0     C23856   0.579   1.832   4.662  0.2060 -0.3224  0.4364
  918MOL0     C23857   0.616   1.683   4.699  0.3735  0.5719  0.9563
  918MOL0     C23858   0.503   1.600   4.653  0.9513  0.7064  0.2595
  918MOL0     C23859   0.404   1.533   4.620 -0.2106 -0.7198 -0.0889
  918MOL0     C23860   0.920   2.113   4.556  0.1631 -0.0516  0.0959
  918MOL0     C23861   1.039   2.142   4.500 -0.4448  0.2791  0.1750
  918MOL0     C23862   1.157   2.140   4.591 -0.3937 -0.0871  0.0389
  918MOL0     H23863   1.488   1.997   4.399  1.3071  0.0764  0.2629
  918MOL0     H23864   1.721   2.044   4.356  2.5797  0.8068 -1.0768
  918MOL0     H23865   1.865   2.444   4.201  3.4953  1.2219 -1.1710
  918MOL0     H23866   1.815   2.413   4.366 -0.7618  0.5013 -0.2063
  918MOL0     H23867   2.009   2.252   4.382  0.7978 -0.4420 -1.1655
  918MOL0     H23868   2.048   2.421   4.377 -1.0929  3.4678 -3.0989
  918MOL0     H23869   2.083   2.420   4.136 -0.7248  0.3619 -0.4292
  918MOL0     H23870   2.070   2.243   4.118  3.7157  0.0322 -2.1948
  918MOL0     H23871   2.290   2.375   4.289  2.1624 -0.7461 -0.0306
  918MOL0     H23872   2.258   2.195   4.253 -1.7191 -0.7762 -1.2297
  918MOL0     H23873   2.274   2.258   4.012 -3.0860  1.7656  0.8033
  918MOL0     H23874   2.319   2.423   4.070 -0.0233 -1.0901 -2.8730
  918MOL0     H23875   2.515   2.310   4.193 -1.5846 -0.2700  1.2027
  918MOL0     H23876   2.468   2.161   4.099  0.5820  1.0494 -3.0605
  918MOL0     H23877   2.530   2.428   3.981  1.7938  0.3082  2.5611
  918MOL0     H23878   2.520   2.276   3.897  1.2856 -0.5060 -0.8027
  918MOL0     H23879   2.734   2.310   4.119  2.9715  2.7106 -1.2396
  918MOL0     H23880   2.699   2.188   3.985 -1.6547  0.3053 -0.5621
  918MOL0     H23881   2.704   2.584   3.926  0.0975  1.3382 -2.1897
  918MOL0     H23882   2.990   2.670   3.708 -0.5071  0.1700  0.0119
  918MOL0     H23883   2.835   2.732   3.771 -0.2209  2.8528  1.4649
  918MOL0     H23884   2.956   2.795   3.979  1.2590 -0.8055  0.8012
  918MOL0     H23885   3.092   2.685   3.943  0.5917 -0.6621 -2.6847
  918MOL0     H23886   3.010   2.919   3.770  0.6183 -0.3441 -1.5363
  918MOL0     H23887   3.179   2.842   3.776  1.3511  0.4862  2.3097
  918MOL0     H23888   3.060   3.007   4.011 -1.1850 -2.5948  0.5103
  918MOL0     H23889   3.179   3.058   3.888  0.2375  1.4904  2.2296
  918MOL0     H23890   3.449   2.846   4.161  0.7142  0.7989  0.9188
  918MOL0     H23891   3.596   2.989   4.290  0.7372 -0.4271  0.1647
  918MOL0     H23892   3.781   3.502   4.148  1.5346  1.1148 -0.6982
  918MOL0     H23893   3.942   3.669   4.242 -0.3751  0.7252 -0.6820
  918MOL0     H23894   3.951   3.678   4.696 -1.9144  2.4152  0.8230
  918MOL0     H23895   4.101   3.700   4.597 -0.2710 -1.0892  0.4181
  918MOL0     H23896   3.932   3.924   4.726  1.0132  0.2674  0.8302
  918MOL0     H23897   4.075   3.873   4.790  0.9732  1.4292 -0.0587
  918MOL0     H23898   4.219   3.947   4.613 -0.6241 -0.8207  0.9821
  918MOL0     H23899   4.093   3.964   4.496 -0.0261  2.2903  0.5615
  918MOL0     H23900   4.130   4.137   4.744 -1.1564  1.7783  0.7683
  918MOL0     H23901   4.007   4.157   4.614 -1.3519 -0.9229  2.5988
  918MOL0     H23902   4.315   4.163   4.583  1.6775  2.2962 -0.1879
  918MOL0     H23903   4.220   4.307   4.620  1.2781 -1.2536  0.7192
  918MOL0     H23904   4.180   4.133   4.381 -1.5937 -0.8707  0.7627
  918MOL0     H23905   4.087   4.294   4.427 -0.1840 -0.5853 -1.1318
  918MOL0     H23906   4.383   4.290   4.363  0.5601  1.3890  0.4593
  918MOL0     H23907   4.282   4.427   4.391 -1.1963 -0.7481  2.3601
  918MOL0     H23908   4.320   4.393   4.133  1.1926 -0.3332  1.2056
  918MOL0     H23909   4.258   4.232   4.150 -0.8720  0.3732 -0.7197
  918MOL0     H23910   3.755   3.620   4.624  1.2685  0.7571  0.1756
  918MOL0     H23911   3.603   3.455   4.524  0.2850  1.1691  1.2100
  918MOL0     H23912   3.377   3.338   4.168  0.6529 -0.2357 -1.8409
  918MOL0     H23913   3.234   3.201   4.014 -0.0982  1.8441  2.6817
  918MOL0     H23914   1.620   2.417   4.168  2.5894 -2.1864 -3.2985
  918MOL0     H23915   1.376   2.379   4.223 -0.7690 -1.2349 -0.2428
  918MOL0     H23916   0.940   2.182   4.184  1.4879 -1.7559 -0.0555
  918MOL0     H23917   0.717   2.149   4.296 -0.7955 -0.4353  0.1421
  918MOL0     H23918   0.562   2.106   4.714  0.5696  4.0283 -0.1702
  918MOL0     H23919   0.723   2.145   4.724 -2.0055  2.0707 -0.3624
  918MOL0     H23920   0.688   1.927   4.821  1.3892  2.7046 -0.2475
  918MOL0     H23921   0.792   1.898   4.680  0.7787 -0.6080  1.3189
  918MOL0     H23922   0.579   1.835   4.552 -3.1345 -0.4787  0.3569
  918MOL0     H23923   0.481   1.861   4.700  0.1647  1.1411 -0.6882
  918MOL0     H23924   0.713   1.662   4.655 -0.3293 -0.7449 -0.0480
  918MOL0     H23925   0.621   1.662   4.806  0.5667 -0.8334  0.6972
  918MOL0     H23926   0.319   1.480   4.582  0.6778 -1.6649 -0.8025
  918MOL0     H23927   0.924   2.105   4.664  0.4127  4.4901  0.6240
  918MOL0     H23928   1.128   2.125   4.695  2.2489 -0.2262  0.8338
  918MOL0     H23929   1.234   2.068   4.560  1.4224  1.5526  0.4961
  918MOL0     H23930   1.205   2.238   4.588  0.4079 -0.4823 -0.4424
  919MOL0     O23931   9.519   8.779  10.586  0.0625 -0.4858 -0.3224
  919MOL0     C23932   9.588   8.702  10.649  0.1505 -0.6414 -0.5052
  919MOL0     O23933   9.555   8.570  10.666  0.1008  0.1097 -0.3706
  919MOL0     C23934   9.436   8.515  10.627  0.2939  0.6529 -0.2951
  919MOL0     C23935   9.402   8.397  10.703  0.0012  0.4874 -0.1489
  919MOL0     C23936   9.286   8.330  10.684  0.3195 -0.1343 -0.0480
  919MOL0     C23937   9.205   8.366  10.584  0.7384 -0.4374 -0.9855
  919MOL0     O23938   9.098   8.289  10.562  0.0520  0.4498  0.3051
  919MOL0     C23939   9.076   8.248  10.425 -0.2083  1.0999  0.8548
  919MOL0     C23940   8.929   8.218  10.411 -0.3872  0.0213  0.6018
  919MOL0     C23941   8.894   8.198  10.259 -0.4837  0.7859 -0.2073
  919MOL0     C23942   8.961   8.071  10.199 -0.3961 -0.2883  0.1756
  919MOL0     C23943   8.975   8.065  10.043  0.1161  0.6036 -0.1482
  919MOL0     C23944   9.016   7.926  10.003 -0.9316 -0.4194  0.1119
  919MOL0     C23945   9.094   7.908   9.870 -0.2475 -0.1577  0.0887
  919MOL0     C23946   9.008   7.950   9.753 -0.4344 -0.3004  0.0903
  919MOL0     N23947   8.889   7.863   9.726 -0.0957 -0.4439  0.0701
  919MOL0     C23948   8.897   7.739   9.666  0.5915 -0.2838  0.6112
  919MOL0     C23949   8.770   7.692   9.657 -0.2413 -0.4060  0.3487
  919MOL0     C23950   8.717   7.577   9.574 -0.4584  0.3886 -1.1635
  919MOL0     C23951   8.748   7.584   9.422 -0.1471 -0.1787 -0.3169
  919MOL0     C23952   8.690   7.722   9.370 -0.9621  0.3061 -0.0421
  919MOL0     C23953   8.707   7.736   9.220 -0.3309  0.3610  0.9553
  919MOL0     O23954   8.845   7.710   9.181 -0.2131  0.5788 -0.4291
  919MOL0     C23955   8.953   7.779   9.234 -0.4701  0.0405  0.0810
  919MOL0     C23956   8.937   7.910   9.288  0.5271  0.2088  0.0709
  919MOL0     C23957   9.043   7.977   9.347  0.2771 -0.2535  0.1881
  919MOL0     C23958   9.173   7.923   9.362  0.6010  0.4215  0.4512
  919MOL0     C23959   9.278   7.997   9.426 -0.8366  0.5841 -0.2934
  919MOL0     O23960   9.410   7.950   9.409  0.2928  0.1468 -0.2502
  919MOL0     C23961   9.513   8.013   9.479  0.2209 -0.6593  0.2757
  919MOL0     C23962   9.548   8.150   9.469 -0.0462 -0.1734 -0.2368
  919MOL0     C23963   9.657   8.202   9.541  0.2978  0.6788 -0.2985
  919MOL0     C23964   9.747   8.111   9.600  0.3380  0.0861 -0.3451
  919MOL0     O23965   9.862   8.150   9.671 -0.2044 -0.2253  0.1628
  919MOL0     C23966   9.952   8.237   9.600  0.7278 -0.3583  0.6424
  919MOL0     C23967  10.010   8.171   9.470  0.4174 -0.5911 -1.3684
  919MOL0     C23968  10.161   8.201   9.446 -0.0536  0.1800 -0.2903
  919MOL0     C23969  10.178   8.345   9.411 -0.0928  0.3116 -0.4129
  919MOL0     C23970  10.336   8.368   9.388 -0.2158  0.3065  0.0332
  919MOL0     C23971  10.362   8.502   9.314  0.8377  0.2200 -0.6111
  919MOL0     C23972  10.505   8.532   9.265 -0.4155  0.2972 -0.5190
  919MOL0     C23973  10.611   8.512   9.376  0.0227 -0.0698  0.8781
  919MOL0    Cl23974  10.771   8.547   9.328  0.3001 -0.7613  0.1266
  919MOL0     C23975   9.718   7.975   9.591 -0.2050  0.6617 -0.8281
  919MOL0     C23976   9.609   7.924   9.531  0.3792 -0.1725 -0.4209
  919MOL0     O23977   9.247   8.091   9.494 -0.5812 -0.4421  0.3791
  919MOL0     C23978   9.191   7.802   9.294  0.6029  0.0066 -0.2174
  919MOL0     C23979   9.084   7.735   9.230 -0.0938  0.2130  0.6954
  919MOL0     N23980   8.689   7.789   9.711 -0.5377  0.0105  0.3707
  919MOL0     N23981   8.761   7.889   9.762 -0.4156  0.0532  0.6752
  919MOL0     C23982   9.225   8.487  10.519  0.5954  0.1013  0.0339
  919MOL0     C23983   9.340   8.555  10.537  0.0076  0.1458 -0.1830
  919MOL0     C23984   9.721   8.759  10.696 -0.0188 -0.0322 -0.1741
  919MOL0     C23985   9.821   8.664  10.712 -0.8953  0.5186  0.4300
  919MOL0     C23986   9.952   8.702  10.738  0.8842  0.8074 -0.0989
  919MOL0     C23987   9.987   8.837  10.761  0.7066  0.3444  0.6651
  919MOL0     O23988  10.105   8.890  10.801  0.6958 -1.1423 -0.4833
  919MOL0     C23989  10.217   8.815  10.819 -0.1928  0.0504  0.4101
  919MOL0     C23990  10.298   8.776  10.692  1.1393  0.3429  0.6292
  919MOL0     C23991  10.363   8.889  10.608 -0.3168  0.7657  0.4407
  919MOL0     C23992  10.472   8.960  10.688 -0.1209  0.8680  0.4821
  919MOL0     C23993  10.544   9.052  10.601  0.2528  0.3610 -0.0646
  919MOL0     C23994  10.608   9.125  10.528 -0.5763 -0.5865 -1.4040
  919MOL0     C23995   9.890   8.929  10.755  0.0429 -0.1492  0.1976
  919MOL0     C23996   9.761   8.895  10.710  0.0915 -0.7749  0.5824
  919MOL0     C23997   9.669   9.007  10.674 -0.3615  0.4038 -0.4305
  919MOL0     H23998   9.475   8.359  10.774 -0.0003  0.6652 -0.0524
  919MOL0     H23999   9.268   8.236  10.734 -0.3618 -1.8448 -3.2526
  919MOL0     H24000   9.119   8.313  10.348  3.2090 -1.2799  0.5550
  919MOL0     H24001   9.136   8.159  10.406 -0.0145  0.9629  2.0268
  919MOL0     H24002   8.869   8.298  10.453  2.0927  0.2784  4.0548
  919MOL0     H24003   8.905   8.130  10.470 -2.2790  0.5729  0.7162
  919MOL0     H24004   8.924   8.291  10.210 -0.1581  0.1604 -1.2346
  919MOL0     H24005   8.785   8.193  10.254 -0.4130 -2.5187 -1.5887
  919MOL0     H24006   9.062   8.058  10.239 -0.1230  1.7748  0.2497
  919MOL0     H24007   8.898   7.985  10.223 -1.1608  0.6492  1.6950
  919MOL0     H24008   8.877   8.079   9.996  1.3135  1.1380 -2.6292
  919MOL0     H24009   9.047   8.139  10.006 -1.0710  1.0085 -1.7253
  919MOL0     H24010   9.075   7.879  10.082 -0.9105  2.1872  1.7814
  919MOL0     H24011   8.924   7.869   9.994  0.2943 -2.5531  0.5144
  919MOL0     H24012   9.115   7.801   9.858  0.8617  0.1261 -0.6641
  919MOL0     H24013   9.193   7.954   9.861 -0.0475 -0.8380 -1.5478
  919MOL0     H24014   8.967   8.049   9.770  1.5274  0.7563 -0.9907
  919MOL0     H24015   9.077   7.970   9.671 -0.0972  2.1529  0.9113
  919MOL0     H24016   8.988   7.690   9.632  0.7475 -0.3411  1.1110
  919MOL0     H24017   8.765   7.489   9.616  1.4325  0.7509 -2.4159
  919MOL0     H24018   8.609   7.565   9.587 -0.2433  0.5792  1.1438
  919MOL0     H24019   8.854   7.570   9.400 -0.2587  0.5846 -1.4236
  919MOL0     H24020   8.705   7.503   9.362  0.6188 -0.9297  0.1178
  919MOL0     H24021   8.747   7.804   9.414  0.2321 -0.4593 -0.1202
  919MOL0     H24022   8.587   7.731   9.405 -1.4843 -1.9717 -0.7833
  919MOL0     H24023   8.678   7.828   9.170  1.9208 -0.7966 -2.9385
  919MOL0     H24024   8.643   7.657   9.179  0.8084 -0.0246 -0.1586
  919MOL0     H24025   8.837   7.951   9.285  1.0024  1.5350  1.3758
  919MOL0     H24026   9.013   8.068   9.397  0.1824  0.0246 -0.3589
  919MOL0     H24027   9.484   8.231   9.436 -1.6788  0.2948  3.6271
  919MOL0     H24028   9.679   8.308   9.550  3.9228  0.3682 -2.9782
  919MOL0     H24029   9.908   8.332   9.569 -1.5051 -1.5190  0.0970
  919MOL0     H24030  10.028   8.253   9.678  2.1674  0.4452 -0.8458
  919MOL0     H24031   9.998   8.065   9.491  1.8062  0.1064  4.9678
  919MOL0     H24032   9.956   8.192   9.377 -3.5437  0.6645  0.9835
  919MOL0     H24033  10.211   8.174   9.540 -2.9299  1.1053  1.6419
  919MOL0     H24034  10.195   8.130   9.370  0.6403 -0.7919  0.8797
  919MOL0     H24035  10.149   8.396   9.503 -2.9297 -0.5284 -0.7506
  919MOL0     H24036  10.126   8.374   9.319  2.5726  1.1429 -1.7452
  919MOL0     H24037  10.377   8.291   9.323  0.8959 -0.1898  1.2906
  919MOL0     H24038  10.388   8.375   9.484  0.8198  0.2485 -0.5121
  919MOL0     H24039  10.299   8.511   9.225  0.7937  0.5940 -0.5422
  919MOL0     H24040  10.327   8.574   9.389  1.7678 -1.9484  2.0970
  919MOL0     H24041  10.526   8.633   9.231  2.1672  1.0769  2.8033
  919MOL0     H24042  10.529   8.472   9.177  1.3463  0.6398 -0.3098
  919MOL0     H24043  10.593   8.570   9.467  0.7700  1.6582 -0.0259
  919MOL0     H24044  10.610   8.405   9.399  0.3486 -0.9093 -2.4880
  919MOL0     H24045   9.785   7.901   9.634  1.2582  1.0526 -2.3341
  919MOL0     H24046   9.585   7.818   9.531  0.0062 -0.3253  4.2574
  919MOL0     H24047   9.291   7.761   9.304  0.6917  0.4201  0.6713
  919MOL0     H24048   9.112   7.638   9.191 -1.4703 -0.0618  0.3315
  919MOL0     H24049   9.145   8.519  10.454 -1.4906  1.9717  3.2207
  919MOL0     H24050   9.365   8.634  10.467 -0.6233 -1.3893 -2.2319
  919MOL0     H24051   9.799   8.558  10.705 -0.3781  0.4408 -0.1633
  919MOL0     H24052  10.029   8.626  10.730  0.7551  0.4693  1.5653
  919MOL0     H24053  10.189   8.723  10.871 -1.8017 -0.6358 -1.5217
  919MOL0     H24054  10.284   8.865  10.890 -0.0952  0.9124 -0.2822
  919MOL0     H24055  10.225   8.724  10.631 -0.0280  0.2140  2.0671
  919MOL0     H24056  10.381   8.707  10.709  0.3071 -1.0213 -0.7174
  919MOL0     H24057  10.283   8.956  10.575 -1.7138 -0.3154  1.5214
  919MOL0     H24058  10.412   8.847  10.520 -0.0442 -0.5776  1.2035
  919MOL0     H24059  10.432   9.010  10.776 -2.0474 -0.9720  0.7295
  919MOL0     H24060  10.544   8.886  10.725 -1.7564 -0.1927  1.6447
  919MOL0     H24061  10.662   9.189  10.461  0.4517 -2.0216 -1.9943
  919MOL0     H24062   9.919   9.032  10.773 -0.3301 -0.1667  0.9363
  919MOL0     H24063   9.567   8.975  10.699  0.0747  0.1161  1.1197
  919MOL0     H24064   9.688   9.094  10.737  0.7453 -0.2296  0.1429
  919MOL0     H24065   9.683   9.040  10.571 -0.3200  1.9366  0.0496
  920MOL0     O24066   1.174  11.219   1.326 -0.2479  0.1441 -0.6689
  920MOL0     C24067   1.165  11.258   1.210  0.0599  0.4126  0.5846
  920MOL0     O24068   1.262  11.286   1.127  0.0198 -0.6064 -0.4334
  920MOL0     C24069   1.390  11.288   1.168  0.2350  0.2912  0.3994
  920MOL0     C24070   1.440  11.174   1.223  0.2426 -0.3432  0.1412
  920MOL0     C24071   1.569  11.181   1.266 -0.2552 -0.6238  0.0621
  920MOL0     C24072   1.656  11.290   1.247  0.4310 -0.6967  0.1886
  920MOL0     O24073   1.781  11.271   1.296  0.4732 -0.1418  0.2514
  920MOL0     C24074   1.881  11.350   1.229 -0.2850  0.2720 -0.0511
  920MOL0     C24075   2.023  11.318   1.275 -0.2170  0.5642 -0.0133
  920MOL0     C24076   2.132  11.406   1.221 -0.1390  0.0962  0.1461
  920MOL0     C24077   2.271  11.356   1.274 -0.0490 -0.2873  0.3709
  920MOL0     C24078   2.331  11.441   1.388 -0.1038  0.0976  0.6677
  920MOL0     C24079   2.472  11.413   1.431 -0.1893 -0.2667 -0.2429
  920MOL0     C24080   2.559  11.502   1.343 -0.4599  0.2577  0.0923
  920MOL0     C24081   2.705  11.470   1.378  0.6991 -0.1686  0.2725
  920MOL0     N24082   2.789  11.539   1.278  0.7099 -0.0064  0.0624
  920MOL0     C24083   2.782  11.669   1.245 -0.2434 -0.1008  0.0563
  920MOL0     C24084   2.864  11.685   1.144  0.4615  0.2148 -0.2079
  920MOL0     C24085   2.886  11.809   1.063 -0.1440 -0.9578  0.8149
  920MOL0     C24086   3.041  11.823   1.022 -0.9016  0.2907  0.0672
  920MOL0     C24087   3.064  11.966   0.966 -0.3801  0.6158  1.4532
  920MOL0     C24088   3.208  12.000   0.939 -0.1476  0.3609  1.1354
  920MOL0     O24089   3.308  11.966   1.037 -0.4726 -0.6510  0.2957
  920MOL0     C24090   3.441  11.982   1.018  0.7643 -0.4667 -0.2775
  920MOL0     C24091   3.497  12.052   0.913  0.0632  0.2216  0.9332
  920MOL0     C24092   3.636  12.057   0.898 -0.1291 -0.2588  0.1880
  920MOL0     C24093   3.720  11.978   0.982  0.1307 -0.1582  0.1771
  920MOL0     C24094   3.861  11.952   0.950 -0.1816 -0.6372 -0.9210
  920MOL0     O24095   3.933  11.873   1.034 -0.5741  0.2949 -0.1434
  920MOL0     C24096   4.062  11.818   1.005  0.3334 -0.6045  0.1017
  920MOL0     C24097   4.106  11.783   0.874 -0.8498  0.3688 -0.0977
  920MOL0     C24098   4.226  11.715   0.851  0.4213 -0.6746 -0.0619
  920MOL0     C24099   4.316  11.704   0.956 -0.1240 -0.2707 -0.3591
  920MOL0     O24100   4.438  11.647   0.920 -0.4534 -0.5231 -0.0215
  920MOL0     C24101   4.530  11.628   1.031  0.3164  0.0733 -0.0748
  920MOL0     C24102   4.661  11.592   0.965 -0.3420 -0.2075 -0.8957
  920MOL0     C24103   4.732  11.708   0.899 -0.2647 -0.3268  1.0983
  920MOL0     C24104   4.855  11.669   0.807  0.2873  0.5100 -0.5498
  920MOL0     C24105   4.903  11.782   0.718 -0.6024 -0.1349  0.7328
  920MOL0     C24106   5.000  11.725   0.600 -0.4227  0.3783  0.1854
  920MOL0     C24107   5.079  11.834   0.520  0.3278 -0.1423  0.8984
  920MOL0     C24108   5.207  11.781   0.459 -0.7207 -0.0109  0.2416
  920MOL0    Cl24109   5.299  11.912   0.359 -0.2929 -0.1550  0.2229
  920MOL0     C24110   4.273  11.731   1.091 -0.9330  0.0426  0.2877
  920MOL0     C24111   4.146  11.789   1.118  1.5982  0.2833  0.1870
  920MOL0     O24112   3.916  12.004   0.857  0.7753 -0.6845  0.3167
  920MOL0     C24113   3.665  11.922   1.094  0.5031  1.1431 -0.6660
  920MOL0     C24114   3.532  11.916   1.111  1.3573 -0.5588  0.0851
  920MOL0     N24115   2.918  11.552   1.124 -0.5115  0.4353 -0.6392
  920MOL0     N24116   2.884  11.471   1.214  0.5218  0.4375  0.5275
  920MOL0     C24117   1.593  11.408   1.195 -0.1437  0.5212 -0.2870
  920MOL0     C24118   1.458  11.413   1.160 -0.3505  0.2144  0.5097
  920MOL0     C24119   1.027  11.256   1.153 -0.3562  1.0674  0.2047
  920MOL0     C24120   0.978  11.367   1.085  0.0972 -0.8053 -0.3551
  920MOL0     C24121   0.853  11.376   1.031 -0.9211  0.2555 -0.1111
  920MOL0     C24122   0.776  11.263   1.018 -1.3047  0.3040  0.4262
  920MOL0     O24123   0.656  11.277   0.956  0.0671 -0.8518 -0.4407
  920MOL0     C24124   0.597  11.167   0.901  0.0594  0.1266  0.0369
  920MOL0     C24125   0.471  11.204   0.831 -0.1107 -0.4347  0.1848
  920MOL0     C24126   0.414  11.077   0.758  0.2511  0.4651  0.3784
  920MOL0     C24127   0.289  11.115   0.677  0.3931  0.0397  0.4421
  920MOL0     C24128   0.261  11.017   0.568 -0.0143  0.2652 -0.1116
  920MOL0     C24129   0.229  10.931   0.479  1.0738 -0.1532  0.2208
  920MOL0     C24130   0.826  11.139   1.068  0.3639  0.8183 -0.1309
  920MOL0     C24131   0.944  11.138   1.145  0.3750  0.7199 -0.3891
  920MOL0     C24132   0.983  11.000   1.202  0.1648 -0.1455 -0.1527
  920MOL0     H24133   1.377  11.088   1.240 -1.2467  1.0608  2.1991
  920MOL0     H24134   1.607  11.090   1.310 -0.7953  0.1461  2.2663
  920MOL0     H24135   1.879  11.330   1.121 -0.8944  1.3332 -0.2445
  920MOL0     H24136   1.857  11.456   1.242  0.3773  0.3788  0.3601
  920MOL0     H24137   2.047  11.214   1.249  2.8612  0.6490  1.9741
  920MOL0     H24138   2.026  11.327   1.384 -1.4121  5.1814 -0.1509
  920MOL0     H24139   2.104  11.509   1.244 -0.2140  0.6214 -2.0864
  920MOL0     H24140   2.135  11.399   1.112 -1.6846  0.3264  0.0700
  920MOL0     H24141   2.273  11.250   1.304  0.7852 -1.2411 -2.7137
  920MOL0     H24142   2.335  11.363   1.186 -3.1667  2.4901 -1.9348
  920MOL0     H24143   2.332  11.545   1.353  0.5751 -0.4421 -1.0199
  920MOL0     H24144   2.266  11.446   1.476 -0.4964 -0.3093  0.4003
  920MOL0     H24145   2.495  11.428   1.536 -3.0824  2.9334  0.1336
  920MOL0     H24146   2.497  11.309   1.413  0.6783  0.0530 -0.9836
  920MOL0     H24147   2.536  11.609   1.349 -1.2776  0.4778 -3.9961
  920MOL0     H24148   2.544  11.476   1.238 -0.8369  1.0361 -0.0514
  920MOL0     H24149   2.720  11.498   1.482 -2.1990 -2.0220  1.3227
  920MOL0     H24150   2.721  11.362   1.367 -0.7395 -0.2488 -1.5312
  920MOL0     H24151   2.722  11.747   1.289 -1.7083 -2.2967  2.2315
  920MOL0     H24152   2.828  11.807   0.970  1.5006 -0.8770 -0.2643
  920MOL0     H24153   2.857  11.900   1.116 -0.0924  0.5435 -1.5625
  920MOL0     H24154   3.105  11.804   1.108 -2.9472 -0.3394  1.5410
  920MOL0     H24155   3.072  11.756   0.941  1.5041  0.8094  0.4785
  920MOL0     H24156   3.026  12.037   1.040  1.5213  1.3438  1.7785
  920MOL0     H24157   3.003  11.975   0.875 -0.0325 -2.5243  0.7794
  920MOL0     H24158   3.215  12.104   0.906 -1.1876  0.1081  0.0199
  920MOL0     H24159   3.243  11.942   0.852 -3.9552 -1.1110  0.3705
  920MOL0     H24160   3.438  12.103   0.837  0.7265 -2.4890 -1.6063
  920MOL0     H24161   3.686  12.113   0.820 -0.7279 -0.8921 -0.6726
  920MOL0     H24162   4.049  11.794   0.783  0.2835 -0.4972 -0.9387
  920MOL0     H24163   4.232  11.680   0.749 -1.8212 -1.0298 -0.1119
  920MOL0     H24164   4.555  11.720   1.085 -1.4975 -0.5425  1.9811
  920MOL0     H24165   4.494  11.557   1.106  1.6688 -0.6467 -0.0903
  920MOL0     H24166   4.731  11.553   1.039 -0.1769  0.8376 -0.4856
  920MOL0     H24167   4.644  11.505   0.900  0.6549  0.5896 -2.2833
  920MOL0     H24168   4.667  11.763   0.830  0.2515  0.4404  1.2143
  920MOL0     H24169   4.767  11.765   0.985  1.3786 -2.1970  1.7447
  920MOL0     H24170   4.828  11.592   0.734 -2.1528  1.5923 -0.8940
  920MOL0     H24171   4.944  11.629   0.856  1.4953 -0.5916 -3.4523
  920MOL0     H24172   4.951  11.861   0.776 -0.6261  0.5764 -0.2060
  920MOL0     H24173   4.820  11.836   0.672 -0.6532  0.1095  1.1004
  920MOL0     H24174   5.077  11.661   0.645  0.2364 -0.5002 -2.0526
  920MOL0     H24175   4.947  11.659   0.531 -2.1881  2.8174 -0.9277
  920MOL0     H24176   5.117  11.906   0.594 -0.7970 -2.4713  3.9925
  920MOL0     H24177   5.002  11.883   0.460  0.1736  0.8503  1.8600
  920MOL0     H24178   5.279  11.750   0.536 -0.0086  0.0126 -0.4021
  920MOL0     H24179   5.200  11.691   0.398 -0.5398  0.3140 -0.2675
  920MOL0     H24180   4.334  11.703   1.176 -0.7670  1.6622  0.7468
  920MOL0     H24181   4.106  11.803   1.217  0.6732  2.7483 -0.4721
  920MOL0     H24182   3.722  11.869   1.170 -1.0389  2.8419  1.8433
  920MOL0     H24183   3.494  11.860   1.196  0.8487  1.2951  1.1428
  920MOL0     H24184   1.642  11.505   1.189  0.2018  0.4494  1.0625
  920MOL0     H24185   1.401  11.504   1.139 -0.9185 -0.5151 -1.2953
  920MOL0     H24186   1.035  11.459   1.088  0.1313 -0.7654 -1.5323
  920MOL0     H24187   0.809  11.468   0.995 -0.1912 -0.1288 -2.1353
  920MOL0     H24188   0.555  11.091   0.967 -0.4609  1.2033  0.9797
  920MOL0     H24189   0.672  11.119   0.837  1.0304 -0.3880  1.5135
  920MOL0     H24190   0.488  11.288   0.763 -1.2651 -0.1607  0.2041
  920MOL0     H24191   0.396  11.241   0.903 -1.4633  0.3457 -1.5315
  920MOL0     H24192   0.399  11.001   0.835 -0.6063  0.3162  0.0719
  920MOL0     H24193   0.492  11.040   0.691  0.8748 -0.3902  1.5493
  920MOL0     H24194   0.200  11.136   0.738 -1.4077  0.6504 -2.2383
  920MOL0     H24195   0.307  11.206   0.619  5.0450 -0.1604  1.1952
  920MOL0     H24196   0.211  10.854   0.407  3.0128 -0.3070 -0.1563
  920MOL0     H24197   0.763  11.052   1.053 -1.4229  1.7145  1.6103
  920MOL0     H24198   1.068  11.009   1.270  0.0901 -0.1500 -0.0593
  920MOL0     H24199   0.893  10.959   1.248 -0.5465  0.0175 -1.3423
  920MOL0     H24200   1.019  10.937   1.119 -0.4399  1.9474 -2.1004
  921MOL0     O24201   4.974  10.911   7.558 -0.2174 -0.7254  0.7255
  921MOL0     C24202   4.900  11.012   7.559 -0.5892 -0.8262 -0.0454
  921MOL0     O24203   4.947  11.142   7.574 -0.2390 -0.3052  1.0228
  921MOL0     C24204   5.079  11.157   7.566 -0.5401  0.7332 -0.7997
  921MOL0     C24205   5.148  11.131   7.683  0.5716 -0.3507  0.2197
  921MOL0     C24206   5.284  11.168   7.697  0.5284  0.3615  0.4003
  921MOL0     C24207   5.359  11.217   7.595  0.0476  0.1250 -0.4041
  921MOL0     O24208   5.490  11.247   7.592 -0.2867  0.1771 -0.1564
  921MOL0     C24209   5.588  11.141   7.620 -0.1366 -0.6193 -0.0869
  921MOL0     C24210   5.734  11.187   7.596  0.0780  0.9534  0.3539
  921MOL0     C24211   5.837  11.076   7.573  0.2431  0.6249  0.0549
  921MOL0     C24212   5.975  11.142   7.592 -0.7543 -0.6287 -0.7604
  921MOL0     C24213   6.091  11.039   7.574  0.4504  0.0206  0.4580
  921MOL0     C24214   6.117  10.982   7.428 -0.4460 -0.5317 -0.2788
  921MOL0     C24215   6.222  10.870   7.430 -0.0263  0.0275  0.8165
  921MOL0     C24216   6.349  10.927   7.490 -0.5132 -0.0256  0.3086
  921MOL0     N24217   6.480  10.860   7.460  0.3599  0.0737  0.0000
  921MOL0     C24218   6.553  10.770   7.532  0.6930 -0.2843 -0.4626
  921MOL0     C24219   6.653  10.743   7.443 -0.4882 -0.1689 -1.0466
  921MOL0     C24220   6.752  10.639   7.473 -0.0162  0.1992  0.1368
  921MOL0     C24221   6.856  10.628   7.375 -1.0681 -0.4961  0.5250
  921MOL0     C24222   6.952  10.520   7.416  0.1889 -0.1997 -0.4089
  921MOL0     C24223   7.066  10.522   7.322  0.5146 -0.2482 -0.1613
  921MOL0     O24224   7.160  10.630   7.348  0.8189 -0.9928 -0.2239
  921MOL0     C24225   7.284  10.617   7.293 -0.4147 -0.1906 -0.3078
  921MOL0     C24226   7.319  10.520   7.189  0.1914  0.4047 -0.5953
  921MOL0     C24227   7.451  10.519   7.143  0.2102  0.7882 -0.0658
  921MOL0     C24228   7.549  10.615   7.184 -0.6109  0.2752  0.0312
  921MOL0     C24229   7.682  10.633   7.120  0.0998  0.7788 -0.4568
  921MOL0     O24230   7.710  10.549   7.009 -0.2596 -0.1628 -0.3324
  921MOL0     C24231   7.837  10.555   6.959 -0.0166  0.7117 -0.1673
  921MOL0     C24232   7.946  10.505   7.030  0.2542 -0.1158  0.5770
  921MOL0     C24233   8.083  10.519   6.977  0.6179  0.0876  0.2911
  921MOL0     C24234   8.104  10.556   6.848 -0.5340  1.0959 -0.0123
  921MOL0     O24235   8.241  10.555   6.804  1.0421 -0.5662  0.3221
  921MOL0     C24236   8.262  10.555   6.663  0.5961 -0.9064  0.3921
  921MOL0     C24237   8.412  10.517   6.648 -0.2799 -0.4943  0.5873
  921MOL0     C24238   8.439  10.475   6.511 -0.3717  0.0956 -0.0395
  921MOL0     C24239   8.583  10.441   6.494 -0.3729  0.0432 -0.6390
  921MOL0     C24240   8.630  10.385   6.364  1.2925 -0.6859 -0.3906
  921MOL0     C24241   8.773  10.352   6.351 -0.2753  0.1615  0.6069
  921MOL0     C24242   8.826  10.263   6.461 -0.7894 -0.5395 -0.4019
  921MOL0     C24243   8.972  10.227   6.433 -0.2995  0.0271  0.7685
  921MOL0    Cl24244   8.988  10.127   6.293 -0.0255 -0.1491 -0.1332
  921MOL0     C24245   7.996  10.601   6.773  0.9393 -0.1844  0.3716
  921MOL0     C24246   7.869  10.601   6.830  0.5624 -0.3058 -0.0156
  921MOL0     O24247   7.761  10.713   7.172 -0.3629  0.4783 -0.0698
  921MOL0     C24248   7.508  10.699   7.286 -0.0353  0.1058 -0.3499
  921MOL0     C24249   7.379  10.709   7.330 -0.3094  0.0857  0.0823
  921MOL0     N24250   6.639  10.816   7.335  0.0129  0.2664 -0.2377
  921MOL0     N24251   6.535  10.882   7.345 -0.2477 -0.0872 -0.1096
  921MOL0     C24252   5.291  11.236   7.474 -0.6199  0.4304  0.5505
  921MOL0     C24253   5.158  11.206   7.461  0.5389  0.6972  0.1874
  921MOL0     C24254   4.749  10.999   7.571 -0.0023  0.3513  0.1495
  921MOL0     C24255   4.671  11.102   7.620 -0.2482 -0.3097 -0.6613
  921MOL0     C24256   4.534  11.085   7.657  0.7754 -1.3230 -0.4889
  921MOL0     C24257   4.475  10.966   7.645 -0.2018  0.4897  0.6033
  921MOL0     O24258   4.341  10.964   7.684  0.9080 -0.1105  0.0330
  921MOL0     C24259   4.302  10.831   7.741  0.0582 -0.0154 -0.2539
  921MOL0     C24260   4.179  10.854   7.835  0.6164  0.0882  0.2613
  921MOL0     C24261   4.215  10.919   7.962 -0.2973 -0.1833 -0.6740
  921MOL0     C24262   4.090  10.958   8.050 -0.8089 -0.2823 -0.4356
  921MOL0     C24263   3.991  10.851   8.086  0.1067  0.0424  0.2548
  921MOL0     C24264   3.921  10.756   8.106 -0.6137  0.5727  0.4516
  921MOL0     C24265   4.554  10.858   7.599  0.6935  0.9828 -0.0533
  921MOL0     C24266   4.688  10.882   7.565  0.1207 -0.1110  0.4424
  921MOL0     C24267   4.748  10.758   7.497  0.6003  0.5750  0.7851
  921MOL0     H24268   5.092  11.099   7.770  2.6216 -0.8685  1.4082
  921MOL0     H24269   5.333  11.161   7.794 -2.0586  0.7443  1.8335
  921MOL0     H24270   5.581  11.120   7.728 -0.3728 -0.2372 -0.0272
  921MOL0     H24271   5.573  11.051   7.560 -0.5933  0.5138 -1.7105
  921MOL0     H24272   5.751  11.262   7.673  0.6840  2.5261 -1.2408
  921MOL0     H24273   5.743  11.246   7.504  1.5349 -0.4075 -0.4147
  921MOL0     H24274   5.822  11.033   7.473 -3.3922 -1.3126  1.2660
  921MOL0     H24275   5.830  10.992   7.643  4.0020  1.3153  1.5301
  921MOL0     H24276   5.994  11.241   7.549 -0.9746  0.5750  1.7165
  921MOL0     H24277   5.973  11.165   7.699 -0.4893 -1.3157 -0.6031
  921MOL0     H24278   6.183  11.093   7.599  1.1635 -0.9496  0.0028
  921MOL0     H24279   6.071  10.965   7.651  0.5230 -1.8149 -1.2068
  921MOL0     H24280   6.024  10.949   7.381  0.0620 -1.1061 -0.9118
  921MOL0     H24281   6.159  11.066   7.371 -1.6298  1.8587  2.1398
  921MOL0     H24282   6.243  10.839   7.328 -0.6473 -0.1156  0.7252
  921MOL0     H24283   6.184  10.783   7.485 -0.1111 -1.8650 -2.0467
  921MOL0     H24284   6.353  11.030   7.455 -0.7807 -0.9922 -3.0018
  921MOL0     H24285   6.340  10.916   7.598 -1.4264 -2.0779  0.0700
  921MOL0     H24286   6.533  10.717   7.624  1.6666 -1.3845 -0.8509
  921MOL0     H24287   6.797  10.669   7.569  0.5204 -1.1081  0.3158
  921MOL0     H24288   6.697  10.545   7.477  0.1220  0.1225  2.9906
  921MOL0     H24289   6.818  10.609   7.274  1.6575 -1.1120 -0.4680
  921MOL0     H24290   6.910  10.723   7.372  0.6269 -1.4241  0.6548
  921MOL0     H24291   6.908  10.420   7.414  1.6038 -0.9699  2.5867
  921MOL0     H24292   6.994  10.544   7.514 -0.8336  1.0896 -0.2529
  921MOL0     H24293   7.020  10.518   7.223 -0.0154  0.7226  0.0232
  921MOL0     H24294   7.120  10.430   7.346 -0.8869 -0.7030  1.4601
  921MOL0     H24295   7.252  10.441   7.159  2.2963 -2.3555  1.4456
  921MOL0     H24296   7.474  10.452   7.061  2.0553 -0.4982  1.4229
  921MOL0     H24297   7.939  10.470   7.133  1.4651  2.3931  1.5943
  921MOL0     H24298   8.165  10.481   7.037  2.3439  1.8367 -0.8251
  921MOL0     H24299   8.204  10.478   6.614  0.7533 -1.2329  0.7121
  921MOL0     H24300   8.238  10.655   6.625  1.9309 -0.3718  0.8718
  921MOL0     H24301   8.464  10.611   6.671  1.6525 -0.7419 -2.2390
  921MOL0     H24302   8.442  10.428   6.703  0.7665 -1.4540 -1.4179
  921MOL0     H24303   8.371  10.396   6.478  0.6498 -0.4201 -0.9906
  921MOL0     H24304   8.420  10.554   6.438  0.5565 -0.3672 -0.7998
  921MOL0     H24305   8.615  10.374   6.574  1.9955  0.3234 -1.2660
  921MOL0     H24306   8.640  10.534   6.502  1.2833 -0.9239 -0.6360
  921MOL0     H24307   8.586  10.445   6.283  3.5114 -0.3763 -1.4331
  921MOL0     H24308   8.578  10.290   6.347  0.0920  0.2996 -2.7561
  921MOL0     H24309   8.775  10.293   6.259 -1.4491  0.4637  0.3680
  921MOL0     H24310   8.824  10.448   6.352  0.3775 -0.1131 -1.3441
  921MOL0     H24311   8.763  10.175   6.476 -0.1857 -1.1052 -1.1058
  921MOL0     H24312   8.819  10.310   6.559  0.5518 -0.7250 -0.2086
  921MOL0     H24313   9.024  10.322   6.420  2.0957 -1.0930  1.5651
  921MOL0     H24314   9.017  10.176   6.519  2.7981  0.9541 -0.1978
  921MOL0     H24315   8.003  10.653   6.678 -0.2382 -1.0009 -0.1917
  921MOL0     H24316   7.775  10.632   6.786 -0.5890 -2.3956  0.8790
  921MOL0     H24317   7.583  10.769   7.319  1.7292 -1.0953 -1.5770
  921MOL0     H24318   7.359  10.773   7.416 -0.0405  0.8254 -0.3931
  921MOL0     H24319   5.339  11.277   7.386  0.8212 -1.0311  0.6085
  921MOL0     H24320   5.105  11.218   7.367  0.6968 -0.7981 -0.1123
  921MOL0     H24321   4.709  11.204   7.629 -1.4415  0.0454  0.6033
  921MOL0     H24322   4.471  11.163   7.697 -0.1449 -2.4568  0.3632
  921MOL0     H24323   4.380  10.798   7.810 -1.1587 -0.3701  0.9976
  921MOL0     H24324   4.288  10.759   7.660 -0.2193  1.2699 -1.3758
  921MOL0     H24325   4.131  10.756   7.844  0.7573  0.1552  2.0228
  921MOL0     H24326   4.102  10.913   7.784 -0.9263 -1.6046  0.5226
  921MOL0     H24327   4.273  11.011   7.949  1.9528 -1.0281  2.1014
  921MOL0     H24328   4.282  10.859   8.024  0.4316 -0.1960 -1.4553
  921MOL0     H24329   4.123  11.003   8.144  1.9416 -1.5074 -0.7358
  921MOL0     H24330   4.036  11.036   7.995  0.8123 -0.1850 -1.9562
  921MOL0     H24331   3.859  10.670   8.124 -0.7616  0.7692  0.9011
  921MOL0     H24332   4.513  10.761   7.574  0.0102  1.4088 -0.6264
  921MOL0     H24333   4.830  10.787   7.431  2.3414 -2.0648  1.6109
  921MOL0     H24334   4.797  10.689   7.567  0.0579 -0.2119  0.3940
  921MOL0     H24335   4.678  10.693   7.445  0.6054  0.1634  1.2758
  922MOL0     O24336   1.317  11.032   8.846  0.4577  0.1736 -0.0469
  922MOL0     C24337   1.227  11.052   8.931  0.2333 -0.3047  0.5169
  922MOL0     O24338   1.234  11.028   9.064  0.3858  0.0315  0.5648
  922MOL0     C24339   1.342  10.970   9.117 -0.3532 -0.3751 -0.2588
  922MOL0     C24340   1.406  11.021   9.239 -0.6467 -0.0781 -0.3644
  922MOL0     C24341   1.515  10.950   9.303  0.4273 -0.6370 -0.4657
  922MOL0     C24342   1.557  10.832   9.248 -0.8722  0.0298 -0.5656
  922MOL0     O24343   1.651  10.761   9.311 -0.1996  0.0359 -0.0520
  922MOL0     C24344   1.641  10.745   9.459  0.7720  0.4956  0.4466
  922MOL0     C24345   1.679  10.605   9.494 -0.0947 -0.6214  0.5356
  922MOL0     C24346   1.828  10.573   9.460  1.0514  0.2289 -0.0159
  922MOL0     C24347   1.935  10.632   9.546 -0.4966 -0.5242  0.5638
  922MOL0     C24348   2.069  10.651   9.456  0.6832  0.2323 -0.2748
  922MOL0     C24349   2.176  10.703   9.546 -0.0602 -0.1720  0.1561
  922MOL0     C24350   2.297  10.758   9.467  0.1873  0.6156  0.3122
  922MOL0     C24351   2.364  10.655   9.363  0.0787  0.8785 -0.2432
  922MOL0     N24352   2.466  10.725   9.278 -0.2827 -0.0910  0.1156
  922MOL0     C24353   2.577  10.792   9.331 -0.0087  0.3692  0.3469
  922MOL0     C24354   2.681  10.793   9.238  0.2894 -0.6060  0.6372
  922MOL0     C24355   2.819  10.841   9.243  0.6093 -0.9548 -0.1156
  922MOL0     C24356   2.890  10.756   9.344 -0.0279 -0.4280  0.8866
  922MOL0     C24357   3.041  10.780   9.350 -0.1771 -0.7314  0.2247
  922MOL0     C24358   3.082  10.929   9.352 -0.3952  0.6808 -0.3721
  922MOL0     O24359   3.014  10.997   9.456 -0.2212 -0.3267 -0.1895
  922MOL0     C24360   2.966  11.125   9.447  0.1812 -0.4543 -0.4533
  922MOL0     C24361   2.842  11.146   9.501 -0.3116 -0.0207  0.5638
  922MOL0     C24362   2.791  11.277   9.500 -0.2996  0.7366  0.4009
  922MOL0     C24363   2.859  11.387   9.451 -0.2741  0.2714  0.0226
  922MOL0     C24364   2.801  11.522   9.448  0.8468  0.6411  0.6351
  922MOL0     O24365   2.676  11.536   9.497 -0.2182  0.4666 -0.0089
  922MOL0     C24366   2.603  11.648   9.501 -0.0667 -0.4364 -0.8595
  922MOL0     C24367   2.657  11.768   9.551  0.4626 -0.9792 -1.0258
  922MOL0     C24368   2.576  11.885   9.560 -0.8842 -0.0476 -0.9135
  922MOL0     C24369   2.450  11.889   9.508  0.2907 -0.6011 -0.3697
  922MOL0     O24370   2.366  12.001   9.499 -0.4243 -0.6299  0.5292
  922MOL0     C24371   2.424  12.130   9.518  0.7013  0.6518 -0.7312
  922MOL0     C24372   2.498  12.164   9.389 -0.3546 -0.0901  0.0920
  922MOL0     C24373   2.537  12.307   9.386 -0.3047  0.7801 -0.5165
  922MOL0     C24374   2.646  12.355   9.487  0.2474 -0.5842 -0.1340
  922MOL0     C24375   2.698  12.496   9.443 -0.0871  0.0814 -0.0249
  922MOL0     C24376   2.821  12.521   9.527  0.5129  0.3912 -0.6780
  922MOL0     C24377   2.851  12.670   9.553 -0.0873  0.3136 -0.4639
  922MOL0     C24378   2.996  12.703   9.588 -0.3939 -0.1514 -0.0577
  922MOL0    Cl24379   3.033  12.646   9.745  0.1214 -0.0778 -0.2472
  922MOL0     C24380   2.402  11.772   9.456  0.1030 -0.4584 -0.2287
  922MOL0     C24381   2.476  11.654   9.447 -0.8871 -0.5651  0.0131
  922MOL0     O24382   2.869  11.613   9.403  0.1666 -0.3236  0.6002
  922MOL0     C24383   2.982  11.363   9.390 -0.3662 -0.0844 -0.1377
  922MOL0     C24384   3.041  11.238   9.408 -0.2142 -0.0086 -0.1231
  922MOL0     N24385   2.622  10.730   9.128  0.5687 -0.6246 -0.6239
  922MOL0     N24386   2.500  10.698   9.152  0.3923  0.2314  0.1040
  922MOL0     C24387   1.491  10.780   9.139  0.2441 -0.2464  0.0468
  922MOL0     C24388   1.384  10.840   9.076  0.0213 -1.1317 -0.7047
  922MOL0     C24389   1.091  11.108   8.874  0.3390  0.0931  0.0868
  922MOL0     C24390   1.084  11.155   8.742 -0.2918  0.4714 -0.3730
  922MOL0     C24391   0.979  11.226   8.690  0.1634  0.5267  0.3963
  922MOL0     C24392   0.858  11.225   8.759  0.8130  0.0353  0.2407
  922MOL0     O24393   0.734  11.278   8.724  0.3919 -0.3382 -0.3118
  922MOL0     C24394   0.742  11.372   8.611 -0.1155 -0.4888 -0.4704
  922MOL0     C24395   0.617  11.459   8.615 -0.1953 -0.9175  0.3048
  922MOL0     C24396   0.481  11.384   8.611 -0.9201  0.1891  0.8757
  922MOL0     C24397   0.465  11.279   8.499  0.3183  0.2938  0.8137
  922MOL0     C24398   0.326  11.228   8.514 -0.9034 -0.3206  0.6505
  922MOL0     C24399   0.213  11.186   8.519 -0.0967  0.1045  0.5958
  922MOL0     C24400   0.863  11.168   8.881  0.4289  0.5854 -0.0904
  922MOL0     C24401   0.970  11.100   8.945 -0.2739 -0.0615 -1.1764
  922MOL0     C24402   0.949  11.045   9.082  0.3807 -0.0680  0.0924
  922MOL0     H24403   1.388  11.119   9.281 -0.6231  0.5356 -1.7412
  922MOL0     H24404   1.565  10.988   9.392  3.8056 -2.0051 -1.6038
  922MOL0     H24405   1.708  10.818   9.506  1.8320  0.1796 -0.5372
  922MOL0     H24406   1.536  10.766   9.479  0.1522 -0.2575 -1.7269
  922MOL0     H24407   1.607  10.540   9.443 -0.1851 -1.1509  1.3205
  922MOL0     H24408   1.664  10.592   9.602  2.5779 -1.9688  0.8182
  922MOL0     H24409   1.845  10.603   9.356 -1.0504  0.8633 -0.2131
  922MOL0     H24410   1.826  10.463   9.463 -2.6847  0.1856  0.4409
  922MOL0     H24411   1.902  10.729   9.586  1.8808 -0.1797  1.8409
  922MOL0     H24412   1.953  10.563   9.628  2.2705 -1.1253 -0.4671
  922MOL0     H24413   2.100  10.553   9.421 -0.7427 -1.5497  2.9888
  922MOL0     H24414   2.046  10.713   9.369 -1.3843 -0.0798  0.0027
  922MOL0     H24415   2.143  10.774   9.622 -0.8469 -0.8648  0.4717
  922MOL0     H24416   2.204  10.628   9.620  0.5294 -0.3402 -0.2299
  922MOL0     H24417   2.381  10.797   9.525  1.9138 -0.6773 -1.2089
  922MOL0     H24418   2.250  10.837   9.408  0.8706  1.0696  0.3624
  922MOL0     H24419   2.404  10.568   9.415  0.5954  0.8835 -0.6287
  922MOL0     H24420   2.291  10.613   9.292  0.9094 -1.1384  0.0339
  922MOL0     H24421   2.598  10.821   9.433 -1.1791  2.4723  0.0445
  922MOL0     H24422   2.871  10.837   9.147  3.4739 -3.3458  1.3736
  922MOL0     H24423   2.805  10.945   9.275 -2.1162 -0.7887 -1.5747
  922MOL0     H24424   2.849  10.783   9.441  1.8435  0.9112  1.3700
  922MOL0     H24425   2.881  10.651   9.316 -2.2787 -0.5782  2.0273
  922MOL0     H24426   3.089  10.715   9.277 -1.8983 -4.8873  2.4496
  922MOL0     H24427   3.066  10.734   9.446  0.6439  1.4945  1.1639
  922MOL0     H24428   3.065  10.982   9.258  2.2882  0.5532 -1.0173
  922MOL0     H24429   3.190  10.932   9.369 -0.5075 -0.7185  0.7894
  922MOL0     H24430   2.782  11.069   9.548  1.3158 -2.3329 -0.9300
  922MOL0     H24431   2.698  11.296   9.553  0.9703  2.6138  2.1056
  922MOL0     H24432   2.755  11.783   9.595  0.2267  0.4911 -0.9375
  922MOL0     H24433   2.614  11.970   9.615 -4.4007  0.7637  0.5383
  922MOL0     H24434   2.353  12.213   9.525  0.6005  0.4267  1.5976
  922MOL0     H24435   2.472  12.131   9.616 -0.8835 -1.4986  0.1336
  922MOL0     H24436   2.591  12.106   9.384 -0.1945  0.2811 -1.5463
  922MOL0     H24437   2.443  12.142   9.298 -0.1826  3.6099 -1.0946
  922MOL0     H24438   2.575  12.331   9.287  1.2244  0.4845 -0.0193
  922MOL0     H24439   2.449  12.371   9.404  0.0763  1.2829 -0.4215
  922MOL0     H24440   2.728  12.284   9.500 -0.9895 -2.0956 -0.2545
  922MOL0     H24441   2.614  12.368   9.591  0.5499  2.8448 -0.3683
  922MOL0     H24442   2.629  12.577   9.471 -0.2438  0.3648 -1.1586
  922MOL0     H24443   2.722  12.507   9.336  2.2155  0.8285  0.5079
  922MOL0     H24444   2.808  12.478   9.627  3.4545  1.9145  0.4735
  922MOL0     H24445   2.902  12.467   9.478 -0.1362 -2.0728  0.8018
  922MOL0     H24446   2.783  12.700   9.634 -0.3543 -0.7340 -0.2757
  922MOL0     H24447   2.834  12.736   9.468 -1.4051  1.1425  0.4191
  922MOL0     H24448   3.069  12.664   9.515  0.4127  0.1880  0.5565
  922MOL0     H24449   3.009  12.811   9.588  0.1748 -0.2165 -0.1115
  922MOL0     H24450   2.304  11.773   9.410 -0.2127 -1.1419  0.3904
  922MOL0     H24451   2.437  11.559   9.412 -1.8589 -0.6155  1.1607
  922MOL0     H24452   3.044  11.441   9.348  0.9397  0.3249  2.3507
  922MOL0     H24453   3.132  11.210   9.355 -0.4641 -1.4230  0.1530
  922MOL0     H24454   1.527  10.684   9.104 -0.0836 -0.8510  1.3257
  922MOL0     H24455   1.350  10.785   8.988  0.5155 -1.1054 -0.9108
  922MOL0     H24456   1.172  11.142   8.681  0.7637  0.6806  1.0581
  922MOL0     H24457   0.992  11.264   8.589 -2.7110 -0.4739 -0.4292
  922MOL0     H24458   0.760  11.331   8.511 -0.6382 -1.3126 -0.2401
  922MOL0     H24459   0.826  11.442   8.619 -0.5998  0.4047 -2.5396
  922MOL0     H24460   0.615  11.527   8.530  2.8167 -0.4331  0.5188
  922MOL0     H24461   0.629  11.513   8.709  1.9389 -2.3232  0.9160
  922MOL0     H24462   0.410  11.465   8.591  1.4120  1.9178 -1.2058
  922MOL0     H24463   0.465  11.344   8.711  0.1272  3.5046  2.5179
  922MOL0     H24464   0.471  11.334   8.405 -1.4956 -0.5231  0.1547
  922MOL0     H24465   0.529  11.191   8.495  0.5380  0.4747 -1.9599
  922MOL0     H24466   0.112  11.150   8.520  0.2406 -1.0433 -1.4947
  922MOL0     H24467   0.767  11.163   8.932  0.5588 -1.4654  0.0141
  922MOL0     H24468   1.007  11.103   9.154 -0.2036 -0.5412  0.9633
  922MOL0     H24469   0.845  11.059   9.110  1.2303  1.2764  2.8664
  922MOL0     H24470   0.973  10.939   9.095 -0.3268 -0.4215 -1.2620
  923MOL0     O24471   7.858   2.617   9.878 -0.1994 -0.2268 -0.6048
  923MOL0     C24472   7.828   2.720   9.820  0.0381 -0.0933  0.0220
  923MOL0     O24473   7.910   2.834   9.809  0.1319 -0.1933  0.3103
  923MOL0     C24474   8.035   2.827   9.852  1.0590 -0.1692 -0.2056
  923MOL0     C24475   8.056   2.843   9.989  0.1649 -0.3116 -0.5386
  923MOL0     C24476   8.188   2.844  10.045  0.7458  1.0338  0.3556
  923MOL0     C24477   8.293   2.808   9.956 -0.3652  0.3181 -0.3436
  923MOL0     O24478   8.423   2.788   9.994  0.4348 -0.2910 -0.1232
  923MOL0     C24479   8.453   2.780  10.127  0.2122  0.5174 -0.2908
  923MOL0     C24480   8.606   2.744  10.146 -0.2735 -0.4421  0.5518
  923MOL0     C24481   8.636   2.595  10.119 -0.1355 -0.7514  0.5374
  923MOL0     C24482   8.782   2.558  10.153 -0.2998  1.7750  0.2912
  923MOL0     C24483   8.808   2.405  10.131 -0.2855  0.0007  0.1451
  923MOL0     C24484   8.805   2.360   9.983 -0.0152  0.5059 -0.0119
  923MOL0     C24485   8.875   2.223   9.966  0.7778 -0.6934 -0.8134
  923MOL0     C24486   8.908   2.202   9.809 -0.3585  0.4217  0.0338
  923MOL0     N24487   9.001   2.304   9.759  0.2654  0.4454 -0.0462
  923MOL0     C24488   8.971   2.383   9.655  0.6002 -0.0512  0.1028
  923MOL0     C24489   9.081   2.452   9.638 -0.6381  0.0017 -0.0700
  923MOL0     C24490   9.105   2.554   9.536  0.4577  0.5258 -0.2002
  923MOL0     C24491   9.246   2.619   9.546 -0.0158  0.3330  0.2486
  923MOL0     C24492   9.249   2.741   9.444 -0.7463  0.5075  0.3173
  923MOL0     C24493   9.396   2.787   9.409  0.3501  0.5497 -0.1169
  923MOL0     O24494   9.434   2.853   9.534 -0.0314  0.1526  0.6271
  923MOL0     C24495   9.569   2.850   9.570 -0.2492  0.0716  0.0461
  923MOL0     C24496   9.676   2.823   9.483 -0.8166 -0.2965  0.0283
  923MOL0     C24497   9.809   2.824   9.521  0.1784 -0.6104  0.1942
  923MOL0     C24498   9.852   2.881   9.645 -0.2540  0.2705 -0.5833
  923MOL0     C24499   9.997   2.881   9.679 -0.3211  0.3556  0.2016
  923MOL0     O24500  10.076   2.830   9.579 -0.4174 -0.2911  0.0584
  923MOL0     C24501  10.211   2.843   9.572 -0.8109 -0.0669 -0.5672
  923MOL0     C24502  10.292   2.941   9.644  0.0403  0.0913  0.4796
  923MOL0     C24503  10.432   2.928   9.645  0.0457  0.6051 -1.1551
  923MOL0     C24504  10.489   2.827   9.559  0.9819 -0.0817  0.0153
  923MOL0     O24505  10.621   2.800   9.533  0.2005 -0.0766 -0.0115
  923MOL0     C24506  10.709   2.803   9.644 -0.0213 -0.2301  0.0719
  923MOL0     C24507  10.683   2.704   9.759  0.1447 -0.5582 -0.3371
  923MOL0     C24508  10.792   2.700   9.863 -0.4089  0.0605  0.1674
  923MOL0     C24509  10.906   2.606   9.812  0.4113 -0.5011 -0.4232
  923MOL0     C24510  11.009   2.590   9.921  0.6147 -0.4286 -1.0310
  923MOL0     C24511  11.126   2.506   9.885 -0.5931 -0.1581 -0.1499
  923MOL0     C24512  11.242   2.542   9.977  0.6952 -0.2694  0.6846
  923MOL0     C24513  11.368   2.491   9.927 -0.7461  0.5257 -0.5410
  923MOL0    Cl24514  11.392   2.303   9.922  0.1216  0.1541 -0.3565
  923MOL0     C24515  10.410   2.733   9.489 -0.0636  0.0688  0.0181
  923MOL0     C24516  10.274   2.748   9.500  0.2461  0.0204  0.7355
  923MOL0     O24517  10.035   2.925   9.786  0.1656  0.8464  0.3046
  923MOL0     C24518   9.750   2.922   9.730  0.6601  0.2335  0.2287
  923MOL0     C24519   9.611   2.899   9.697  0.2896  0.5775 -0.0449
  923MOL0     N24520   9.185   2.404   9.721 -0.8955  0.5959 -0.7844
  923MOL0     N24521   9.132   2.316   9.796 -0.7198 -0.1137  0.1897
  923MOL0     C24522   8.253   2.787   9.822 -0.1230 -0.3019 -0.1822
  923MOL0     C24523   8.127   2.802   9.764 -0.2684 -0.8368 -0.7996
  923MOL0     C24524   7.687   2.733   9.781 -0.3202  0.3602  0.0017
  923MOL0     C24525   7.594   2.655   9.849 -0.2693  0.2989  0.0010
  923MOL0     C24526   7.460   2.662   9.810 -1.0620 -0.5963  0.0048
  923MOL0     C24527   7.417   2.740   9.698  0.8032 -0.1388 -0.0066
  923MOL0     O24528   7.279   2.731   9.672 -0.2309 -0.5675  0.7861
  923MOL0     C24529   7.232   2.757   9.543  0.5563  0.0318  0.1018
  923MOL0     C24530   7.082   2.746   9.512  0.5255 -0.0127 -0.1506
  923MOL0     C24531   7.032   2.611   9.550  1.3487  0.0234  0.3610
  923MOL0     C24532   7.014   2.594   9.704  0.4753 -0.2228 -0.4781
  923MOL0     C24533   6.877   2.623   9.744 -0.7014 -0.7793  0.4249
  923MOL0     C24534   6.772   2.662   9.782  0.7007  0.2133 -0.0067
  923MOL0     C24535   7.510   2.814   9.640  0.2457 -0.3686  0.3611
  923MOL0     C24536   7.639   2.811   9.673 -0.7818  0.4145 -0.1193
  923MOL0     C24537   7.741   2.879   9.581  0.0345  0.4821 -0.0858
  923MOL0     H24538   7.972   2.855  10.057  0.3912 -2.4921  0.2095
  923MOL0     H24539   8.210   2.862  10.150 -1.9644  1.4510  0.9235
  923MOL0     H24540   8.436   2.870  10.188 -0.3847 -0.5768  1.2251
  923MOL0     H24541   8.390   2.709  10.182  3.2907 -1.2416  1.2577
  923MOL0     H24542   8.634   2.756  10.251 -1.0151  3.4219  0.4399
  923MOL0     H24543   8.667   2.812  10.086  0.0726 -1.8572 -0.7580
  923MOL0     H24544   8.639   2.590  10.010  0.9453 -2.1023  0.5931
  923MOL0     H24545   8.562   2.522  10.153 -0.4554 -1.5615 -1.7771
  923MOL0     H24546   8.857   2.610  10.092 -1.2515  1.3862 -1.2623
  923MOL0     H24547   8.798   2.576  10.259 -0.2657  0.5848  0.5019
  923MOL0     H24548   8.904   2.375  10.174 -1.2392 -0.3561  2.1304
  923MOL0     H24549   8.733   2.350  10.187 -0.0561 -0.9308 -0.4343
  923MOL0     H24550   8.700   2.343   9.956  0.2862 -1.2775 -0.1874
  923MOL0     H24551   8.849   2.438   9.920 -0.7922  0.4960 -0.5720
  923MOL0     H24552   8.813   2.144  10.009  2.7316 -0.9722  1.7141
  923MOL0     H24553   8.966   2.227  10.026 -0.6792 -3.3449  1.8488
  923MOL0     H24554   8.959   2.106   9.794  1.0465  0.8037  1.9302
  923MOL0     H24555   8.815   2.201   9.751 -0.5590  1.3277  0.3348
  923MOL0     H24556   8.870   2.389   9.615 -0.1044 -1.2196  1.6210
  923MOL0     H24557   9.092   2.518   9.434  2.9923  0.0559 -0.4264
  923MOL0     H24558   9.030   2.630   9.559  0.6606  1.3235 -1.9913
  923MOL0     H24559   9.263   2.651   9.650  0.9330  0.5942  0.0211
  923MOL0     H24560   9.321   2.546   9.517  0.5146  1.8263 -2.4351
  923MOL0     H24561   9.194   2.822   9.494 -0.6011  1.8339 -1.5535
  923MOL0     H24562   9.199   2.711   9.352  0.7877  2.3765 -1.2275
  923MOL0     H24563   9.404   2.861   9.329  1.3297  0.7470  0.1549
  923MOL0     H24564   9.455   2.700   9.379  0.2761  1.4966 -3.3080
  923MOL0     H24565   9.652   2.791   9.383 -0.1924  1.6485 -0.7964
  923MOL0     H24566   9.886   2.798   9.449  1.4189  1.7023  0.5898
  923MOL0     H24567  10.258   3.019   9.712  0.6038 -1.1110  2.1956
  923MOL0     H24568  10.496   2.999   9.696  2.9901 -1.3096 -1.9387
  923MOL0     H24569  10.810   2.788   9.603  0.8160 -1.0949  2.3327
  923MOL0     H24570  10.707   2.901   9.692 -1.8471 -1.3176  2.4275
  923MOL0     H24571  10.592   2.739   9.809  0.9188  2.8913 -1.0711
  923MOL0     H24572  10.670   2.601   9.725 -1.4973 -0.5549  0.1635
  923MOL0     H24573  10.833   2.799   9.883 -0.6534 -0.0686  1.3375
  923MOL0     H24574  10.742   2.663   9.952 -1.7320  0.0421 -0.5625
  923MOL0     H24575  10.940   2.660   9.723 -0.5883 -0.0372 -0.5350
  923MOL0     H24576  10.882   2.505   9.776 -0.2892 -1.2417  1.9455
  923MOL0     H24577  10.969   2.544  10.012  1.7054  3.1163  1.4810
  923MOL0     H24578  11.037   2.690   9.958  0.3762 -0.8562  0.3786
  923MOL0     H24579  11.103   2.400   9.902  0.4459 -0.7208 -2.0078
  923MOL0     H24580  11.153   2.537   9.783 -0.9580  1.3589  0.1923
  923MOL0     H24581  11.231   2.504  10.079  0.8086  1.3562  1.3212
  923MOL0     H24582  11.258   2.648   9.997  1.1969 -0.3202  0.5658
  923MOL0     H24583  11.371   2.517   9.821  0.3917 -0.1000 -0.6756
  923MOL0     H24584  11.438   2.556   9.981 -0.8124 -0.1618  0.3953
  923MOL0     H24585  10.451   2.648   9.435 -2.2196 -1.7528  1.1104
  923MOL0     H24586  10.218   2.676   9.440  1.4173  1.1698 -1.9017
  923MOL0     H24587   9.764   2.960   9.831 -2.0662 -0.8268  1.1119
  923MOL0     H24588   9.538   2.938   9.768 -0.1285  0.7313 -0.5478
  923MOL0     H24589   8.326   2.755   9.748  0.7007 -0.6678  0.7670
  923MOL0     H24590   8.102   2.777   9.661 -3.7523  1.2411 -0.5919
  923MOL0     H24591   7.628   2.589   9.928  0.0272 -0.9888 -1.1708
  923MOL0     H24592   7.393   2.599   9.867 -1.2273 -1.8840 -1.5373
  923MOL0     H24593   7.282   2.692   9.470  1.8932  0.9247  0.1756
  923MOL0     H24594   7.256   2.861   9.516 -1.8485  0.0594 -2.3811
  923MOL0     H24595   7.062   2.743   9.405 -0.9576  1.0063  0.0742
  923MOL0     H24596   7.022   2.828   9.551 -0.0792  0.6188 -2.3079
  923MOL0     H24597   7.092   2.528   9.512  1.7191  1.1734 -1.7283
  923MOL0     H24598   6.935   2.605   9.499  1.4491 -2.4672  0.3263
  923MOL0     H24599   7.047   2.494   9.735  0.6193  0.4781  1.7969
  923MOL0     H24600   7.071   2.660   9.771 -1.4028 -1.4305  2.5128
  923MOL0     H24601   6.684   2.700   9.831  1.3435  0.1047  1.2659
  923MOL0     H24602   7.490   2.881   9.557  1.0434 -1.8669 -1.0964
  923MOL0     H24603   7.823   2.813   9.551 -0.6484 -0.1280 -0.6763
  923MOL0     H24604   7.692   2.910   9.488  1.5951  0.7706 -0.8367
  923MOL0     H24605   7.776   2.978   9.612 -0.9424  0.6142  0.6462
  924MOL0     O24606   1.868   8.156   0.041  0.4609 -1.0500 -0.4774
  924MOL0     C24607   1.802   8.234  -0.031 -0.0883  0.2635 -0.4320
  924MOL0     O24608   1.859   8.331  -0.109 -0.6023 -0.1190 -0.7606
  924MOL0     C24609   1.999   8.348  -0.097  0.2124  0.1881 -0.5267
  924MOL0     C24610   2.076   8.310  -0.209  0.0899 -0.3418  0.5848
  924MOL0     C24611   2.218   8.313  -0.194  0.4921  0.0659 -1.0176
  924MOL0     C24612   2.273   8.348  -0.069 -0.4089  0.2604 -0.0014
  924MOL0     O24613   2.409   8.352  -0.035  0.5888 -0.2558 -0.6765
  924MOL0     C24614   2.500   8.422  -0.115 -0.2584  0.2535  0.5284
  924MOL0     C24615   2.629   8.455  -0.038 -0.0608 -0.4820  0.9417
  924MOL0     C24616   2.754   8.468  -0.122  0.6305  0.2583 -0.5726
  924MOL0     C24617   2.858   8.567  -0.062  0.7245  0.5326 -0.2590
  924MOL0     C24618   2.997   8.505  -0.051  0.1748  0.4118  0.6350
  924MOL0     C24619   3.055   8.492  -0.191 -0.2323  0.4059 -0.2387
  924MOL0     C24620   3.190   8.423  -0.180  0.4826 -0.3093 -0.1359
  924MOL0     C24621   3.248   8.360  -0.308  0.1883 -0.6051  0.0926
  924MOL0     N24622   3.383   8.300  -0.290  0.1100  0.0470 -0.0080
  924MOL0     C24623   3.407   8.196  -0.217 -0.2834 -0.4314 -0.3866
  924MOL0     C24624   3.537   8.179  -0.224 -0.4562  0.1627  0.1903
  924MOL0     C24625   3.601   8.078  -0.144 -0.5738  0.2086  0.1768
  924MOL0     C24626   3.737   8.023  -0.187 -0.5629 -0.7136 -0.7729
  924MOL0     C24627   3.849   8.116  -0.153 -0.2723 -0.7778 -0.0345
  924MOL0     C24628   3.991   8.053  -0.174  0.1143 -0.2107 -0.3168
  924MOL0     O24629   4.043   7.994  -0.051  0.0859  0.0598  0.0733
  924MOL0     C24630   4.151   7.902  -0.073  0.8831 -0.5809  0.1824
  924MOL0     C24631   4.170   7.787   0.012  0.9699 -0.0920 -0.6052
  924MOL0     C24632   4.269   7.692  -0.010  0.3243 -0.1699  0.6920
  924MOL0     C24633   4.352   7.708  -0.130 -0.3162  0.9731  0.5133
  924MOL0     C24634   4.464   7.617  -0.156 -0.6464 -0.4295  0.4133
  924MOL0     O24635   4.554   7.641  -0.258 -0.3892 -0.0826 -0.1898
  924MOL0     C24636   4.676   7.577  -0.244 -0.0654  0.1554  0.0348
  924MOL0     C24637   4.773   7.611  -0.149 -0.6447 -0.2719  0.3806
  924MOL0     C24638   4.898   7.551  -0.159  0.6109  0.1854 -0.3232
  924MOL0     C24639   4.940   7.467  -0.262 -0.6007 -0.1598  0.3356
  924MOL0     O24640   5.067   7.426  -0.289 -0.5452 -0.1988 -0.1219
  924MOL0     C24641   5.175   7.437  -0.198 -1.2125 -0.5010  0.6217
  924MOL0     C24642   5.311   7.458  -0.271  0.5361 -0.7559  0.5126
  924MOL0     C24643   5.367   7.337  -0.354  0.2691  0.1647  0.0129
  924MOL0     C24644   5.479   7.382  -0.446 -0.3452 -0.3628  0.2026
  924MOL0     C24645   5.538   7.265  -0.537 -0.2128  0.3038 -1.0051
  924MOL0     C24646   5.432   7.211  -0.621  0.4274 -0.2471  0.2080
  924MOL0     C24647   5.477   7.123  -0.734  0.2473  0.0181  0.6894
  924MOL0     C24648   5.592   7.193  -0.820  0.2841 -0.2335  0.3718
  924MOL0    Cl24649   5.615   7.111  -0.977  0.7985  0.1934 -0.2320
  924MOL0     C24650   4.842   7.430  -0.355  0.1100  0.4659  0.2602
  924MOL0     C24651   4.713   7.486  -0.343  0.5978  0.4548 -0.4294
  924MOL0     O24652   4.485   7.534  -0.070  0.1388  0.6630 -0.0379
  924MOL0     C24653   4.329   7.814  -0.220  0.1441 -0.1780  0.2545
  924MOL0     C24654   4.230   7.911  -0.190  0.7299 -0.3202  0.6489
  924MOL0     N24655   3.598   8.266  -0.315  0.6585 -0.2883 -0.1661
  924MOL0     N24656   3.499   8.346  -0.352  0.1350 -0.6526 -0.6885
  924MOL0     C24657   2.190   8.394   0.036 -0.2422 -0.6080  0.9831
  924MOL0     C24658   2.053   8.393   0.026  0.8130 -0.3050 -0.0377
  924MOL0     C24659   1.647   8.229  -0.012  0.6159 -0.3868  0.2845
  924MOL0     C24660   1.576   8.346  -0.052  0.6419 -0.8420  0.1101
  924MOL0     C24661   1.437   8.362  -0.023 -1.0857 -0.2764 -0.1560
  924MOL0     C24662   1.366   8.260   0.043  0.8004 -0.4110  0.5543
  924MOL0     O24663   1.233   8.268   0.078 -0.5240 -0.2045  0.1573
  924MOL0     C24664   1.147   8.217  -0.025 -0.3437  0.3633  0.0561
  924MOL0     C24665   0.997   8.209   0.018 -0.0160  0.0581  0.2445
  924MOL0     C24666   0.906   8.152  -0.089 -0.7478 -0.0579  0.7812
  924MOL0     C24667   0.760   8.121  -0.031 -0.9379 -0.0638  1.0463
  924MOL0     C24668   0.648   8.111  -0.132 -0.5089  0.9157 -0.2350
  924MOL0     C24669   0.562   8.112  -0.217 -0.1103  0.3329 -0.5155
  924MOL0     C24670   1.428   8.133   0.056 -0.0683 -0.4136 -0.2550
  924MOL0     C24671   1.567   8.113   0.033  0.1292 -0.6128 -1.0537
  924MOL0     C24672   1.637   7.982   0.047 -0.3038  1.0450 -0.4639
  924MOL0     H24673   2.037   8.277  -0.305 -0.3437 -0.0815  0.6697
  924MOL0     H24674   2.291   8.274  -0.264  1.5002  1.0188 -0.5207
  924MOL0     H24675   2.527   8.353  -0.194 -1.4132 -0.2756  0.5834
  924MOL0     H24676   2.460   8.510  -0.166  1.6578  1.0566  0.3282
  924MOL0     H24677   2.645   8.365   0.022  1.2510  0.1611  1.6158
  924MOL0     H24678   2.607   8.548   0.016 -1.9907  0.1086 -0.7651
  924MOL0     H24679   2.723   8.511  -0.217  2.7528  1.8820 -0.6099
  924MOL0     H24680   2.798   8.368  -0.126 -3.3004 -1.7443  1.3436
  924MOL0     H24681   2.863   8.658  -0.123  2.6243 -0.1795 -1.2225
  924MOL0     H24682   2.821   8.612   0.031  0.2902  0.5474 -0.4347
  924MOL0     H24683   3.061   8.564   0.015 -0.0781  1.3663  0.0355
  924MOL0     H24684   2.986   8.404  -0.009 -1.3294 -0.2846 -1.2629
  924MOL0     H24685   2.994   8.435  -0.262  1.2478  0.4926 -1.6451
  924MOL0     H24686   3.092   8.587  -0.230  1.6458  0.4265  1.4324
  924MOL0     H24687   3.175   8.349  -0.101  2.2377 -0.5790 -0.0025
  924MOL0     H24688   3.266   8.489  -0.137  0.5167  0.0838 -0.7855
  924MOL0     H24689   3.182   8.288  -0.357 -0.9268  1.4022 -1.5313
  924MOL0     H24690   3.263   8.439  -0.382  3.9498 -1.3581 -0.1383
  924MOL0     H24691   3.337   8.138  -0.158 -0.3203 -1.9619 -1.8826
  924MOL0     H24692   3.605   8.117  -0.041  0.1807  0.4133  0.0768
  924MOL0     H24693   3.533   7.992  -0.140 -1.3899  0.8427  0.1433
  924MOL0     H24694   3.765   7.935  -0.129  0.9570  0.4465  0.3365
  924MOL0     H24695   3.730   7.999  -0.294 -0.5164 -1.8814 -0.5292
  924MOL0     H24696   3.847   8.147  -0.048 -1.4497  1.3082 -0.6192
  924MOL0     H24697   3.832   8.199  -0.223 -3.1742  0.2054  1.6809
  924MOL0     H24698   4.050   8.138  -0.208  0.3497 -1.3009 -2.7696
  924MOL0     H24699   3.992   7.978  -0.253  4.1570  0.6604 -1.2879
  924MOL0     H24700   4.092   7.768   0.084  1.1869  1.8933  0.2314
  924MOL0     H24701   4.287   7.620   0.069  1.4497 -2.9957 -1.9694
  924MOL0     H24702   4.756   7.686  -0.072 -2.1634 -1.2203  1.0235
  924MOL0     H24703   4.965   7.580  -0.079  0.5262  0.7352 -0.4504
  924MOL0     H24704   5.170   7.533  -0.147 -1.3963  2.1019 -3.8460
  924MOL0     H24705   5.179   7.358  -0.122  0.6572  1.3316  2.5710
  924MOL0     H24706   5.279   7.533  -0.344  0.2230 -0.3446  1.0678
  924MOL0     H24707   5.386   7.502  -0.206  2.2635  1.8585 -2.9229
  924MOL0     H24708   5.408   7.274  -0.275  0.1369  0.4450  0.3087
  924MOL0     H24709   5.283   7.297  -0.411 -0.5701 -2.0272  2.5832
  924MOL0     H24710   5.558   7.426  -0.385  2.9790  1.5976 -4.8359
  924MOL0     H24711   5.459   7.468  -0.511  2.6844  1.1842  1.1546
  924MOL0     H24712   5.580   7.190  -0.470 -1.7496  1.1016  0.9775
  924MOL0     H24713   5.617   7.313  -0.596 -0.5928  0.1666 -1.6343
  924MOL0     H24714   5.359   7.157  -0.561 -1.2275  2.5304  0.8741
  924MOL0     H24715   5.384   7.301  -0.662  0.5350 -0.3821 -0.2238
  924MOL0     H24716   5.395   7.110  -0.805  2.0490  2.6582 -2.1850
  924MOL0     H24717   5.509   7.023  -0.703  3.2019  1.3821  2.5265
  924MOL0     H24718   5.564   7.297  -0.835 -0.9897 -0.9345 -2.9476
  924MOL0     H24719   5.690   7.196  -0.771  0.4711  1.7790 -0.0423
  924MOL0     H24720   4.863   7.376  -0.446  0.6052 -0.3621  0.8458
  924MOL0     H24721   4.640   7.475  -0.422  1.3152 -0.2046 -1.0196
  924MOL0     H24722   4.390   7.818  -0.310 -1.8029  1.3100 -1.1024
  924MOL0     H24723   4.221   7.981  -0.273  0.4179 -1.3258 -0.1775
  924MOL0     H24724   2.237   8.420   0.130 -0.9258  1.0368  0.9147
  924MOL0     H24725   1.982   8.431   0.099  1.0589  2.5462 -1.1460
  924MOL0     H24726   1.629   8.430  -0.095  0.1320 -1.4321 -1.7648
  924MOL0     H24727   1.378   8.452  -0.041 -0.0388  0.1364 -1.6728
  924MOL0     H24728   1.186   8.120  -0.056 -0.7357 -0.4996  2.0874
  924MOL0     H24729   1.158   8.276  -0.116 -1.6568  0.0030 -0.3524
  924MOL0     H24730   0.962   8.310   0.041  1.9728  1.1396 -1.1694
  924MOL0     H24731   0.969   8.149   0.105 -1.8802 -0.2849 -0.5368
  924MOL0     H24732   0.943   8.062  -0.139  0.2534  1.0280 -0.5307
  924MOL0     H24733   0.892   8.230  -0.164  0.3587  0.2953  0.9185
  924MOL0     H24734   0.777   8.027   0.022  4.5370  0.8327  1.4629
  924MOL0     H24735   0.723   8.192   0.043 -2.6177 -1.3619  1.5151
  924MOL0     H24736   0.496   8.105  -0.302  0.6273 -2.5626 -0.9745
  924MOL0     H24737   1.363   8.051   0.086 -1.1617  0.8094  0.8884
  924MOL0     H24738   1.723   7.982  -0.022  0.5802  2.8120  0.5565
  924MOL0     H24739   1.672   7.977   0.150 -0.9684 -1.0965 -0.2995
  924MOL0     H24740   1.569   7.897   0.040  0.0204  0.3649  2.9362
  925MOL0     O24741   7.595   8.764   4.557 -0.4392 -0.8490 -0.1137
  925MOL0     C24742   7.577   8.867   4.494 -0.3921 -0.1347 -0.3542
  925MOL0     O24743   7.669   8.962   4.454  0.4193  0.4966 -0.2321
  925MOL0     C24744   7.802   8.931   4.473  0.3306 -0.8018  0.0915
  925MOL0     C24745   7.862   8.818   4.431 -0.4289  0.0904 -0.9302
  925MOL0     C24746   7.999   8.808   4.451  0.0333 -0.0146  0.3308
  925MOL0     C24747   8.078   8.912   4.505 -0.8376 -0.2417  0.2860
  925MOL0     O24748   8.212   8.903   4.533  0.0626  0.7562 -0.0632
  925MOL0     C24749   8.289   8.833   4.435 -0.0829 -0.2078 -0.1628
  925MOL0     C24750   8.423   8.910   4.412 -0.2921 -0.5469 -0.0064
  925MOL0     C24751   8.529   8.818   4.363  1.0631  0.6672 -0.9399
  925MOL0     C24752   8.670   8.878   4.382  1.1254 -0.6251  0.6623
  925MOL0     C24753   8.791   8.779   4.367  0.5563  0.4016 -0.0746
  925MOL0     C24754   8.925   8.851   4.371  0.5571 -0.1814 -0.6942
  925MOL0     C24755   9.047   8.764   4.349 -0.7089  0.3233 -0.0714
  925MOL0     C24756   9.175   8.843   4.313 -0.6454 -0.4780 -0.0108
  925MOL0     N24757   9.233   8.935   4.410  0.3037 -0.0746  0.0603
  925MOL0     C24758   9.223   9.075   4.407  0.5529 -0.4126 -0.5053
  925MOL0     C24759   9.306   9.119   4.515  0.0398  0.3178  0.4282
  925MOL0     C24760   9.312   9.265   4.563 -0.5551  0.4253 -0.3226
  925MOL0     C24761   9.457   9.303   4.546  0.0498 -0.0517 -0.5950
  925MOL0     C24762   9.497   9.437   4.614  1.3681 -0.2455 -0.6486
  925MOL0     C24763   9.651   9.466   4.616  0.5152 -0.4554  0.0961
  925MOL0     O24764   9.718   9.418   4.498  0.1376 -0.3923  0.0460
  925MOL0     C24765   9.855   9.432   4.509  0.3975  0.7003  0.0387
  925MOL0     C24766   9.928   9.407   4.391  0.0369  0.6795  0.2768
  925MOL0     C24767  10.069   9.418   4.388 -0.3016 -0.9079 -0.4704
  925MOL0     C24768  10.146   9.460   4.498  0.5987 -0.2557 -0.0116
  925MOL0     C24769  10.291   9.444   4.506 -0.5383 -0.4124  0.3343
  925MOL0     O24770  10.359   9.382   4.409  0.5940 -0.3672  0.0832
  925MOL0     C24771  10.496   9.383   4.404  0.7466 -0.6862 -0.0174
  925MOL0     C24772  10.585   9.387   4.510  0.1123 -0.1133 -0.3726
  925MOL0     C24773  10.721   9.397   4.490 -0.1882 -0.1352  0.6730
  925MOL0     C24774  10.776   9.391   4.360 -0.5926  0.2257 -0.8319
  925MOL0     O24775  10.910   9.391   4.319  0.6096 -0.6967 -0.3784
  925MOL0     C24776  11.012   9.387   4.424 -0.5162 -0.0538 -0.8525
  925MOL0     C24777  11.148   9.346   4.373  0.9472  0.4452  0.3999
  925MOL0     C24778  11.252   9.336   4.486  0.3122  0.3670 -0.2624
  925MOL0     C24779  11.387   9.306   4.431 -0.3022  0.4072  0.7329
  925MOL0     C24780  11.498   9.323   4.526 -0.4554 -0.5016  0.4819
  925MOL0     C24781  11.640   9.301   4.463 -0.4386  0.0371 -0.5041
  925MOL0     C24782  11.681   9.154   4.449  0.4418  0.5792  0.1513
  925MOL0     C24783  11.838   9.148   4.439  0.3199 -0.3465  0.1080
  925MOL0    Cl24784  11.909   9.233   4.306 -0.0917  0.2746 -0.1566
  925MOL0     C24785  10.688   9.387   4.255  0.4374  0.0370 -0.0344
  925MOL0     C24786  10.551   9.380   4.274 -0.0031 -0.1995  0.2194
  925MOL0     O24787  10.344   9.522   4.589  0.2935 -0.3917  0.1691
  925MOL0     C24788  10.070   9.492   4.612 -0.3895 -0.4094 -0.1135
  925MOL0     C24789   9.930   9.467   4.615  0.0361  0.7131  0.1314
  925MOL0     N24790   9.362   9.009   4.570 -0.0284 -0.6850  0.3455
  925MOL0     N24791   9.308   8.900   4.516  0.3330  0.3077 -0.2775
  925MOL0     C24792   8.008   9.024   4.551 -0.2008 -0.2504 -0.0080
  925MOL0     C24793   7.876   9.040   4.525 -0.0202  0.6025  0.0446
  925MOL0     C24794   7.434   8.889   4.448  0.8910 -0.2142  0.0268
  925MOL0     C24795   7.402   9.000   4.357  0.8316  0.1077 -0.2191
  925MOL0     C24796   7.278   9.023   4.303  0.4574 -0.4856  0.5943
  925MOL0     C24797   7.171   8.942   4.337 -0.1759  0.1821  0.4415
  925MOL0     O24798   7.055   8.964   4.273  0.2287  0.1286  0.1489
  925MOL0     C24799   6.941   8.875   4.300 -0.1013 -0.1908 -0.2883
  925MOL0     C24800   6.837   8.898   4.197 -0.2112 -0.0611 -0.8906
  925MOL0     C24801   6.744   8.773   4.185  0.5049  0.7800  0.4994
  925MOL0     C24802   6.622   8.812   4.113  0.0598 -1.0859  0.2191
  925MOL0     C24803   6.542   8.921   4.174  0.1882 -0.0281  0.3679
  925MOL0     C24804   6.482   9.003   4.236  0.8443 -0.1554 -0.2988
  925MOL0     C24805   7.192   8.843   4.433 -0.3673 -0.3565 -0.2746
  925MOL0     C24806   7.318   8.811   4.487 -0.7502  0.0417 -0.6796
  925MOL0     C24807   7.330   8.698   4.590 -0.5048 -0.2569  1.0886
  925MOL0     H24808   7.809   8.733   4.390 -1.8472 -2.1855  4.6715
  925MOL0     H24809   8.034   8.714   4.409  1.5947 -0.1585  1.8667
  925MOL0     H24810   8.314   8.732   4.468 -1.9559 -2.0265 -3.7449
  925MOL0     H24811   8.224   8.831   4.348 -1.6501 -0.1280  0.9749
  925MOL0     H24812   8.462   8.963   4.499  0.1432 -1.6327  0.4770
  925MOL0     H24813   8.398   8.986   4.338 -2.8474  0.3737  1.6844
  925MOL0     H24814   8.507   8.786   4.260  1.8122 -0.8377 -0.6661
  925MOL0     H24815   8.532   8.722   4.416  0.8765 -0.1318 -2.3265
  925MOL0     H24816   8.682   8.964   4.316  0.1151 -0.3962  0.7563
  925MOL0     H24817   8.671   8.930   4.479 -5.2742 -1.6379  1.7091
  925MOL0     H24818   8.792   8.711   4.453 -0.9395 -0.2253 -0.5137
  925MOL0     H24819   8.798   8.718   4.277  2.3485  1.8121 -0.9618
  925MOL0     H24820   8.915   8.923   4.289 -0.4197  0.0590 -0.3769
  925MOL0     H24821   8.920   8.907   4.465 -3.4763 -0.4665 -0.5906
  925MOL0     H24822   9.022   8.685   4.278 -2.8593 -0.5158  1.5171
  925MOL0     H24823   9.051   8.709   4.444 -0.9037 -0.4083 -0.4781
  925MOL0     H24824   9.257   8.777   4.287  1.9808  2.8213 -0.7978
  925MOL0     H24825   9.165   8.902   4.222  0.1746 -5.2778 -3.5816
  925MOL0     H24826   9.152   9.136   4.352  0.6561  1.7154  1.5689
  925MOL0     H24827   9.249   9.317   4.491  2.3761 -0.8469 -4.1327
  925MOL0     H24828   9.273   9.272   4.665 -2.3940 -1.0023 -0.8889
  925MOL0     H24829   9.518   9.228   4.597 -1.0557 -0.2764  0.4309
  925MOL0     H24830   9.487   9.307   4.440  3.7162  0.2890  0.3079
  925MOL0     H24831   9.453   9.444   4.714  0.3411 -1.2115 -1.0173
  925MOL0     H24832   9.449   9.513   4.552 -0.6598 -0.4528  0.5460
  925MOL0     H24833   9.690   9.420   4.707  0.3203  1.8541  1.3995
  925MOL0     H24834   9.662   9.573   4.632 -1.4687 -0.2570  0.4158
  925MOL0     H24835   9.866   9.371   4.309 -2.5822 -1.2262  2.8552
  925MOL0     H24836  10.125   9.396   4.298  0.6276  0.5536 -0.2883
  925MOL0     H24837  10.543   9.391   4.610  1.5806  2.6086  0.2499
  925MOL0     H24838  10.791   9.406   4.573 -1.9935  1.1037  2.1320
  925MOL0     H24839  11.008   9.479   4.483  1.6143 -0.2130 -0.3999
  925MOL0     H24840  10.993   9.311   4.501  0.3683  1.0662  0.5347
  925MOL0     H24841  11.144   9.251   4.319 -3.8616  1.0910 -0.8605
  925MOL0     H24842  11.171   9.428   4.304 -0.0155  1.8892  1.7446
  925MOL0     H24843  11.255   9.426   4.548 -3.4220 -0.0231  0.7509
  925MOL0     H24844  11.222   9.260   4.559  1.2589 -1.0130 -1.2711
  925MOL0     H24845  11.407   9.367   4.342 -0.0125  0.3655  0.7682
  925MOL0     H24846  11.388   9.201   4.401  1.4769 -0.2086  2.7146
  925MOL0     H24847  11.485   9.242   4.599 -2.3782 -1.1591 -0.5206
  925MOL0     H24848  11.497   9.419   4.579  2.2250 -0.3683  0.3997
  925MOL0     H24849  11.640   9.354   4.367 -1.0714  0.2561 -0.3887
  925MOL0     H24850  11.721   9.339   4.525  1.0101 -2.2593 -0.8872
  925MOL0     H24851  11.635   9.097   4.368  1.5208 -0.7658  0.4414
  925MOL0     H24852  11.648   9.108   4.543  1.3679  2.1916  1.3191
  925MOL0     H24853  11.890   9.180   4.529  0.0545 -2.1905  0.9505
  925MOL0     H24854  11.868   9.045   4.422 -1.5404 -0.9052  0.0416
  925MOL0     H24855  10.734   9.388   4.157  1.1107  2.8790  0.2265
  925MOL0     H24856  10.472   9.378   4.199 -2.4688  1.4179  2.5873
  925MOL0     H24857  10.113   9.522   4.707 -0.5536 -0.2544 -0.0877
  925MOL0     H24858   9.892   9.501   4.711 -1.1331 -2.4455  0.9268
  925MOL0     H24859   8.063   9.094   4.611 -1.8558  0.4169  0.7874
  925MOL0     H24860   7.822   9.128   4.557 -1.6879  0.2764 -1.6550
  925MOL0     H24861   7.488   9.061   4.330  1.6802 -1.2021 -0.6039
  925MOL0     H24862   7.258   9.101   4.231 -2.3026 -1.0361  0.6492
  925MOL0     H24863   6.909   8.883   4.404  2.3610  2.4606  0.3976
  925MOL0     H24864   6.982   8.774   4.287 -0.0267 -0.5754  2.4321
  925MOL0     H24865   6.891   8.923   4.106 -1.3121  1.2729 -1.2259
  925MOL0     H24866   6.776   8.986   4.223 -0.2781  0.4149 -2.5708
  925MOL0     H24867   6.710   8.724   4.277 -2.1438 -1.6455 -1.6015
  925MOL0     H24868   6.799   8.697   4.130  3.8504  1.1532  3.0223
  925MOL0     H24869   6.651   8.838   4.011  1.1263  2.2890  1.2200
  925MOL0     H24870   6.564   8.720   4.109 -0.5928 -0.6360 -2.2217
  925MOL0     H24871   6.429   9.073   4.297  0.0638  0.2929 -1.4666
  925MOL0     H24872   7.108   8.787   4.473 -1.2002  0.7811 -0.3763
  925MOL0     H24873   7.384   8.614   4.546 -2.9091 -0.0117 -2.8510
  925MOL0     H24874   7.368   8.732   4.687 -0.5165  3.3330 -0.0283
  925MOL0     H24875   7.229   8.658   4.603 -0.1935 -0.5965  2.7577
  926MOL0     O24876   2.520   3.199   4.523 -0.1293 -0.1112 -0.2307
  926MOL0     C24877   2.585   3.219   4.623 -1.1434  0.3135 -0.4009
  926MOL0     O24878   2.535   3.245   4.749 -0.4360 -0.0007  0.5920
  926MOL0     C24879   2.398   3.263   4.761  0.1188  0.3887 -0.4749
  926MOL0     C24880   2.336   3.195   4.862  0.5917 -0.9584 -0.7031
  926MOL0     C24881   2.202   3.214   4.891  0.3521  0.8399 -0.2573
  926MOL0     C24882   2.122   3.289   4.809  1.0655  0.5248  0.4943
  926MOL0     O24883   1.990   3.290   4.845  0.4249  0.3158  0.4498
  926MOL0     C24884   1.913   3.382   4.765 -0.2583  0.2756  0.8183
  926MOL0     C24885   1.767   3.375   4.806 -0.0256 -1.3473  0.0797
  926MOL0     C24886   1.680   3.459   4.706  0.0581  0.0124 -0.1677
  926MOL0     C24887   1.530   3.420   4.736  0.3581 -0.3597  0.2241
  926MOL0     C24888   1.422   3.489   4.653  0.3760  0.6711  0.2268
  926MOL0     C24889   1.288   3.422   4.654  0.6308  0.2860 -0.1465
  926MOL0     C24890   1.179   3.522   4.614  0.5730  0.1106  0.5807
  926MOL0     C24891   1.044   3.462   4.649 -0.1235  0.3104 -0.4601
  926MOL0     N24892   1.036   3.321   4.606  0.0355 -0.3465  0.3566
  926MOL0     C24893   1.021   3.284   4.472  0.8422 -0.5344 -0.1565
  926MOL0     C24894   1.033   3.148   4.476  1.0870  0.6828  1.6546
  926MOL0     C24895   1.033   3.060   4.355  0.4753 -0.1372 -0.0924
  926MOL0     C24896   1.171   3.025   4.322  0.0557 -0.3444 -0.0195
  926MOL0     C24897   1.226   2.900   4.401 -0.1707 -0.9964  0.0052
  926MOL0     C24898   1.372   2.867   4.378 -0.0653 -0.1636  0.4545
  926MOL0     O24899   1.461   2.959   4.442  0.4430  0.0080 -0.2118
  926MOL0     C24900   1.594   2.908   4.457 -0.3025 -0.3712  0.7027
  926MOL0     C24901   1.683   2.980   4.536  0.2045  0.2748  0.0932
  926MOL0     C24902   1.813   2.937   4.553  0.9706 -0.1347 -0.3808
  926MOL0     C24903   1.866   2.825   4.481  0.3809 -1.2264 -0.4251
  926MOL0     C24904   2.004   2.784   4.503  0.0264  0.2435  0.0578
  926MOL0     O24905   2.082   2.862   4.585 -0.3572  0.1450 -0.0159
  926MOL0     C24906   2.206   2.831   4.634  0.0692  0.1165 -0.3800
  926MOL0     C24907   2.311   2.925   4.641  0.0614 -0.7443  0.0645
  926MOL0     C24908   2.430   2.894   4.707  0.8238  0.0871  0.0384
  926MOL0     C24909   2.441   2.767   4.769 -0.5635 -0.2849  0.2631
  926MOL0     O24910   2.556   2.715   4.815 -0.2529  0.3281  0.1371
  926MOL0     C24911   2.681   2.782   4.789  0.3517 -0.0177  0.1707
  926MOL0     C24912   2.800   2.702   4.857  0.4794  0.4891 -0.2689
  926MOL0     C24913   2.939   2.722   4.797 -0.5858 -0.3557 -0.1167
  926MOL0     C24914   3.054   2.659   4.880  0.3583  1.0982 -0.2934
  926MOL0     C24915   3.194   2.671   4.820  0.5011  0.4692  0.0545
  926MOL0     C24916   3.212   2.576   4.695 -0.6024 -0.2767  0.0692
  926MOL0     C24917   3.353   2.570   4.629  0.4233  0.4686 -0.1290
  926MOL0     C24918   3.423   2.706   4.626  0.1016  0.1792 -0.3057
  926MOL0    Cl24919   3.353   2.800   4.489 -0.0340  0.1313 -0.0993
  926MOL0     C24920   2.340   2.681   4.762  0.1042 -0.0674 -0.1612
  926MOL0     C24921   2.226   2.703   4.699  0.5740 -0.1181  0.6361
  926MOL0     O24922   2.045   2.687   4.438  0.0375 -0.0596 -0.4007
  926MOL0     C24923   1.777   2.761   4.393 -0.2449  0.1013 -0.5182
  926MOL0     C24924   1.646   2.801   4.387 -0.9127 -0.6142  0.3718
  926MOL0     N24925   1.019   3.108   4.612  0.1392  0.3400  0.1472
  926MOL0     N24926   1.025   3.212   4.686  0.3041 -0.0094 -0.1729
  926MOL0     C24927   2.178   3.349   4.700  0.0528  0.1783  1.5500
  926MOL0     C24928   2.318   3.341   4.674  1.0028 -0.4420  0.2478
  926MOL0     C24929   2.733   3.200   4.621  0.6152  0.1666 -0.6895
  926MOL0     C24930   2.801   3.231   4.742 -0.6428  0.7691 -0.6749
  926MOL0     C24931   2.933   3.222   4.763  0.1126  0.2181  0.7207
  926MOL0     C24932   3.015   3.181   4.658 -0.3218  0.9447  0.2576
  926MOL0     O24933   3.149   3.169   4.694  0.4996  0.0434  0.2923
  926MOL0     C24934   3.235   3.106   4.602 -0.2545 -0.3477  0.3692
  926MOL0     C24935   3.378   3.150   4.620 -0.3984 -1.1393  0.3891
  926MOL0     C24936   3.428   3.146   4.771 -0.1606  1.2255  0.5083
  926MOL0     C24937   3.569   3.202   4.779  1.0689 -0.3383 -0.6252
  926MOL0     C24938   3.563   3.352   4.781 -0.1500  0.2607 -0.9640
  926MOL0     C24939   3.555   3.479   4.789  0.6248  0.1506  0.1362
  926MOL0     C24940   2.952   3.140   4.535 -0.0941  0.0356 -0.1448
  926MOL0     C24941   2.812   3.158   4.508  0.3315 -0.2862  0.4436
  926MOL0     C24942   2.758   3.119   4.376  0.7818  0.2755 -0.7639
  926MOL0     H24943   2.386   3.127   4.929 -0.0532  1.3132  2.3001
  926MOL0     H24944   2.162   3.157   4.974  0.5384  1.6124  0.3728
  926MOL0     H24945   1.945   3.486   4.776 -1.1260  0.4021  2.5823
  926MOL0     H24946   1.924   3.339   4.665  0.8350  0.5189  0.8257
  926MOL0     H24947   1.753   3.416   4.906  3.6355 -0.4952  0.3705
  926MOL0     H24948   1.735   3.270   4.804  1.1746 -1.7284 -0.0231
  926MOL0     H24949   1.712   3.446   4.602  1.6614 -2.9674  0.5901
  926MOL0     H24950   1.690   3.564   4.734  0.3714 -0.1012  0.1482
  926MOL0     H24951   1.516   3.314   4.710 -2.2272  0.0444 -0.2855
  926MOL0     H24952   1.503   3.444   4.839 -3.6538  0.9823 -0.9382
  926MOL0     H24953   1.408   3.588   4.696 -1.1946  0.5472  0.0363
  926MOL0     H24954   1.464   3.488   4.552  0.8425  1.4096  0.4077
  926MOL0     H24955   1.290   3.333   4.591  1.7792 -2.8107  3.8120
  926MOL0     H24956   1.272   3.363   4.745 -1.2441 -0.9134 -1.1915
  926MOL0     H24957   1.187   3.550   4.508 -1.7835  0.2245  0.3656
  926MOL0     H24958   1.185   3.607   4.682  0.2368 -2.7326  4.4962
  926MOL0     H24959   1.035   3.456   4.758  0.6530 -1.0466 -0.4562
  926MOL0     H24960   0.971   3.534   4.610  3.4288  5.6170  1.4525
  926MOL0     H24961   1.005   3.351   4.388 -0.0708 -0.2334  0.2434
  926MOL0     H24962   0.978   2.969   4.380  0.6747 -0.4731 -0.8755
  926MOL0     H24963   0.981   3.115   4.276  0.7296  2.0824  1.1743
  926MOL0     H24964   1.185   3.008   4.215 -0.0448  0.9262 -0.2502
  926MOL0     H24965   1.241   3.107   4.341  2.2981 -1.8076 -1.4396
  926MOL0     H24966   1.157   2.820   4.373 -0.3661 -1.3904  1.5254
  926MOL0     H24967   1.215   2.921   4.508  0.0584 -0.3005 -0.0982
  926MOL0     H24968   1.378   2.861   4.269 -1.4730 -1.6692  0.4257
  926MOL0     H24969   1.385   2.766   4.419  2.0492  0.6194  1.9097
  926MOL0     H24970   1.634   3.060   4.589  1.1618  1.8116 -1.2441
  926MOL0     H24971   1.876   2.980   4.630  2.2217  0.8845 -1.9019
  926MOL0     H24972   2.296   3.020   4.591 -0.2672 -1.0721 -0.4733
  926MOL0     H24973   2.519   2.956   4.710  1.5890 -0.8100  5.0009
  926MOL0     H24974   2.695   2.784   4.681 -1.6225 -1.8975 -0.1906
  926MOL0     H24975   2.688   2.887   4.819 -2.3685  0.4779 -0.6516
  926MOL0     H24976   2.794   2.721   4.965 -0.7818  1.4247 -0.4832
  926MOL0     H24977   2.775   2.599   4.832 -0.4721  1.0418 -1.7656
  926MOL0     H24978   2.940   2.677   4.697 -0.5828 -1.0438  0.1833
  926MOL0     H24979   2.955   2.829   4.784  0.6323 -0.5448 -0.3083
  926MOL0     H24980   3.034   2.553   4.898  1.4408  1.2161  2.0895
  926MOL0     H24981   3.055   2.703   4.981  0.6046  2.6589 -0.9496
  926MOL0     H24982   3.261   2.646   4.904  0.1035  0.5157  0.3888
  926MOL0     H24983   3.206   2.774   4.787 -0.2435 -0.7870 -4.8329
  926MOL0     H24984   3.185   2.472   4.710  0.7468 -1.0117 -2.1050
  926MOL0     H24985   3.147   2.616   4.616 -0.3022 -0.7550 -0.4273
  926MOL0     H24986   3.342   2.524   4.531  1.3095 -0.7363  0.3133
  926MOL0     H24987   3.408   2.495   4.687  0.5421  1.1338  0.6431
  926MOL0     H24988   3.416   2.768   4.717  0.4005  0.4805 -0.4849
  926MOL0     H24989   3.529   2.690   4.602  0.2185 -0.1972  0.4319
  926MOL0     H24990   2.344   2.583   4.809  0.1629 -0.2138 -0.4702
  926MOL0     H24991   2.158   2.619   4.700 -0.4052  0.6534  1.0423
  926MOL0     H24992   1.798   2.670   4.337 -0.9741 -0.9016  0.7875
  926MOL0     H24993   1.583   2.746   4.318  0.2890 -1.7150  0.1166
  926MOL0     H24994   2.110   3.391   4.627  1.0376 -1.1488 -0.1978
  926MOL0     H24995   2.366   3.388   4.589 -0.1564 -0.3864 -0.3947
  926MOL0     H24996   2.751   3.258   4.834 -1.5471 -0.4357 -0.7838
  926MOL0     H24997   2.980   3.238   4.860 -0.3349  0.8629  0.8421
  926MOL0     H24998   3.216   3.127   4.497  0.6604 -0.4047  0.1830
  926MOL0     H24999   3.232   2.998   4.618 -0.8396 -0.3788  0.0638
  926MOL0     H25000   3.381   3.250   4.577 -0.0041 -0.8848  0.9897
  926MOL0     H25001   3.439   3.081   4.560  1.4910 -0.9953  2.0296
  926MOL0     H25002   3.423   3.040   4.796 -2.6506  0.6466 -1.9729
  926MOL0     H25003   3.370   3.203   4.843  0.4315  0.6097  1.4957
  926MOL0     H25004   3.613   3.172   4.875  0.3927 -0.7924 -0.4481
  926MOL0     H25005   3.636   3.162   4.701  1.3146  1.5502 -1.4393
  926MOL0     H25006   3.535   3.584   4.792  0.5565  0.1304  0.3543
  926MOL0     H25007   3.007   3.077   4.466  0.3252 -1.1151  1.1876
  926MOL0     H25008   2.696   3.199   4.335 -2.4032 -0.9120  1.3783
  926MOL0     H25009   2.838   3.088   4.308 -0.4539  1.3659 -2.8391
  926MOL0     H25010   2.684   3.039   4.383 -1.5241  2.2514 -1.2090
  927MOL0     O25011   1.401   2.086   6.446 -0.3227 -0.0429  0.3824
  927MOL0     C25012   1.402   1.973   6.410  0.1143 -0.2995 -0.4000
  927MOL0     O25013   1.485   1.874   6.449 -0.3107  0.2850  0.5146
  927MOL0     C25014   1.605   1.913   6.498 -0.4886  0.1440 -0.8324
  927MOL0     C25015   1.713   1.884   6.407  0.2983 -0.3394  0.1530
  927MOL0     C25016   1.849   1.908   6.433  0.2255 -0.0083  0.4276
  927MOL0     C25017   1.881   1.974   6.555  0.6234  0.3160  0.6950
  927MOL0     O25018   2.012   2.003   6.596  0.4568  0.0581 -0.6956
  927MOL0     C25019   2.107   1.966   6.501  0.6366 -0.6427 -0.3671
  927MOL0     C25020   2.229   2.038   6.555 -0.1170  0.2089  0.0575
  927MOL0     C25021   2.281   1.978   6.694  0.6652  0.6967 -0.3053
  927MOL0     C25022   2.375   2.084   6.759 -0.5576  0.6438  0.5377
  927MOL0     C25023   2.465   2.013   6.858  0.8896 -0.0860 -0.6318
  927MOL0     C25024   2.569   1.933   6.792  0.5222  0.2811  0.5663
  927MOL0     C25025   2.658   1.860   6.904 -0.1756  0.5360  1.1707
  927MOL0     C25026   2.759   1.765   6.827  0.1741  0.2590  0.2362
  927MOL0     N25027   2.860   1.713   6.918 -0.6175 -0.5803  0.6542
  927MOL0     C25028   2.842   1.625   7.026  0.5710  0.7518 -0.4493
  927MOL0     C25029   2.953   1.624   7.099 -0.1332  0.1719  0.3388
  927MOL0     C25030   2.972   1.542   7.224  0.2078 -0.6337  0.0895
  927MOL0     C25031   3.085   1.448   7.204  0.0842  0.1800  0.1118
  927MOL0     C25032   3.094   1.365   7.329 -0.5593 -0.2656  0.1606
  927MOL0     C25033   3.209   1.272   7.333  0.9090  0.4085 -0.5658
  927MOL0     O25034   3.323   1.350   7.351 -0.4173 -0.1958 -0.1704
  927MOL0     C25035   3.444   1.281   7.364  0.7259 -0.3095  0.3680
  927MOL0     C25036   3.507   1.216   7.259 -0.3660 -0.2497 -0.6649
  927MOL0     C25037   3.630   1.153   7.279  0.6067 -0.8998 -0.5112
  927MOL0     C25038   3.699   1.166   7.406  0.3132  0.5177  0.1967
  927MOL0     C25039   3.829   1.092   7.430  0.3601  0.3304  0.2112
  927MOL0     O25040   3.873   1.025   7.317  0.3082 -0.5155 -0.2268
  927MOL0     C25041   3.990   0.958   7.339 -0.6567 -0.4969  0.0223
  927MOL0     C25042   3.988   0.833   7.398 -0.2282 -0.3189 -0.1247
  927MOL0     C25043   4.095   0.751   7.408  0.6496 -0.3680  1.0459
  927MOL0     C25044   4.216   0.795   7.363 -0.3034  0.0505  1.1679
  927MOL0     O25045   4.321   0.701   7.380  0.0424  0.1997 -0.2150
  927MOL0     C25046   4.451   0.760   7.367  0.3618 -0.3502 -0.1427
  927MOL0     C25047   4.556   0.671   7.430  0.1906 -0.0115 -0.3454
  927MOL0     C25048   4.694   0.729   7.435  0.4194 -0.1138  0.1767
  927MOL0     C25049   4.792   0.673   7.540  0.0422  0.0441 -0.3441
  927MOL0     C25050   4.939   0.671   7.491 -0.6280 -0.1505  0.0542
  927MOL0     C25051   5.029   0.622   7.606 -0.3487  0.2591 -0.0620
  927MOL0     C25052   5.149   0.714   7.640 -0.0819 -0.5509  0.8419
  927MOL0     C25053   5.219   0.683   7.767  0.8422  0.6630 -0.4862
  927MOL0    Cl25054   5.329   0.810   7.794  0.0112  0.5947 -0.6190
  927MOL0     C25055   4.230   0.918   7.306  0.1064 -0.3297  0.2123
  927MOL0     C25056   4.113   1.001   7.285  0.4663 -0.2709 -0.3318
  927MOL0     O25057   3.883   1.101   7.540 -0.3619  0.7369 -0.0524
  927MOL0     C25058   3.632   1.223   7.510 -0.8585  0.7222 -0.6801
  927MOL0     C25059   3.506   1.283   7.491  0.8163 -0.5256  0.8261
  927MOL0     N25060   3.045   1.686   7.016 -0.7688  0.6515  0.1222
  927MOL0     N25061   2.995   1.741   6.911 -0.0438  0.3318  0.1582
  927MOL0     C25062   1.774   1.999   6.647 -0.9987 -0.0702  0.0036
  927MOL0     C25063   1.640   1.969   6.626  0.7365  0.7832 -0.2254
  927MOL0     C25064   1.284   1.935   6.326 -0.2287  0.2866  0.2376
  927MOL0     C25065   1.249   1.798   6.310  0.4084  0.4827 -0.3422
  927MOL0     C25066   1.154   1.750   6.227 -0.2653  0.5080 -0.5715
  927MOL0     C25067   1.071   1.848   6.162 -0.3662  0.1660  0.1791
  927MOL0     O25068   0.963   1.822   6.085  0.2474 -0.0350  0.8618
  927MOL0     C25069   0.926   1.689   6.047 -0.0527 -0.0372  0.7549
  927MOL0     C25070   0.788   1.697   5.988  0.6115  0.0762  0.3535
  927MOL0     C25071   0.779   1.793   5.867 -0.8504  0.2653  0.3159
  927MOL0     C25072   0.643   1.841   5.834  0.7117  0.8300 -0.5429
  927MOL0     C25073   0.547   1.726   5.822 -0.1219  0.1770 -0.1142
  927MOL0     C25074   0.477   1.628   5.836 -0.5220 -0.4322  0.5798
  927MOL0     C25075   1.105   1.986   6.175  0.8849  0.2247 -0.0815
  927MOL0     C25076   1.213   2.024   6.248 -0.2302 -1.1021 -0.8902
  927MOL0     C25077   1.237   2.175   6.238  0.2578 -0.3994 -0.1538
  927MOL0     H25078   1.687   1.838   6.312 -0.7821 -1.1659  0.8341
  927MOL0     H25079   1.920   1.868   6.361  1.4918 -0.5684  1.9421
  927MOL0     H25080   2.138   1.861   6.501 -1.8759 -1.4599  0.7747
  927MOL0     H25081   2.092   1.995   6.397  0.6852 -0.8545 -0.4338
  927MOL0     H25082   2.208   2.145   6.555 -1.2912  0.0037  0.7349
  927MOL0     H25083   2.301   2.028   6.473 -1.1776 -1.6520 -0.7215
  927MOL0     H25084   2.328   1.883   6.669 -0.7829 -0.0832 -0.1827
  927MOL0     H25085   2.191   1.964   6.755 -1.8764 -3.7776 -4.3582
  927MOL0     H25086   2.432   2.121   6.674  1.1707 -5.5080 -1.4913
  927MOL0     H25087   2.310   2.163   6.798 -2.0644  0.4554 -1.4470
  927MOL0     H25088   2.514   2.079   6.930  1.3458  0.2043 -1.2037
  927MOL0     H25089   2.402   1.944   6.915  0.3833 -0.0901 -1.1847
  927MOL0     H25090   2.527   1.848   6.737 -0.0554  0.1211  1.2464
  927MOL0     H25091   2.628   1.986   6.716 -1.8689 -0.3600 -1.9032
  927MOL0     H25092   2.603   1.794   6.972 -1.1509 -2.2124 -2.0193
  927MOL0     H25093   2.716   1.941   6.948  2.4219 -0.6634  0.1260
  927MOL0     H25094   2.705   1.681   6.783  1.5273 -1.4261  1.6254
  927MOL0     H25095   2.810   1.822   6.749 -0.4281 -0.5495 -0.7745
  927MOL0     H25096   2.753   1.574   7.063 -1.0568  2.7779 -1.3249
  927MOL0     H25097   2.988   1.614   7.305 -2.5194 -1.9190  1.8940
  927MOL0     H25098   2.882   1.483   7.239  1.3856 -2.0011  2.3087
  927MOL0     H25099   3.059   1.376   7.126 -2.2534 -1.2954  2.1218
  927MOL0     H25100   3.171   1.513   7.185 -0.8759  1.2837 -0.5505
  927MOL0     H25101   2.999   1.311   7.331 -0.5457 -0.3361 -0.8113
  927MOL0     H25102   3.095   1.426   7.420  0.0081  0.3521 -0.2486
  927MOL0     H25103   3.211   1.209   7.243 -0.8875 -1.9724  0.9283
  927MOL0     H25104   3.205   1.205   7.420  1.8453  1.3327  0.2176
  927MOL0     H25105   3.455   1.210   7.165 -1.2439  0.8658 -0.2776
  927MOL0     H25106   3.682   1.119   7.190  2.8053  0.0155  0.3352
  927MOL0     H25107   3.893   0.803   7.439 -0.7251 -1.1834 -1.8126
  927MOL0     H25108   4.092   0.654   7.456 -0.7154 -0.5272  0.6817
  927MOL0     H25109   4.472   0.749   7.260 -2.3191 -4.5225 -0.4686
  927MOL0     H25110   4.450   0.863   7.405  0.0848 -0.2843 -0.3182
  927MOL0     H25111   4.525   0.645   7.532  3.2840  0.3561  0.8137
  927MOL0     H25112   4.553   0.578   7.372 -0.3519  0.3267 -0.8600
  927MOL0     H25113   4.734   0.713   7.334 -0.4474  0.4923 -0.2714
  927MOL0     H25114   4.686   0.837   7.450  0.4576 -0.0143 -0.5031
  927MOL0     H25115   4.750   0.573   7.555 -0.6443  0.3892  0.0693
  927MOL0     H25116   4.784   0.720   7.638  1.7315 -2.7633  1.2449
  927MOL0     H25117   4.976   0.768   7.457  1.9211 -1.3086 -0.6673
  927MOL0     H25118   4.932   0.601   7.407 -2.6713 -2.3922  1.9406
  927MOL0     H25119   4.974   0.607   7.699  1.0875 -3.6481  0.3453
  927MOL0     H25120   5.054   0.516   7.588 -2.1260 -0.2150  0.1285
  927MOL0     H25121   5.105   0.814   7.647 -0.5158 -0.7729  1.3922
  927MOL0     H25122   5.223   0.713   7.560 -2.0113  3.0874 -1.2768
  927MOL0     H25123   5.143   0.671   7.844  1.4073 -0.3674 -0.0705
  927MOL0     H25124   5.269   0.586   7.759 -0.3929 -0.7260  5.0164
  927MOL0     H25125   4.322   0.964   7.273  0.3066 -0.0470  1.1549
  927MOL0     H25126   4.127   1.096   7.235  1.7128 -0.1574  0.1926
  927MOL0     H25127   3.683   1.221   7.606  0.7595  3.4803 -1.3749
  927MOL0     H25128   3.454   1.337   7.569 -0.1633 -1.5528  0.8980
  927MOL0     H25129   1.793   2.056   6.738 -0.0247 -1.4112  0.6691
  927MOL0     H25130   1.559   1.998   6.692 -1.4259 -2.8144 -1.0447
  927MOL0     H25131   1.300   1.724   6.371 -0.5308  2.4556  3.1346
  927MOL0     H25132   1.131   1.643   6.223  2.5834 -0.2207  0.4298
  927MOL0     H25133   0.913   1.615   6.127 -0.3942  0.6650  1.3565
  927MOL0     H25134   0.991   1.641   5.973  1.0143 -0.0968  1.7135
  927MOL0     H25135   0.715   1.724   6.064  1.4356 -0.6700  1.4406
  927MOL0     H25136   0.767   1.598   5.945  0.8507  0.7225 -1.3283
  927MOL0     H25137   0.824   1.753   5.775 -1.1484  1.1057 -0.2104
  927MOL0     H25138   0.834   1.884   5.893  1.5592 -1.0121  0.0586
  927MOL0     H25139   0.607   1.902   5.917  1.1218  1.0559 -0.5314
  927MOL0     H25140   0.645   1.901   5.742 -1.6149  0.5189 -0.8579
  927MOL0     H25141   0.410   1.547   5.854  1.2806 -1.6870  1.9905
  927MOL0     H25142   1.043   2.057   6.120  0.1664  1.1898  1.8657
  927MOL0     H25143   1.143   2.225   6.212 -2.2582 -1.8251  4.8094
  927MOL0     H25144   1.250   2.216   6.338 -0.8751 -1.0401  0.2833
  927MOL0     H25145   1.320   2.198   6.171 -0.7081 -1.3518 -1.7703
  928MOL0     O25146   7.403   2.987   1.461  0.3041 -0.1191 -0.5224
  928MOL0     C25147   7.494   2.906   1.476 -0.1904 -0.8941 -0.3911
  928MOL0     O25148   7.480   2.770   1.473  0.2905  0.4113 -0.1515
  928MOL0     C25149   7.364   2.712   1.428 -0.6127 -0.0089 -0.2998
  928MOL0     C25150   7.266   2.765   1.340  0.1954  0.1559 -0.6707
  928MOL0     C25151   7.145   2.695   1.317 -0.4794 -0.3687  0.7555
  928MOL0     C25152   7.127   2.564   1.364  0.5198  0.5822  0.6894
  928MOL0     O25153   7.004   2.508   1.332  0.5090  0.0722  0.2598
  928MOL0     C25154   6.961   2.391   1.411 -0.2580 -0.1933  0.7411
  928MOL0     C25155   6.814   2.368   1.400  0.5372  0.0474 -0.0885
  928MOL0     C25156   6.739   2.486   1.469 -0.3940  0.8634  0.2757
  928MOL0     C25157   6.584   2.478   1.441 -0.2036  0.4735  0.7281
  928MOL0     C25158   6.508   2.598   1.508  0.1655  0.2025  0.7774
  928MOL0     C25159   6.373   2.634   1.429  0.0052 -0.2240  0.3740
  928MOL0     C25160   6.306   2.740   1.510  0.0794 -0.1675  0.1753
  928MOL0     C25161   6.364   2.872   1.493 -0.1429 -1.6305  0.0012
  928MOL0     N25162   6.368   2.910   1.350 -0.1840  0.2183  0.5685
  928MOL0     C25163   6.258   2.958   1.289  0.4281  0.6447  0.6300
  928MOL0     C25164   6.304   2.993   1.162  0.4965  0.1845 -0.5717
  928MOL0     C25165   6.221   3.045   1.046  0.0576 -0.1791 -0.2998
  928MOL0     C25166   6.141   2.932   0.980  0.6933 -0.1308 -0.3454
  928MOL0     C25167   6.208   2.896   0.852 -1.0896  0.2306 -0.3219
  928MOL0     C25168   6.359   2.889   0.860  0.7058  0.9813  0.1796
  928MOL0     O25169   6.399   2.847   0.732  0.7431  0.5780  0.1180
  928MOL0     C25170   6.520   2.902   0.693 -0.7795  0.1033  0.8306
  928MOL0     C25171   6.528   2.923   0.551 -0.1902 -0.0017 -0.7163
  928MOL0     C25172   6.661   2.932   0.503  0.0631 -0.3038  0.5656
  928MOL0     C25173   6.777   2.948   0.583  1.0251  0.3254  0.1765
  928MOL0     C25174   6.905   2.966   0.519  0.5201  0.7004 -0.3603
  928MOL0     O25175   7.019   2.968   0.597 -0.1348 -0.1348  0.3651
  928MOL0     C25176   7.150   2.973   0.544  0.5165 -0.1214  0.5238
  928MOL0     C25177   7.194   2.929   0.422 -0.3864 -0.1837 -0.4128
  928MOL0     C25178   7.328   2.955   0.390  0.3445  0.2035 -0.0843
  928MOL0     C25179   7.416   3.018   0.486  0.3559  1.1708  0.3926
  928MOL0     O25180   7.547   3.052   0.467 -0.1339  0.3794  0.2569
  928MOL0     C25181   7.653   2.976   0.538  0.8634  0.1288 -0.8759
  928MOL0     C25182   7.769   2.945   0.435 -0.0960 -0.0362 -0.6286
  928MOL0     C25183   7.826   3.079   0.364 -0.2580  0.3317 -0.1672
  928MOL0     C25184   7.906   3.048   0.238 -0.0909  0.1463  0.1795
  928MOL0     C25185   8.043   2.997   0.275 -1.0860 -0.3545 -0.0502
  928MOL0     C25186   8.128   2.972   0.148 -0.2906  0.0536  0.8549
  928MOL0     C25187   8.261   2.896   0.182  0.3404  0.2325  1.2785
  928MOL0     C25188   8.220   2.750   0.211  1.1006  0.3647  0.1817
  928MOL0    Cl25189   8.365   2.663   0.276  0.0062 -0.1223  0.1396
  928MOL0     C25190   7.375   3.049   0.608  0.1387 -0.4411 -0.3366
  928MOL0     C25191   7.235   3.037   0.635  0.4388  0.0275  0.4631
  928MOL0     O25192   6.899   2.984   0.396  0.4218  0.5032  0.3364
  928MOL0     C25193   6.762   2.937   0.723 -0.0549  1.0401  0.7388
  928MOL0     C25194   6.630   2.922   0.771  0.3671 -0.0032 -0.2065
  928MOL0     N25195   6.435   2.963   1.162 -0.1535  0.4901 -0.6822
  928MOL0     N25196   6.475   2.918   1.271  0.8868  0.0450 -0.2508
  928MOL0     C25197   7.223   2.515   1.451 -0.3983  0.1447 -1.0844
  928MOL0     C25198   7.354   2.578   1.470  0.4534  0.7320  0.8872
  928MOL0     C25199   7.630   2.954   1.509  0.3382  0.9559 -0.4451
  928MOL0     C25200   7.727   2.854   1.553 -0.2171 -0.0398 -0.0871
  928MOL0     C25201   7.860   2.893   1.572 -0.4939  0.3396 -0.9885
  928MOL0     C25202   7.894   3.032   1.569 -0.2875  0.7260 -0.0528
  928MOL0     O25203   8.019   3.066   1.608 -0.0781  0.2074  0.1396
  928MOL0     C25204   8.055   3.201   1.645  0.2022 -0.0765  0.7546
  928MOL0     C25205   8.205   3.192   1.657 -0.3022  0.0011 -0.0273
  928MOL0     C25206   8.270   3.315   1.712  0.6524  0.1251  0.7227
  928MOL0     C25207   8.426   3.327   1.720 -0.6354 -0.6330  0.0655
  928MOL0     C25208   8.483   3.334   1.583 -0.3292 -0.4341  0.4971
  928MOL0     C25209   8.515   3.341   1.472 -0.7413 -0.4310  0.4973
  928MOL0     C25210   7.797   3.125   1.536  0.0044 -0.3407  0.5426
  928MOL0     C25211   7.672   3.092   1.497  0.5169  0.8543  0.6846
  928MOL0     C25212   7.571   3.195   1.471 -0.4727  0.5216 -0.0111
  928MOL0     H25213   7.261   2.864   1.296  0.4389 -0.5829 -2.4260
  928MOL0     H25214   7.067   2.739   1.256 -0.8561 -0.3977  1.2043
  928MOL0     H25215   7.014   2.298   1.389  1.3274  0.3183  2.2289
  928MOL0     H25216   6.965   2.416   1.518 -0.8786 -1.4632  1.0828
  928MOL0     H25217   6.798   2.281   1.464 -0.1978  0.5001  0.3542
  928MOL0     H25218   6.774   2.360   1.298 -1.6036  1.9193  0.5103
  928MOL0     H25219   6.785   2.582   1.444  0.2633  0.5646  0.2863
  928MOL0     H25220   6.765   2.477   1.575  3.6871 -1.0576 -0.6624
  928MOL0     H25221   6.559   2.479   1.335  0.1089  1.1431  0.6603
  928MOL0     H25222   6.552   2.377   1.468 -1.2228 -0.2269 -2.6311
  928MOL0     H25223   6.479   2.577   1.612  1.2066  3.1376  1.7456
  928MOL0     H25224   6.581   2.679   1.507  0.7584 -0.3012  1.7324
  928MOL0     H25225   6.393   2.670   1.328  1.8146 -0.3817  0.6536
  928MOL0     H25226   6.305   2.548   1.425 -0.7618  0.2036  2.5289
  928MOL0     H25227   6.319   2.709   1.614  2.2398 -1.7454 -0.4842
  928MOL0     H25228   6.202   2.735   1.475  1.3684 -0.0684 -4.3582
  928MOL0     H25229   6.304   2.952   1.538  0.7089 -1.1499  0.3061
  928MOL0     H25230   6.459   2.886   1.544 -1.9878  0.0061  3.3439
  928MOL0     H25231   6.158   2.948   1.328  1.8191 -3.0614  3.9580
  928MOL0     H25232   6.153   3.120   1.087  0.9784 -0.2011  1.3926
  928MOL0     H25233   6.283   3.110   0.985 -0.8618  1.3675  0.3359
  928MOL0     H25234   6.145   2.846   1.048  0.1183  1.5338  1.9082
  928MOL0     H25235   6.037   2.956   0.957  1.1884  0.6813 -1.8358
  928MOL0     H25236   6.176   2.950   0.763  1.5937  2.5982 -0.0092
  928MOL0     H25237   6.170   2.795   0.835 -2.8891  0.4872  1.6855
  928MOL0     H25238   6.405   2.816   0.927 -0.0757 -0.9432 -1.2795
  928MOL0     H25239   6.411   2.984   0.879  2.3598  0.0966  0.2164
  928MOL0     H25240   6.449   2.903   0.479 -1.6296  0.3672  0.7203
  928MOL0     H25241   6.668   2.934   0.395  0.1603 -1.2448  0.5485
  928MOL0     H25242   7.126   2.896   0.344 -1.6395 -2.2199  1.4123
  928MOL0     H25243   7.367   2.941   0.290  1.7748  0.6582  0.3798
  928MOL0     H25244   7.683   3.058   0.604 -0.9045  2.8688 -3.2633
  928MOL0     H25245   7.627   2.886   0.595  5.4318 -0.5964  0.4880
  928MOL0     H25246   7.841   2.891   0.497 -1.1309 -0.7801 -0.0526
  928MOL0     H25247   7.737   2.874   0.359  0.9579 -3.7139  2.0601
  928MOL0     H25248   7.747   3.148   0.334 -0.1870  0.3581 -0.2906
  928MOL0     H25249   7.898   3.130   0.428 -0.2630 -1.1244  1.0699
  928MOL0     H25250   7.922   3.133   0.172  0.7900  0.7853  1.1880
  928MOL0     H25251   7.851   2.972   0.181 -1.2749  1.7344 -0.8872
  928MOL0     H25252   8.026   2.912   0.342  0.3854  0.9314  2.1058
  928MOL0     H25253   8.098   3.073   0.331 -1.4385  1.6697 -2.2938
  928MOL0     H25254   8.084   2.914   0.066  1.8303  1.5249 -1.4801
  928MOL0     H25255   8.160   3.065   0.100  0.2857 -0.4297  0.2711
  928MOL0     H25256   8.310   2.940   0.269  2.2454 -1.6932  1.2510
  928MOL0     H25257   8.333   2.908   0.100  0.3500  0.9918  1.3915
  928MOL0     H25258   8.139   2.736   0.283  1.6013  2.1192  1.1528
  928MOL0     H25259   8.197   2.711   0.112  1.4748  0.7368 -0.0523
  928MOL0     H25260   7.441   3.077   0.690 -3.1156 -3.2530  3.6500
  928MOL0     H25261   7.189   3.072   0.727 -2.4406 -2.6155  0.2069
  928MOL0     H25262   6.843   2.957   0.792  0.1930  2.7723 -0.0087
  928MOL0     H25263   6.611   2.919   0.878 -1.5686  2.2583 -0.3884
  928MOL0     H25264   7.199   2.424   1.505 -1.1109  1.3004  0.6363
  928MOL0     H25265   7.429   2.543   1.541  0.1704 -0.4657  0.6037
  928MOL0     H25266   7.703   2.749   1.570 -0.2349 -0.1841 -0.9854
  928MOL0     H25267   7.929   2.812   1.593 -1.0366  0.1369  0.1120
  928MOL0     H25268   8.004   3.220   1.740 -3.0143 -0.0285 -0.8468
  928MOL0     H25269   8.037   3.279   1.570 -0.4508  1.1713  2.1478
  928MOL0     H25270   8.248   3.177   1.557 -1.9020  0.0466 -0.7550
  928MOL0     H25271   8.215   3.105   1.723  1.2076 -0.6190 -1.0225
  928MOL0     H25272   8.223   3.311   1.810 -1.1504 -0.4192 -0.1276
  928MOL0     H25273   8.241   3.400   1.649  0.4092 -0.9198 -0.6276
  928MOL0     H25274   8.466   3.408   1.781  1.7961 -1.0686 -0.8325
  928MOL0     H25275   8.466   3.230   1.751  2.7685  0.6290  0.0772
  928MOL0     H25276   8.533   3.334   1.367  0.6015 -0.5890  0.7321
  928MOL0     H25277   7.818   3.231   1.547  1.2271 -0.7512  2.7356
  928MOL0     H25278   7.500   3.195   1.554  0.0397  1.9506  0.4533
  928MOL0     H25279   7.619   3.294   1.466 -1.1081  0.8757  0.7513
  928MOL0     H25280   7.518   3.179   1.377 -0.5679  0.3835  0.0664
  929MOL0     O25281   9.022   8.031   8.475  0.7162  0.3025 -0.1735
  929MOL0     C25282   9.031   7.966   8.373 -0.7168 -0.5123 -0.2402
  929MOL0     O25283   9.155   7.917   8.330  0.2401  0.2519 -0.2594
  929MOL0     C25284   9.264   7.919   8.410 -0.1243 -0.7102 -0.2687
  929MOL0     C25285   9.272   7.875   8.544  0.5877  0.7035  0.6770
  929MOL0     C25286   9.395   7.877   8.616  0.8533 -0.7761  0.4764
  929MOL0     C25287   9.512   7.922   8.550  0.1467  0.0702  0.6649
  929MOL0     O25288   9.635   7.898   8.613  0.4742 -0.5724  0.0194
  929MOL0     C25289   9.736   8.001   8.592  0.0725  0.2037 -0.0570
  929MOL0     C25290   9.810   8.035   8.725 -1.2595  0.4000  0.4483
  929MOL0     C25291   9.938   8.115   8.678 -0.3726  0.7373  0.7899
  929MOL0     C25292   9.898   8.253   8.624 -0.1517  0.8910 -0.1932
  929MOL0     C25293  10.018   8.347   8.598 -0.7345  0.1764  0.7576
  929MOL0     C25294  10.079   8.312   8.458 -0.2963 -0.1866  0.1119
  929MOL0     C25295  10.217   8.378   8.447 -0.5969  0.2617 -0.7828
  929MOL0     C25296  10.297   8.343   8.324  0.4521  0.5314 -0.2371
  929MOL0     N25297  10.412   8.434   8.324  0.0620  0.1051 -0.4389
  929MOL0     C25298  10.551   8.415   8.331 -0.4666  0.4021  0.2484
  929MOL0     C25299  10.599   8.531   8.288 -0.6051 -0.4165  0.4084
  929MOL0     C25300  10.738   8.590   8.278  0.6391  0.1192  0.1414
  929MOL0     C25301  10.822   8.564   8.407 -0.2400 -0.1416  0.6456
  929MOL0     C25302  10.770   8.633   8.537 -0.3167 -0.0870  0.4396
  929MOL0     C25303  10.750   8.784   8.526  0.0499 -0.2267 -0.0740
  929MOL0     O25304  10.724   8.842   8.655 -0.5620 -0.5309 -0.2596
  929MOL0     C25305  10.819   8.846   8.758 -0.8536 -0.2583  0.3690
  929MOL0     C25306  10.962   8.854   8.751 -0.0422  0.0407  1.1590
  929MOL0     C25307  11.035   8.854   8.864 -0.4415 -0.1278 -0.4047
  929MOL0     C25308  10.977   8.861   8.990 -0.4667 -0.2083  0.4591
  929MOL0     C25309  11.062   8.879   9.109 -0.5648  0.1638  0.4507
  929MOL0     O25310  11.185   8.920   9.077 -0.0254  0.1803  0.2692
  929MOL0     C25311  11.283   8.949   9.165  0.0022  0.4148 -0.7270
  929MOL0     C25312  11.364   9.062   9.137 -0.2525 -0.1075  0.4469
  929MOL0     C25313  11.445   9.113   9.238 -0.7718  0.2369  0.5128
  929MOL0     C25314  11.479   9.052   9.354 -0.7010  0.2326 -0.4142
  929MOL0     O25315  11.559   9.128   9.433 -0.4931  0.4828  0.6681
  929MOL0     C25316  11.686   9.072   9.474 -0.1890 -0.5356 -0.2626
  929MOL0     C25317  11.764   9.020   9.352  0.2577 -0.0034 -0.6663
  929MOL0     C25318  11.907   9.025   9.383  0.0801  0.3215 -0.4440
  929MOL0     C25319  11.948   8.900   9.465 -1.0440 -0.4418  0.3607
  929MOL0     C25320  12.104   8.892   9.496  0.4971 -0.0347  0.8438
  929MOL0     C25321  12.136   8.952   9.636 -0.3540 -0.4619  0.5330
  929MOL0     C25322  12.293   8.952   9.649  0.0552  0.0301 -0.1540
  929MOL0     C25323  12.346   8.947   9.792  0.8038  0.8575 -0.3868
  929MOL0    Cl25324  12.526   8.975   9.778  0.2131 -0.2910  0.2673
  929MOL0     C25325  11.411   8.929   9.382 -0.5889 -0.8546  1.0206
  929MOL0     C25326  11.309   8.884   9.292  0.4455  0.4775  0.1248
  929MOL0     O25327  11.028   8.849   9.220  0.2453  0.0179 -0.0140
  929MOL0     C25328  10.841   8.859   8.997  0.5222 -0.7361 -0.5431
  929MOL0     C25329  10.760   8.857   8.880 -0.0555  0.4393 -0.1107
  929MOL0     N25330  10.504   8.619   8.249 -0.1151 -0.3067 -0.1867
  929MOL0     N25331  10.393   8.566   8.280  0.6152  0.6272  0.8206
  929MOL0     C25332   9.501   7.981   8.421  0.8056  0.3975  0.1078
  929MOL0     C25333   9.374   7.983   8.358 -0.0990  0.6693 -0.2990
  929MOL0     C25334   8.913   7.939   8.289  0.1727 -0.1155  0.2710
  929MOL0     C25335   8.910   7.822   8.208 -0.6122 -0.9219  0.4230
  929MOL0     C25336   8.795   7.783   8.139 -0.3830 -0.4618  0.0153
  929MOL0     C25337   8.688   7.866   8.133  0.1156  0.4564 -0.2561
  929MOL0     O25338   8.577   7.829   8.052 -1.1882 -0.5609  0.3049
  929MOL0     C25339   8.508   7.934   7.983 -0.2810  0.3368  0.0949
  929MOL0     C25340   8.439   7.878   7.858 -0.3239  0.6608 -0.3077
  929MOL0     C25341   8.347   7.761   7.890 -0.2997  0.5262 -0.1827
  929MOL0     C25342   8.376   7.634   7.811 -0.0360  0.9605  0.6607
  929MOL0     C25343   8.259   7.547   7.800 -0.0255  0.8640 -0.5922
  929MOL0     C25344   8.160   7.478   7.779  0.3449  0.5732 -0.6654
  929MOL0     C25345   8.684   7.983   8.221  0.1246  0.3019 -0.4400
  929MOL0     C25346   8.799   8.021   8.287 -0.8673 -0.4854 -0.2550
  929MOL0     C25347   8.796   8.160   8.349  0.4779  0.3317 -0.6846
  929MOL0     H25348   9.179   7.840   8.588 -1.2378  1.2884 -2.4211
  929MOL0     H25349   9.403   7.843   8.719  0.4759  2.3557  1.6280
  929MOL0     H25350   9.800   7.937   8.531 -0.5067 -0.7490  0.3144
  929MOL0     H25351   9.702   8.092   8.540  0.3413  0.2328 -0.1820
  929MOL0     H25352   9.842   7.949   8.783  2.4127  2.1763  1.3220
  929MOL0     H25353   9.764   8.108   8.792  2.7116  1.3411  2.4358
  929MOL0     H25354   9.990   8.059   8.600  1.2457 -1.1052  3.0198
  929MOL0     H25355   9.996   8.126   8.770 -1.1203 -0.1954  1.4043
  929MOL0     H25356   9.843   8.240   8.530 -2.0575 -0.8151  1.0718
  929MOL0     H25357   9.829   8.303   8.692 -0.8085 -0.1110 -0.1057
  929MOL0     H25358   9.992   8.454   8.602  0.1344  0.3916  0.9066
  929MOL0     H25359  10.096   8.326   8.672  0.3427 -0.5908 -0.5476
  929MOL0     H25360  10.093   8.204   8.449  2.7472  0.3013 -2.9853
  929MOL0     H25361  10.014   8.348   8.378  1.7718  3.1715 -0.2507
  929MOL0     H25362  10.270   8.350   8.538 -1.7480  1.0694  0.1649
  929MOL0     H25363  10.209   8.486   8.461  1.6121  0.1311  2.5460
  929MOL0     H25364  10.327   8.238   8.324  0.6629  0.5902 -0.7079
  929MOL0     H25365  10.232   8.353   8.237  1.2263  0.3385 -0.8535
  929MOL0     H25366  10.616   8.338   8.370  1.0824  1.3150 -0.4076
  929MOL0     H25367  10.784   8.529   8.199 -0.5735 -0.6569  0.0063
  929MOL0     H25368  10.738   8.697   8.255 -1.9736  0.4716  1.4084
  929MOL0     H25369  10.823   8.457   8.431  3.0681  0.0990  2.0559
  929MOL0     H25370  10.926   8.588   8.382 -0.0704 -1.7458 -0.3490
  929MOL0     H25371  10.840   8.618   8.619  0.5539  0.4117 -0.1950
  929MOL0     H25372  10.677   8.586   8.572 -0.5775  0.9959  1.2462
  929MOL0     H25373  10.659   8.804   8.470 -1.3085 -1.7511  1.4889
  929MOL0     H25374  10.837   8.828   8.475  1.0311  0.4064  2.0416
  929MOL0     H25375  11.011   8.862   8.655 -1.5717  2.0511  0.4653
  929MOL0     H25376  11.142   8.857   8.845 -0.4649 -2.7402 -1.2898
  929MOL0     H25377  11.360   9.121   9.047 -1.8647 -0.5698  0.1740
  929MOL0     H25378  11.489   9.212   9.226  1.9996 -0.7070  1.9359
  929MOL0     H25379  11.741   9.151   9.527 -1.8027  0.2070  0.4012
  929MOL0     H25380  11.677   8.996   9.551 -0.0540  0.5388  0.8475
  929MOL0     H25381  11.725   8.919   9.340 -0.6640  0.3757 -0.8989
  929MOL0     H25382  11.752   9.084   9.264  1.6254  0.5648 -0.4743
  929MOL0     H25383  11.943   9.012   9.280  0.0586 -1.0932 -0.2888
  929MOL0     H25384  11.948   9.118   9.422  4.2709  0.0155 -3.4521
  929MOL0     H25385  11.923   8.820   9.396  1.5430  0.4808 -1.8505
  929MOL0     H25386  11.902   8.887   9.563 -0.2374 -0.2195  0.7767
  929MOL0     H25387  12.160   8.943   9.417 -2.6181  0.1365 -1.4441
  929MOL0     H25388  12.128   8.785   9.504 -0.8219 -0.4624 -0.5086
  929MOL0     H25389  12.114   9.059   9.625  1.8257 -0.1371 -1.7623
  929MOL0     H25390  12.087   8.898   9.716 -2.2948  0.0405 -0.2620
  929MOL0     H25391  12.327   9.046   9.604  1.6670  0.0593  1.0498
  929MOL0     H25392  12.334   8.877   9.581  0.2126  0.0460 -0.0768
  929MOL0     H25393  12.293   9.019   9.855  4.7391  0.4349  3.8871
  929MOL0     H25394  12.323   8.847   9.829 -1.5392  0.7621 -1.8881
  929MOL0     H25395  11.443   8.878   9.472  1.2444 -1.3324  0.1310
  929MOL0     H25396  11.254   8.794   9.318 -0.2147  1.2791  1.5861
  929MOL0     H25397  10.799   8.875   9.095  2.2353 -4.3594  0.9718
  929MOL0     H25398  10.652   8.865   8.888  0.1707  1.9902  3.5654
  929MOL0     H25399   9.581   8.028   8.367  1.0034  0.2721  0.2908
  929MOL0     H25400   9.371   8.045   8.269  0.5548  2.6369  0.9754
  929MOL0     H25401   8.997   7.758   8.212 -1.3082 -1.8411  2.1577
  929MOL0     H25402   8.807   7.689   8.088  1.5535 -1.1211  1.5582
  929MOL0     H25403   8.562   8.026   7.961 -0.4508  0.2015 -0.9428
  929MOL0     H25404   8.421   7.974   8.036 -1.5457  1.1851 -2.4650
  929MOL0     H25405   8.514   7.835   7.790 -2.9342 -0.6496 -2.5745
  929MOL0     H25406   8.385   7.954   7.800 -0.4269 -1.2387 -2.8898
  929MOL0     H25407   8.243   7.797   7.889 -0.6753 -0.2860  2.1765
  929MOL0     H25408   8.370   7.733   7.993  3.7161 -1.0947 -1.3420
  929MOL0     H25409   8.403   7.666   7.710  1.1943  1.4224  1.1136
  929MOL0     H25410   8.455   7.574   7.858 -0.3024  0.3023  0.2726
  929MOL0     H25411   8.069   7.425   7.760  2.8450 -4.7467  0.5880
  929MOL0     H25412   8.596   8.046   8.234 -0.4465 -0.6890  0.6367
  929MOL0     H25413   8.770   8.162   8.455  3.1375  1.7734  0.0359
  929MOL0     H25414   8.891   8.214   8.341  0.6943 -0.0206 -0.5509
  929MOL0     H25415   8.713   8.209   8.298 -1.3451 -1.1652  0.7296
  930MOL0     O25416   8.189   6.293   9.610 -0.2546  0.0238 -0.6970
  930MOL0     C25417   8.109   6.328   9.520  0.4101  0.3808 -0.0854
  930MOL0     O25418   8.115   6.449   9.445 -0.3313 -0.2021  0.4733
  930MOL0     C25419   8.211   6.550   9.456  0.4196 -0.0743 -0.2374
  930MOL0     C25420   8.337   6.555   9.516  1.1618  0.0796  0.7230
  930MOL0     C25421   8.410   6.665   9.537  1.2506 -0.6682  0.0984
  930MOL0     C25422   8.355   6.787   9.495  0.1891 -0.0288 -0.2168
  930MOL0     O25423   8.433   6.896   9.516 -0.8237  0.2420 -0.0977
  930MOL0     C25424   8.415   7.010   9.434  0.1948  0.2388  0.5961
  930MOL0     C25425   8.546   7.082   9.405 -0.6375 -0.0180  0.3455
  930MOL0     C25426   8.607   7.155   9.531  0.0019 -0.6274 -0.3123
  930MOL0     C25427   8.753   7.206   9.528  0.6184 -0.5606  0.0033
  930MOL0     C25428   8.825   7.209   9.672 -0.1335 -0.6328 -0.5466
  930MOL0     C25429   8.885   7.066   9.708 -0.3840 -0.4298 -0.2562
  930MOL0     C25430   8.975   7.074   9.835  1.0966 -0.1358 -0.1778
  930MOL0     C25431   9.064   6.952   9.843 -0.5665  0.4833 -0.0647
  930MOL0     N25432   9.196   6.969   9.778 -0.5811  0.0686  0.1156
  930MOL0     C25433   9.236   6.906   9.671 -0.9044  0.5614 -0.1108
  930MOL0     C25434   9.351   6.952   9.627  0.3743 -0.5622 -1.5350
  930MOL0     C25435   9.410   6.925   9.493  0.1671  0.7717 -0.5075
  930MOL0     C25436   9.559   6.931   9.498 -0.2965 -0.2021  0.0487
  930MOL0     C25437   9.602   7.081   9.482  0.2040 -0.2729  0.0597
  930MOL0     C25438   9.754   7.091   9.511  0.3510 -0.2683  1.2954
  930MOL0     O25439   9.792   7.051   9.642  0.1452  0.4501  0.1663
  930MOL0     C25440   9.931   7.033   9.655 -0.0201  0.0662 -0.3716
  930MOL0     C25441  10.033   7.091   9.570  0.7568  0.4097  0.0851
  930MOL0     C25442  10.162   7.061   9.600  0.0604  0.7095  1.3768
  930MOL0     C25443  10.205   6.981   9.704 -0.3396  0.1122 -0.8337
  930MOL0     C25444  10.343   6.959   9.741 -0.4626  0.1440 -0.3398
  930MOL0     O25445  10.422   7.048   9.678 -0.3217 -0.3507 -0.3357
  930MOL0     C25446  10.557   7.060   9.715  0.1182 -0.0228  0.3742
  930MOL0     C25447  10.630   6.995   9.816  0.7331  0.5479  0.5773
  930MOL0     C25448  10.760   7.037   9.841 -0.2809  0.0838  0.6408
  930MOL0     C25449  10.831   7.133   9.767  0.3155  0.0703 -0.1355
  930MOL0     O25450  10.971   7.155   9.769  0.6788 -0.3140 -0.1224
  930MOL0     C25451  11.047   7.106   9.880 -0.4675 -0.2739  0.4024
  930MOL0     C25452  11.168   7.201   9.907  0.4856  0.4211  0.4011
  930MOL0     C25453  11.277   7.185   9.804 -0.4644 -0.2054 -0.9295
  930MOL0     C25454  11.259   7.247   9.667 -1.2276 -0.5104 -0.3018
  930MOL0     C25455  11.364   7.204   9.574  0.4478  0.0665  0.6440
  930MOL0     C25456  11.336   7.252   9.431  0.2147  0.2808  0.3790
  930MOL0     C25457  11.300   7.406   9.408  0.0725  0.0144 -0.2508
  930MOL0     C25458  11.285   7.443   9.258  0.3697 -0.0796 -0.8424
  930MOL0    Cl25459  11.206   7.599   9.244  0.0509  0.2721  0.2652
  930MOL0     C25460  10.752   7.188   9.667 -0.5811 -0.3017  0.1032
  930MOL0     C25461  10.621   7.152   9.639  0.3686 -0.4287 -0.0110
  930MOL0     O25462  10.381   6.869   9.810  0.3418 -0.1613 -0.1593
  930MOL0     C25463  10.107   6.908   9.777 -0.3738  0.1083  0.4920
  930MOL0     C25464   9.973   6.940   9.745 -0.4487  0.2332 -0.3716
  930MOL0     N25465   9.383   7.057   9.704 -0.4425  0.0464  0.6797
  930MOL0     N25466   9.285   7.072   9.791 -0.0084  0.2554 -0.0550
  930MOL0     C25467   8.223   6.786   9.438 -1.0032  0.2532 -0.8302
  930MOL0     C25468   8.153   6.675   9.413  0.5708  0.3730  0.0421
  930MOL0     C25469   7.990   6.255   9.473  0.3238  0.6149  0.8676
  930MOL0     C25470   7.898   6.320   9.390 -0.3366  0.4221 -0.1677
  930MOL0     C25471   7.773   6.261   9.360 -1.1368  0.2557  0.6414
  930MOL0     C25472   7.740   6.133   9.393  1.1864 -0.1542  0.0560
  930MOL0     O25473   7.618   6.078   9.367  0.1581  0.0721  0.4966
  930MOL0     C25474   7.611   5.940   9.320 -0.4640 -0.8244  0.3152
  930MOL0     C25475   7.473   5.923   9.251  0.2945 -0.5936  0.4083
  930MOL0     C25476   7.471   6.007   9.120  1.2163  0.3438 -0.1445
  930MOL0     C25477   7.448   5.917   8.994  0.2718 -0.7642  0.2945
  930MOL0     C25478   7.407   6.004   8.880  0.1274  0.4349 -0.8330
  930MOL0     C25479   7.376   6.066   8.784 -0.5263 -0.7736 -0.2294
  930MOL0     C25480   7.836   6.064   9.462 -0.3354  0.3270  0.1859
  930MOL0     C25481   7.964   6.116   9.498 -0.2962 -0.4551 -0.2553
  930MOL0     C25482   8.059   6.030   9.560 -0.7666  0.3457  1.5911
  930MOL0     H25483   8.380   6.463   9.554  1.5954 -0.9884 -2.0517
  930MOL0     H25484   8.508   6.660   9.583  0.0510 -0.4639  2.8598
  930MOL0     H25485   8.373   6.977   9.338  0.4140  2.3550 -0.2783
  930MOL0     H25486   8.337   7.074   9.474 -2.2987 -1.6482 -0.9761
  930MOL0     H25487   8.534   7.146   9.318 -1.2007 -0.0114  0.4259
  930MOL0     H25488   8.616   7.000   9.389  0.7705  1.3176 -0.6096
  930MOL0     H25489   8.609   7.086   9.616  2.5374  1.7772  1.7756
  930MOL0     H25490   8.546   7.239   9.565  1.0291 -0.6749  1.8064
  930MOL0     H25491   8.805   7.156   9.446  1.5133  1.6999 -0.8989
  930MOL0     H25492   8.749   7.311   9.495  1.5441  0.1474  2.0115
  930MOL0     H25493   8.904   7.285   9.676  0.3459 -1.1805  0.7736
  930MOL0     H25494   8.758   7.238   9.753  1.3934  1.9571 -0.0939
  930MOL0     H25495   8.806   6.991   9.710 -1.9597  1.1565  2.4939
  930MOL0     H25496   8.956   7.037   9.630  0.6001  3.2439 -0.9315
  930MOL0     H25497   8.905   7.077   9.918  0.8618  1.7096 -0.4044
  930MOL0     H25498   9.032   7.167   9.844 -0.9948  1.2473 -0.4409
  930MOL0     H25499   9.092   6.939   9.948 -0.5564  3.1734  0.3390
  930MOL0     H25500   9.015   6.861   9.811  1.6393 -0.6469 -0.4214
  930MOL0     H25501   9.200   6.813   9.628  0.6220  0.3422 -1.0186
  930MOL0     H25502   9.383   6.823   9.464  2.2582  0.6383 -2.1680
  930MOL0     H25503   9.366   6.990   9.417 -1.2726 -0.3599 -0.6965
  930MOL0     H25504   9.596   6.890   9.592  1.2248  1.9716  0.5012
  930MOL0     H25505   9.599   6.874   9.413  1.0993 -0.1391  0.6287
  930MOL0     H25506   9.557   7.140   9.562  1.9238 -0.8632  1.5395
  930MOL0     H25507   9.571   7.127   9.387 -0.8465  0.1661  0.5966
  930MOL0     H25508   9.791   7.193   9.495  1.5408 -0.9292 -0.5528
  930MOL0     H25509   9.803   7.032   9.433  0.2728 -0.2816  1.2562
  930MOL0     H25510  10.016   7.174   9.503 -3.0616  0.0825  0.4631
  930MOL0     H25511  10.235   7.093   9.527 -1.2191  0.3693 -0.0903
  930MOL0     H25512  10.594   6.917   9.883  1.8842 -0.5085  0.0144
  930MOL0     H25513  10.819   6.989   9.919 -0.3874  1.3007  1.4994
  930MOL0     H25514  10.995   7.083   9.973  0.2317 -3.1353  0.1930
  930MOL0     H25515  11.070   7.002   9.854 -1.0722 -0.6808  1.4421
  930MOL0     H25516  11.139   7.306   9.896 -0.9016  0.0646  0.5247
  930MOL0     H25517  11.212   7.196  10.008  0.7840 -0.7874  0.2273
  930MOL0     H25518  11.365   7.235   9.845 -1.9363  2.1604 -0.4875
  930MOL0     H25519  11.311   7.081   9.806 -0.9254 -0.3484  0.0779
  930MOL0     H25520  11.252   7.354   9.687  5.0817  0.5157 -1.3981
  930MOL0     H25521  11.162   7.217   9.627 -0.4563 -2.2916 -0.9576
  930MOL0     H25522  11.364   7.095   9.565 -1.8297  0.2095 -4.2715
  930MOL0     H25523  11.466   7.232   9.601  0.8271  1.0458 -1.6129
  930MOL0     H25524  11.419   7.217   9.369  2.3965  0.9999  2.7511
  930MOL0     H25525  11.256   7.195   9.383  1.0692  1.3371 -2.5165
  930MOL0     H25526  11.380   7.468   9.449  0.3945  0.3063 -1.2873
  930MOL0     H25527  11.207   7.425   9.463  1.2983  1.0811  1.5126
  930MOL0     H25528  11.384   7.438   9.213  0.8922  0.9316  0.1503
  930MOL0     H25529  11.222   7.370   9.206 -1.7933  2.9101 -2.6832
  930MOL0     H25530  10.790   7.277   9.618 -0.7007 -0.7583 -0.8242
  930MOL0     H25531  10.569   7.201   9.557  0.5104  0.4485  0.4145
  930MOL0     H25532  10.144   6.832   9.844 -1.1181  0.6062  1.5019
  930MOL0     H25533   9.899   6.878   9.795  3.0245 -2.4416  2.0541
  930MOL0     H25534   8.161   6.872   9.413 -1.4220  0.2035 -0.0013
  930MOL0     H25535   8.053   6.692   9.373 -0.0716 -0.1219  1.3908
  930MOL0     H25536   7.913   6.421   9.354  5.6749 -0.7578 -2.1067
  930MOL0     H25537   7.694   6.321   9.316 -1.4522 -0.5235  0.1189
  930MOL0     H25538   7.623   5.870   9.404 -2.0473  0.0315  1.3023
  930MOL0     H25539   7.686   5.921   9.242 -2.4119 -0.3926 -1.7794
  930MOL0     H25540   7.395   5.964   9.317  1.6118  1.6948  0.6755
  930MOL0     H25541   7.459   5.815   9.241 -0.9989 -0.6138  1.9743
  930MOL0     H25542   7.561   6.065   9.096 -0.9960  4.5821  0.8945
  930MOL0     H25543   7.387   6.076   9.127  0.2892 -0.7835  0.2152
  930MOL0     H25544   7.543   5.870   8.972 -0.0666 -0.6361 -1.5786
  930MOL0     H25545   7.378   5.833   9.003  0.2658 -0.6774  1.1654
  930MOL0     H25546   7.350   6.136   8.707 -4.0129 -0.3413  1.1334
  930MOL0     H25547   7.808   5.964   9.495  0.5547 -0.8692 -2.3932
  930MOL0     H25548   8.088   6.060   9.662 -0.7339  0.1663  1.6356
  930MOL0     H25549   8.022   5.928   9.570  0.4014 -0.4311 -1.1623
  930MOL0     H25550   8.155   6.024   9.509 -1.2492  2.5567  0.3073
  931MOL0     O25551   5.303   2.258   4.326  0.0971 -0.2207 -0.3019
  931MOL0     C25552   5.214   2.326   4.372  0.7832 -0.4029  0.1499
  931MOL0     O25553   5.231   2.430   4.466  0.2067  0.1707  0.3950
  931MOL0     C25554   5.359   2.489   4.474  0.1705  1.0787  0.0543
  931MOL0     C25555   5.362   2.632   4.475  0.0560  0.0703 -0.0395
  931MOL0     C25556   5.483   2.695   4.483 -0.1050 -0.6197  0.1159
  931MOL0     C25557   5.608   2.629   4.500 -0.3410 -0.2557  0.0200
  931MOL0     O25558   5.712   2.710   4.511  0.0604 -0.0964 -0.3624
  931MOL0     C25559   5.840   2.650   4.515 -0.9363 -0.4565  0.0337
  931MOL0     C25560   5.948   2.763   4.509 -0.1230 -0.7940  0.2887
  931MOL0     C25561   5.923   2.855   4.382 -0.0741 -0.4371 -0.2450
  931MOL0     C25562   5.902   2.779   4.257 -0.4520  0.0417 -0.7089
  931MOL0     C25563   5.882   2.885   4.142  0.2387  0.0110 -0.2426
  931MOL0     C25564   5.861   2.836   3.998  0.1828 -0.0687 -0.2881
  931MOL0     C25565   5.731   2.751   3.990 -0.2891 -0.2889  0.2854
  931MOL0     C25566   5.596   2.833   4.011 -0.2201  0.0003 -0.6079
  931MOL0     N25567   5.572   2.944   3.913 -0.1471 -0.6886  0.2735
  931MOL0     C25568   5.550   2.916   3.781 -1.1026  0.1788  0.2507
  931MOL0     C25569   5.560   3.037   3.722 -0.3212 -0.3894  0.2727
  931MOL0     C25570   5.534   3.065   3.580  0.7735  0.6223  0.0031
  931MOL0     C25571   5.580   3.203   3.530  0.1715  1.3117 -0.0955
  931MOL0     C25572   5.549   3.210   3.385 -0.1480 -0.0894  0.1307
  931MOL0     C25573   5.599   3.345   3.317 -0.6457  0.1794 -0.7994
  931MOL0     O25574   5.590   3.464   3.388  0.5182  0.3969  0.0748
  931MOL0     C25575   5.463   3.517   3.387 -0.2569 -1.0099 -0.5660
  931MOL0     C25576   5.349   3.473   3.322 -0.2347  0.2203  1.1377
  931MOL0     C25577   5.227   3.536   3.324 -0.5815  0.4180 -0.3162
  931MOL0     C25578   5.216   3.654   3.408  0.8096 -0.3692  0.1274
  931MOL0     C25579   5.086   3.730   3.411  0.3209 -0.8017 -0.3637
  931MOL0     O25580   5.071   3.817   3.520 -0.2689  0.2157 -0.6906
  931MOL0     C25581   4.972   3.912   3.520  0.0546 -1.3940 -0.3266
  931MOL0     C25582   4.897   3.935   3.641  0.1375  0.9059 -0.4802
  931MOL0     C25583   4.791   4.025   3.641  0.2752  0.1917  0.7483
  931MOL0     C25584   4.777   4.113   3.536 -0.2426 -0.0530 -0.0355
  931MOL0     O25585   4.694   4.219   3.544 -0.0353  0.2255  0.0413
  931MOL0     C25586   4.560   4.186   3.595 -0.0757  0.7016  0.2780
  931MOL0     C25587   4.454   4.272   3.532  0.0533 -0.4036  0.6703
  931MOL0     C25588   4.317   4.212   3.572  0.4199 -0.3507 -0.1895
  931MOL0     C25589   4.203   4.267   3.484  0.1894  0.1288 -0.0418
  931MOL0     C25590   4.182   4.172   3.369  0.8407  0.3707 -0.0760
  931MOL0     C25591   4.065   4.229   3.284  0.6802  0.8808  0.5206
  931MOL0     C25592   4.020   4.119   3.183  0.5148  0.6448  0.6342
  931MOL0     C25593   3.912   4.175   3.080  0.3033 -0.3848 -0.1709
  931MOL0    Cl25594   3.834   4.049   2.987  0.1530  0.3343  0.2146
  931MOL0     C25595   4.864   4.111   3.427  0.5851  1.2756 -0.9471
  931MOL0     C25596   4.952   4.006   3.410 -0.5096  0.6972 -0.3809
  931MOL0     O25597   5.009   3.721   3.310  0.6837 -0.5831 -0.8844
  931MOL0     C25598   5.327   3.696   3.477 -0.1132 -0.7331  0.1031
  931MOL0     C25599   5.451   3.638   3.464  1.0167  0.3298  0.3385
  931MOL0     N25600   5.597   3.131   3.816  0.4658  0.1509 -0.1726
  931MOL0     N25601   5.620   3.074   3.928  0.9421  0.4570  0.3916
  931MOL0     C25602   5.606   2.486   4.519  0.4799 -0.7850  1.1198
  931MOL0     C25603   5.480   2.419   4.503  0.6518  0.0489 -0.2229
  931MOL0     C25604   5.077   2.276   4.341  0.4032 -0.6131  0.8470
  931MOL0     C25605   5.053   2.136   4.324 -0.6534 -0.8796 -0.1705
  931MOL0     C25606   4.923   2.081   4.311  0.7124  0.5890  0.1246
  931MOL0     C25607   4.812   2.163   4.308 -0.2223  0.7061  0.4992
  931MOL0     O25608   4.689   2.107   4.290  0.0106  0.0249  0.0379
  931MOL0     C25609   4.573   2.189   4.288  0.6313 -0.1257  0.4386
  931MOL0     C25610   4.444   2.115   4.285  0.6398  0.1364 -0.2455
  931MOL0     C25611   4.320   2.194   4.234  0.5127 -0.0152 -0.2777
  931MOL0     C25612   4.196   2.107   4.213  0.0856 -0.2949 -0.2054
  931MOL0     C25613   4.068   2.164   4.188 -0.3743  0.2171  0.5969
  931MOL0     C25614   3.956   2.201   4.150 -0.3230  0.0147 -0.7879
  931MOL0     C25615   4.832   2.294   4.323 -0.2333  0.3078 -0.3668
  931MOL0     C25616   4.962   2.362   4.345  0.1040  0.3191 -0.6766
  931MOL0     C25617   4.966   2.511   4.346  0.3544  0.1305  0.4560
  931MOL0     H25618   5.269   2.684   4.452  1.0190  1.9324  0.0717
  931MOL0     H25619   5.487   2.801   4.461  0.8792 -0.2345  2.0156
  931MOL0     H25620   5.851   2.591   4.607  0.3077 -2.4913 -1.3433
  931MOL0     H25621   5.844   2.583   4.429 -0.7837 -2.0481  1.2276
  931MOL0     H25622   6.049   2.722   4.508  1.1542  2.0678  0.5535
  931MOL0     H25623   5.942   2.836   4.591  1.8625 -0.6617  0.3526
  931MOL0     H25624   6.014   2.913   4.365  0.6794 -2.7717 -6.8467
  931MOL0     H25625   5.839   2.924   4.397 -0.1348 -0.8537  1.5963
  931MOL0     H25626   5.992   2.719   4.243 -1.4388 -1.3470 -1.3868
  931MOL0     H25627   5.815   2.716   4.277 -0.2616  0.3693  1.3739
  931MOL0     H25628   5.797   2.953   4.155  1.8854  2.4722 -1.5792
  931MOL0     H25629   5.966   2.956   4.145 -1.2165  1.8249 -0.3227
  931MOL0     H25630   5.861   2.911   3.918  0.2233 -0.9994 -1.1950
  931MOL0     H25631   5.941   2.764   3.982  0.9188  1.0106 -1.7018
  931MOL0     H25632   5.740   2.665   4.057  1.6254 -0.3413  0.0137
  931MOL0     H25633   5.726   2.715   3.887  1.2014  0.8478 -0.2149
  931MOL0     H25634   5.514   2.761   4.010 -1.2231  1.1251 -0.4635
  931MOL0     H25635   5.600   2.878   4.110  2.0848 -1.4261  0.0361
  931MOL0     H25636   5.531   2.821   3.733 -1.2789  1.0232 -1.4172
  931MOL0     H25637   5.586   2.989   3.521  2.0428  0.3913  1.3703
  931MOL0     H25638   5.425   3.063   3.573  0.7172  2.0795  0.2905
  931MOL0     H25639   5.527   3.281   3.586 -2.2297  0.0387 -0.4799
  931MOL0     H25640   5.685   3.227   3.548 -0.1603  1.3563  2.0903
  931MOL0     H25641   5.440   3.200   3.379  0.1278 -4.3916 -1.1097
  931MOL0     H25642   5.595   3.127   3.331  3.0334  1.5850  0.0283
  931MOL0     H25643   5.555   3.364   3.219 -1.0078  1.9325 -0.3267
  931MOL0     H25644   5.705   3.334   3.292 -0.3870  0.2877  0.2023
  931MOL0     H25645   5.349   3.385   3.258  0.4703  1.4625 -0.6395
  931MOL0     H25646   5.148   3.499   3.260 -0.1866 -1.1211  0.0437
  931MOL0     H25647   4.916   3.883   3.734  2.4171  2.8352  0.2410
  931MOL0     H25648   4.735   4.028   3.734  1.1603 -1.2942  1.3674
  931MOL0     H25649   4.539   4.085   3.558 -0.0849  1.1809 -1.0957
  931MOL0     H25650   4.543   4.189   3.703  2.3164 -0.9851  0.7941
  931MOL0     H25651   4.467   4.376   3.563 -0.5253 -0.2902  0.5338
  931MOL0     H25652   4.477   4.273   3.425 -0.0830  1.0666  0.6426
  931MOL0     H25653   4.326   4.104   3.558 -1.1736 -0.5555  0.1274
  931MOL0     H25654   4.293   4.242   3.675 -1.6076 -0.9879 -0.4296
  931MOL0     H25655   4.228   4.365   3.444 -0.5443  0.2924 -0.1110
  931MOL0     H25656   4.110   4.291   3.537 -0.4596 -1.3679 -0.4380
  931MOL0     H25657   4.156   4.072   3.403 -1.5371  1.6548  2.2370
  931MOL0     H25658   4.277   4.171   3.314  0.7944  2.5939 -0.2883
  931MOL0     H25659   3.975   4.241   3.347  0.5842 -1.1095  0.8488
  931MOL0     H25660   4.095   4.320   3.233  1.3193  0.1146 -0.4990
  931MOL0     H25661   3.981   4.035   3.242  1.5542  0.1671  0.6575
  931MOL0     H25662   4.106   4.077   3.131 -0.6083  0.1691 -0.8957
  931MOL0     H25663   3.840   4.232   3.139 -0.2507 -0.5359 -0.6965
  931MOL0     H25664   3.954   4.241   3.003  1.8919 -1.2795 -0.1279
  931MOL0     H25665   4.848   4.182   3.347 -0.8514 -0.1109 -1.9724
  931MOL0     H25666   5.018   4.003   3.324  1.5547 -0.0530  1.1349
  931MOL0     H25667   5.324   3.783   3.542  3.4811 -3.0688  3.9319
  931MOL0     H25668   5.540   3.676   3.513  1.0770 -1.6316  1.8544
  931MOL0     H25669   5.698   2.436   4.548  0.7266 -2.0654 -1.5456
  931MOL0     H25670   5.490   2.311   4.509  0.5144 -0.0670 -1.7804
  931MOL0     H25671   5.133   2.064   4.329 -0.3453 -0.5588 -0.4395
  931MOL0     H25672   4.911   1.974   4.296  0.1254  0.7989 -0.9476
  931MOL0     H25673   4.576   2.257   4.203 -1.5642 -0.0449  0.3849
  931MOL0     H25674   4.568   2.245   4.382  2.2886 -1.2705  1.2639
  931MOL0     H25675   4.419   2.072   4.382  0.6747  0.9826  0.1409
  931MOL0     H25676   4.465   2.038   4.209  2.0336  0.7851 -0.5508
  931MOL0     H25677   4.348   2.245   4.141 -0.0223 -4.2657 -3.0255
  931MOL0     H25678   4.296   2.274   4.304 -2.2051  0.4318 -1.6038
  931MOL0     H25679   4.223   2.041   4.130  2.3550  0.7794 -0.4150
  931MOL0     H25680   4.178   2.048   4.303 -0.5422 -1.4172 -1.0469
  931MOL0     H25681   3.857   2.230   4.122 -0.5816 -0.2298 -0.1536
  931MOL0     H25682   4.748   2.363   4.327 -0.9000 -0.4646  3.4328
  931MOL0     H25683   4.863   2.546   4.332  0.0875 -0.4904  0.8409
  931MOL0     H25684   4.999   2.537   4.447  2.0160  0.7902 -0.2162
  931MOL0     H25685   5.036   2.549   4.270  0.8211 -0.3250  0.6502
  932MOL0     O25686  10.300   0.646  10.444 -0.0948  0.1763 -0.1713
  932MOL0     C25687  10.275   0.642  10.564 -0.6040  0.0806  0.1150
  932MOL0     O25688  10.367   0.579  10.656 -0.3200  0.6290  0.0448
  932MOL0     C25689  10.489   0.535  10.605 -0.2342  0.1305  0.3663
  932MOL0     C25690  10.605   0.597  10.650  0.0964 -1.0033  0.5876
  932MOL0     C25691  10.735   0.550  10.612  0.5205  0.7009 -0.0278
  932MOL0     C25692  10.749   0.438  10.540  0.0739  0.4539  0.0008
  932MOL0     O25693  10.876   0.392  10.515 -0.2198 -0.0294  0.8539
  932MOL0     C25694  10.954   0.480  10.434 -0.2063  0.1067  0.0881
  932MOL0     C25695  11.034   0.390  10.353 -0.0831 -0.3483 -0.0362
  932MOL0     C25696  11.149   0.303  10.425  0.1218 -0.4594  0.1391
  932MOL0     C25697  11.268   0.400  10.454 -0.5591 -0.0900  0.0518
  932MOL0     C25698  11.402   0.337  10.496  0.0982 -0.6420  0.3145
  932MOL0     C25699  11.495   0.418  10.591 -0.2883  0.7160 -0.3885
  932MOL0     C25700  11.648   0.370  10.590 -0.3088  0.1465  0.3347
  932MOL0     C25701  11.672   0.265  10.697 -0.1155  1.1164  0.0165
  932MOL0     N25702  11.819   0.237  10.731  0.4079  0.0511  1.2445
  932MOL0     C25703  11.924   0.270  10.648 -0.0039  0.4761 -0.1325
  932MOL0     C25704  12.035   0.256  10.718 -0.8409  0.5820 -0.3969
  932MOL0     C25705  12.179   0.264  10.670  0.7006  0.4969  0.2557
  932MOL0     C25706  12.273   0.255  10.790  0.1748 -0.1374 -0.0211
  932MOL0     C25707  12.419   0.241  10.752 -0.1676 -0.3959 -0.2151
  932MOL0     C25708  12.487   0.371  10.700 -0.1495 -0.2358 -0.4459
  932MOL0     O25709  12.597   0.407  10.785 -0.1327  0.1153  0.6578
  932MOL0     C25710  12.727   0.360  10.758  0.2610 -0.2380 -0.0567
  932MOL0     C25711  12.757   0.262  10.658  0.1270  0.0132  0.0471
  932MOL0     C25712  12.884   0.217  10.647  0.0341 -0.0884 -0.0300
  932MOL0     C25713  12.987   0.250  10.737  1.6078  1.0981 -0.0627
  932MOL0     C25714  13.127   0.196  10.731  0.1879 -0.9388 -0.1685
  932MOL0     O25715  13.215   0.226  10.833  0.2584  0.1294  0.0915
  932MOL0     C25716  13.342   0.183  10.826 -1.0066 -0.2299 -0.0018
  932MOL0     C25717  13.432   0.233  10.729  0.1493  0.3921  0.2526
  932MOL0     C25718  13.566   0.201  10.723 -0.0193 -0.2541  0.1734
  932MOL0     C25719  13.619   0.119  10.828 -0.1639 -1.2822 -0.1517
  932MOL0     O25720  13.748   0.076  10.847 -0.2418 -0.5988  0.9112
  932MOL0     C25721  13.852   0.154  10.785  0.3117 -0.0876 -0.3017
  932MOL0     C25722  13.985   0.075  10.792 -0.1915 -0.2055  0.3262
  932MOL0     C25723  14.100   0.178  10.765 -0.6049 -0.2691 -0.5466
  932MOL0     C25724  14.233   0.101  10.772 -0.1091  0.7916 -0.0494
  932MOL0     C25725  14.338   0.164  10.682 -0.4104 -0.0658  0.1815
  932MOL0     C25726  14.479   0.102  10.667  0.2087  0.1367  0.2370
  932MOL0     C25727  14.545   0.075  10.798 -0.2214 -0.3585 -0.0093
  932MOL0     C25728  14.693   0.029  10.793 -0.0520  0.0620 -0.5405
  932MOL0    Cl25729  14.705  -0.105  10.674  0.1288 -0.4898 -0.2510
  932MOL0     C25730  13.536   0.056  10.919  0.9310  0.2859 -0.8214
  932MOL0     C25731  13.396   0.091  10.921  0.5337  1.4400  0.4865
  932MOL0     O25732  13.159   0.141  10.622  0.1012 -0.6582  0.0621
  932MOL0     C25733  12.949   0.338  10.845  0.7086  0.3392 -0.4868
  932MOL0     C25734  12.824   0.399  10.841  0.2994 -1.6058 -1.4475
  932MOL0     N25735  11.985   0.210  10.845 -0.3815 -0.1147 -0.0201
  932MOL0     N25736  11.859   0.202  10.849  0.8929  0.2350 -0.1831
  932MOL0     C25737  10.632   0.374  10.494  0.3128  0.5051 -0.0193
  932MOL0     C25738  10.508   0.424  10.521  0.3699 -0.6645 -0.1455
  932MOL0     C25739  10.163   0.716  10.623 -0.1290 -0.3804  0.0145
  932MOL0     C25740  10.145   0.710  10.763 -0.0292  0.9736  0.0359
  932MOL0     C25741  10.037   0.777  10.825  0.2735  0.1762  0.7029
  932MOL0     C25742   9.955   0.856  10.747 -0.2652  0.1084 -0.4913
  932MOL0     O25743   9.861   0.924  10.812  0.1348  0.5772 -0.0201
  932MOL0     C25744   9.836   1.064  10.781  0.9541  0.1097 -0.3646
  932MOL0     C25745   9.698   1.065  10.703 -0.6278 -0.4889 -0.3295
  932MOL0     C25746   9.580   1.042  10.800 -0.0227  0.1394  0.8711
  932MOL0     C25747   9.475   0.961  10.729 -0.0602 -0.0257 -0.6439
  932MOL0     C25748   9.391   0.899  10.838 -0.2874  0.7785  1.1083
  932MOL0     C25749   9.317   0.855  10.925  0.0636 -0.4326  0.1335
  932MOL0     C25750   9.978   0.867  10.614  0.3256  0.1134 -0.0868
  932MOL0     C25751  10.074   0.796  10.549 -0.0153  0.2682  0.0945
  932MOL0     C25752  10.084   0.811  10.401  0.7961  0.0806  0.2649
  932MOL0     H25753  10.584   0.677  10.721 -0.8242 -2.2854  1.8109
  932MOL0     H25754  10.818   0.615  10.637 -0.7787  2.3857  0.1570
  932MOL0     H25755  10.895   0.551  10.375  1.4201  1.8390  0.4254
  932MOL0     H25756  11.020   0.539  10.499 -1.6721 -0.0233  1.7759
  932MOL0     H25757  11.094   0.441  10.277 -0.2667  2.0263  1.3412
  932MOL0     H25758  10.964   0.322  10.303 -1.5366  1.8437 -1.1261
  932MOL0     H25759  11.165   0.225  10.350 -6.0621 -1.6772 -0.5049
  932MOL0     H25760  11.113   0.259  10.518  0.7739 -0.4926  0.3764
  932MOL0     H25761  11.291   0.466  10.370 -1.2394  2.0937  1.4966
  932MOL0     H25762  11.240   0.474  10.529  1.0018  2.9869 -2.1832
  932MOL0     H25763  11.390   0.239  10.542  1.3792 -0.4476  1.0929
  932MOL0     H25764  11.456   0.320  10.403  0.6867  0.0298  0.5272
  932MOL0     H25765  11.499   0.523  10.558  0.4126 -0.0548 -2.9492
  932MOL0     H25766  11.452   0.421  10.691  3.3796 -0.6845  1.4256
  932MOL0     H25767  11.713   0.454  10.616  0.9409 -0.9435  0.8275
  932MOL0     H25768  11.683   0.328  10.495 -2.2933 -1.1363  0.1266
  932MOL0     H25769  11.622   0.303  10.786 -3.4642 -0.3264 -1.0940
  932MOL0     H25770  11.607   0.178  10.688 -2.5699  2.7489  1.1408
  932MOL0     H25771  11.926   0.297  10.543  1.6763  2.4130  0.3112
  932MOL0     H25772  12.202   0.188  10.594 -1.9945  0.1288 -0.2979
  932MOL0     H25773  12.185   0.367  10.634 -0.0796 -0.3366 -2.5651
  932MOL0     H25774  12.251   0.345  10.848  0.8744  0.5946 -0.8748
  932MOL0     H25775  12.253   0.169  10.855 -2.9493  1.7099  1.7309
  932MOL0     H25776  12.436   0.157  10.684 -0.5413 -1.7964  1.3422
  932MOL0     H25777  12.463   0.217  10.849  0.9907 -2.7785 -1.2570
  932MOL0     H25778  12.415   0.453  10.708 -0.7599 -0.3161 -3.6038
  932MOL0     H25779  12.506   0.352  10.594 -5.6739 -3.5161 -1.2361
  932MOL0     H25780  12.684   0.239  10.580  0.8459 -2.1292 -0.0757
  932MOL0     H25781  12.912   0.153  10.563 -0.8920 -0.1834 -0.2785
  932MOL0     H25782  13.391   0.293  10.647  1.5264  0.0306 -0.7294
  932MOL0     H25783  13.614   0.231  10.630  2.5824  2.1373  2.1166
  932MOL0     H25784  13.839   0.186  10.681 -0.8795  0.4979  0.0099
  932MOL0     H25785  13.873   0.249  10.836  2.2139 -0.4651 -0.2974
  932MOL0     H25786  13.998   0.024  10.887 -0.8425 -2.4927 -0.7355
  932MOL0     H25787  13.975  -0.002  10.714 -1.0242 -0.5628  0.7654
  932MOL0     H25788  14.080   0.213  10.663 -1.9350 -0.4540 -0.3661
  932MOL0     H25789  14.111   0.266  10.829  0.6620 -0.2337 -0.7812
  932MOL0     H25790  14.215  -0.001  10.738  0.2481  0.5011  0.6314
  932MOL0     H25791  14.269   0.097  10.875  0.9256 -0.4501 -0.4375
  932MOL0     H25792  14.353   0.265  10.720  0.0649 -0.1710  0.2781
  932MOL0     H25793  14.283   0.172  10.588 -1.2073 -2.4802  0.3745
  932MOL0     H25794  14.483   0.009  10.608  1.2241  0.8319 -0.8368
  932MOL0     H25795  14.527   0.175  10.602 -2.4084  1.5069 -0.3045
  932MOL0     H25796  14.492  -0.000  10.857  0.6625 -1.0501 -0.0706
  932MOL0     H25797  14.548   0.165  10.859 -0.2152 -0.2771 -0.1299
  932MOL0     H25798  14.757   0.112  10.763  1.1282 -1.0376 -1.1695
  932MOL0     H25799  14.726  -0.013  10.888  1.5914 -0.6219 -1.3713
  932MOL0     H25800  13.583  -0.016  10.985  2.4236  0.0820 -2.0504
  932MOL0     H25801  13.319   0.048  10.983 -0.1992  1.2723 -0.5172
  932MOL0     H25802  13.023   0.376  10.914  0.7647 -0.0426 -0.3338
  932MOL0     H25803  12.816   0.471  10.921 -0.2956  1.2259 -3.8583
  932MOL0     H25804  10.647   0.290  10.427 -0.0257  0.8070 -0.4815
  932MOL0     H25805  10.416   0.384  10.478  0.5632  0.7505 -2.0036
  932MOL0     H25806  10.212   0.656  10.829 -2.9106 -1.5041  1.1476
  932MOL0     H25807  10.024   0.759  10.931 -1.8427 -2.3263  0.1015
  932MOL0     H25808   9.913   1.106  10.716  0.5573 -1.8413 -2.2054
  932MOL0     H25809   9.823   1.118  10.876  0.7098 -3.9841  2.2153
  932MOL0     H25810   9.707   0.982  10.632  2.4594 -1.6349  1.2174
  932MOL0     H25811   9.687   1.162  10.654  1.5489  0.2952  0.6199
  932MOL0     H25812   9.537   1.138  10.830 -0.7597  0.3805 -0.8278
  932MOL0     H25813   9.610   0.988  10.890 -1.5411 -1.0202  0.7313
  932MOL0     H25814   9.412   1.015  10.658  0.1367 -0.2538 -0.9954
  932MOL0     H25815   9.518   0.872  10.681  1.5973  0.2669  0.2210
  932MOL0     H25816   9.248   0.826  11.001 -1.3815 -0.1576 -1.0287
  932MOL0     H25817   9.903   0.918  10.554  0.5689  0.9225  0.2874
  932MOL0     H25818  10.058   0.722  10.344  0.6151  0.7319 -0.6943
  932MOL0     H25819  10.015   0.888  10.365 -0.3089 -1.2395 -0.5293
  932MOL0     H25820  10.184   0.840  10.366 -0.5699  1.1375 -3.2188
  933MOL0     O25821   1.932   0.821  10.755  0.1006 -0.6578 -0.0336
  933MOL0     C25822   1.854   0.729  10.726 -0.2879  0.2405 -0.1117
  933MOL0     O25823   1.860   0.598  10.763  1.0092  0.2386 -0.2887
  933MOL0     C25824   1.964   0.564  10.848 -0.5152 -0.1241  0.1220
  933MOL0     C25825   1.946   0.551  10.984  0.4449 -0.2497 -0.3110
  933MOL0     C25826   2.057   0.543  11.073 -0.1422 -0.4303  0.7172
  933MOL0     C25827   2.185   0.551  11.019 -0.9737  0.6284  0.9458
  933MOL0     O25828   2.293   0.535  11.106  0.1866  0.2017  0.4646
  933MOL0     C25829   2.413   0.477  11.051 -0.2152  0.0584 -0.8383
  933MOL0     C25830   2.522   0.486  11.154  0.3665 -0.0031 -0.4596
  933MOL0     C25831   2.658   0.415  11.123  0.2843 -2.0302  0.1358
  933MOL0     C25832   2.768   0.422  11.231 -0.3303  0.3974 -0.4980
  933MOL0     C25833   2.897   0.336  11.203  0.5396  0.5654  0.8599
  933MOL0     C25834   2.967   0.388  11.081 -0.1780 -0.2273  0.1468
  933MOL0     C25835   3.094   0.312  11.057 -0.1143 -0.3999 -0.2479
  933MOL0     C25836   3.204   0.341  11.162  0.7741 -0.4368 -1.2477
  933MOL0     N25837   3.324   0.245  11.146 -0.0165  0.1436 -0.2325
  933MOL0     C25838   3.351   0.148  11.241 -0.9442 -0.2503 -0.3087
  933MOL0     C25839   3.469   0.091  11.192 -0.1903 -0.6919  0.3970
  933MOL0     C25840   3.556  -0.008  11.253  0.5392 -0.2361  0.2322
  933MOL0     C25841   3.676   0.055  11.308  0.1493  0.6608 -0.8505
  933MOL0     C25842   3.776  -0.052  11.365  0.4941  0.1847 -0.0359
  933MOL0     C25843   3.899   0.023  11.415 -0.2483  0.4679 -0.2328
  933MOL0     O25844   3.967  -0.049  11.515 -0.0840  0.4081  0.1532
  933MOL0     C25845   4.106  -0.048  11.506  0.6367  0.4644  0.5444
  933MOL0     C25846   4.167  -0.163  11.554 -0.3645  0.0294  0.8392
  933MOL0     C25847   4.305  -0.172  11.573  0.6925 -0.4828  0.0112
  933MOL0     C25848   4.393  -0.071  11.537 -1.1484  0.1785  1.2882
  933MOL0     C25849   4.545  -0.085  11.557  0.3524  0.3671 -0.5877
  933MOL0     O25850   4.594  -0.201  11.612  0.5948 -0.2296 -0.6776
  933MOL0     C25851   4.722  -0.228  11.579 -0.5139 -0.6044 -0.0776
  933MOL0     C25852   4.780  -0.193  11.458 -0.3469  0.0364  0.3066
  933MOL0     C25853   4.912  -0.232  11.435 -0.6270  0.5494 -0.6873
  933MOL0     C25854   4.984  -0.316  11.518  0.0502  0.0365 -0.4071
  933MOL0     O25855   5.118  -0.346  11.508  0.4001 -0.0471  0.1234
  933MOL0     C25856   5.189  -0.284  11.404 -1.1550 -0.2890  0.6048
  933MOL0     C25857   5.327  -0.347  11.391 -0.0431  0.2931 -0.1021
  933MOL0     C25858   5.424  -0.290  11.280  1.0734 -0.2158  0.3222
  933MOL0     C25859   5.555  -0.349  11.289  0.1783 -0.0908  0.5447
  933MOL0     C25860   5.655  -0.246  11.218  0.3104  0.3936  0.4420
  933MOL0     C25861   5.639  -0.261  11.067  0.5910  0.1641  0.2533
  933MOL0     C25862   5.734  -0.179  10.983 -0.6875  0.4614 -0.1764
  933MOL0     C25863   5.686  -0.027  10.993 -0.0229 -0.1044  0.4110
  933MOL0    Cl25864   5.529  -0.007  10.909 -0.3698 -0.1166 -0.1518
  933MOL0     C25865   4.923  -0.350  11.641  0.2218  0.4733  1.0053
  933MOL0     C25866   4.802  -0.303  11.668  0.4954  0.8087 -0.6200
  933MOL0     O25867   4.617   0.015  11.537 -0.3888 -0.0448  0.3274
  933MOL0     C25868   4.338   0.041  11.477  0.4990  0.5969 -0.0092
  933MOL0     C25869   4.194   0.053  11.458  0.5976 -0.0951  0.4758
  933MOL0     N25870   3.509   0.167  11.082 -0.1010 -0.5168 -0.7157
  933MOL0     N25871   3.429   0.268  11.061 -0.5138  0.0761  0.7198
  933MOL0     C25872   2.205   0.547  10.873  0.3127 -0.3365 -0.5835
  933MOL0     C25873   2.094   0.564  10.790  0.0285 -0.2912  0.0123
  933MOL0     C25874   1.730   0.765  10.642  1.4027  0.6870 -0.4989
  933MOL0     C25875   1.616   0.686  10.669  0.6098 -1.0300 -0.5106
  933MOL0     C25876   1.493   0.693  10.587 -0.4764 -0.6540 -0.2963
  933MOL0     C25877   1.490   0.771  10.474  0.4129 -0.3082  0.1811
  933MOL0     O25878   1.394   0.772  10.383  0.0173  0.1018  0.1991
  933MOL0     C25879   1.268   0.719  10.413  0.3511 -0.9350 -0.7573
  933MOL0     C25880   1.180   0.754  10.298  0.2331 -0.1396 -0.6585
  933MOL0     C25881   1.039   0.693  10.310 -0.4499 -0.0940 -0.3138
  933MOL0     C25882   0.942   0.780  10.377 -0.4128  0.2084 -0.0919
  933MOL0     C25883   0.954   0.787  10.523  0.0002  0.7704  0.5388
  933MOL0     C25884   0.927   0.781  10.641 -1.1988 -0.2926  0.3006
  933MOL0     C25885   1.601   0.847  10.452  0.9064  0.3276 -0.1963
  933MOL0     C25886   1.714   0.846  10.534 -0.0716 -0.5018  0.1699
  933MOL0     C25887   1.835   0.910  10.474 -0.0675 -0.6527  0.1651
  933MOL0     H25888   1.843   0.553  11.019  0.5806  1.0928  0.0805
  933MOL0     H25889   2.039   0.543  11.180  0.2882  1.0873  0.8161
  933MOL0     H25890   2.396   0.370  11.035  1.7568 -0.6430  1.1575
  933MOL0     H25891   2.448   0.518  10.957 -0.3383 -1.9717 -1.8312
  933MOL0     H25892   2.482   0.425  11.235  0.8459 -0.2583 -0.4135
  933MOL0     H25893   2.541   0.586  11.194 -0.4205 -0.1690  0.3780
  933MOL0     H25894   2.704   0.459  11.034 -1.2054 -1.4605 -0.3893
  933MOL0     H25895   2.631   0.310  11.106  0.1190 -1.6464 -2.4862
  933MOL0     H25896   2.787   0.530  11.231 -1.6046  0.6465 -0.9559
  933MOL0     H25897   2.726   0.384  11.324  0.8786 -4.5651 -1.6926
  933MOL0     H25898   2.960   0.352  11.291  2.1767 -1.2438  0.0650
  933MOL0     H25899   2.879   0.228  11.193 -1.6628  1.0215 -1.1918
  933MOL0     H25900   2.910   0.388  10.988 -0.7771  2.0763  0.4424
  933MOL0     H25901   2.987   0.492  11.106  0.0885 -0.0956 -0.5975
  933MOL0     H25902   3.147   0.333  10.963  0.9329  0.2592  0.4732
  933MOL0     H25903   3.073   0.204  11.052  0.9850 -0.5829 -2.6061
  933MOL0     H25904   3.241   0.442  11.145 -0.3119  0.2564  0.3121
  933MOL0     H25905   3.176   0.335  11.267 -0.7089  1.1458 -1.5157
  933MOL0     H25906   3.299   0.136  11.336 -0.2672  0.4389  0.1637
  933MOL0     H25907   3.507  -0.061  11.335  1.7214 -3.1039 -0.7756
  933MOL0     H25908   3.577  -0.084  11.177  0.3046 -0.9453  0.8547
  933MOL0     H25909   3.730   0.119  11.238  2.9735 -0.9460 -0.3185
  933MOL0     H25910   3.642   0.122  11.388 -3.6256  1.0639 -2.5798
  933MOL0     H25911   3.814  -0.116  11.286  0.1011  1.1694 -1.0478
  933MOL0     H25912   3.722  -0.100  11.447  1.0146 -0.7452 -0.2320
  933MOL0     H25913   3.870   0.124  11.445 -3.7835 -0.7863  1.1658
  933MOL0     H25914   3.972   0.025  11.334 -1.3831 -3.0991 -1.5829
  933MOL0     H25915   4.110  -0.253  11.575  0.2886 -0.8141 -0.8368
  933MOL0     H25916   4.353  -0.258  11.619  0.1594 -0.5113  0.5273
  933MOL0     H25917   4.734  -0.141  11.374  0.2532 -1.6571 -1.1377
  933MOL0     H25918   4.961  -0.210  11.341  0.4145  1.8451  0.1016
  933MOL0     H25919   5.136  -0.293  11.308 -2.9161  2.3024  1.2358
  933MOL0     H25920   5.204  -0.177  11.417 -0.0131 -0.2775 -0.5561
  933MOL0     H25921   5.371  -0.342  11.491  2.0755  1.7655 -1.0088
  933MOL0     H25922   5.297  -0.449  11.368  0.0710 -0.5268  3.0475
  933MOL0     H25923   5.378  -0.300  11.180  0.1749 -1.1110  0.7961
  933MOL0     H25924   5.428  -0.183  11.297 -1.9456  0.0246  0.0858
  933MOL0     H25925   5.547  -0.445  11.236  1.8440 -0.1453  0.3492
  933MOL0     H25926   5.591  -0.374  11.389  0.5872 -0.7032  0.2544
  933MOL0     H25927   5.758  -0.275  11.243  0.9834  0.7908 -1.6413
  933MOL0     H25928   5.640  -0.143  11.251  2.9650  0.3934  1.9108
  933MOL0     H25929   5.655  -0.364  11.033  1.8413  0.6074 -0.5699
  933MOL0     H25930   5.539  -0.232  11.033  1.0501  3.1826  1.1211
  933MOL0     H25931   5.744  -0.222  10.883  1.2573 -1.2876  0.6823
  933MOL0     H25932   5.837  -0.180  11.019 -0.4363 -0.9619 -0.8566
  933MOL0     H25933   5.683   0.002  11.098  2.5225  1.8326  0.0248
  933MOL0     H25934   5.769   0.034  10.956 -1.0422  1.3697  0.5094
  933MOL0     H25935   4.980  -0.410  11.711  0.8486  0.1557  0.2321
  933MOL0     H25936   4.770  -0.338  11.766 -1.0478  0.2955 -1.2830
  933MOL0     H25937   4.399   0.121  11.439 -0.7253  2.2557  1.3821
  933MOL0     H25938   4.143   0.142  11.424  1.5645 -0.0910 -1.0515
  933MOL0     H25939   2.304   0.536  10.831 -0.6893 -3.3847 -2.5405
  933MOL0     H25940   2.099   0.585  10.683 -2.7917 -0.2118 -0.1655
  933MOL0     H25941   1.609   0.618  10.753 -0.6045  1.9319  1.9915
  933MOL0     H25942   1.399   0.642  10.607 -1.0720 -0.5086 -2.5161
  933MOL0     H25943   1.228   0.773  10.499 -0.6480 -1.3817 -0.9304
  933MOL0     H25944   1.271   0.612  10.435 -0.5698 -0.9394 -0.6141
  933MOL0     H25945   1.244   0.723  10.214  0.9814 -0.0929 -0.1101
  933MOL0     H25946   1.169   0.862  10.297 -2.8428 -0.3526  0.2217
  933MOL0     H25947   1.052   0.596  10.359  0.8734 -1.9126 -3.8923
  933MOL0     H25948   1.006   0.676  10.207 -0.0138 -0.3038 -0.4207
  933MOL0     H25949   0.950   0.883  10.339 -1.9448  0.2555 -0.3263
  933MOL0     H25950   0.843   0.744  10.350 -0.6101  0.2708  0.5369
  933MOL0     H25951   0.905   0.789  10.745  2.8334 -0.3191  1.3049
  933MOL0     H25952   1.599   0.906  10.361  0.3471  1.5432  0.5781
  933MOL0     H25953   1.818   0.913  10.366 -2.5779 -2.9380  0.4037
  933MOL0     H25954   1.840   1.013  10.511  1.3025 -0.3470 -0.7789
  933MOL0     H25955   1.931   0.860  10.491  1.1618  0.0401 -3.7128
  934MOL0     O25956  10.398   4.897   5.613 -0.4416 -0.0277 -0.4388
  934MOL0     C25957  10.387   4.863   5.727 -0.0783  1.1085 -0.8433
  934MOL0     O25958  10.477   4.892   5.833  0.0508  0.5963  0.3095
  934MOL0     C25959  10.582   4.978   5.807  0.2871  0.4389  0.5322
  934MOL0     C25960  10.581   5.098   5.733  0.2606 -0.6932 -0.3280
  934MOL0     C25961  10.695   5.183   5.746 -0.1236 -0.0380 -0.4138
  934MOL0     C25962  10.807   5.148   5.826  0.6258 -0.4064 -0.3555
  934MOL0     O25963  10.918   5.232   5.825  0.0335  0.5752 -0.7463
  934MOL0     C25964  11.001   5.221   5.710  0.1428 -0.3766  0.1407
  934MOL0     C25965  11.100   5.340   5.692  0.7698  0.4419 -0.1264
  934MOL0     C25966  11.190   5.331   5.566 -0.4402  0.2200  0.3907
  934MOL0     C25967  11.322   5.261   5.610 -0.8496  0.2518 -0.7786
  934MOL0     C25968  11.434   5.276   5.515  0.8304 -1.0674 -0.5318
  934MOL0     C25969  11.561   5.209   5.566  0.5464  0.1604  0.1127
  934MOL0     C25970  11.688   5.240   5.485  0.1830 -0.2641 -0.2938
  934MOL0     C25971  11.738   5.380   5.493  0.1720  0.3423 -0.3504
  934MOL0     N25972  11.764   5.432   5.636  0.1422 -0.1700 -0.8830
  934MOL0     C25973  11.886   5.424   5.703  0.2577  0.5998 -0.2608
  934MOL0     C25974  11.876   5.506   5.802  0.4226 -0.4710  0.0890
  934MOL0     C25975  11.985   5.545   5.887  0.2783  0.0284 -0.4228
  934MOL0     C25976  12.008   5.439   5.994  0.3290 -0.1150  0.4990
  934MOL0     C25977  12.119   5.473   6.086  0.2782 -0.6607  0.1825
  934MOL0     C25978  12.265   5.460   6.033  0.6421  0.5483  0.9030
  934MOL0     O25979  12.337   5.452   6.149  0.1209 -0.1068 -0.4424
  934MOL0     C25980  12.476   5.441   6.155  0.3205 -0.2734 -0.1696
  934MOL0     C25981  12.556   5.413   6.042 -0.1325 -0.2359 -0.6434
  934MOL0     C25982  12.696   5.399   6.052 -0.2162 -0.2823 -0.0398
  934MOL0     C25983  12.761   5.406   6.181  0.3985 -0.8112 -0.1727
  934MOL0     C25984  12.914   5.409   6.204  0.0537 -0.9276  0.0577
  934MOL0     O25985  12.989   5.348   6.105  0.4611 -0.0267  0.5510
  934MOL0     C25986  13.125   5.348   6.139 -0.6215 -0.2990  0.3457
  934MOL0     C25987  13.185   5.271   6.238 -0.3262 -0.4390  0.7567
  934MOL0     C25988  13.323   5.290   6.274 -0.7838  0.3087 -0.0663
  934MOL0     C25989  13.393   5.389   6.208  0.1355 -1.0703  1.1876
  934MOL0     O25990  13.517   5.420   6.233 -0.3770  0.1055  0.6461
  934MOL0     C25991  13.608   5.324   6.302 -0.2895 -0.6468  0.1899
  934MOL0     C25992  13.737   5.405   6.348  0.7227 -0.3895  1.0055
  934MOL0     C25993  13.811   5.466   6.228  0.1597 -0.0850 -0.7445
  934MOL0     C25994  13.904   5.572   6.272  0.1729 -0.5045  0.9271
  934MOL0     C25995  13.983   5.623   6.155  0.2193 -0.6353  0.3637
  934MOL0     C25996  14.038   5.761   6.177  0.6198  0.4605 -0.5642
  934MOL0     C25997  14.152   5.787   6.074 -0.3660 -0.1597  0.3453
  934MOL0     C25998  14.172   5.936   6.037  0.0381  0.9000  0.0260
  934MOL0    Cl25999  14.058   5.976   5.895 -0.0423  0.1032 -0.5175
  934MOL0     C26000  13.334   5.469   6.117  0.3307 -0.6631  0.3082
  934MOL0     C26001  13.204   5.450   6.081 -0.0018 -0.3085 -0.4466
  934MOL0     O26002  12.950   5.467   6.308 -0.8550  0.1901  0.4450
  934MOL0     C26003  12.677   5.422   6.294 -0.3245  0.0233 -0.0944
  934MOL0     C26004  12.537   5.444   6.282  0.0965 -0.4996 -0.4129
  934MOL0     N26005  11.750   5.567   5.802  0.4052 -0.0805 -0.0739
  934MOL0     N26006  11.680   5.514   5.704 -0.0665 -0.6906 -0.6545
  934MOL0     C26007  10.794   5.038   5.908 -0.2998 -0.5546  0.5387
  934MOL0     C26008  10.685   4.951   5.903  1.3272 -0.2844  0.1098
  934MOL0     C26009  10.268   4.779   5.773  0.2584  0.0973 -0.0076
  934MOL0     C26010  10.242   4.774   5.917 -0.4587 -0.4395  0.5775
  934MOL0     C26011  10.137   4.707   5.973 -0.8606  0.2886  0.5720
  934MOL0     C26012  10.057   4.632   5.890  0.5443  0.4642 -0.3396
  934MOL0     O26013   9.958   4.557   5.943 -0.0883  0.4048 -0.1621
  934MOL0     C26014   9.906   4.589   6.075  0.2165 -0.3695  0.7523
  934MOL0     C26015   9.758   4.549   6.073 -0.9000  0.3001  0.3714
  934MOL0     C26016   9.728   4.397   6.034  0.1484 -0.0624  0.1014
  934MOL0     C26017   9.782   4.303   6.145  0.4266  0.1967 -0.5846
  934MOL0     C26018   9.730   4.333   6.278 -0.4900  0.5795 -1.1703
  934MOL0     C26019   9.680   4.357   6.383 -0.0329 -1.3683  0.6239
  934MOL0     C26020  10.078   4.631   5.759 -1.1054  0.1379  0.5463
  934MOL0     C26021  10.176   4.704   5.694 -0.7685 -0.0699  0.0094
  934MOL0     C26022  10.186   4.688   5.543  0.2469 -0.1587 -0.5788
  934MOL0     H26023  10.487   5.125   5.686  0.1806 -2.6722 -1.4042
  934MOL0     H26024  10.695   5.279   5.695  0.7157 -1.0202 -2.3819
  934MOL0     H26025  11.060   5.129   5.718  1.5390  0.5673  1.4813
  934MOL0     H26026  10.936   5.229   5.623  0.6892  0.4963 -0.2010
  934MOL0     H26027  11.154   5.360   5.785 -0.9736 -6.1063  2.8648
  934MOL0     H26028  11.034   5.423   5.662  0.8625  0.2472 -0.8784
  934MOL0     H26029  11.206   5.437   5.544 -0.6541  1.0970  3.8933
  934MOL0     H26030  11.146   5.278   5.481 -1.9003  0.9641  0.6530
  934MOL0     H26031  11.347   5.304   5.707 -1.8347  0.4365 -0.5993
  934MOL0     H26032  11.293   5.157   5.629 -1.8568 -0.3102 -4.5519
  934MOL0     H26033  11.401   5.240   5.417 -1.2460 -1.6156  0.3246
  934MOL0     H26034  11.443   5.385   5.510 -2.8492 -0.2801  3.6467
  934MOL0     H26035  11.570   5.229   5.674 -1.4268  0.2287  0.3133
  934MOL0     H26036  11.545   5.102   5.557 -1.7525  0.4701 -0.0748
  934MOL0     H26037  11.667   5.221   5.380 -0.5240  2.3848 -0.6862
  934MOL0     H26038  11.765   5.165   5.509 -1.9269 -2.1169  1.0519
  934MOL0     H26039  11.841   5.375   5.457  0.4341 -0.6540  0.4790
  934MOL0     H26040  11.672   5.447   5.437 -1.5291 -1.4179 -0.5386
  934MOL0     H26041  11.979   5.377   5.672 -0.0639 -0.4670  0.3076
  934MOL0     H26042  12.072   5.562   5.822  0.2021  2.3603 -0.0219
  934MOL0     H26043  11.961   5.638   5.939 -2.1318 -0.2489 -0.9299
  934MOL0     H26044  11.916   5.446   6.052  0.7157 -2.9292  1.6251
  934MOL0     H26045  12.026   5.344   5.943 -0.7409 -1.1101  1.8895
  934MOL0     H26046  12.121   5.402   6.169  1.9946  2.0591  2.6733
  934MOL0     H26047  12.103   5.571   6.131  3.8763  0.4105 -0.5630
  934MOL0     H26048  12.295   5.541   5.967 -1.5958  0.2364 -0.6210
  934MOL0     H26049  12.275   5.373   5.968 -0.0455  2.1025 -1.4241
  934MOL0     H26050  12.510   5.397   5.945 -4.6383  0.5144  1.1109
  934MOL0     H26051  12.751   5.361   5.967  1.5803 -0.7796  1.2754
  934MOL0     H26052  13.124   5.201   6.294 -1.2142 -3.4066 -3.4348
  934MOL0     H26053  13.372   5.241   6.357  0.0369  2.5384  0.8563
  934MOL0     H26054  13.560   5.293   6.395  1.3567 -2.0240  0.6264
  934MOL0     H26055  13.627   5.227   6.254 -2.0662 -0.3003 -1.3334
  934MOL0     H26056  13.705   5.490   6.409  1.4821 -0.2212  1.1770
  934MOL0     H26057  13.798   5.336   6.408  0.1115 -1.7509  0.1165
  934MOL0     H26058  13.868   5.382   6.187  1.4474 -0.6295  1.9176
  934MOL0     H26059  13.750   5.519   6.155  2.1019  1.0818 -1.6101
  934MOL0     H26060  13.974   5.538   6.349  0.2573  0.6446  1.3707
  934MOL0     H26061  13.845   5.654   6.313 -2.4819 -2.5414  1.4212
  934MOL0     H26062  13.934   5.626   6.058  0.8119 -1.7534  0.0096
  934MOL0     H26063  14.062   5.549   6.139  0.4774 -0.0561 -1.1778
  934MOL0     H26064  13.959   5.836   6.169  2.3164  2.6148  1.3906
  934MOL0     H26065  14.086   5.772   6.275 -3.7125  1.7853  1.6929
  934MOL0     H26066  14.141   5.726   5.984 -1.8419  0.8070 -0.1592
  934MOL0     H26067  14.251   5.764   6.116 -0.0463 -0.6618 -0.6501
  934MOL0     H26068  14.160   6.001   6.125  0.5653 -0.6915  1.3376
  934MOL0     H26069  14.278   5.948   6.015  0.1183  0.7275  0.3111
  934MOL0     H26070  13.387   5.551   6.070 -2.0857  0.5433 -0.4852
  934MOL0     H26071  13.176   5.530   6.012 -1.6329 -0.5598 -0.1313
  934MOL0     H26072  12.709   5.414   6.398  1.1077  3.0157 -0.1884
  934MOL0     H26073  12.480   5.463   6.373  1.4707 -2.4490  0.9236
  934MOL0     H26074  10.861   5.011   5.989  0.2071  2.5813  1.2929
  934MOL0     H26075  10.656   4.875   5.974 -4.0745 -0.3762 -1.7398
  934MOL0     H26076  10.311   4.823   5.983 -0.0043 -0.4948  0.1506
  934MOL0     H26077  10.122   4.706   6.080 -2.1430  2.3712  0.4761
  934MOL0     H26078   9.913   4.694   6.103 -0.9386 -0.3023  0.8061
  934MOL0     H26079   9.959   4.524   6.146 -1.2571 -3.2050 -0.5578
  934MOL0     H26080   9.715   4.619   6.000  1.5915 -1.9701 -3.6571
  934MOL0     H26081   9.724   4.574   6.174  2.1745  2.1114  1.0910
  934MOL0     H26082   9.782   4.382   5.941 -1.3507  3.2277 -1.4460
  934MOL0     H26083   9.623   4.374   6.012  0.9942 -2.9879 -1.4504
  934MOL0     H26084   9.759   4.201   6.114  1.1915 -0.1525 -0.0382
  934MOL0     H26085   9.891   4.304   6.155  0.4298  1.7416 -0.5807
  934MOL0     H26086   9.630   4.392   6.472 -4.3026 -4.8618 -0.0588
  934MOL0     H26087  10.020   4.561   5.700 -3.2171  1.8539  0.4740
  934MOL0     H26088  10.154   4.783   5.499  0.3992  0.7407  1.1579
  934MOL0     H26089  10.290   4.672   5.513  0.6205  0.0708  0.5484
  934MOL0     H26090  10.131   4.604   5.500  2.0589 -0.8460 -1.6241
  935MOL0     O26091   1.953  11.118   8.769  0.8240 -0.5681 -0.2062
  935MOL0     C26092   1.967  11.028   8.684  0.3950  0.7226 -0.0477
  935MOL0     O26093   2.081  10.998   8.618  0.4455 -0.7915 -0.4649
  935MOL0     C26094   2.191  11.075   8.651 -0.4609  0.3710  0.4281
  935MOL0     C26095   2.204  11.216   8.662  0.3999  0.2199 -0.4875
  935MOL0     C26096   2.322  11.275   8.672 -0.3209 -0.2865  0.2079
  935MOL0     C26097   2.437  11.205   8.686 -0.3763 -0.0957  0.0884
  935MOL0     O26098   2.549  11.279   8.674  0.0108  0.3423 -0.3715
  935MOL0     C26099   2.668  11.205   8.645  0.6858  0.5239  0.5837
  935MOL0     C26100   2.772  11.304   8.601  0.1982  0.4641 -0.2052
  935MOL0     C26101   2.721  11.378   8.470  0.3653 -0.5730 -0.1912
  935MOL0     C26102   2.831  11.441   8.378  0.7328  0.1351 -0.1705
  935MOL0     C26103   2.924  11.558   8.428 -0.4972 -0.1967 -0.6522
  935MOL0     C26104   2.846  11.682   8.469  0.4965  0.3348  0.3206
  935MOL0     C26105   2.935  11.798   8.503  0.3443  0.4978  0.6555
  935MOL0     C26106   3.024  11.781   8.631 -0.7016  0.1981 -0.3136
  935MOL0     N26107   3.094  11.906   8.649 -0.2562 -0.0003  0.5849
  935MOL0     C26108   3.064  12.007   8.740 -1.0731  0.4415 -0.3225
  935MOL0     C26109   3.142  12.109   8.701  0.2918 -0.3908  0.3905
  935MOL0     C26110   3.176  12.234   8.780 -0.0181  1.1709  0.2318
  935MOL0     C26111   3.293  12.217   8.873  0.0927  0.2231 -0.1737
  935MOL0     C26112   3.310  12.346   8.961 -0.4318  0.3978  0.3781
  935MOL0     C26113   3.447  12.385   9.002  0.1622  0.1989  0.0126
  935MOL0     O26114   3.491  12.285   9.086  0.0653  0.3905 -0.2775
  935MOL0     C26115   3.609  12.318   9.148  0.7673 -0.5299 -0.2861
  935MOL0     C26116   3.619  12.286   9.288 -0.7195 -0.1486  0.5279
  935MOL0     C26117   3.737  12.329   9.350 -0.5673 -0.3117  0.3298
  935MOL0     C26118   3.840  12.391   9.279 -0.8268 -0.4274  0.9694
  935MOL0     C26119   3.981  12.414   9.329 -0.2905 -0.0950 -0.7183
  935MOL0     O26120   4.069  12.471   9.247 -0.2986 -0.3241 -0.3922
  935MOL0     C26121   4.193  12.499   9.300 -0.8855  0.9018 -0.2176
  935MOL0     C26122   4.296  12.405   9.300  0.7213  0.0258 -0.4839
  935MOL0     C26123   4.418  12.435   9.359  0.2974  0.7693  0.6746
  935MOL0     C26124   4.435  12.558   9.422  0.4934  0.2234  0.9935
  935MOL0     O26125   4.553  12.588   9.468  0.0625 -0.2359 -0.3128
  935MOL0     C26126   4.583  12.724   9.498  0.6243  0.3378  0.0778
  935MOL0     C26127   4.726  12.754   9.557  0.5362  0.5040  0.5619
  935MOL0     C26128   4.772  12.636   9.650 -0.1369 -0.0705  0.2480
  935MOL0     C26129   4.895  12.670   9.736  0.4243 -0.1849  0.9612
  935MOL0     C26130   4.982  12.551   9.773 -0.2432 -0.0102  0.8130
  935MOL0     C26131   4.925  12.467   9.883  0.7255 -0.1083  0.1841
  935MOL0     C26132   5.017  12.358   9.936  0.3150 -0.0253  0.3562
  935MOL0     C26133   4.942  12.292  10.054  0.2964  0.8854 -0.2261
  935MOL0    Cl26134   4.998  12.130  10.089 -0.1818  0.3355 -0.2199
  935MOL0     C26135   4.327  12.648   9.434  0.1521 -0.0882 -0.7562
  935MOL0     C26136   4.207  12.622   9.374 -0.8974 -0.3641  0.0592
  935MOL0     O26137   4.006  12.372   9.446  0.0855 -0.5269  0.1579
  935MOL0     C26138   3.832  12.414   9.139  0.0690  0.4478 -0.1044
  935MOL0     C26139   3.710  12.381   9.077 -0.1784  1.0191 -0.1854
  935MOL0     N26140   3.220  12.067   8.595  0.4697  0.3119  0.5202
  935MOL0     N26141   3.192  11.944   8.561 -0.8176 -0.6783 -0.0125
  935MOL0     C26142   2.426  11.063   8.688 -0.0471 -1.1445 -1.0012
  935MOL0     C26143   2.308  11.002   8.662  1.1968  0.1541  0.0553
  935MOL0     C26144   1.844  10.943   8.657 -0.6987 -0.0663 -0.1049
  935MOL0     C26145   1.843  10.862   8.535 -0.2820 -0.5771 -0.9004
  935MOL0     C26146   1.726  10.791   8.498 -0.1919 -1.0730 -0.2793
  935MOL0     C26147   1.613  10.809   8.567  0.4151  0.1997 -0.6804
  935MOL0     O26148   1.489  10.765   8.517 -0.1577  0.2677 -0.4886
  935MOL0     C26149   1.395  10.855   8.470  1.2312 -0.0998 -0.0389
  935MOL0     C26150   1.399  10.853   8.313 -0.2212  1.1442  0.0551
  935MOL0     C26151   1.361  10.728   8.239 -0.1176  0.5269 -0.4723
  935MOL0     C26152   1.225  10.734   8.177  0.5877 -0.5732 -0.5513
  935MOL0     C26153   1.209  10.626   8.079 -0.5136 -0.3449 -0.4461
  935MOL0     C26154   1.189  10.527   8.007  0.4658 -0.5808 -0.0254
  935MOL0     C26155   1.621  10.878   8.689  0.9502 -0.4950 -0.5103
  935MOL0     C26156   1.728  10.934   8.747  0.1416  0.2077  0.7252
  935MOL0     C26157   1.709  10.988   8.887  0.1411  0.4758  0.5576
  935MOL0     H26158   2.112  11.273   8.669 -0.0616 -0.7328  3.1635
  935MOL0     H26159   2.323  11.383   8.684 -0.3265 -0.3595  0.9270
  935MOL0     H26160   2.707  11.148   8.730  0.4653  3.9926  3.2318
  935MOL0     H26161   2.650  11.142   8.558  1.6493 -1.2694  1.6118
  935MOL0     H26162   2.870  11.258   8.590  0.2618 -0.7431  3.8400
  935MOL0     H26163   2.784  11.369   8.688  2.3622  0.5435 -0.5080
  935MOL0     H26164   2.650  11.459   8.488  2.1544  1.4342 -1.5354
  935MOL0     H26165   2.664  11.310   8.405  2.7551 -2.4495 -0.4581
  935MOL0     H26166   2.889  11.364   8.326  1.1261  1.1773 -1.3264
  935MOL0     H26167   2.771  11.492   8.302 -1.4415 -2.2061 -0.1309
  935MOL0     H26168   2.979  11.519   8.514 -0.8238 -3.0534 -1.6443
  935MOL0     H26169   2.996  11.593   8.354 -2.6846  2.2286 -1.8163
  935MOL0     H26170   2.789  11.708   8.379  1.2168  1.5740  0.2142
  935MOL0     H26171   2.768  11.663   8.543 -0.6763 -0.5145 -1.0847
  935MOL0     H26172   2.860  11.877   8.515 -1.4027 -1.0268  0.2499
  935MOL0     H26173   2.997  11.827   8.418 -0.1584  2.9316  1.0498
  935MOL0     H26174   2.960  11.759   8.717 -2.1351  0.9583 -1.1619
  935MOL0     H26175   3.091  11.695   8.621 -1.3459 -0.4849  1.0918
  935MOL0     H26176   2.988  11.999   8.817 -0.0504  1.3827  0.8468
  935MOL0     H26177   3.203  12.309   8.704  0.6175  0.5954 -0.1186
  935MOL0     H26178   3.086  12.260   8.836 -0.3146 -1.0775  0.8629
  935MOL0     H26179   3.269  12.130   8.934  0.6209 -0.5483 -1.0338
  935MOL0     H26180   3.387  12.192   8.823 -1.6159  2.0111 -4.7947
  935MOL0     H26181   3.249  12.326   9.050 -0.0876  1.5657  0.8936
  935MOL0     H26182   3.269  12.434   8.912  0.1567 -1.2314 -3.3471
  935MOL0     H26183   3.438  12.485   9.046 -1.4083 -0.5876  1.6025
  935MOL0     H26184   3.513  12.399   8.916 -0.1148 -1.3366 -0.4796
  935MOL0     H26185   3.550  12.223   9.342  3.0048 -2.2107  3.3861
  935MOL0     H26186   3.747  12.312   9.457  0.9118 -0.9886  0.0966
  935MOL0     H26187   4.278  12.302   9.273 -1.1751  0.0743  0.4682
  935MOL0     H26188   4.506  12.371   9.363  0.1984  0.6979  1.7898
  935MOL0     H26189   4.564  12.780   9.405 -0.5941  3.5029  2.0755
  935MOL0     H26190   4.524  12.758   9.583 -1.2091 -0.6006 -0.7754
  935MOL0     H26191   4.809  12.763   9.486 -0.1652 -0.8144 -0.4840
  935MOL0     H26192   4.729  12.846   9.616  2.1689  0.1578  1.0548
  935MOL0     H26193   4.694  12.601   9.718 -0.9459 -1.5388 -1.3445
  935MOL0     H26194   4.791  12.546   9.589 -0.8421 -1.0621  1.4427
  935MOL0     H26195   4.864  12.736   9.818  2.1703  2.3714 -0.2927
  935MOL0     H26196   4.959  12.735   9.675 -1.4352  0.4844 -0.3454
  935MOL0     H26197   5.080  12.586   9.808  0.3963 -0.8900 -0.0195
  935MOL0     H26198   5.009  12.479   9.695  3.0820  0.6558  1.1883
  935MOL0     H26199   4.882  12.526   9.964  1.4814 -0.8857  1.1888
  935MOL0     H26200   4.846  12.408   9.836  2.2958 -1.5205 -0.7772
  935MOL0     H26201   5.110  12.407   9.967  0.5291 -0.0571 -0.2172
  935MOL0     H26202   5.044  12.287   9.857  1.2695  0.8341 -0.1180
  935MOL0     H26203   4.961  12.344  10.148 -1.0799  2.4130 -0.7349
  935MOL0     H26204   4.834  12.282  10.040  0.0013  1.9071  1.0943
  935MOL0     H26205   4.334  12.743   9.487  0.4509 -0.0867 -0.7984
  935MOL0     H26206   4.124  12.691   9.384 -1.3295 -0.6227 -1.5369
  935MOL0     H26207   3.906  12.466   9.078  2.8356 -0.6422  2.1194
  935MOL0     H26208   3.714  12.422   8.976  5.2087  1.8356  0.0299
  935MOL0     H26209   2.508  10.992   8.694  0.6206 -0.2758  1.4997
  935MOL0     H26210   2.307  10.894   8.656 -2.2193  0.1771 -4.0041
  935MOL0     H26211   1.927  10.844   8.468  0.6783  0.6205 -0.0594
  935MOL0     H26212   1.728  10.744   8.400  1.6591 -0.8781 -0.3608
  935MOL0     H26213   1.412  10.957   8.505  2.0735 -0.2311 -0.0407
  935MOL0     H26214   1.302  10.817   8.513  2.6511 -0.0255  3.4268
  935MOL0     H26215   1.503  10.865   8.280 -0.6566  4.1332 -0.4392
  935MOL0     H26216   1.341  10.934   8.269  0.2104  2.1470  1.2834
  935MOL0     H26217   1.370  10.635   8.296 -1.0250 -0.5718 -2.0495
  935MOL0     H26218   1.432  10.716   8.157  1.1697 -0.0733  0.6785
  935MOL0     H26219   1.141  10.737   8.247  0.7411 -1.3926 -0.3260
  935MOL0     H26220   1.212  10.828   8.123  1.1348  0.3659  0.9142
  935MOL0     H26221   1.190  10.453   7.929  1.6009 -0.2743 -0.3311
  935MOL0     H26222   1.527  10.892   8.743  2.5921  1.3841  2.0757
  935MOL0     H26223   1.766  11.079   8.906 -1.9042  1.5006  2.1498
  935MOL0     H26224   1.602  11.003   8.904  0.6230  1.1790  3.6760
  935MOL0     H26225   1.740  10.905   8.951 -1.8024 -0.1478  0.7698
  936MOL0     O26226   4.976  11.012   6.830  0.1978 -0.5823  0.0056
  936MOL0     C26227   4.890  11.018   6.919  0.4005 -0.4158  0.0164
  936MOL0     O26228   4.915  11.074   7.044  0.4686 -0.3013 -0.4036
  936MOL0     C26229   5.032  11.149   7.066 -0.0282 -0.5084  0.2139
  936MOL0     C26230   5.160  11.099   7.049 -0.0094 -0.0507 -0.5069
  936MOL0     C26231   5.279  11.179   7.072  0.4829  1.0600 -0.2722
  936MOL0     C26232   5.262  11.317   7.099  0.5957  0.9361 -0.3716
  936MOL0     O26233   5.371  11.401   7.112  0.1960  0.3481  0.1728
  936MOL0     C26234   5.373  11.492   7.001 -0.7198 -0.3369 -0.3421
  936MOL0     C26235   5.518  11.494   6.945 -0.2556  0.0150 -0.1264
  936MOL0     C26236   5.637  11.534   7.035 -0.2928 -0.6271  0.0105
  936MOL0     C26237   5.771  11.499   6.969  0.5357 -0.3999 -0.0140
  936MOL0     C26238   5.875  11.506   7.083 -1.3905  0.8102 -0.6382
  936MOL0     C26239   6.013  11.484   7.014 -0.0511  0.6105 -0.5796
  936MOL0     C26240   6.132  11.475   7.115  0.0639  0.0345 -0.1879
  936MOL0     C26241   6.151  11.349   7.209  0.2978  0.3566 -0.8306
  936MOL0     N26242   6.282  11.354   7.285 -0.0147 -0.9774 -0.2594
  936MOL0     C26243   6.400  11.313   7.233 -0.8338 -0.5372  0.1443
  936MOL0     C26244   6.486  11.334   7.330 -0.3024  0.1895 -0.1036
  936MOL0     C26245   6.637  11.312   7.342  0.0108 -0.7754 -0.3681
  936MOL0     C26246   6.686  11.216   7.231  0.0025  0.1155  0.1003
  936MOL0     C26247   6.837  11.175   7.258  0.2591  0.7965 -0.4824
  936MOL0     C26248   6.859  11.043   7.324 -0.4331 -0.0765  0.2264
  936MOL0     O26249   7.000  11.024   7.363 -0.2824  0.3426  0.5505
  936MOL0     C26250   7.093  11.002   7.263  0.1063 -0.2056 -0.5226
  936MOL0     C26251   7.212  11.075   7.267  0.1418 -0.4648  0.2645
  936MOL0     C26252   7.306  11.064   7.165  0.1836  0.7659  0.0391
  936MOL0     C26253   7.305  10.969   7.069 -0.3333  0.2572  0.3084
  936MOL0     C26254   7.425  10.972   6.981  0.5110  0.0340 -0.5029
  936MOL0     O26255   7.503  11.081   6.966  0.0151  0.1165  0.0019
  936MOL0     C26256   7.626  11.064   6.909 -0.2361  0.5172  0.7417
  936MOL0     C26257   7.649  11.139   6.790 -0.1255 -0.2086  0.3827
  936MOL0     C26258   7.774  11.129   6.736  0.4508 -0.0480  0.4849
  936MOL0     C26259   7.873  11.044   6.787 -0.1472 -0.1908  0.4546
  936MOL0     O26260   7.991  11.043   6.720 -0.4952  0.4449 -0.5183
  936MOL0     C26261   8.098  10.970   6.789 -0.0236 -0.2840  0.5658
  936MOL0     C26262   8.228  11.008   6.722 -0.0604  1.2096 -0.4661
  936MOL0     C26263   8.216  10.975   6.568  0.1996 -0.5738 -0.2097
  936MOL0     C26264   8.352  11.019   6.513 -0.5035 -1.1681  1.0412
  936MOL0     C26265   8.347  11.012   6.365 -0.3484 -0.1013  0.6927
  936MOL0     C26266   8.493  11.027   6.305  0.1389 -0.0387 -1.1022
  936MOL0     C26267   8.510  11.001   6.154 -0.5113  0.0812  0.3189
  936MOL0     C26268   8.595  10.870   6.117  0.4941  0.0249 -0.7939
  936MOL0    Cl26269   8.544  10.728   6.210 -0.2293  0.1921  0.0257
  936MOL0     C26270   7.846  10.958   6.893 -0.0167  0.0233  0.3377
  936MOL0     C26271   7.724  10.973   6.953  0.1577  0.2831  0.0108
  936MOL0     O26272   7.445  10.865   6.925  0.4087  0.0969 -0.2076
  936MOL0     C26273   7.187  10.889   7.068 -0.5199  0.2428  0.4284
  936MOL0     C26274   7.080  10.913   7.157  0.8776  0.5911  0.5780
  936MOL0     N26275   6.426  11.395   7.438 -0.1717 -0.5841 -0.7382
  936MOL0     N26276   6.296  11.400   7.416 -0.7348 -0.3092 -0.4670
  936MOL0     C26277   5.128  11.370   7.116  0.1986  0.1487  0.6157
  936MOL0     C26278   5.015  11.286   7.100 -0.0059 -0.0463 -0.3819
  936MOL0     C26279   4.761  10.958   6.881 -0.3189 -0.9883 -1.3804
  936MOL0     C26280   4.726  10.948   6.748 -0.3144  0.7544  0.5677
  936MOL0     C26281   4.606  10.900   6.702 -0.1750 -0.5626  0.3395
  936MOL0     C26282   4.512  10.864   6.801  0.1515  0.4816 -0.3144
  936MOL0     O26283   4.392  10.807   6.771  0.0952  0.2717 -0.2154
  936MOL0     C26284   4.355  10.779   6.643  0.0155 -0.6717  0.3017
  936MOL0     C26285   4.222  10.700   6.637 -0.5080  0.7834 -0.7664
  936MOL0     C26286   4.165  10.699   6.498 -0.1602  1.3073  0.3356
  936MOL0     C26287   4.056  10.596   6.484  0.4937  0.4378  0.6319
  936MOL0     C26288   3.923  10.645   6.535 -0.1606  0.2372 -0.1182
  936MOL0     C26289   3.818  10.678   6.573  0.5272 -0.1420  0.3004
  936MOL0     C26290   4.544  10.881   6.936 -0.1317  0.1547 -0.9695
  936MOL0     C26291   4.669  10.918   6.977 -0.7016 -0.0650 -0.0123
  936MOL0     C26292   4.713  10.894   7.113 -0.0957 -0.7848 -0.5983
  936MOL0     H26293   5.160  10.993   7.023  1.2872  0.3442 -2.3430
  936MOL0     H26294   5.380  11.139   7.064  0.5170  0.4862  2.3748
  936MOL0     H26295   5.293  11.479   6.927 -2.9502  0.8954  1.6965
  936MOL0     H26296   5.367  11.591   7.048 -1.7166 -0.9022  0.7850
  936MOL0     H26297   5.526  11.549   6.851 -0.7186  2.2715  1.0879
  936MOL0     H26298   5.537  11.394   6.904 -1.8595 -0.0510 -0.7546
  936MOL0     H26299   5.635  11.476   7.128  2.9209 -3.2107 -1.3118
  936MOL0     H26300   5.635  11.641   7.053  1.1468 -0.2966 -1.5771
  936MOL0     H26301   5.780  11.405   6.913  1.9819 -0.0057 -0.4665
  936MOL0     H26302   5.792  11.578   6.897 -3.2970  1.1904  0.3590
  936MOL0     H26303   5.862  11.598   7.139 -3.5452 -0.3388  0.8857
  936MOL0     H26304   5.860  11.427   7.157  1.2531  1.9971  1.2743
  936MOL0     H26305   6.002  11.398   6.947  1.1839  1.7863 -2.3616
  936MOL0     H26306   6.033  11.573   6.954  1.9177 -0.2282 -1.2384
  936MOL0     H26307   6.137  11.570   7.169  0.6994 -0.7247  1.1391
  936MOL0     H26308   6.215  11.477   7.044 -1.2428 -1.1684 -1.8369
  936MOL0     H26309   6.068  11.344   7.280  1.5590  1.4744  0.7945
  936MOL0     H26310   6.141  11.268   7.136  1.9061 -0.7214  0.0974
  936MOL0     H26311   6.419  11.273   7.134 -0.7869 -1.3170  0.4563
  936MOL0     H26312   6.688  11.409   7.345 -0.4955 -0.5190  0.2222
  936MOL0     H26313   6.672  11.264   7.434  1.0522  0.7669  0.0897
  936MOL0     H26314   6.628  11.123   7.224 -2.0559  1.4400 -1.4364
  936MOL0     H26315   6.681  11.271   7.137 -0.2259  0.0631  0.0827
  936MOL0     H26316   6.893  11.240   7.326  0.0099  1.0092 -0.4770
  936MOL0     H26317   6.898  11.161   7.168  1.4438  1.1905  0.2359
  936MOL0     H26318   6.834  10.955   7.264  2.7516 -2.1089  1.6343
  936MOL0     H26319   6.799  11.034   7.415  0.6624  0.0965  0.9787
  936MOL0     H26320   7.236  11.151   7.341 -1.4002  2.3158 -1.8888
  936MOL0     H26321   7.386  11.138   7.162  1.0549 -0.1237  0.6265
  936MOL0     H26322   7.578  11.219   6.772 -1.0775 -0.6658  1.9186
  936MOL0     H26323   7.806  11.204   6.665 -2.3702  0.4417 -0.4199
  936MOL0     H26324   8.108  11.000   6.893 -0.2152 -1.3241  0.8912
  936MOL0     H26325   8.098  10.861   6.787 -0.1557 -0.2887 -1.6448
  936MOL0     H26326   8.251  11.114   6.738  0.1432  1.3961 -1.8024
  936MOL0     H26327   8.308  10.947   6.766 -1.7941 -1.2547 -0.4926
  936MOL0     H26328   8.192  10.869   6.561  0.1296 -0.5463 -0.3818
  936MOL0     H26329   8.140  11.037   6.520  0.6712  0.6992  0.6066
  936MOL0     H26330   8.431  10.951   6.546 -0.9619 -1.7419  0.9655
  936MOL0     H26331   8.385  11.117   6.549 -3.2376 -0.2843  1.3793
  936MOL0     H26332   8.284  11.092   6.325  1.2017  1.9610  2.1824
  936MOL0     H26333   8.301  10.915   6.342 -0.4168 -0.2380  1.3922
  936MOL0     H26334   8.513  11.134   6.319 -1.4646 -0.0014  1.8961
  936MOL0     H26335   8.555  10.956   6.361 -2.0958 -2.1663 -1.1237
  936MOL0     H26336   8.560  11.089   6.113  0.5911 -0.3170  0.7563
  936MOL0     H26337   8.411  10.984   6.111 -1.4681  1.9404  1.6965
  936MOL0     H26338   8.590  10.835   6.014 -0.2964  0.4140 -0.8996
  936MOL0     H26339   8.696  10.895   6.150 -0.4093  0.6678  1.7750
  936MOL0     H26340   7.913  10.888   6.942  0.6336  1.2220  1.2080
  936MOL0     H26341   7.691  10.912   7.037 -1.5207  1.3322  0.1514
  936MOL0     H26342   7.184  10.816   6.988  1.4413  1.8507 -1.2088
  936MOL0     H26343   6.998  10.842   7.154  1.7902 -0.4747 -0.0289
  936MOL0     H26344   5.127  11.475   7.144 -1.1091  0.3523 -0.1450
  936MOL0     H26345   4.918  11.330   7.121  0.1296 -0.3841  1.1110
  936MOL0     H26346   4.788  10.983   6.667 -1.3639 -0.3770 -0.7549
  936MOL0     H26347   4.586  10.900   6.595  1.8715  3.1497 -0.2122
  936MOL0     H26348   4.430  10.718   6.592 -0.1266  1.6253 -2.8812
  936MOL0     H26349   4.338  10.874   6.593  0.8213  0.0229  1.3164
  936MOL0     H26350   4.157  10.754   6.707 -0.1238  1.6930 -1.0988
  936MOL0     H26351   4.230  10.600   6.682 -2.7819 -0.3124 -2.6072
  936MOL0     H26352   4.250  10.683   6.431 -1.1002 -1.0847 -0.3782
  936MOL0     H26353   4.121  10.795   6.468 -2.1371 -0.4765 -2.9567
  936MOL0     H26354   4.039  10.570   6.379  0.6792  1.7272  0.2600
  936MOL0     H26355   4.083  10.498   6.524  0.4071  0.7554  1.4900
  936MOL0     H26356   3.721  10.711   6.604  0.0004 -1.7928  0.5134
  936MOL0     H26357   4.463  10.849   7.001  0.9867 -2.2778 -0.6800
  936MOL0     H26358   4.806  10.837   7.122  0.1548 -0.0641  1.9225
  936MOL0     H26359   4.728  10.986   7.170 -1.0915 -1.6780  1.2008
  936MOL0     H26360   4.639  10.837   7.169  0.5957  0.2297  1.4248
  937MOL0     O26361   6.401   7.481   5.947  0.3971 -1.0044  0.0851
  937MOL0     C26362   6.347   7.575   6.014 -0.4342  0.6449 -0.2499
  937MOL0     O26363   6.407   7.633   6.124  0.2043  0.0281 -0.0145
  937MOL0     C26364   6.540   7.638   6.145 -0.1125  0.6184  0.4297
  937MOL0     C26365   6.597   7.590   6.262 -0.3550 -0.7890 -0.5525
  937MOL0     C26366   6.736   7.572   6.277  0.0262  0.2674  0.7150
  937MOL0     C26367   6.819   7.605   6.167 -0.4133 -0.5215  0.0751
  937MOL0     O26368   6.953   7.591   6.191  0.3597 -0.0633  0.5880
  937MOL0     C26369   7.046   7.618   6.087 -0.2042 -0.1074 -0.7331
  937MOL0     C26370   7.177   7.547   6.140  0.7606 -0.1170  0.8635
  937MOL0     C26371   7.288   7.542   6.031 -0.2443  1.0869 -1.2258
  937MOL0     C26372   7.406   7.445   6.080  0.0271 -0.9225 -0.6384
  937MOL0     C26373   7.393   7.297   6.054  0.5904 -0.7969  0.0782
  937MOL0     C26374   7.507   7.229   6.127  0.5289  0.5132  0.2444
  937MOL0     C26375   7.649   7.227   6.063  0.0177  0.5345 -0.2312
  937MOL0     C26376   7.748   7.183   6.176  0.1041  0.2792 -0.0888
  937MOL0     N26377   7.888   7.150   6.145 -0.0509 -0.0906  0.1512
  937MOL0     C26378   7.962   7.234   6.060  0.0022  0.3110  0.5403
  937MOL0     C26379   8.080   7.171   6.040  0.7485 -0.4233 -1.0271
  937MOL0     C26380   8.189   7.235   5.960 -0.4059 -1.3486 -1.3253
  937MOL0     C26381   8.265   7.324   6.067 -0.2004  0.8435 -1.1519
  937MOL0     C26382   8.396   7.393   6.017 -0.0046 -0.3536  0.4597
  937MOL0     C26383   8.368   7.528   5.955 -0.5690  0.1801 -0.2919
  937MOL0     O26384   8.311   7.505   5.829 -0.0108 -0.4266 -0.0366
  937MOL0     C26385   8.339   7.595   5.731  0.0138 -0.1758 -0.8408
  937MOL0     C26386   8.367   7.732   5.751 -0.2620 -0.2098 -0.3556
  937MOL0     C26387   8.395   7.817   5.648 -0.4394 -0.0153 -0.3278
  937MOL0     C26388   8.397   7.766   5.524  0.0304  0.1647  0.8699
  937MOL0     C26389   8.430   7.853   5.413 -0.8620 -0.8788 -0.1904
  937MOL0     O26390   8.453   7.801   5.290  0.5900 -0.0661 -0.5621
  937MOL0     C26391   8.400   7.874   5.183  0.6266 -0.8232 -0.0116
  937MOL0     C26392   8.466   7.980   5.119  0.3780 -0.2931  0.2667
  937MOL0     C26393   8.413   8.051   5.010  0.7370  0.6290 -0.0104
  937MOL0     C26394   8.291   8.011   4.958  0.1018  0.0606  0.3595
  937MOL0     O26395   8.244   8.077   4.839 -0.0946  0.9711 -0.5508
  937MOL0     C26396   8.119   8.030   4.786  0.2494 -0.3951 -0.3171
  937MOL0     C26397   8.106   8.084   4.640 -0.2047 -0.9066 -0.0635
  937MOL0     C26398   8.010   8.002   4.551 -0.4464 -0.2622  0.7689
  937MOL0     C26399   7.869   8.030   4.598  0.6671 -0.4164 -0.5153
  937MOL0     C26400   7.809   8.169   4.586 -0.0058  0.9650 -1.3944
  937MOL0     C26401   7.826   8.229   4.452  0.4102  0.1512 -0.1555
  937MOL0     C26402   7.771   8.376   4.457 -0.3583  0.2065 -0.3385
  937MOL0     C26403   7.622   8.394   4.468 -0.0712 -0.5705  0.0781
  937MOL0    Cl26404   7.544   8.277   4.363  0.8242 -0.0008 -0.2700
  937MOL0     C26405   8.226   7.902   5.019 -0.4120  0.6979  0.5672
  937MOL0     C26406   8.280   7.837   5.130  0.3430 -0.0898  0.0582
  937MOL0     O26407   8.420   7.974   5.436 -0.5663 -0.1944 -0.1614
  937MOL0     C26408   8.365   7.633   5.496 -0.1775  0.6464  0.0917
  937MOL0     C26409   8.343   7.548   5.598  0.5948  0.0406 -0.0216
  937MOL0     N26410   8.083   7.061   6.132 -0.1790  0.6648  0.2905
  937MOL0     N26411   7.975   7.050   6.197  0.1853 -0.3820  0.2026
  937MOL0     C26412   6.763   7.658   6.049  0.4164  0.0304  0.4166
  937MOL0     C26413   6.628   7.674   6.039  0.4079 -0.1680 -0.7072
  937MOL0     C26414   6.190   7.571   6.009 -0.3479  0.2206  1.0555
  937MOL0     C26415   6.123   7.605   6.126 -0.2876  0.2810  0.2214
  937MOL0     C26416   5.978   7.606   6.125  0.5039 -0.2293  0.5449
  937MOL0     C26417   5.903   7.565   6.010 -0.4441 -0.2060  0.6985
  937MOL0     O26418   5.767   7.572   5.995  0.7540 -0.7562  0.1227
  937MOL0     C26419   5.695   7.647   6.101  0.4227  0.5954  0.3714
  937MOL0     C26420   5.537   7.630   6.110  1.0198 -0.3571 -0.5989
  937MOL0     C26421   5.462   7.711   6.010 -0.4493 -0.8247  0.4606
  937MOL0     C26422   5.306   7.704   6.019  0.5784  0.6340  0.0487
  937MOL0     C26423   5.255   7.565   6.026 -0.3424  0.0776  0.3649
  937MOL0     C26424   5.224   7.448   6.018 -0.5911  0.5677 -0.2611
  937MOL0     C26425   5.977   7.525   5.901  0.4612 -0.2291 -0.1434
  937MOL0     C26426   6.120   7.532   5.892 -0.0584  1.2410  0.3528
  937MOL0     C26427   6.179   7.520   5.755  0.2687 -0.2415  0.0182
  937MOL0     H26428   6.537   7.558   6.347  1.8126  1.2210  1.9048
  937MOL0     H26429   6.772   7.528   6.370  2.3406 -1.4340 -0.8760
  937MOL0     H26430   7.015   7.567   5.996  2.0367  1.4668 -2.4860
  937MOL0     H26431   7.059   7.726   6.077  1.8076 -0.1126  1.0710
  937MOL0     H26432   7.151   7.447   6.175  0.0242  0.8409  3.2391
  937MOL0     H26433   7.215   7.592   6.232  1.9536 -2.6779  1.7135
  937MOL0     H26434   7.340   7.638   6.024  1.2206  0.4241 -0.1152
  937MOL0     H26435   7.256   7.505   5.933 -0.5116 -0.3235 -0.6272
  937MOL0     H26436   7.495   7.479   6.026  1.6871 -0.3751  2.2019
  937MOL0     H26437   7.438   7.477   6.180 -0.5850  1.9722 -1.2715
  937MOL0     H26438   7.295   7.254   6.078 -0.6029 -0.2717 -3.3278
  937MOL0     H26439   7.407   7.285   5.946  1.4034  1.5322 -0.1251
  937MOL0     H26440   7.518   7.275   6.226  0.7703 -0.3523  0.6302
  937MOL0     H26441   7.473   7.127   6.145 -1.0722  0.9226 -0.2791
  937MOL0     H26442   7.680   7.323   6.021  0.9281  0.4601  0.2565
  937MOL0     H26443   7.662   7.150   5.987  0.5273 -0.8993  1.2479
  937MOL0     H26444   7.756   7.258   6.255  0.6721 -0.6103  0.7208
  937MOL0     H26445   7.704   7.092   6.219 -0.7942  0.8266  0.1701
  937MOL0     H26446   7.925   7.324   6.011 -0.9535  1.2903  2.9079
  937MOL0     H26447   8.249   7.152   5.920  2.1032 -0.3575  0.1779
  937MOL0     H26448   8.170   7.304   5.877 -0.7513  3.9493  2.6458
  937MOL0     H26449   8.202   7.402   6.110 -0.0683  0.0902  0.4606
  937MOL0     H26450   8.293   7.258   6.150 -0.9577 -2.2497 -3.1846
  937MOL0     H26451   8.440   7.326   5.942 -0.1958 -0.7876  0.7287
  937MOL0     H26452   8.467   7.402   6.100  0.3768  2.1205 -0.0547
  937MOL0     H26453   8.468   7.570   5.940 -0.4105 -0.1079 -0.0535
  937MOL0     H26454   8.314   7.590   6.026  2.8036 -0.2054  2.9002
  937MOL0     H26455   8.370   7.777   5.849 -1.3448  1.5476 -1.0821
  937MOL0     H26456   8.423   7.920   5.667 -0.9207  0.2234 -0.8800
  937MOL0     H26457   8.554   8.014   5.173  0.7483 -0.2901 -0.3265
  937MOL0     H26458   8.476   8.131   4.974 -0.7924  1.0169 -1.9834
  937MOL0     H26459   8.104   7.922   4.781 -0.1427 -0.6767  3.6033
  937MOL0     H26460   8.034   8.072   4.841 -0.5543  1.2121 -2.6389
  937MOL0     H26461   8.079   8.190   4.638  4.3835  0.5275 -2.6756
  937MOL0     H26462   8.202   8.082   4.586  0.7237  2.3025  1.1808
  937MOL0     H26463   8.037   8.027   4.449 -0.9971 -0.0026  0.6817
  937MOL0     H26464   8.029   7.897   4.574 -0.0660 -0.6667 -1.2435
  937MOL0     H26465   7.855   7.990   4.699  0.3835  0.0336 -0.3728
  937MOL0     H26466   7.805   7.972   4.530 -0.5776 -0.8954  0.9924
  937MOL0     H26467   7.863   8.231   4.659  1.2715  0.3141 -1.7609
  937MOL0     H26468   7.703   8.147   4.603 -0.0311  1.5599 -0.7408
  937MOL0     H26469   7.933   8.225   4.433  0.4097 -0.5839 -0.0237
  937MOL0     H26470   7.777   8.173   4.372 -3.2351  2.2433  0.3682
  937MOL0     H26471   7.792   8.422   4.359  0.2595 -1.3162 -0.9614
  937MOL0     H26472   7.819   8.437   4.533  1.3728  0.6191 -1.6860
  937MOL0     H26473   7.585   8.375   4.570 -0.6757 -1.5467 -0.3108
  937MOL0     H26474   7.594   8.498   4.449 -1.7328 -1.0178 -0.0463
  937MOL0     H26475   8.135   7.862   4.975 -1.4038  0.7506  2.4585
  937MOL0     H26476   8.240   7.745   5.172  1.6701 -1.5842 -1.7461
  937MOL0     H26477   8.345   7.596   5.396 -0.9452  1.8750 -0.2389
  937MOL0     H26478   8.337   7.441   5.579  1.4447  0.0164 -0.2198
  937MOL0     H26479   6.817   7.680   5.957 -1.3583  2.5714 -0.1235
  937MOL0     H26480   6.587   7.709   5.945 -1.5953 -1.3877 -0.3394
  937MOL0     H26481   6.179   7.620   6.218 -1.5485 -1.6206  1.3714
  937MOL0     H26482   5.931   7.643   6.216  1.4279 -1.4744  1.5640
  937MOL0     H26483   5.720   7.753   6.093  0.0674  0.6504 -0.0405
  937MOL0     H26484   5.725   7.608   6.199 -0.9355 -0.8365  0.2594
  937MOL0     H26485   5.501   7.678   6.202 -0.6617 -0.0826 -1.3651
  937MOL0     H26486   5.502   7.527   6.110 -0.2900  0.0623 -1.2960
  937MOL0     H26487   5.487   7.675   5.909 -2.3292 -1.0530  0.0455
  937MOL0     H26488   5.474   7.819   6.018 -1.4244 -0.6398 -0.4594
  937MOL0     H26489   5.269   7.757   6.107 -0.5703 -0.3466  0.1889
  937MOL0     H26490   5.256   7.743   5.929 -1.4034  0.4808  1.0291
  937MOL0     H26491   5.184   7.349   6.018 -0.5649  0.5201  1.5197
  937MOL0     H26492   5.922   7.502   5.810  2.0775 -0.4696 -1.0981
  937MOL0     H26493   6.267   7.582   5.737  0.8092 -1.1959 -0.7365
  937MOL0     H26494   6.194   7.412   5.742  2.5653 -0.1576  1.4092
  937MOL0     H26495   6.111   7.542   5.672  0.0632  0.8335  0.4568
  938MOL0     O26496   9.882   8.163   4.999 -0.9254  0.0787  0.0446
  938MOL0     C26497   9.774   8.190   4.953  0.5015  0.0659  0.0232
  938MOL0     O26498   9.727   8.135   4.834  0.0671 -0.5327  0.5158
  938MOL0     C26499   9.805   8.074   4.735 -0.1473  0.9943 -1.8206
  938MOL0     C26500   9.749   7.981   4.656 -0.1297 -0.4794  0.5232
  938MOL0     C26501   9.830   7.930   4.549  0.5075 -0.3451 -0.2234
  938MOL0     C26502   9.962   7.960   4.532  0.3445  0.2210  0.7533
  938MOL0     O26503  10.034   7.908   4.428  0.7616  0.2152 -0.3209
  938MOL0     C26504   9.994   7.779   4.382  0.0444 -0.0599 -0.1692
  938MOL0     C26505  10.107   7.719   4.296  0.2969  0.1144  0.0478
  938MOL0     C26506  10.238   7.703   4.370  0.0382  0.8915  0.1499
  938MOL0     C26507  10.339   7.614   4.280 -0.2038 -0.7262 -0.0440
  938MOL0     C26508  10.483   7.619   4.346  0.0181 -0.4701  0.0958
  938MOL0     C26509  10.582   7.538   4.266  0.4185 -0.5832  0.2183
  938MOL0     C26510  10.703   7.523   4.349 -0.8993  0.7957  0.1084
  938MOL0     C26511  10.782   7.395   4.307  0.0864 -0.5304 -0.1882
  938MOL0     N26512  10.860   7.418   4.182  0.0044 -0.1707 -0.2748
  938MOL0     C26513  10.958   7.512   4.181 -0.7397  1.0481 -0.4375
  938MOL0     C26514  11.043   7.464   4.092  0.4419 -0.2939 -0.2998
  938MOL0     C26515  11.182   7.519   4.069  0.2513  1.0481  0.0795
  938MOL0     C26516  11.279   7.507   4.189 -0.1391  0.6165 -0.4342
  938MOL0     C26517  11.416   7.574   4.154 -0.6771 -0.0284 -0.3448
  938MOL0     C26518  11.493   7.510   4.043  0.7224 -0.1249  0.8737
  938MOL0     O26519  11.504   7.367   4.060 -0.1840  0.7302 -0.3752
  938MOL0     C26520  11.623   7.315   4.122  1.1671 -0.7037  0.2710
  938MOL0     C26521  11.734   7.392   4.157 -0.4414  0.4836 -0.7091
  938MOL0     C26522  11.850   7.334   4.216 -0.8551  1.2343 -0.1023
  938MOL0     C26523  11.844   7.190   4.240 -0.7737 -0.2502  0.3261
  938MOL0     C26524  11.965   7.128   4.308  0.0493 -0.6917  0.3211
  938MOL0     O26525  12.058   7.217   4.357  0.0596  0.0427 -0.1138
  938MOL0     C26526  12.157   7.160   4.435  0.2914  0.3223  0.1570
  938MOL0     C26527  12.259   7.081   4.385 -0.4253 -0.9735  0.5322
  938MOL0     C26528  12.370   7.041   4.461  0.0891 -0.0085 -0.4798
  938MOL0     C26529  12.380   7.081   4.596 -0.2729  0.4890  0.3242
  938MOL0     O26530  12.477   7.022   4.671  0.2123 -0.3746 -0.0911
  938MOL0     C26531  12.496   7.058   4.806 -0.3083  0.0188  0.5546
  938MOL0     C26532  12.625   6.999   4.852  0.1567 -0.9905  0.9092
  938MOL0     C26533  12.740   7.077   4.785  0.4661  0.2147 -0.6423
  938MOL0     C26534  12.865   7.011   4.836  0.0826  0.2383  0.1746
  938MOL0     C26535  12.977   7.084   4.757 -0.0848  0.3918  0.3608
  938MOL0     C26536  13.111   7.024   4.789  0.6942  0.3934  0.4127
  938MOL0     C26537  13.158   7.057   4.934  0.8457  0.3470 -0.6153
  938MOL0     C26538  13.304   7.019   4.966  0.0543 -1.1273  0.1574
  938MOL0    Cl26539  13.317   6.837   4.969 -0.0633 -0.1934 -0.2503
  938MOL0     C26540  12.288   7.181   4.632 -0.9851  0.6313  0.0094
  938MOL0     C26541  12.183   7.218   4.553  0.6044  0.7228  0.3299
  938MOL0     O26542  11.980   7.007   4.310 -1.0750  0.6429  0.2552
  938MOL0     C26543  11.736   7.115   4.201 -0.1970  0.2144  0.2213
  938MOL0     C26544  11.628   7.182   4.149 -0.3093 -0.8191  0.6592
  938MOL0     N26545  10.999   7.350   4.035 -0.0445 -0.2232  0.2859
  938MOL0     N26546  10.886   7.314   4.096  0.1026  0.0755 -0.1348
  938MOL0     C26547  10.018   8.056   4.611  0.1699  0.2752  0.5374
  938MOL0     C26548   9.943   8.109   4.714  0.2350 -0.1492 -0.0502
  938MOL0     C26549   9.667   8.243   5.042 -0.2196  0.2712 -0.4633
  938MOL0     C26550   9.666   8.207   5.181  0.1925 -0.3830 -0.2468
  938MOL0     C26551   9.555   8.226   5.257  0.3667  0.2427 -0.0001
  938MOL0     C26552   9.446   8.291   5.215 -1.1444  0.4507  0.7397
  938MOL0     O26553   9.341   8.321   5.291 -0.1266  0.0851 -0.1759
  938MOL0     C26554   9.275   8.199   5.333 -0.1065 -0.3093 -0.0853
  938MOL0     C26555   9.153   8.239   5.409 -0.4172  0.8736  0.9981
  938MOL0     C26556   9.050   8.296   5.307 -0.4562 -0.8596  0.4597
  938MOL0     C26557   8.943   8.204   5.257  0.2489 -0.5754  0.2036
  938MOL0     C26558   8.817   8.199   5.331  0.8797 -0.0155  0.4246
  938MOL0     C26559   8.712   8.174   5.391 -0.6065 -1.0198 -0.7396
  938MOL0     C26560   9.447   8.341   5.079 -0.0844 -0.0127  0.4262
  938MOL0     C26561   9.557   8.311   4.993 -0.0245  0.1829 -0.0135
  938MOL0     C26562   9.556   8.380   4.858 -0.0706 -0.1423  1.0487
  938MOL0     H26563   9.647   7.956   4.683  0.1067  0.3100  2.3005
  938MOL0     H26564   9.780   7.864   4.478  1.8204  0.0738 -1.5894
  938MOL0     H26565   9.977   7.708   4.463  0.0262 -1.8099 -1.6426
  938MOL0     H26566   9.904   7.796   4.322  0.4761  1.6217 -0.3902
  938MOL0     H26567  10.129   7.780   4.207 -0.8655  2.1155  1.0419
  938MOL0     H26568  10.080   7.621   4.257 -2.5497  0.4128  1.0470
  938MOL0     H26569  10.225   7.658   4.469 -0.0228 -1.1804 -0.7428
  938MOL0     H26570  10.279   7.804   4.382 -2.2531  1.7196  1.7104
  938MOL0     H26571  10.303   7.511   4.279 -1.2747 -0.4018  1.3856
  938MOL0     H26572  10.331   7.663   4.182 -1.4385  0.4848  0.6159
  938MOL0     H26573  10.521   7.721   4.351  1.3338 -0.6793 -3.0395
  938MOL0     H26574  10.476   7.565   4.441  1.7618 -0.8141  0.0704
  938MOL0     H26575  10.534   7.444   4.236  2.0664 -1.3274 -0.1877
  938MOL0     H26576  10.596   7.594   4.173 -1.9277  1.2170  0.8468
  938MOL0     H26577  10.678   7.512   4.455  0.1453  1.5669  0.4473
  938MOL0     H26578  10.764   7.613   4.335  0.6627 -0.1609  0.4321
  938MOL0     H26579  10.850   7.358   4.385  0.8372 -0.4410 -0.7843
  938MOL0     H26580  10.710   7.315   4.290 -0.1575 -0.3360 -0.0672
  938MOL0     H26581  10.971   7.598   4.246  1.0669  0.7588 -0.3548
  938MOL0     H26582  11.220   7.465   3.982  1.2885  0.1176  1.0694
  938MOL0     H26583  11.165   7.623   4.040 -1.2674 -0.0112 -3.3831
  938MOL0     H26584  11.232   7.569   4.266  0.7143  2.1318 -1.0877
  938MOL0     H26585  11.289   7.402   4.220  0.6700  0.4646 -1.1591
  938MOL0     H26586  11.476   7.568   4.245 -2.5618 -0.5519  0.9247
  938MOL0     H26587  11.407   7.682   4.138  0.2442  0.2606  0.9001
  938MOL0     H26588  11.587   7.562   4.018  0.2693  0.2907 -0.0268
  938MOL0     H26589  11.432   7.510   3.953  0.2347  0.5379  1.1976
  938MOL0     H26590  11.745   7.501   4.157  2.2727  0.3240  0.8327
  938MOL0     H26591  11.939   7.394   4.232 -2.1421  3.4022 -0.7056
  938MOL0     H26592  12.256   7.063   4.278  2.2186 -3.1336  0.7231
  938MOL0     H26593  12.446   6.975   4.423  0.7633  0.3307  0.2436
  938MOL0     H26594  12.494   7.167   4.817  1.2160  0.0445  0.7615
  938MOL0     H26595  12.408   7.013   4.854 -1.9224  1.0943 -1.2941
  938MOL0     H26596  12.638   6.992   4.960 -0.2631 -1.7741  0.9182
  938MOL0     H26597  12.644   6.899   4.813  0.8651 -1.0707  1.4476
  938MOL0     H26598  12.735   7.063   4.677  1.7148 -0.6734 -0.6026
  938MOL0     H26599  12.735   7.185   4.801 -0.9566  0.2727 -1.3438
  938MOL0     H26600  12.856   6.903   4.818  1.3238  0.5197 -2.7321
  938MOL0     H26601  12.878   7.035   4.942  1.5855  1.6027 -0.2769
  938MOL0     H26602  12.993   7.190   4.781 -0.4262 -0.3409  4.5468
  938MOL0     H26603  12.964   7.066   4.650 -2.0224  0.1147  0.6112
  938MOL0     H26604  13.091   6.917   4.783  1.3770  0.2094  1.3087
  938MOL0     H26605  13.183   7.056   4.713 -0.1577 -0.7070 -0.9184
  938MOL0     H26606  13.093   6.997   4.999 -1.0571  1.1978 -1.6438
  938MOL0     H26607  13.137   7.160   4.963  1.2818  0.2882 -0.0634
  938MOL0     H26608  13.375   7.064   4.896  2.1377  0.7343  3.2254
  938MOL0     H26609  13.326   7.047   5.069 -0.2534 -3.1301  0.8086
  938MOL0     H26610  12.321   7.239   4.718 -1.5263  0.9852 -0.0188
  938MOL0     H26611  12.125   7.304   4.586  0.3932 -0.4536  3.3982
  938MOL0     H26612  11.738   7.007   4.213  3.5851  0.1852  0.4787
  938MOL0     H26613  11.541   7.126   4.116 -0.8305  0.0807  0.4868
  938MOL0     H26614  10.124   8.066   4.590 -0.3274  1.7783 -1.6252
  938MOL0     H26615   9.987   8.186   4.777 -0.0497  0.4408 -0.5574
  938MOL0     H26616   9.750   8.158   5.229  2.3339  2.6510 -0.6011
  938MOL0     H26617   9.559   8.193   5.361 -0.1232 -1.4470 -0.4709
  938MOL0     H26618   9.337   8.140   5.401 -1.1903 -2.0586 -0.5286
  938MOL0     H26619   9.242   8.132   5.253 -1.9496  0.0972  0.2985
  938MOL0     H26620   9.184   8.296   5.496  2.3488 -2.2831  2.2643
  938MOL0     H26621   9.102   8.154   5.455 -0.1524 -0.2635 -0.7156
  938MOL0     H26622   9.109   8.323   5.218  1.1271  1.1261  2.0015
  938MOL0     H26623   9.001   8.389   5.339 -0.6232 -0.6002 -0.4898
  938MOL0     H26624   8.918   8.225   5.152  0.9764 -4.4266 -0.9011
  938MOL0     H26625   8.992   8.106   5.253  0.3004 -0.5262 -0.8888
  938MOL0     H26626   8.625   8.148   5.448  0.3748 -0.6777  0.9776
  938MOL0     H26627   9.360   8.395   5.042  0.2306 -0.2110 -0.6438
  938MOL0     H26628   9.657   8.422   4.849  0.0448 -0.6026  0.0453
  938MOL0     H26629   9.545   8.314   4.772  2.6135  1.8792 -1.0402
  938MOL0     H26630   9.484   8.461   4.851 -1.7508 -1.6722 -0.5432
  939MOL0     O26631   8.533   5.992   6.278  0.2308  0.0728 -0.9202
  939MOL0     C26632   8.494   5.938   6.377  0.5465  0.3404 -0.5962
  939MOL0     O26633   8.557   5.939   6.499  0.6536  0.7141  0.5434
  939MOL0     C26634   8.682   5.988   6.517 -0.5954 -0.5343  0.6234
  939MOL0     C26635   8.706   6.106   6.585 -0.3829 -1.0229  0.1456
  939MOL0     C26636   8.833   6.164   6.602  0.5025 -0.4188 -0.3048
  939MOL0     C26637   8.944   6.104   6.544 -0.5132  0.4447  0.0486
  939MOL0     O26638   9.073   6.146   6.531 -0.0516  0.2558  0.3130
  939MOL0     C26639   9.108   6.283   6.570  0.9322 -0.5617 -1.1886
  939MOL0     C26640   9.058   6.390   6.467 -0.1145  0.6668 -0.3217
  939MOL0     C26641   9.118   6.367   6.325  0.6173 -0.1592 -0.2381
  939MOL0     C26642   9.275   6.380   6.318  0.6248  0.3433 -0.3629
  939MOL0     C26643   9.315   6.386   6.165  0.2371  0.4666  0.2902
  939MOL0     C26644   9.467   6.390   6.135 -0.1777  0.2238 -0.4548
  939MOL0     C26645   9.501   6.367   5.988  0.7013  0.4076  0.4060
  939MOL0     C26646   9.651   6.340   5.962  0.4151  0.2886  1.1689
  939MOL0     N26647   9.730   6.461   6.001  0.3138 -0.2585  0.2976
  939MOL0     C26648   9.770   6.491   6.129  0.2179  0.0576  0.1586
  939MOL0     C26649   9.820   6.612   6.124 -0.2639 -0.3842  0.4541
  939MOL0     C26650   9.866   6.692   6.244  0.1229 -0.5776  0.5333
  939MOL0     C26651   9.758   6.797   6.272  0.1766 -0.7743  0.7498
  939MOL0     C26652   9.686   6.876   6.165 -0.5967  0.9452 -0.8296
  939MOL0     C26653   9.785   6.963   6.085  0.4444  0.5641 -0.1393
  939MOL0     O26654   9.849   7.048   6.173  0.4940 -0.4524 -0.2274
  939MOL0     C26655   9.979   7.080   6.164 -0.4868  0.5367  0.0773
  939MOL0     C26656  10.032   7.145   6.277 -0.7342  0.8206  0.0779
  939MOL0     C26657  10.166   7.190   6.289  0.2535  0.4922 -0.4200
  939MOL0     C26658  10.251   7.178   6.175  0.3547 -0.2162  0.1590
  939MOL0     C26659  10.397   7.218   6.184 -0.3058 -0.1084 -0.5148
  939MOL0     O26660  10.434   7.278   6.301 -0.3854 -0.3631  0.3103
  939MOL0     C26661  10.569   7.305   6.308  0.6197 -0.0761  0.5245
  939MOL0     C26662  10.614   7.440   6.306 -0.4550 -0.5388 -0.6337
  939MOL0     C26663  10.753   7.468   6.331  0.4929  0.4625  0.1801
  939MOL0     C26664  10.845   7.364   6.335  0.0891  0.3153 -0.7506
  939MOL0     O26665  10.985   7.386   6.339  0.4374  0.7586 -0.7231
  939MOL0     C26666  11.047   7.501   6.302  1.0649 -0.1414 -0.7094
  939MOL0     C26667  11.195   7.510   6.334  0.2604  0.3661  0.1953
  939MOL0     C26668  11.268   7.392   6.275 -0.8295  0.9841 -0.0420
  939MOL0     C26669  11.422   7.415   6.292  0.4841  0.1683 -0.1345
  939MOL0     C26670  11.473   7.377   6.436 -0.1897 -0.2224  1.0113
  939MOL0     C26671  11.620   7.358   6.436 -0.4735  0.2027  0.3564
  939MOL0     C26672  11.683   7.253   6.346  0.0226 -0.6420 -0.1459
  939MOL0     C26673  11.829   7.229   6.388  0.1898 -0.6923  0.5886
  939MOL0    Cl26674  11.833   7.116   6.529 -0.0622 -0.0702 -0.1491
  939MOL0     C26675  10.802   7.228   6.348  0.1736  0.2332  0.5397
  939MOL0     C26676  10.660   7.201   6.330  0.0835 -0.0357  0.5936
  939MOL0     O26677  10.465   7.210   6.085  0.0803 -0.2212  0.2582
  939MOL0     C26678  10.192   7.124   6.069  0.3582 -0.2864  0.1145
  939MOL0     C26679  10.064   7.089   6.052  0.6889  1.0625 -0.1596
  939MOL0     N26680   9.808   6.650   5.992 -0.1177 -0.0901  0.6224
  939MOL0     N26681   9.759   6.559   5.915  0.4987  0.4806  0.9382
  939MOL0     C26682   8.923   5.986   6.473 -0.2077 -0.2752 -0.1591
  939MOL0     C26683   8.793   5.930   6.459  0.1223  0.2219 -0.2338
  939MOL0     C26684   8.356   5.867   6.365 -0.7672  0.0801 -0.0444
  939MOL0     C26685   8.293   5.821   6.485 -1.4985  0.8594  0.3839
  939MOL0     C26686   8.166   5.754   6.485 -0.1664 -0.1907  1.1504
  939MOL0     C26687   8.098   5.736   6.367 -0.4316  0.1145  0.6187
  939MOL0     O26688   7.977   5.673   6.385 -0.2356 -0.0126  0.3829
  939MOL0     C26689   7.908   5.620   6.273  0.3496 -0.1818 -0.3531
  939MOL0     C26690   7.767   5.578   6.315  0.5495  0.2631  0.3218
  939MOL0     C26691   7.758   5.473   6.428 -0.1377 -0.1523 -0.4441
  939MOL0     C26692   7.636   5.374   6.414 -0.3085  0.6339 -0.8560
  939MOL0     C26693   7.625   5.298   6.550  0.4812 -0.3801  0.1881
  939MOL0     C26694   7.640   5.243   6.663  0.0433 -0.2994 -0.4671
  939MOL0     C26695   8.154   5.783   6.246  0.1506 -0.2692 -0.4073
  939MOL0     C26696   8.285   5.841   6.238 -1.1680 -0.2995 -0.5561
  939MOL0     C26697   8.353   5.861   6.097  0.9877  0.5425 -0.4069
  939MOL0     H26698   8.619   6.153   6.631 -1.5187 -2.1779 -0.7581
  939MOL0     H26699   8.841   6.251   6.666 -1.4528 -0.1162 -0.3938
  939MOL0     H26700   9.070   6.306   6.670 -1.3253  1.4345 -2.3910
  939MOL0     H26701   9.217   6.289   6.578  0.9005  0.5215 -1.3493
  939MOL0     H26702   9.088   6.489   6.501 -0.2540  1.3948 -2.1990
  939MOL0     H26703   8.949   6.383   6.469 -0.1250  0.9610  0.7971
  939MOL0     H26704   9.071   6.437   6.255 -0.1301  1.4372  1.7469
  939MOL0     H26705   9.101   6.261   6.304  2.3624 -0.1843 -1.8414
  939MOL0     H26706   9.316   6.466   6.372 -1.1599  0.5974  0.6975
  939MOL0     H26707   9.320   6.296   6.371 -1.6120 -0.9657 -0.4177
  939MOL0     H26708   9.269   6.309   6.102  1.5355  0.0646 -0.2019
  939MOL0     H26709   9.280   6.486   6.137  1.0321  0.7743  0.3517
  939MOL0     H26710   9.508   6.487   6.166 -1.9005  1.1124 -0.8362
  939MOL0     H26711   9.518   6.311   6.190  2.5654  2.9441  1.2268
  939MOL0     H26712   9.467   6.453   5.931 -1.9108 -0.2687  0.8003
  939MOL0     H26713   9.442   6.286   5.943  0.3878  0.9000 -0.0749
  939MOL0     H26714   9.692   6.262   6.027  0.9517  1.0618  1.7773
  939MOL0     H26715   9.673   6.308   5.860  0.4578  3.2302  0.1690
  939MOL0     H26716   9.762   6.425   6.215  0.3155  0.2710  0.3353
  939MOL0     H26717   9.872   6.628   6.333 -0.1229 -1.0757  0.2002
  939MOL0     H26718   9.969   6.727   6.230  0.2414 -0.9397  0.4788
  939MOL0     H26719   9.677   6.748   6.326  0.6301 -1.2770  0.9784
  939MOL0     H26720   9.798   6.870   6.343 -1.6438  0.9075  0.1419
  939MOL0     H26721   9.619   6.946   6.217 -1.5785  0.0050 -0.7906
  939MOL0     H26722   9.616   6.812   6.111 -1.1563  2.1158 -1.5477
  939MOL0     H26723   9.716   7.019   6.021  1.3231 -0.2257 -1.8501
  939MOL0     H26724   9.859   6.903   6.030  1.6710  1.2820  0.6730
  939MOL0     H26725   9.966   7.157   6.363 -3.3338 -2.6664 -1.1913
  939MOL0     H26726  10.198   7.236   6.381 -2.3890 -0.3481  1.0193
  939MOL0     H26727  10.539   7.514   6.283 -2.3310 -1.4390  2.0953
  939MOL0     H26728  10.784   7.572   6.339  2.4075 -0.1010  0.6012
  939MOL0     H26729  11.035   7.521   6.195 -0.3632 -0.5240 -0.6420
  939MOL0     H26730  10.993   7.576   6.362 -0.0265 -1.7016  0.3453
  939MOL0     H26731  11.238   7.609   6.317  2.3917 -0.7286 -1.2867
  939MOL0     H26732  11.209   7.505   6.443  2.2271  2.4896  0.1172
  939MOL0     H26733  11.242   7.293   6.311  1.1111  0.9532  1.4045
  939MOL0     H26734  11.243   7.389   6.168  1.0970 -0.8542 -0.4949
  939MOL0     H26735  11.460   7.512   6.259  2.8925 -1.2121 -1.7529
  939MOL0     H26736  11.469   7.346   6.221  1.3920 -1.8974  2.2725
  939MOL0     H26737  11.419   7.286   6.463 -1.1620  0.2337  0.6625
  939MOL0     H26738  11.433   7.453   6.502 -2.1195 -0.4592  0.1879
  939MOL0     H26739  11.663   7.452   6.402 -0.0684  0.2172  0.8887
  939MOL0     H26740  11.639   7.341   6.542 -1.8258 -2.4540  0.2596
  939MOL0     H26741  11.683   7.284   6.241  3.8111  0.5937  0.0768
  939MOL0     H26742  11.620   7.164   6.346  1.4809 -1.7117  0.0832
  939MOL0     H26743  11.873   7.182   6.300  0.1426  0.1781  0.0851
  939MOL0     H26744  11.877   7.325   6.409 -0.8833 -0.4735  2.2062
  939MOL0     H26745  10.873   7.153   6.380  2.6009  2.6377  1.1327
  939MOL0     H26746  10.609   7.105   6.338 -1.9503  0.7494 -1.6248
  939MOL0     H26747  10.262   7.103   5.988 -0.3693 -4.2522  0.3311
  939MOL0     H26748  10.029   7.053   5.956  1.0413  0.8427 -0.2071
  939MOL0     H26749   9.010   5.926   6.448 -1.5479 -3.1319  1.5087
  939MOL0     H26750   8.783   5.827   6.427  1.9399  0.2333 -0.9587
  939MOL0     H26751   8.352   5.837   6.575  0.2119  0.7531 -0.6804
  939MOL0     H26752   8.117   5.718   6.575 -1.0110  4.1453  2.6737
  939MOL0     H26753   7.966   5.531   6.248  1.3010 -0.1583  1.5460
  939MOL0     H26754   7.889   5.688   6.189  1.2999  0.4611 -0.0638
  939MOL0     H26755   7.728   5.533   6.223 -0.7147 -1.2395  1.5301
  939MOL0     H26756   7.706   5.663   6.345  1.2789 -0.3593  4.0410
  939MOL0     H26757   7.746   5.525   6.523 -1.2920 -1.0798 -0.0551
  939MOL0     H26758   7.853   5.419   6.437  0.1989  0.6511  1.0857
  939MOL0     H26759   7.548   5.439   6.412  0.7991  2.6332  2.8966
  939MOL0     H26760   7.646   5.315   6.323  2.4984 -2.0725  0.9966
  939MOL0     H26761   7.649   5.194   6.758  0.3317  1.2156  0.3231
  939MOL0     H26762   8.103   5.754   6.155  0.6734 -3.5996  0.2305
  939MOL0     H26763   8.350   5.967   6.068 -2.4135 -0.1931 -3.3688
  939MOL0     H26764   8.457   5.829   6.105  0.4504 -0.8223  2.3555
  939MOL0     H26765   8.305   5.799   6.022 -0.0942 -1.0390  1.5009
  940MOL0     O26766   8.954   6.651   3.594  0.0658 -0.6320 -0.5794
  940MOL0     C26767   8.883   6.722   3.675 -1.1373 -0.5462  0.7956
  940MOL0     O26768   8.876   6.708   3.803 -0.2393  0.2922 -0.2716
  940MOL0     C26769   8.920   6.591   3.844 -0.0888 -0.4079 -0.2877
  940MOL0     C26770   8.839   6.475   3.832 -0.2578  0.6905 -0.3528
  940MOL0     C26771   8.880   6.348   3.885 -0.1350 -0.7967  0.6381
  940MOL0     C26772   9.010   6.335   3.939  0.1662  0.8287 -0.2975
  940MOL0     O26773   9.066   6.219   3.983 -0.4510  0.7641 -0.8429
  940MOL0     C26774   8.973   6.131   4.051  0.0520 -0.8214 -0.3946
  940MOL0     C26775   9.055   6.027   4.127  0.1320 -0.5960 -0.1421
  940MOL0     C26776   8.968   5.944   4.227  0.1303  0.7244 -0.1946
  940MOL0     C26777   9.058   5.830   4.288 -0.6839  0.2250  0.8354
  940MOL0     C26778   8.977   5.749   4.383  0.1925 -0.0916  0.4088
  940MOL0     C26779   9.064   5.665   4.482  0.3035 -1.2065 -0.0833
  940MOL0     C26780   8.969   5.576   4.574  0.5695 -0.6743 -0.7315
  940MOL0     C26781   8.912   5.450   4.518 -0.2071 -0.3809 -0.6214
  940MOL0     N26782   9.013   5.384   4.436  0.0090 -0.3967 -1.0198
  940MOL0     C26783   9.008   5.400   4.299  0.8860  0.1121 -0.2497
  940MOL0     C26784   9.118   5.334   4.257  0.3952 -0.7717 -0.0069
  940MOL0     C26785   9.150   5.315   4.104 -1.0442 -0.1594 -0.6291
  940MOL0     C26786   9.166   5.172   4.050 -0.2581  0.0043  0.7540
  940MOL0     C26787   9.226   5.178   3.902 -0.2384 -0.3741 -0.1377
  940MOL0     C26788   9.283   5.040   3.857  1.0646  1.4738 -0.5375
  940MOL0     O26789   9.401   5.017   3.928  0.0468 -0.1800 -0.7165
  940MOL0     C26790   9.525   4.992   3.865 -0.0807 -0.4529  0.5145
  940MOL0     C26791   9.554   5.008   3.731 -0.0170 -1.1300  0.0984
  940MOL0     C26792   9.683   4.976   3.673  0.3379  1.5266 -0.4362
  940MOL0     C26793   9.782   4.918   3.750  0.0878  0.1427  0.4177
  940MOL0     C26794   9.908   4.882   3.690 -0.0972  0.2940 -0.0375
  940MOL0     O26795   9.933   4.911   3.558  0.6358 -0.1133  0.3804
  940MOL0     C26796  10.056   4.882   3.493 -0.1631  0.3743 -0.2770
  940MOL0     C26797  10.176   4.841   3.545  0.0555 -0.3199 -0.5923
  940MOL0     C26798  10.288   4.834   3.459  0.6056  0.6845  0.2349
  940MOL0     C26799  10.273   4.848   3.320  0.3840 -0.3261  0.4885
  940MOL0     O26800  10.381   4.823   3.241 -0.1868  0.5816  0.1711
  940MOL0     C26801  10.345   4.752   3.122  0.0804  0.3365  0.0673
  940MOL0     C26802  10.469   4.655   3.093 -0.0287  0.1533 -0.4325
  940MOL0     C26803  10.508   4.636   2.950 -0.7438 -0.5415  0.0082
  940MOL0     C26804  10.579   4.759   2.883 -0.1084  0.9772  0.2350
  940MOL0     C26805  10.656   4.715   2.752  0.1395  0.3167  0.3932
  940MOL0     C26806  10.576   4.637   2.640  0.1683 -0.2660 -0.8456
  940MOL0     C26807  10.668   4.642   2.512  0.2777 -0.4051  0.2671
  940MOL0     C26808  10.744   4.512   2.480 -0.0894 -0.2362 -0.4425
  940MOL0    Cl26809  10.823   4.515   2.320 -0.3612 -0.4491  0.5407
  940MOL0     C26810  10.145   4.875   3.272 -0.7500  0.5472 -0.0102
  940MOL0     C26811  10.041   4.910   3.360 -0.8184  0.5797  0.6675
  940MOL0     O26812   9.989   4.829   3.765  0.1288  0.8620  0.2491
  940MOL0     C26813   9.753   4.900   3.893  0.3310  0.4798 -0.3341
  940MOL0     C26814   9.624   4.931   3.944  0.2274 -0.1894 -0.5416
  940MOL0     N26815   9.184   5.287   4.368 -0.0122  0.5470  0.3923
  940MOL0     N26816   9.120   5.323   4.478  0.3489  0.2485 -0.6613
  940MOL0     C26817   9.091   6.445   3.946  0.2821 -0.3134 -0.6469
  940MOL0     C26818   9.050   6.574   3.901 -0.1033  0.0120 -0.4113
  940MOL0     C26819   8.820   6.842   3.624 -0.7038 -0.6933  1.1903
  940MOL0     C26820   8.764   6.937   3.709 -0.2330  0.0311  0.4875
  940MOL0     C26821   8.698   7.048   3.657  0.3381  0.0553 -0.2664
  940MOL0     C26822   8.696   7.083   3.525 -0.0167 -0.6200 -0.1567
  940MOL0     O26823   8.658   7.212   3.484 -0.1107  0.5797  0.4925
  940MOL0     C26824   8.513   7.252   3.502 -0.1919  0.0452  0.2730
  940MOL0     C26825   8.494   7.397   3.483  0.3428  0.0726 -0.0601
  940MOL0     C26826   8.544   7.453   3.346  0.0944  0.5612  0.1641
  940MOL0     C26827   8.494   7.587   3.314 -0.4815 -0.0863 -0.1196
  940MOL0     C26828   8.555   7.691   3.398 -0.3381 -1.0032  0.5299
  940MOL0     C26829   8.600   7.782   3.466 -0.0164 -0.7634 -0.6471
  940MOL0     C26830   8.762   7.001   3.434  0.4380  0.2915 -0.0112
  940MOL0     C26831   8.817   6.877   3.485  0.5923 -0.1784  0.5590
  940MOL0     C26832   8.863   6.794   3.377 -0.3095 -0.5742 -0.3445
  940MOL0     H26833   8.746   6.492   3.780 -0.0289 -1.0774 -1.4084
  940MOL0     H26834   8.822   6.256   3.879 -1.3436  0.0161 -0.7262
  940MOL0     H26835   8.911   6.194   4.115  0.6412  0.5918 -1.1637
  940MOL0     H26836   8.910   6.074   3.983  0.5624 -0.4190 -1.2263
  940MOL0     H26837   9.132   6.084   4.179  1.1748  1.6099 -3.7701
  940MOL0     H26838   9.098   5.969   4.045 -0.4531 -3.2916  1.3300
  940MOL0     H26839   8.887   5.902   4.167 -1.9102  1.8089  1.7077
  940MOL0     H26840   8.918   6.000   4.306 -3.5672 -1.9216 -0.4193
  940MOL0     H26841   9.097   5.757   4.216 -1.9688 -0.8737  1.1902
  940MOL0     H26842   9.141   5.879   4.339  0.0668 -0.2033  0.0485
  940MOL0     H26843   8.899   5.805   4.436 -1.5279  0.7056 -2.7408
  940MOL0     H26844   8.914   5.675   4.332 -3.7687  0.9746  3.2575
  940MOL0     H26845   9.143   5.611   4.429  2.5769 -1.7965  3.5502
  940MOL0     H26846   9.115   5.733   4.551 -2.4931  1.1732 -0.1836
  940MOL0     H26847   8.883   5.630   4.615 -0.2399 -2.4054 -0.0281
  940MOL0     H26848   9.034   5.537   4.653 -0.4684 -1.9341 -0.4555
  940MOL0     H26849   8.899   5.385   4.605  0.5443  1.4114  0.9119
  940MOL0     H26850   8.815   5.474   4.474 -1.2632 -0.8164  1.3682
  940MOL0     H26851   8.933   5.442   4.233  2.5527  1.6480 -1.2528
  940MOL0     H26852   9.067   5.356   4.046 -0.9355 -0.7393 -1.2039
  940MOL0     H26853   9.243   5.371   4.089  0.1154 -1.6135  0.8430
  940MOL0     H26854   9.237   5.111   4.107  2.2983  2.3714  0.3717
  940MOL0     H26855   9.066   5.129   4.051  0.0323 -0.6950  0.6034
  940MOL0     H26856   9.304   5.252   3.883  0.4002 -0.9898  0.0527
  940MOL0     H26857   9.139   5.205   3.840 -0.0478  2.5925  0.7515
  940MOL0     H26858   9.293   5.021   3.749 -1.4963 -3.3364 -0.1912
  940MOL0     H26859   9.224   4.957   3.895  0.8232  0.8537 -2.1549
  940MOL0     H26860   9.486   5.056   3.660 -0.9335  0.4528  1.9639
  940MOL0     H26861   9.709   5.001   3.571 -0.5441  0.8707 -0.8379
  940MOL0     H26862  10.196   4.820   3.650 -3.1992  0.0812  0.2367
  940MOL0     H26863  10.388   4.816   3.497  1.0957 -1.2304 -1.7245
  940MOL0     H26864  10.258   4.687   3.129 -1.1153  1.5961 -1.9683
  940MOL0     H26865  10.331   4.821   3.039  0.9363 -0.5438 -0.8324
  940MOL0     H26866  10.558   4.688   3.148  2.2862 -2.3630 -2.3979
  940MOL0     H26867  10.435   4.557   3.126  0.1249 -0.3152 -1.6241
  940MOL0     H26868  10.574   4.551   2.931 -1.4850 -0.9665 -0.7003
  940MOL0     H26869  10.423   4.605   2.890 -1.2239  2.6493 -1.1796
  940MOL0     H26870  10.644   4.802   2.959  1.4728  1.1265 -1.1405
  940MOL0     H26871  10.498   4.828   2.858 -1.6902 -1.0537 -0.5608
  940MOL0     H26872  10.755   4.668   2.752 -0.3091 -0.9910 -3.4764
  940MOL0     H26873  10.680   4.810   2.703 -0.4025 -0.3680 -1.2954
  940MOL0     H26874  10.546   4.533   2.659  2.2616 -0.7153  0.2128
  940MOL0     H26875  10.485   4.693   2.617  0.1169  0.6256  1.2637
  940MOL0     H26876  10.742   4.723   2.516 -0.5749  0.3912  0.2630
  940MOL0     H26877  10.604   4.673   2.429  0.5943  0.0417  0.1826
  940MOL0     H26878  10.822   4.502   2.555  0.4719 -0.1035 -1.0005
  940MOL0     H26879  10.680   4.423   2.485 -0.6896  0.2187  0.3059
  940MOL0     H26880  10.141   4.888   3.165  2.9252  0.4750 -0.2945
  940MOL0     H26881   9.944   4.942   3.324  0.0624  1.1560 -1.3707
  940MOL0     H26882   9.820   4.848   3.960 -1.9334 -0.8011  1.0434
  940MOL0     H26883   9.592   4.901   4.043  1.7212  1.2634  0.4245
  940MOL0     H26884   9.191   6.441   3.987  0.4087 -0.5724 -0.9729
  940MOL0     H26885   9.107   6.666   3.902 -1.4365  0.8777 -0.5920
  940MOL0     H26886   8.763   6.929   3.817 -0.4085 -0.3017  0.4617
  940MOL0     H26887   8.649   7.115   3.727 -3.1837 -2.7065  0.2127
  940MOL0     H26888   8.468   7.225   3.598 -3.2243 -1.3203 -1.3887
  940MOL0     H26889   8.458   7.203   3.422  0.1088  0.9875 -0.5307
  940MOL0     H26890   8.542   7.452   3.564  1.2562 -0.2995 -0.3338
  940MOL0     H26891   8.387   7.418   3.475  0.5605  1.2285 -0.1519
  940MOL0     H26892   8.530   7.397   3.253  2.1936  4.6682 -2.9436
  940MOL0     H26893   8.649   7.458   3.376 -0.0791  4.0882  0.6364
  940MOL0     H26894   8.538   7.602   3.215  0.0282 -0.9110 -0.0315
  940MOL0     H26895   8.385   7.592   3.310 -0.5777 -1.9489 -3.4955
  940MOL0     H26896   8.623   7.854   3.542 -3.6281  2.0982 -1.9569
  940MOL0     H26897   8.762   7.016   3.326 -1.5977  0.8900  0.0376
  940MOL0     H26898   8.806   6.701   3.387 -0.0931 -0.7679 -0.9174
  940MOL0     H26899   8.845   6.829   3.275  1.2020 -2.1031 -1.1981
  940MOL0     H26900   8.971   6.780   3.392 -0.5886 -3.8184 -0.5018
  941MOL0     O26901  11.109   7.133  11.143 -0.1200  0.1483 -0.5597
  941MOL0     C26902  11.051   7.076  11.238 -0.2934 -0.4420 -0.3260
  941MOL0     O26903  11.116   7.005  11.327  1.2245 -0.3696 -0.3630
  941MOL0     C26904  11.254   7.015  11.342  0.1806 -0.4207  0.2044
  941MOL0     C26905  11.321   6.898  11.390  0.7898  0.8587 -0.6318
  941MOL0     C26906  11.454   6.885  11.414  0.2653  0.6304 -0.7980
  941MOL0     C26907  11.532   7.002  11.412 -0.3774 -0.0641  0.2463
  941MOL0     O26908  11.673   7.006  11.416 -0.0522 -0.3141 -0.4809
  941MOL0     C26909  11.736   6.890  11.362 -0.3323  0.0834  0.0584
  941MOL0     C26910  11.879   6.929  11.338 -0.3300  0.3913 -0.1795
  941MOL0     C26911  11.947   6.830  11.240  0.6693  0.6539  0.0892
  941MOL0     C26912  12.092   6.854  11.209  0.4508  0.0335  0.1817
  941MOL0     C26913  12.165   6.735  11.139  0.3615 -0.7952 -0.7994
  941MOL0     C26914  12.248   6.651  11.240  0.0324  0.8088 -0.2305
  941MOL0     C26915  12.338   6.556  11.162  0.4695  0.2878 -0.5428
  941MOL0     C26916  12.439   6.514  11.268  0.4876  0.3811  0.3661
  941MOL0     N26917  12.536   6.418  11.232 -0.7829 -0.3739  0.1446
  941MOL0     C26918  12.510   6.287  11.194 -0.5581 -1.0033  0.7993
  941MOL0     C26919  12.633   6.233  11.167  0.5116  0.6998 -0.2203
  941MOL0     C26920  12.666   6.097  11.114  0.1598 -0.1068  0.3101
  941MOL0     C26921  12.570   5.981  11.172  0.4207 -0.2807  0.5273
  941MOL0     C26922  12.630   5.846  11.127  0.4991  0.8235 -0.0010
  941MOL0     C26923  12.555   5.729  11.178 -0.5425 -0.1689 -0.4781
  941MOL0     O26924  12.420   5.728  11.128  0.3861 -0.7391 -0.0527
  941MOL0     C26925  12.332   5.634  11.171 -0.1713 -0.0519  0.5946
  941MOL0     C26926  12.199   5.650  11.140  0.0527 -0.5982 -0.6673
  941MOL0     C26927  12.108   5.550  11.180 -0.1614 -0.3072 -0.0246
  941MOL0     C26928  12.146   5.442  11.262 -0.6632 -0.1725 -0.3118
  941MOL0     C26929  12.049   5.342  11.297  0.1500 -0.2649 -0.2659
  941MOL0     O26930  11.923   5.360  11.255  0.3084 -0.1677 -0.3673
  941MOL0     C26931  11.826   5.272  11.284  0.1463 -1.0233 -0.8137
  941MOL0     C26932  11.718   5.317  11.368  0.6154 -0.1160 -1.1458
  941MOL0     C26933  11.623   5.235  11.429 -0.7481 -0.5781  0.4327
  941MOL0     C26934  11.626   5.096  11.399 -0.1876  0.6212  0.8232
  941MOL0     O26935  11.555   4.999  11.461 -0.3314  0.1290  0.1497
  941MOL0     C26936  11.452   5.033  11.542  0.5428 -0.0443 -0.2142
  941MOL0     C26937  11.407   4.899  11.592  0.1221  0.0210 -0.0320
  941MOL0     C26938  11.262   4.924  11.646 -0.0034  0.1074 -0.0985
  941MOL0     C26939  11.144   4.920  11.543  0.0681  0.4253 -0.4208
  941MOL0     C26940  11.007   4.898  11.610  0.2053 -0.1131 -0.2946
  941MOL0     C26941  10.972   4.749  11.620 -1.0786 -0.1300 -0.4579
  941MOL0     C26942  10.847   4.726  11.707  0.7376  0.6229  0.0953
  941MOL0     C26943  10.816   4.574  11.696 -0.1570  0.4457 -0.3801
  941MOL0    Cl26944  10.759   4.536  11.535 -0.2580 -0.4045  0.2504
  941MOL0     C26945  11.721   5.045  11.302  0.6288  0.1284 -0.4150
  941MOL0     C26946  11.817   5.137  11.250 -0.0578 -0.6018  0.9462
  941MOL0     O26947  12.085   5.258  11.375 -0.1394 -0.0096 -0.9736
  941MOL0     C26948  12.283   5.427  11.301  0.1916  0.0886  0.2500
  941MOL0     C26949  12.366   5.524  11.246 -0.7826  0.3188 -0.2913
  941MOL0     N26950  12.717   6.335  11.178  0.0735  0.1440  0.3050
  941MOL0     N26951  12.665   6.439  11.220  0.3901 -0.6139  0.1107
  941MOL0     C26952  11.473   7.119  11.370  0.4379 -0.0384 -0.1816
  941MOL0     C26953  11.339   7.125  11.332 -0.1506 -0.1105 -0.5429
  941MOL0     C26954  10.903   7.065  11.232 -0.5291  0.6847 -0.0982
  941MOL0     C26955  10.839   6.970  11.312  0.6439  0.0140  0.2553
  941MOL0     C26956  10.702   6.957  11.309  0.1799  0.4946  0.3603
  941MOL0     C26957  10.621   7.051  11.246  0.3148 -0.3593 -0.9844
  941MOL0     O26958  10.485   7.047  11.242 -0.9912  0.1467 -0.7705
  941MOL0     C26959  10.409   6.960  11.330 -1.1321 -0.5348  0.6883
  941MOL0     C26960  10.279   7.027  11.351  0.1401 -0.3248  0.0341
  941MOL0     C26961  10.182   7.042  11.226 -0.9127  0.0355 -0.2596
  941MOL0     C26962  10.075   6.928  11.203  0.2749  0.3081  0.3477
  941MOL0     C26963   9.973   6.923  11.312  0.3111  0.3184 -0.3627
  941MOL0     C26964   9.888   6.922  11.400 -0.4970 -0.0824 -0.0265
  941MOL0     C26965  10.680   7.162  11.179  0.4818  0.7990 -0.3176
  941MOL0     C26966  10.816   7.167  11.174  0.2893  0.6330  0.1699
  941MOL0     C26967  10.879   7.290  11.097 -0.2740 -0.2957 -0.8748
  941MOL0     H26968  11.267   6.805  11.407  0.1943  1.1111 -1.0889
  941MOL0     H26969  11.499   6.788  11.432 -1.8020 -0.4992 -1.3680
  941MOL0     H26970  11.730   6.812  11.438 -0.0146 -0.3805 -0.3825
  941MOL0     H26971  11.681   6.852  11.274  0.3536  2.3399 -1.4231
  941MOL0     H26972  11.927   6.922  11.436 -1.5715 -1.6398  0.3297
  941MOL0     H26973  11.890   7.033  11.306  1.8710  0.6808  1.2224
  941MOL0     H26974  11.896   6.824  11.143  1.8175 -2.7188 -0.4451
  941MOL0     H26975  11.954   6.730  11.285  1.6979 -0.8009 -2.9907
  941MOL0     H26976  12.096   6.945  11.149 -0.7961  0.0493  0.0991
  941MOL0     H26977  12.144   6.891  11.299 -0.6606 -1.2363  1.3877
  941MOL0     H26978  12.086   6.670  11.099 -1.7708  0.6225  0.8852
  941MOL0     H26979  12.230   6.772  11.059 -0.1523  1.4656 -0.2169
  941MOL0     H26980  12.313   6.715  11.300 -2.4568  2.2522  1.1070
  941MOL0     H26981  12.178   6.601  11.309  1.0717 -1.9861 -1.0615
  941MOL0     H26982  12.367   6.602  11.067 -2.6900 -0.3657 -1.9640
  941MOL0     H26983  12.273   6.471  11.136 -2.5496  1.7846  1.5293
  941MOL0     H26984  12.502   6.593  11.311 -0.7895  1.5596  0.1315
  941MOL0     H26985  12.376   6.473  11.346  1.3515  1.0696  1.4559
  941MOL0     H26986  12.409   6.249  11.177 -1.8060  2.6229 -1.0238
  941MOL0     H26987  12.668   6.084  11.005  2.6825 -0.8157  0.3768
  941MOL0     H26988  12.767   6.083  11.153  0.9256 -2.3327 -2.1603
  941MOL0     H26989  12.556   5.997  11.279 -1.6696  1.0537  0.1278
  941MOL0     H26990  12.466   5.981  11.138  0.4776 -1.0971  0.3432
  941MOL0     H26991  12.728   5.843  11.176 -0.3371  1.3540  1.8067
  941MOL0     H26992  12.651   5.830  11.021 -1.9325 -1.9353 -0.1966
  941MOL0     H26993  12.551   5.737  11.287 -0.0185  0.3194 -0.4908
  941MOL0     H26994  12.610   5.637  11.154  1.0794 -0.1123  2.4826
  941MOL0     H26995  12.155   5.728  11.079  0.5240 -0.2958 -0.6259
  941MOL0     H26996  12.006   5.561  11.144  0.3118 -2.7688 -2.4775
  941MOL0     H26997  11.707   5.425  11.371 -1.8035 -0.3088 -0.7915
  941MOL0     H26998  11.547   5.276  11.495  0.9246 -0.8787  2.6632
  941MOL0     H26999  11.477   5.091  11.631 -1.0184  0.1298  0.1281
  941MOL0     H27000  11.379   5.088  11.483 -0.7657 -1.0811  0.3912
  941MOL0     H27001  11.399   4.832  11.506 -0.7016  0.1614 -0.0719
  941MOL0     H27002  11.471   4.843  11.661  1.1978 -3.2395 -3.3466
  941MOL0     H27003  11.237   4.840  11.712 -3.3635  0.6483 -0.5328
  941MOL0     H27004  11.253   5.011  11.712  1.6075 -1.6506  2.6828
  941MOL0     H27005  11.157   4.839  11.471  2.8794  1.0897 -0.7500
  941MOL0     H27006  11.138   5.019  11.496 -2.0260 -0.0305 -1.2419
  941MOL0     H27007  10.928   4.956  11.560 -0.7024  0.8266  2.0771
  941MOL0     H27008  11.016   4.943  11.710 -0.9219  1.8072 -0.9942
  941MOL0     H27009  10.967   4.721  11.514  2.0526  1.0409 -1.0023
  941MOL0     H27010  11.046   4.691  11.675 -0.8718 -0.3453 -0.9595
  941MOL0     H27011  10.755   4.772  11.669  0.0318 -0.5996  0.2789
  941MOL0     H27012  10.862   4.751  11.812  1.5955  0.2050  0.0798
  941MOL0     H27013  10.903   4.513  11.724 -0.0565  0.0650 -1.4457
  941MOL0     H27014  10.729   4.546  11.756 -1.3538  1.4243 -1.5837
  941MOL0     H27015  11.731   4.942  11.270 -2.5262 -0.0152 -1.2686
  941MOL0     H27016  11.896   5.100  11.185  1.6757  1.7581  1.5850
  941MOL0     H27017  12.326   5.349  11.364  1.3120 -2.1659 -3.0386
  941MOL0     H27018  12.472   5.527  11.271 -0.7147  1.8036 -0.6409
  941MOL0     H27019  11.536   7.206  11.368 -1.9996  1.8308 -1.3159
  941MOL0     H27020  11.309   7.223  11.296  0.4534  0.1481 -0.3639
  941MOL0     H27021  10.899   6.900  11.370  1.5115  0.4708 -0.0724
  941MOL0     H27022  10.649   6.869  11.345  0.0840 -0.1834 -1.3284
  941MOL0     H27023  10.459   6.945  11.426  2.6379  0.4348 -0.9449
  941MOL0     H27024  10.392   6.864  11.280  0.0903 -0.3376 -0.1550
  941MOL0     H27025  10.307   7.124  11.392  2.1156 -1.2968  1.1777
  941MOL0     H27026  10.221   6.972  11.427 -2.4890  2.4139  0.1988
  941MOL0     H27027  10.237   7.039  11.131  3.0540 -1.5231  1.8436
  941MOL0     H27028  10.133   7.139  11.232  2.1207  1.8078 -1.8705
  941MOL0     H27029  10.034   6.950  11.104  0.6304  1.2969  0.4107
  941MOL0     H27030  10.131   6.834  11.193  1.4498  0.8616  1.4396
  941MOL0     H27031   9.823   6.912  11.484 -0.9324  1.6469 -0.1113
  941MOL0     H27032  10.611   7.237  11.143 -1.0240  0.4176  1.5915
  941MOL0     H27033  10.926   7.257  11.005 -0.8170  0.2420 -1.3550
  941MOL0     H27034  10.800   7.361  11.069 -0.9377 -0.3402  0.7245
  941MOL0     H27035  10.946   7.338  11.169 -0.1228  0.5442 -1.5654
  942MOL0     O27036   5.294   8.230   0.403  0.5036  0.2684 -0.2160
  942MOL0     C27037   5.313   8.113   0.372 -0.5493 -0.1396 -0.1141
  942MOL0     O27038   5.442   8.051   0.374  0.2775 -0.3245  0.0480
  942MOL0     C27039   5.550   8.114   0.439  0.0376  0.2262 -0.6167
  942MOL0     C27040   5.626   8.040   0.531  0.9082  0.5205  0.6357
  942MOL0     C27041   5.719   8.102   0.611  0.7157  0.0938  0.2910
  942MOL0     C27042   5.749   8.238   0.596 -0.0197 -0.1333  0.3459
  942MOL0     O27043   5.838   8.302   0.687  0.2513  0.3257  0.0988
  942MOL0     C27044   5.784   8.419   0.749  0.1721 -0.1724  0.3499
  942MOL0     C27045   5.883   8.485   0.841 -1.3617  1.0901 -0.2516
  942MOL0     C27046   6.031   8.505   0.781 -0.4890  0.0640  0.5416
  942MOL0     C27047   6.132   8.578   0.868  0.8238 -0.1110 -0.5097
  942MOL0     C27048   6.284   8.566   0.826 -0.0244 -0.0797 -0.0484
  942MOL0     C27049   6.304   8.634   0.696 -0.1903 -0.3268 -0.2113
  942MOL0     C27050   6.457   8.606   0.660  0.5104 -0.6886  0.7712
  942MOL0     C27051   6.485   8.700   0.545  0.4423  0.5515 -1.1419
  942MOL0     N27052   6.616   8.659   0.492  0.2188 -0.1262  0.4470
  942MOL0     C27053   6.727   8.622   0.558  0.4397  0.1742  0.6110
  942MOL0     C27054   6.827   8.628   0.474 -0.8324 -0.5669  0.1496
  942MOL0     C27055   6.968   8.606   0.512 -0.6258  0.1443 -0.2260
  942MOL0     C27056   7.050   8.584   0.380  0.4580 -0.2577 -0.7560
  942MOL0     C27057   7.196   8.543   0.415  0.6302  0.2151  0.2844
  942MOL0     C27058   7.275   8.508   0.290  0.2725 -0.1847  0.6006
  942MOL0     O27059   7.379   8.418   0.315 -0.4794  0.0190 -0.5154
  942MOL0     C27060   7.506   8.467   0.348  0.0364  0.1711  0.0323
  942MOL0     C27061   7.532   8.605   0.388  0.5563 -0.3216  0.0382
  942MOL0     C27062   7.657   8.653   0.420  0.3092 -0.1553  0.7395
  942MOL0     C27063   7.766   8.561   0.404  0.3103 -0.2878 -0.4834
  942MOL0     C27064   7.907   8.602   0.432 -0.0647 -0.3077 -0.8612
  942MOL0     O27065   7.927   8.733   0.464 -0.4850 -0.0020  0.1300
  942MOL0     C27066   8.057   8.783   0.446  0.2554 -0.1421 -0.1513
  942MOL0     C27067   8.088   8.842   0.323 -0.4409 -0.4183  0.1264
  942MOL0     C27068   8.222   8.886   0.289  0.0647 -0.4397 -0.0790
  942MOL0     C27069   8.322   8.883   0.389 -0.0848 -0.0901  0.0526
  942MOL0     O27070   8.451   8.922   0.371  0.1305 -0.1413  0.3961
  942MOL0     C27071   8.479   9.006   0.263 -0.5943 -0.1957  0.2736
  942MOL0     C27072   8.624   9.041   0.265  0.4770 -0.2026  0.5537
  942MOL0     C27073   8.650   9.158   0.364 -0.3611  0.0342  0.0803
  942MOL0     C27074   8.795   9.192   0.340 -0.4997 -0.0284  0.6382
  942MOL0     C27075   8.856   9.259   0.462  0.2058  0.3177  0.4134
  942MOL0     C27076   9.008   9.263   0.459 -0.6020  0.5464  0.4965
  942MOL0     C27077   9.051   9.328   0.586  0.5412  0.0244 -0.2368
  942MOL0     C27078   9.204   9.318   0.605 -0.3432  0.0923  0.2380
  942MOL0    Cl27079   9.290   9.435   0.501 -0.3598 -0.0371 -0.4237
  942MOL0     C27080   8.289   8.828   0.510 -0.1144 -0.5911 -0.6328
  942MOL0     C27081   8.159   8.780   0.545  1.0489  0.2124  0.1032
  942MOL0     O27082   7.995   8.517   0.405 -0.3311 -0.1480 -0.2855
  942MOL0     C27083   7.744   8.428   0.368 -0.4843  0.7102  0.4429
  942MOL0     C27084   7.618   8.380   0.339 -0.6111 -0.6833 -1.3284
  942MOL0     N27085   6.778   8.686   0.354  0.6414  0.8890 -0.6631
  942MOL0     N27086   6.649   8.706   0.367 -0.4942  0.3587 -0.1353
  942MOL0     C27087   5.690   8.315   0.491 -0.4308  0.2760 -0.0097
  942MOL0     C27088   5.582   8.253   0.423 -0.2282  0.0979  0.1808
  942MOL0     C27089   5.197   8.014   0.349 -0.5529  0.1967 -0.7090
  942MOL0     C27090   5.232   7.882   0.387 -0.2992 -0.0920  0.5471
  942MOL0     C27091   5.141   7.774   0.369 -0.4682  0.1790  0.6827
  942MOL0     C27092   5.014   7.800   0.316 -0.0001 -0.8832  0.0362
  942MOL0     O27093   4.922   7.699   0.320 -0.4933  0.2560 -0.3142
  942MOL0     C27094   4.781   7.722   0.285  0.1781  0.5097 -0.0261
  942MOL0     C27095   4.713   7.589   0.255 -0.5691 -0.1763 -0.3149
  942MOL0     C27096   4.562   7.597   0.279 -0.2752 -0.6324 -0.1728
  942MOL0     C27097   4.491   7.466   0.280 -0.6915  0.5437 -0.0637
  942MOL0     C27098   4.346   7.490   0.317 -0.4448 -0.3155  0.0381
  942MOL0     C27099   4.228   7.503   0.342 -0.6396 -0.2840 -0.4384
  942MOL0     C27100   4.984   7.933   0.285 -0.1395 -0.0046  0.3043
  942MOL0     C27101   5.077   8.034   0.292  1.1881 -0.3151  0.4001
  942MOL0     C27102   5.030   8.175   0.246  0.3037 -0.1567  0.0155
  942MOL0     H27103   5.609   7.935   0.554  2.7221  0.4051  1.6073
  942MOL0     H27104   5.777   8.039   0.678  1.2797  0.1816 -0.1062
  942MOL0     H27105   5.776   8.488   0.664 -0.8054 -1.4900 -0.6811
  942MOL0     H27106   5.683   8.415   0.792  0.3450  1.0812  0.9091
  942MOL0     H27107   5.883   8.436   0.939 -0.3781  1.8158  0.1279
  942MOL0     H27108   5.842   8.583   0.864 -1.6350  1.0062 -0.3772
  942MOL0     H27109   6.012   8.561   0.688 -1.5399 -1.3879 -0.1467
  942MOL0     H27110   6.077   8.409   0.757 -0.9057  0.7540 -4.0568
  942MOL0     H27111   6.105   8.684   0.859  0.8069 -0.1987 -1.5155
  942MOL0     H27112   6.106   8.534   0.965 -2.7329 -3.3371 -2.6680
  942MOL0     H27113   6.348   8.608   0.904  0.6235 -1.6403  0.2994
  942MOL0     H27114   6.299   8.459   0.804  0.5675  0.2815 -1.5565
  942MOL0     H27115   6.232   8.608   0.618 -1.4812  3.9229 -0.6765
  942MOL0     H27116   6.277   8.739   0.712  0.9197  0.0290 -0.5684
  942MOL0     H27117   6.483   8.502   0.638 -0.7159 -0.6648 -0.9319
  942MOL0     H27118   6.528   8.633   0.739  2.1757 -1.2125 -0.4977
  942MOL0     H27119   6.415   8.685   0.462 -1.3017  0.6368  0.2542
  942MOL0     H27120   6.468   8.806   0.564 -3.2752  0.1363 -1.3070
  942MOL0     H27121   6.729   8.607   0.666 -2.5721  2.3888  1.1101
  942MOL0     H27122   7.013   8.692   0.563  1.1911 -0.3242 -0.9675
  942MOL0     H27123   6.984   8.525   0.583 -2.2069  0.1920  0.2122
  942MOL0     H27124   7.000   8.504   0.324  0.4168 -1.5971  1.0954
  942MOL0     H27125   7.045   8.677   0.323 -3.0202 -0.5379 -1.1511
  942MOL0     H27126   7.195   8.455   0.480  0.6136  1.2454  1.7345
  942MOL0     H27127   7.241   8.629   0.467 -2.9615  2.1301  0.5594
  942MOL0     H27128   7.320   8.596   0.242 -1.1255  0.0509 -0.3662
  942MOL0     H27129   7.205   8.464   0.218 -0.0436 -0.9067  1.3335
  942MOL0     H27130   7.455   8.673   0.423  1.0244  1.2735 -1.8675
  942MOL0     H27131   7.676   8.756   0.447 -0.1833 -0.1334  1.0145
  942MOL0     H27132   8.010   8.845   0.248  0.1269 -0.9356 -0.4979
  942MOL0     H27133   8.241   8.928   0.191 -0.2888 -2.4462 -1.0503
  942MOL0     H27134   8.448   8.953   0.172  0.3159  2.8554 -1.9917
  942MOL0     H27135   8.420   9.098   0.256  1.7062  1.5535  2.0021
  942MOL0     H27136   8.679   8.947   0.281  0.9021 -0.3287 -1.4323
  942MOL0     H27137   8.649   9.072   0.163  1.2274 -1.9214  0.1831
  942MOL0     H27138   8.583   9.244   0.354  1.8359  1.6182 -2.1110
  942MOL0     H27139   8.626   9.113   0.461  1.4424 -1.3174 -0.0468
  942MOL0     H27140   8.796   9.268   0.262 -0.8534 -0.5141  0.1515
  942MOL0     H27141   8.852   9.104   0.308  0.7055  1.2931 -1.0478
  942MOL0     H27142   8.827   9.207   0.554  1.2882 -0.3697  0.3744
  942MOL0     H27143   8.815   9.361   0.467 -0.0939  0.2031  0.3109
  942MOL0     H27144   9.044   9.161   0.445 -1.2739  0.2461  0.9178
  942MOL0     H27145   9.046   9.323   0.375  0.4428  0.5325  0.9416
  942MOL0     H27146   9.008   9.289   0.679  0.8233 -0.8459 -0.4567
  942MOL0     H27147   9.031   9.435   0.578 -2.0843 -0.4713 -1.2095
  942MOL0     H27148   9.232   9.337   0.709 -1.3073 -1.3887  0.8052
  942MOL0     H27149   9.244   9.222   0.571 -0.2768  0.8654 -2.0620
  942MOL0     H27150   8.368   8.835   0.583 -0.0212 -1.8213 -0.5899
  942MOL0     H27151   8.139   8.754   0.648 -0.1536  0.7189  0.0164
  942MOL0     H27152   7.825   8.357   0.351 -1.3641  0.2900 -2.5928
  942MOL0     H27153   7.593   8.276   0.326  2.5560 -1.1983 -5.5646
  942MOL0     H27154   5.721   8.415   0.465  0.4317 -0.1130 -0.5152
  942MOL0     H27155   5.539   8.323   0.352  3.4825  1.3358 -1.0916
  942MOL0     H27156   5.327   7.857   0.433  1.7380  0.1544 -3.1457
  942MOL0     H27157   5.179   7.676   0.394  1.0433  0.5278 -0.1058
  942MOL0     H27158   4.757   7.784   0.198 -2.7592 -1.8302 -1.0201
  942MOL0     H27159   4.740   7.766   0.376 -1.1014 -3.7303  1.6954
  942MOL0     H27160   4.754   7.507   0.314  4.0307  0.1966 -2.5626
  942MOL0     H27161   4.713   7.559   0.150 -3.9255 -3.8446  0.4904
  942MOL0     H27162   4.520   7.660   0.200  3.2399  0.3129 -1.5036
  942MOL0     H27163   4.554   7.636   0.381 -1.0079 -0.9199 -0.1170
  942MOL0     H27164   4.499   7.424   0.180 -1.3890  1.8066 -0.6650
  942MOL0     H27165   4.534   7.399   0.356  0.6460  2.0767  0.5956
  942MOL0     H27166   4.122   7.518   0.354 -0.8300 -0.4154 -1.7786
  942MOL0     H27167   4.882   7.954   0.256 -0.4738 -3.2725 -1.2306
  942MOL0     H27168   4.956   8.219   0.313 -0.4109  0.2392 -1.0095
  942MOL0     H27169   5.120   8.236   0.235  0.1504  0.6808  2.7639
  942MOL0     H27170   4.987   8.155   0.147 -0.8161  1.2324  0.1929
  943MOL0     O27171   1.604   1.667   6.051  0.3491  0.9366 -0.1454
  943MOL0     C27172   1.567   1.554   6.074  0.8131 -0.3530  0.6772
  943MOL0     O27173   1.635   1.457   6.126 -0.0890 -0.1069 -0.2731
  943MOL0     C27174   1.750   1.472   6.196  0.3460  0.8687 -0.3447
  943MOL0     C27175   1.839   1.575   6.183 -0.1087 -0.0919  0.7649
  943MOL0     C27176   1.960   1.578   6.259  0.2157 -0.1661  1.2701
  943MOL0     C27177   1.997   1.467   6.343 -0.4986 -0.7777  0.3284
  943MOL0     O27178   2.120   1.451   6.403  0.0950 -0.0412 -1.3738
  943MOL0     C27179   2.227   1.549   6.374  0.0531  0.0760 -0.5154
  943MOL0     C27180   2.358   1.487   6.411  0.1236  0.0517 -0.2268
  943MOL0     C27181   2.383   1.453   6.556  0.1691  0.4848 -0.1587
  943MOL0     C27182   2.533   1.442   6.590  0.5699  0.0841 -0.7941
  943MOL0     C27183   2.543   1.353   6.722 -0.2655  0.7854 -0.5080
  943MOL0     C27184   2.693   1.354   6.776  0.2968 -0.3252  0.2256
  943MOL0     C27185   2.685   1.273   6.904 -0.0024 -0.1013 -0.2382
  943MOL0     C27186   2.826   1.227   6.947  0.1903 -0.4004  0.7626
  943MOL0     N27187   2.823   1.150   7.072  0.3492  0.0179 -0.7170
  943MOL0     C27188   2.781   1.204   7.198 -0.4570  0.5515  0.5851
  943MOL0     C27189   2.819   1.111   7.285 -1.0974 -0.4696 -0.9438
  943MOL0     C27190   2.805   1.124   7.428 -0.0349 -0.0033 -0.2971
  943MOL0     C27191   2.671   1.094   7.487 -0.6769  0.5385  0.0310
  943MOL0     C27192   2.650   1.127   7.638 -0.3446 -0.6711  0.0095
  943MOL0     C27193   2.521   1.051   7.685  0.9253 -0.3520  0.2622
  943MOL0     O27194   2.460   1.133   7.787 -0.3344 -0.4062  0.7929
  943MOL0     C27195   2.326   1.116   7.810  0.0619 -0.8861  0.5166
  943MOL0     C27196   2.249   0.997   7.785 -0.5502  0.0684 -0.2405
  943MOL0     C27197   2.119   0.991   7.833  0.2978  0.2344  0.6063
  943MOL0     C27198   2.061   1.095   7.892  0.5244  0.2539 -0.5076
  943MOL0     C27199   1.928   1.084   7.951  0.2883 -0.1132  0.1023
  943MOL0     O27200   1.881   1.202   7.992 -0.2305 -0.6762  0.4455
  943MOL0     C27201   1.748   1.220   8.024  0.2088  0.3149 -0.7769
  943MOL0     C27202   1.642   1.186   7.945 -0.8815 -0.0266  0.2821
  943MOL0     C27203   1.512   1.223   7.983  1.1721 -0.2232 -0.2544
  943MOL0     C27204   1.490   1.284   8.104  0.1360 -0.3271 -0.2614
  943MOL0     O27205   1.367   1.327   8.125 -0.6812 -0.1934 -0.2229
  943MOL0     C27206   1.331   1.470   8.105 -0.3706  0.1015 -0.1829
  943MOL0     C27207   1.212   1.505   8.192  0.3247 -0.1418  0.1759
  943MOL0     C27208   1.081   1.430   8.163 -0.3722 -0.1609  0.6127
  943MOL0     C27209   1.008   1.463   8.031 -0.1550  0.0812 -0.6141
  943MOL0     C27210   0.907   1.358   7.994  0.8145  0.5001 -0.8141
  943MOL0     C27211   0.838   1.358   7.859  0.3202 -0.1444  0.6091
  943MOL0     C27212   0.735   1.243   7.846 -0.7333 -0.5161 -0.0441
  943MOL0     C27213   0.692   1.227   7.698  0.3561  0.1188  0.2982
  943MOL0    Cl27214   0.542   1.126   7.697 -0.1671  0.2774  0.6545
  943MOL0     C27215   1.597   1.307   8.188  0.4633 -0.7765 -0.1515
  943MOL0     C27216   1.722   1.263   8.149  0.5403  0.3769 -0.7615
  943MOL0     O27217   1.865   0.979   7.945 -0.4155  0.0308  0.5723
  943MOL0     C27218   2.129   1.215   7.911 -0.4724  0.4174 -0.8704
  943MOL0     C27219   2.257   1.223   7.875 -0.3876 -0.3963 -0.4960
  943MOL0     N27220   2.882   1.002   7.218  0.1330 -0.3042 -0.3365
  943MOL0     N27221   2.883   1.031   7.091  0.2501  0.9335  0.0841
  943MOL0     C27222   1.908   1.367   6.354  0.2159  0.4773 -0.5215
  943MOL0     C27223   1.785   1.368   6.282 -0.3274 -0.0150  0.2075
  943MOL0     C27224   1.443   1.515   6.007  0.1683 -1.2626  0.2156
  943MOL0     C27225   1.425   1.524   5.872  0.9279  0.6176  0.3130
  943MOL0     C27226   1.301   1.485   5.810 -0.4004  0.6276  0.2098
  943MOL0     C27227   1.186   1.439   5.888 -0.4032 -0.4349 -0.4135
  943MOL0     O27228   1.056   1.423   5.847 -1.5855  0.0540  0.5193
  943MOL0     C27229   1.024   1.403   5.712  0.1172  0.8530  0.3190
  943MOL0     C27230   0.880   1.384   5.722  0.4579 -0.1628 -0.1223
  943MOL0     C27231   0.826   1.339   5.589 -0.4962 -0.0995 -1.0625
  943MOL0     C27232   0.763   1.446   5.497 -0.3415 -0.3034  0.0989
  943MOL0     C27233   0.864   1.546   5.450 -0.8938  0.5212 -0.3365
  943MOL0     C27234   0.949   1.623   5.429 -0.0901 -0.2930  0.0906
  943MOL0     C27235   1.212   1.431   6.026  0.7631 -0.1944  0.0149
  943MOL0     C27236   1.335   1.470   6.087 -0.3342 -0.0364  0.0737
  943MOL0     C27237   1.351   1.437   6.236  0.5779 -0.4515 -0.0033
  943MOL0     H27238   1.823   1.644   6.101  2.5290 -1.9553 -1.5076
  943MOL0     H27239   2.031   1.658   6.241 -0.3796  0.3495  1.2139
  943MOL0     H27240   2.228   1.565   6.266 -2.6599 -1.0981 -0.7904
  943MOL0     H27241   2.207   1.646   6.421 -0.0750 -0.3593  0.3542
  943MOL0     H27242   2.435   1.554   6.371  0.4218 -0.8336 -1.2000
  943MOL0     H27243   2.375   1.389   6.364 -0.8680 -0.9979  1.5127
  943MOL0     H27244   2.325   1.364   6.581  0.8621  0.4952  1.6170
  943MOL0     H27245   2.338   1.529   6.622  0.2491  0.0398  0.4162
  943MOL0     H27246   2.589   1.390   6.512  0.0385 -0.9202 -0.5258
  943MOL0     H27247   2.565   1.542   6.619 -2.5504  0.5575  1.5518
  943MOL0     H27248   2.476   1.402   6.792  0.0159  1.7683 -0.9099
  943MOL0     H27249   2.515   1.252   6.691  6.1586 -1.0051 -2.0300
  943MOL0     H27250   2.766   1.310   6.707 -0.3550 -1.3160  0.1510
  943MOL0     H27251   2.723   1.455   6.806  3.0285 -1.3671  1.3005
  943MOL0     H27252   2.625   1.181   6.896 -0.5507 -0.0191  2.1867
  943MOL0     H27253   2.649   1.328   6.991  0.9411  0.1693 -0.0110
  943MOL0     H27254   2.870   1.158   6.874  0.8212 -2.7065  3.1904
  943MOL0     H27255   2.887   1.319   6.946  0.8820 -0.8229  2.0641
  943MOL0     H27256   2.723   1.292   7.222 -2.9235 -0.7586 -0.1750
  943MOL0     H27257   2.874   1.049   7.468  0.0798 -1.2480 -2.6915
  943MOL0     H27258   2.841   1.222   7.460  0.7547 -0.5588  0.5578
  943MOL0     H27259   2.597   1.146   7.425  0.2837  0.8671 -0.8661
  943MOL0     H27260   2.662   0.986   7.475 -1.6730  0.4124  1.5602
  943MOL0     H27261   2.634   1.234   7.649  0.2386 -0.8344  3.6187
  943MOL0     H27262   2.731   1.104   7.708 -0.8526  1.2206  1.3042
  943MOL0     H27263   2.549   0.953   7.726 -1.3529 -0.2318  2.3376
  943MOL0     H27264   2.455   1.038   7.599  2.4855 -1.8809 -0.7531
  943MOL0     H27265   2.296   0.906   7.749  3.8411  2.3221 -0.9555
  943MOL0     H27266   2.066   0.897   7.825  1.0170 -0.1168 -0.3049
  943MOL0     H27267   1.653   1.137   7.849  5.0381 -0.1985  0.6671
  943MOL0     H27268   1.439   1.193   7.908  0.5408 -1.6696  0.9049
  943MOL0     H27269   1.412   1.527   8.152 -2.4676  0.2404  3.6541
  943MOL0     H27270   1.313   1.492   8.000 -0.3169 -0.5294 -0.3242
  943MOL0     H27271   1.249   1.500   8.295  2.5900  3.1973 -0.3026
  943MOL0     H27272   1.191   1.612   8.191 -0.6659 -0.2421  2.9825
  943MOL0     H27273   1.091   1.321   8.173 -0.8420 -0.1054  1.9843
  943MOL0     H27274   1.013   1.464   8.241 -0.3191  2.1206 -0.2772
  943MOL0     H27275   1.085   1.457   7.953  0.0041 -0.7234 -0.4047
  943MOL0     H27276   0.961   1.562   8.033 -1.0541 -0.1630 -3.9168
  943MOL0     H27277   0.830   1.375   8.070  0.2102  1.7055 -1.6666
  943MOL0     H27278   0.931   1.253   8.014 -2.5701 -0.1561  0.5685
  943MOL0     H27279   0.784   1.452   7.843 -1.0093 -1.3380 -2.7960
  943MOL0     H27280   0.914   1.351   7.780  2.1958  0.1771  2.2941
  943MOL0     H27281   0.647   1.275   7.902 -0.3230  0.5075  0.0374
  943MOL0     H27282   0.774   1.149   7.887  0.2846 -0.1380 -0.0959
  943MOL0     H27283   0.672   1.324   7.652  0.5936  0.3100  0.6040
  943MOL0     H27284   0.773   1.175   7.647 -0.1251 -0.9447  0.5832
  943MOL0     H27285   1.589   1.343   8.290  1.2194 -2.3346  0.5056
  943MOL0     H27286   1.801   1.278   8.222 -0.9756  1.4864  0.7081
  943MOL0     H27287   2.088   1.307   7.950 -0.7988  0.2185 -0.7359
  943MOL0     H27288   2.313   1.315   7.890 -1.2739  0.2324 -0.9515
  943MOL0     H27289   1.928   1.289   6.427 -3.4734  0.0603  0.2507
  943MOL0     H27290   1.709   1.296   6.311 -0.0789  0.2920  1.6763
  943MOL0     H27291   1.505   1.566   5.811 -0.8441  0.3493 -2.3406
  943MOL0     H27292   1.285   1.504   5.705  0.5837 -0.8044 -0.2183
  943MOL0     H27293   1.079   1.315   5.676  0.2133  0.4795  1.3560
  943MOL0     H27294   1.056   1.479   5.640  2.2053  1.5430  1.8870
  943MOL0     H27295   0.817   1.467   5.756  1.9728  1.3870 -0.9457
  943MOL0     H27296   0.861   1.310   5.801 -0.8166 -0.4210 -0.6469
  943MOL0     H27297   0.737   1.281   5.613 -2.4196  3.5073  1.5715
  943MOL0     H27298   0.902   1.278   5.541  0.0657 -0.8629  0.7006
  943MOL0     H27299   0.734   1.382   5.413 -0.1939 -1.8628  1.1864
  943MOL0     H27300   0.678   1.501   5.539  0.7416  1.7747 -0.3129
  943MOL0     H27301   1.022   1.695   5.396 -1.5722  0.4481 -1.7647
  943MOL0     H27302   1.132   1.398   6.091 -0.0450  3.0524  0.8658
  943MOL0     H27303   1.418   1.351   6.245 -0.0339 -0.9451 -0.0717
  943MOL0     H27304   1.397   1.518   6.293 -2.2887  1.2189  0.1156
  943MOL0     H27305   1.260   1.415   6.292 -0.6633  0.7319 -1.4582
  944MOL0     O27306   8.567  10.360   0.989 -0.0891  0.4964  0.4477
  944MOL0     C27307   8.552  10.294   0.888  0.3905 -0.6468 -0.4990
  944MOL0     O27308   8.427  10.236   0.850  0.0903 -0.3146 -0.1908
  944MOL0     C27309   8.322  10.237   0.943  0.3743  0.4160 -0.7551
  944MOL0     C27310   8.322  10.185   1.075 -0.4479  0.6773 -0.0943
  944MOL0     C27311   8.202  10.158   1.140  0.4982 -1.3512 -0.6377
  944MOL0     C27312   8.077  10.201   1.081 -0.2869 -0.0706  0.3611
  944MOL0     O27313   7.956  10.188   1.135 -0.3672  0.7075  0.3398
  944MOL0     C27314   7.929  10.056   1.179  1.0087  0.7457 -0.4046
  944MOL0     C27315   7.782  10.061   1.226 -0.4301  0.3431  0.1589
  944MOL0     C27316   7.755  10.081   1.378 -0.4479 -0.6219 -0.3268
  944MOL0     C27317   7.608  10.120   1.396  0.2109 -0.1168  0.4708
  944MOL0     C27318   7.506  10.031   1.336 -0.5064 -0.0809 -0.7950
  944MOL0     C27319   7.369  10.078   1.405  1.1415  0.4352 -0.8002
  944MOL0     C27320   7.252  10.001   1.341 -0.7068 -0.3971 -0.8301
  944MOL0     C27321   7.162  10.088   1.253  0.0996 -0.5981  0.2981
  944MOL0     N27322   7.235  10.152   1.135 -0.5419 -0.1552  0.0760
  944MOL0     C27323   7.301  10.078   1.039  0.4109  0.2779  0.2266
  944MOL0     C27324   7.361  10.173   0.963 -0.0741  0.2349  0.6532
  944MOL0     C27325   7.461  10.147   0.853 -0.0916 -0.0613  0.0042
  944MOL0     C27326   7.605  10.112   0.909  0.1002 -0.8616  0.2742
  944MOL0     C27327   7.694  10.049   0.804 -0.4793  0.0844 -0.2531
  944MOL0     C27328   7.727  10.159   0.695  0.0449  0.2978  1.0064
  944MOL0     O27329   7.761  10.109   0.566 -0.5729  0.3906  0.0593
  944MOL0     C27330   7.895  10.113   0.534  0.7172 -0.1413 -1.0838
  944MOL0     C27331   7.927  10.161   0.414 -0.1452  0.2175  0.0270
  944MOL0     C27332   8.057  10.174   0.370 -0.3021  0.9595  0.5722
  944MOL0     C27333   8.158  10.113   0.440  0.4440 -0.0184 -0.1803
  944MOL0     C27334   8.297  10.110   0.389  0.4351 -0.4828 -0.2396
  944MOL0     O27335   8.328  10.189   0.279  0.4075 -0.6242 -0.9635
  944MOL0     C27336   8.457  10.193   0.235  0.2380  1.0247  0.4387
  944MOL0     C27337   8.543  10.073   0.233  0.0267  0.2314  0.4513
  944MOL0     C27338   8.669  10.088   0.186  0.1047 -0.2329 -0.4545
  944MOL0     C27339   8.719  10.206   0.141 -0.8414 -0.2409  0.7812
  944MOL0     O27340   8.844  10.212   0.085  0.2047  0.1906  0.2038
  944MOL0     C27341   8.914  10.331   0.108  0.3744 -0.2023  1.0451
  944MOL0     C27342   8.911  10.423  -0.021  0.2026  0.4031  0.7927
  944MOL0     C27343   9.041  10.505  -0.036 -0.3437 -0.6876 -0.1972
  944MOL0     C27344   9.037  10.560  -0.182  0.3663  0.4118 -0.6181
  944MOL0     C27345   9.173  10.600  -0.224 -0.9498 -0.2714 -0.8539
  944MOL0     C27346   9.172  10.686  -0.352 -0.2529 -0.5253  0.6808
  944MOL0     C27347   9.319  10.705  -0.412 -0.4675 -0.4533  0.5559
  944MOL0     C27348   9.411  10.788  -0.332 -0.1161 -0.5247 -0.5632
  944MOL0    Cl27349   9.568  10.824  -0.413  0.0228  0.3738 -0.1168
  944MOL0     C27350   8.634  10.320   0.125 -0.3245  0.7485  0.3259
  944MOL0     C27351   8.502  10.319   0.186 -0.5423 -0.4765  0.0453
  944MOL0     O27352   8.381  10.059   0.463 -0.2499  0.6694 -0.3108
  944MOL0     C27353   8.131  10.062   0.572  0.6276 -0.1155 -0.9271
  944MOL0     C27354   7.998  10.062   0.617 -0.1024  0.3028  0.7704
  944MOL0     N27355   7.325  10.297   1.010 -0.8945  0.1500 -0.1105
  944MOL0     N27356   7.248  10.284   1.105  0.0750 -0.0493  0.4317
  944MOL0     C27357   8.076  10.259   0.956 -0.2822 -1.1525 -0.0539
  944MOL0     C27358   8.200  10.275   0.889  0.1549 -1.0186 -0.5705
  944MOL0     C27359   8.671  10.268   0.789  1.3574 -0.0873 -0.5757
  944MOL0     C27360   8.640  10.202   0.673  0.0187 -0.2174  0.1267
  944MOL0     C27361   8.737  10.181   0.575  0.0436  0.2106 -0.3004
  944MOL0     C27362   8.861  10.239   0.586 -0.7936  0.3936  0.0735
  944MOL0     O27363   8.959  10.238   0.485  0.2778  0.1556 -0.9678
  944MOL0     C27364   8.968  10.113   0.412  0.2676 -0.5521  0.8510
  944MOL0     C27365   9.113  10.067   0.390 -0.0645  0.2317  0.0545
  944MOL0     C27366   9.198  10.185   0.357  1.2070 -0.2700  0.1722
  944MOL0     C27367   9.334  10.148   0.297  0.0581 -0.0001 -0.2318
  944MOL0     C27368   9.399  10.266   0.233 -0.0655  0.6145  0.4100
  944MOL0     C27369   9.438  10.373   0.184 -0.3803 -0.1227  0.0603
  944MOL0     C27370   8.893  10.314   0.697  0.3838  1.1342  0.0071
  944MOL0     C27371   8.800  10.314   0.802  0.2070  0.1666  0.0458
  944MOL0     C27372   8.848  10.378   0.927 -0.1673 -0.1777  0.4227
  944MOL0     H27373   8.420  10.171   1.121 -1.2808 -1.8421  1.0544
  944MOL0     H27374   8.195  10.112   1.238 -1.5766 -1.0442 -0.5963
  944MOL0     H27375   7.939   9.980   1.101  2.8226  0.5512 -0.0360
  944MOL0     H27376   7.983  10.022   1.268 -0.4374  1.4480  0.7847
  944MOL0     H27377   7.739   9.964   1.199  1.3301  0.0573 -2.0031
  944MOL0     H27378   7.736  10.139   1.164  0.8999  1.5536  0.6346
  944MOL0     H27379   7.808  10.163   1.427 -4.2385  1.0430  1.3555
  944MOL0     H27380   7.786   9.999   1.443  0.5434  0.7988  1.0740
  944MOL0     H27381   7.590  10.155   1.497 -0.1564  0.9235  0.0561
  944MOL0     H27382   7.588  10.208   1.334 -2.1982 -0.5129  0.5970
  944MOL0     H27383   7.501  10.048   1.228 -0.6676  0.2493 -0.7363
  944MOL0     H27384   7.530   9.928   1.366 -2.0117  0.2151  1.7760
  944MOL0     H27385   7.363  10.052   1.511 -0.0124  1.2770 -0.6355
  944MOL0     H27386   7.356  10.187   1.410 -0.4342  0.2631  3.3763
  944MOL0     H27387   7.190   9.949   1.416 -1.6506  1.2582 -0.4232
  944MOL0     H27388   7.290   9.920   1.278  0.1906 -1.1200  0.6008
  944MOL0     H27389   7.087  10.020   1.212 -0.6565  0.3242  0.1179
  944MOL0     H27390   7.119  10.172   1.309  2.8624  0.9472  0.2970
  944MOL0     H27391   7.322   9.971   1.040  0.2965  0.2515 -0.1054
  944MOL0     H27392   7.428  10.059   0.798 -1.0367 -0.8972  1.8221
  944MOL0     H27393   7.462  10.233   0.785  3.7934  0.2645  0.2685
  944MOL0     H27394   7.661  10.198   0.948  0.3186 -0.0811 -1.6616
  944MOL0     H27395   7.595  10.030   0.981  0.7211 -2.8840 -1.8082
  944MOL0     H27396   7.649   9.962   0.756 -2.2379  1.1929 -0.6806
  944MOL0     H27397   7.778  10.001   0.856 -0.9300 -4.0326 -2.8656
  944MOL0     H27398   7.807  10.223   0.731  1.2024 -1.0765  0.9718
  944MOL0     H27399   7.638  10.218   0.671  1.3268  1.6614 -0.5924
  944MOL0     H27400   7.847  10.194   0.349 -0.6001  0.8055  0.8648
  944MOL0     H27401   8.072  10.214   0.271 -1.9494  0.1054 -0.0461
  944MOL0     H27402   8.495   9.979   0.256 -2.7971  1.5300  0.2863
  944MOL0     H27403   8.749  10.020   0.214  0.7618  0.6282 -0.2053
  944MOL0     H27404   8.877  10.385   0.196 -4.0257  0.6415 -1.0360
  944MOL0     H27405   9.020  10.310   0.126  0.7112 -1.4548 -1.8639
  944MOL0     H27406   8.890  10.366  -0.112  3.6027  2.8630 -1.8112
  944MOL0     H27407   8.830  10.496  -0.014  0.3791  0.9511 -1.8605
  944MOL0     H27408   9.042  10.574   0.049 -0.8286  0.0424 -0.7681
  944MOL0     H27409   9.129  10.442  -0.019  0.5306  0.4808 -0.2336
  944MOL0     H27410   8.962  10.638  -0.199  0.9086  1.0100 -0.3069
  944MOL0     H27411   9.006  10.471  -0.237 -0.7210 -1.7161  3.1368
  944MOL0     H27412   9.249  10.523  -0.238 -0.5753  0.3301 -2.3477
  944MOL0     H27413   9.209  10.653  -0.135 -0.7512 -2.2474  0.2932
  944MOL0     H27414   9.115  10.642  -0.434  4.1682 -1.7157 -2.0814
  944MOL0     H27415   9.124  10.782  -0.333 -2.3955 -1.3479 -0.2179
  944MOL0     H27416   9.302  10.747  -0.512 -0.4506  0.5226  0.9453
  944MOL0     H27417   9.368  10.611  -0.437 -0.5026 -0.5784  0.9498
  944MOL0     H27418   9.369  10.886  -0.306  2.3409  0.3578  0.3715
  944MOL0     H27419   9.432  10.735  -0.239  0.8078  0.6856 -0.0634
  944MOL0     H27420   8.671  10.412   0.082  0.7940  0.4565  0.6213
  944MOL0     H27421   8.432  10.401   0.178 -0.8163 -0.4803  2.0015
  944MOL0     H27422   8.211  10.027   0.637 -1.9046 -2.2279  1.3170
  944MOL0     H27423   7.982  10.034   0.721  2.3914 -0.4063  1.0377
  944MOL0     H27424   7.982  10.294   0.915  0.3228  2.2641  1.1372
  944MOL0     H27425   8.193  10.320   0.791 -1.1267  0.9509  0.3588
  944MOL0     H27426   8.542  10.160   0.656  0.7505 -2.2403  0.6848
  944MOL0     H27427   8.700  10.111   0.501  0.7543  0.9871 -1.4204
  944MOL0     H27428   8.920  10.119   0.314 -1.8456  0.9752  1.9075
  944MOL0     H27429   8.915  10.034   0.466 -0.6990 -0.5181 -0.0155
  944MOL0     H27430   9.109   9.997   0.306  0.1373 -1.4774  1.4140
  944MOL0     H27431   9.158  10.010   0.472  0.7814  0.0701 -0.5120
  944MOL0     H27432   9.216  10.251   0.442  1.1697 -0.2285  0.1480
  944MOL0     H27433   9.144  10.239   0.278  0.5368  1.2643  1.6303
  944MOL0     H27434   9.397  10.111   0.378 -0.4607  0.2275  0.2805
  944MOL0     H27435   9.324  10.066   0.225  1.1419  0.3677 -0.8337
  944MOL0     H27436   9.495  10.458   0.152 -0.5718  0.4523  1.1898
  944MOL0     H27437   8.988  10.365   0.700 -0.5868  3.0751 -0.3508
  944MOL0     H27438   8.957  10.383   0.937 -0.1021 -2.6001  1.7676
  944MOL0     H27439   8.808  10.475   0.960  2.7661  1.0334  0.7546
  944MOL0     H27440   8.813  10.313   1.008  2.4571 -2.2826  0.0005
  945MOL0     O27441   9.738   7.312  10.182  0.8261 -0.1332  0.3732
  945MOL0     C27442   9.761   7.193  10.188  0.0102  0.8615  0.2723
  945MOL0     O27443   9.880   7.137  10.143  0.5160  0.6292  0.0130
  945MOL0     C27444   9.973   7.212  10.075  0.3106  0.2847  0.1042
  945MOL0     C27445  10.082   7.258  10.148  0.0631  0.7253  0.4441
  945MOL0     C27446  10.192   7.313  10.083 -0.7916 -0.2455 -0.2936
  945MOL0     C27447  10.176   7.336   9.938  1.1421 -0.4327  0.2647
  945MOL0     O27448  10.266   7.407   9.859  0.1047  0.1750 -0.1926
  945MOL0     C27449  10.388   7.470   9.919  0.1174  0.3199  0.1827
  945MOL0     C27450  10.499   7.365   9.935 -0.1857 -1.2725 -0.5473
  945MOL0     C27451  10.643   7.429   9.959 -0.4165 -0.0759 -0.2969
  945MOL0     C27452  10.656   7.476  10.100 -0.2421 -0.2211 -0.2312
  945MOL0     C27453  10.795   7.536  10.112 -0.1548  0.0369 -0.4883
  945MOL0     C27454  10.907   7.420  10.133 -0.5535  0.0874  0.3563
  945MOL0     C27455  11.053   7.476  10.148  0.5692  0.3196 -0.0410
  945MOL0     C27456  11.070   7.585  10.251  0.5295 -0.8509  0.2850
  945MOL0     N27457  11.210   7.624  10.265  0.6300  0.5369  0.5700
  945MOL0     C27458  11.248   7.729  10.346  0.1990  0.0227 -0.1033
  945MOL0     C27459  11.383   7.726  10.359  0.2897 -0.6984  0.8986
  945MOL0     C27460  11.474   7.820  10.431 -0.1990 -0.7825  0.1226
  945MOL0     C27461  11.627   7.792  10.435 -0.4612  1.4829  0.0728
  945MOL0     C27462  11.693   7.810  10.297 -0.6271 -0.7367 -0.0700
  945MOL0     C27463  11.843   7.806  10.311 -0.6594 -0.2089 -0.0592
  945MOL0     O27464  11.912   7.935  10.338  0.2311 -0.1033  0.5890
  945MOL0     C27465  12.048   7.932  10.358  0.2914 -0.4895  0.2834
  945MOL0     C27466  12.115   8.055  10.376 -0.1309 -0.4497  0.0910
  945MOL0     C27467  12.254   8.059  10.385  0.0309 -0.4668  0.4251
  945MOL0     C27468  12.328   7.948  10.385 -0.3472 -0.9688  0.0990
  945MOL0     C27469  12.479   7.958  10.402  0.8254 -0.0161  0.7650
  945MOL0     O27470  12.534   8.070  10.356 -0.0641 -0.0923 -0.7445
  945MOL0     C27471  12.673   8.074  10.370 -0.4033 -0.6836  0.2467
  945MOL0     C27472  12.755   7.994  10.290 -0.4978  0.1916  0.6795
  945MOL0     C27473  12.898   8.002  10.296  0.5193 -0.3551  0.3694
  945MOL0     C27474  12.963   8.085  10.393  0.0470 -0.2570 -0.9150
  945MOL0     O27475  13.101   8.106  10.411 -0.9161  0.3482 -0.2191
  945MOL0     C27476  13.201   8.030  10.330  0.1566  0.1701 -0.2716
  945MOL0     C27477  13.335   8.032  10.406  0.5281 -0.1822 -0.0933
  945MOL0     C27478  13.395   8.181  10.400 -0.5356  0.4857 -0.2555
  945MOL0     C27479  13.470   8.204  10.271  1.0168  0.0861 -0.5907
  945MOL0     C27480  13.517   8.350  10.262  0.0798  0.1668 -0.6797
  945MOL0     C27481  13.501   8.425  10.134  0.5574  0.1323  0.2517
  945MOL0     C27482  13.537   8.577  10.149  0.1764  0.6836 -0.1406
  945MOL0     C27483  13.498   8.655  10.026 -0.0837 -0.1841  0.0608
  945MOL0    Cl27484  13.526   8.826  10.048 -0.0325  0.0685  0.1833
  945MOL0     C27485  12.882   8.162  10.474  0.1965 -0.5375  0.9085
  945MOL0     C27486  12.737   8.158  10.470  0.2287  1.1330  0.6325
  945MOL0     O27487  12.535   7.856  10.448 -0.6662  0.2409  0.3221
  945MOL0     C27488  12.265   7.822  10.372  0.3170  0.1629  0.3969
  945MOL0     C27489  12.121   7.813  10.364 -0.7881  0.2440  0.2530
  945MOL0     N27490  11.422   7.607  10.302  0.0246 -0.2151  0.0088
  945MOL0     N27491  11.322   7.549  10.244 -0.0031  0.0962 -0.0981
  945MOL0     C27492  10.067   7.290   9.875  0.6653  1.0309 -0.0192
  945MOL0     C27493   9.961   7.226   9.940 -0.3060  0.5435 -0.9619
  945MOL0     C27494   9.662   7.095  10.252  0.4166  0.5427 -0.1821
  945MOL0     C27495   9.623   7.130  10.383  0.2837  0.5110  0.5263
  945MOL0     C27496   9.537   7.041  10.450 -1.0058  0.5966  0.2842
  945MOL0     C27497   9.484   6.932  10.389 -0.4520  0.2173  0.2973
  945MOL0     O27498   9.395   6.879  10.473 -0.2029 -0.0260 -0.5283
  945MOL0     C27499   9.304   6.794  10.405  0.5498  0.4355 -0.5442
  945MOL0     C27500   9.186   6.764  10.494 -0.6572  0.3154  0.4821
  945MOL0     C27501   9.200   6.759  10.642  0.5717  0.9438  0.2337
  945MOL0     C27502   9.073   6.697  10.698 -0.5913  0.1043 -0.0922
  945MOL0     C27503   9.074   6.550  10.664  0.2209 -0.0901  0.3858
  945MOL0     C27504   9.081   6.430  10.661  0.1712 -0.4936 -0.3520
  945MOL0     C27505   9.517   6.900  10.258 -0.5536 -0.1949  0.2616
  945MOL0     C27506   9.609   6.979  10.186  0.6791 -0.3902  0.2713
  945MOL0     C27507   9.632   6.941  10.038 -0.3360 -0.5576  0.5696
  945MOL0     H27508  10.093   7.232  10.253 -0.2854 -2.0123 -0.1200
  945MOL0     H27509  10.279   7.356  10.131 -0.7807 -0.4370 -0.1386
  945MOL0     H27510  10.427   7.549   9.855  2.9068  0.6914  2.1807
  945MOL0     H27511  10.358   7.505  10.018 -0.7054  0.2512 -0.0347
  945MOL0     H27512  10.512   7.309   9.842  0.6583  2.9964 -3.2744
  945MOL0     H27513  10.481   7.301  10.022 -0.0286  1.0653  1.2944
  945MOL0     H27514  10.654   7.511   9.889 -0.2032  0.5927  0.4994
  945MOL0     H27515  10.710   7.344   9.940  1.9509  1.2989  1.3413
  945MOL0     H27516  10.582   7.556  10.115  1.4747  1.3016  0.4226
  945MOL0     H27517  10.618   7.399  10.167 -3.0584  1.3094  0.1201
  945MOL0     H27518  10.812   7.606  10.029 -0.9751 -0.6381 -1.2417
  945MOL0     H27519  10.788   7.588  10.209 -2.1600  1.7680 -1.4746
  945MOL0     H27520  10.870   7.354  10.212 -0.4856 -2.3274 -1.5161
  945MOL0     H27521  10.918   7.360  10.042  0.1552 -2.0567  1.7762
  945MOL0     H27522  11.083   7.509  10.048  0.6414  0.0624 -0.1042
  945MOL0     H27523  11.122   7.395  10.171  1.6157  0.7576 -1.4298
  945MOL0     H27524  11.004   7.668  10.225  0.4997 -1.0259 -0.2153
  945MOL0     H27525  11.024   7.554  10.345 -0.2941 -1.6069 -0.3475
  945MOL0     H27526  11.187   7.800  10.401  1.0600 -0.3135  1.3391
  945MOL0     H27527  11.459   7.912  10.374 -1.9195  0.3184  2.2185
  945MOL0     H27528  11.437   7.841  10.532 -0.1430  0.1592 -0.0448
  945MOL0     H27529  11.678   7.862  10.503 -1.6425  1.5884  0.8796
  945MOL0     H27530  11.638   7.688  10.467  0.0071  1.4475 -0.1891
  945MOL0     H27531  11.659   7.902  10.249 -0.7424 -0.9265 -0.3551
  945MOL0     H27532  11.658   7.725  10.238 -1.6334 -0.0765 -0.4471
  945MOL0     H27533  11.880   7.769  10.215  0.6404 -2.4220  1.2150
  945MOL0     H27534  11.864   7.734  10.391 -0.7626  2.1201  2.2065
  945MOL0     H27535  12.058   8.147  10.371 -1.3515 -1.2002 -0.0059
  945MOL0     H27536  12.311   8.151  10.379 -1.5588  0.6161  1.1545
  945MOL0     H27537  12.711   7.924  10.220  1.7564 -3.0536  2.2743
  945MOL0     H27538  12.959   7.940  10.231  0.0028 -0.3049 -0.1771
  945MOL0     H27539  13.172   7.926  10.313 -0.2528  0.0429  1.0691
  945MOL0     H27540  13.213   8.080  10.234 -1.3671 -2.3589 -1.8778
  945MOL0     H27541  13.311   8.014  10.511 -1.8078 -3.1215 -0.9807
  945MOL0     H27542  13.409   7.959  10.373 -0.3327 -0.6821 -0.9790
  945MOL0     H27543  13.314   8.254  10.410 -1.4776 -0.6049  0.3948
  945MOL0     H27544  13.464   8.203  10.482  1.1539  0.8751 -1.7427
  945MOL0     H27545  13.407   8.188  10.183 -1.0797  0.8803  0.6931
  945MOL0     H27546  13.549   8.129  10.261 -2.5772 -3.7380 -3.6127
  945MOL0     H27547  13.623   8.346  10.290 -0.2758  1.9070  1.1244
  945MOL0     H27548  13.460   8.408  10.335  1.1759  1.1412 -0.5793
  945MOL0     H27549  13.564   8.377  10.060  0.2684  1.0022 -0.5876
  945MOL0     H27550  13.399   8.424  10.093  0.9180  2.7712 -0.9139
  945MOL0     H27551  13.646   8.590  10.155  0.1518  0.6906  0.3947
  945MOL0     H27552  13.485   8.625  10.232  1.2321  2.1567 -0.3032
  945MOL0     H27553  13.552   8.628   9.934 -1.1829  1.3322 -1.0639
  945MOL0     H27554  13.390   8.640  10.019 -0.1266  0.1085  0.1129
  945MOL0     H27555  12.927   8.227  10.549  0.4945 -1.1105  1.2332
  945MOL0     H27556  12.689   8.228  10.537 -1.4377  1.2899 -0.6616
  945MOL0     H27557  12.328   7.734  10.369  0.0976  0.0238 -1.4403
  945MOL0     H27558  12.084   7.711  10.367  3.5985 -1.5508  0.3942
  945MOL0     H27559  10.061   7.304   9.768  0.7841 -0.9031 -0.3089
  945MOL0     H27560   9.866   7.195   9.898 -0.1822 -2.0537  0.4206
  945MOL0     H27561   9.670   7.203  10.448 -0.2672 -0.4436  2.0722
  945MOL0     H27562   9.498   7.056  10.550 -0.9887 -2.9964  0.9485
  945MOL0     H27563   9.350   6.697  10.381 -1.5252 -0.9255  0.7393
  945MOL0     H27564   9.278   6.841  10.310  2.0031 -0.8639 -1.6303
  945MOL0     H27565   9.146   6.666  10.467 -0.3335  0.2635  0.1788
  945MOL0     H27566   9.111   6.840  10.471  3.3816  3.9454 -2.4419
  945MOL0     H27567   9.233   6.852  10.689 -0.5301  0.9942  0.9461
  945MOL0     H27568   9.280   6.686  10.658 -0.1735  0.6191  3.1209
  945MOL0     H27569   9.073   6.702  10.807  0.2668  0.9951 -0.1236
  945MOL0     H27570   8.977   6.741  10.668  0.5533  1.3788 -2.1515
  945MOL0     H27571   9.101   6.325  10.660  0.3058 -0.4688 -0.7856
  945MOL0     H27572   9.479   6.811  10.207  0.7760 -1.3484  1.2085
  945MOL0     H27573   9.725   6.887  10.020 -1.7438 -2.6323 -1.0341
  945MOL0     H27574   9.549   6.886   9.992  0.1855 -0.5223 -0.4396
  945MOL0     H27575   9.633   7.031   9.976 -1.3451 -0.8684  0.0768
  946MOL0     O27576   7.753   0.288   6.640 -0.3820 -0.8049  0.1218
  946MOL0     C27577   7.784   0.284   6.761 -0.4493 -0.0589  0.1499
  946MOL0     O27578   7.704   0.304   6.861 -0.2862  0.5468  0.0898
  946MOL0     C27579   7.567   0.297   6.832 -0.0002  0.0212 -0.1348
  946MOL0     C27580   7.507   0.397   6.759 -0.3932  0.4970 -0.9392
  946MOL0     C27581   7.369   0.399   6.746  0.8766  0.0781  0.6415
  946MOL0     C27582   7.289   0.289   6.789  0.1152 -0.4123 -0.3488
  946MOL0     O27583   7.152   0.279   6.802 -0.2524 -0.7555  0.6953
  946MOL0     C27584   7.080   0.390   6.750 -0.2148  0.4400  0.2221
  946MOL0     C27585   6.930   0.363   6.751 -1.1012  0.2381 -0.2660
  946MOL0     C27586   6.851   0.485   6.707  0.4758 -0.3479 -0.1237
  946MOL0     C27587   6.704   0.450   6.698  0.4172  0.0472 -0.1124
  946MOL0     C27588   6.616   0.576   6.671 -0.2561 -0.3182  0.6778
  946MOL0     C27589   6.465   0.547   6.668 -0.7001  0.0690 -0.1952
  946MOL0     C27590   6.386   0.669   6.620 -0.2484  0.0272  0.6040
  946MOL0     C27591   6.234   0.648   6.593 -0.3617  0.2294  0.4206
  946MOL0     N27592   6.193   0.701   6.458  0.1485 -0.1604 -0.1260
  946MOL0     C27593   6.209   0.636   6.348  0.2423  0.6307 -0.0703
  946MOL0     C27594   6.163   0.720   6.250 -0.8631  0.0530 -0.0411
  946MOL0     C27595   6.166   0.690   6.105 -0.3291 -0.2496 -0.3159
  946MOL0     C27596   6.286   0.609   6.064  0.7637  0.4428 -0.1350
  946MOL0     C27597   6.263   0.553   5.913 -0.0176  0.4190 -0.4675
  946MOL0     C27598   6.396   0.523   5.852 -0.4880  0.0010  0.7884
  946MOL0     O27599   6.474   0.638   5.840  0.3024 -0.1898  0.3425
  946MOL0     C27600   6.610   0.626   5.812  1.0181 -0.2733  0.3267
  946MOL0     C27601   6.674   0.512   5.786  0.0872 -0.3008 -0.0730
  946MOL0     C27602   6.805   0.513   5.755 -0.3437  0.3818 -0.8705
  946MOL0     C27603   6.888   0.623   5.754  0.1711 -0.9568  0.0941
  946MOL0     C27604   7.034   0.630   5.730  0.8331  0.3434 -0.0824
  946MOL0     O27605   7.111   0.516   5.734  0.4643  0.8004  0.0180
  946MOL0     C27606   7.241   0.526   5.698  0.6217 -0.5008 -0.3920
  946MOL0     C27607   7.337   0.504   5.796 -0.8409  0.4787  0.3021
  946MOL0     C27608   7.473   0.474   5.758 -0.1807 -0.3669  0.3662
  946MOL0     C27609   7.509   0.482   5.622 -0.2777 -0.0318 -0.8666
  946MOL0     O27610   7.631   0.438   5.581  0.1791  0.2826 -0.2452
  946MOL0     C27611   7.747   0.429   5.664  0.3613 -0.4973 -0.2667
  946MOL0     C27612   7.866   0.431   5.577  0.5644  0.4842  0.4386
  946MOL0     C27613   8.002   0.409   5.650  1.5475 -0.1485 -0.0421
  946MOL0     C27614   8.116   0.410   5.543  0.9988 -0.5276  1.1745
  946MOL0     C27615   8.249   0.403   5.621 -0.3106 -0.1930 -0.1778
  946MOL0     C27616   8.367   0.430   5.547 -0.6402 -0.1000 -0.4565
  946MOL0     C27617   8.496   0.403   5.636 -0.2390  0.2510 -0.8116
  946MOL0     C27618   8.628   0.424   5.561  0.0131  0.7435 -0.3590
  946MOL0    Cl27619   8.771   0.399   5.678  0.2844 -0.2589 -0.1222
  946MOL0     C27620   7.410   0.507   5.532 -0.3931 -0.7063  0.0108
  946MOL0     C27621   7.275   0.518   5.563 -0.5570  0.7607 -0.9099
  946MOL0     O27622   7.073   0.740   5.689 -0.1382  0.0036  0.2435
  946MOL0     C27623   6.819   0.749   5.789 -0.3933  0.8654 -0.0864
  946MOL0     C27624   6.682   0.746   5.822 -0.2741 -0.5899 -0.0859
  946MOL0     N27625   6.110   0.842   6.308 -0.4280  0.7287  0.5382
  946MOL0     N27626   6.134   0.822   6.436 -0.1174  0.1892  0.0543
  946MOL0     C27627   7.355   0.182   6.856  0.7090 -0.3339  0.2849
  946MOL0     C27628   7.492   0.187   6.873 -0.2291  0.6987 -0.0929
  946MOL0     C27629   7.930   0.271   6.795  0.5016 -0.0151  0.9352
  946MOL0     C27630   8.008   0.209   6.695  0.0699  0.4051  0.1916
  946MOL0     C27631   8.146   0.198   6.707 -0.5415  0.3638  1.1040
  946MOL0     C27632   8.210   0.226   6.824 -0.6955 -0.6849  0.4858
  946MOL0     O27633   8.343   0.195   6.830 -0.4036 -0.0809  0.2549
  946MOL0     C27634   8.426   0.234   6.949 -0.2249 -0.2244  0.4652
  946MOL0     C27635   8.411   0.128   7.057  0.7945 -0.3596 -0.1545
  946MOL0     C27636   8.461  -0.004   7.000  0.8033  0.7474 -0.0346
  946MOL0     C27637   8.464  -0.116   7.096  1.1838  0.1569 -0.2474
  946MOL0     C27638   8.337  -0.128   7.176 -0.8078 -1.4674 -0.1290
  946MOL0     C27639   8.238  -0.130   7.251  0.6214  0.1442 -0.0059
  946MOL0     C27640   8.130   0.296   6.928  0.0291  1.0929  0.0641
  946MOL0     C27641   8.001   0.316   6.906  0.7373  0.4597 -0.6134
  946MOL0     C27642   7.922   0.393   7.015  0.1713  0.0301 -0.9929
  946MOL0     H27643   7.566   0.480   6.720 -0.7181  1.0706 -0.2461
  946MOL0     H27644   7.324   0.492   6.715 -2.3273 -0.8972  1.9359
  946MOL0     H27645   7.106   0.485   6.796  1.1476  0.2805 -0.1520
  946MOL0     H27646   7.110   0.403   6.645  1.5311 -0.9047  0.5034
  946MOL0     H27647   6.898   0.322   6.847 -0.1656  0.1260  0.0047
  946MOL0     H27648   6.913   0.278   6.683  0.0169 -1.8073  1.8932
  946MOL0     H27649   6.890   0.517   6.610 -1.3210 -1.1630 -1.1727
  946MOL0     H27650   6.860   0.567   6.779 -1.2273  1.3693 -1.7806
  946MOL0     H27651   6.702   0.380   6.614  3.5560 -0.7428  0.3437
  946MOL0     H27652   6.677   0.411   6.797 -2.0779  0.1383 -0.6985
  946MOL0     H27653   6.631   0.653   6.747 -0.6629  0.2014  0.2434
  946MOL0     H27654   6.641   0.619   6.574 -1.9544 -1.6751 -0.4163
  946MOL0     H27655   6.454   0.461   6.601 -0.6141 -0.5567  0.5763
  946MOL0     H27656   6.433   0.516   6.768 -0.8829 -1.0092 -0.5810
  946MOL0     H27657   6.435   0.709   6.531  0.0732  0.7826  1.1107
  946MOL0     H27658   6.402   0.742   6.700  2.4431  0.0709  0.1071
  946MOL0     H27659   6.221   0.540   6.587  3.0256 -0.3561  1.3503
  946MOL0     H27660   6.190   0.694   6.681  0.2816 -2.5307  2.2910
  946MOL0     H27661   6.247   0.536   6.333  1.3266  1.4510 -4.6340
  946MOL0     H27662   6.068   0.653   6.072  0.2753 -1.6138 -0.6535
  946MOL0     H27663   6.160   0.785   6.052 -2.4151 -0.4978 -0.6389
  946MOL0     H27664   6.375   0.672   6.067  0.0031  1.5271  1.3912
  946MOL0     H27665   6.286   0.520   6.128  2.8300  0.2313 -0.3640
  946MOL0     H27666   6.207   0.626   5.856 -0.3009  1.2430  0.8339
  946MOL0     H27667   6.206   0.460   5.915 -1.6436  1.3681  2.4027
  946MOL0     H27668   6.392   0.471   5.756 -0.4647 -0.9299  1.2809
  946MOL0     H27669   6.440   0.446   5.917 -0.8105 -1.5734 -0.7838
  946MOL0     H27670   6.629   0.415   5.769  0.6280 -0.3567 -1.3428
  946MOL0     H27671   6.848   0.416   5.731 -0.6308  0.3083 -1.0924
  946MOL0     H27672   7.305   0.484   5.898 -3.4873 -4.6986 -1.1533
  946MOL0     H27673   7.541   0.457   5.840  1.7673  1.1559 -0.8605
  946MOL0     H27674   7.748   0.518   5.727  2.5742 -1.0404  0.5597
  946MOL0     H27675   7.755   0.338   5.725 -0.4765 -1.3117 -1.3369
  946MOL0     H27676   7.867   0.348   5.506  1.2360  0.6378  0.2545
  946MOL0     H27677   7.877   0.524   5.520 -0.0754  0.8741  0.9279
  946MOL0     H27678   8.019   0.486   5.727  0.4087 -2.5374  2.7981
  946MOL0     H27679   8.004   0.313   5.701  0.8008  0.3914  1.0576
  946MOL0     H27680   8.109   0.499   5.480  0.5702 -2.1638 -1.2324
  946MOL0     H27681   8.109   0.327   5.473  0.4199  0.6486 -0.2270
  946MOL0     H27682   8.260   0.303   5.662  4.3967  0.5917  1.0260
  946MOL0     H27683   8.252   0.479   5.700  1.9624  0.8136 -1.1422
  946MOL0     H27684   8.376   0.379   5.450 -0.7014  0.7977 -0.9488
  946MOL0     H27685   8.373   0.536   5.524 -1.6188  0.3184  1.1028
  946MOL0     H27686   8.489   0.299   5.666  3.9963 -0.7218 -2.4092
  946MOL0     H27687   8.502   0.478   5.715  3.1558 -1.4733  0.7714
  946MOL0     H27688   8.650   0.356   5.478  1.0089 -0.4825  0.8565
  946MOL0     H27689   8.628   0.527   5.522  0.0610  1.6818  1.9480
  946MOL0     H27690   7.426   0.500   5.425 -0.5587 -3.3448  0.0974
  946MOL0     H27691   7.199   0.520   5.486  0.5922 -2.4273 -2.3206
  946MOL0     H27692   6.880   0.838   5.783  0.5676  0.3169  1.0063
  946MOL0     H27693   6.636   0.841   5.849  3.4499  1.2263  0.6074
  946MOL0     H27694   7.298   0.095   6.884 -1.3554  1.4102  1.8717
  946MOL0     H27695   7.536   0.103   6.925  1.6065  2.1175  0.7454
  946MOL0     H27696   7.949   0.156   6.621  0.0006 -1.1373  1.2965
  946MOL0     H27697   8.197   0.155   6.621 -2.6601  3.4056 -1.9326
  946MOL0     H27698   8.401   0.335   6.981  3.0016  0.5485  0.8853
  946MOL0     H27699   8.530   0.229   6.916  0.5281 -1.2702  2.8285
  946MOL0     H27700   8.306   0.124   7.084  0.3835 -1.2064 -1.7142
  946MOL0     H27701   8.479   0.152   7.139  1.9326  1.9957 -1.6696
  946MOL0     H27702   8.564   0.009   6.966  1.8899 -1.3090  2.1768
  946MOL0     H27703   8.394  -0.024   6.915  0.1667  0.6471  0.4849
  946MOL0     H27704   8.482  -0.213   7.050 -0.7250 -1.3357  1.9087
  946MOL0     H27705   8.546  -0.090   7.164  1.9094  1.8793 -1.7163
  946MOL0     H27706   8.155  -0.130   7.319 -1.2543  1.0255 -2.1633
  946MOL0     H27707   8.172   0.315   7.027  1.4801  1.4832 -0.6078
  946MOL0     H27708   7.995   0.439   7.082  0.8862 -1.8479 -0.4085
  946MOL0     H27709   7.857   0.469   6.973  0.9252  1.2252 -0.0816
  946MOL0     H27710   7.861   0.319   7.067 -0.1686  0.3513 -0.9342
  947MOL0     O27711   0.586   0.804   0.398  0.5463 -0.3567 -0.1147
  947MOL0     C27712   0.534   0.731   0.481 -0.9352 -0.4223 -0.2657
  947MOL0     O27713   0.604   0.666   0.578 -0.4211 -0.3097 -0.1830
  947MOL0     C27714   0.740   0.686   0.583 -0.0050 -0.3639  0.6340
  947MOL0     C27715   0.831   0.599   0.526  0.7019 -0.1069  0.6231
  947MOL0     C27716   0.968   0.609   0.547 -0.0858 -0.1111 -0.6414
  947MOL0     C27717   1.009   0.710   0.639 -0.4256 -0.2892  0.2120
  947MOL0     O27718   1.140   0.731   0.671  0.0372  0.3481  0.2790
  947MOL0     C27719   1.248   0.657   0.610  0.0933  0.0335 -0.5066
  947MOL0     C27720   1.375   0.694   0.694 -0.5061  0.5888 -0.8562
  947MOL0     C27721   1.500   0.642   0.636 -0.1878  0.1731 -0.2596
  947MOL0     C27722   1.617   0.716   0.707 -0.2632 -0.2320  0.4884
  947MOL0     C27723   1.751   0.662   0.653 -0.3828  0.4151  0.5046
  947MOL0     C27724   1.861   0.710   0.740  0.3402 -0.9928 -0.2956
  947MOL0     C27725   1.980   0.626   0.692 -0.6033  0.8522 -0.0000
  947MOL0     C27726   2.117   0.673   0.763  0.4841 -0.3206  0.1477
  947MOL0     N27727   2.144   0.821   0.760  0.1409 -0.0866 -0.3548
  947MOL0     C27728   2.210   0.883   0.864  0.1459 -0.0780  1.0695
  947MOL0     C27729   2.246   1.003   0.813  0.8846 -0.5208 -0.1885
  947MOL0     C27730   2.315   1.116   0.881  1.1952 -0.8814  0.0470
  947MOL0     C27731   2.464   1.096   0.865 -0.5393 -0.2599 -0.6757
  947MOL0     C27732   2.539   1.223   0.916 -0.7163 -0.5249  0.4706
  947MOL0     C27733   2.690   1.211   0.921 -1.0868 -0.5079  0.3578
  947MOL0     O27734   2.741   1.173   0.790  0.7400 -0.2717  0.4713
  947MOL0     C27735   2.876   1.164   0.780  0.1165 -0.3592 -0.4287
  947MOL0     C27736   2.952   1.276   0.816 -0.0978 -0.8428 -0.4405
  947MOL0     C27737   3.092   1.289   0.811 -0.2055  0.0168  0.4324
  947MOL0     C27738   3.156   1.172   0.788 -0.2998  0.2343  0.1408
  947MOL0     C27739   3.297   1.159   0.802  0.8958  0.8355 -0.3142
  947MOL0     O27740   3.366   1.251   0.871  0.7786 -0.4766 -0.4056
  947MOL0     C27741   3.479   1.196   0.934 -0.2219  0.6331  0.2165
  947MOL0     C27742   3.610   1.225   0.892  0.0184 -1.0330  0.7451
  947MOL0     C27743   3.725   1.169   0.948  0.3513 -0.0039 -0.5353
  947MOL0     C27744   3.717   1.081   1.056 -0.2235  0.1800 -0.3005
  947MOL0     O27745   3.834   1.046   1.105  0.1436  0.0783 -0.4713
  947MOL0     C27746   3.848   0.977   1.228  0.1548  0.2307 -0.4270
  947MOL0     C27747   3.992   0.945   1.268  0.6165  1.2721 -0.4267
  947MOL0     C27748   4.034   0.827   1.177  0.1401 -0.9880 -1.5225
  947MOL0     C27749   4.184   0.833   1.161  0.0601  0.0530  0.5038
  947MOL0     C27750   4.252   0.812   1.297  0.2490 -0.2193 -0.3978
  947MOL0     C27751   4.400   0.764   1.310  0.2474  0.3738  0.2046
  947MOL0     C27752   4.497   0.870   1.272  0.4571 -0.3505  0.0723
  947MOL0     C27753   4.639   0.814   1.244 -0.2092  0.8160 -1.0534
  947MOL0    Cl27754   4.743   0.816   1.392  0.2345 -0.3155  0.1441
  947MOL0     C27755   3.591   1.034   1.096  0.6064 -0.7093  0.8252
  947MOL0     C27756   3.473   1.099   1.036 -0.8058  1.0794 -0.8077
  947MOL0     O27757   3.348   1.053   0.765  0.2627  0.0151 -0.1587
  947MOL0     C27758   3.080   1.055   0.755 -1.1385 -1.1938 -1.1374
  947MOL0     C27759   2.944   1.052   0.743  0.3853 -0.2532  0.2052
  947MOL0     N27760   2.188   1.012   0.688 -0.1168 -0.0564  0.9931
  947MOL0     N27761   2.127   0.898   0.650 -0.3593 -0.3463 -0.1398
  947MOL0     C27762   0.920   0.801   0.696 -0.3894 -0.0939  0.9560
  947MOL0     C27763   0.787   0.788   0.665  1.0584  0.5982  0.2794
  947MOL0     C27764   0.381   0.721   0.477 -0.3792  0.0068  0.0397
  947MOL0     C27765   0.328   0.605   0.532 -0.0396 -0.1435 -0.2503
  947MOL0     C27766   0.194   0.580   0.551  0.3139  0.1514 -0.2326
  947MOL0     C27767   0.100   0.669   0.502 -0.3405  1.2207  1.1374
  947MOL0     O27768  -0.030   0.655   0.527 -0.2072  0.1001  0.0923
  947MOL0     C27769  -0.078   0.600   0.649 -0.4674 -0.3691 -0.5906
  947MOL0     C27770  -0.172   0.490   0.603  1.0030  0.7217 -0.4954
  947MOL0     C27771  -0.227   0.403   0.714  0.2131 -0.0009 -0.2828
  947MOL0     C27772  -0.309   0.280   0.663 -0.5509 -0.0949  0.8490
  947MOL0     C27773  -0.434   0.312   0.598 -0.6604  0.0666 -0.3851
  947MOL0     C27774  -0.535   0.342   0.542  0.0441  0.1544 -0.0404
  947MOL0     C27775   0.152   0.774   0.425 -0.6633  0.5574  0.4832
  947MOL0     C27776   0.288   0.807   0.421 -0.2349 -0.0718 -0.2199
  947MOL0     C27777   0.324   0.940   0.363 -0.0299 -0.0729  0.3430
  947MOL0     H27778   0.791   0.533   0.450  1.2609  3.2806 -2.9583
  947MOL0     H27779   1.023   0.533   0.494 -1.7992 -1.0329 -1.1770
  947MOL0     H27780   1.244   0.548   0.605 -2.6625  0.1122 -3.1114
  947MOL0     H27781   1.256   0.694   0.508  0.2040 -5.1103 -2.6350
  947MOL0     H27782   1.367   0.655   0.796 -0.5897  3.6300  0.3941
  947MOL0     H27783   1.381   0.803   0.703  1.6546  0.3718  1.9328
  947MOL0     H27784   1.500   0.675   0.531 -0.8677  0.5730 -0.1425
  947MOL0     H27785   1.509   0.534   0.647 -3.2405 -0.0791  0.8230
  947MOL0     H27786   1.624   0.823   0.686  0.4160 -0.3836 -0.0991
  947MOL0     H27787   1.611   0.704   0.816  0.1364  0.6025  0.6070
  947MOL0     H27788   1.732   0.556   0.673 -0.5571 -0.0853 -2.0348
  947MOL0     H27789   1.769   0.673   0.546  1.0045 -2.0129  0.3996
  947MOL0     H27790   1.877   0.816   0.721 -1.2888 -1.1698 -3.2007
  947MOL0     H27791   1.842   0.693   0.847  1.0553 -3.8694 -0.5440
  947MOL0     H27792   2.001   0.632   0.585 -0.0199  0.2936  0.0737
  947MOL0     H27793   1.956   0.521   0.712 -0.0021  0.7441  0.1889
  947MOL0     H27794   2.099   0.647   0.868 -2.1508  0.2898 -0.1042
  947MOL0     H27795   2.206   0.621   0.726  1.0337  1.8121 -1.7239
  947MOL0     H27796   2.235   0.852   0.965  1.9743 -2.3929 -0.0230
  947MOL0     H27797   2.270   1.213   0.859 -0.0347 -0.7804  2.6136
  947MOL0     H27798   2.296   1.113   0.989  0.4868  0.8190 -0.0001
  947MOL0     H27799   2.508   1.014   0.922 -1.0359 -0.2788 -0.3154
  947MOL0     H27800   2.497   1.086   0.761  3.6581  3.4591  0.0280
  947MOL0     H27801   2.494   1.260   1.009 -1.8478 -0.1299 -0.2160
  947MOL0     H27802   2.521   1.303   0.844  0.4008 -0.7470 -0.0827
  947MOL0     H27803   2.719   1.142   1.001 -2.0351 -0.3233  0.8748
  947MOL0     H27804   2.724   1.311   0.949 -2.9244  0.8303 -1.7906
  947MOL0     H27805   2.891   1.364   0.832  1.8329  0.5038 -0.1369
  947MOL0     H27806   3.139   1.385   0.831  0.5391 -0.4399  0.8950
  947MOL0     H27807   3.620   1.300   0.814 -1.5281 -0.4978  1.0242
  947MOL0     H27808   3.824   1.202   0.918  0.3661  0.9000  0.4360
  947MOL0     H27809   3.802   1.041   1.304  0.2653  1.3971 -1.3224
  947MOL0     H27810   3.788   0.885   1.219  0.3440 -0.1292  1.5574
  947MOL0     H27811   4.054   1.032   1.246 -0.7077  1.5723 -3.5091
  947MOL0     H27812   3.995   0.911   1.372 -3.3991  1.3914 -0.0943
  947MOL0     H27813   4.008   0.735   1.229  1.1929  1.2861  3.6914
  947MOL0     H27814   3.985   0.836   1.080  0.4943  0.0513 -1.6199
  947MOL0     H27815   4.225   0.920   1.108 -1.0603 -0.6294 -1.5587
  947MOL0     H27816   4.210   0.754   1.090  0.7388 -1.7252  2.6287
  947MOL0     H27817   4.197   0.735   1.351  0.6350 -1.5530 -1.8223
  947MOL0     H27818   4.247   0.903   1.357  2.3673 -0.2967 -0.0077
  947MOL0     H27819   4.426   0.733   1.412 -1.5792  2.1225  1.2874
  947MOL0     H27820   4.414   0.673   1.252 -0.3637 -1.3158  2.5209
  947MOL0     H27821   4.493   0.948   1.348 -0.7615 -0.8310  0.5165
  947MOL0     H27822   4.459   0.921   1.183 -0.0483 -0.5136  0.1901
  947MOL0     H27823   4.634   0.715   1.199 -2.4085  0.8364 -0.9306
  947MOL0     H27824   4.677   0.875   1.161  1.9156 -1.2133 -1.6916
  947MOL0     H27825   3.581   0.967   1.181  0.2710 -0.8528  0.6720
  947MOL0     H27826   3.374   1.066   1.065 -0.0182  2.1171  4.0049
  947MOL0     H27827   3.132   0.963   0.733  2.1194  0.5194 -1.1896
  947MOL0     H27828   2.897   0.958   0.718  1.6120 -0.5696 -0.9993
  947MOL0     H27829   0.954   0.879   0.764 -0.6677  1.6554 -0.8123
  947MOL0     H27830   0.709   0.845   0.716 -0.4661 -1.4335  0.3434
  947MOL0     H27831   0.394   0.522   0.555  1.3420  0.7431 -0.9071
  947MOL0     H27832   0.171   0.496   0.616 -2.1298 -0.0076 -1.1851
  947MOL0     H27833  -0.133   0.678   0.703  3.7391  2.7761 -0.3380
  947MOL0     H27834  -0.006   0.563   0.723 -0.5597 -1.0460 -0.8326
  947MOL0     H27835  -0.120   0.424   0.534 -0.5591 -1.0595 -0.0613
  947MOL0     H27836  -0.259   0.538   0.556 -0.0837  0.0058  0.7384
  947MOL0     H27837  -0.295   0.462   0.776 -2.3208  0.7788 -3.5312
  947MOL0     H27838  -0.141   0.369   0.774 -0.2150  0.8746  0.8624
  947MOL0     H27839  -0.252   0.231   0.584  1.3370  2.1746  0.6902
  947MOL0     H27840  -0.316   0.197   0.734  2.1068  0.6645  2.1189
  947MOL0     H27841  -0.626   0.357   0.487  0.6147 -1.9101 -1.6783
  947MOL0     H27842   0.073   0.834   0.382 -0.6404 -1.0016 -1.8928
  947MOL0     H27843   0.399   0.917   0.287 -2.1318  1.5603 -2.4271
  947MOL0     H27844   0.243   0.987   0.306  0.0061 -1.5123 -0.9582
  947MOL0     H27845   0.354   1.007   0.444  1.7074 -2.2682  1.6453
  948MOL0     O27846   4.570   9.974   1.301  0.1398 -1.4631 -0.2407
  948MOL0     C27847   4.584  10.060   1.389  1.0745  0.6349 -0.6973
  948MOL0     O27848   4.697  10.122   1.422  0.7663  1.0379  0.0707
  948MOL0     C27849   4.811  10.111   1.347  0.4752  0.2912 -0.0349
  948MOL0     C27850   4.878   9.993   1.335 -0.0280 -0.6286 -0.0834
  948MOL0     C27851   4.998   9.966   1.263 -0.0113 -0.5667  0.4037
  948MOL0     C27852   5.038  10.070   1.181 -0.5803  0.0295 -0.7590
  948MOL0     O27853   5.152  10.065   1.097  0.3397 -0.1429 -0.7750
  948MOL0     C27854   5.261   9.977   1.119  1.1068 -0.7814  0.0947
  948MOL0     C27855   5.397  10.040   1.082  0.0307 -0.3670 -0.0078
  948MOL0     C27856   5.508   9.931   1.096 -0.8904  0.0291  0.0716
  948MOL0     C27857   5.624   9.968   0.994  0.0152  0.0194  0.2976
  948MOL0     C27858   5.753   9.900   1.047 -0.1855  1.2060 -1.0483
  948MOL0     C27859   5.748   9.752   1.033  0.3191  0.0988 -0.8255
  948MOL0     C27860   5.881   9.682   1.045 -0.2908 -0.0402  1.3518
  948MOL0     C27861   5.948   9.707   1.181 -0.4784  0.5517 -0.9171
  948MOL0     N27862   6.089   9.655   1.180  0.7067 -0.5528  0.2872
  948MOL0     C27863   6.190   9.722   1.239 -0.2660 -0.1134  0.1211
  948MOL0     C27864   6.293   9.634   1.246  0.7302 -0.6694  0.6102
  948MOL0     C27865   6.439   9.658   1.285  0.3786  0.2650  0.7073
  948MOL0     C27866   6.540   9.635   1.173  0.1961  0.9461 -0.3452
  948MOL0     C27867   6.676   9.658   1.235  0.0142 -0.8430 -0.4201
  948MOL0     C27868   6.792   9.646   1.143  0.4696  0.2054 -0.4571
  948MOL0     O27869   6.907   9.655   1.227 -0.6678  0.2068  0.2764
  948MOL0     C27870   7.041   9.668   1.183 -0.0133 -0.4529  0.5398
  948MOL0     C27871   7.073   9.697   1.050 -0.3008 -0.6606  0.3104
  948MOL0     C27872   7.221   9.687   1.022  0.6456 -0.7386 -0.1098
  948MOL0     C27873   7.313   9.684   1.126  0.7145  0.1371  0.6835
  948MOL0     C27874   7.452   9.685   1.104  0.1344 -0.5414  0.6277
  948MOL0     O27875   7.538   9.669   1.215 -0.5787  0.3015 -0.8403
  948MOL0     C27876   7.672   9.678   1.227 -0.7305  0.4129 -0.5576
  948MOL0     C27877   7.727   9.682   1.358  0.4625  0.3479 -0.2216
  948MOL0     C27878   7.865   9.690   1.391  0.7677 -0.5966  0.2857
  948MOL0     C27879   7.959   9.681   1.286  0.1466  0.3476 -0.1416
  948MOL0     O27880   8.094   9.694   1.312 -0.0369  0.2070 -0.4820
  948MOL0     C27881   8.176   9.731   1.203  0.6093 -0.1655 -0.1606
  948MOL0     C27882   8.311   9.776   1.250  0.8110  0.4826 -0.3618
  948MOL0     C27883   8.374   9.831   1.128  0.0815 -0.9095  0.9033
  948MOL0     C27884   8.528   9.846   1.131  0.8444 -0.0018 -0.0623
  948MOL0     C27885   8.584   9.858   0.985 -0.7476 -0.1526  0.1675
  948MOL0     C27886   8.732   9.889   1.008 -0.4018 -0.2761 -0.1134
  948MOL0     C27887   8.801   9.907   0.864 -0.1176  0.6180 -0.4241
  948MOL0     C27888   8.931   9.986   0.898  0.9284 -0.4217 -0.1387
  948MOL0    Cl27889   9.060   9.934   0.792  0.0690  0.4408  0.5406
  948MOL0     C27890   7.903   9.659   1.158 -0.8908 -0.0207 -0.3372
  948MOL0     C27891   7.766   9.674   1.126  0.1754 -0.0944 -0.2526
  948MOL0     O27892   7.492   9.704   0.988 -0.9779 -0.0959 -0.3660
  948MOL0     C27893   7.270   9.666   1.258  0.0884 -0.8101  0.2081
  948MOL0     C27894   7.134   9.652   1.283 -0.6768 -0.9542 -0.4092
  948MOL0     N27895   6.244   9.516   1.205 -0.0044  0.6560 -0.2091
  948MOL0     N27896   6.123   9.523   1.170  0.2245 -0.3236 -0.4571
  948MOL0     C27897   4.966  10.191   1.180 -0.2230 -0.7036 -0.3815
  948MOL0     C27898   4.857  10.212   1.266  0.5191  0.7436  0.4207
  948MOL0     C27899   4.456  10.096   1.449  0.2354 -0.1081  0.9936
  948MOL0     C27900   4.364   9.996   1.476 -0.9050 -0.6050 -0.7331
  948MOL0     C27901   4.244  10.026   1.536  0.2289 -0.5896  0.7935
  948MOL0     C27902   4.195  10.154   1.550 -0.0369  0.3429 -1.5762
  948MOL0     O27903   4.068  10.177   1.582  0.1319 -0.3539 -0.6430
  948MOL0     C27904   4.059  10.266   1.695  0.4351  0.1329 -0.1222
  948MOL0     C27905   3.913  10.290   1.730  0.4930  0.6213  0.5784
  948MOL0     C27906   3.825  10.160   1.753 -0.2887 -0.3371 -0.3738
  948MOL0     C27907   3.761  10.166   1.891  0.2785  0.4269 -1.2154
  948MOL0     C27908   3.684  10.291   1.914 -0.0351 -0.4258 -0.9450
  948MOL0     C27909   3.607  10.384   1.933 -0.0537  0.6151 -0.0386
  948MOL0     C27910   4.294  10.255   1.529  0.0300  0.1805 -0.1626
  948MOL0     C27911   4.426  10.226   1.488  0.5155  0.2971  0.9607
  948MOL0     C27912   4.524  10.346   1.494  0.2090 -0.5071  1.0739
  948MOL0     H27913   4.842   9.911   1.397 -2.2122 -1.9489 -2.8513
  948MOL0     H27914   5.052   9.872   1.268  0.3459 -0.4684 -1.0032
  948MOL0     H27915   5.265   9.950   1.225 -0.5869  2.3797  1.0742
  948MOL0     H27916   5.226   9.892   1.060 -1.4473  0.6530 -0.6068
  948MOL0     H27917   5.414  10.119   1.156  0.4217  0.0475 -0.5400
  948MOL0     H27918   5.395  10.079   0.980  0.8479  1.0326  0.4789
  948MOL0     H27919   5.462   9.835   1.075 -0.4862 -0.0039 -0.7188
  948MOL0     H27920   5.554   9.935   1.195 -0.4762 -1.8681 -0.0135
  948MOL0     H27921   5.592   9.922   0.900  0.1102 -0.4597  0.4983
  948MOL0     H27922   5.634  10.076   0.981  2.2548 -0.1990 -0.1078
  948MOL0     H27923   5.843   9.924   0.991  0.7991  1.7121  0.7004
  948MOL0     H27924   5.771   9.934   1.149  0.5337  0.1913 -0.8216
  948MOL0     H27925   5.668   9.710   1.095 -0.6538  0.5824 -1.7267
  948MOL0     H27926   5.710   9.716   0.937  3.6408 -1.5970 -1.6802
  948MOL0     H27927   5.944   9.709   0.960 -1.6024 -3.4154 -0.9152
  948MOL0     H27928   5.866   9.574   1.035 -1.4282  0.2785 -1.1424
  948MOL0     H27929   5.947   9.811   1.213  0.2976  0.5202 -0.7662
  948MOL0     H27930   5.898   9.646   1.257  0.5795 -0.3501 -0.9263
  948MOL0     H27931   6.199   9.825   1.273  0.0118 -0.1681  0.2118
  948MOL0     H27932   6.455   9.759   1.322 -4.2146  2.3014 -1.9551
  948MOL0     H27933   6.461   9.589   1.367 -1.2568 -0.5980  0.4850
  948MOL0     H27934   6.536   9.532   1.137  0.0305  0.3917  1.1569
  948MOL0     H27935   6.525   9.707   1.093  1.4490 -0.5945 -2.0466
  948MOL0     H27936   6.687   9.582   1.313 -1.4803  0.6487  1.3155
  948MOL0     H27937   6.678   9.758   1.278 -1.7897 -0.9708  0.0395
  948MOL0     H27938   6.785   9.723   1.065 -2.9148  0.5331  0.0156
  948MOL0     H27939   6.798   9.550   1.092  1.1035  0.1728 -0.3199
  948MOL0     H27940   6.995   9.717   0.977  0.5402 -0.7617 -0.6448
  948MOL0     H27941   7.254   9.693   0.919 -0.9600 -1.2696 -0.6859
  948MOL0     H27942   7.651   9.697   1.433 -1.5841 -1.3353 -1.8163
  948MOL0     H27943   7.893   9.710   1.494 -0.6947 -2.1771  1.0500
  948MOL0     H27944   8.186   9.641   1.142  3.0698 -0.2269  0.2056
  948MOL0     H27945   8.131   9.807   1.139  1.9686 -0.8993 -2.0942
  948MOL0     H27946   8.314   9.842   1.337 -1.9281 -0.5483  0.6115
  948MOL0     H27947   8.364   9.682   1.268 -2.0111 -1.5065 -1.5677
  948MOL0     H27948   8.357   9.769   1.039  1.1830 -0.6106  0.4636
  948MOL0     H27949   8.326   9.927   1.107 -2.2065 -1.9447  1.0140
  948MOL0     H27950   8.564   9.755   1.180 -1.0066 -0.4328  0.5859
  948MOL0     H27951   8.550   9.938   1.186  1.8037  0.1232 -0.6452
  948MOL0     H27952   8.537   9.942   0.934  1.2247  1.2673  0.5740
  948MOL0     H27953   8.580   9.768   0.923 -0.7623 -0.7933  1.0881
  948MOL0     H27954   8.744   9.979   1.069  3.6948 -0.0996 -0.9512
  948MOL0     H27955   8.784   9.807   1.057  1.4483  0.8778 -0.0590
  948MOL0     H27956   8.734   9.967   0.802  0.5481  1.4668 -0.3299
  948MOL0     H27957   8.830   9.810   0.822 -0.3376 -0.7546  2.3244
  948MOL0     H27958   8.912  10.093   0.904  0.9304 -0.3615 -1.1766
  948MOL0     H27959   8.973   9.956   0.995  0.5772 -2.8242 -0.6596
  948MOL0     H27960   7.977   9.635   1.083 -1.1719  1.1625 -1.0091
  948MOL0     H27961   7.730   9.678   1.023  0.3771 -3.2500 -0.5475
  948MOL0     H27962   7.340   9.666   1.340  0.1940 -1.1012  0.1187
  948MOL0     H27963   7.091   9.640   1.382 -1.0124 -1.6562 -0.6269
  948MOL0     H27964   5.002  10.282   1.132 -1.9711 -0.7160 -1.8194
  948MOL0     H27965   4.805  10.308   1.268 -1.2033  0.1554 -4.0824
  948MOL0     H27966   4.375   9.894   1.444  1.6819 -0.4517 -0.4793
  948MOL0     H27967   4.171   9.947   1.546  0.5041 -0.8480  0.7701
  948MOL0     H27968   4.111  10.362   1.690 -0.2613  0.6090  1.3249
  948MOL0     H27969   4.108  10.218   1.780 -2.4115  0.1482  1.6472
  948MOL0     H27970   3.873  10.339   1.641  0.8919 -1.1807 -0.6589
  948MOL0     H27971   3.905  10.367   1.807  0.8260 -2.0094  3.4967
  948MOL0     H27972   3.883  10.069   1.737 -1.0254 -1.5585  3.0301
  948MOL0     H27973   3.749  10.159   1.675  0.6394  3.0511 -1.5006
  948MOL0     H27974   3.699  10.078   1.908  1.4209  0.1315  2.1037
  948MOL0     H27975   3.837  10.157   1.968 -1.5587  0.4908  0.7007
  948MOL0     H27976   3.551  10.475   1.938  1.0118  1.6710 -3.9380
  948MOL0     H27977   4.269  10.354   1.563 -2.3176 -0.9184  1.5663
  948MOL0     H27978   4.592  10.327   1.579  0.5883  0.5835  1.0286
  948MOL0     H27979   4.585  10.355   1.404 -1.1951 -0.8729  0.0522
  948MOL0     H27980   4.479  10.444   1.511 -0.3776 -0.2817 -1.4961
  949MOL0     O27981   4.482   3.207  10.711  0.2217  0.0032 -0.5555
  949MOL0     C27982   4.410   3.255  10.619 -0.0095 -0.7069 -1.2252
  949MOL0     O27983   4.468   3.329  10.513  0.5025 -0.2081 -0.1217
  949MOL0     C27984   4.596   3.367  10.533  0.8062 -0.9982  0.3582
  949MOL0     C27985   4.707   3.289  10.530  0.0965  0.1711 -0.7833
  949MOL0     C27986   4.836   3.333  10.557  0.1482 -0.5688  0.2681
  949MOL0     C27987   4.846   3.479  10.571  0.3401  0.1330 -0.3765
  949MOL0     O27988   4.967   3.526  10.599 -0.4593  0.2264 -0.5139
  949MOL0     C27989   4.998   3.653  10.643 -0.1083 -0.2453 -0.0414
  949MOL0     C27990   5.142   3.690  10.632  1.1616  0.4123  0.2634
  949MOL0     C27991   5.171   3.842  10.650  0.6653 -0.7868 -0.5062
  949MOL0     C27992   5.321   3.858  10.635 -0.0747  0.9597 -0.0265
  949MOL0     C27993   5.347   4.011  10.653  0.0446  0.2405  0.1882
  949MOL0     C27994   5.496   4.036  10.634  0.2879  0.6136 -0.5213
  949MOL0     C27995   5.529   4.180  10.640 -0.0330 -0.8384 -1.0468
  949MOL0     C27996   5.681   4.217  10.631  0.3007  0.3574 -0.3371
  949MOL0     N27997   5.694   4.335  10.717  0.2629 -0.0162 -0.9027
  949MOL0     C27998   5.677   4.369  10.840 -0.1113 -0.1063 -0.9449
  949MOL0     C27999   5.746   4.485  10.867  0.0428 -0.0703 -0.0003
  949MOL0     C28000   5.778   4.562  10.992  0.5084 -0.0647 -0.4010
  949MOL0     C28001   5.899   4.632  11.009  0.0426  0.3317  0.1559
  949MOL0     C28002   6.014   4.530  11.033  0.3250 -0.1254  0.0616
  949MOL0     C28003   6.145   4.598  11.028  0.7638  1.1490  0.3370
  949MOL0     O28004   6.250   4.509  10.998 -0.7307 -0.2080  0.0421
  949MOL0     C28005   6.376   4.551  10.980 -0.4371  0.4461  0.4297
  949MOL0     C28006   6.478   4.452  10.976 -0.4584 -0.4725 -0.2726
  949MOL0     C28007   6.619   4.490  10.971 -0.0204 -0.0727  0.5647
  949MOL0     C28008   6.658   4.626  10.974  1.1516  0.0788  0.2257
  949MOL0     C28009   6.797   4.657  10.991 -0.3339 -0.4463 -0.2747
  949MOL0     O28010   6.824   4.796  11.010  0.8214  1.0875  0.3425
  949MOL0     C28011   6.953   4.838  10.994 -0.0270 -0.0324  0.0102
  949MOL0     C28012   7.045   4.792  10.893 -0.6232 -0.3001  0.2534
  949MOL0     C28013   7.177   4.840  10.896  0.0206  0.1617 -0.6496
  949MOL0     C28014   7.220   4.931  10.983 -0.9422 -0.7838 -0.2895
  949MOL0     O28015   7.346   4.984  10.968 -0.1686 -0.6284 -0.1408
  949MOL0     C28016   7.403   5.038  11.089 -0.1617 -0.1526 -1.1953
  949MOL0     C28017   7.555   5.020  11.087 -0.0307 -0.1785  0.2996
  949MOL0     C28018   7.618   5.148  11.125 -0.2711  0.3355  0.2817
  949MOL0     C28019   7.770   5.132  11.094 -0.2584  0.1040  0.0208
  949MOL0     C28020   7.853   5.243  11.155 -0.3499 -0.0633 -0.2437
  949MOL0     C28021   8.010   5.228  11.146  0.2280  0.0983  0.2079
  949MOL0     C28022   8.061   5.259  11.002 -0.6891 -0.2504 -0.4106
  949MOL0     C28023   8.215   5.266  11.005 -0.6501  0.1300 -0.0179
  949MOL0    Cl28024   8.249   5.445  11.029  0.0511  0.2577  0.2260
  949MOL0     C28025   7.127   4.996  11.071  0.5219 -0.6114  0.8524
  949MOL0     C28026   6.997   4.940  11.076 -0.8470 -0.5325 -0.0203
  949MOL0     O28027   6.883   4.566  10.985  0.1841  0.3456  0.1275
  949MOL0     C28028   6.555   4.720  10.965  0.7827 -0.5271 -0.7208
  949MOL0     C28029   6.421   4.688  10.971  0.5068  0.4774 -0.2703
  949MOL0     N28030   5.789   4.529  10.750  0.5492  0.0496  0.5544
  949MOL0     N28031   5.756   4.440  10.661 -0.0772 -0.3135 -0.8255
  949MOL0     C28032   4.728   3.557  10.568  0.3802 -0.2268 -0.4219
  949MOL0     C28033   4.604   3.505  10.546  0.5838  0.2524 -0.0520
  949MOL0     C28034   4.265   3.225  10.614  0.0109  0.5264 -0.1583
  949MOL0     C28035   4.209   3.246  10.484  1.0351  0.3063 -1.2546
  949MOL0     C28036   4.075   3.202  10.465  0.7202 -0.2333  0.0870
  949MOL0     C28037   3.999   3.135  10.560  0.1045  0.3274 -0.3109
  949MOL0     O28038   3.868   3.096  10.525 -0.4017  0.5871  0.6351
  949MOL0     C28039   3.774   3.063  10.628 -0.0826 -0.0298  0.1808
  949MOL0     C28040   3.626   3.102  10.591 -0.8750 -0.3253  0.5481
  949MOL0     C28041   3.558   3.008  10.490  0.8092  0.0855 -0.2281
  949MOL0     C28042   3.452   3.080  10.404 -1.9413  0.4259 -0.3073
  949MOL0     C28043   3.341   3.139  10.481 -0.0342 -0.7028  0.8629
  949MOL0     C28044   3.252   3.180  10.551 -0.6106 -1.1683  0.1067
  949MOL0     C28045   4.055   3.122  10.689 -0.0247 -0.2069 -0.2750
  949MOL0     C28046   4.189   3.152  10.714 -0.5459 -0.0928 -0.5736
  949MOL0     C28047   4.242   3.130  10.850  0.6071  0.1063  0.5563
  949MOL0     H28048   4.689   3.182  10.531  0.2953  0.1389 -0.6943
  949MOL0     H28049   4.914   3.258  10.565  0.7657 -0.0231 -0.4738
  949MOL0     H28050   4.950   3.728  10.580  1.0073 -0.2850 -0.9608
  949MOL0     H28051   4.968   3.675  10.746 -0.3010  2.6783 -0.6371
  949MOL0     H28052   5.180   3.663  10.532 -0.4169 -0.8000 -0.0625
  949MOL0     H28053   5.200   3.631  10.703 -0.9902  1.2044  2.8174
  949MOL0     H28054   5.138   3.890  10.743  1.4353 -1.8689  0.3507
  949MOL0     H28055   5.121   3.902  10.573 -0.0218  0.8595  1.1690
  949MOL0     H28056   5.374   3.805  10.715  0.5942  1.1779 -0.3100
  949MOL0     H28057   5.365   3.823  10.541 -0.9275  2.4130 -0.9971
  949MOL0     H28058   5.299   4.067  10.572  1.5231  0.3408 -0.6638
  949MOL0     H28059   5.309   4.037  10.752  0.9974  2.2008  0.0909
  949MOL0     H28060   5.557   3.980  10.706  1.2231  0.4835 -1.3907
  949MOL0     H28061   5.524   3.994  10.537 -1.0636 -3.9022  0.8190
  949MOL0     H28062   5.470   4.222  10.722 -0.4191  0.1033 -1.7957
  949MOL0     H28063   5.486   4.235  10.556 -0.8691  1.0016  0.4981
  949MOL0     H28064   5.745   4.132  10.658  1.5078  1.1161 -0.7262
  949MOL0     H28065   5.716   4.248  10.532  0.8373 -0.4352 -0.4037
  949MOL0     H28066   5.622   4.314  10.916  1.2103 -0.7651 -0.4292
  949MOL0     H28067   5.698   4.638  10.988 -0.8018 -1.4591 -3.1125
  949MOL0     H28068   5.757   4.492  11.074 -1.2677  1.6057  0.6861
  949MOL0     H28069   5.929   4.697  10.926  0.1862 -2.2071 -1.8920
  949MOL0     H28070   5.894   4.701  11.094 -0.7577  3.2069 -2.0529
  949MOL0     H28071   6.009   4.446  10.964 -0.0227 -1.7103  1.9338
  949MOL0     H28072   5.998   4.485  11.132 -0.8960  0.4130  0.1282
  949MOL0     H28073   6.165   4.629  11.131  0.3510 -2.5440  1.6859
  949MOL0     H28074   6.142   4.686  10.963  1.0860  0.0478 -1.2408
  949MOL0     H28075   6.451   4.347  10.975 -0.1638 -0.5846 -2.9432
  949MOL0     H28076   6.701   4.419  10.973  1.1915  1.2644  0.8868
  949MOL0     H28077   7.003   4.724  10.820  0.2831  1.4162 -1.9759
  949MOL0     H28078   7.241   4.795  10.821  2.2960  2.4125 -0.2065
  949MOL0     H28079   7.378   5.143  11.104  0.1469  0.0300 -1.9124
  949MOL0     H28080   7.387   4.989  11.185  2.0207  1.4036  0.0346
  949MOL0     H28081   7.598   4.942  11.151  0.4694 -0.5054 -0.4097
  949MOL0     H28082   7.588   4.995  10.985  2.1777 -0.6489  1.0789
  949MOL0     H28083   7.605   5.244  11.073  0.5439  0.3296  0.0419
  949MOL0     H28084   7.592   5.168  11.229  1.3345 -1.8938  1.1653
  949MOL0     H28085   7.791   5.122  10.987 -0.8884  0.2352 -0.1219
  949MOL0     H28086   7.803   5.040  11.142 -1.9840 -0.8861 -0.6046
  949MOL0     H28087   7.827   5.248  11.261  1.1897 -0.3697  0.1788
  949MOL0     H28088   7.837   5.339  11.107  2.1683  0.2464 -0.6349
  949MOL0     H28089   8.065   5.296  11.212  0.6191 -0.4396  0.4478
  949MOL0     H28090   8.028   5.128  11.186 -0.1577 -1.3897 -3.0596
  949MOL0     H28091   8.020   5.358  10.978  2.0050  1.6832  2.3334
  949MOL0     H28092   8.032   5.185  10.926  0.1825  0.2009 -1.1985
  949MOL0     H28093   8.247   5.202  11.087 -1.7898  2.0109  2.0175
  949MOL0     H28094   8.252   5.227  10.910 -0.2417 -0.1274  0.2474
  949MOL0     H28095   7.166   5.077  11.130 -0.9604  1.7526 -1.1918
  949MOL0     H28096   6.927   4.987  11.144  1.8313  2.9659  0.6096
  949MOL0     H28097   6.580   4.826  10.965 -2.7981  0.4578  0.4516
  949MOL0     H28098   6.354   4.773  10.966 -2.3414 -1.6596 -0.6119
  949MOL0     H28099   4.728   3.665  10.566  0.9543 -0.1946  0.5450
  949MOL0     H28100   4.513   3.563  10.537  1.6559  1.5967 -3.6639
  949MOL0     H28101   4.259   3.288  10.398  1.7040 -1.1039 -1.5822
  949MOL0     H28102   4.024   3.221  10.371  1.2611  1.8222  0.1597
  949MOL0     H28103   3.795   3.119  10.720 -1.0931  1.0832 -0.2386
  949MOL0     H28104   3.767   2.955  10.643 -0.2775  0.2957  2.9378
  949MOL0     H28105   3.640   3.210  10.582  0.8194 -0.5836 -0.4842
  949MOL0     H28106   3.569   3.101  10.684  0.0777 -1.8465  1.1677
  949MOL0     H28107   3.513   2.922  10.540  1.8524 -0.4170 -0.1331
  949MOL0     H28108   3.636   2.978  10.420  1.4849  2.8475 -0.7770
  949MOL0     H28109   3.501   3.157  10.344  1.4603 -1.9675 -0.9021
  949MOL0     H28110   3.407   2.998  10.348  0.1528 -0.4974 -0.7202
  949MOL0     H28111   3.188   3.220  10.627  1.9439 -2.7954  3.4230
  949MOL0     H28112   3.992   3.082  10.768  0.3589 -1.4110 -0.5562
  949MOL0     H28113   4.313   3.048  10.843  0.8152  0.2585  0.8444
  949MOL0     H28114   4.291   3.218  10.894  1.8982 -1.1044  1.6475
  949MOL0     H28115   4.159   3.111  10.919  0.5728  0.9600  0.7662
  950MOL0     O28116   3.201   5.070  10.078 -0.4943  0.2468  0.3175
  950MOL0     C28117   3.088   5.068  10.033  0.4398  0.1031 -0.2037
  950MOL0     O28118   3.042   5.158   9.945  0.1427  0.0611  1.2927
  950MOL0     C28119   3.121   5.264   9.891 -1.6969  0.9059 -0.1986
  950MOL0     C28120   3.093   5.298   9.765  0.5150  0.0024 -0.1299
  950MOL0     C28121   3.159   5.402   9.696  0.1285 -0.1054  0.7207
  950MOL0     C28122   3.262   5.476   9.764 -1.0016  0.9701  0.4376
  950MOL0     O28123   3.335   5.583   9.712 -0.0349 -0.2461 -0.5311
  950MOL0     C28124   3.257   5.657   9.619  0.7399 -0.3967 -0.4314
  950MOL0     C28125   3.275   5.620   9.471 -0.1087 -1.0985  0.8494
  950MOL0     C28126   3.428   5.640   9.437 -0.0157  0.0382 -0.3518
  950MOL0     C28127   3.442   5.674   9.294  0.2323 -0.0799  0.5855
  950MOL0     C28128   3.592   5.695   9.247  0.8689  0.8409 -0.0134
  950MOL0     C28129   3.626   5.676   9.088  0.1201  0.7708 -0.1622
  950MOL0     C28130   3.745   5.744   9.047 -0.0086 -0.0070 -0.1128
  950MOL0     C28131   3.727   5.898   9.016 -0.4930  0.2920  0.0573
  950MOL0     N28132   3.852   5.976   8.997  0.2939 -0.2234 -0.2883
  950MOL0     C28133   3.878   6.107   9.029  0.0756  0.4076 -0.5447
  950MOL0     C28134   4.005   6.122   8.990 -0.6440 -0.2409  0.1806
  950MOL0     C28135   4.079   6.255   8.982 -0.0863 -0.0134  0.3111
  950MOL0     C28136   4.165   6.283   9.103  0.1009 -0.5661  0.2776
  950MOL0     C28137   4.268   6.170   9.129  0.4187  0.5281  0.1646
  950MOL0     C28138   4.411   6.196   9.172  0.4746 -0.4005 -1.2382
  950MOL0     O28139   4.496   6.268   9.082 -0.2629  0.0863 -0.0675
  950MOL0     C28140   4.631   6.261   9.119  0.1951 -0.4508  0.6854
  950MOL0     C28141   4.725   6.268   9.019 -0.9340 -0.5779  0.5939
  950MOL0     C28142   4.864   6.276   9.042 -0.2196  0.9760  0.4800
  950MOL0     C28143   4.904   6.254   9.177  0.4252 -0.1967 -0.5197
  950MOL0     C28144   5.048   6.251   9.213  0.1656  0.1806 -0.0122
  950MOL0     O28145   5.146   6.276   9.124 -0.0495 -0.9225 -0.2170
  950MOL0     C28146   5.276   6.244   9.154 -0.6822  0.9659 -0.0910
  950MOL0     C28147   5.338   6.277   9.279 -0.5637 -1.2388  0.4229
  950MOL0     C28148   5.477   6.250   9.297 -0.5535 -0.4184  0.3997
  950MOL0     C28149   5.554   6.202   9.194 -0.4545  0.4092  0.3881
  950MOL0     O28150   5.688   6.183   9.222 -0.1346  0.1080 -0.2643
  950MOL0     C28151   5.768   6.117   9.125 -0.3103 -0.5568 -0.5463
  950MOL0     C28152   5.911   6.082   9.172 -0.2241  0.3628 -0.0142
  950MOL0     C28153   6.018   6.117   9.067 -0.1873  0.3587 -0.0520
  950MOL0     C28154   6.158   6.131   9.127 -0.0531 -0.2933 -0.2608
  950MOL0     C28155   6.265   6.154   9.023 -0.0625  0.1265 -0.0406
  950MOL0     C28156   6.408   6.165   9.081  1.0578 -0.2606  0.6386
  950MOL0     C28157   6.510   6.203   8.976  0.0564 -0.4164  0.0013
  950MOL0     C28158   6.638   6.259   9.037 -0.7877  0.5375  1.2822
  950MOL0    Cl28159   6.681   6.143   9.175  0.2677 -0.1824  0.5037
  950MOL0     C28160   5.488   6.148   9.073  0.1382  0.2835  0.1206
  950MOL0     C28161   5.350   6.175   9.051 -0.8166 -0.2917  0.6122
  950MOL0     O28162   5.070   6.216   9.331  0.1920 -0.2246  0.5384
  950MOL0     C28163   4.807   6.230   9.271  0.1068 -0.4655  0.0767
  950MOL0     C28164   4.670   6.227   9.247 -0.1056  0.2274 -0.2588
  950MOL0     N28165   4.049   6.008   8.926 -0.1757  0.5730 -0.5251
  950MOL0     N28166   3.958   5.925   8.935 -0.3300  0.5636 -0.1559
  950MOL0     C28167   3.297   5.431   9.890 -0.5802 -0.0891  0.2892
  950MOL0     C28168   3.235   5.325   9.956  0.4043 -0.5483  0.0049
  950MOL0     C28169   2.981   4.959  10.071 -0.7910  0.5890 -0.0897
  950MOL0     C28170   2.848   4.982  10.029 -0.1037  0.6741  0.8040
  950MOL0     C28171   2.749   4.883  10.040 -0.3189 -0.1362  0.0513
  950MOL0     C28172   2.779   4.776  10.126 -0.1916 -0.7186 -0.5397
  950MOL0     O28173   2.668   4.698  10.155 -0.0866  0.9302 -0.3585
  950MOL0     C28174   2.685   4.579  10.229  1.0641 -0.6716 -0.2775
  950MOL0     C28175   2.554   4.513  10.257 -0.5652  0.0352  0.3415
  950MOL0     C28176   2.553   4.368  10.321 -0.8842  0.0477 -0.2643
  950MOL0     C28177   2.625   4.263  10.242  0.3777 -0.0933 -0.3326
  950MOL0     C28178   2.577   4.253  10.107  0.4737 -0.6451  0.0264
  950MOL0     C28179   2.522   4.226  10.000 -0.0368 -0.4294 -0.4159
  950MOL0     C28180   2.904   4.755  10.184  0.2250 -0.5800 -0.3806
  950MOL0     C28181   3.010   4.843  10.152 -0.0759  0.0314 -1.4911
  950MOL0     C28182   3.151   4.800  10.195  0.3106 -0.1639  0.2340
  950MOL0     H28183   3.005   5.258   9.715  0.0102 -0.5381  1.1285
  950MOL0     H28184   3.128   5.427   9.595  0.1253 -0.6117  0.5955
  950MOL0     H28185   3.150   5.660   9.643  0.2132  2.0120 -2.6171
  950MOL0     H28186   3.285   5.762   9.630  0.6074 -0.5622  2.3328
  950MOL0     H28187   3.217   5.697   9.419 -0.2287  1.2520  4.1573
  950MOL0     H28188   3.237   5.521   9.442  0.6492 -2.3227  3.6581
  950MOL0     H28189   3.485   5.549   9.457  0.9493  0.8220  0.6142
  950MOL0     H28190   3.465   5.714   9.509  0.6394 -1.0964  0.5185
  950MOL0     H28191   3.405   5.593   9.230  0.7021  1.7741 -2.2109
  950MOL0     H28192   3.376   5.758   9.274 -0.7646 -0.8493  0.5659
  950MOL0     H28193   3.629   5.796   9.269  3.2655  0.9720 -3.7540
  950MOL0     H28194   3.647   5.630   9.315 -0.5800 -0.4608 -0.0122
  950MOL0     H28195   3.626   5.572   9.055 -1.0563  1.6692 -3.3120
  950MOL0     H28196   3.542   5.733   9.048 -1.7384  1.1233  3.7793
  950MOL0     H28197   3.785   5.688   8.962  2.0518 -2.1778  2.1090
  950MOL0     H28198   3.825   5.737   9.121 -1.5882 -1.8244  1.5317
  950MOL0     H28199   3.655   5.911   8.934 -0.3735 -0.3636 -0.1520
  950MOL0     H28200   3.694   5.947   9.109  1.6237  0.4745  0.7720
  950MOL0     H28201   3.809   6.178   9.073 -1.5251 -1.1324 -0.4286
  950MOL0     H28202   4.145   6.261   8.895 -0.1355  4.7792  0.3488
  950MOL0     H28203   4.008   6.336   8.965 -1.9952 -2.0169 -1.9421
  950MOL0     H28204   4.226   6.374   9.094 -0.8686  0.2361  1.5198
  950MOL0     H28205   4.099   6.297   9.189 -0.1335 -1.0921  0.1855
  950MOL0     H28206   4.286   6.113   9.038  1.4077 -0.2909  0.8579
  950MOL0     H28207   4.231   6.104   9.208  2.5606 -0.2639  0.5807
  950MOL0     H28208   4.460   6.102   9.202  2.0700  0.5019 -0.9149
  950MOL0     H28209   4.396   6.247   9.268  2.3500  1.9763 -2.1042
  950MOL0     H28210   4.686   6.297   8.922  1.0713  1.2116  0.2322
  950MOL0     H28211   4.928   6.290   8.956 -2.4914  1.1204 -1.3091
  950MOL0     H28212   5.274   6.320   9.356 -0.7978 -0.7616 -0.0342
  950MOL0     H28213   5.525   6.275   9.391 -2.3232  0.6127  1.0949
  950MOL0     H28214   5.720   6.021   9.104  0.1572 -0.5309 -1.8355
  950MOL0     H28215   5.771   6.181   9.036 -1.1336  1.7442  0.9868
  950MOL0     H28216   5.941   6.129   9.266  0.2672 -0.1015  0.0636
  950MOL0     H28217   5.914   5.973   9.179 -1.9561  0.3561  1.2775
  950MOL0     H28218   6.011   6.040   8.990  1.5541  1.7613 -1.7046
  950MOL0     H28219   5.981   6.207   9.016 -2.3577 -0.6522 -0.3760
  950MOL0     H28220   6.185   6.040   9.182 -2.5387 -0.7804  0.2715
  950MOL0     H28221   6.155   6.207   9.206 -3.0656 -0.4660 -0.0920
  950MOL0     H28222   6.224   6.239   8.968 -0.2562 -1.1754 -2.0061
  950MOL0     H28223   6.264   6.072   8.951 -2.7251  0.9883 -1.0765
  950MOL0     H28224   6.408   6.253   9.146 -1.5531  1.0352 -0.9096
  950MOL0     H28225   6.432   6.080   9.144 -1.7763 -0.8511  1.0582
  950MOL0     H28226   6.475   6.293   8.925  1.9072  2.0449  2.6961
  950MOL0     H28227   6.529   6.123   8.905 -1.2871  0.3945 -1.3283
  950MOL0     H28228   6.722   6.267   8.967  0.0689  2.3178  2.4504
  950MOL0     H28229   6.627   6.361   9.075 -2.0080  0.2329  1.7633
  950MOL0     H28230   5.544   6.117   8.986  1.7780  2.0861  0.4428
  950MOL0     H28231   5.296   6.147   8.961 -1.9443 -1.5258  1.6391
  950MOL0     H28232   4.838   6.230   9.375 -1.5640 -1.2874  0.6052
  950MOL0     H28233   4.602   6.205   9.329  2.0215 -2.4895  0.9865
  950MOL0     H28234   3.374   5.488   9.941 -1.7602  1.0510  0.8167
  950MOL0     H28235   3.268   5.293  10.054  1.1961  1.9610  0.6482
  950MOL0     H28236   2.835   5.071   9.968  0.1485  1.1152  1.3794
  950MOL0     H28237   2.652   4.881   9.993 -1.5615 -1.6067  2.4258
  950MOL0     H28238   2.738   4.589  10.324 -0.9458  1.6751  0.6929
  950MOL0     H28239   2.730   4.502  10.165  0.4591 -0.8568 -0.4847
  950MOL0     H28240   2.507   4.505  10.159 -3.2420  0.0892  1.5326
  950MOL0     H28241   2.490   4.579  10.316 -0.3435  2.1749 -1.6512
  950MOL0     H28242   2.451   4.331  10.337 -0.5145 -0.4568  1.1076
  950MOL0     H28243   2.609   4.371  10.415 -0.0159  2.1430 -0.7898
  950MOL0     H28244   2.729   4.299  10.241  0.1242  0.6540 -0.2472
  950MOL0     H28245   2.614   4.170  10.298  1.4114 -0.3665 -0.5429
  950MOL0     H28246   2.468   4.177   9.922  0.4273  1.9495 -2.3417
  950MOL0     H28247   2.925   4.663  10.238  1.3935 -0.7020 -0.9893
  950MOL0     H28248   3.162   4.702  10.243 -1.5112 -0.0477  0.9555
  950MOL0     H28249   3.227   4.802  10.116 -0.0037 -1.4468 -0.1242
  950MOL0     H28250   3.186   4.880  10.262 -3.4726  2.2896 -0.4650
  951MOL0     O28251   9.121   0.459   4.868  0.0460  0.1774  0.1461
  951MOL0     C28252   9.092   0.344   4.898  0.6248 -0.7448  0.6280
  951MOL0     O28253   9.183   0.253   4.942 -0.1996 -0.2002 -0.0698
  951MOL0     C28254   9.313   0.274   4.921  0.0642  0.5330  0.5266
  951MOL0     C28255   9.380   0.365   5.001 -0.6532 -0.2411  0.7030
  951MOL0     C28256   9.521   0.386   4.968  0.2946  0.2750 -0.1839
  951MOL0     C28257   9.581   0.324   4.859  0.3477  0.1614  0.3129
  951MOL0     O28258   9.715   0.335   4.817  0.4437 -0.0241  0.0639
  951MOL0     C28259   9.787   0.447   4.876  0.2533  0.1565 -0.3289
  951MOL0     C28260   9.913   0.469   4.808 -0.1434 -0.3587  1.4109
  951MOL0     C28261   9.997   0.347   4.782  0.7678  0.1917 -0.2335
  951MOL0     C28262  10.122   0.378   4.701  0.1901 -1.1664  0.4590
  951MOL0     C28263  10.222   0.262   4.682  0.3599  0.8451  0.6757
  951MOL0     C28264  10.357   0.316   4.643 -0.1173 -0.7027 -0.0257
  951MOL0     C28265  10.437   0.319   4.769 -0.6780 -0.3637 -0.2455
  951MOL0     C28266  10.413   0.431   4.882  0.9974  1.0100  0.1956
  951MOL0     N28267  10.511   0.418   4.994  0.3618 -0.6991 -0.6232
  951MOL0     C28268  10.534   0.525   5.078  0.1619 -0.0554 -0.7483
  951MOL0     C28269  10.623   0.474   5.168  0.4714  0.4529  0.4726
  951MOL0     C28270  10.691   0.538   5.281 -0.4043  0.0885  0.7288
  951MOL0     C28271  10.608   0.637   5.352 -0.5001  0.0018  0.0613
  951MOL0     C28272  10.511   0.584   5.472  0.3394  0.1732 -0.1615
  951MOL0     C28273  10.494   0.686   5.587 -0.2169  0.5914 -0.8976
  951MOL0     O28274  10.448   0.813   5.540 -0.2524 -0.9323 -0.3408
  951MOL0     C28275  10.313   0.833   5.517 -0.5979 -0.3893 -1.0322
  951MOL0     C28276  10.280   0.961   5.479 -0.9568  0.0468 -0.5107
  951MOL0     C28277  10.145   0.992   5.474  0.1940  0.0111  0.5104
  951MOL0     C28278  10.041   0.913   5.519 -0.2100 -0.0124 -0.8050
  951MOL0     C28279   9.906   0.962   5.520 -0.5277  0.6620 -0.1898
  951MOL0     O28280   9.883   1.104   5.523  0.8114  0.6733  0.0447
  951MOL0     C28281   9.766   1.142   5.584 -0.0474  0.1588  0.3500
  951MOL0     C28282   9.665   1.211   5.512  0.4521 -0.8404 -0.2362
  951MOL0     C28283   9.544   1.248   5.577  0.3180 -0.1269 -0.6449
  951MOL0     C28284   9.533   1.223   5.715  0.6978 -0.2952  0.9483
  951MOL0     O28285   9.424   1.255   5.788  0.5736 -0.2608 -0.0778
  951MOL0     C28286   9.304   1.307   5.739 -0.7074 -0.1090 -0.7686
  951MOL0     C28287   9.194   1.302   5.840 -0.5579 -0.5031  0.8019
  951MOL0     C28288   9.138   1.166   5.852 -0.1549 -0.2405 -0.5918
  951MOL0     C28289   9.046   1.144   5.973  0.0472 -0.0024  0.1864
  951MOL0     C28290   8.891   1.175   5.962  0.6076 -0.4953  0.2955
  951MOL0     C28291   8.870   1.332   5.978  0.3119  0.0509  0.6607
  951MOL0     C28292   8.727   1.381   5.943 -0.0250  0.6961 -0.1684
  951MOL0     C28293   8.613   1.366   6.053  0.3614  0.3130  0.7301
  951MOL0    Cl28294   8.587   1.206   6.103 -0.3794 -0.2756  0.2941
  951MOL0     C28295   9.634   1.153   5.782  0.8503  0.3351 -0.6119
  951MOL0     C28296   9.753   1.118   5.717  0.3162 -0.6368 -0.1391
  951MOL0     O28297   9.825   0.870   5.531 -0.2518 -0.2702  0.3738
  951MOL0     C28298  10.073   0.782   5.556 -0.3435  0.4461 -0.0123
  951MOL0     C28299  10.211   0.743   5.550 -0.3760 -0.0615 -0.6237
  951MOL0     N28300  10.640   0.340   5.149  0.0955  0.3059 -0.0279
  951MOL0     N28301  10.577   0.309   5.043  0.1892  0.0568  0.0280
  951MOL0     C28302   9.509   0.243   4.777 -0.1779 -0.7298  0.3763
  951MOL0     C28303   9.372   0.217   4.805 -0.8469  0.1898  0.1917
  951MOL0     C28304   8.944   0.305   4.904 -0.0696  0.4798 -0.3827
  951MOL0     C28305   8.910   0.186   4.973 -0.8641 -0.4854 -1.1735
  951MOL0     C28306   8.778   0.150   4.982  0.3541 -0.2905 -0.0368
  951MOL0     C28307   8.679   0.224   4.916  0.1164  0.8031  0.3042
  951MOL0     O28308   8.550   0.178   4.928 -0.1920 -0.3888 -0.2356
  951MOL0     C28309   8.438   0.264   4.879  0.2037  0.3492  0.4538
  951MOL0     C28310   8.303   0.184   4.902 -0.0773 -0.7356  0.3327
  951MOL0     C28311   8.186   0.256   4.828  0.1939  0.3958  0.3652
  951MOL0     C28312   8.065   0.161   4.846 -0.1300  0.7201  0.0400
  951MOL0     C28313   8.023   0.163   4.990 -0.2938  1.4079 -0.6203
  951MOL0     C28314   7.974   0.172   5.104  0.5652  0.4131  0.3350
  951MOL0     C28315   8.703   0.345   4.852 -1.0846  0.6739  0.1583
  951MOL0     C28316   8.844   0.387   4.843  0.1075  0.5808  0.0828
  951MOL0     C28317   8.880   0.513   4.764  0.0902 -0.1206  0.5173
  951MOL0     H28318   9.342   0.420   5.086 -0.4115  3.2446 -1.2816
  951MOL0     H28319   9.574   0.455   5.032  0.6189 -0.2188  0.0927
  951MOL0     H28320   9.726   0.538   4.872 -2.5626 -1.5971  0.2004
  951MOL0     H28321   9.801   0.429   4.983 -0.3371 -0.4075 -0.3428
  951MOL0     H28322   9.968   0.541   4.868 -0.0495  1.6709 -0.9463
  951MOL0     H28323   9.912   0.518   4.710  1.7912  0.1336  1.6014
  951MOL0     H28324   9.935   0.278   4.725  0.6711 -0.6553  0.8517
  951MOL0     H28325  10.032   0.298   4.874 -1.1164 -1.3932 -0.3027
  951MOL0     H28326  10.095   0.400   4.597  2.0801  1.7806  0.4551
  951MOL0     H28327  10.159   0.477   4.732 -2.3027 -0.0459  0.1702
  951MOL0     H28328  10.225   0.204   4.775 -0.2227 -0.7295 -0.2447
  951MOL0     H28329  10.178   0.200   4.604  0.4855  2.7004 -0.9582
  951MOL0     H28330  10.414   0.255   4.573 -1.3460 -0.6056 -1.1461
  951MOL0     H28331  10.354   0.410   4.587  0.3281 -0.0423  1.0101
  951MOL0     H28332  10.543   0.326   4.742 -0.0239  1.0433  2.3408
  951MOL0     H28333  10.428   0.216   4.805 -3.1258  0.1475  0.7861
  951MOL0     H28334  10.418   0.535   4.847 -0.5497  0.8915 -0.4435
  951MOL0     H28335  10.312   0.408   4.917  0.7924 -0.9317 -1.4976
  951MOL0     H28336  10.508   0.629   5.063 -2.0944 -0.6131 -1.1025
  951MOL0     H28337  10.722   0.467   5.358 -1.7474  0.1577  1.3699
  951MOL0     H28338  10.782   0.587   5.246 -0.0615 -0.4910  0.7951
  951MOL0     H28339  10.685   0.697   5.401  0.8567 -1.1138 -0.6129
  951MOL0     H28340  10.558   0.703   5.281 -1.1070 -0.1957  0.2944
  951MOL0     H28341  10.545   0.485   5.504  0.9657  0.7336  0.9717
  951MOL0     H28342  10.410   0.572   5.432 -1.0835 -0.1572  3.1386
  951MOL0     H28343  10.589   0.697   5.640 -1.6188  1.5434  1.5941
  951MOL0     H28344  10.429   0.643   5.664 -0.9018 -0.7466 -2.1885
  951MOL0     H28345  10.360   1.026   5.448  1.1087 -2.2553 -0.2980
  951MOL0     H28346  10.116   1.090   5.438  2.5978  0.7010  0.2657
  951MOL0     H28347   9.672   1.232   5.406  0.3488  5.3153  0.6388
  951MOL0     H28348   9.468   1.291   5.513  0.6595 -2.6768 -2.9667
  951MOL0     H28349   9.313   1.413   5.713 -2.0741 -0.2473 -1.9111
  951MOL0     H28350   9.276   1.237   5.660  0.7720 -1.7901  0.1048
  951MOL0     H28351   9.241   1.337   5.933  1.3333  0.6305 -0.5259
  951MOL0     H28352   9.121   1.375   5.802  1.9229  1.5580 -0.3144
  951MOL0     H28353   9.090   1.129   5.761  3.0459 -2.4842 -1.5497
  951MOL0     H28354   9.220   1.094   5.854 -1.6471 -2.1904 -3.3847
  951MOL0     H28355   9.091   1.199   6.057 -1.3529 -1.3150  1.8739
  951MOL0     H28356   9.058   1.041   6.007  2.4030 -1.2044 -3.6307
  951MOL0     H28357   8.843   1.114   6.039 -3.1548  0.8600 -0.7531
  951MOL0     H28358   8.850   1.141   5.867  0.0579 -3.1521  1.4088
  951MOL0     H28359   8.891   1.353   6.083  1.3124 -1.1496  0.7236
  951MOL0     H28360   8.941   1.386   5.915 -0.2122  1.7976  1.5010
  951MOL0     H28361   8.696   1.342   5.846  0.8477  0.3852 -0.3311
  951MOL0     H28362   8.732   1.488   5.919 -0.5800  1.5304  2.9481
  951MOL0     H28363   8.635   1.418   6.146  2.7731 -0.9292  0.9160
  951MOL0     H28364   8.516   1.397   6.012  0.7593 -0.3150 -0.7620
  951MOL0     H28365   9.605   1.129   5.884 -0.7163  0.7651 -0.9277
  951MOL0     H28366   9.831   1.068   5.773  1.1893 -0.8598 -1.5185
  951MOL0     H28367  10.012   0.705   5.603 -0.2948 -0.9746 -2.1237
  951MOL0     H28368  10.246   0.646   5.586 -0.1934  0.5277  0.8423
  951MOL0     H28369   9.565   0.200   4.694  0.2988  0.7133 -0.0835
  951MOL0     H28370   9.328   0.143   4.739  2.4790 -3.5792  1.8435
  951MOL0     H28371   8.986   0.128   5.024 -0.3931  0.5445 -0.6892
  951MOL0     H28372   8.742   0.053   5.014  0.2904 -1.1938 -2.5567
  951MOL0     H28373   8.443   0.286   4.772 -3.6994  1.6360  0.4045
  951MOL0     H28374   8.420   0.363   4.922 -0.8676 -0.4405  1.9269
  951MOL0     H28375   8.274   0.167   5.006 -0.2546 -1.3067  0.1924
  951MOL0     H28376   8.320   0.086   4.857  1.5658 -0.7917  1.0303
  951MOL0     H28377   8.197   0.262   4.720 -0.2810  1.5156  0.3570
  951MOL0     H28378   8.167   0.355   4.872 -1.3184  0.2502  0.0877
  951MOL0     H28379   7.981   0.198   4.786  1.3622  0.3359 -2.4548
  951MOL0     H28380   8.078   0.056   4.818  0.2887  0.0801  2.4719
  951MOL0     H28381   7.938   0.168   5.204 -4.2359  1.2403 -1.0818
  951MOL0     H28382   8.624   0.410   4.815 -1.5522  0.2678  0.4369
  951MOL0     H28383   8.788   0.562   4.730 -0.4909 -0.3273  1.7658
  951MOL0     H28384   8.928   0.585   4.831  2.8863 -3.0769  1.9339
  951MOL0     H28385   8.944   0.494   4.676  1.9661 -0.8003  1.9535
  952MOL0     O28386  10.311   1.785  11.199 -0.2960  0.4560 -0.2070
  952MOL0     C28387  10.257   1.825  11.094 -0.3073  0.0334 -0.4145
  952MOL0     O28388  10.321   1.927  11.020 -0.1394  0.5282  0.2469
  952MOL0     C28389  10.451   1.969  11.031  0.4649  0.7435  0.1093
  952MOL0     C28390  10.555   1.915  11.107 -0.2669  0.4045 -0.5140
  952MOL0     C28391  10.684   1.969  11.106  0.2843 -0.2572 -0.1644
  952MOL0     C28392  10.709   2.101  11.052 -0.0060 -1.0769 -0.0917
  952MOL0     O28393  10.823   2.176  11.063  0.0845  0.8205 -0.7949
  952MOL0     C28394  10.940   2.110  11.114 -0.2730 -0.3328 -0.5333
  952MOL0     C28395  11.061   2.216  11.122 -0.4869 -0.7182 -0.2070
  952MOL0     C28396  11.183   2.148  11.187  0.2596 -0.0515 -0.7869
  952MOL0     C28397  11.306   2.240  11.193  0.4041  0.2938  0.1944
  952MOL0     C28398  11.431   2.187  11.237  0.0015  0.3012 -0.7412
  952MOL0     C28399  11.533   2.302  11.226  0.3512 -0.1296  0.3035
  952MOL0     C28400  11.677   2.254  11.259 -0.1947 -0.0629 -0.4075
  952MOL0     C28401  11.750   2.379  11.289 -0.6711  0.5735  0.0391
  952MOL0     N28402  11.890   2.361  11.307 -0.5368 -0.8125  0.0234
  952MOL0     C28403  11.989   2.422  11.233  0.1748 -0.1392 -0.4194
  952MOL0     C28404  12.107   2.375  11.283 -0.4369 -0.2000  0.1901
  952MOL0     C28405  12.236   2.402  11.217 -0.3732 -0.5168  1.1321
  952MOL0     C28406  12.349   2.364  11.314  0.1575 -0.4296 -0.3426
  952MOL0     C28407  12.474   2.451  11.285 -0.2844  0.0273  0.2234
  952MOL0     C28408  12.593   2.408  11.372  0.0767 -0.2736  0.2294
  952MOL0     O28409  12.708   2.481  11.345 -0.3691  0.4743  0.0170
  952MOL0     C28410  12.824   2.471  11.420  0.2010  0.1502 -0.2256
  952MOL0     C28411  12.937   2.544  11.387  0.9005  0.0218  0.3091
  952MOL0     C28412  13.058   2.522  11.446  0.1371 -0.1913 -0.2221
  952MOL0     C28413  13.075   2.427  11.551  0.7414 -0.3490  0.1072
  952MOL0     C28414  13.206   2.404  11.616 -0.5119 -0.2683  0.5849
  952MOL0     O28415  13.310   2.488  11.569 -0.4269  0.5801 -0.5074
  952MOL0     C28416  13.442   2.463  11.578  0.1497 -0.6116 -0.4753
  952MOL0     C28417  13.496   2.336  11.615 -0.2745  0.6450 -0.1747
  952MOL0     C28418  13.636   2.309  11.631 -0.7573 -0.0577 -0.6396
  952MOL0     C28419  13.719   2.410  11.592 -0.2903  1.0289  0.1452
  952MOL0     O28420  13.861   2.401  11.603  0.1150  0.4130  0.1287
  952MOL0     C28421  13.923   2.282  11.648 -1.6102 -0.2942  1.0825
  952MOL0     C28422  13.968   2.190  11.531  0.0359  0.2223 -0.1651
  952MOL0     C28423  14.076   2.101  11.579 -0.2929 -0.0021  0.0998
  952MOL0     C28424  14.214   2.152  11.572 -0.1495  0.1317  0.7108
  952MOL0     C28425  14.314   2.048  11.638 -0.2355 -0.1518  0.0227
  952MOL0     C28426  14.467   2.079  11.614 -0.0613  0.8059 -0.4753
  952MOL0     C28427  14.557   1.953  11.647 -0.0813 -1.0489  0.2295
  952MOL0     C28428  14.523   1.866  11.766  0.0161 -0.7510  0.1035
  952MOL0    Cl28429  14.542   1.952  11.916 -0.2866  0.1170 -0.0892
  952MOL0     C28430  13.670   2.531  11.541  1.1713  0.2099 -0.4370
  952MOL0     C28431  13.532   2.562  11.535  0.1328 -0.3144 -0.3897
  952MOL0     O28432  13.220   2.319  11.701 -0.0070 -0.3297  0.4910
  952MOL0     C28433  12.958   2.362  11.599  0.0148 -0.3434 -0.5370
  952MOL0     C28434  12.836   2.380  11.529 -0.2028 -0.3611  0.3402
  952MOL0     N28435  12.076   2.307  11.397 -0.2603  0.0895 -0.3909
  952MOL0     N28436  11.947   2.298  11.413 -1.7670 -0.2110  0.4916
  952MOL0     C28437  10.603   2.161  10.978  0.2828  0.6388  0.6859
  952MOL0     C28438  10.482   2.091  10.968 -1.4282 -0.3526 -0.1091
  952MOL0     C28439  10.118   1.780  11.058  0.5295  0.0430  0.1844
  952MOL0     C28440  10.054   1.847  10.952 -0.2691 -0.2130  0.5458
  952MOL0     C28441   9.913   1.832  10.933 -0.1930 -0.4018  0.0622
  952MOL0     C28442   9.839   1.750  11.014 -0.3010  1.2962  0.2138
  952MOL0     O28443   9.705   1.735  11.018 -0.2730 -0.3984  0.8543
  952MOL0     C28444   9.647   1.732  10.887  0.2423  0.2542 -0.5014
  952MOL0     C28445   9.498   1.679  10.901  0.5089  0.2334 -0.3954
  952MOL0     C28446   9.484   1.517  10.926 -1.0003 -0.9757  0.3573
  952MOL0     C28447   9.543   1.433  10.811 -1.1418  0.2348  0.7098
  952MOL0     C28448   9.690   1.419  10.829  0.2623  0.1550  0.5378
  952MOL0     C28449   9.812   1.404  10.839  0.8839 -0.5455 -0.7580
  952MOL0     C28450   9.907   1.672  11.106  0.4033  0.7196  0.0994
  952MOL0     C28451  10.044   1.686  11.133  0.7461  0.0846  0.1080
  952MOL0     C28452  10.090   1.608  11.253 -1.4350 -0.3999  0.7284
  952MOL0     H28453  10.544   1.829  11.172  1.0787  0.6919  0.1327
  952MOL0     H28454  10.760   1.912  11.158 -1.4065 -3.0893 -0.5654
  952MOL0     H28455  10.911   2.080  11.215 -1.2507  1.0626 -0.3724
  952MOL0     H28456  10.961   2.023  11.050  1.3441  0.7796 -1.5943
  952MOL0     H28457  11.034   2.299  11.188  1.9466  0.3567 -0.4705
  952MOL0     H28458  11.096   2.261  11.028  2.6101 -1.4672  0.4626
  952MOL0     H28459  11.210   2.057  11.133 -2.8007 -0.0138 -2.6707
  952MOL0     H28460  11.155   2.111  11.286  1.9560  0.5425 -0.0612
  952MOL0     H28461  11.331   2.280  11.094  1.5320 -1.3630 -0.2275
  952MOL0     H28462  11.278   2.329  11.250  0.9615  0.0083  0.9207
  952MOL0     H28463  11.425   2.157  11.342 -1.1982  0.2430 -0.8189
  952MOL0     H28464  11.461   2.103  11.173  1.7063  0.0589  0.3350
  952MOL0     H28465  11.535   2.339  11.123  0.3480  3.9047  1.5908
  952MOL0     H28466  11.499   2.380  11.294  1.9009  0.3258  0.5909
  952MOL0     H28467  11.722   2.192  11.182  1.7499 -0.9639  1.3689
  952MOL0     H28468  11.669   2.199  11.352 -1.6664  2.0660  0.8318
  952MOL0     H28469  11.720   2.447  11.209 -1.2267  0.6734  0.3235
  952MOL0     H28470  11.716   2.415  11.386 -0.7233  1.2621 -0.2290
  952MOL0     H28471  11.972   2.477  11.141  1.4316  0.5583 -0.2518
  952MOL0     H28472  12.256   2.354  11.121  0.0178  1.0740  0.3744
  952MOL0     H28473  12.250   2.506  11.185  1.8721 -1.6760 -2.1788
  952MOL0     H28474  12.312   2.388  11.414 -0.9102  2.4035 -1.2933
  952MOL0     H28475  12.360   2.257  11.299  2.4126 -0.0855 -1.6497
  952MOL0     H28476  12.449   2.552  11.318 -0.8625 -0.1433  0.3151
  952MOL0     H28477  12.494   2.461  11.178 -1.5842 -0.8610 -0.1298
  952MOL0     H28478  12.603   2.299  11.368  0.4485 -0.2008 -1.3936
  952MOL0     H28479  12.566   2.417  11.478 -2.7583 -1.6965 -0.2609
  952MOL0     H28480  12.927   2.607  11.299 -3.4811 -0.1250  0.4755
  952MOL0     H28481  13.140   2.581  11.406  0.3346 -1.3585 -1.6682
  952MOL0     H28482  13.435   2.248  11.632  0.6774  0.2666  1.4173
  952MOL0     H28483  13.668   2.209  11.657 -0.3631 -0.4620 -2.5790
  952MOL0     H28484  14.012   2.318  11.700  0.2611  2.7564 -3.5841
  952MOL0     H28485  13.859   2.233  11.722 -0.0928 -2.8473  0.8219
  952MOL0     H28486  13.881   2.138  11.491 -0.0162  0.3718 -0.2490
  952MOL0     H28487  14.020   2.252  11.456 -0.2739  2.3025  1.2488
  952MOL0     H28488  14.052   2.075  11.683  1.3140  3.0541  1.3594
  952MOL0     H28489  14.081   2.008  11.523  0.7929 -1.8170  2.9820
  952MOL0     H28490  14.224   2.240  11.637  0.9750  2.4434 -2.3730
  952MOL0     H28491  14.247   2.172  11.470 -0.1613  2.6537  1.1510
  952MOL0     H28492  14.286   1.947  11.607 -0.6014  0.4205 -1.6142
  952MOL0     H28493  14.292   2.052  11.744  0.4426  0.8018  0.1537
  952MOL0     H28494  14.483   2.108  11.510 -0.6755  2.6810 -0.0970
  952MOL0     H28495  14.496   2.159  11.683  0.1686 -0.4103  0.8708
  952MOL0     H28496  14.660   1.988  11.634 -0.8886  0.8225 -1.7553
  952MOL0     H28497  14.543   1.883  11.564  0.3153 -0.6922 -0.1397
  952MOL0     H28498  14.417   1.841  11.757 -0.2154  0.8906 -3.3911
  952MOL0     H28499  14.590   1.780  11.775 -0.0992 -0.8563 -0.0391
  952MOL0     H28500  13.728   2.618  11.514 -2.4305  2.0926 -2.8117
  952MOL0     H28501  13.489   2.651  11.491  0.4829 -0.1399 -0.3825
  952MOL0     H28502  12.955   2.299  11.687 -3.1575  0.9976  0.4600
  952MOL0     H28503  12.753   2.322  11.566 -0.9554 -1.4962 -2.8607
  952MOL0     H28504  10.635   2.238  10.910 -1.7720 -0.4877 -1.7272
  952MOL0     H28505  10.416   2.142  10.898  0.8105  0.5691 -1.6569
  952MOL0     H28506  10.102   1.929  10.899 -0.7311  0.2530  0.8266
  952MOL0     H28507   9.864   1.890  10.855  1.0755  0.6028 -0.0209
  952MOL0     H28508   9.707   1.673  10.817  0.3207 -0.4177  0.1222
  952MOL0     H28509   9.648   1.832  10.843 -0.7559  0.8018  0.6687
  952MOL0     H28510   9.435   1.696  10.813  0.4729 -1.3689 -0.7098
  952MOL0     H28511   9.446   1.729  10.983 -2.4922 -2.8201 -0.1862
  952MOL0     H28512   9.377   1.495  10.935 -1.8515  3.0879  2.6010
  952MOL0     H28513   9.530   1.503  11.025  1.2457 -1.3019 -0.6678
  952MOL0     H28514   9.489   1.338  10.810 -1.7030  0.5208  2.0624
  952MOL0     H28515   9.536   1.488  10.717  0.9162  3.9856  2.5354
  952MOL0     H28516   9.918   1.397  10.849  1.6587  4.5085 -2.7513
  952MOL0     H28517   9.843   1.610  11.167 -0.4136  1.7186  0.2883
  952MOL0     H28518  10.050   1.646  11.347 -0.1745 -0.6403  1.3791
  952MOL0     H28519  10.041   1.511  11.244 -1.7488 -0.1139 -1.2269
  952MOL0     H28520  10.198   1.591  11.263 -1.2078 -0.5802 -1.4155
  953MOL0     O28521  10.548   5.463   4.462  0.7291  0.1701 -0.0600
  953MOL0     C28522  10.449   5.470   4.397 -0.4796  0.3180 -0.4481
  953MOL0     O28523  10.440   5.491   4.273 -1.0008 -0.3487  0.0857
  953MOL0     C28524  10.557   5.465   4.206  0.8209  0.1501 -0.7117
  953MOL0     C28525  10.639   5.350   4.212  0.4358 -0.5637 -0.7790
  953MOL0     C28526  10.745   5.336   4.124  0.1100 -0.2857  0.6179
  953MOL0     C28527  10.775   5.433   4.030  0.6727 -0.4246  0.6679
  953MOL0     O28528  10.887   5.401   3.943 -0.4906  0.4662  0.3774
  953MOL0     C28529  10.957   5.518   3.895  0.5258  1.2406  0.0600
  953MOL0     C28530  11.058   5.465   3.789  0.0713  0.0372  0.8256
  953MOL0     C28531  11.183   5.403   3.855  0.8514  0.3070  0.1084
  953MOL0     C28532  11.280   5.348   3.752  0.2438  0.3412  0.1811
  953MOL0     C28533  11.389   5.266   3.819  0.0928  0.0915 -0.0227
  953MOL0     C28534  11.503   5.226   3.723 -0.7205 -0.2290  0.8253
  953MOL0     C28535  11.623   5.165   3.787  0.1153 -1.1891 -0.4496
  953MOL0     C28536  11.723   5.148   3.686  0.3313 -0.4822  0.0031
  953MOL0     N28537  11.841   5.094   3.756  0.4540 -0.1306  0.0968
  953MOL0     C28538  11.904   4.975   3.740  0.0645  0.2689  0.2200
  953MOL0     C28539  12.031   4.986   3.799  0.6226 -0.0127  0.0176
  953MOL0     C28540  12.124   4.865   3.799  0.6562 -0.1459 -0.1775
  953MOL0     C28541  12.274   4.908   3.810  0.0415 -0.1252  0.2704
  953MOL0     C28542  12.358   4.778   3.848 -0.2960 -0.1297  0.0671
  953MOL0     C28543  12.502   4.820   3.889  0.1217  0.5600  0.0438
  953MOL0     O28544  12.566   4.894   3.781 -0.0965  0.2065  0.1163
  953MOL0     C28545  12.706   4.910   3.782  0.5364 -0.6506  0.9121
  953MOL0     C28546  12.792   4.860   3.881  0.3958  0.4613  0.2550
  953MOL0     C28547  12.930   4.894   3.884 -0.8540  0.1040  0.9690
  953MOL0     C28548  12.975   4.977   3.778 -0.0865 -0.3823 -0.0962
  953MOL0     C28549  13.117   5.034   3.789 -0.1140 -0.0675 -0.6915
  953MOL0     O28550  13.174   5.015   3.908 -1.0643  0.6218  0.4616
  953MOL0     C28551  13.312   5.027   3.902 -0.2988 -0.0727 -0.4305
  953MOL0     C28552  13.390   4.935   3.829 -0.0946 -0.5930  0.0103
  953MOL0     C28553  13.524   4.949   3.820  0.0425 -1.0821  0.3255
  953MOL0     C28554  13.588   5.060   3.880  0.1633 -0.9226 -0.0981
  953MOL0     O28555  13.720   5.075   3.844  0.4222  0.1286  0.0497
  953MOL0     C28556  13.799   5.184   3.887 -0.8625  0.0086 -0.6396
  953MOL0     C28557  13.940   5.194   3.821  0.2257  0.6099  0.7244
  953MOL0     C28558  14.031   5.076   3.864 -0.6445  0.8192 -0.3218
  953MOL0     C28559  14.168   5.098   3.806 -0.9457  0.4679 -0.0619
  953MOL0     C28560  14.286   4.994   3.854  0.3993 -0.9067  0.1856
  953MOL0     C28561  14.315   5.000   4.006  0.1377  0.1566 -0.1524
  953MOL0     C28562  14.459   4.989   4.051 -0.2751  0.4385  0.6840
  953MOL0     C28563  14.509   4.851   4.028  0.1074  0.0197 -0.5192
  953MOL0    Cl28564  14.458   4.731   4.153 -0.0921 -0.4376  0.3427
  953MOL0     C28565  13.516   5.148   3.955 -0.3654 -0.0261  0.0583
  953MOL0     C28566  13.379   5.130   3.974 -0.5523  0.0721  0.1370
  953MOL0     O28567  13.165   5.096   3.696  0.2330  0.0894  0.1192
  953MOL0     C28568  12.887   5.026   3.681  0.1966 -1.3886  0.4625
  953MOL0     C28569  12.752   4.987   3.684 -0.4726  0.0133  0.1922
  953MOL0     N28570  12.042   5.114   3.852 -0.9467 -0.1670 -0.1298
  953MOL0     N28571  11.932   5.178   3.814  0.5900 -0.7436  0.0309
  953MOL0     C28572  10.689   5.540   4.023  0.1790 -0.7951  0.0623
  953MOL0     C28573  10.585   5.552   4.109 -0.5240 -0.6794 -0.5259
  953MOL0     C28574  10.313   5.457   4.458  0.3342 -0.0550 -0.9320
  953MOL0     C28575  10.208   5.389   4.389 -0.1732 -0.1976  0.5252
  953MOL0     C28576  10.084   5.357   4.452  0.1721 -0.1593  0.1382
  953MOL0     C28577  10.071   5.389   4.582  0.4991  0.5229 -0.7488
  953MOL0     O28578   9.951   5.353   4.627  0.1862  0.3365  0.3222
  953MOL0     C28579   9.892   5.418   4.739  0.6601  0.2056  0.9174
  953MOL0     C28580   9.746   5.404   4.709 -0.0760 -0.2004  0.3756
  953MOL0     C28581   9.658   5.451   4.834  0.9358  0.1026 -0.5189
  953MOL0     C28582   9.672   5.363   4.964 -0.2377 -0.3515  0.5898
  953MOL0     C28583   9.588   5.414   5.074 -0.3212  0.9366 -0.3583
  953MOL0     C28584   9.516   5.449   5.169 -0.2254  0.2951 -0.1777
  953MOL0     C28585  10.160   5.472   4.646 -0.9064  0.7695  0.0219
  953MOL0     C28586  10.286   5.505   4.584  0.2383 -0.1542 -0.3517
  953MOL0     C28587  10.382   5.582   4.671 -0.3338  0.3766  0.1991
  953MOL0     H28588  10.601   5.273   4.278 -1.7190 -0.9625 -2.3371
  953MOL0     H28589  10.798   5.243   4.140 -3.1352 -2.0635  1.8114
  953MOL0     H28590  10.888   5.576   3.833 -3.8112 -3.1299  0.1843
  953MOL0     H28591  11.011   5.574   3.972  2.1071  0.7953 -0.6741
  953MOL0     H28592  11.076   5.540   3.712 -2.7714 -0.2742 -0.2734
  953MOL0     H28593  11.004   5.385   3.737  0.9125 -0.5848  0.9023
  953MOL0     H28594  11.147   5.322   3.919 -0.4590 -0.6996 -1.8121
  953MOL0     H28595  11.230   5.482   3.915  0.0444  0.5256  0.4679
  953MOL0     H28596  11.231   5.273   3.689  1.8372 -1.3235  0.8138
  953MOL0     H28597  11.323   5.435   3.702 -2.9196  1.4458 -0.8713
  953MOL0     H28598  11.432   5.327   3.899 -2.5675  1.4562  0.4895
  953MOL0     H28599  11.338   5.175   3.853 -0.9347  0.1580 -1.3058
  953MOL0     H28600  11.465   5.158   3.647  1.2521 -0.9539  0.4346
  953MOL0     H28601  11.527   5.321   3.675 -0.2974 -0.5059  0.4825
  953MOL0     H28602  11.600   5.070   3.837  0.5811 -1.9029 -1.5436
  953MOL0     H28603  11.657   5.231   3.867 -0.1012 -1.4594 -0.1320
  953MOL0     H28604  11.699   5.095   3.594 -1.5755  0.1598  0.0986
  953MOL0     H28605  11.754   5.246   3.648 -1.4359 -0.6944 -2.1882
  953MOL0     H28606  11.851   4.892   3.693 -1.3730  2.2730 -1.9504
  953MOL0     H28607  12.094   4.793   3.876 -0.4390  1.5951  1.1191
  953MOL0     H28608  12.116   4.810   3.705 -0.7570 -0.1559 -0.0755
  953MOL0     H28609  12.303   4.954   3.715 -3.0841 -0.6761 -1.0990
  953MOL0     H28610  12.279   4.984   3.888  1.8279  1.0355 -0.9041
  953MOL0     H28611  12.371   4.716   3.759 -1.2186 -0.5520  0.2145
  953MOL0     H28612  12.318   4.706   3.919 -1.6944  0.1707 -0.3937
  953MOL0     H28613  12.565   4.735   3.920 -2.3247 -0.2947  3.3121
  953MOL0     H28614  12.494   4.894   3.969 -0.2050 -1.0845  1.5985
  953MOL0     H28615  12.756   4.793   3.958 -2.8831  1.6391 -0.1135
  953MOL0     H28616  12.995   4.867   3.966  1.0301  0.3808 -0.3720
  953MOL0     H28617  13.333   4.859   3.777 -0.7069 -0.1395  0.0064
  953MOL0     H28618  13.579   4.877   3.760 -1.1653 -1.3909 -0.4412
  953MOL0     H28619  13.751   5.282   3.875 -0.3802  0.3464  0.1500
  953MOL0     H28620  13.818   5.174   3.994  0.7383 -0.2007 -0.9092
  953MOL0     H28621  13.921   5.199   3.713 -3.3518  0.8830  1.2647
  953MOL0     H28622  13.984   5.290   3.849 -2.7345  1.7856  1.6140
  953MOL0     H28623  14.044   5.078   3.973 -0.4589 -0.2883 -0.3099
  953MOL0     H28624  13.987   4.981   3.832 -0.3205  0.7423 -0.5423
  953MOL0     H28625  14.197   5.195   3.847 -3.2514 -0.1185  3.4192
  953MOL0     H28626  14.166   5.099   3.697 -0.9444  2.2939 -0.0814
  953MOL0     H28627  14.377   5.024   3.801  0.8070  0.9771  1.8507
  953MOL0     H28628  14.265   4.891   3.823 -0.5295 -0.2708 -1.4551
  953MOL0     H28629  14.275   5.095   4.043 -0.4117 -0.4402  0.8195
  953MOL0     H28630  14.257   4.921   4.054 -0.0964  1.4254  1.7667
  953MOL0     H28631  14.464   5.020   4.156 -0.7117 -3.1146  1.9246
  953MOL0     H28632  14.517   5.058   3.990 -1.2471 -1.0019 -2.0571
  953MOL0     H28633  14.475   4.802   3.936 -2.3529  0.2350  0.1929
  953MOL0     H28634  14.618   4.849   4.023  0.1598 -0.1267  0.4377
  953MOL0     H28635  13.553   5.231   4.013 -2.4012  2.2586 -1.6808
  953MOL0     H28636  13.326   5.202   4.037 -2.3350 -1.4461  0.4694
  953MOL0     H28637  12.927   5.101   3.614 -0.3583 -1.8946 -0.4545
  953MOL0     H28638  12.681   5.031   3.615 -3.9144 -1.2856  2.5926
  953MOL0     H28639  10.694   5.618   3.947 -0.5756 -3.0404 -2.4219
  953MOL0     H28640  10.516   5.634   4.095  2.1429  1.7455 -0.3335
  953MOL0     H28641  10.232   5.348   4.292  2.6938  1.6293  0.3527
  953MOL0     H28642  10.003   5.298   4.409  1.3358 -3.6872  2.2927
  953MOL0     H28643   9.913   5.525   4.745  1.3354  0.2151 -0.8889
  953MOL0     H28644   9.925   5.363   4.827  0.6513 -3.7494 -1.3045
  953MOL0     H28645   9.720   5.298   4.696  0.8842 -0.6029  1.5808
  953MOL0     H28646   9.714   5.451   4.616 -2.3357  1.2607  1.7824
  953MOL0     H28647   9.553   5.454   4.806  0.8337  0.9518 -0.0731
  953MOL0     H28648   9.683   5.555   4.859 -0.6569 -0.0362  1.9544
  953MOL0     H28649   9.653   5.256   4.951  0.3401 -0.5790  1.4926
  953MOL0     H28650   9.778   5.375   4.989  0.0644  2.5057 -1.6027
  953MOL0     H28651   9.455   5.485   5.250 -2.4329 -0.6467 -1.3634
  953MOL0     H28652  10.144   5.519   4.743  1.3549  1.2442  0.2219
  953MOL0     H28653  10.336   5.647   4.746 -0.8664 -0.8079  0.9423
  953MOL0     H28654  10.453   5.514   4.719  1.0595  2.4219  1.1559
  953MOL0     H28655  10.444   5.646   4.608 -3.0808  1.7698 -1.2966
  954MOL0     O28656   0.430   7.485  11.160 -0.3050 -0.7020 -0.0196
  954MOL0     C28657   0.382   7.595  11.198 -0.1678  0.0905  0.3638
  954MOL0     O28658   0.453   7.684  11.270  0.2935 -0.3408 -0.4846
  954MOL0     C28659   0.584   7.676  11.298  0.4576 -1.2508 -0.1142
  954MOL0     C28660   0.680   7.641  11.207  0.0017 -0.1300 -0.4572
  954MOL0     C28661   0.817   7.675  11.231  0.5652 -0.2330  0.1728
  954MOL0     C28662   0.852   7.752  11.347  0.7327 -0.5982 -0.8062
  954MOL0     O28663   0.974   7.797  11.382  0.1918 -0.1221 -0.4714
  954MOL0     C28664   1.100   7.758  11.318 -0.4528  0.1285  0.9462
  954MOL0     C28665   1.185   7.671  11.413 -0.2399 -0.3222  0.3447
  954MOL0     C28666   1.324   7.660  11.352 -0.5322  0.2234 -0.3809
  954MOL0     C28667   1.422   7.598  11.450  0.0148 -0.0380  0.2903
  954MOL0     C28668   1.533   7.529  11.368 -0.4810  0.1153 -0.1337
  954MOL0     C28669   1.648   7.487  11.459  0.4232  0.2961 -0.4709
  954MOL0     C28670   1.736   7.601  11.498  0.0439  0.1405 -0.1160
  954MOL0     C28671   1.817   7.650  11.378  0.9556  0.9745  0.0417
  954MOL0     N28672   1.927   7.737  11.422 -0.2948  0.5906 -0.0139
  954MOL0     C28673   1.932   7.846  11.503 -0.6094 -0.2419 -0.7529
  954MOL0     C28674   2.061   7.892  11.498 -0.1285  0.1602 -0.1897
  954MOL0     C28675   2.112   8.007  11.575  0.1375  0.2819  0.7070
  954MOL0     C28676   2.243   8.074  11.514  0.1897  0.0750 -0.1479
  954MOL0     C28677   2.290   8.188  11.603 -0.3068  0.5295 -0.0546
  954MOL0     C28678   2.429   8.229  11.573  0.8730 -0.3493 -0.5493
  954MOL0     O28679   2.477   8.318  11.680  0.0872  0.1432 -0.0699
  954MOL0     C28680   2.611   8.353  11.673  0.3853  0.0609 -0.6338
  954MOL0     C28681   2.712   8.257  11.699  0.3897 -0.0877  0.9577
  954MOL0     C28682   2.848   8.296  11.694  0.0980  0.3245  1.2928
  954MOL0     C28683   2.879   8.433  11.662  0.9337  0.6603  0.2493
  954MOL0     C28684   3.017   8.481  11.640 -0.5120  0.3236  0.1996
  954MOL0     O28685   3.047   8.611  11.609  0.3954 -0.3177 -0.0607
  954MOL0     C28686   3.166   8.674  11.612  0.4672 -0.0560 -1.2384
  954MOL0     C28687   3.185   8.768  11.715 -0.1185 -0.1821 -0.5224
  954MOL0     C28688   3.299   8.850  11.706 -0.6466  0.0792 -0.0841
  954MOL0     C28689   3.415   8.816  11.624 -0.1076 -0.0755  0.1731
  954MOL0     O28690   3.535   8.883  11.619 -0.8053  0.2430  0.4769
  954MOL0     C28691   3.581   8.952  11.738  0.3981  0.3732  0.7212
  954MOL0     C28692   3.741   8.948  11.749  0.6169  0.2695  0.8391
  954MOL0     C28693   3.801   8.810  11.752  0.7434 -0.6084 -0.1769
  954MOL0     C28694   3.941   8.823  11.811 -0.2892 -0.0083  0.2868
  954MOL0     C28695   4.031   8.704  11.780  0.1813  0.3441 -0.0999
  954MOL0     C28696   4.160   8.710  11.857 -0.2027  0.0930 -0.4426
  954MOL0     C28697   4.237   8.839  11.834  0.2780  1.0061  0.8966
  954MOL0     C28698   4.387   8.822  11.866  0.6792  0.0235 -0.2831
  954MOL0    Cl28699   4.498   8.973  11.866 -0.1324 -0.2232  0.1977
  954MOL0     C28700   3.398   8.709  11.539 -0.5106 -0.1505 -0.3397
  954MOL0     C28701   3.270   8.647  11.528  0.2548  0.6781 -0.5798
  954MOL0     O28702   3.101   8.396  11.662  0.2006 -0.0613  0.2860
  954MOL0     C28703   2.778   8.526  11.641  0.3165 -0.5565  0.4687
  954MOL0     C28704   2.643   8.483  11.650  0.5857  0.2177 -0.6132
  954MOL0     N28705   2.136   7.804  11.430 -0.6452  0.5644 -0.2615
  954MOL0     N28706   2.052   7.714  11.378 -0.0416 -0.0485 -0.4161
  954MOL0     C28707   0.749   7.780  11.437 -0.7012 -0.0927  0.4357
  954MOL0     C28708   0.618   7.748  11.413 -0.6674 -0.2059 -0.1836
  954MOL0     C28709   0.240   7.609  11.177  0.2533  0.3803 -0.1660
  954MOL0     C28710   0.156   7.496  11.183  1.0281 -0.0981  0.3535
  954MOL0     C28711   0.018   7.494  11.141  0.7007  0.1080 -0.2864
  954MOL0     C28712  -0.040   7.615  11.105 -0.5467  0.1867 -0.1026
  954MOL0     O28713  -0.179   7.622  11.073 -0.0466 -0.2552 -0.0237
  954MOL0     C28714  -0.246   7.748  11.097  0.5479 -0.0161 -0.1055
  954MOL0     C28715  -0.400   7.717  11.104  0.2594 -0.9407  0.0015
  954MOL0     C28716  -0.467   7.655  10.979  0.0701  0.1120 -0.6753
  954MOL0     C28717  -0.621   7.646  10.998 -1.0741 -0.5685 -1.2485
  954MOL0     C28718  -0.685   7.541  10.919 -1.3066  0.6888 -0.1201
  954MOL0     C28719  -0.731   7.466  10.832  0.5383  0.3005 -0.4785
  954MOL0     C28720   0.041   7.736  11.111  1.0810 -0.0909 -0.5447
  954MOL0     C28721   0.173   7.738  11.150 -0.1767  0.4993  0.2275
  954MOL0     C28722   0.249   7.874  11.148 -0.0251  1.2126  0.6485
  954MOL0     H28723   0.662   7.587  11.114 -1.5633  0.0343 -0.2671
  954MOL0     H28724   0.897   7.642  11.166 -1.1630  0.4447 -2.4755
  954MOL0     H28725   1.080   7.700  11.228 -1.6836  1.9718 -0.0362
  954MOL0     H28726   1.161   7.848  11.302  1.1788 -0.4630  3.1761
  954MOL0     H28727   1.136   7.573  11.415 -0.1582 -0.4504 -1.9447
  954MOL0     H28728   1.181   7.717  11.513 -1.1915 -0.1417  0.2371
  954MOL0     H28729   1.377   7.755  11.338  0.5353 -0.3691 -0.4438
  954MOL0     H28730   1.337   7.602  11.260 -1.6407 -3.2343  1.4680
  954MOL0     H28731   1.446   7.678  11.522  0.0004 -0.4029  0.7064
  954MOL0     H28732   1.379   7.520  11.513  4.8152 -2.2130  1.2805
  954MOL0     H28733   1.513   7.432  11.322  1.4420 -1.8548  2.8405
  954MOL0     H28734   1.580   7.596  11.295  3.8514  0.5410  2.7041
  954MOL0     H28735   1.611   7.441  11.552  1.9134  0.0561  0.0346
  954MOL0     H28736   1.712   7.414  11.410  2.6413  0.7170  1.5936
  954MOL0     H28737   1.798   7.565  11.581  0.8218 -0.8379 -1.0909
  954MOL0     H28738   1.684   7.684  11.546  0.9269 -0.7415  2.5788
  954MOL0     H28739   1.855   7.575  11.308 -1.3938 -0.2989  0.0210
  954MOL0     H28740   1.758   7.716  11.313  0.5961  2.9062  2.2011
  954MOL0     H28741   1.849   7.889  11.558 -0.7652 -0.4756 -0.8048
  954MOL0     H28742   2.035   8.084  11.588 -1.6609 -1.8324  3.7892
  954MOL0     H28743   2.146   7.968  11.671  0.2102  1.2067  1.0623
  954MOL0     H28744   2.321   7.999  11.520 -0.0984 -0.0942  2.9877
  954MOL0     H28745   2.222   8.101  11.409  0.9257  3.0149  0.3618
  954MOL0     H28746   2.279   8.161  11.708  0.7411 -1.4004 -0.4026
  954MOL0     H28747   2.225   8.274  11.584 -0.8070  0.6835  2.0660
  954MOL0     H28748   2.417   8.279  11.476 -2.8042 -1.3449 -0.7675
  954MOL0     H28749   2.484   8.135  11.560 -0.2755 -0.9364 -1.3611
  954MOL0     H28750   2.674   8.156  11.704 -0.6332  0.1068 -1.4185
  954MOL0     H28751   2.924   8.220  11.713 -1.9855 -1.9065  1.2066
  954MOL0     H28752   3.099   8.782  11.779  0.2404  0.6101 -0.1974
  954MOL0     H28753   3.323   8.929  11.776  0.2261 -0.9185  0.7757
  954MOL0     H28754   3.555   9.058  11.728 -0.5511  0.0373 -0.5833
  954MOL0     H28755   3.544   8.919  11.835 -1.7738  1.4703  0.3322
  954MOL0     H28756   3.766   9.002  11.657 -5.7595  3.9086  0.6630
  954MOL0     H28757   3.773   9.013  11.832  0.8034  1.1398  0.0964
  954MOL0     H28758   3.738   8.736  11.801  1.3492  0.0181  1.6218
  954MOL0     H28759   3.819   8.779  11.648  0.6279 -1.7764  0.1384
  954MOL0     H28760   3.939   8.834  11.920 -1.1304 -0.8616  0.3826
  954MOL0     H28761   3.986   8.916  11.777 -0.5730  0.1810  0.4255
  954MOL0     H28762   4.050   8.695  11.673 -0.1209 -2.8441  0.0281
  954MOL0     H28763   3.970   8.623  11.821  1.0585 -0.5765 -0.5798
  954MOL0     H28764   4.134   8.698  11.963  3.6098  0.3865  0.6491
  954MOL0     H28765   4.223   8.623  11.837 -1.4047 -0.7226 -0.8085
  954MOL0     H28766   4.189   8.908  11.904  0.2694  0.5131  1.3896
  954MOL0     H28767   4.228   8.862  11.728  0.4607 -4.8306 -0.7253
  954MOL0     H28768   4.399   8.774  11.964  1.9366 -0.6394 -0.7429
  954MOL0     H28769   4.433   8.756  11.792  0.1115 -0.0055 -0.6182
  954MOL0     H28770   3.475   8.669  11.474 -0.1776 -1.8735  1.0503
  954MOL0     H28771   3.261   8.561  11.462  0.2404 -0.9832  1.4695
  954MOL0     H28772   2.802   8.630  11.621  0.4545 -0.8160 -0.7814
  954MOL0     H28773   2.556   8.546  11.638  0.2162  0.0243  0.8930
  954MOL0     H28774   0.764   7.822  11.535  2.8618 -1.7376  0.7356
  954MOL0     H28775   0.536   7.782  11.475 -0.8687 -0.2354 -0.4339
  954MOL0     H28776   0.205   7.402  11.209 -0.5742 -1.4534 -1.3091
  954MOL0     H28777  -0.042   7.405  11.147 -0.2292  0.7753  0.8366
  954MOL0     H28778  -0.240   7.822  11.016 -1.4123  1.7536  1.2509
  954MOL0     H28779  -0.219   7.796  11.191  0.7579 -0.2754 -0.0313
  954MOL0     H28780  -0.452   7.813  11.113  0.5611 -0.4583 -2.5057
  954MOL0     H28781  -0.424   7.646  11.183  1.5535 -1.0411  0.3142
  954MOL0     H28782  -0.422   7.558  10.954  0.2774 -0.4391  1.6399
  954MOL0     H28783  -0.451   7.718  10.890 -0.9158  0.1609 -0.8265
  954MOL0     H28784  -0.636   7.630  11.105  0.1993 -3.1877 -1.3752
  954MOL0     H28785  -0.673   7.737  10.966  0.0555  1.3456  1.9264
  954MOL0     H28786  -0.772   7.412  10.749 -1.3731  1.6621 -0.4778
  954MOL0     H28787  -0.013   7.830  11.105 -1.8909 -1.6428  0.0513
  954MOL0     H28788   0.257   7.923  11.245 -0.8840 -0.0079  1.3579
  954MOL0     H28789   0.354   7.861  11.119 -0.5966  0.6273 -1.3430
  954MOL0     H28790   0.194   7.937  11.077 -1.9301 -2.2772 -1.2507
  955MOL0     O28791   7.097   1.141   1.931  0.2668 -0.4680 -0.1786
  955MOL0     C28792   7.054   1.075   2.028 -0.2990 -0.3923 -0.0318
  955MOL0     O28793   7.096   1.100   2.154  0.2314  0.2853 -0.2384
  955MOL0     C28794   7.227   1.122   2.175 -0.6579  0.0061  0.3199
  955MOL0     C28795   7.251   1.199   2.288 -0.2745 -0.3107 -0.4770
  955MOL0     C28796   7.380   1.212   2.335 -0.0326 -0.8575 -0.1204
  955MOL0     C28797   7.491   1.164   2.258 -0.7457 -0.7202  0.1239
  955MOL0     O28798   7.620   1.183   2.296  0.2343  0.3160 -0.0694
  955MOL0     C28799   7.650   1.213   2.433 -0.7359  0.3720  0.0604
  955MOL0     C28800   7.800   1.214   2.455  0.5537  0.0817 -0.0393
  955MOL0     C28801   7.853   1.364   2.430  0.0764  0.1321  0.2199
  955MOL0     C28802   8.012   1.371   2.455 -0.6369 -0.3440  0.1298
  955MOL0     C28803   8.086   1.506   2.464 -0.2615 -0.5220 -0.1374
  955MOL0     C28804   8.090   1.573   2.330  0.4171 -0.1881 -0.1831
  955MOL0     C28805   8.194   1.687   2.334 -0.5989  0.8544  0.5004
  955MOL0     C28806   8.195   1.769   2.198  0.1031 -1.0065 -0.6017
  955MOL0     N28807   8.180   1.679   2.085 -0.3564  0.6270  0.2650
  955MOL0     C28808   8.270   1.590   2.030  0.2523 -0.6386 -0.5901
  955MOL0     C28809   8.208   1.529   1.925  0.1126  0.1253 -0.0189
  955MOL0     C28810   8.274   1.441   1.818  0.0507  0.7056 -1.0280
  955MOL0     C28811   8.363   1.516   1.720 -0.8503  0.5105  0.6372
  955MOL0     C28812   8.448   1.429   1.620  0.3336 -0.5415 -0.6088
  955MOL0     C28813   8.579   1.382   1.690 -0.1140  0.2522 -1.4476
  955MOL0     O28814   8.648   1.493   1.745 -1.0168 -0.7653 -0.1798
  955MOL0     C28815   8.760   1.482   1.830  0.5513  0.5004  0.0454
  955MOL0     C28816   8.846   1.366   1.846  0.1672  0.2867 -0.0241
  955MOL0     C28817   8.965   1.371   1.926 -0.7438  0.4659  0.2537
  955MOL0     C28818   8.995   1.488   1.991 -0.2714  0.7639 -0.0285
  955MOL0     C28819   9.123   1.504   2.062  0.7071  0.5729 -0.3333
  955MOL0     O28820   9.172   1.398   2.133  0.1589 -0.2488  0.0373
  955MOL0     C28821   9.307   1.385   2.146 -0.3663  0.4220 -1.0937
  955MOL0     C28822   9.368   1.345   2.270  0.6966 -0.0295  1.0946
  955MOL0     C28823   9.507   1.330   2.280 -0.0814 -0.2441 -0.3326
  955MOL0     C28824   9.590   1.342   2.168 -0.3091 -0.2751  0.8772
  955MOL0     O28825   9.723   1.330   2.152  0.0984 -0.4399  0.5453
  955MOL0     C28826   9.796   1.318   2.275  0.0155 -0.4495 -0.0142
  955MOL0     C28827   9.933   1.275   2.231 -1.2081  0.3142 -0.1805
  955MOL0     C28828  10.012   1.375   2.148 -0.0418 -0.4710 -0.2745
  955MOL0     C28829  10.114   1.304   2.047  0.0916 -1.6442  0.8622
  955MOL0     C28830  10.229   1.246   2.111 -0.9124  0.0760 -0.7074
  955MOL0     C28831  10.320   1.171   2.016 -0.0644 -0.5659 -0.0148
  955MOL0     C28832  10.455   1.156   2.082 -0.2657  0.2009 -0.0703
  955MOL0     C28833  10.546   1.085   1.983  0.4268  0.0683  0.3720
  955MOL0    Cl28834  10.685   1.038   2.063  0.0434  0.1859 -0.3793
  955MOL0     C28835   9.532   1.391   2.056  0.9716  0.5307  0.1760
  955MOL0     C28836   9.393   1.405   2.036  0.5750  0.0174 -0.1288
  955MOL0     O28837   9.181   1.605   2.047  0.4317 -0.1756 -0.1248
  955MOL0     C28838   8.910   1.600   1.975  0.3320 -0.1213  0.0898
  955MOL0     C28839   8.800   1.593   1.892  0.1218  0.5868  1.0427
  955MOL0     N28840   8.073   1.572   1.927 -0.4444  0.4678 -0.0585
  955MOL0     N28841   8.062   1.659   2.022  0.1256 -0.2138  0.3656
  955MOL0     C28842   7.465   1.088   2.151  0.3484  0.1059 -0.0508
  955MOL0     C28843   7.334   1.057   2.106 -0.2042 -0.5056  0.7373
  955MOL0     C28844   6.941   0.980   2.017 -0.7100 -0.5787  0.0369
  955MOL0     C28845   6.900   0.910   2.128 -0.6940  0.3418  0.0317
  955MOL0     C28846   6.783   0.827   2.129 -0.2176 -0.5688 -0.6107
  955MOL0     C28847   6.721   0.800   2.015  0.1303  0.1137 -0.2031
  955MOL0     O28848   6.604   0.727   1.985  0.2563 -0.4899  0.5149
  955MOL0     C28849   6.563   0.630   2.075 -0.8482  0.4479 -0.6872
  955MOL0     C28850   6.458   0.551   2.000  0.1593  0.5184 -0.8947
  955MOL0     C28851   6.324   0.622   1.974  0.5340 -0.2546  0.2125
  955MOL0     C28852   6.228   0.530   1.900  0.5124  0.2981  0.8868
  955MOL0     C28853   6.292   0.543   1.763 -0.2595  0.3865 -0.2705
  955MOL0     C28854   6.337   0.550   1.649  0.5501 -0.4220 -0.6592
  955MOL0     C28855   6.781   0.844   1.897  0.1502 -0.3325  0.2386
  955MOL0     C28856   6.880   0.948   1.897  1.0328  0.6099 -0.3965
  955MOL0     C28857   6.915   1.011   1.765  0.4820  0.4791 -0.8799
  955MOL0     H28858   7.169   1.252   2.336  0.8290 -0.5540  1.8143
  955MOL0     H28859   7.402   1.259   2.431  1.1767 -0.3937 -0.5948
  955MOL0     H28860   7.609   1.310   2.462 -0.0709  1.1749 -1.5794
  955MOL0     H28861   7.609   1.136   2.500 -0.0068 -0.2871 -0.2358
  955MOL0     H28862   7.863   1.147   2.395 -0.0671 -0.4570 -0.0977
  955MOL0     H28863   7.819   1.195   2.561  0.5450 -0.1956 -0.0872
  955MOL0     H28864   7.807   1.438   2.496 -0.2710  2.0339 -2.0293
  955MOL0     H28865   7.837   1.387   2.324  1.2130 -0.4244 -0.0916
  955MOL0     H28866   8.031   1.315   2.547  0.4877 -0.1286  0.0443
  955MOL0     H28867   8.072   1.322   2.377  1.8729  0.7270  1.2576
  955MOL0     H28868   8.047   1.575   2.540  1.5202 -1.2786  1.5571
  955MOL0     H28869   8.191   1.490   2.489  0.3701  0.8858 -1.7204
  955MOL0     H28870   8.130   1.503   2.256  1.0397 -2.3694  2.0884
  955MOL0     H28871   7.988   1.604   2.303  1.0973  1.7175 -0.6680
  955MOL0     H28872   8.294   1.643   2.343  0.0756  2.7721  3.8989
  955MOL0     H28873   8.188   1.745   2.426 -0.0576 -0.3013  1.2950
  955MOL0     H28874   8.111   1.838   2.211 -0.4964 -2.0193  1.4197
  955MOL0     H28875   8.278   1.839   2.189 -1.4139  0.9023 -0.4109
  955MOL0     H28876   8.374   1.570   2.052  0.1446 -1.6704 -0.9449
  955MOL0     H28877   8.339   1.371   1.871 -1.9964 -0.5056  0.0392
  955MOL0     H28878   8.201   1.374   1.771  0.5909 -1.8813  1.5249
  955MOL0     H28879   8.304   1.585   1.660 -0.2514 -0.7874 -1.5636
  955MOL0     H28880   8.432   1.578   1.778 -2.6424 -0.0464  3.5590
  955MOL0     H28881   8.455   1.497   1.534  1.0169  0.0111 -0.1206
  955MOL0     H28882   8.389   1.343   1.586 -0.5208 -0.1633 -0.0949
  955MOL0     H28883   8.634   1.333   1.609 -0.9535  0.4756 -2.1603
  955MOL0     H28884   8.554   1.313   1.772 -1.5340  0.3576 -1.7668
  955MOL0     H28885   8.812   1.284   1.783 -3.4398  1.0932  0.6410
  955MOL0     H28886   9.021   1.280   1.947 -1.6332 -0.3883 -0.9297
  955MOL0     H28887   9.293   1.334   2.348 -1.8869  2.7741 -0.7263
  955MOL0     H28888   9.554   1.303   2.374  0.2610  2.2349  0.2591
  955MOL0     H28889   9.815   1.415   2.323  1.7261  0.3583 -2.1666
  955MOL0     H28890   9.752   1.244   2.342 -2.8463  0.2176 -1.0101
  955MOL0     H28891   9.990   1.257   2.323  0.4198 -0.3236 -1.2850
  955MOL0     H28892   9.921   1.184   2.171  0.2262  0.8414 -1.3176
  955MOL0     H28893   9.947   1.443   2.092  2.5046  2.9046  0.5330
  955MOL0     H28894  10.066   1.442   2.215 -0.9694 -1.5783  1.6772
  955MOL0     H28895  10.155   1.379   1.980 -0.5175 -2.0261  0.0409
  955MOL0     H28896  10.059   1.234   1.983  1.5165 -0.4665 -1.7943
  955MOL0     H28897  10.198   1.178   2.191  0.7650  1.0808  0.8963
  955MOL0     H28898  10.287   1.328   2.154 -1.4536 -0.0672  0.3229
  955MOL0     H28899  10.271   1.076   1.993 -0.1449  0.2164 -3.6758
  955MOL0     H28900  10.327   1.226   1.921  1.5033 -1.9456 -0.7412
  955MOL0     H28901  10.433   1.087   2.164  0.9867 -1.4063 -1.0205
  955MOL0     H28902  10.504   1.247   2.118  1.0961  0.3877 -2.2538
  955MOL0     H28903  10.491   1.005   1.933 -0.4210  0.5989  0.4279
  955MOL0     H28904  10.584   1.153   1.905 -1.7175 -0.6749 -1.4251
  955MOL0     H28905   9.596   1.409   1.970 -0.7085  1.3459 -0.9592
  955MOL0     H28906   9.356   1.439   1.940  0.3679  0.4776  0.1133
  955MOL0     H28907   8.926   1.698   2.018 -1.2339  1.1637 -2.0589
  955MOL0     H28908   8.738   1.681   1.877  0.3540  0.4793 -0.7534
  955MOL0     H28909   7.539   1.062   2.076  0.3019 -0.8590  0.2336
  955MOL0     H28910   7.313   0.998   2.017 -2.8155 -0.0605  0.9830
  955MOL0     H28911   6.944   0.931   2.224  0.5801  0.2859 -0.5239
  955MOL0     H28912   6.733   0.783   2.215 -1.0766 -1.2571 -1.4446
  955MOL0     H28913   6.514   0.679   2.160 -1.6732  2.2728 -2.1438
  955MOL0     H28914   6.641   0.558   2.104 -0.7802  0.6407 -0.3888
  955MOL0     H28915   6.440   0.464   2.063  1.5408  1.0696  0.3125
  955MOL0     H28916   6.490   0.517   1.901 -2.2237 -0.6593 -1.3446
  955MOL0     H28917   6.345   0.713   1.916 -0.3730 -0.2696 -0.1551
  955MOL0     H28918   6.276   0.659   2.065  3.4322  1.1049  1.2945
  955MOL0     H28919   6.219   0.432   1.948  1.3535 -0.9499 -1.3645
  955MOL0     H28920   6.123   0.556   1.889 -0.4013 -3.4363 -0.4254
  955MOL0     H28921   6.401   0.545   1.563  1.9324 -0.7795  0.3467
  955MOL0     H28922   6.741   0.812   1.801  0.5196  1.2590 -0.4909
  955MOL0     H28923   6.881   1.114   1.754 -0.4607  0.1317 -1.3785
  955MOL0     H28924   7.016   0.982   1.735 -0.5206 -2.7099 -1.6127
  955MOL0     H28925   6.849   0.966   1.690 -3.7171  1.4674  1.8508
  956MOL0     O28926   0.948  10.499   4.509 -0.2210 -0.0999  0.0440
  956MOL0     C28927   0.965  10.380   4.515 -0.2971  0.1857  0.5337
  956MOL0     O28928   1.086  10.321   4.537 -0.1489 -0.1074 -0.2654
  956MOL0     C28929   1.187  10.396   4.602 -0.0408  0.3712  1.1100
  956MOL0     C28930   1.314  10.363   4.543  0.3025  0.2565 -0.4821
  956MOL0     C28931   1.428  10.421   4.600  0.7885  0.8264 -0.1180
  956MOL0     C28932   1.425  10.493   4.720  0.0842 -0.6135  0.1865
  956MOL0     O28933   1.544  10.550   4.761 -0.5105 -0.0542 -0.3316
  956MOL0     C28934   1.583  10.534   4.902  0.2061 -0.4275 -0.4796
  956MOL0     C28935   1.714  10.604   4.935 -0.2771 -0.1355  0.7729
  956MOL0     C28936   1.833  10.499   4.902  0.7940 -0.3823 -0.6212
  956MOL0     C28937   1.972  10.548   4.930 -0.2430  0.0848 -0.2454
  956MOL0     C28938   2.000  10.614   5.065  0.0434 -0.5884 -0.1392
  956MOL0     C28939   2.143  10.652   5.061 -0.2403  1.0052  0.1897
  956MOL0     C28940   2.184  10.719   5.191 -0.0196  0.4770 -0.0789
  956MOL0     C28941   2.340  10.746   5.200  0.3670  0.1953  1.0125
  956MOL0     N28942   2.387  10.786   5.335  0.0905  0.5073 -0.0511
  956MOL0     C28943   2.502  10.746   5.395 -0.2023 -0.4463 -0.3085
  956MOL0     C28944   2.526  10.825   5.502  0.8693  0.1368 -0.3526
  956MOL0     C28945   2.639  10.823   5.595 -1.0723  0.0646 -0.2797
  956MOL0     C28946   2.754  10.925   5.580 -0.4458 -0.0225 -0.1217
  956MOL0     C28947   2.851  10.930   5.704  1.1039  0.5357  0.2249
  956MOL0     C28948   2.979  10.996   5.683 -0.6510  0.4058 -0.2415
  956MOL0     O28949   3.048  10.998   5.810 -0.5854  0.5714  0.3438
  956MOL0     C28950   3.182  11.033   5.803 -0.1701 -0.6117  0.2775
  956MOL0     C28951   3.271  11.069   5.688  0.2917 -0.7199  0.0813
  956MOL0     C28952   3.405  11.106   5.690  0.2787 -0.8576 -1.0697
  956MOL0     C28953   3.473  11.118   5.815  0.4295 -0.2695 -0.3605
  956MOL0     C28954   3.606  11.174   5.820 -0.3208  0.0338 -0.2990
  956MOL0     O28955   3.648  11.235   5.706 -0.8524 -0.0594 -0.6353
  956MOL0     C28956   3.778  11.279   5.713 -0.5809 -0.5000  0.1166
  956MOL0     C28957   3.824  11.409   5.753  0.7312 -0.5136 -1.3164
  956MOL0     C28958   3.953  11.453   5.754 -0.6247  0.0879 -0.9336
  956MOL0     C28959   4.056  11.364   5.719 -0.3680 -0.3271 -0.5688
  956MOL0     O28960   4.189  11.397   5.717  0.4505  0.5744  0.3485
  956MOL0     C28961   4.225  11.534   5.702 -0.2142 -0.2745  0.2421
  956MOL0     C28962   4.376  11.551   5.711  0.5327 -0.6647 -0.0203
  956MOL0     C28963   4.443  11.527   5.578  0.2945  0.3139  0.0191
  956MOL0     C28964   4.592  11.562   5.584  0.3308 -0.2668  0.0461
  956MOL0     C28965   4.667  11.529   5.455  0.3523 -0.4454 -0.1181
  956MOL0     C28966   4.806  11.597   5.466 -0.4019 -0.2433  0.4922
  956MOL0     C28967   4.905  11.540   5.374 -0.9339 -0.0416 -0.3550
  956MOL0     C28968   5.045  11.598   5.395  0.1660 -0.1842  0.2989
  956MOL0    Cl28969   5.141  11.566   5.250  0.0819  0.3673  0.1811
  956MOL0     C28970   4.021  11.231   5.689  0.3282  0.1074 -0.5903
  956MOL0     C28971   3.886  11.190   5.683 -0.7556  0.1617  0.9785
  956MOL0     O28972   3.670  11.170   5.928  0.2564 -0.2060  1.0923
  956MOL0     C28973   3.393  11.075   5.928 -0.6718  0.2331 -1.0825
  956MOL0     C28974   3.256  11.038   5.918 -1.2005 -0.2668 -0.1433
  956MOL0     N28975   2.432  10.928   5.492  0.7153  0.6054  0.5993
  956MOL0     N28976   2.358  10.909   5.384 -0.0308 -0.7519 -0.7808
  956MOL0     C28977   1.297  10.533   4.773  0.2990  0.8641 -0.1391
  956MOL0     C28978   1.181  10.473   4.715  0.5191 -0.0951 -0.4675
  956MOL0     C28979   0.858  10.295   4.458  0.7302 -0.0839  0.1442
  956MOL0     C28980   0.734  10.353   4.422  0.2731 -0.2435 -0.1308
  956MOL0     C28981   0.620  10.278   4.378 -0.5563 -0.7310  0.1600
  956MOL0     C28982   0.630  10.142   4.363 -0.1946  0.8241 -0.1325
  956MOL0     O28983   0.532  10.057   4.321 -0.4249 -0.5312 -0.1768
  956MOL0     C28984   0.422  10.106   4.244 -0.6615  0.0541 -0.4305
  956MOL0     C28985   0.360   9.968   4.230  0.0423  0.1799  0.4271
  956MOL0     C28986   0.234   9.991   4.147 -0.4813 -0.9307 -0.5119
  956MOL0     C28987   0.220   9.884   4.045 -0.1699 -0.3328 -0.1854
  956MOL0     C28988   0.113   9.909   3.949 -0.5021 -0.7529 -0.2514
  956MOL0     C28989   0.041   9.906   3.851  0.6122 -0.6484 -0.2582
  956MOL0     C28990   0.751  10.078   4.385  0.1245 -1.2914  0.9756
  956MOL0     C28991   0.865  10.151   4.432  0.5900 -0.1095 -0.5194
  956MOL0     C28992   0.988  10.075   4.440 -0.2558 -0.3763 -0.9717
  956MOL0     H28993   1.311  10.311   4.448 -0.6280 -1.9880  0.7043
  956MOL0     H28994   1.531  10.412   4.566  0.7537  0.4903 -0.1304
  956MOL0     H28995   1.500  10.580   4.956 -0.8346  0.1118 -2.4359
  956MOL0     H28996   1.583  10.431   4.939 -1.8375  0.8441  3.6089
  956MOL0     H28997   1.711  10.618   5.044 -0.0234  0.6762  0.6878
  956MOL0     H28998   1.725  10.702   4.887  0.2092 -0.5439  0.0262
  956MOL0     H28999   1.818  10.476   4.796 -1.6152 -0.5387 -0.3185
  956MOL0     H29000   1.806  10.406   4.952  2.2036  0.6447  2.2682
  956MOL0     H29001   2.037  10.461   4.929  1.0554  0.9986  0.6918
  956MOL0     H29002   1.994  10.615   4.847 -1.6868  0.4746 -0.3454
  956MOL0     H29003   1.931  10.699   5.067 -1.6818 -1.9322  0.6577
  956MOL0     H29004   1.991  10.538   5.144 -0.6410  1.7368  2.1561
  956MOL0     H29005   2.206  10.570   5.027  3.1238  3.0397  1.1137
  956MOL0     H29006   2.157  10.737   4.994  0.1704 -0.1351 -1.2168
  956MOL0     H29007   2.150  10.662   5.278  1.1925 -0.4962 -0.2234
  956MOL0     H29008   2.125  10.811   5.197  4.1677  3.7108 -2.5349
  956MOL0     H29009   2.398  10.661   5.162 -0.1509 -0.3708  1.4692
  956MOL0     H29010   2.350  10.829   5.129 -1.8012 -0.2496  0.0842
  956MOL0     H29011   2.565  10.663   5.364 -0.0208 -0.2545 -0.4577
  956MOL0     H29012   2.592  10.855   5.689 -1.8576 -0.9301 -0.3124
  956MOL0     H29013   2.677  10.720   5.596 -0.2916  0.3296  1.3925
  956MOL0     H29014   2.811  10.900   5.490 -1.6070 -0.2167 -0.8128
  956MOL0     H29015   2.711  11.025   5.571 -4.0281 -1.5367 -1.6660
  956MOL0     H29016   2.865  10.824   5.727  0.2126  0.5505  0.8808
  956MOL0     H29017   2.807  10.979   5.791  0.3785  2.6272 -1.2470
  956MOL0     H29018   2.970  11.102   5.658  2.0191  0.6886 -0.3841
  956MOL0     H29019   3.032  10.938   5.606  0.1688 -0.0713  0.6620
  956MOL0     H29020   3.231  11.085   5.589  0.8165  2.1584  0.2685
  956MOL0     H29021   3.456  11.137   5.599  0.3082  2.7786  0.0468
  956MOL0     H29022   3.741  11.474   5.779  1.3392  1.5583 -4.1845
  956MOL0     H29023   3.983  11.555   5.771 -1.4175  0.2076 -0.1827
  956MOL0     H29024   4.195  11.573   5.604  0.7468  1.4398  0.5816
  956MOL0     H29025   4.192  11.605   5.778 -0.4722  0.9596 -0.9745
  956MOL0     H29026   4.399  11.652   5.745 -3.1883  0.1393  0.4804
  956MOL0     H29027   4.427  11.479   5.776 -0.3797 -1.4796 -0.1739
  956MOL0     H29028   4.433  11.421   5.554 -1.6617  0.3013  0.7269
  956MOL0     H29029   4.397  11.589   5.501  0.7351  0.8936  0.2107
  956MOL0     H29030   4.633  11.510   5.671  0.4042 -1.9373 -0.9490
  956MOL0     H29031   4.593  11.671   5.593  3.7045 -0.0998 -0.8062
  956MOL0     H29032   4.618  11.565   5.364  5.4761  1.2831 -2.5389
  956MOL0     H29033   4.669  11.421   5.441 -2.0624 -0.4213 -1.2845
  956MOL0     H29034   4.793  11.704   5.450  1.6305  0.0408  0.4293
  956MOL0     H29035   4.850  11.573   5.564 -1.1613 -2.1451  0.4117
  956MOL0     H29036   4.875  11.565   5.272 -0.9944 -0.1413 -0.3615
  956MOL0     H29037   4.914  11.431   5.376 -0.3296 -0.0276 -1.4744
  956MOL0     H29038   5.029  11.705   5.412 -1.8760 -0.1685 -1.3404
  956MOL0     H29039   5.105  11.557   5.477 -1.6910  0.2073  1.9409
  956MOL0     H29040   4.102  11.165   5.662  0.4042  0.4559 -1.2420
  956MOL0     H29041   3.857  11.096   5.637 -4.4805  2.1633 -1.1957
  956MOL0     H29042   3.431  11.070   6.029 -0.4959 -1.5488 -1.2099
  956MOL0     H29043   3.206  11.021   6.013 -0.1661  2.8666  1.0977
  956MOL0     H29044   1.298  10.598   4.860 -0.2629 -0.9128  1.2510
  956MOL0     H29045   1.084  10.482   4.762  0.2339  1.6527 -1.3178
  956MOL0     H29046   0.711  10.459   4.426  1.4343 -0.0141  0.9223
  956MOL0     H29047   0.528  10.326   4.348 -0.3346 -1.3762 -1.7071
  956MOL0     H29048   0.456  10.159   4.154 -0.8994  3.9049  1.5316
  956MOL0     H29049   0.354  10.173   4.297  1.8129  0.4969  2.4796
  956MOL0     H29050   0.334   9.919   4.324  0.9398 -0.6048  0.2887
  956MOL0     H29051   0.435   9.897   4.194  1.4323  0.6480  2.2294
  956MOL0     H29052   0.243  10.081   4.086 -0.0083  0.1864  1.1440
  956MOL0     H29053   0.158  10.023   4.219  2.0278  0.8192  1.5357
  956MOL0     H29054   0.312   9.883   3.987  0.6187  0.6364  1.0112
  956MOL0     H29055   0.198   9.788   4.093  1.4190 -0.9363 -0.6128
  956MOL0     H29056  -0.012   9.900   3.758  2.2489 -0.8432 -1.2162
  956MOL0     H29057   0.769   9.972   4.370 -0.9788 -1.2229 -1.2752
  956MOL0     H29058   1.076  10.107   4.384  0.7887  2.1058  1.8321
  956MOL0     H29059   1.010  10.074   4.547 -2.0722  1.7978 -0.5011
  956MOL0     H29060   0.970   9.970   4.413 -4.2565 -0.1707  0.2786
  957MOL0     O29061   2.633   4.108   5.461 -0.1201 -0.1386 -0.3003
  957MOL0     C29062   2.572   4.046   5.371  0.6236  0.8638 -0.5111
  957MOL0     O29063   2.624   3.996   5.259  0.2714 -1.1889 -0.4239
  957MOL0     C29064   2.759   4.022   5.231  0.5302  0.0022 -0.5112
  957MOL0     C29065   2.825   4.147   5.241 -0.1494 -0.3100  0.4956
  957MOL0     C29066   2.958   4.161   5.217 -0.1491  0.0885 -0.3354
  957MOL0     C29067   3.042   4.058   5.180  0.8468 -1.0980 -0.2752
  957MOL0     O29068   3.176   4.086   5.183  0.2810 -0.2465 -0.1308
  957MOL0     C29069   3.256   3.973   5.226  0.6571  0.0769 -0.2188
  957MOL0     C29070   3.367   4.037   5.309  0.1355 -0.1326 -0.3608
  957MOL0     C29071   3.466   3.942   5.369  0.2719 -0.4390  0.8217
  957MOL0     C29072   3.588   4.016   5.429 -1.1648  0.5466  0.6792
  957MOL0     C29073   3.671   3.925   5.523 -0.1743  1.4789  0.3403
  957MOL0     C29074   3.598   3.885   5.659 -0.0427  0.2272 -0.1585
  957MOL0     C29075   3.703   3.814   5.749  0.2956  0.2265  0.2573
  957MOL0     C29076   3.664   3.809   5.894 -0.4636 -0.7338  0.2654
  957MOL0     N29077   3.754   3.732   5.974  0.1094  0.9891 -0.5925
  957MOL0     C29078   3.725   3.637   6.070 -0.1648  0.0865  0.0148
  957MOL0     C29079   3.840   3.603   6.118 -1.0384  0.7085 -0.5856
  957MOL0     C29080   3.868   3.504   6.236 -0.2175  0.4372 -0.6131
  957MOL0     C29081   4.011   3.434   6.218 -0.5070 -0.9467 -0.0466
  957MOL0     C29082   4.038   3.346   6.352  0.8561  1.3644 -0.5811
  957MOL0     C29083   4.183   3.285   6.362 -0.3080  0.3395 -1.1351
  957MOL0     O29084   4.280   3.381   6.315  0.6904 -0.2861 -0.5995
  957MOL0     C29085   4.403   3.351   6.358  0.5284  0.3519  0.4345
  957MOL0     C29086   4.500   3.449   6.340 -0.1788  0.1076 -1.1545
  957MOL0     C29087   4.621   3.435   6.399 -0.1750  0.3257 -0.6622
  957MOL0     C29088   4.662   3.313   6.459 -0.1274  0.1264  0.7311
  957MOL0     C29089   4.801   3.298   6.513  0.6648  0.9363 -0.1669
  957MOL0     O29090   4.836   3.174   6.559 -0.6064  0.3879 -0.1889
  957MOL0     C29091   4.966   3.164   6.608  0.1949 -0.8080  0.2514
  957MOL0     C29092   5.075   3.142   6.525  0.6814 -1.2174 -0.1664
  957MOL0     C29093   5.198   3.120   6.579 -0.0873  1.0527 -0.1379
  957MOL0     C29094   5.221   3.113   6.714 -0.9808 -0.3346 -0.6715
  957MOL0     O29095   5.356   3.111   6.760 -0.1487 -0.0356  0.4149
  957MOL0     C29096   5.379   2.990   6.835 -0.3314 -0.3036 -0.6565
  957MOL0     C29097   5.533   2.955   6.826 -0.4671  0.3002  0.4945
  957MOL0     C29098   5.614   3.069   6.885 -0.4587  0.0473 -1.2941
  957MOL0     C29099   5.763   3.050   6.874  0.5021 -0.5926  0.9555
  957MOL0     C29100   5.848   3.161   6.942  0.2040  0.1243 -0.0402
  957MOL0     C29101   5.996   3.127   6.926 -0.4801 -0.7790 -0.8141
  957MOL0     C29102   6.088   3.245   6.975 -0.3179  0.2257 -0.1489
  957MOL0     C29103   6.235   3.210   6.981 -0.3274 -0.9274  0.0147
  957MOL0    Cl29104   6.340   3.353   7.022 -0.2403 -0.1318  0.1847
  957MOL0     C29105   5.107   3.118   6.800  0.9699  0.4543  0.4162
  957MOL0     C29106   4.987   3.150   6.748 -0.0690  0.1349  0.4444
  957MOL0     O29107   4.871   3.395   6.514  0.5799  0.3483 -0.4055
  957MOL0     C29108   4.569   3.215   6.467  0.2143  0.8138 -0.5829
  957MOL0     C29109   4.437   3.233   6.420 -0.3066  0.1028 -0.3825
  957MOL0     N29110   3.945   3.670   6.049 -0.8798  0.1537  0.1158
  957MOL0     N29111   3.885   3.756   5.975  0.1968  0.2892  0.1878
  957MOL0     C29112   2.975   3.939   5.175  0.4061  0.8969  0.8365
  957MOL0     C29113   2.839   3.914   5.189 -0.0611 -1.1286 -1.6492
  957MOL0     C29114   2.421   4.031   5.382  0.7133 -0.0409 -0.0617
  957MOL0     C29115   2.347   3.982   5.276 -0.7997 -0.2097 -0.9374
  957MOL0     C29116   2.205   3.966   5.274  0.9071  0.1314 -0.7280
  957MOL0     C29117   2.123   4.003   5.389 -0.2094 -0.1009  0.2151
  957MOL0     O29118   1.986   4.002   5.411  0.6522 -0.1821  0.6585
  957MOL0     C29119   1.914   3.907   5.333 -0.2221  0.2230  0.5214
  957MOL0     C29120   1.780   3.886   5.396  0.9805 -0.7933  0.3106
  957MOL0     C29121   1.711   3.787   5.322 -1.1941 -0.5825  0.8654
  957MOL0     C29122   1.589   3.726   5.383  0.3831  0.5843 -0.3710
  957MOL0     C29123   1.612   3.645   5.503 -0.0405 -0.5055 -1.4546
  957MOL0     C29124   1.652   3.571   5.591 -0.1608 -0.1256  0.4917
  957MOL0     C29125   2.197   4.055   5.498  0.1908 -0.4204  0.7837
  957MOL0     C29126   2.340   4.070   5.496  0.2895 -0.1509 -0.1610
  957MOL0     C29127   2.395   4.128   5.623  0.6661 -0.4842 -0.2789
  957MOL0     H29128   2.776   4.241   5.263  2.3250  0.5210  2.9425
  957MOL0     H29129   3.002   4.260   5.225  1.0964 -0.5265  0.8403
  957MOL0     H29130   3.210   3.897   5.289  2.8872 -0.6845  0.5892
  957MOL0     H29131   3.285   3.926   5.131  1.0104 -0.8365  0.3406
  957MOL0     H29132   3.313   4.079   5.394 -0.5092 -0.1883 -0.7346
  957MOL0     H29133   3.414   4.117   5.251 -1.0855  1.8433  1.2602
  957MOL0     H29134   3.492   3.864   5.298  1.4892  3.7269 -3.8889
  957MOL0     H29135   3.403   3.893   5.444 -2.4952  1.2345 -0.2208
  957MOL0     H29136   3.653   4.050   5.348  0.6869 -3.5942  0.1603
  957MOL0     H29137   3.564   4.106   5.486  3.1952  2.4973 -0.1708
  957MOL0     H29138   3.697   3.837   5.464  0.0901  1.8286 -0.0650
  957MOL0     H29139   3.768   3.973   5.537  0.6021  1.1268 -2.9523
  957MOL0     H29140   3.564   3.977   5.708 -3.2198 -1.6137  1.3852
  957MOL0     H29141   3.511   3.821   5.642  0.8929 -1.5222  1.3315
  957MOL0     H29142   3.800   3.858   5.727 -0.2603  0.6648 -1.5114
  957MOL0     H29143   3.700   3.712   5.710  0.5646  0.4853 -0.4530
  957MOL0     H29144   3.673   3.914   5.920 -1.5783  0.2643 -2.8727
  957MOL0     H29145   3.559   3.780   5.907 -0.7299 -0.5833 -1.2830
  957MOL0     H29146   3.625   3.612   6.102  0.4205 -2.3299  0.1378
  957MOL0     H29147   3.871   3.554   6.334  0.6896 -1.8958  0.6249
  957MOL0     H29148   3.785   3.434   6.243 -0.2873  0.7046  2.7038
  957MOL0     H29149   3.996   3.372   6.130  0.8415 -1.5481  0.1209
  957MOL0     H29150   4.083   3.515   6.201 -0.7368 -0.9856 -1.2424
  957MOL0     H29151   3.971   3.262   6.332  3.3776 -0.6792 -0.7921
  957MOL0     H29152   4.008   3.395   6.445  0.2725 -1.1642  0.6341
  957MOL0     H29153   4.184   3.199   6.295 -2.8534  0.4357 -1.3880
  957MOL0     H29154   4.208   3.250   6.463  2.1304  0.0811 -1.7503
  957MOL0     H29155   4.471   3.546   6.301 -1.1630  0.8989  1.3288
  957MOL0     H29156   4.695   3.514   6.388 -0.9321  0.9231 -1.7739
  957MOL0     H29157   5.081   3.144   6.417  3.4020 -1.1904 -0.0833
  957MOL0     H29158   5.285   3.126   6.515  1.3291 -1.3261  1.3947
  957MOL0     H29159   5.357   3.003   6.942  0.5128 -0.8318 -0.4102
  957MOL0     H29160   5.320   2.906   6.797  0.1652 -0.9647 -0.0006
  957MOL0     H29161   5.559   2.871   6.891 -0.2706  0.8573  1.1467
  957MOL0     H29162   5.561   2.938   6.721 -2.5119  0.8066 -0.1707
  957MOL0     H29163   5.598   3.163   6.832 -0.9238 -0.1370 -1.4889
  957MOL0     H29164   5.585   3.092   6.988  1.9270 -2.2462  0.0264
  957MOL0     H29165   5.787   3.049   6.767 -0.0452 -1.0501  0.8348
  957MOL0     H29166   5.784   2.947   6.902  2.2679 -1.1239 -1.9128
  957MOL0     H29167   5.822   3.156   7.048  2.6455  1.6944  0.7393
  957MOL0     H29168   5.824   3.258   6.899 -0.6161 -0.6626 -1.4203
  957MOL0     H29169   6.019   3.033   6.977  0.3818 -1.9575 -3.2185
  957MOL0     H29170   6.029   3.122   6.822  3.0382  1.3702  0.0118
  957MOL0     H29171   6.059   3.263   7.079 -1.5561 -1.4769 -0.1529
  957MOL0     H29172   6.074   3.336   6.916 -2.0832 -1.1832 -2.0613
  957MOL0     H29173   6.248   3.115   7.033 -1.4610 -0.9009  0.3728
  957MOL0     H29174   6.259   3.203   6.874  2.9695  2.4779  0.3185
  957MOL0     H29175   5.133   3.114   6.906  0.4813 -0.7606  0.5101
  957MOL0     H29176   4.905   3.164   6.817 -1.0179  0.6817 -0.7550
  957MOL0     H29177   4.598   3.122   6.513  1.5306  0.2823 -2.3649
  957MOL0     H29178   4.368   3.150   6.437 -1.1290  1.0059  0.8777
  957MOL0     H29179   3.037   3.856   5.142 -0.6821 -0.2396  1.5888
  957MOL0     H29180   2.793   3.815   5.180  1.3790 -1.8105 -1.7819
  957MOL0     H29181   2.399   3.930   5.196 -2.2296 -1.4111 -1.1345
  957MOL0     H29182   2.161   3.925   5.184  0.5621 -1.1493 -0.0100
  957MOL0     H29183   1.979   3.819   5.324  1.1373  1.3230 -1.3366
  957MOL0     H29184   1.898   3.945   5.232 -1.8191 -2.1211 -0.1712
  957MOL0     H29185   1.733   3.982   5.376 -1.5705 -1.4372  2.5727
  957MOL0     H29186   1.775   3.854   5.501  0.3239 -1.0443  0.2079
  957MOL0     H29187   1.776   3.701   5.300 -2.8319 -1.9505  1.2156
  957MOL0     H29188   1.684   3.835   5.228  0.4701 -1.2018  0.0305
  957MOL0     H29189   1.510   3.796   5.413 -0.7031 -1.0912  0.8478
  957MOL0     H29190   1.543   3.660   5.309  1.0558 -0.5643  0.2129
  957MOL0     H29191   1.686   3.508   5.671  1.9160  0.3256  0.0057
  957MOL0     H29192   2.141   4.071   5.589 -1.1830  3.0434 -0.4797
  957MOL0     H29193   2.445   4.220   5.590  1.0653 -1.4177 -2.4659
  957MOL0     H29194   2.313   4.157   5.689 -0.8716 -1.7437 -1.5575
  957MOL0     H29195   2.472   4.062   5.666  1.4465  1.1985  1.0071
  958MOL0     O29196   4.783   5.850   9.919  0.4466  0.1648 -0.7356
  958MOL0     C29197   4.708   5.791   9.847 -0.1067  0.9109 -0.3790
  958MOL0     O29198   4.746   5.746   9.722  0.2405  0.2046 -0.0485
  958MOL0     C29199   4.872   5.769   9.680 -0.0475 -0.3778  0.3221
  958MOL0     C29200   4.997   5.772   9.753 -0.4251  0.2247  0.0340
  958MOL0     C29201   5.119   5.811   9.682  0.4828 -0.4456 -0.2371
  958MOL0     C29202   5.114   5.838   9.542  0.7652  0.8201 -0.6640
  958MOL0     O29203   5.238   5.864   9.483 -0.2453 -0.6228 -0.1320
  958MOL0     C29204   5.251   5.872   9.337 -0.6173 -0.7818 -0.5945
  958MOL0     C29205   5.397   5.878   9.301  0.3377  0.6892  0.1218
  958MOL0     C29206   5.476   5.744   9.331 -0.1215 -0.6081 -0.6259
  958MOL0     C29207   5.623   5.766   9.293 -0.2270  0.7150  0.6324
  958MOL0     C29208   5.706   5.634   9.312  0.1544 -0.4907 -0.3902
  958MOL0     C29209   5.708   5.582   9.462  0.4057  0.4827  0.2762
  958MOL0     C29210   5.813   5.470   9.467  0.4021 -0.6943 -0.5588
  958MOL0     C29211   5.778   5.365   9.577 -0.6074  0.1788 -0.0792
  958MOL0     N29212   5.871   5.253   9.576 -0.8731  0.4958 -0.5394
  958MOL0     C29213   5.877   5.188   9.461  0.2737  0.4270  0.6485
  958MOL0     C29214   5.983   5.111   9.466  0.4340  0.3629 -0.4463
  958MOL0     C29215   6.020   5.011   9.370  0.1760 -0.3145 -0.2775
  958MOL0     C29216   6.151   5.051   9.302 -0.6017  0.6491  0.8057
  958MOL0     C29217   6.195   4.926   9.216 -0.1788 -0.0825 -0.8217
  958MOL0     C29218   6.340   4.943   9.202 -0.6814 -0.1242 -0.5261
  958MOL0     O29219   6.424   4.951   9.318 -0.1857  0.1665  0.4937
  958MOL0     C29220   6.555   4.981   9.313  0.1694 -0.7740  0.5654
  958MOL0     C29221   6.629   4.986   9.193  0.3842  0.5045  0.4713
  958MOL0     C29222   6.765   5.021   9.192  0.9672 -0.5986  1.0508
  958MOL0     C29223   6.829   5.052   9.311 -0.3257 -0.1786 -0.3224
  958MOL0     C29224   6.965   5.071   9.313 -0.5957  0.3554  0.3529
  958MOL0     O29225   7.028   5.081   9.438  0.7863  0.0477 -0.2224
  958MOL0     C29226   7.136   5.162   9.457  0.1938  0.0100 -0.8879
  958MOL0     C29227   7.251   5.191   9.377 -0.2760  0.2732 -0.2292
  958MOL0     C29228   7.335   5.294   9.413  0.2155 -0.9483  0.5985
  958MOL0     C29229   7.327   5.363   9.536  0.1130 -0.5005 -0.2632
  958MOL0     O29230   7.423   5.453   9.580  0.8140 -0.3074  0.0734
  958MOL0     C29231   7.375   5.586   9.591  0.5356  1.1854  0.0435
  958MOL0     C29232   7.490   5.681   9.592 -0.1057 -0.1137  0.0184
  958MOL0     C29233   7.572   5.664   9.723  0.5255  0.3325  0.2633
  958MOL0     C29234   7.696   5.753   9.722 -0.2887  0.4045 -0.6874
  958MOL0     C29235   7.790   5.728   9.844  0.4555 -0.3116 -0.3117
  958MOL0     C29236   7.887   5.615   9.830 -0.2009  0.3887 -1.0417
  958MOL0     C29237   7.976   5.594   9.952  0.6181  0.5015 -0.3129
  958MOL0     C29238   7.956   5.459  10.017  0.6723 -0.1694 -0.6832
  958MOL0    Cl29239   8.063   5.460  10.160  0.5080  0.4306 -0.1061
  958MOL0     C29240   7.211   5.336   9.613  0.2363 -0.2829  0.0417
  958MOL0     C29241   7.118   5.241   9.572  0.7943 -0.2069 -0.0750
  958MOL0     O29242   7.009   5.116   9.204 -0.7911  0.2529 -0.1300
  958MOL0     C29243   6.754   5.047   9.432  0.0391  0.0304 -0.4355
  958MOL0     C29244   6.615   5.020   9.426 -0.6644 -0.0851 -0.2770
  958MOL0     N29245   6.036   5.129   9.593 -0.0844  0.0760  0.7295
  958MOL0     N29246   5.975   5.221   9.657 -0.5798 -0.0918  0.1612
  958MOL0     C29247   4.998   5.817   9.469  1.0591  0.1075  0.5429
  958MOL0     C29248   4.882   5.783   9.541 -0.6734  0.1638  0.9202
  958MOL0     C29249   4.576   5.732   9.897  0.1067  0.0588 -0.8014
  958MOL0     C29250   4.521   5.613   9.840 -0.6825  0.7317 -0.3073
  958MOL0     C29251   4.398   5.562   9.874  0.1006 -0.5144 -0.8142
  958MOL0     C29252   4.313   5.632   9.961 -0.6629  0.7036  0.2952
  958MOL0     O29253   4.183   5.581   9.979 -0.3828 -0.0812 -0.1674
  958MOL0     C29254   4.102   5.641  10.085  0.4295 -0.2013 -0.8815
  958MOL0     C29255   4.035   5.772  10.051  0.2918 -0.4697 -0.1289
  958MOL0     C29256   3.922   5.798  10.151  0.1973  0.4506 -0.4956
  958MOL0     C29257   3.799   5.858  10.081 -0.1723  0.5563  0.7276
  958MOL0     C29258   3.709   5.914  10.184  0.3985  0.1913 -0.1067
  958MOL0     C29259   3.633   5.940  10.274 -0.0058 -0.3431 -0.2955
  958MOL0     C29260   4.364   5.747  10.020 -0.1611  0.3419  0.4791
  958MOL0     C29261   4.495   5.792   9.993 -0.9236 -0.4285 -0.7095
  958MOL0     C29262   4.534   5.928  10.054 -0.4309  0.0610  0.1078
  958MOL0     H29263   5.021   5.742   9.855  0.7937 -0.9141 -0.5707
  958MOL0     H29264   5.214   5.827   9.733 -0.0381  2.9699 -0.0564
  958MOL0     H29265   5.205   5.784   9.292 -0.9343 -2.3424  2.4806
  958MOL0     H29266   5.203   5.964   9.303 -2.2827 -1.2935  0.2042
  958MOL0     H29267   5.460   5.960   9.336  3.6958 -0.6351 -2.2343
  958MOL0     H29268   5.404   5.897   9.193  0.4130 -2.9153 -0.6310
  958MOL0     H29269   5.428   5.666   9.271 -1.0886 -0.1514 -0.4681
  958MOL0     H29270   5.456   5.723   9.437  2.0280  2.3286  0.4813
  958MOL0     H29271   5.639   5.806   9.192 -4.3115  0.7162 -0.1694
  958MOL0     H29272   5.662   5.846   9.356  1.2960  0.0387  0.6058
  958MOL0     H29273   5.683   5.550   9.246 -0.9523 -1.2132  0.8623
  958MOL0     H29274   5.803   5.666   9.275 -1.0176  3.9068 -0.2210
  958MOL0     H29275   5.737   5.667   9.525 -0.5863  0.9595  0.1035
  958MOL0     H29276   5.611   5.539   9.487 -1.2578  3.2487 -0.9923
  958MOL0     H29277   5.913   5.513   9.476 -0.5237  1.6047 -0.5487
  958MOL0     H29278   5.808   5.413   9.374 -1.0128 -1.3665 -0.1041
  958MOL0     H29279   5.768   5.405   9.678 -2.8113  0.4592 -0.3580
  958MOL0     H29280   5.680   5.326   9.547 -0.9899  0.1230  1.1781
  958MOL0     H29281   5.816   5.193   9.371  2.7465 -1.9227 -1.3319
  958MOL0     H29282   6.031   4.922   9.432 -1.8721 -0.9663 -0.7595
  958MOL0     H29283   5.942   5.007   9.294  0.3598  2.1023 -0.6870
  958MOL0     H29284   6.130   5.138   9.239  2.4980  1.1253  0.2493
  958MOL0     H29285   6.236   5.073   9.367  0.8796 -1.1944 -0.3983
  958MOL0     H29286   6.147   4.926   9.118 -0.8821 -2.1371 -0.5158
  958MOL0     H29287   6.174   4.835   9.273  2.1616 -0.2688 -0.1565
  958MOL0     H29288   6.347   5.037   9.145  1.3087 -0.1588 -0.3996
  958MOL0     H29289   6.382   4.863   9.140  0.6806 -0.0391  0.2553
  958MOL0     H29290   6.578   4.957   9.102  1.3007 -2.0798  0.7094
  958MOL0     H29291   6.812   5.014   9.094 -0.5787  1.2271  0.1037
  958MOL0     H29292   7.265   5.143   9.280 -0.5882  0.0840 -0.1806
  958MOL0     H29293   7.419   5.314   9.346 -0.1487  1.0822  0.6682
  958MOL0     H29294   7.307   5.613   9.510 -1.1331 -1.0661  0.5701
  958MOL0     H29295   7.313   5.586   9.681 -0.2545  2.5030 -0.4761
  958MOL0     H29296   7.559   5.664   9.509  1.4889  0.8663  1.0821
  958MOL0     H29297   7.448   5.782   9.596  0.3664  0.1844 -1.7767
  958MOL0     H29298   7.516   5.695   9.812  0.2406  0.2972  0.0975
  958MOL0     H29299   7.613   5.564   9.738  0.7258  0.3556 -0.1224
  958MOL0     H29300   7.665   5.858   9.730 -1.1109  0.1683 -0.7212
  958MOL0     H29301   7.757   5.741   9.632  2.5849  1.6542  0.9355
  958MOL0     H29302   7.728   5.709   9.932 -0.2914  0.5019 -0.6408
  958MOL0     H29303   7.855   5.812   9.869 -0.7366  0.4860  0.2228
  958MOL0     H29304   7.832   5.523   9.807 -2.4801  1.4882 -0.3301
  958MOL0     H29305   7.948   5.622   9.740 -1.4960 -0.9265 -2.0612
  958MOL0     H29306   7.967   5.678  10.022  0.3828 -0.1270  0.4167
  958MOL0     H29307   8.079   5.612   9.919  0.9670  2.6218  1.6398
  958MOL0     H29308   7.853   5.432  10.039  1.2152  0.9510  4.2735
  958MOL0     H29309   7.989   5.383   9.945  0.4585 -1.1049  0.1745
  958MOL0     H29310   7.215   5.373   9.715  1.8958  0.8658 -0.4076
  958MOL0     H29311   7.029   5.212   9.627  0.9975 -0.6322  0.0340
  958MOL0     H29312   6.802   5.056   9.529  0.2620 -0.2984 -0.5142
  958MOL0     H29313   6.561   5.006   9.519 -2.6302  0.5266 -1.2687
  958MOL0     H29314   4.993   5.823   9.361  1.5693  0.8766  0.5575
  958MOL0     H29315   4.791   5.777   9.483  0.4157 -0.1035 -0.8351
  958MOL0     H29316   4.575   5.560   9.762 -1.9593  1.2008 -1.5441
  958MOL0     H29317   4.353   5.468   9.842 -2.1218 -0.0396  0.7156
  958MOL0     H29318   4.153   5.663  10.179 -1.1264  1.0180 -0.2816
  958MOL0     H29319   4.031   5.565  10.116 -0.5566  1.0765  0.1020
  958MOL0     H29320   4.000   5.768   9.947 -0.4554 -1.3648  0.1322
  958MOL0     H29321   4.103   5.857  10.055  1.5200 -1.3412 -1.4676
  958MOL0     H29322   3.965   5.856  10.234 -0.3921 -0.3563  0.3882
  958MOL0     H29323   3.891   5.705  10.199  0.4595  0.3194 -0.5751
  958MOL0     H29324   3.847   5.933  10.018  3.5142  0.0655  2.6499
  958MOL0     H29325   3.754   5.787  10.010  1.5024  1.1331 -1.0155
  958MOL0     H29326   3.567   5.954  10.357  2.2565 -1.8109  1.9049
  958MOL0     H29327   4.296   5.806  10.080 -0.7435 -2.4988  2.8182
  958MOL0     H29328   4.470   5.970  10.132  2.7007  1.6223  2.0509
  958MOL0     H29329   4.626   5.902  10.107 -1.4976 -1.6798  1.2436
  958MOL0     H29330   4.555   6.000   9.975 -2.6656  0.6898  0.0069
  959MOL0     O29331   6.794   0.146   4.026 -0.3463  0.6826  0.4536
  959MOL0     C29332   6.728   0.152   4.131 -0.6919  0.3093 -0.8764
  959MOL0     O29333   6.783   0.175   4.257  0.3471 -0.3599 -0.0895
  959MOL0     C29334   6.915   0.164   4.297 -0.1043  0.6231 -0.2643
  959MOL0     C29335   7.025   0.131   4.217 -0.0235  0.3709  0.3906
  959MOL0     C29336   7.154   0.130   4.280  0.2019  0.1817 -0.1201
  959MOL0     C29337   7.171   0.145   4.418 -0.0199 -0.0762  1.0350
  959MOL0     O29338   7.302   0.139   4.459 -0.0041 -0.5067 -0.1182
  959MOL0     C29339   7.329   0.069   4.579 -0.5481  0.1901 -0.4658
  959MOL0     C29340   7.489   0.058   4.603  0.2268 -0.2108 -0.1394
  959MOL0     C29341   7.575   0.015   4.478 -0.0494  0.6389  0.0632
  959MOL0     C29342   7.726   0.027   4.510 -0.1924 -0.3200  0.1459
  959MOL0     C29343   7.806   0.005   4.375  0.2478 -0.1237  0.4772
  959MOL0     C29344   7.947   0.073   4.372  1.4389 -0.1190  0.2462
  959MOL0     C29345   8.041   0.009   4.471 -1.0247 -0.1556 -0.3063
  959MOL0     C29346   8.104  -0.121   4.413 -0.1163  0.3445  0.2096
  959MOL0     N29347   8.211  -0.096   4.317  0.2081 -0.5798 -0.0696
  959MOL0     C29348   8.335  -0.061   4.356 -0.0175  0.6255  0.0619
  959MOL0     C29349   8.409  -0.041   4.237 -0.6225 -0.2682 -0.4274
  959MOL0     C29350   8.561  -0.002   4.228 -0.0346  0.0810 -0.0956
  959MOL0     C29351   8.633  -0.128   4.193  0.3194  0.0679 -0.2556
  959MOL0     C29352   8.788  -0.113   4.194  0.8651 -0.2215 -0.1031
  959MOL0     C29353   8.859  -0.238   4.136 -0.1045  0.8420  0.3581
  959MOL0     O29354   9.005  -0.217   4.161  0.2605 -0.2297  0.0046
  959MOL0     C29355   9.099  -0.297   4.104  0.2656 -0.1244 -0.1918
  959MOL0     C29356   9.227  -0.250   4.092 -1.0802  0.2121  1.0078
  959MOL0     C29357   9.327  -0.334   4.023  0.2035 -0.9189  0.2239
  959MOL0     C29358   9.301  -0.455   3.962  0.1994 -0.3257  0.6053
  959MOL0     C29359   9.407  -0.538   3.901 -0.5168  0.4816 -0.5692
  959MOL0     O29360   9.536  -0.482   3.887 -0.2939 -0.0514 -0.0837
  959MOL0     C29361   9.645  -0.540   3.823 -0.1070  0.1582  0.1036
  959MOL0     C29362   9.710  -0.493   3.711 -0.5269 -0.8958 -1.1507
  959MOL0     C29363   9.846  -0.520   3.677  0.3530 -0.4750 -0.3876
  959MOL0     C29364   9.904  -0.624   3.753  0.3724  0.2543  0.1735
  959MOL0     O29365  10.024  -0.686   3.729 -0.1107  0.2799  0.4784
  959MOL0     C29366  10.063  -0.694   3.586 -0.6261 -0.1709 -0.4643
  959MOL0     C29367  10.181  -0.796   3.578  0.1994 -0.2654  0.3756
  959MOL0     C29368  10.309  -0.734   3.624 -0.6892 -0.0395  0.3402
  959MOL0     C29369  10.445  -0.798   3.580  0.1911 -0.7075 -0.5997
  959MOL0     C29370  10.572  -0.725   3.619 -0.9852  0.2143  0.7628
  959MOL0     C29371  10.687  -0.795   3.536  0.0508  0.3650  0.7190
  959MOL0     C29372  10.822  -0.759   3.596  0.3047 -0.3068 -0.1176
  959MOL0     C29373  10.938  -0.865   3.557 -0.0519  0.6383  0.6467
  959MOL0    Cl29374  11.097  -0.773   3.543 -0.1418  0.2171  0.3378
  959MOL0     C29375   9.843  -0.673   3.871  0.2262 -0.1490  0.1514
  959MOL0     C29376   9.720  -0.622   3.907 -0.9101 -0.4705 -0.2286
  959MOL0     O29377   9.373  -0.648   3.855 -0.4405 -0.4674 -0.2050
  959MOL0     C29378   9.168  -0.499   3.985  0.3524 -0.4056 -0.2521
  959MOL0     C29379   9.069  -0.422   4.050 -0.0650  0.4531 -0.3149
  959MOL0     N29380   8.323  -0.082   4.137 -1.2029 -0.1837 -0.3783
  959MOL0     N29381   8.210  -0.126   4.183 -0.7542  0.2562  0.4779
  959MOL0     C29382   7.063   0.190   4.495 -0.3821  0.0960 -0.4692
  959MOL0     C29383   6.937   0.186   4.435  0.5686 -0.5514 -0.1491
  959MOL0     C29384   6.583   0.142   4.114 -0.5314 -1.7152  0.0971
  959MOL0     C29385   6.528   0.127   3.982  1.0017 -0.6209 -0.3971
  959MOL0     C29386   6.395   0.148   3.958 -0.6389  1.0714  0.0673
  959MOL0     C29387   6.309   0.160   4.067 -0.0421 -0.0226  0.8005
  959MOL0     O29388   6.177   0.141   4.041 -0.0760 -0.4197 -0.3266
  959MOL0     C29389   6.096   0.076   4.129 -0.4129  0.6163  0.1582
  959MOL0     C29390   6.137  -0.074   4.157  0.8422  0.0487 -0.0398
  959MOL0     C29391   6.145  -0.156   4.029 -0.4104  0.3919 -0.2133
  959MOL0     C29392   6.024  -0.181   3.944 -0.3608  0.2987  0.6222
  959MOL0     C29393   5.982  -0.080   3.847 -0.5314  0.1873 -1.0638
  959MOL0     C29394   5.935   0.007   3.773  0.7383 -0.5412 -0.0165
  959MOL0     C29395   6.364   0.165   4.199  0.4231  0.0447  0.6279
  959MOL0     C29396   6.496   0.154   4.224  0.1826 -0.0967 -0.4905
  959MOL0     C29397   6.529   0.165   4.372 -0.0149 -0.0962  1.1676
  959MOL0     H29398   7.023   0.126   4.109 -0.6869 -1.5539  0.4561
  959MOL0     H29399   7.242   0.109   4.220  2.0673 -1.8761  3.0350
  959MOL0     H29400   7.279   0.125   4.659  0.7740  1.2578 -0.3639
  959MOL0     H29401   7.288  -0.033   4.582 -1.2381  0.4679  1.2483
  959MOL0     H29402   7.515  -0.001   4.691  0.0689 -0.3845 -0.2075
  959MOL0     H29403   7.512   0.159   4.638 -0.8992 -0.9637  3.1832
  959MOL0     H29404   7.549   0.080   4.394  3.3881  2.9155  0.5458
  959MOL0     H29405   7.555  -0.090   4.454 -0.6139  0.3926  1.4776
  959MOL0     H29406   7.735   0.128   4.551 -1.9379 -0.0363 -0.0846
  959MOL0     H29407   7.765  -0.046   4.581 -1.8154  0.4822  1.9662
  959MOL0     H29408   7.805  -0.101   4.350 -2.7215  0.4117 -2.3370
  959MOL0     H29409   7.752   0.051   4.292 -0.0447 -4.5508 -2.0866
  959MOL0     H29410   7.982   0.069   4.268  2.1075  0.8053  0.4193
  959MOL0     H29411   7.944   0.181   4.393  0.1342  0.0726 -0.7428
  959MOL0     H29412   8.012  -0.005   4.575 -0.3821 -1.3946 -0.2804
  959MOL0     H29413   8.119   0.085   4.475  1.4199 -2.5601  1.2327
  959MOL0     H29414   8.150  -0.175   4.496  0.8579  0.3394 -0.3279
  959MOL0     H29415   8.031  -0.193   4.372  0.6340  0.2238 -0.9542
  959MOL0     H29416   8.374  -0.045   4.457  1.1838 -2.9602  0.3081
  959MOL0     H29417   8.579   0.078   4.155  1.3511  1.0189  1.1983
  959MOL0     H29418   8.599   0.032   4.325 -1.6619  1.0216  0.2636
  959MOL0     H29419   8.615  -0.205   4.268  3.9975 -1.2322 -0.5376
  959MOL0     H29420   8.592  -0.157   4.095 -0.8513  0.9696 -0.0593
  959MOL0     H29421   8.816  -0.087   4.297  0.3280 -1.1686  0.2986
  959MOL0     H29422   8.819  -0.031   4.129  1.7462 -0.6462 -0.2244
  959MOL0     H29423   8.825  -0.245   4.032  0.0733 -1.3186  0.3888
  959MOL0     H29424   8.828  -0.332   4.183 -0.0387  0.5249 -0.2276
  959MOL0     H29425   9.252  -0.151   4.128  0.8935  1.0558 -2.2766
  959MOL0     H29426   9.428  -0.294   4.013  0.4392 -1.4584  0.4357
  959MOL0     H29427   9.655  -0.418   3.656 -0.4318  0.9631  1.1140
  959MOL0     H29428   9.907  -0.480   3.596  1.7533 -2.8170 -0.5852
  959MOL0     H29429   9.971  -0.729   3.538 -0.9825  1.4476 -1.0592
  959MOL0     H29430  10.085  -0.594   3.546  1.2177 -0.3433  0.0674
  959MOL0     H29431  10.152  -0.884   3.637 -0.5382  0.5614  1.2853
  959MOL0     H29432  10.194  -0.816   3.471  0.4061  0.3073  0.2896
  959MOL0     H29433  10.310  -0.629   3.595 -0.6598 -0.7484 -2.4326
  959MOL0     H29434  10.313  -0.728   3.734  2.9216 -0.5341  0.3602
  959MOL0     H29435  10.435  -0.807   3.472  1.1216  3.4599 -1.2116
  959MOL0     H29436  10.454  -0.895   3.630  4.1512 -0.0247  0.3493
  959MOL0     H29437  10.595  -0.724   3.726  1.2386  1.5007  0.3414
  959MOL0     H29438  10.569  -0.618   3.594 -1.4298  0.8828  3.4149
  959MOL0     H29439  10.685  -0.904   3.541 -0.5904  0.2131 -1.7479
  959MOL0     H29440  10.663  -0.770   3.433 -3.6219 -0.6313  1.1764
  959MOL0     H29441  10.810  -0.772   3.704 -2.3755 -0.7056 -0.3954
  959MOL0     H29442  10.855  -0.656   3.578  1.5971 -0.7192 -0.2058
  959MOL0     H29443  10.929  -0.954   3.621 -2.2137  0.1221 -0.2807
  959MOL0     H29444  10.917  -0.897   3.454  0.7993 -3.5363  1.5862
  959MOL0     H29445   9.891  -0.754   3.926 -0.4253 -0.4205  0.3262
  959MOL0     H29446   9.669  -0.646   4.000  1.3907 -1.9561  0.7535
  959MOL0     H29447   9.139  -0.584   3.923 -1.3482  1.7566 -2.6038
  959MOL0     H29448   8.968  -0.461   4.035 -0.6056  2.5106 -2.8074
  959MOL0     H29449   7.085   0.211   4.599 -0.0792  3.5067 -1.1259
  959MOL0     H29450   6.848   0.207   4.493  0.3325  2.9823 -1.5461
  959MOL0     H29451   6.588   0.120   3.891  1.4631  2.8610 -0.5226
  959MOL0     H29452   6.351   0.130   3.860 -0.4047 -2.0953  0.4677
  959MOL0     H29453   5.995   0.069   4.087  0.0854 -1.6661 -0.8116
  959MOL0     H29454   6.090   0.122   4.228  0.0112 -1.7472  1.3540
  959MOL0     H29455   6.062  -0.117   4.223  0.9608  1.2373  0.9061
  959MOL0     H29456   6.234  -0.088   4.205  1.4636 -2.4502 -1.7947
  959MOL0     H29457   6.187  -0.253   4.058  2.5496  1.0297 -1.9235
  959MOL0     H29458   6.217  -0.113   3.959  0.6419 -0.5307  0.2712
  959MOL0     H29459   6.046  -0.271   3.887  0.0032  0.0379  1.1680
  959MOL0     H29460   5.937  -0.187   4.010 -1.2059  1.4551 -0.3401
  959MOL0     H29461   5.900   0.079   3.702 -1.6269 -1.6579 -0.0858
  959MOL0     H29462   6.289   0.172   4.277 -3.4627 -1.8683 -2.5335
  959MOL0     H29463   6.583   0.260   4.379  0.4726 -0.1874 -0.8972
  959MOL0     H29464   6.440   0.174   4.435 -0.6291  1.2753  0.1530
  959MOL0     H29465   6.599   0.086   4.400  2.1944  0.6944 -1.6750
  960MOL0     O29466   5.415   6.856   7.856  0.2114 -0.5045 -0.2935
  960MOL0     C29467   5.354   6.778   7.925 -0.4080  0.0166 -0.5256
  960MOL0     O29468   5.374   6.647   7.923 -0.1355 -0.4308 -0.2421
  960MOL0     C29469   5.496   6.604   7.873 -0.0712 -0.1080  0.0970
  960MOL0     C29470   5.618   6.619   7.944  0.1711  0.8621  0.0931
  960MOL0     C29471   5.737   6.561   7.901 -0.4518 -0.4044  0.5000
  960MOL0     C29472   5.741   6.487   7.788  0.6406  0.4531 -0.0444
  960MOL0     O29473   5.858   6.445   7.730  0.2383 -0.3340 -0.0474
  960MOL0     C29474   5.984   6.496   7.763 -0.6681 -0.0424 -0.9032
  960MOL0     C29475   6.062   6.515   7.631  0.2268 -0.0832 -0.4790
  960MOL0     C29476   6.091   6.376   7.566  0.0178 -0.7700 -0.6832
  960MOL0     C29477   6.117   6.401   7.424  0.6232 -0.6747  0.4324
  960MOL0     C29478   6.000   6.445   7.324 -0.0048  0.6665  0.6386
  960MOL0     C29479   6.040   6.435   7.182  0.2096 -0.0905  0.3153
  960MOL0     C29480   5.920   6.446   7.084 -1.2819  0.2873  0.6458
  960MOL0     C29481   5.932   6.583   7.014 -0.6054  0.1686 -1.1531
  960MOL0     N29482   5.826   6.590   6.913  0.6293 -0.0502 -0.5231
  960MOL0     C29483   5.716   6.678   6.921  0.3415  0.9245  0.1642
  960MOL0     C29484   5.653   6.662   6.804 -0.0966 -0.6353  0.4677
  960MOL0     C29485   5.540   6.749   6.771 -0.0859 -0.5462  0.0688
  960MOL0     C29486   5.512   6.869   6.874 -0.6346 -0.3056  0.4006
  960MOL0     C29487   5.414   6.977   6.816  0.7069  0.8190  0.4237
  960MOL0     C29488   5.268   6.936   6.763 -0.9002  0.3251 -0.3931
  960MOL0     O29489   5.213   6.848   6.866  0.6409 -0.4920 -0.3648
  960MOL0     C29490   5.094   6.891   6.923  0.1478 -0.4695 -0.0403
  960MOL0     C29491   4.997   6.949   6.844 -0.8802  0.2143  0.5753
  960MOL0     C29492   4.877   6.996   6.898 -0.3653  0.6286 -0.4671
  960MOL0     C29493   4.844   6.959   7.039 -0.5507 -0.3418 -0.6156
  960MOL0     C29494   4.719   7.003   7.103 -0.1495  0.0188 -0.3505
  960MOL0     O29495   4.688   6.952   7.225 -0.2062  0.3152 -0.7723
  960MOL0     C29496   4.570   6.970   7.295  0.0552  0.5474 -0.1845
  960MOL0     C29497   4.526   7.093   7.321 -0.2482  0.4432  0.5666
  960MOL0     C29498   4.414   7.120   7.393  0.8939  0.4932  0.2928
  960MOL0     C29499   4.339   7.016   7.441  0.2724 -0.0727  0.5129
  960MOL0     O29500   4.231   7.056   7.523  0.4056 -0.0233 -0.0827
  960MOL0     C29501   4.154   6.968   7.606 -0.3763 -0.1068 -0.0644
  960MOL0     C29502   4.226   6.951   7.735  0.5464 -1.1980  0.0185
  960MOL0     C29503   4.228   7.081   7.823  0.2928  0.5675  0.1979
  960MOL0     C29504   4.363   7.151   7.811 -0.1820  0.8620 -0.0358
  960MOL0     C29505   4.370   7.291   7.885 -0.2453 -0.0019  0.0416
  960MOL0     C29506   4.392   7.268   8.034 -0.7072 -0.0305 -0.0618
  960MOL0     C29507   4.392   7.394   8.116  0.4276 -0.3974  0.9655
  960MOL0     C29508   4.365   7.362   8.260 -0.1829 -0.1978  0.0468
  960MOL0    Cl29509   4.327   7.508   8.343  0.3000 -0.2599 -0.2243
  960MOL0     C29510   4.379   6.883   7.419 -0.6636  0.3833 -0.0861
  960MOL0     C29511   4.497   6.862   7.346  0.6171 -0.6340 -0.2473
  960MOL0     O29512   4.643   7.070   7.034 -0.2070 -0.4275 -0.6726
  960MOL0     C29513   4.945   6.894   7.115 -0.2175 -0.2676 -1.2156
  960MOL0     C29514   5.062   6.860   7.054 -0.6464 -0.7951  0.2349
  960MOL0     N29515   5.719   6.570   6.727  0.4995 -0.5920 -0.0705
  960MOL0     N29516   5.833   6.540   6.785  0.0319 -0.7826 -0.9157
  960MOL0     C29517   5.628   6.470   7.720 -0.7479  0.0534  0.0689
  960MOL0     C29518   5.509   6.528   7.754  0.2088  0.2805 -0.5871
  960MOL0     C29519   5.227   6.833   7.980 -0.8879 -0.0743  0.6347
  960MOL0     C29520   5.106   6.746   7.983 -0.7147  0.0698 -1.0257
  960MOL0     C29521   4.993   6.785   8.048  0.3626  0.8305 -0.5693
  960MOL0     C29522   4.987   6.906   8.115 -0.1954  0.5815 -0.4760
  960MOL0     O29523   4.883   6.943   8.190  0.0534 -0.8170 -0.3665
  960MOL0     C29524   4.757   6.887   8.175 -0.0901 -0.7425  0.4384
  960MOL0     C29525   4.651   6.924   8.292  0.5829 -0.7362 -0.6130
  960MOL0     C29526   4.604   7.069   8.283 -0.0856  0.1746 -0.3992
  960MOL0     C29527   4.706   7.158   8.356 -0.2623 -0.0314  0.1025
  960MOL0     C29528   4.706   7.305   8.319 -0.2171  0.2633  0.9073
  960MOL0     C29529   4.698   7.423   8.290  0.6167 -0.5857 -0.5497
  960MOL0     C29530   5.099   6.990   8.110  1.7665 -0.0693  0.7978
  960MOL0     C29531   5.215   6.961   8.042 -0.9165 -0.1926  0.5093
  960MOL0     C29532   5.334   7.055   8.051  0.4086  0.2754 -0.2782
  960MOL0     H29533   5.604   6.677   8.034  1.5330 -0.7107  1.3752
  960MOL0     H29534   5.825   6.564   7.965 -0.1264  0.2279  0.0297
  960MOL0     H29535   5.988   6.587   7.824  1.6567 -1.0031  0.4950
  960MOL0     H29536   6.042   6.437   7.834 -0.2237  0.7020 -0.6359
  960MOL0     H29537   6.150   6.576   7.654 -0.8628  1.1166  0.6240
  960MOL0     H29538   6.003   6.585   7.572 -0.1738 -0.6772 -0.8021
  960MOL0     H29539   6.011   6.302   7.572 -0.9194  0.2970  1.3193
  960MOL0     H29540   6.174   6.333   7.622  2.4784  2.1616 -1.7430
  960MOL0     H29541   6.196   6.475   7.406 -0.3120  0.4131  0.6594
  960MOL0     H29542   6.159   6.306   7.390  0.8769  0.3028 -2.2023
  960MOL0     H29543   5.928   6.366   7.345  1.3655 -0.8199 -0.0701
  960MOL0     H29544   5.950   6.540   7.346 -3.4130 -1.0391  0.7297
  960MOL0     H29545   6.107   6.519   7.166 -2.0848  1.6023 -1.0393
  960MOL0     H29546   6.083   6.334   7.172 -0.2754 -0.2664 -0.0614
  960MOL0     H29547   5.822   6.427   7.130 -1.1283  0.3491  0.9984
  960MOL0     H29548   5.925   6.360   7.016 -1.5714 -0.2902  1.3349
  960MOL0     H29549   5.912   6.656   7.093  2.7980 -2.1801  2.2304
  960MOL0     H29550   6.030   6.610   6.975  0.0726  0.4590  0.6402
  960MOL0     H29551   5.679   6.733   7.007  2.6253 -0.4701  2.1560
  960MOL0     H29552   5.553   6.776   6.666 -3.2486 -0.5823 -0.4138
  960MOL0     H29553   5.456   6.680   6.771 -0.0291 -0.6437 -1.3583
  960MOL0     H29554   5.465   6.837   6.968  0.0375 -1.7482  0.2617
  960MOL0     H29555   5.608   6.920   6.890 -1.2795  3.3316 -4.8076
  960MOL0     H29556   5.466   7.026   6.733  0.6293  3.9608  2.0942
  960MOL0     H29557   5.404   7.051   6.895 -1.8178  3.0940 -1.7998
  960MOL0     H29558   5.255   6.871   6.676 -3.4627 -2.3038  1.7686
  960MOL0     H29559   5.210   7.025   6.739  0.3974  1.0965 -0.7597
  960MOL0     H29560   5.020   6.980   6.742  1.3743  1.9038  1.4943
  960MOL0     H29561   4.809   7.040   6.826  1.6434  2.5125 -1.3403
  960MOL0     H29562   4.582   7.174   7.273  2.3050 -0.8494  1.1904
  960MOL0     H29563   4.371   7.220   7.390  0.5281  0.3340  0.1961
  960MOL0     H29564   4.062   7.024   7.624 -0.9984 -0.7748 -1.0666
  960MOL0     H29565   4.137   6.868   7.565  4.1286 -0.7159 -0.8883
  960MOL0     H29566   4.175   6.877   7.797 -1.7496  0.3888  0.1287
  960MOL0     H29567   4.330   6.916   7.727  0.7638 -0.5409 -0.0604
  960MOL0     H29568   4.147   7.149   7.795 -0.0165 -0.3446 -1.2188
  960MOL0     H29569   4.208   7.046   7.925 -2.0959  0.7342 -0.1541
  960MOL0     H29570   4.386   7.162   7.705  1.7077  1.8758  0.4314
  960MOL0     H29571   4.446   7.092   7.850  2.7361  4.4212 -0.3270
  960MOL0     H29572   4.282   7.353   7.870 -0.2526 -0.3842 -1.7371
  960MOL0     H29573   4.453   7.341   7.835 -1.0174  0.8370 -0.4238
  960MOL0     H29574   4.314   7.202   8.073 -2.9599  1.0121 -2.4693
  960MOL0     H29575   4.489   7.221   8.047 -0.6229  0.7958  2.9705
  960MOL0     H29576   4.322   7.463   8.066  3.6163  0.7317 -2.3561
  960MOL0     H29577   4.483   7.453   8.103 -1.1794  1.5458 -3.5568
  960MOL0     H29578   4.289   7.287   8.280 -1.3388  0.6175 -1.1415
  960MOL0     H29579   4.460   7.327   8.301  0.5588  1.5848 -0.0164
  960MOL0     H29580   4.338   6.789   7.457 -4.3721  2.1594  0.8124
  960MOL0     H29581   4.540   6.765   7.323  1.8068  0.1049 -1.2555
  960MOL0     H29582   4.929   6.873   7.221 -0.8994  0.9008 -1.0678
  960MOL0     H29583   5.138   6.805   7.110 -1.0872 -1.8027 -0.1231
  960MOL0     H29584   5.634   6.409   7.630  2.5811 -1.2777  1.0775
  960MOL0     H29585   5.418   6.525   7.695 -1.2673  1.9873  1.4223
  960MOL0     H29586   5.107   6.642   7.954  0.0837  0.1233 -1.2264
  960MOL0     H29587   4.924   6.705   8.072  0.7241  0.3619 -1.0567
  960MOL0     H29588   4.757   6.778   8.180 -0.0235 -0.7235  0.9597
  960MOL0     H29589   4.725   6.918   8.075 -0.3498 -1.8630  0.1606
  960MOL0     H29590   4.708   6.899   8.382  2.6281 -3.6425 -2.5410
  960MOL0     H29591   4.557   6.869   8.274  0.5563 -1.0188  0.3501
  960MOL0     H29592   4.504   7.083   8.325  0.4989  0.1383  1.0632
  960MOL0     H29593   4.592   7.097   8.178 -1.2416  0.3821 -0.2271
  960MOL0     H29594   4.702   7.135   8.463  0.8790 -0.3553  0.0863
  960MOL0     H29595   4.808   7.127   8.329 -0.3737  0.8912 -1.5052
  960MOL0     H29596   4.693   7.527   8.266 -1.3770 -0.8445 -1.4424
  960MOL0     H29597   5.088   7.086   8.159 -2.2357 -0.9068  1.9039
  960MOL0     H29598   5.426   7.003   8.080  2.4282  2.7907 -1.6298
  960MOL0     H29599   5.353   7.111   7.959 -0.8421 -0.0504 -0.7465
  960MOL0     H29600   5.320   7.123   8.136 -2.2613 -2.3845  1.5983
  961MOL0     O29601   0.024   8.096   3.518  0.1204 -0.1094 -0.3871
  961MOL0     C29602  -0.029   8.203   3.558  0.1892 -0.6176  0.3501
  961MOL0     O29603   0.034   8.300   3.626 -0.0802 -0.0817  0.2514
  961MOL0     C29604   0.173   8.292   3.641  0.5554  0.8590 -0.5588
  961MOL0     C29605   0.226   8.344   3.754 -0.1336 -0.4390 -0.2064
  961MOL0     C29606   0.363   8.328   3.773  0.6751 -0.3901  0.5728
  961MOL0     C29607   0.451   8.295   3.671 -0.5362  0.0483  0.0383
  961MOL0     O29608   0.584   8.294   3.703 -0.1853  0.4367 -0.3627
  961MOL0     C29609   0.648   8.183   3.644 -0.6518  0.9620 -0.7282
  961MOL0     C29610   0.784   8.175   3.703 -0.6345  0.2781 -0.5872
  961MOL0     C29611   0.793   8.151   3.859 -0.3006 -0.5477  0.2057
  961MOL0     C29612   0.901   8.050   3.909  0.8338  0.4019  0.4704
  961MOL0     C29613   0.944   8.068   4.056 -0.4782 -0.7398 -0.5018
  961MOL0     C29614   0.830   8.049   4.151  0.0742  0.3310  0.3107
  961MOL0     C29615   0.868   8.076   4.300  0.0622  0.0976  0.3954
  961MOL0     C29616   0.905   7.944   4.367 -0.0423  0.4874 -0.8355
  961MOL0     N29617   0.979   7.977   4.493 -0.3992  0.7961 -0.8925
  961MOL0     C29618   1.106   7.933   4.520 -0.3021  0.3469 -0.5325
  961MOL0     C29619   1.134   7.982   4.645  0.2012  0.6400  0.1257
  961MOL0     C29620   1.278   7.963   4.702 -0.0992  0.4186  0.3764
  961MOL0     C29621   1.303   7.832   4.786 -0.0831 -0.6541 -0.1783
  961MOL0     C29622   1.443   7.829   4.836  0.0435 -0.6373  0.3727
  961MOL0     C29623   1.461   7.688   4.900  0.6325  0.1306  0.0491
  961MOL0     O29624   1.574   7.692   4.987  0.0480 -0.1101  0.0020
  961MOL0     C29625   1.608   7.573   5.046 -0.0779  0.6264  0.2082
  961MOL0     C29626   1.739   7.581   5.103  0.8439  0.1686  0.4259
  961MOL0     C29627   1.792   7.464   5.170  1.0663  0.2117 -0.3918
  961MOL0     C29628   1.731   7.347   5.177 -0.6108  0.1366  1.3091
  961MOL0     C29629   1.792   7.224   5.242  0.0425  0.3853 -0.1387
  961MOL0     O29630   1.911   7.244   5.303  0.0528  0.0848 -0.2968
  961MOL0     C29631   1.988   7.145   5.371  0.4800 -0.4321 -0.4314
  961MOL0     C29632   1.984   7.005   5.343  0.5262 -0.3050 -0.1800
  961MOL0     C29633   2.060   6.916   5.417  1.2570  0.2308  0.1322
  961MOL0     C29634   2.149   6.961   5.515  0.5143  0.6137  0.0809
  961MOL0     O29635   2.216   6.860   5.586 -0.2489 -0.9723  0.0166
  961MOL0     C29636   2.330   6.905   5.663  0.3040 -0.2575 -0.5085
  961MOL0     C29637   2.451   6.963   5.580  0.1116 -0.9495  0.2627
  961MOL0     C29638   2.552   6.864   5.538 -0.7407 -0.3680 -0.0788
  961MOL0     C29639   2.675   6.928   5.455  1.0261 -0.3390 -0.0831
  961MOL0     C29640   2.755   6.828   5.387 -0.4596  0.0785  0.1074
  961MOL0     C29641   2.848   6.738   5.473 -0.5425  0.3681 -0.0613
  961MOL0     C29642   2.933   6.634   5.400  0.0444 -0.5570 -0.6551
  961MOL0     C29643   3.030   6.711   5.304 -0.2066  0.2355 -0.5279
  961MOL0    Cl29644   3.127   6.584   5.234 -0.1859 -0.4946 -0.0849
  961MOL0     C29645   2.147   7.099   5.539  0.0534 -0.3193  0.2074
  961MOL0     C29646   2.073   7.191   5.464 -0.1745 -0.2042 -0.7641
  961MOL0     O29647   1.730   7.116   5.236  0.5964  0.5185  0.4657
  961MOL0     C29648   1.607   7.337   5.108 -0.7499 -0.3169  0.8272
  961MOL0     C29649   1.550   7.446   5.043  0.1259 -0.5493 -0.0101
  961MOL0     N29650   1.025   8.052   4.695 -1.0723  0.3132 -0.4654
  961MOL0     N29651   0.936   8.053   4.602 -0.2640 -0.2091  0.1358
  961MOL0     C29652   0.396   8.274   3.548  0.4743  0.5667  0.0960
  961MOL0     C29653   0.259   8.264   3.532  1.3094  0.7062  0.3537
  961MOL0     C29654  -0.170   8.225   3.521  0.7321 -0.2159  0.4754
  961MOL0     C29655  -0.214   8.347   3.456  0.2242 -0.4862 -0.5442
  961MOL0     C29656  -0.344   8.374   3.430 -0.3438 -0.1397  0.5669
  961MOL0     C29657  -0.444   8.286   3.462  0.0998 -0.2758 -0.0961
  961MOL0     O29658  -0.577   8.306   3.418 -0.2451  0.6219 -0.8928
  961MOL0     C29659  -0.617   8.424   3.356 -1.0261 -0.2760  0.8460
  961MOL0     C29660  -0.755   8.384   3.299 -0.2342 -0.0333 -0.3958
  961MOL0     C29661  -0.851   8.496   3.263 -0.1752  0.3276 -0.6293
  961MOL0     C29662  -0.978   8.436   3.189 -0.1576 -0.5495  0.4281
  961MOL0     C29663  -1.101   8.514   3.187 -0.1934 -0.4822 -0.3292
  961MOL0     C29664  -1.208   8.568   3.157  0.2449  0.4384 -0.9377
  961MOL0     C29665  -0.411   8.166   3.515 -0.1717  0.8238  0.2311
  961MOL0     C29666  -0.276   8.137   3.549 -0.1584  0.4376  0.9494
  961MOL0     C29667  -0.249   7.994   3.596 -0.5273 -0.2543  0.3059
  961MOL0     H29668   0.171   8.368   3.845 -0.2817 -2.6674  0.3403
  961MOL0     H29669   0.398   8.368   3.868 -0.2017 -1.3489  1.3255
  961MOL0     H29670   0.591   8.093   3.667  3.2005 -2.6212 -3.7834
  961MOL0     H29671   0.669   8.186   3.537  0.4032 -0.2280 -0.5766
  961MOL0     H29672   0.835   8.268   3.677  1.5728 -0.2981  1.3540
  961MOL0     H29673   0.839   8.091   3.659  0.3876  0.7628 -0.2596
  961MOL0     H29674   0.696   8.122   3.900 -1.0835  1.3235 -0.1768
  961MOL0     H29675   0.826   8.248   3.896  0.0219 -0.8439  0.6936
  961MOL0     H29676   0.856   7.952   3.892  0.4514  0.8905 -1.6447
  961MOL0     H29677   0.992   8.051   3.848  1.1186  2.4832  0.8470
  961MOL0     H29678   1.025   8.002   4.088  0.7019  0.1553 -1.5461
  961MOL0     H29679   0.981   8.170   4.069  1.2754 -0.9920 -2.7368
  961MOL0     H29680   0.755   8.127   4.133 -0.3231 -0.8454 -4.5012
  961MOL0     H29681   0.782   7.951   4.140 -0.8253  0.3661  3.0191
  961MOL0     H29682   0.795   8.138   4.352 -1.6065 -2.0382  0.7490
  961MOL0     H29683   0.965   8.127   4.297  0.8666 -1.1800  2.3941
  961MOL0     H29684   0.828   7.882   4.416  0.7101  0.1431 -0.0575
  961MOL0     H29685   0.973   7.885   4.305 -0.9823 -0.4647 -1.0061
  961MOL0     H29686   1.170   7.882   4.449 -0.9376  2.0162 -2.3645
  961MOL0     H29687   1.353   7.962   4.622  1.7536  3.8468  1.8395
  961MOL0     H29688   1.294   8.044   4.774  0.5227 -3.7075  5.4228
  961MOL0     H29689   1.234   7.846   4.870 -1.7181  1.6152 -1.7740
  961MOL0     H29690   1.275   7.746   4.724 -0.3868 -1.2819  0.8122
  961MOL0     H29691   1.469   7.910   4.904  1.1345  0.5158 -1.3287
  961MOL0     H29692   1.507   7.834   4.747 -0.5114 -0.6613 -0.0333
  961MOL0     H29693   1.487   7.622   4.817  1.1521  0.4861 -0.0762
  961MOL0     H29694   1.369   7.651   4.946 -1.9005  0.5360 -4.1137
  961MOL0     H29695   1.794   7.674   5.095 -1.1159  1.1973 -2.8223
  961MOL0     H29696   1.876   7.480   5.237 -0.8213  0.7276  2.0012
  961MOL0     H29697   1.911   6.964   5.274  1.8662 -2.2950 -0.5032
  961MOL0     H29698   2.049   6.813   5.386  2.8403  1.1109 -4.0175
  961MOL0     H29699   2.301   6.983   5.734  0.3815 -0.7968  0.1238
  961MOL0     H29700   2.372   6.817   5.714  0.2442 -1.4900 -2.4709
  961MOL0     H29701   2.410   7.007   5.489 -1.6192  0.8509  1.7949
  961MOL0     H29702   2.499   7.042   5.639 -1.3400 -0.1261  0.4033
  961MOL0     H29703   2.593   6.827   5.632 -0.6799  0.9252  0.4169
  961MOL0     H29704   2.509   6.781   5.481  3.0532 -1.2487 -1.9614
  961MOL0     H29705   2.741   6.968   5.533 -0.3893 -0.5061  1.2596
  961MOL0     H29706   2.639   7.012   5.395 -1.8199  0.4804  2.5353
  961MOL0     H29707   2.810   6.870   5.303  0.5472 -3.6675 -1.3252
  961MOL0     H29708   2.680   6.759   5.346 -2.1715  1.5415  0.6195
  961MOL0     H29709   2.921   6.802   5.523 -1.7251 -0.6363  3.2280
  961MOL0     H29710   2.799   6.680   5.552 -0.9145 -1.9431 -1.8500
  961MOL0     H29711   2.867   6.570   5.341  0.0503 -1.6452  0.4909
  961MOL0     H29712   2.989   6.572   5.469 -0.3695  1.7450  1.9254
  961MOL0     H29713   2.980   6.759   5.220  1.6968  0.0476 -1.8491
  961MOL0     H29714   3.096   6.776   5.362 -0.1884 -0.0357 -0.2428
  961MOL0     H29715   2.216   7.134   5.615 -0.8620 -0.7908  1.2908
  961MOL0     H29716   2.065   7.299   5.472 -3.4700 -0.4099  0.3480
  961MOL0     H29717   1.547   7.247   5.093 -0.3889  0.0071 -4.1274
  961MOL0     H29718   1.452   7.454   4.999  1.0060  2.5588 -1.7347
  961MOL0     H29719   0.467   8.245   3.472  0.5447 -0.6684  0.5997
  961MOL0     H29720   0.210   8.251   3.436 -1.6284 -0.7087  1.8904
  961MOL0     H29721  -0.132   8.417   3.446  0.8282 -1.1378 -0.2907
  961MOL0     H29722  -0.353   8.465   3.370  1.5638  0.3952  1.0254
  961MOL0     H29723  -0.554   8.458   3.274 -1.1337 -1.9840  0.0030
  961MOL0     H29724  -0.618   8.510   3.423 -1.6798  1.3389 -1.1467
  961MOL0     H29725  -0.798   8.316   3.373  0.5284  0.6758  0.7206
  961MOL0     H29726  -0.730   8.333   3.205 -0.9461  0.6565 -0.9727
  961MOL0     H29727  -0.815   8.565   3.186 -0.1404  0.2130 -0.7171
  961MOL0     H29728  -0.885   8.547   3.353 -0.5392  0.2660 -0.7323
  961MOL0     H29729  -0.953   8.420   3.084 -3.1628  0.9870 -0.6298
  961MOL0     H29730  -1.010   8.342   3.237 -2.0816  0.2871  0.8564
  961MOL0     H29731  -1.306   8.605   3.133 -0.3654  1.2179  2.2928
  961MOL0     H29732  -0.482   8.085   3.526  1.4961 -0.6070  0.7883
  961MOL0     H29733  -0.223   7.935   3.509  0.4997 -0.5778  0.8148
  961MOL0     H29734  -0.164   7.995   3.666  0.4918  0.9015 -0.8981
  961MOL0     H29735  -0.333   7.962   3.659 -1.3003  1.3630  0.1513
  962MOL0     O29736   3.324   0.462   3.662  0.3628  0.7307 -0.3802
  962MOL0     C29737   3.343   0.452   3.782 -0.1730 -0.9673 -0.3164
  962MOL0     O29738   3.464   0.497   3.835 -0.3616  0.1412 -0.1278
  962MOL0     C29739   3.542   0.570   3.753 -0.0606  0.3032 -0.6885
  962MOL0     C29740   3.620   0.500   3.661  0.3733 -0.1516  0.1865
  962MOL0     C29741   3.721   0.571   3.593 -0.8547  0.3834 -0.6604
  962MOL0     C29742   3.741   0.707   3.617 -0.1010 -0.5862  0.0275
  962MOL0     O29743   3.838   0.779   3.552 -0.9467  0.4886 -0.0382
  962MOL0     C29744   3.911   0.714   3.446  0.2809 -0.4501 -0.0561
  962MOL0     C29745   4.005   0.827   3.388 -0.2335  0.7477  0.1695
  962MOL0     C29746   4.107   0.770   3.294 -0.0916 -0.2782 -0.3855
  962MOL0     C29747   4.223   0.867   3.299 -0.7514  0.1984 -0.2754
  962MOL0     C29748   4.344   0.806   3.222 -0.5279 -0.9564  0.0866
  962MOL0     C29749   4.462   0.898   3.223  0.0404  0.1146 -0.8453
  962MOL0     C29750   4.601   0.828   3.236  0.5054 -1.2900  1.0039
  962MOL0     C29751   4.634   0.724   3.130 -0.7878  0.0686  0.2532
  962MOL0     N29752   4.750   0.628   3.169 -0.1432  0.1311  0.4896
  962MOL0     C29753   4.880   0.675   3.194 -0.3429 -0.1592 -0.5158
  962MOL0     C29754   4.960   0.575   3.157 -0.3296 -0.2518  0.2735
  962MOL0     C29755   5.110   0.591   3.138 -0.3261 -0.6590 -0.2186
  962MOL0     C29756   5.136   0.604   2.993  0.4684 -0.0845  0.4901
  962MOL0     C29757   5.113   0.747   2.924 -0.3318  1.4578 -0.4155
  962MOL0     C29758   5.194   0.864   2.988  0.1976 -0.3506 -0.4553
  962MOL0     O29759   5.325   0.836   2.970 -0.1756  0.6765 -0.5309
  962MOL0     C29760   5.416   0.938   3.003  0.7561  1.4038  1.0119
  962MOL0     C29761   5.387   1.061   3.063 -0.6074 -0.0632  0.5020
  962MOL0     C29762   5.486   1.148   3.104  0.4235 -0.4408 -0.8940
  962MOL0     C29763   5.622   1.117   3.074  0.1132 -0.6093  0.2079
  962MOL0     C29764   5.730   1.210   3.116 -0.1256 -0.3554 -1.0194
  962MOL0     O29765   5.859   1.180   3.086  0.6140 -0.0417 -0.9836
  962MOL0     C29766   5.967   1.254   3.135 -0.6035 -0.2546 -0.3821
  962MOL0     C29767   6.007   1.381   3.091  0.8792  1.1382  0.1901
  962MOL0     C29768   6.116   1.451   3.145 -0.7295  1.3844  0.7387
  962MOL0     C29769   6.185   1.401   3.258  0.1226  0.0228 -0.4600
  962MOL0     O29770   6.282   1.478   3.296 -0.5652 -0.7542  0.4045
  962MOL0     C29771   6.378   1.436   3.396 -0.7608  0.5630  0.4521
  962MOL0     C29772   6.499   1.532   3.382 -0.3196  0.3950 -0.0492
  962MOL0     C29773   6.599   1.518   3.503  0.3365 -0.0601 -0.0255
  962MOL0     C29774   6.732   1.590   3.468  0.1760  0.9324  0.2786
  962MOL0     C29775   6.734   1.745   3.453  0.7479  0.4636 -0.4799
  962MOL0     C29776   6.702   1.830   3.578 -0.3018 -0.1275  0.0552
  962MOL0     C29777   6.804   1.807   3.692  0.2282  1.0051  0.1025
  962MOL0     C29778   6.770   1.900   3.807 -0.5488  0.8766  0.7311
  962MOL0    Cl29779   6.800   2.065   3.758  0.1493 -0.3947 -0.1412
  962MOL0     C29780   6.149   1.272   3.304  0.8494 -0.3530 -0.0511
  962MOL0     C29781   6.042   1.202   3.242 -0.1557  1.0078 -0.6033
  962MOL0     O29782   5.696   1.304   3.183 -0.1048  0.4961  0.2422
  962MOL0     C29783   5.652   1.000   3.003 -0.2399 -0.4647 -0.7603
  962MOL0     C29784   5.551   0.908   2.980 -0.1624  0.3720  0.4734
  962MOL0     N29785   4.880   0.467   3.115 -0.1804 -0.3877  0.4474
  962MOL0     N29786   4.755   0.501   3.131  0.2414 -0.3560 -0.3141
  962MOL0     C29787   3.661   0.777   3.708  0.8112 -0.6070  0.1186
  962MOL0     C29788   3.557   0.712   3.775 -0.1078 -0.3351 -0.1705
  962MOL0     C29789   3.235   0.395   3.874 -0.4255 -1.1046  0.5700
  962MOL0     C29790   3.283   0.307   3.976 -0.4342 -0.3825  0.7719
  962MOL0     C29791   3.201   0.253   4.073  1.0116 -0.2169  0.1142
  962MOL0     C29792   3.067   0.284   4.068  0.6388 -0.1656 -0.1904
  962MOL0     O29793   2.988   0.223   4.166 -0.2872  0.7462  0.6381
  962MOL0     C29794   2.841   0.223   4.151 -1.1414 -0.1771  0.2749
  962MOL0     C29795   2.794   0.132   4.040  0.1990  0.5248  0.7857
  962MOL0     C29796   2.713   0.003   4.086 -0.4454 -0.2287 -0.1193
  962MOL0     C29797   2.580   0.034   4.150 -0.0982 -0.6034 -0.1057
  962MOL0     C29798   2.495   0.124   4.069  0.1817 -0.5158  0.1611
  962MOL0     C29799   2.434   0.193   3.988  0.7863  1.0603  0.3589
  962MOL0     C29800   3.016   0.369   3.969  0.6594  0.1042  0.0855
  962MOL0     C29801   3.097   0.428   3.871  0.1231  0.6116 -0.1508
  962MOL0     C29802   3.051   0.524   3.775  0.1277 -0.7838  0.2831
  962MOL0     H29803   3.607   0.395   3.640  2.7841 -1.2517  3.4333
  962MOL0     H29804   3.776   0.509   3.523 -0.1394 -0.3442  0.5265
  962MOL0     H29805   3.957   0.623   3.486  1.4504 -0.0265 -0.3892
  962MOL0     H29806   3.842   0.694   3.363 -0.3910 -0.3348  0.4634
  962MOL0     H29807   4.059   0.866   3.475 -0.2392 -0.1636  0.5911
  962MOL0     H29808   3.950   0.910   3.343 -1.5901  0.4095  1.1558
  962MOL0     H29809   4.066   0.765   3.193 -0.2665  2.9959 -0.5850
  962MOL0     H29810   4.147   0.675   3.330 -0.0165 -0.1761 -0.1975
  962MOL0     H29811   4.184   0.957   3.251  0.7708  1.0504  0.0266
  962MOL0     H29812   4.253   0.891   3.401  0.3386 -2.1493  0.0094
  962MOL0     H29813   4.352   0.709   3.272 -2.4230 -1.0517  0.2840
  962MOL0     H29814   4.305   0.781   3.123 -1.0586 -0.3260  0.1348
  962MOL0     H29815   4.456   0.964   3.136 -1.0963  0.5911 -0.4301
  962MOL0     H29816   4.453   0.964   3.310  1.5658  0.1784 -0.7206
  962MOL0     H29817   4.606   0.778   3.333 -0.0261 -2.4151  0.4626
  962MOL0     H29818   4.681   0.903   3.243  1.6477 -2.4590  0.9147
  962MOL0     H29819   4.549   0.657   3.111  0.6945 -1.9557  0.4246
  962MOL0     H29820   4.658   0.775   3.036 -2.8064  0.9832  0.1784
  962MOL0     H29821   4.910   0.778   3.214 -1.9933  0.5888 -1.5799
  962MOL0     H29822   5.150   0.681   3.184 -1.5439  0.4740 -1.2889
  962MOL0     H29823   5.173   0.514   3.183 -0.3699 -0.4857  0.1444
  962MOL0     H29824   5.243   0.587   2.984  0.4689  0.1509 -0.0097
  962MOL0     H29825   5.089   0.523   2.936  2.3842 -0.9263  0.0250
  962MOL0     H29826   5.009   0.780   2.934 -0.5146  0.5477  0.9004
  962MOL0     H29827   5.130   0.747   2.816 -1.0579  4.3194 -0.6037
  962MOL0     H29828   5.168   0.884   3.093 -0.4468 -2.7837 -0.0825
  962MOL0     H29829   5.166   0.953   2.932 -0.9626  0.1579  0.8631
  962MOL0     H29830   5.283   1.090   3.072 -0.9147  0.1245 -2.6866
  962MOL0     H29831   5.462   1.244   3.148  0.2314 -1.2057  0.7510
  962MOL0     H29832   5.959   1.428   3.006 -0.2490  2.8063  1.6607
  962MOL0     H29833   6.151   1.546   3.105  2.0548  0.1129 -0.1291
  962MOL0     H29834   6.337   1.456   3.495 -0.7280 -2.0588  1.0588
  962MOL0     H29835   6.410   1.332   3.389 -3.8338 -0.3520 -3.3977
  962MOL0     H29836   6.552   1.498   3.293 -3.1871 -1.2415 -1.2660
  962MOL0     H29837   6.455   1.631   3.369  0.9669  0.8760 -0.8227
  962MOL0     H29838   6.567   1.562   3.598  0.5483  0.6159 -0.2543
  962MOL0     H29839   6.621   1.412   3.519 -3.6565 -1.1853 -0.9344
  962MOL0     H29840   6.772   1.532   3.384 -0.9901 -2.2106  1.7311
  962MOL0     H29841   6.803   1.555   3.544  1.2610  1.8353 -0.2947
  962MOL0     H29842   6.665   1.772   3.372  3.8370  3.4637 -2.3648
  962MOL0     H29843   6.837   1.768   3.427  1.3548 -0.4241  1.0318
  962MOL0     H29844   6.700   1.938   3.558  3.0387  0.1012  0.2557
  962MOL0     H29845   6.599   1.810   3.607 -0.4872  0.7608  0.0469
  962MOL0     H29846   6.905   1.828   3.655  1.3626 -2.8051  0.6827
  962MOL0     H29847   6.801   1.702   3.719 -1.3826  1.2748  1.0683
  962MOL0     H29848   6.670   1.888   3.849 -0.7702 -1.3987 -0.3092
  962MOL0     H29849   6.845   1.868   3.880  0.6981  2.4229  0.1939
  962MOL0     H29850   6.206   1.229   3.386 -0.4962 -1.0002  0.5727
  962MOL0     H29851   6.019   1.101   3.274  2.4636 -0.0813 -1.8192
  962MOL0     H29852   5.755   0.977   2.977  0.4684 -0.0519  1.4277
  962MOL0     H29853   5.589   0.822   2.925  0.9425  1.0403  0.1711
  962MOL0     H29854   3.669   0.884   3.724 -0.6938 -0.5649  0.7724
  962MOL0     H29855   3.496   0.772   3.842 -0.7997 -0.9073 -0.2704
  962MOL0     H29856   3.389   0.287   3.972 -0.1003  1.3469  0.4322
  962MOL0     H29857   3.237   0.184   4.148  0.4650 -1.0131 -0.3385
  962MOL0     H29858   2.799   0.324   4.141  0.7962  0.6934  0.3598
  962MOL0     H29859   2.804   0.185   4.247 -0.9820  2.5287  1.5248
  962MOL0     H29860   2.879   0.107   3.976 -0.6291 -2.2513  0.6199
  962MOL0     H29861   2.742   0.184   3.960  0.3554  0.1312  0.4225
  962MOL0     H29862   2.784  -0.053   4.149  1.2878  1.2631 -0.6559
  962MOL0     H29863   2.697  -0.056   3.995  1.4368  2.9131 -2.7034
  962MOL0     H29864   2.528  -0.061   4.165 -1.3608 -0.1841 -1.6135
  962MOL0     H29865   2.592   0.080   4.249  0.9987 -1.0302 -0.0226
  962MOL0     H29866   2.360   0.251   3.936 -0.8560  1.3491  2.8502
  962MOL0     H29867   2.912   0.395   3.982  0.8298 -0.0962  2.0173
  962MOL0     H29868   3.117   0.611   3.768  0.7559 -1.2467  0.4069
  962MOL0     H29869   3.025   0.482   3.678 -3.6393  0.1426  0.7158
  962MOL0     H29870   2.952   0.560   3.806  0.3629  0.0631  0.0729
  963MOL0     O29871   2.920   1.015  10.492 -0.3887 -0.4997  1.2210
  963MOL0     C29872   2.827   1.042  10.416 -0.3657  0.3600 -0.7390
  963MOL0     O29873   2.827   1.012  10.279 -0.6433  0.0272  0.0917
  963MOL0     C29874   2.944   0.962  10.225 -0.2488 -0.6264 -0.1368
  963MOL0     C29875   2.960   0.820  10.210 -0.3057 -0.4783 -0.0086
  963MOL0     C29876   3.073   0.768  10.159 -0.8707  0.2405 -0.1210
  963MOL0     C29877   3.178   0.852  10.125 -0.1352  0.4252  0.0832
  963MOL0     O29878   3.293   0.787  10.098  0.7397  0.0693 -0.0384
  963MOL0     C29879   3.409   0.861  10.071  0.9944  0.4317  0.2620
  963MOL0     C29880   3.533   0.769  10.088  0.1311 -0.7132  0.3447
  963MOL0     C29881   3.660   0.850  10.060 -0.3439 -0.5059  0.1336
  963MOL0     C29882   3.776   0.752  10.025  0.2171  0.5639  0.4292
  963MOL0     C29883   3.921   0.819  10.036  0.0829  0.3245  1.0423
  963MOL0     C29884   3.958   0.872  10.180 -0.1548  0.4996 -0.0104
  963MOL0     C29885   4.100   0.929  10.190 -0.2647  0.0702 -0.0853
  963MOL0     C29886   4.208   0.815  10.182 -0.0484 -0.5516 -0.2589
  963MOL0     N29887   4.339   0.877  10.179  0.3591 -0.3147 -0.7746
  963MOL0     C29888   4.396   0.937  10.287 -0.1356  0.0373 -0.6699
  963MOL0     C29889   4.523   0.968  10.242 -0.1751 -0.6676 -0.5957
  963MOL0     C29890   4.634   1.031  10.320  0.5249  0.3531  0.2056
  963MOL0     C29891   4.642   1.174  10.272 -0.3582 -0.5867  0.4363
  963MOL0     C29892   4.717   1.276  10.359 -0.6753  0.4112 -0.4124
  963MOL0     C29893   4.869   1.275  10.343 -0.4228 -0.0510 -0.1313
  963MOL0     O29894   4.901   1.302  10.210  0.3218 -0.2001 -0.1404
  963MOL0     C29895   4.994   1.405  10.189 -0.8121  0.0993  0.1760
  963MOL0     C29896   5.112   1.395  10.257 -0.0600 -0.6207 -0.3234
  963MOL0     C29897   5.198   1.510  10.250 -0.1380 -0.1174 -0.5691
  963MOL0     C29898   5.169   1.627  10.178 -0.3642 -0.0851  0.4333
  963MOL0     C29899   5.247   1.744  10.189  0.3100  0.3881 -0.0459
  963MOL0     O29900   5.183   1.851  10.128 -0.3157 -0.3227  0.1873
  963MOL0     C29901   5.227   1.972  10.171  0.5554 -1.0151  0.2286
  963MOL0     C29902   5.172   2.031  10.285  0.2914  0.7372  1.0084
  963MOL0     C29903   5.219   2.152  10.331  0.0084 -0.4713  1.3825
  963MOL0     C29904   5.319   2.212  10.256  0.5728  0.0299 -0.0024
  963MOL0     O29905   5.341   2.336  10.307  0.8223 -0.1467  0.7545
  963MOL0     C29906   5.432   2.430  10.239 -0.7838 -0.0620  0.1074
  963MOL0     C29907   5.426   2.565  10.306 -1.0186 -0.8811 -0.5583
  963MOL0     C29908   5.278   2.623  10.283  0.4866  0.4059  0.4837
  963MOL0     C29909   5.264   2.774  10.304  0.0857 -0.3731  0.4359
  963MOL0     C29910   5.115   2.823  10.303  0.3189  0.3479  0.7172
  963MOL0     C29911   5.115   2.979  10.320  0.2843 -1.0043  0.6920
  963MOL0     C29912   4.973   3.031  10.332 -0.1234 -0.2237 -0.2599
  963MOL0     C29913   4.905   3.066  10.195  0.3754 -0.5587  0.7714
  963MOL0    Cl29914   4.849   2.936  10.095 -0.2898  0.3056  0.1428
  963MOL0     C29915   5.379   2.154  10.142  0.3274  0.7028  0.7259
  963MOL0     C29916   5.339   2.026  10.101  0.7319  0.4234 -0.7168
  963MOL0     O29917   5.352   1.752  10.254  0.4159  0.1259 -0.1885
  963MOL0     C29918   5.048   1.620  10.112  1.2950 -0.5622 -0.8886
  963MOL0     C29919   4.958   1.513  10.116 -0.5228 -0.4399  0.0140
  963MOL0     N29920   4.541   0.921  10.111  0.0227 -0.7765  0.1546
  963MOL0     N29921   4.425   0.869  10.075 -0.2446  0.3919  0.6151
  963MOL0     C29922   3.158   0.993  10.121 -1.0629 -0.4432 -0.1802
  963MOL0     C29923   3.041   1.044  10.168  0.5433 -0.1395  0.1784
  963MOL0     C29924   2.695   1.095  10.472 -1.1710 -0.2514  0.5106
  963MOL0     C29925   2.601   1.136  10.377  0.3816  0.2425  1.1636
  963MOL0     C29926   2.472   1.185  10.413 -0.0196 -0.3976  0.6993
  963MOL0     C29927   2.439   1.190  10.551 -0.2621  0.1771  0.0815
  963MOL0     O29928   2.308   1.228  10.583 -0.4204 -0.2230  0.2168
  963MOL0     C29929   2.193   1.179  10.505 -0.0075  1.0371  0.0810
  963MOL0     C29930   2.070   1.159  10.597  0.6432  0.8840 -0.1656
  963MOL0     C29931   2.069   1.256  10.717 -0.5205 -0.2670  0.1711
  963MOL0     C29932   1.939   1.238  10.797 -0.2648  0.4906  0.3377
  963MOL0     C29933   1.812   1.273  10.721  0.2715 -0.6112  0.4351
  963MOL0     C29934   1.711   1.311  10.660 -0.0894 -0.1432  0.2672
  963MOL0     C29935   2.538   1.154  10.640  0.3608  0.1278 -0.5505
  963MOL0     C29936   2.667   1.116  10.612 -0.2782  1.1807  0.0341
  963MOL0     C29937   2.766   1.086  10.719 -1.2769  0.1966 -0.1681
  963MOL0     H29938   2.885   0.755  10.254  0.1588 -0.2963  1.0936
  963MOL0     H29939   3.079   0.661  10.146  0.9981 -0.1393  2.8396
  963MOL0     H29940   3.399   0.899   9.969 -1.4725 -4.7514 -1.7890
  963MOL0     H29941   3.419   0.943  10.142  0.9921  2.2992 -1.7854
  963MOL0     H29942   3.510   0.687  10.020  2.1165  0.2186 -1.5505
  963MOL0     H29943   3.539   0.715  10.183 -1.4098 -0.5340  0.5762
  963MOL0     H29944   3.676   0.902  10.155 -0.0436 -0.2184 -0.0717
  963MOL0     H29945   3.641   0.921   9.979  3.6583 -0.6891 -1.1704
  963MOL0     H29946   3.775   0.669  10.097 -1.2184  0.6081  0.4909
  963MOL0     H29947   3.762   0.703   9.929  0.4682  0.6136  0.3669
  963MOL0     H29948   3.980   0.736   9.997  0.2557  0.4497  1.0340
  963MOL0     H29949   3.928   0.903   9.966  1.0476 -1.2962 -0.8857
  963MOL0     H29950   3.882   0.946  10.206 -2.1025 -1.6685  0.8346
  963MOL0     H29951   3.939   0.794  10.255  1.5778  0.7077  0.6886
  963MOL0     H29952   4.113   0.993  10.278 -0.5976 -1.3805  1.0617
  963MOL0     H29953   4.123   0.982  10.097  2.3347  1.0538  1.0078
  963MOL0     H29954   4.197   0.738  10.259 -3.4056  0.7242  0.6910
  963MOL0     H29955   4.192   0.760  10.089  0.3311 -1.7764  0.3749
  963MOL0     H29956   4.360   0.960  10.387  0.9620  4.4193 -1.0631
  963MOL0     H29957   4.621   1.025  10.429  1.9786 -2.8394  0.3143
  963MOL0     H29958   4.725   0.978  10.290  0.2711 -0.0350  0.1114
  963MOL0     H29959   4.693   1.166  10.175 -1.9756  0.6979 -0.5811
  963MOL0     H29960   4.541   1.214  10.255  0.0944  0.0746 -0.8525
  963MOL0     H29961   4.703   1.259  10.466  5.1481  1.7981  0.9336
  963MOL0     H29962   4.678   1.374  10.331 -1.1439  0.4037  0.1900
  963MOL0     H29963   4.908   1.177  10.371  1.7479  0.4993 -0.9727
  963MOL0     H29964   4.911   1.345  10.417 -2.1730  0.7428  0.1738
  963MOL0     H29965   5.137   1.307  10.315 -0.3772 -2.3653 -2.6722
  963MOL0     H29966   5.294   1.516  10.301 -0.6217  3.3574  0.1935
  963MOL0     H29967   5.089   1.981  10.333  1.6524 -0.6552  2.0063
  963MOL0     H29968   5.171   2.203  10.414 -0.9688  0.9017  0.0323
  963MOL0     H29969   5.535   2.394  10.244 -1.1785 -1.4277 -1.1656
  963MOL0     H29970   5.400   2.436  10.135  0.9550 -3.3246 -0.7297
  963MOL0     H29971   5.457   2.554  10.410 -2.1963 -2.4030 -0.3257
  963MOL0     H29972   5.495   2.630  10.252  0.6059 -4.0685 -2.6261
  963MOL0     H29973   5.226   2.597  10.190 -1.2148  0.6101  1.3259
  963MOL0     H29974   5.219   2.575  10.362  1.6667  0.5181  1.4734
  963MOL0     H29975   5.312   2.845  10.236 -0.3044 -1.2954 -0.8252
  963MOL0     H29976   5.293   2.805  10.405  0.7141 -1.7077  0.6850
  963MOL0     H29977   5.073   2.766  10.386  1.6920 -2.6402 -0.5053
  963MOL0     H29978   5.068   2.804  10.207  2.7536 -0.6990 -0.3519
  963MOL0     H29979   5.164   3.015  10.411  3.4066 -0.1056 -1.2029
  963MOL0     H29980   5.161   3.036  10.238  0.2099  1.8390  2.4740
  963MOL0     H29981   4.964   3.126  10.386 -1.2963 -0.1981 -0.4657
  963MOL0     H29982   4.914   2.953  10.381 -2.6268  1.1157 -0.9417
  963MOL0     H29983   4.813   3.124  10.205 -0.6704 -1.6952 -1.5029
  963MOL0     H29984   4.971   3.136  10.143  0.7524 -0.7524  0.9878
  963MOL0     H29985   5.480   2.184  10.114  0.5488 -1.1183 -0.6387
  963MOL0     H29986   5.389   1.964  10.027  3.0555  2.2125 -0.7750
  963MOL0     H29987   5.008   1.708  10.064  3.0597 -0.7646 -2.9143
  963MOL0     H29988   4.858   1.527  10.076 -1.1893 -2.6735  0.7890
  963MOL0     H29989   3.236   1.054  10.077 -2.0876  1.2785  0.3002
  963MOL0     H29990   3.023   1.151  10.161  0.7838 -0.1813 -1.6261
  963MOL0     H29991   2.620   1.117  10.272  0.0722 -1.7001  1.4223
  963MOL0     H29992   2.414   1.223  10.329  2.6668 -0.8320 -1.5256
  963MOL0     H29993   2.212   1.082  10.459  0.5536  0.1437  2.1010
  963MOL0     H29994   2.162   1.262  10.440  0.3433  2.4607  1.6437
  963MOL0     H29995   2.079   1.057  10.637  1.8811  1.5680  1.3723
  963MOL0     H29996   1.984   1.157  10.530 -0.2906 -0.7138  1.0073
  963MOL0     H29997   2.075   1.355  10.669 -1.1053 -0.3351 -0.0486
  963MOL0     H29998   2.153   1.258  10.787 -0.9187  0.7486  0.6391
  963MOL0     H29999   1.931   1.131  10.818 -0.4265 -0.1874 -2.6470
  963MOL0     H30000   1.941   1.279  10.898 -2.5292 -3.7129  2.3830
  963MOL0     H30001   1.630   1.362  10.613  0.2352  0.1900  0.0632
  963MOL0     H30002   2.522   1.168  10.747 -2.1120 -3.0024 -0.3532
  963MOL0     H30003   2.771   0.980  10.743 -2.7871  0.4433  1.4238
  963MOL0     H30004   2.866   1.119  10.689 -0.4955  0.3105  2.3381
  963MOL0     H30005   2.753   1.145  10.810 -0.4690 -1.5489  1.1263
  964MOL0     O30006   8.985   4.929   7.246 -0.2753  0.5428 -0.0315
  964MOL0     C30007   8.894   4.959   7.319 -0.2029  0.1985  0.0379
  964MOL0     O30008   8.885   4.928   7.450 -0.1219 -0.0337 -0.3911
  964MOL0     C30009   9.010   4.913   7.524 -0.1572 -0.0839 -0.3911
  964MOL0     C30010   9.057   4.792   7.584 -0.5586 -0.2510 -0.2056
  964MOL0     C30011   9.175   4.795   7.661 -1.3309 -0.0439  0.5699
  964MOL0     C30012   9.253   4.913   7.679 -0.1680  0.9970  0.9756
  964MOL0     O30013   9.370   4.900   7.753 -0.5498  0.3693  0.5303
  964MOL0     C30014   9.430   5.022   7.790  0.4652  0.2969 -0.0738
  964MOL0     C30015   9.567   4.998   7.864 -0.2255  0.1260 -0.1095
  964MOL0     C30016   9.651   5.118   7.904  0.0239 -0.0637  0.5114
  964MOL0     C30017   9.788   5.073   7.953  0.4214 -0.0237 -1.2214
  964MOL0     C30018   9.861   5.193   8.015  0.3791 -0.5312  0.7383
  964MOL0     C30019  10.000   5.153   8.069  0.3967  0.1745  1.0814
  964MOL0     C30020  10.084   5.268   8.135  1.2373 -0.1376 -0.2062
  964MOL0     C30021  10.126   5.356   8.024  0.3693 -0.8864 -0.2115
  964MOL0     N30022  10.264   5.413   8.060 -0.3795 -0.3681  0.4961
  964MOL0     C30023  10.375   5.359   8.005  0.7384  0.0073 -0.4956
  964MOL0     C30024  10.466   5.387   8.099 -0.3859 -0.6488  0.2961
  964MOL0     C30025  10.614   5.338   8.096  0.3616 -0.1316 -0.6279
  964MOL0     C30026  10.622   5.219   8.196  0.0011 -0.2742 -0.0071
  964MOL0     C30027  10.766   5.163   8.205  0.0246  0.5338 -0.0367
  964MOL0     C30028  10.794   5.084   8.089 -0.1433 -0.3763  0.2563
  964MOL0     O30029  10.900   4.987   8.107 -0.0110  0.1209 -0.7660
  964MOL0     C30030  11.032   5.022   8.084 -0.2906  0.1322 -0.1485
  964MOL0     C30031  11.087   5.148   8.091  0.1670 -0.1201 -0.1639
  964MOL0     C30032  11.220   5.172   8.054 -0.0432 -0.1646 -0.2251
  964MOL0     C30033  11.279   5.065   7.979 -0.2264 -0.5092  0.4444
  964MOL0     C30034  11.397   5.083   7.886 -0.2896  0.6650 -0.6209
  964MOL0     O30035  11.425   5.216   7.864 -0.2561  0.5742  0.6537
  964MOL0     C30036  11.533   5.245   7.791  0.1541 -0.0295 -0.1114
  964MOL0     C30037  11.556   5.197   7.664 -0.3592 -0.4782  0.1934
  964MOL0     C30038  11.675   5.227   7.589 -0.6645  0.0241  0.4773
  964MOL0     C30039  11.759   5.315   7.639 -0.0142 -1.0449 -0.4413
  964MOL0     O30040  11.873   5.355   7.576 -0.3672 -0.2171  0.0578
  964MOL0     C30041  11.945   5.262   7.487  0.0878 -0.0959  0.1827
  964MOL0     C30042  12.080   5.320   7.437  0.0796  0.0662  0.2710
  964MOL0     C30043  12.184   5.276   7.540 -0.4788  0.2741  0.0200
  964MOL0     C30044  12.324   5.322   7.519  0.2738 -0.2314  0.3914
  964MOL0     C30045  12.404   5.287   7.645 -0.6509  0.2164  0.2681
  964MOL0     C30046  12.550   5.323   7.634 -0.7698 -0.4374  0.1944
  964MOL0     C30047  12.616   5.256   7.752 -0.2328 -0.5391  0.3902
  964MOL0     C30048  12.765   5.286   7.753 -0.7766  0.3716 -0.2450
  964MOL0    Cl30049  12.791   5.460   7.777  0.2091  0.1289 -0.5783
  964MOL0     C30050  11.733   5.385   7.760  0.3137 -1.2366  0.3161
  964MOL0     C30051  11.614   5.349   7.830  0.0566  0.2605  0.0470
  964MOL0     O30052  11.462   4.991   7.844 -0.3144 -0.5613  0.4696
  964MOL0     C30053  11.232   4.933   7.981  1.4412  0.3224 -1.3451
  964MOL0     C30054  11.100   4.912   8.034 -0.1582 -0.4341  0.9292
  964MOL0     N30055  10.425   5.471   8.198  1.6146 -0.2810  0.1795
  964MOL0     N30056  10.300   5.485   8.171  0.1486  0.2308  0.4850
  964MOL0     C30057   9.212   5.026   7.609 -0.7083 -0.6020  0.3523
  964MOL0     C30058   9.089   5.027   7.543  0.0819 -0.4161  0.2107
  964MOL0     C30059   8.759   4.996   7.256  0.3888 -0.3098  0.1188
  964MOL0     C30060   8.644   4.991   7.338 -0.3559  0.4192 -0.3949
  964MOL0     C30061   8.518   5.022   7.286  0.3601 -0.2180  0.0717
  964MOL0     C30062   8.497   5.071   7.152  0.1841 -0.0613  0.3165
  964MOL0     O30063   8.371   5.089   7.103  0.1772 -0.1286 -0.3582
  964MOL0     C30064   8.341   5.068   6.963  0.1355 -0.5068  0.8989
  964MOL0     C30065   8.184   5.046   6.947 -0.7142 -0.5483 -0.8082
  964MOL0     C30066   8.150   4.897   6.960 -0.2899 -0.6803 -0.9524
  964MOL0     C30067   7.997   4.879   6.961  0.1198 -1.1443  0.0910
  964MOL0     C30068   7.936   4.940   6.842  0.5256  0.5050 -0.4705
  964MOL0     C30069   7.880   4.984   6.740 -0.5042 -0.6821 -1.2387
  964MOL0     C30070   8.614   5.082   7.077  0.3620  0.1477 -0.0707
  964MOL0     C30071   8.741   5.045   7.129  0.6472  0.4047  0.3292
  964MOL0     C30072   8.853   5.074   7.033 -0.0425 -0.6070  0.2840
  964MOL0     H30073   8.993   4.704   7.576 -0.9213 -0.3393  2.5417
  964MOL0     H30074   9.205   4.701   7.706 -0.3430  0.3979  0.8646
  964MOL0     H30075   9.458   5.070   7.696  1.2144 -1.7675 -0.9496
  964MOL0     H30076   9.365   5.084   7.853  1.4676 -0.2700  1.5948
  964MOL0     H30077   9.639   4.933   7.814  0.3047  0.4059  0.2893
  964MOL0     H30078   9.534   4.938   7.949  0.7189 -2.6209 -1.5422
  964MOL0     H30079   9.611   5.176   7.988 -0.3474  1.7545 -0.8477
  964MOL0     H30080   9.671   5.182   7.818 -0.0539 -0.9088 -0.1421
  964MOL0     H30081   9.768   4.992   8.024  1.9290  1.0400  0.5317
  964MOL0     H30082   9.858   5.039   7.876  1.9797 -0.5460  0.3605
  964MOL0     H30083   9.882   5.263   7.935  1.8846 -0.7684  0.8936
  964MOL0     H30084   9.797   5.232   8.095 -2.0948 -3.2278  0.2228
  964MOL0     H30085   9.984   5.082   8.150  1.0873  0.3425  1.3684
  964MOL0     H30086  10.059   5.099   7.995 -0.3225 -0.6021  1.0654
  964MOL0     H30087  10.168   5.227   8.192  1.4227 -0.7339 -0.9059
  964MOL0     H30088  10.015   5.323   8.199  1.0244  2.8978 -2.7971
  964MOL0     H30089  10.144   5.288   7.939  1.1042 -2.8143  1.4019
  964MOL0     H30090  10.063   5.443   8.003  0.7028  0.6418  4.2433
  964MOL0     H30091  10.371   5.292   7.920  0.7269  1.1691 -1.4360
  964MOL0     H30092  10.628   5.291   7.998 -0.6578  0.6070 -1.1501
  964MOL0     H30093  10.690   5.415   8.111  1.8610 -1.8511  1.2036
  964MOL0     H30094  10.585   5.250   8.294  1.1892 -1.7476  0.9551
  964MOL0     H30095  10.553   5.139   8.169  2.2199 -1.2059 -3.4764
  964MOL0     H30096  10.773   5.096   8.291  2.1424  1.8048  0.8550
  964MOL0     H30097  10.842   5.241   8.214 -1.1782  1.7355  0.1416
  964MOL0     H30098  10.814   5.149   8.003 -0.9666 -2.1499 -1.3557
  964MOL0     H30099  10.704   5.026   8.068 -0.2615  0.6359 -2.3866
  964MOL0     H30100  11.039   5.237   8.130 -0.5171 -0.4374 -0.2747
  964MOL0     H30101  11.269   5.268   8.062 -1.4554  0.4859  1.2478
  964MOL0     H30102  11.496   5.121   7.617  0.3012  1.0622 -3.4889
  964MOL0     H30103  11.697   5.165   7.503 -2.4306  0.0430 -0.0193
  964MOL0     H30104  11.943   5.167   7.541 -1.6566 -0.5967 -0.6865
  964MOL0     H30105  11.881   5.260   7.399 -2.6971 -1.4123  2.0843
  964MOL0     H30106  12.102   5.291   7.334 -1.0911  2.3568 -0.6861
  964MOL0     H30107  12.074   5.429   7.440  0.7872  0.1746 -1.4304
  964MOL0     H30108  12.143   5.314   7.634 -1.5801 -0.7861 -0.0047
  964MOL0     H30109  12.177   5.167   7.547  1.1264  0.1982  1.1932
  964MOL0     H30110  12.341   5.430   7.512  1.2522 -0.3630  0.5913
  964MOL0     H30111  12.361   5.283   7.423  0.3302  1.4479 -0.3209
  964MOL0     H30112  12.391   5.181   7.669  1.2636  0.8280  5.0732
  964MOL0     H30113  12.361   5.334   7.734 -1.2297  2.1889 -0.9868
  964MOL0     H30114  12.594   5.294   7.538  1.8401  0.7943  0.9083
  964MOL0     H30115  12.569   5.431   7.635  0.5395 -0.6205 -1.2008
  964MOL0     H30116  12.598   5.148   7.754 -0.6315 -0.4901 -0.1663
  964MOL0     H30117  12.572   5.296   7.844  1.1279  3.2914 -0.4627
  964MOL0     H30118  12.811   5.234   7.838 -1.0702  0.9543  0.2724
  964MOL0     H30119  12.813   5.259   7.658 -0.8985 -2.8446  0.4972
  964MOL0     H30120  11.804   5.464   7.784 -0.2480 -1.0941  1.5841
  964MOL0     H30121  11.585   5.404   7.919 -0.0763 -0.6791  0.6035
  964MOL0     H30122  11.288   4.845   7.951  0.5783 -0.3003 -1.1609
  964MOL0     H30123  11.058   4.812   8.024 -0.6264 -0.1686  0.1747
  964MOL0     H30124   9.271   5.117   7.608  0.3215 -1.2363  0.9372
  964MOL0     H30125   9.055   5.114   7.488  0.1613 -0.1961  0.5091
  964MOL0     H30126   8.662   4.964   7.441 -2.5217 -0.0932 -0.0939
  964MOL0     H30127   8.427   5.012   7.346  0.6813 -4.3780  0.2029
  964MOL0     H30128   8.397   4.980   6.931  1.4492  0.6690 -0.1165
  964MOL0     H30129   8.368   5.150   6.895 -0.8651  0.6979  1.8946
  964MOL0     H30130   8.151   5.078   6.848 -1.4906 -1.3720 -0.8296
  964MOL0     H30131   8.127   5.105   7.020 -1.0288 -1.1040 -0.5993
  964MOL0     H30132   8.188   4.847   7.049  0.2118 -0.1085 -0.8404
  964MOL0     H30133   8.204   4.843   6.883  3.1484 -2.0014  2.1074
  964MOL0     H30134   7.977   4.771   6.966 -0.1241 -1.0585  1.0703
  964MOL0     H30135   7.968   4.929   7.054  0.8966 -0.3869 -0.0583
  964MOL0     H30136   7.829   5.017   6.652 -1.4903 -2.2752 -1.3048
  964MOL0     H30137   8.594   5.115   6.976 -2.7828 -1.6215 -0.1503
  964MOL0     H30138   8.904   4.983   7.000 -1.3291 -1.1235 -0.3372
  964MOL0     H30139   8.810   5.129   6.949 -2.1187 -1.7845  0.4889
  964MOL0     H30140   8.933   5.138   7.071 -0.8450  1.3638 -1.1778
  965MOL0     O30141   5.981   1.890   4.928  0.0239  0.1123  0.1227
  965MOL0     C30142   5.940   1.773   4.934 -0.0661  0.3116  0.7043
  965MOL0     O30143   5.971   1.673   5.026  0.2598 -0.3610 -0.1576
  965MOL0     C30144   6.058   1.693   5.125  0.4740  0.3740 -0.3135
  965MOL0     C30145   6.185   1.740   5.093  0.0416 -0.3026 -0.5768
  965MOL0     C30146   6.296   1.740   5.180 -0.0449 -0.6361  0.1340
  965MOL0     C30147   6.281   1.717   5.307  0.1323 -0.2434 -0.3330
  965MOL0     O30148   6.382   1.698   5.401 -0.7231 -0.1260  1.0485
  965MOL0     C30149   6.509   1.761   5.367  0.2678  0.4305 -0.4831
  965MOL0     C30150   6.605   1.767   5.484  0.3598 -0.6298 -0.4737
  965MOL0     C30151   6.718   1.850   5.444 -0.3746  0.0491 -0.2259
  965MOL0     C30152   6.817   1.888   5.554  1.3107 -0.1751 -0.4752
  965MOL0     C30153   6.949   1.936   5.497  0.7591  0.2360  0.0225
  965MOL0     C30154   7.057   1.830   5.465  0.1793  0.1800  0.3585
  965MOL0     C30155   7.025   1.731   5.358 -0.6340  0.0956 -0.2638
  965MOL0     C30156   7.144   1.641   5.311 -0.0292 -0.5607  0.4291
  965MOL0     N30157   7.199   1.568   5.429 -0.3370 -1.3293  0.2523
  965MOL0     C30158   7.310   1.607   5.507  0.1075 -0.0975  0.6414
  965MOL0     C30159   7.351   1.504   5.569  0.4108  0.3158 -0.9320
  965MOL0     C30160   7.483   1.505   5.648 -0.6907  0.6670 -0.5451
  965MOL0     C30161   7.602   1.468   5.558 -0.4678 -0.5774  0.7898
  965MOL0     C30162   7.607   1.327   5.526 -0.2142  0.3298  0.0428
  965MOL0     C30163   7.731   1.276   5.452  0.0746  0.0354  0.2234
  965MOL0     O30164   7.849   1.291   5.532 -0.0268  0.7731 -0.3210
  965MOL0     C30165   7.963   1.247   5.467  0.1570 -0.9164  0.7173
  965MOL0     C30166   8.060   1.342   5.441  0.3300  0.4445 -0.1377
  965MOL0     C30167   8.177   1.298   5.380 -1.1770  0.0841  0.2750
  965MOL0     C30168   8.202   1.163   5.343 -0.0946  0.7105  0.2990
  965MOL0     C30169   8.316   1.128   5.262 -0.5502  0.3566  0.7701
  965MOL0     O30170   8.428   1.206   5.270 -0.3288 -0.0655 -0.1958
  965MOL0     C30171   8.535   1.181   5.189 -0.1547 -0.5505 -0.1877
  965MOL0     C30172   8.581   1.262   5.093  0.2119 -0.3580  0.1626
  965MOL0     C30173   8.700   1.240   5.024 -0.5559  0.5311 -0.3107
  965MOL0     C30174   8.770   1.122   5.045  0.3742  0.4527 -0.1066
  965MOL0     O30175   8.882   1.105   4.973 -0.2746  0.3767  0.1639
  965MOL0     C30176   8.950   0.976   4.962 -0.9043 -0.6247 -0.2453
  965MOL0     C30177   9.039   0.997   4.842 -1.0009  0.7074  0.7842
  965MOL0     C30178   9.127   0.876   4.829 -0.4278  0.5650 -0.3130
  965MOL0     C30179   9.260   0.916   4.898  0.3190 -0.7619 -0.7527
  965MOL0     C30180   9.362   0.802   4.861  0.2159 -0.5705  0.0983
  965MOL0     C30181   9.462   0.846   4.752 -0.7258 -0.3146 -0.0297
  965MOL0     C30182   9.578   0.749   4.731  0.2619 -0.9888 -1.0093
  965MOL0     C30183   9.680   0.796   4.625  0.8595 -0.2283  0.0268
  965MOL0    Cl30184   9.774   0.946   4.678  0.1938  0.0289 -0.3494
  965MOL0     C30185   8.725   1.034   5.141  0.0332  1.1592  0.4797
  965MOL0     C30186   8.613   1.067   5.217 -0.0667 -0.7250  0.1990
  965MOL0     O30187   8.305   1.019   5.203  0.1321 -0.0287 -0.5581
  965MOL0     C30188   8.096   1.074   5.364 -0.1860 -0.3132 -0.3317
  965MOL0     C30189   7.978   1.112   5.426 -0.3188  0.0926 -0.2880
  965MOL0     N30190   7.268   1.402   5.535  1.1472  0.2399  0.0077
  965MOL0     N30191   7.177   1.436   5.452  0.1700  0.0582  0.3241
  965MOL0     C30192   6.157   1.663   5.344  0.2154 -0.6279 -0.3905
  965MOL0     C30193   6.042   1.650   5.259  0.2587  0.3595  0.0438
  965MOL0     C30194   5.829   1.734   4.841  0.0828 -0.3323  0.0416
  965MOL0     C30195   5.834   1.798   4.711 -1.4106  0.6060 -0.4532
  965MOL0     C30196   5.742   1.767   4.616  0.4243 -0.8310  0.8156
  965MOL0     C30197   5.644   1.665   4.639 -0.3212 -0.3771 -0.3179
  965MOL0     O30198   5.546   1.619   4.549  0.2865  0.4467 -1.0401
  965MOL0     C30199   5.532   1.670   4.415 -0.3807 -0.5594  0.1830
  965MOL0     C30200   5.493   1.825   4.394  0.2002  0.1271  0.5978
  965MOL0     C30201   5.370   1.882   4.464 -0.2777  0.7344  0.0954
  965MOL0     C30202   5.239   1.796   4.443 -0.2517  0.5461 -0.9061
  965MOL0     C30203   5.209   1.753   4.308  0.9491  0.2053  0.6334
  965MOL0     C30204   5.175   1.713   4.203  0.6970  0.0045  0.4281
  965MOL0     C30205   5.630   1.618   4.773  0.1346  0.3587 -0.6686
  965MOL0     C30206   5.723   1.649   4.875 -0.9163  0.0421  0.6877
  965MOL0     C30207   5.703   1.555   4.994  0.1722 -0.1419  0.4481
  965MOL0     H30208   6.216   1.763   4.992  3.5114  2.1380  0.8437
  965MOL0     H30209   6.393   1.761   5.137  0.0264 -1.5721 -0.1807
  965MOL0     H30210   6.546   1.693   5.289 -3.9376 -1.1164 -1.3929
  965MOL0     H30211   6.493   1.861   5.327 -2.0196  0.1033 -0.5129
  965MOL0     H30212   6.643   1.669   5.514  2.4451 -0.3508 -2.0301
  965MOL0     H30213   6.555   1.816   5.569  1.6721  1.1075 -0.6638
  965MOL0     H30214   6.680   1.939   5.394 -1.3993  0.1754  0.7225
  965MOL0     H30215   6.782   1.793   5.377 -0.3604 -1.7281  1.2169
  965MOL0     H30216   6.769   1.971   5.607  1.5954 -0.7622  0.7350
  965MOL0     H30217   6.840   1.811   5.628 -3.0653 -0.6954  0.5886
  965MOL0     H30218   6.921   1.993   5.409  2.0722 -0.1569 -0.6811
  965MOL0     H30219   6.997   2.006   5.566  1.1244  0.5525 -0.5450
  965MOL0     H30220   7.152   1.881   5.447 -2.9764  6.2547 -2.3103
  965MOL0     H30221   7.077   1.768   5.552  0.8519 -0.6942 -0.3991
  965MOL0     H30222   7.001   1.793   5.271  0.5516 -1.7617 -2.0049
  965MOL0     H30223   6.937   1.671   5.382 -0.8583  1.6275  3.3897
  965MOL0     H30224   7.109   1.570   5.235 -2.8411  0.0979  1.0116
  965MOL0     H30225   7.220   1.703   5.262 -1.0860  1.3677  1.1418
  965MOL0     H30226   7.364   1.699   5.486  2.9012 -1.9856 -1.2390
  965MOL0     H30227   7.500   1.600   5.699  0.8704  0.5971 -0.9048
  965MOL0     H30228   7.489   1.437   5.734  1.0386  3.2479  1.5274
  965MOL0     H30229   7.592   1.529   5.468  0.4360 -0.1090  0.9914
  965MOL0     H30230   7.690   1.500   5.614  0.2140 -1.0610  0.0135
  965MOL0     H30231   7.521   1.308   5.461 -0.4520  0.3015  0.3642
  965MOL0     H30232   7.598   1.273   5.620 -1.4470 -0.0143 -0.2530
  965MOL0     H30233   7.742   1.325   5.354 -2.6686 -0.9130 -0.6653
  965MOL0     H30234   7.710   1.170   5.439  1.7509 -0.3813  0.6642
  965MOL0     H30235   8.042   1.445   5.469  0.3078  0.4156 -0.0458
  965MOL0     H30236   8.254   1.374   5.366 -2.9881  1.7331 -1.2354
  965MOL0     H30237   8.523   1.352   5.078  2.3883  0.8529 -1.6714
  965MOL0     H30238   8.734   1.302   4.942  0.3543 -0.3674 -0.6305
  965MOL0     H30239   9.006   0.964   5.055 -0.8057  1.5313  0.0156
  965MOL0     H30240   8.875   0.896   4.954  0.1910 -1.9482  1.9151
  965MOL0     H30241   8.979   0.999   4.751  2.6643  1.2985 -1.8700
  965MOL0     H30242   9.106   1.083   4.835  1.2494 -0.9080  1.3887
  965MOL0     H30243   9.074   0.790   4.873 -0.6401  0.1594 -1.3323
  965MOL0     H30244   9.147   0.858   4.723 -4.5253  0.8560 -1.3216
  965MOL0     H30245   9.250   0.916   5.006 -1.4871 -0.5899 -0.8996
  965MOL0     H30246   9.286   1.020   4.877  0.3869 -0.3276  1.3402
  965MOL0     H30247   9.309   0.718   4.815  0.3842 -0.5588 -0.1165
  965MOL0     H30248   9.417   0.764   4.948 -0.0248  0.1980  0.5997
  965MOL0     H30249   9.416   0.870   4.655 -3.3665 -0.6002  1.0815
  965MOL0     H30250   9.502   0.937   4.798 -3.1954  0.1462  1.3964
  965MOL0     H30251   9.533   0.652   4.706 -0.4905 -0.9402  0.0477
  965MOL0     H30252   9.633   0.740   4.826 -1.0315  2.1325  0.1556
  965MOL0     H30253   9.750   0.713   4.612  2.7823  1.4743 -1.1548
  965MOL0     H30254   9.618   0.811   4.536 -0.0979 -3.4744  0.0253
  965MOL0     H30255   8.776   0.939   5.156 -1.0960  0.7663  2.0342
  965MOL0     H30256   8.583   1.002   5.299 -1.5880 -0.1019  0.1764
  965MOL0     H30257   8.096   0.971   5.328 -0.3610 -1.3739  2.4487
  965MOL0     H30258   7.905   1.033   5.441  1.1394 -1.3372 -0.2846
  965MOL0     H30259   6.150   1.634   5.448  0.7028  2.2911  0.5403
  965MOL0     H30260   5.957   1.594   5.296 -0.1916  1.9127  1.5323
  965MOL0     H30261   5.913   1.869   4.688  0.2925 -0.4577  1.7313
  965MOL0     H30262   5.751   1.806   4.516 -0.2067 -0.1620  1.0145
  965MOL0     H30263   5.452   1.619   4.360 -2.1360  3.7394 -1.6290
  965MOL0     H30264   5.626   1.647   4.363  0.1566 -0.5263  1.1257
  965MOL0     H30265   5.465   1.845   4.290 -1.5531 -1.0988  0.7854
  965MOL0     H30266   5.573   1.895   4.418  0.3958  0.0601  0.1439
  965MOL0     H30267   5.351   1.982   4.425 -1.2205 -0.0451 -1.5399
  965MOL0     H30268   5.401   1.889   4.569 -1.1183  2.7180  0.2676
  965MOL0     H30269   5.256   1.700   4.494 -2.3813  0.5048 -0.1908
  965MOL0     H30270   5.156   1.847   4.491  0.8319 -0.1525  1.9080
  965MOL0     H30271   5.151   1.660   4.113  0.5998  1.4274 -0.4208
  965MOL0     H30272   5.549   1.546   4.779  0.0938  0.4231 -0.4488
  965MOL0     H30273   5.612   1.496   4.982  1.3224 -1.9630  0.2230
  965MOL0     H30274   5.787   1.485   4.998  0.6678  0.2176 -1.8734
  965MOL0     H30275   5.693   1.595   5.095  2.5304 -1.3261  1.2390
  966MOL0     O30276   1.603   6.452   8.554 -0.6108 -0.6037  0.5129
  966MOL0     C30277   1.605   6.338   8.518 -0.3867 -0.2148  0.8721
  966MOL0     O30278   1.723   6.277   8.468  0.0410 -0.3223  0.4462
  966MOL0     C30279   1.841   6.343   8.499 -0.0264 -0.3961  0.7271
  966MOL0     C30280   1.936   6.279   8.577  0.4216  0.2322  0.0502
  966MOL0     C30281   2.058   6.337   8.608 -0.3202 -1.2694 -0.4283
  966MOL0     C30282   2.086   6.468   8.562  0.9292  0.2337 -1.0080
  966MOL0     O30283   2.216   6.504   8.589  0.0687  0.3995  0.6316
  966MOL0     C30284   2.278   6.615   8.525  0.2378 -0.4421  0.3674
  966MOL0     C30285   2.428   6.589   8.519  1.1486 -0.0425  0.0551
  966MOL0     C30286   2.491   6.594   8.660 -0.4680  0.7703 -1.8106
  966MOL0     C30287   2.634   6.541   8.635 -0.4617 -0.9241 -0.1649
  966MOL0     C30288   2.700   6.503   8.772 -0.0395 -0.0362  0.9047
  966MOL0     C30289   2.704   6.616   8.874  0.7844 -0.9476 -0.1876
  966MOL0     C30290   2.789   6.729   8.827  0.4216 -0.1952  0.4825
  966MOL0     C30291   2.819   6.824   8.948  0.0972 -0.5331  0.5693
  966MOL0     N30292   2.893   6.760   9.063 -0.4989  0.0872 -0.0298
  966MOL0     C30293   3.020   6.702   9.065 -0.4400  0.0369  0.1540
  966MOL0     C30294   3.047   6.669   9.195  0.5782  0.2717  0.3731
  966MOL0     C30295   3.159   6.591   9.256  0.3576  0.0395  0.0261
  966MOL0     C30296   3.300   6.628   9.211  0.5261 -0.5267  0.3332
  966MOL0     C30297   3.386   6.509   9.214  0.5407  0.9604  0.3789
  966MOL0     C30298   3.537   6.527   9.206  0.5264 -0.8186 -0.2742
  966MOL0     O30299   3.565   6.586   9.083  0.1681 -0.1861 -0.1649
  966MOL0     C30300   3.693   6.632   9.069 -0.3839 -0.0402 -0.0351
  966MOL0     C30301   3.813   6.558   9.099 -0.4666  0.6135  0.2715
  966MOL0     C30302   3.940   6.606   9.086 -0.6859 -1.3909  0.1346
  966MOL0     C30303   3.958   6.738   9.030  0.2713 -0.4360  0.5317
  966MOL0     C30304   4.094   6.790   9.033 -0.4089  0.7954  0.4734
  966MOL0     O30305   4.194   6.708   9.074  0.8204 -0.1012 -0.4218
  966MOL0     C30306   4.320   6.756   9.091 -0.4373 -0.9644  0.2615
  966MOL0     C30307   4.371   6.890   9.098  0.1526  0.6335 -0.0040
  966MOL0     C30308   4.512   6.919   9.119 -0.3485  1.1390  0.5737
  966MOL0     C30309   4.602   6.807   9.128  0.1117 -0.1107 -0.6017
  966MOL0     O30310   4.728   6.844   9.136 -0.1992 -0.0826 -0.4420
  966MOL0     C30311   4.826   6.742   9.138  0.4774 -0.0404 -1.2651
  966MOL0     C30312   4.961   6.812   9.142 -0.2405 -0.3103  0.0229
  966MOL0     C30313   5.012   6.874   9.273 -0.0532  0.5420 -0.1860
  966MOL0     C30314   4.962   7.013   9.328  0.0478 -0.0275 -0.7616
  966MOL0     C30315   4.983   7.134   9.233 -0.5956 -0.1819  0.0032
  966MOL0     C30316   4.915   7.265   9.284 -0.2680 -0.1420 -0.5652
  966MOL0     C30317   5.003   7.326   9.396 -0.3996  0.2253 -0.3204
  966MOL0     C30318   4.930   7.418   9.502 -0.0194  1.0081  1.0231
  966MOL0    Cl30319   5.050   7.524   9.572 -0.6032 -0.4806  0.1912
  966MOL0     C30320   4.551   6.676   9.123  0.4885  0.3440  1.0966
  966MOL0     C30321   4.416   6.656   9.110  0.8711 -0.1288  0.8682
  966MOL0     O30322   4.112   6.903   8.983 -0.0098 -0.2536  0.0290
  966MOL0     C30323   3.842   6.814   9.002 -0.0860  0.3906  0.1423
  966MOL0     C30324   3.717   6.756   9.012  0.4446 -0.4923 -0.4982
  966MOL0     N30325   2.945   6.717   9.283 -0.6101 -0.9798  0.0203
  966MOL0     N30326   2.855   6.760   9.193  0.1768 -0.0386  0.2497
  966MOL0     C30327   1.998   6.536   8.474 -0.5825  0.6449 -0.3370
  966MOL0     C30328   1.881   6.469   8.442  0.4323 -0.0906  0.6778
  966MOL0     C30329   1.474   6.263   8.510 -0.6395 -0.3164  0.0915
  966MOL0     C30330   1.463   6.161   8.413 -0.3865  0.2588 -0.7552
  966MOL0     C30331   1.340   6.105   8.378 -0.3691 -0.3988  0.4303
  966MOL0     C30332   1.227   6.150   8.441 -0.2743  0.4041  0.2952
  966MOL0     O30333   1.105   6.098   8.388 -0.3443 -0.6568 -0.5212
  966MOL0     C30334   0.995   6.084   8.476 -0.8605  0.6082 -0.0380
  966MOL0     C30335   0.869   6.056   8.398 -0.4470 -0.2634 -0.9003
  966MOL0     C30336   0.893   5.958   8.276 -0.2177 -0.0755  0.5671
  966MOL0     C30337   0.771   5.938   8.192 -0.0124  0.2239  0.5638
  966MOL0     C30338   0.801   5.860   8.070  0.4002  0.7576 -0.4457
  966MOL0     C30339   0.815   5.791   7.969  0.1618  0.8147  0.1905
  966MOL0     C30340   1.239   6.228   8.557  0.6877  0.2743 -0.0321
  966MOL0     C30341   1.361   6.292   8.587 -0.0581  0.6887 -0.6334
  966MOL0     C30342   1.358   6.381   8.708  0.2385  0.1597 -0.9189
  966MOL0     H30343   1.906   6.186   8.624 -1.6244  1.2388  0.8643
  966MOL0     H30344   2.131   6.294   8.675  1.3255 -2.4636 -2.8258
  966MOL0     H30345   2.253   6.620   8.419  1.5602 -0.8203  0.0235
  966MOL0     H30346   2.261   6.713   8.571  2.0013  0.0324  0.0727
  966MOL0     H30347   2.471   6.659   8.446  0.7405  0.3138  0.1499
  966MOL0     H30348   2.429   6.495   8.464 -5.4618 -1.2400  1.1511
  966MOL0     H30349   2.438   6.532   8.733  0.2455  2.5289  0.3210
  966MOL0     H30350   2.477   6.696   8.697 -1.4381  0.2081 -0.5655
  966MOL0     H30351   2.632   6.463   8.559  0.9107  2.4870 -4.0906
  966MOL0     H30352   2.677   6.635   8.599 -0.6606 -0.0091  1.8272
  966MOL0     H30353   2.646   6.410   8.790  0.7199 -1.3044 -2.6278
  966MOL0     H30354   2.803   6.472   8.753 -0.8776 -0.5437 -4.2670
  966MOL0     H30355   2.604   6.659   8.885  1.0445 -0.6466  1.1322
  966MOL0     H30356   2.753   6.557   8.952 -0.8918 -3.3674 -0.8087
  966MOL0     H30357   2.739   6.777   8.743  0.1479  0.1201  0.8197
  966MOL0     H30358   2.882   6.683   8.794 -1.2274 -2.5934 -1.1459
  966MOL0     H30359   2.878   6.908   8.910 -0.5055  0.5414  1.9499
  966MOL0     H30360   2.725   6.860   8.989 -1.4311 -1.4798 -1.8185
  966MOL0     H30361   3.089   6.698   8.981 -0.1275  0.4263  0.3910
  966MOL0     H30362   3.143   6.580   9.364 -0.0021  2.2237  0.2247
  966MOL0     H30363   3.147   6.490   9.215  1.9961 -0.5434  0.8885
  966MOL0     H30364   3.316   6.669   9.111  1.8534  2.0081  1.4699
  966MOL0     H30365   3.344   6.696   9.285 -0.8761  0.3714  0.3857
  966MOL0     H30366   3.352   6.450   9.129  0.9721  1.0588  0.1350
  966MOL0     H30367   3.368   6.464   9.312 -1.0203  2.5258  0.8579
  966MOL0     H30368   3.581   6.427   9.209  2.6314  0.0175 -1.0458
  966MOL0     H30369   3.576   6.596   9.282  1.7657  1.1492 -2.5470
  966MOL0     H30370   3.800   6.461   9.147 -1.0051  0.2134 -0.6686
  966MOL0     H30371   4.032   6.554   9.109  1.6488  1.9270 -0.9857
  966MOL0     H30372   4.303   6.974   9.082 -0.1491  0.1347 -1.4337
  966MOL0     H30373   4.550   7.021   9.118  0.2470  0.9735 -2.2563
  966MOL0     H30374   4.811   6.674   9.223  0.3275 -0.3510 -1.5379
  966MOL0     H30375   4.806   6.688   9.046  0.5063  0.3095 -1.4791
  966MOL0     H30376   5.038   6.739   9.114  2.3055  2.0648  0.4892
  966MOL0     H30377   4.963   6.884   9.060  0.3215 -0.3730 -0.0257
  966MOL0     H30378   5.009   6.808   9.361 -3.8302  2.1134  1.0528
  966MOL0     H30379   5.120   6.887   9.265 -0.0859  0.0874 -1.6704
  966MOL0     H30380   5.017   7.040   9.419 -0.9270 -0.5022 -0.0236
  966MOL0     H30381   4.857   7.003   9.355  0.2892 -1.5530 -0.3464
  966MOL0     H30382   4.940   7.102   9.138  0.4274 -0.7927 -0.2696
  966MOL0     H30383   5.091   7.143   9.215 -0.7921  2.2675 -0.2390
  966MOL0     H30384   4.897   7.336   9.203 -2.4241  3.0541  2.4140
  966MOL0     H30385   4.815   7.253   9.327  0.4062  4.2341  3.0048
  966MOL0     H30386   5.085   7.383   9.352 -1.9493  1.2539 -2.0190
  966MOL0     H30387   5.063   7.251   9.448  0.4499  2.6052  2.4198
  966MOL0     H30388   4.848   7.468   9.449 -2.6083 -3.6318  0.0718
  966MOL0     H30389   4.885   7.349   9.574  1.7768  1.9178  3.1353
  966MOL0     H30390   4.604   6.584   9.143  0.4358 -0.1513 -0.8697
  966MOL0     H30391   4.373   6.557   9.100 -0.9619  0.6425  0.7340
  966MOL0     H30392   3.852   6.917   8.968 -0.8145  0.6027  0.5602
  966MOL0     H30393   3.647   6.831   8.977  1.0839  0.6550  0.6002
  966MOL0     H30394   2.025   6.622   8.415  1.1347  0.0231 -0.5017
  966MOL0     H30395   1.822   6.515   8.364 -0.5591 -1.7541  0.4010
  966MOL0     H30396   1.553   6.131   8.360 -0.2033 -0.5876  0.0119
  966MOL0     H30397   1.336   6.031   8.299  2.9484 -1.3009  0.9618
  966MOL0     H30398   0.980   6.172   8.539 -0.9318 -0.5479  1.6131
  966MOL0     H30399   1.012   6.000   8.544 -0.7483  0.5828 -0.0971
  966MOL0     H30400   0.823   6.144   8.352  0.5672  1.0635  0.5201
  966MOL0     H30401   0.797   6.007   8.465 -0.4978 -3.2185 -2.9216
  966MOL0     H30402   0.929   5.861   8.312 -1.5333 -0.3131  1.3248
  966MOL0     H30403   0.974   6.002   8.218 -0.3770  2.7706  2.3160
  966MOL0     H30404   0.691   5.891   8.250 -1.3603  0.1035 -1.2750
  966MOL0     H30405   0.743   6.040   8.162 -0.2889 -0.1293 -0.4353
  966MOL0     H30406   0.832   5.730   7.882 -2.0717  0.9656 -0.4090
  966MOL0     H30407   1.153   6.246   8.621  0.9287  0.2332  0.3046
  966MOL0     H30408   1.364   6.486   8.677 -0.4700  1.4016  2.6505
  966MOL0     H30409   1.274   6.367   8.777 -0.2922 -0.4081 -1.6668
  966MOL0     H30410   1.453   6.360   8.757  1.5868 -0.0005 -3.4545
  967MOL0     O30411   1.824   6.492   1.535  0.3992  0.3358 -0.3269
  967MOL0     C30412   1.782   6.380   1.541  0.1166 -0.5155 -0.5541
  967MOL0     O30413   1.859   6.271   1.565  0.4236 -0.3295  0.2262
  967MOL0     C30414   2.000   6.282   1.552  1.0162 -0.0909  1.1633
  967MOL0     C30415   2.078   6.208   1.632  0.8998  0.7104 -0.0190
  967MOL0     C30416   2.216   6.198   1.623 -0.3213  0.2469 -0.4448
  967MOL0     C30417   2.285   6.279   1.529  0.7084  0.7729 -0.2465
  967MOL0     O30418   2.421   6.274   1.524 -0.1939  0.1535  0.4053
  967MOL0     C30419   2.480   6.401   1.492 -0.8300  1.1887  0.6011
  967MOL0     C30420   2.634   6.379   1.494 -0.6805  1.0214 -0.7962
  967MOL0     C30421   2.698   6.502   1.426  0.9385  0.0562 -0.0114
  967MOL0     C30422   2.843   6.518   1.476 -0.1781  0.3065 -1.0788
  967MOL0     C30423   2.909   6.653   1.418  0.5038  0.5038  0.0341
  967MOL0     C30424   3.061   6.636   1.434  0.1582 -0.2967  0.4502
  967MOL0     C30425   3.141   6.759   1.384  0.5304 -0.2010 -0.6673
  967MOL0     C30426   3.092   6.896   1.445 -0.2019  0.0622 -0.9323
  967MOL0     N30427   3.197   6.996   1.449 -0.0852 -0.2908 -0.1407
  967MOL0     C30428   3.215   7.108   1.367 -0.4657 -0.2793 -0.5000
  967MOL0     C30429   3.337   7.166   1.393  0.5535  0.3323  0.6033
  967MOL0     C30430   3.405   7.271   1.310  0.4718  0.0949 -0.3065
  967MOL0     C30431   3.550   7.248   1.296 -0.1448  1.1161 -0.2285
  967MOL0     C30432   3.620   7.300   1.415 -1.1711 -0.2607 -0.3337
  967MOL0     C30433   3.779   7.285   1.411 -0.8450  0.8719  0.0589
  967MOL0     O30434   3.833   7.167   1.353  0.4464  0.5176 -0.1593
  967MOL0     C30435   3.965   7.172   1.314  0.1102 -0.4714 -0.3067
  967MOL0     C30436   4.071   7.221   1.398  0.3957 -0.4677 -1.0022
  967MOL0     C30437   4.206   7.205   1.356  0.6183  1.1660  0.2607
  967MOL0     C30438   4.244   7.156   1.233 -1.2943  0.4975  0.5246
  967MOL0     C30439   4.396   7.143   1.198  0.4624 -0.2321  0.6541
  967MOL0     O30440   4.481   7.226   1.261 -0.5076 -0.3326  0.8312
  967MOL0     C30441   4.616   7.214   1.244  0.4875  0.4208  0.1637
  967MOL0     C30442   4.689   7.180   1.350  0.3665  0.1366 -0.8433
  967MOL0     C30443   4.827   7.201   1.354  0.0124  0.3941  0.0218
  967MOL0     C30444   4.893   7.250   1.242 -0.1037  0.7482 -0.2916
  967MOL0     O30445   5.030   7.269   1.226  1.2728  0.2025 -0.2323
  967MOL0     C30446   5.109   7.183   1.311  0.2761 -0.1463 -0.5091
  967MOL0     C30447   5.248   7.203   1.264 -0.1771 -0.1246  0.7733
  967MOL0     C30448   5.350   7.130   1.344 -0.5220  0.1110 -0.5157
  967MOL0     C30449   5.491   7.132   1.277  0.1734 -0.1585  0.1925
  967MOL0     C30450   5.508   7.102   1.125 -0.4233  0.6154  0.1993
  967MOL0     C30451   5.474   6.952   1.102  0.0837 -0.3331  0.5812
  967MOL0     C30452   5.489   6.908   0.951 -0.0823 -0.0853  0.7511
  967MOL0     C30453   5.423   6.764   0.935  0.2909 -1.1655  0.1566
  967MOL0    Cl30454   5.254   6.782   0.970  0.1917 -0.0544  0.0992
  967MOL0     C30455   4.820   7.273   1.124  0.6027 -0.6849  0.1865
  967MOL0     C30456   4.682   7.267   1.129 -0.3885  0.0163  0.4393
  967MOL0     O30457   4.432   7.070   1.106  0.8690  0.3499 -0.1771
  967MOL0     C30458   4.145   7.108   1.149  1.0928 -0.1790 -0.6799
  967MOL0     C30459   4.008   7.115   1.195 -0.2893  0.2176 -0.3397
  967MOL0     N30460   3.379   7.104   1.511 -0.3738  0.0833 -0.4543
  967MOL0     N30461   3.294   7.012   1.547  0.1578 -0.6674 -0.0002
  967MOL0     C30462   2.211   6.342   1.438 -0.5152  0.4804 -0.0595
  967MOL0     C30463   2.066   6.340   1.442 -0.2217 -0.7318  0.2051
  967MOL0     C30464   1.636   6.368   1.515  0.9912  0.6684  0.5508
  967MOL0     C30465   1.561   6.482   1.463  1.1272  0.0758 -1.0470
  967MOL0     C30466   1.421   6.475   1.445 -0.6170 -0.8295  0.2472
  967MOL0     C30467   1.346   6.362   1.461 -1.1019  0.3961  0.0026
  967MOL0     O30468   1.205   6.355   1.441 -0.0813  0.5811  0.0629
  967MOL0     C30469   1.141   6.459   1.361  0.8926 -0.1450 -0.0164
  967MOL0     C30470   1.075   6.385   1.240 -0.2512 -0.0094  0.9303
  967MOL0     C30471   0.961   6.294   1.289  0.1570  0.6594 -0.5324
  967MOL0     C30472   1.005   6.154   1.315  0.1205  0.8623 -0.5237
  967MOL0     C30473   0.886   6.077   1.355 -0.0901 -0.2836 -0.3873
  967MOL0     C30474   0.800   6.005   1.405  0.5818 -0.4209  0.0980
  967MOL0     C30475   1.412   6.251   1.517 -0.0070  0.4546 -0.5666
  967MOL0     C30476   1.554   6.257   1.546  1.1109 -0.4645 -0.4004
  967MOL0     C30477   1.615   6.124   1.596 -0.8325  0.7530 -0.0787
  967MOL0     H30478   2.049   6.148   1.717  2.5159 -0.1830 -0.0493
  967MOL0     H30479   2.271   6.149   1.702 -1.3244  2.2297  1.6010
  967MOL0     H30480   2.453   6.430   1.390 -0.8116  0.6734  0.4451
  967MOL0     H30481   2.446   6.471   1.570 -1.1650  0.6259  0.9714
  967MOL0     H30482   2.661   6.286   1.442  0.4493  0.5847  0.5178
  967MOL0     H30483   2.660   6.377   1.600 -0.4683 -1.3027 -0.8326
  967MOL0     H30484   2.636   6.587   1.458 -1.0319 -1.4993  0.5146
  967MOL0     H30485   2.699   6.495   1.317 -2.4574 -2.9195 -0.0295
  967MOL0     H30486   2.841   6.534   1.584  0.9078  0.6231 -1.0970
  967MOL0     H30487   2.890   6.423   1.448  0.4382 -0.1279  1.2740
  967MOL0     H30488   2.880   6.657   1.312  0.5550  0.9977  0.0388
  967MOL0     H30489   2.872   6.746   1.462 -0.2922 -0.0741  0.6016
  967MOL0     H30490   3.085   6.633   1.541 -0.7814  0.6487  0.6986
  967MOL0     H30491   3.095   6.545   1.384  0.7261 -0.6685  1.4822
  967MOL0     H30492   3.116   6.770   1.279 -0.5682  1.1047 -0.2942
  967MOL0     H30493   3.247   6.735   1.400 -0.4795 -4.0896  1.5589
  967MOL0     H30494   3.005   6.942   1.396  0.5144  3.4347  0.6167
  967MOL0     H30495   3.065   6.874   1.549 -1.5257  2.5612 -0.6661
  967MOL0     H30496   3.156   7.135   1.280  0.4110  1.4888 -0.5817
  967MOL0     H30497   3.365   7.261   1.209 -1.6505 -1.0302  0.5764
  967MOL0     H30498   3.385   7.371   1.349 -2.4207 -0.4162 -0.2543
  967MOL0     H30499   3.571   7.141   1.298  0.8805  1.1845  4.3030
  967MOL0     H30500   3.605   7.293   1.213  1.3865 -1.2206 -0.5593
  967MOL0     H30501   3.580   7.248   1.502  0.7607 -0.5366  0.4579
  967MOL0     H30502   3.601   7.408   1.424 -2.1027 -0.4937  0.7158
  967MOL0     H30503   3.813   7.294   1.515  0.8412  3.3604 -0.6208
  967MOL0     H30504   3.813   7.377   1.363  0.2740  1.4810  1.8872
  967MOL0     H30505   4.043   7.271   1.490 -2.4591 -2.2857 -0.7657
  967MOL0     H30506   4.292   7.223   1.419  0.2442  0.4533  0.9821
  967MOL0     H30507   4.631   7.161   1.440 -0.9844  1.9451 -1.2613
  967MOL0     H30508   4.872   7.173   1.449  0.7216  1.3748 -0.0081
  967MOL0     H30509   5.109   7.216   1.416 -2.1886 -1.5024 -0.0001
  967MOL0     H30510   5.090   7.076   1.316 -0.5593 -0.0382  4.4899
  967MOL0     H30511   5.245   7.174   1.159 -0.3583  0.6045  0.5659
  967MOL0     H30512   5.275   7.309   1.274  1.2187 -0.2370 -1.1456
  967MOL0     H30513   5.351   7.177   1.443 -2.3480  2.1044 -1.3594
  967MOL0     H30514   5.325   7.025   1.360 -2.5697  0.6045 -0.1971
  967MOL0     H30515   5.564   7.075   1.336  1.2640  1.5179  0.5250
  967MOL0     H30516   5.536   7.231   1.288  1.5244 -0.8958  1.6097
  967MOL0     H30517   5.610   7.128   1.092 -0.0612  2.5719  2.6047
  967MOL0     H30518   5.433   7.161   1.072 -1.7015  1.7598  3.1141
  967MOL0     H30519   5.539   6.886   1.160  0.8350 -0.5470 -0.4832
  967MOL0     H30520   5.375   6.920   1.137  0.1069 -0.4127  0.5758
  967MOL0     H30521   5.592   6.911   0.916  0.8263  5.3568  2.9187
  967MOL0     H30522   5.435   6.986   0.898  0.5961 -0.4592 -0.5211
  967MOL0     H30523   5.446   6.730   0.833  2.8873  0.7011  0.0158
  967MOL0     H30524   5.465   6.698   1.012 -0.9529 -0.8470  1.1424
  967MOL0     H30525   4.866   7.299   1.029  1.2840 -1.2041  0.3595
  967MOL0     H30526   4.617   7.296   1.047 -1.6396  0.2529  1.4929
  967MOL0     H30527   4.178   7.074   1.051  2.9452 -0.8095  0.1064
  967MOL0     H30528   3.935   7.078   1.124 -0.7599 -0.7584  0.6272
  967MOL0     H30529   2.264   6.384   1.353 -3.1788  3.8001 -0.3043
  967MOL0     H30530   2.007   6.389   1.364 -0.9656  1.0922  1.8232
  967MOL0     H30531   1.608   6.578   1.441  0.3890  0.6352 -0.2385
  967MOL0     H30532   1.378   6.562   1.397  1.4712  1.1637  1.7917
  967MOL0     H30533   1.202   6.540   1.321  1.1086  0.0620  0.7216
  967MOL0     H30534   1.062   6.509   1.418  0.0112  2.1211 -2.9429
  967MOL0     H30535   1.147   6.320   1.189 -0.7959 -1.5730  2.0822
  967MOL0     H30536   1.029   6.461   1.177 -0.6426 -2.4476 -1.9548
  967MOL0     H30537   0.877   6.294   1.219  1.2663 -1.1012 -1.9781
  967MOL0     H30538   0.917   6.341   1.377 -1.3846  0.6640 -1.2761
  967MOL0     H30539   1.031   6.106   1.220  1.0610  0.0681  0.1123
  967MOL0     H30540   1.095   6.151   1.377 -2.9111  0.9313  4.4000
  967MOL0     H30541   0.738   5.948   1.471 -0.1105 -2.7830 -2.3837
  967MOL0     H30542   1.365   6.155   1.536 -1.0181  1.1940  0.9360
  967MOL0     H30543   1.657   6.144   1.695 -1.6312  0.8600  0.2520
  967MOL0     H30544   1.546   6.042   1.619 -0.5593  0.3867 -0.5446
  967MOL0     H30545   1.699   6.088   1.536 -0.7447  0.2016  0.3704
  968MOL0     O30546  10.013   5.881   9.663  0.0294  0.2761 -0.3886
  968MOL0     C30547   9.935   5.958   9.614  0.1137  0.0942  0.6069
  968MOL0     O30548   9.972   6.078   9.561  0.3470 -0.5857 -0.7260
  968MOL0     C30549  10.094   6.125   9.595  0.0719  0.8675 -0.3134
  968MOL0     C30550  10.101   6.198   9.716 -0.9714 -0.1621 -0.4272
  968MOL0     C30551  10.210   6.285   9.732  1.0859  0.0655 -0.0632
  968MOL0     C30552  10.320   6.284   9.640  0.1793 -0.3392 -0.3793
  968MOL0     O30553  10.434   6.361   9.658  0.1873 -0.2464 -0.3081
  968MOL0     C30554  10.420   6.503   9.657  0.1190  0.0056 -0.0647
  968MOL0     C30555  10.552   6.568   9.706 -0.4255  0.0714 -0.3020
  968MOL0     C30556  10.666   6.580   9.602  0.2663  0.4722 -0.3226
  968MOL0     C30557  10.764   6.695   9.631  0.3672 -0.6871 -0.9263
  968MOL0     C30558  10.887   6.694   9.538 -0.0376 -0.4659 -0.4780
  968MOL0     C30559  10.969   6.820   9.564 -0.7733 -0.1790  0.4177
  968MOL0     C30560  11.087   6.832   9.471  0.1836 -0.2003 -0.1696
  968MOL0     C30561  11.201   6.741   9.499 -0.7805  0.5823 -0.6371
  968MOL0     N30562  11.304   6.739   9.394  0.0235 -0.7102 -0.5821
  968MOL0     C30563  11.348   6.861   9.338  0.4187  0.1148 -0.0447
  968MOL0     C30564  11.474   6.826   9.294  1.0133  1.0606  1.0204
  968MOL0     C30565  11.572   6.913   9.220 -0.2627 -0.3133 -0.2392
  968MOL0     C30566  11.713   6.858   9.212  1.1428 -0.0506 -0.3185
  968MOL0     C30567  11.818   6.969   9.188 -0.5333  0.1460  0.1240
  968MOL0     C30568  11.968   6.936   9.227  0.1086 -0.1203  1.0402
  968MOL0     O30569  11.999   6.808   9.175  0.0938  0.1215  0.2977
  968MOL0     C30570  12.132   6.785   9.175  0.0627 -0.0788  0.1017
  968MOL0     C30571  12.170   6.688   9.085 -0.4556  0.2464  0.8686
  968MOL0     C30572  12.311   6.664   9.055  0.8563 -0.6913 -0.4030
  968MOL0     C30573  12.411   6.729   9.130 -0.1963  0.1183  0.4676
  968MOL0     C30574  12.550   6.711   9.093 -0.6717  0.1255  0.2719
  968MOL0     O30575  12.576   6.592   9.037 -0.1992 -0.1900 -0.7678
  968MOL0     C30576  12.710   6.569   9.017 -0.3969 -0.8423  0.6602
  968MOL0     C30577  12.787   6.640   8.915 -0.7041 -0.1842  0.5060
  968MOL0     C30578  12.922   6.618   8.901 -0.4707 -0.8662  0.0046
  968MOL0     C30579  12.994   6.529   8.982  0.7168  0.5302 -0.1886
  968MOL0     O30580  13.128   6.496   8.971 -0.0560 -0.7488  0.7088
  968MOL0     C30581  13.193   6.505   8.840  1.2550  0.5068 -0.8470
  968MOL0     C30582  13.292   6.619   8.847 -0.3679 -0.7459 -0.3518
  968MOL0     C30583  13.417   6.580   8.929  0.8843  0.0068 -0.7441
  968MOL0     C30584  13.499   6.701   8.975  0.5923 -0.5784 -0.1839
  968MOL0     C30585  13.593   6.663   9.085 -0.4918  0.3242  0.0303
  968MOL0     C30586  13.691   6.772   9.110 -0.0732 -0.3908  0.4851
  968MOL0     C30587  13.807   6.739   9.209 -0.3658 -0.2674  0.7697
  968MOL0     C30588  13.757   6.687   9.342  0.5549 -1.1857  0.6439
  968MOL0    Cl30589  13.645   6.789   9.417  0.3381  0.0185  0.0766
  968MOL0     C30590  12.923   6.461   9.073  0.6207  0.1544  0.5186
  968MOL0     C30591  12.782   6.477   9.092 -0.2403 -0.2853 -0.4249
  968MOL0     O30592  12.631   6.792   9.146 -0.5704  0.7176  0.0129
  968MOL0     C30593  12.370   6.811   9.235  0.7868  0.2984 -0.0229
  968MOL0     C30594  12.237   6.851   9.259  1.1536  0.8158  0.3787
  968MOL0     N30595  11.502   6.698   9.334 -0.3691  0.2054 -0.1436
  968MOL0     N30596  11.399   6.641   9.393 -0.2897  0.3226  0.2143
  968MOL0     C30597  10.324   6.189   9.545 -0.0072  0.8906 -0.4447
  968MOL0     C30598  10.203   6.107   9.517  0.4973  0.3687  0.3095
  968MOL0     C30599   9.784   5.928   9.604 -0.6753 -0.4945 -0.2728
  968MOL0     C30600   9.693   6.034   9.616  0.2973  0.1153 -0.2523
  968MOL0     C30601   9.555   5.998   9.598 -0.2337 -0.1719 -0.1239
  968MOL0     C30602   9.511   5.867   9.588  0.1379 -0.8656  0.1785
  968MOL0     O30603   9.378   5.844   9.587 -0.3791  0.5420  0.3584
  968MOL0     C30604   9.279   5.932   9.638 -0.2428 -0.1530  0.2893
  968MOL0     C30605   9.148   5.850   9.647  0.5055  0.2861 -0.4446
  968MOL0     C30606   9.090   5.835   9.512 -0.1625 -0.6651 -0.2681
  968MOL0     C30607   8.965   5.757   9.521 -0.7249  0.0938  0.3862
  968MOL0     C30608   8.853   5.803   9.606  0.3322  0.3534  0.9033
  968MOL0     C30609   8.752   5.854   9.655 -0.8921 -0.1063 -0.2020
  968MOL0     C30610   9.597   5.767   9.569 -0.3971  0.2409 -1.1345
  968MOL0     C30611   9.738   5.793   9.581  0.4818  0.8699  0.2658
  968MOL0     C30612   9.831   5.670   9.581  0.0748 -0.3405  0.0601
  968MOL0     H30613  10.025   6.198   9.794 -0.3596  0.2642  0.1769
  968MOL0     H30614  10.225   6.355   9.814  1.2954  0.9893 -0.8682
  968MOL0     H30615  10.399   6.534   9.554 -1.1634  0.6836  0.3812
  968MOL0     H30616  10.336   6.539   9.718  0.3257 -0.6369  0.6151
  968MOL0     H30617  10.585   6.520   9.799  1.9578 -1.7815 -1.9720
  968MOL0     H30618  10.521   6.668   9.738  0.8486 -0.9550  5.1417
  968MOL0     H30619  10.614   6.608   9.510 -0.6393 -1.2431 -0.3883
  968MOL0     H30620  10.720   6.485   9.589 -0.7695 -0.6615  2.7710
  968MOL0     H30621  10.717   6.792   9.612 -2.5784 -2.0092 -0.9736
  968MOL0     H30622  10.798   6.695   9.735 -2.0558 -1.0777 -0.0778
  968MOL0     H30623  10.946   6.611   9.577 -0.5868 -1.3886 -1.5710
  968MOL0     H30624  10.864   6.691   9.432  1.5710  2.3937 -1.0312
  968MOL0     H30625  10.911   6.912   9.558  1.4186  1.6350  3.8398
  968MOL0     H30626  11.006   6.819   9.667  0.5370 -0.3481 -0.0305
  968MOL0     H30627  11.129   6.932   9.478  3.5154 -1.3346 -1.5948
  968MOL0     H30628  11.052   6.820   9.368  1.5995  1.6470 -0.9097
  968MOL0     H30629  11.247   6.776   9.591 -3.2866 -1.8059  1.7393
  968MOL0     H30630  11.162   6.639   9.512 -2.3643  1.2055 -0.3119
  968MOL0     H30631  11.295   6.956   9.331  0.6513  0.2911  0.5199
  968MOL0     H30632  11.526   6.922   9.121  1.5012  0.4446 -1.0200
  968MOL0     H30633  11.564   7.014   9.260  0.3024 -0.6284  0.6998
  968MOL0     H30634  11.736   6.820   9.311  1.1162  0.3009 -0.1762
  968MOL0     H30635  11.730   6.772   9.147  1.6817 -0.1830 -0.0104
  968MOL0     H30636  11.782   7.056   9.244 -0.3162 -0.0246  0.5329
  968MOL0     H30637  11.823   7.002   9.084  1.0243 -1.7270 -0.4433
  968MOL0     H30638  11.970   6.926   9.336  0.2887 -1.4591  0.9426
  968MOL0     H30639  12.041   7.009   9.190 -1.0715  1.2241  1.2880
  968MOL0     H30640  12.094   6.636   9.027  0.7634 -0.0848 -0.5105
  968MOL0     H30641  12.325   6.594   8.973 -2.9952 -0.8402 -1.1414
  968MOL0     H30642  12.735   6.702   8.842  0.0955 -1.5642 -1.3344
  968MOL0     H30643  12.980   6.671   8.827  1.6676 -0.8903  1.5727
  968MOL0     H30644  13.240   6.410   8.812  0.7864  0.0566 -0.1603
  968MOL0     H30645  13.117   6.523   8.763  2.2889  3.9509 -1.2441
  968MOL0     H30646  13.326   6.651   8.748  2.8361  1.0331  1.1212
  968MOL0     H30647  13.251   6.707   8.898  2.3288 -0.6199  1.8579
  968MOL0     H30648  13.379   6.518   9.011 -2.2242 -1.2603 -2.9683
  968MOL0     H30649  13.478   6.515   8.867  1.1690  0.1669 -0.6338
  968MOL0     H30650  13.428   6.781   8.998 -3.2674 -2.8035 -3.1564
  968MOL0     H30651  13.550   6.731   8.883 -0.3144  1.6920 -0.0104
  968MOL0     H30652  13.649   6.575   9.054  0.8932  1.4212 -0.6794
  968MOL0     H30653  13.533   6.641   9.174 -4.2609  0.4021 -2.2344
  968MOL0     H30654  13.749   6.799   9.021  1.5629  1.3597  1.9844
  968MOL0     H30655  13.640   6.864   9.141 -0.1530 -0.9599  2.1317
  968MOL0     H30656  13.861   6.832   9.228  3.3563 -1.4570 -2.4437
  968MOL0     H30657  13.877   6.664   9.170 -0.1126 -0.2429  1.1714
  968MOL0     H30658  13.712   6.589   9.329 -1.2037 -0.5677  1.8038
  968MOL0     H30659  13.847   6.670   9.403  0.1792  0.3231  1.6840
  968MOL0     H30660  12.976   6.389   9.134  1.4827  0.0178 -0.3689
  968MOL0     H30661  12.736   6.415   9.168  0.5574 -0.6056 -0.1931
  968MOL0     H30662  12.443   6.856   9.301  0.0486  2.2789 -0.4785
  968MOL0     H30663  12.206   6.922   9.335  0.9796  0.7541  0.3680
  968MOL0     H30664  10.419   6.176   9.493 -1.3754 -1.6928 -2.5748
  968MOL0     H30665  10.197   6.041   9.431  4.9409  1.6642 -1.2587
  968MOL0     H30666   9.726   6.136   9.627  2.9047 -0.5657 -0.9676
  968MOL0     H30667   9.490   6.085   9.605  0.3993  0.5971 -2.8069
  968MOL0     H30668   9.263   6.022   9.578 -1.7776 -1.2814 -1.0732
  968MOL0     H30669   9.298   5.966   9.741 -2.7368  0.4397  0.6069
  968MOL0     H30670   9.077   5.885   9.722 -0.1291 -1.3769 -0.2301
  968MOL0     H30671   9.187   5.753   9.680  3.5007  1.9248  1.3075
  968MOL0     H30672   9.159   5.803   9.434 -0.2994 -0.4363 -0.4854
  968MOL0     H30673   9.057   5.934   9.480  2.7095  0.4698 -0.0114
  968MOL0     H30674   8.916   5.745   9.424  0.5440 -1.3079 -0.1155
  968MOL0     H30675   8.997   5.655   9.546  0.4822  0.2311 -0.4906
  968MOL0     H30676   8.664   5.895   9.701 -1.9013 -1.4965 -0.7970
  968MOL0     H30677   9.560   5.667   9.551  1.2266 -0.5712 -0.2392
  968MOL0     H30678   9.776   5.582   9.546  0.4599 -0.8416  0.6914
  968MOL0     H30679   9.906   5.674   9.501 -0.7620 -1.6617 -0.8384
  968MOL0     H30680   9.882   5.654   9.676  0.9467  2.6836  0.2117
  969MOL0     O30681   7.962   5.419   7.184 -0.3612 -0.1802 -0.7010
  969MOL0     C30682   7.902   5.334   7.120  0.5201  1.0629  0.0794
  969MOL0     O30683   7.933   5.288   6.995 -0.2839  0.2839 -0.3031
  969MOL0     C30684   8.023   5.356   6.920  0.2385 -0.5064  0.1402
  969MOL0     C30685   8.156   5.358   6.958  0.8791 -0.4605  0.1327
  969MOL0     C30686   8.253   5.398   6.868 -0.1648 -0.7665  0.6016
  969MOL0     C30687   8.226   5.447   6.736  0.0427  0.2725  0.4375
  969MOL0     O30688   8.317   5.470   6.636 -0.0578  0.4787  0.2161
  969MOL0     C30689   8.457   5.500   6.670 -0.6997 -0.3507 -0.4058
  969MOL0     C30690   8.544   5.375   6.663  0.6031 -0.2429  0.1469
  969MOL0     C30691   8.690   5.390   6.718 -0.2958 -0.0606 -0.2079
  969MOL0     C30692   8.701   5.396   6.875 -0.2527  0.0059  0.3253
  969MOL0     C30693   8.849   5.425   6.913  0.0684 -0.7723  0.2497
  969MOL0     C30694   8.854   5.463   7.061 -0.4392  1.0238  0.5127
  969MOL0     C30695   8.993   5.512   7.087 -0.2310 -0.4814  0.5638
  969MOL0     C30696   9.004   5.588   7.221 -0.2103  0.2038 -0.3992
  969MOL0     N30697   9.150   5.637   7.221  1.0209  1.1632  0.3577
  969MOL0     C30698   9.187   5.767   7.202  0.1091  0.0760 -0.4197
  969MOL0     C30699   9.308   5.784   7.261  0.1295 -0.5950 -0.1306
  969MOL0     C30700   9.387   5.908   7.271  0.1930 -0.1856 -0.6310
  969MOL0     C30701   9.471   5.941   7.147 -0.3550  0.2073 -0.9483
  969MOL0     C30702   9.549   6.067   7.185 -0.0361 -0.8234  0.4606
  969MOL0     C30703   9.647   6.102   7.072  0.1411 -0.2816 -0.3599
  969MOL0     O30704   9.698   6.233   7.095 -0.2557 -0.4174  0.6200
  969MOL0     C30705   9.818   6.266   7.037  0.2516  0.5981  0.6905
  969MOL0     C30706   9.905   6.352   7.105 -0.0028  0.2967  0.6223
  969MOL0     C30707  10.033   6.357   7.055 -0.9152 -0.9570 -0.3507
  969MOL0     C30708  10.069   6.299   6.931 -0.1472  0.2314 -0.1263
  969MOL0     C30709  10.210   6.324   6.878  0.0528  0.5127  0.0491
  969MOL0     O30710  10.276   6.427   6.932  0.2417  0.3306  0.2174
  969MOL0     C30711  10.405   6.466   6.900 -0.2131  0.4151  0.1671
  969MOL0     C30712  10.508   6.381   6.882 -0.5232  1.1064 -1.2607
  969MOL0     C30713  10.644   6.427   6.871 -0.0378 -0.1359 -0.0046
  969MOL0     C30714  10.666   6.558   6.853  0.1864 -0.7370  0.2427
  969MOL0     O30715  10.780   6.622   6.818 -0.3149  0.3763  0.0070
  969MOL0     C30716  10.899   6.565   6.874 -1.3165 -0.2062  0.1092
  969MOL0     C30717  10.994   6.681   6.915  0.4464 -0.2073 -0.1212
  969MOL0     C30718  11.137   6.634   6.948  0.6785  0.3013 -0.0745
  969MOL0     C30719  11.213   6.735   7.038 -0.0654 -0.3347 -0.4619
  969MOL0     C30720  11.366   6.702   7.039  0.3869 -0.7415  0.0075
  969MOL0     C30721  11.436   6.804   7.133 -0.2046  0.0970  0.2176
  969MOL0     C30722  11.582   6.772   7.150 -0.3172 -0.9251 -0.0593
  969MOL0     C30723  11.673   6.780   7.034  0.3268  0.3424  0.2383
  969MOL0    Cl30724  11.684   6.948   6.975 -0.0577  0.6374  0.1409
  969MOL0     C30725  10.561   6.647   6.863  0.5115  0.0076  0.1891
  969MOL0     C30726  10.431   6.606   6.888 -0.8227 -0.3808  0.5955
  969MOL0     O30727  10.247   6.249   6.788 -1.1135  0.1820 -0.3223
  969MOL0     C30728   9.973   6.221   6.863  0.6968 -0.0672 -0.0670
  969MOL0     C30729   9.847   6.203   6.918 -0.1809 -0.4446 -0.1082
  969MOL0     N30730   9.351   5.665   7.317  0.2040  0.1464 -1.4552
  969MOL0     N30731   9.251   5.580   7.296  0.7682 -0.2419  0.6082
  969MOL0     C30732   8.097   5.458   6.716  0.0390 -0.2303 -0.1049
  969MOL0     C30733   7.996   5.418   6.805  0.4942 -0.2439 -0.1367
  969MOL0     C30734   7.771   5.286   7.176 -0.2096  0.0055  0.8661
  969MOL0     C30735   7.700   5.187   7.108  0.5922 -0.7643 -0.2757
  969MOL0     C30736   7.575   5.133   7.141 -0.0150 -0.2728 -0.4260
  969MOL0     C30737   7.501   5.200   7.243  0.2616  0.1576 -0.0116
  969MOL0     O30738   7.373   5.157   7.276  0.1713  0.6985  0.3872
  969MOL0     C30739   7.311   5.053   7.205  0.1947 -0.0823 -0.2388
  969MOL0     C30740   7.156   5.081   7.238  0.1414  0.2125  0.4169
  969MOL0     C30741   7.090   5.198   7.160 -0.2457 -0.0974  0.3635
  969MOL0     C30742   6.938   5.191   7.157 -0.8534 -0.4248  0.7261
  969MOL0     C30743   6.888   5.313   7.100  0.4181 -0.0720  0.5380
  969MOL0     C30744   6.869   5.434   7.082 -0.1670  0.0877 -0.1580
  969MOL0     C30745   7.564   5.295   7.320 -0.2892 -0.5848  0.5221
  969MOL0     C30746   7.697   5.341   7.295  0.3493  0.2360  0.4348
  969MOL0     C30747   7.751   5.461   7.375 -0.2068 -0.2301 -0.0124
  969MOL0     H30748   8.175   5.313   7.055 -0.0216 -1.8806 -0.3160
  969MOL0     H30749   8.358   5.377   6.887 -0.6771 -4.1893  0.4129
  969MOL0     H30750   8.498   5.564   6.590  0.7865  0.4061  0.9016
  969MOL0     H30751   8.469   5.546   6.768  4.1347 -1.2506 -0.3318
  969MOL0     H30752   8.553   5.353   6.556 -4.2711  2.7506 -1.1975
  969MOL0     H30753   8.500   5.289   6.715 -0.2828  1.4388  2.3063
  969MOL0     H30754   8.738   5.477   6.672 -0.0750 -0.4929 -0.8134
  969MOL0     H30755   8.749   5.305   6.682 -1.0798  0.3307 -2.6121
  969MOL0     H30756   8.641   5.482   6.905 -1.7472 -0.3824 -1.3815
  969MOL0     H30757   8.675   5.299   6.919 -0.0987 -1.1307 -1.9461
  969MOL0     H30758   8.920   5.344   6.889 -0.4515 -0.3712 -3.2088
  969MOL0     H30759   8.878   5.507   6.846  0.8730 -0.0649  1.4336
  969MOL0     H30760   8.770   5.530   7.078 -0.9396  0.5034  0.1626
  969MOL0     H30761   8.838   5.374   7.123 -0.6189  0.0683 -0.8390
  969MOL0     H30762   9.015   5.594   7.018 -0.5503  0.3012  1.3738
  969MOL0     H30763   9.067   5.432   7.086  3.1586  2.3716 -1.4045
  969MOL0     H30764   8.937   5.674   7.229 -1.2490 -0.7525  2.3310
  969MOL0     H30765   8.992   5.518   7.304  1.8863 -2.6752 -2.3424
  969MOL0     H30766   9.121   5.839   7.156  0.6337 -0.7599 -2.5695
  969MOL0     H30767   9.308   5.983   7.279  0.3378  0.1903 -2.3061
  969MOL0     H30768   9.447   5.917   7.362 -2.0251  2.6092  0.7043
  969MOL0     H30769   9.532   5.855   7.119 -1.6223 -1.4205  1.0578
  969MOL0     H30770   9.406   5.958   7.061  1.1062  1.0320 -1.9393
  969MOL0     H30771   9.602   6.058   7.280 -2.8516  0.8045  2.3408
  969MOL0     H30772   9.480   6.152   7.191 -0.8300 -1.3538 -0.7295
  969MOL0     H30773   9.592   6.106   6.978 -1.3806 -1.9698  0.4060
  969MOL0     H30774   9.730   6.030   7.078  1.3226  1.1413  2.2040
  969MOL0     H30775   9.869   6.370   7.206  1.9350 -2.8133  1.9839
  969MOL0     H30776  10.114   6.394   7.116  1.1247 -1.6082 -2.5020
  969MOL0     H30777  10.495   6.274   6.875  2.6267  0.5818 -0.2151
  969MOL0     H30778  10.728   6.359   6.876  1.4002  1.6316  1.7061
  969MOL0     H30779  10.874   6.514   6.967 -1.2061  1.0897  0.8671
  969MOL0     H30780  10.953   6.499   6.805 -3.8967 -0.7064 -1.5581
  969MOL0     H30781  10.998   6.747   6.828 -0.1577  0.7793  0.5806
  969MOL0     H30782  10.948   6.732   7.000  1.3191  0.2437  0.0972
  969MOL0     H30783  11.137   6.537   6.998  1.2252 -1.4870 -3.3141
  969MOL0     H30784  11.190   6.619   6.854  0.0735  0.2408 -0.4105
  969MOL0     H30785  11.169   6.726   7.138  0.4437  1.5767 -0.0276
  969MOL0     H30786  11.205   6.841   7.011  2.1826  0.3790  1.3786
  969MOL0     H30787  11.413   6.701   6.940  0.6746 -0.9159  0.1432
  969MOL0     H30788  11.386   6.602   7.078 -0.6272 -0.3921  1.5072
  969MOL0     H30789  11.432   6.905   7.092  1.2150 -0.1851 -0.6654
  969MOL0     H30790  11.388   6.805   7.232  0.6113  1.0868  0.6225
  969MOL0     H30791  11.593   6.671   7.192  1.2981 -1.0830 -0.7895
  969MOL0     H30792  11.613   6.847   7.223  1.0561 -2.8067  1.3913
  969MOL0     H30793  11.770   6.748   7.072 -1.3725 -0.7094  4.1922
  969MOL0     H30794  11.641   6.714   6.952 -1.8095  1.8657 -0.2560
  969MOL0     H30795  10.562   6.754   6.851 -2.0076  0.0919  0.3856
  969MOL0     H30796  10.348   6.674   6.877 -2.4037 -2.3675 -0.4233
  969MOL0     H30797   9.990   6.174   6.767  0.5447 -1.0021  0.3483
  969MOL0     H30798   9.777   6.142   6.862  1.8888 -1.0489 -2.1918
  969MOL0     H30799   8.054   5.514   6.634 -2.1689 -0.7396  0.6495
  969MOL0     H30800   7.890   5.428   6.781  0.1519  2.0278  1.9281
  969MOL0     H30801   7.743   5.153   7.015  1.1269 -0.8263 -0.0110
  969MOL0     H30802   7.535   5.050   7.084 -0.3303  1.0676 -2.2489
  969MOL0     H30803   7.346   4.952   7.231  0.4050  0.1682  0.4670
  969MOL0     H30804   7.314   5.050   7.095  0.2897 -0.5400 -0.2289
  969MOL0     H30805   7.143   5.088   7.346  0.0564  0.2176  0.4067
  969MOL0     H30806   7.101   4.993   7.204  0.6496 -1.0629  2.6954
  969MOL0     H30807   7.107   5.173   7.055 -0.4693 -0.3914  0.3947
  969MOL0     H30808   7.131   5.296   7.185  0.5296  0.4120 -2.5417
  969MOL0     H30809   6.918   5.097   7.106  2.0482 -0.9989  0.4563
  969MOL0     H30810   6.901   5.194   7.260  1.2235 -0.4778  1.5248
  969MOL0     H30811   6.857   5.540   7.074 -0.3310 -0.0202 -1.6603
  969MOL0     H30812   7.511   5.346   7.400 -1.0110 -2.9569  1.6785
  969MOL0     H30813   7.848   5.441   7.420 -0.4534 -0.8564  0.2626
  969MOL0     H30814   7.759   5.545   7.305  1.1842  0.6453  1.1544
  969MOL0     H30815   7.682   5.481   7.458 -0.3138 -1.0636  0.1120
  970MOL0     O30816  11.024   2.309   3.395 -0.3702  0.2788  0.2219
  970MOL0     C30817  10.992   2.405   3.461  0.4247  0.3776  0.4248
  970MOL0     O30818  11.012   2.419   3.598 -0.0961  0.2688  0.2442
  970MOL0     C30819  11.118   2.340   3.653 -0.1199 -0.3294  0.4321
  970MOL0     C30820  11.108   2.209   3.701  0.6418  0.2568  0.1090
  970MOL0     C30821  11.222   2.146   3.754  0.0463 -0.9755 -0.8693
  970MOL0     C30822  11.348   2.202   3.759  0.6453 -0.3792  0.6036
  970MOL0     O30823  11.456   2.148   3.814 -0.5996 -0.1776 -0.3524
  970MOL0     C30824  11.438   2.059   3.923  0.2272 -0.1380  0.2314
  970MOL0     C30825  11.477   1.913   3.892  0.0960  0.0871 -0.4017
  970MOL0     C30826  11.616   1.911   3.832 -0.8459  0.4452 -0.2436
  970MOL0     C30827  11.675   1.764   3.850 -0.1961 -0.7437  0.3061
  970MOL0     C30828  11.817   1.766   3.811  0.4113 -0.2950  0.4356
  970MOL0     C30829  11.869   1.621   3.813 -0.2784 -0.2419 -0.2082
  970MOL0     C30830  12.005   1.608   3.744  0.1603 -0.8539  0.6771
  970MOL0     C30831  12.105   1.691   3.823  0.0896  0.4055  0.1668
  970MOL0     N30832  12.231   1.713   3.749 -0.4738 -0.4241  0.1921
  970MOL0     C30833  12.333   1.620   3.760 -0.4722 -0.6405 -0.6516
  970MOL0     C30834  12.428   1.662   3.681 -0.1541 -1.2917  0.1955
  970MOL0     C30835  12.545   1.584   3.646  0.5365  1.0658  0.2622
  970MOL0     C30836  12.688   1.623   3.712 -0.2384  0.0772  0.2268
  970MOL0     C30837  12.790   1.513   3.659 -0.7107  0.6452 -0.1916
  970MOL0     C30838  12.941   1.542   3.692 -0.9916 -0.4475 -0.3760
  970MOL0     O30839  13.023   1.444   3.618 -0.1092 -0.2375  0.0748
  970MOL0     C30840  13.154   1.466   3.620 -0.7670 -0.3275  0.5042
  970MOL0     C30841  13.226   1.539   3.723  0.5339  0.3308  0.4849
  970MOL0     C30842  13.361   1.554   3.720 -0.6515  0.5243 -0.5213
  970MOL0     C30843  13.443   1.510   3.616  0.6589  0.0289  0.2873
  970MOL0     C30844  13.587   1.528   3.614  0.2503 -0.6653 -0.5985
  970MOL0     O30845  13.651   1.512   3.491  0.5427 -0.2403  0.5464
  970MOL0     C30846  13.784   1.487   3.497 -0.1217  0.4257  0.5180
  970MOL0     C30847  13.839   1.365   3.446  0.4015 -0.5178 -0.0092
  970MOL0     C30848  13.972   1.354   3.445 -0.7237 -0.1391  0.7579
  970MOL0     C30849  14.059   1.459   3.484  0.4329 -0.4353  0.3480
  970MOL0     O30850  14.192   1.440   3.473  0.0385 -0.3040  0.2960
  970MOL0     C30851  14.272   1.549   3.423  0.2547  0.6665 -0.9496
  970MOL0     C30852  14.414   1.482   3.402  0.3679  0.1202 -0.1981
  970MOL0     C30853  14.509   1.590   3.357 -1.0992 -0.0775  0.6084
  970MOL0     C30854  14.648   1.524   3.311 -0.4521 -0.2142 -0.2654
  970MOL0     C30855  14.744   1.622   3.254 -0.0856 -0.2410 -0.5975
  970MOL0     C30856  14.872   1.531   3.221  0.2470 -0.6672  0.3901
  970MOL0     C30857  14.998   1.615   3.231 -0.2963 -0.4098  0.6135
  970MOL0     C30858  15.126   1.532   3.235  0.3171  0.0118 -0.0653
  970MOL0    Cl30859  15.257   1.659   3.193  0.2155  0.2729  0.0488
  970MOL0     C30860  14.007   1.577   3.532  0.2037  0.8171 -0.8997
  970MOL0     C30861  13.871   1.586   3.545 -0.5852 -0.0178  0.4561
  970MOL0     O30862  13.643   1.552   3.723 -0.3301  0.6633 -0.2923
  970MOL0     C30863  13.380   1.437   3.517  0.0575 -0.6614 -0.0438
  970MOL0     C30864  13.238   1.419   3.516 -0.1936  0.7002  0.2886
  970MOL0     N30865  12.384   1.788   3.627  0.0018  1.1192 -0.8616
  970MOL0     N30866  12.268   1.815   3.673  0.8712 -0.1674  0.9359
  970MOL0     C30867  11.349   2.341   3.728 -0.1339 -0.3954  0.2295
  970MOL0     C30868  11.238   2.402   3.665 -0.5389  0.3129 -0.8930
  970MOL0     C30869  10.908   2.510   3.395  0.1048  0.1516  0.0955
  970MOL0     C30870  10.822   2.459   3.294  0.8360 -0.2557  0.3089
  970MOL0     C30871  10.746   2.543   3.218 -0.6790  0.7392  0.5247
  970MOL0     C30872  10.747   2.678   3.237 -0.6536  0.1957 -0.5768
  970MOL0     O30873  10.671   2.757   3.155  0.1249 -0.2859 -0.2435
  970MOL0     C30874  10.663   2.894   3.170 -0.6572 -0.1706  0.5095
  970MOL0     C30875  10.580   2.952   3.053 -0.4491 -0.0394  0.3477
  970MOL0     C30876  10.433   2.907   3.045 -0.9174 -0.3341 -0.3934
  970MOL0     C30877  10.373   2.860   3.176 -0.3923  0.7248 -0.6562
  970MOL0     C30878  10.231   2.812   3.157 -0.6607 -0.6048 -0.3384
  970MOL0     C30879  10.118   2.772   3.139  0.2888  0.3625 -0.3438
  970MOL0     C30880  10.827   2.732   3.342 -0.5788  0.1886  0.7396
  970MOL0     C30881  10.912   2.648   3.421 -0.2525  0.4221 -0.6448
  970MOL0     C30882  10.983   2.704   3.545 -0.0845 -0.3480  0.2744
  970MOL0     H30883  11.008   2.169   3.683 -0.1345  2.1500 -0.0638
  970MOL0     H30884  11.215   2.040   3.776 -1.4397 -0.6015  0.6643
  970MOL0     H30885  11.488   2.092   4.015 -2.5467  2.5591  0.9542
  970MOL0     H30886  11.333   2.068   3.952  0.5563  0.9993  1.1628
  970MOL0     H30887  11.403   1.871   3.824 -0.6720 -0.3529  0.6900
  970MOL0     H30888  11.469   1.858   3.986  0.4951  3.2590  1.6418
  970MOL0     H30889  11.682   1.984   3.879 -0.7493 -0.1154  0.4914
  970MOL0     H30890  11.610   1.928   3.724 -1.1890  0.4049 -0.2335
  970MOL0     H30891  11.660   1.728   3.953 -1.2600  0.2938  0.5435
  970MOL0     H30892  11.620   1.697   3.783  0.2008 -0.9503  0.1877
  970MOL0     H30893  11.816   1.806   3.709  0.6905  0.5652  0.7591
  970MOL0     H30894  11.878   1.835   3.870  0.3570  0.5288 -0.4513
  970MOL0     H30895  11.890   1.585   3.914  1.0224  2.4282  0.5536
  970MOL0     H30896  11.802   1.549   3.764 -1.8649 -2.7297  4.8826
  970MOL0     H30897  11.991   1.648   3.643  0.8234  2.1679  1.6844
  970MOL0     H30898  12.013   1.499   3.740 -0.5439 -0.9887  2.0802
  970MOL0     H30899  12.069   1.792   3.847  0.2514  0.8482 -1.3511
  970MOL0     H30900  12.141   1.633   3.908  2.2163 -3.3466 -2.9396
  970MOL0     H30901  12.324   1.531   3.823 -1.0035 -0.7190 -0.8341
  970MOL0     H30902  12.523   1.489   3.695  0.4777  0.4541 -0.9155
  970MOL0     H30903  12.545   1.564   3.538 -1.0456 -0.4086  0.5017
  970MOL0     H30904  12.725   1.726   3.702  1.6782 -0.3792  2.0380
  970MOL0     H30905  12.683   1.625   3.821  2.0554 -3.5436  0.5654
  970MOL0     H30906  12.763   1.509   3.553  2.2250 -0.1054 -0.9903
  970MOL0     H30907  12.769   1.417   3.708 -2.5779  1.4984  0.7969
  970MOL0     H30908  12.951   1.551   3.800 -0.4367  1.4090 -0.5407
  970MOL0     H30909  12.964   1.644   3.661  0.8143  0.2299  2.8338
  970MOL0     H30910  13.161   1.568   3.805 -2.7063 -0.0886 -1.7227
  970MOL0     H30911  13.402   1.602   3.809  0.7222  1.5189 -1.6377
  970MOL0     H30912  13.759   1.298   3.418  0.1487 -0.1846 -0.0893
  970MOL0     H30913  14.019   1.263   3.407 -0.9950  0.6327 -1.5540
  970MOL0     H30914  14.228   1.580   3.327 -0.2736 -2.6433 -1.8997
  970MOL0     H30915  14.279   1.626   3.500  3.4806 -1.0027  0.6094
  970MOL0     H30916  14.458   1.456   3.499  1.0860  3.0009  0.3647
  970MOL0     H30917  14.414   1.393   3.340  2.2173 -0.1626  0.1267
  970MOL0     H30918  14.469   1.663   3.286  1.6812  0.5444 -0.4587
  970MOL0     H30919  14.526   1.645   3.450  0.3981 -0.6585  0.7138
  970MOL0     H30920  14.630   1.449   3.234 -0.8551 -0.7379  0.3308
  970MOL0     H30921  14.685   1.468   3.398 -0.7764 -0.6600 -0.4117
  970MOL0     H30922  14.766   1.696   3.332  1.0902  0.3628 -1.4723
  970MOL0     H30923  14.698   1.670   3.167 -0.8852 -1.1440 -0.6887
  970MOL0     H30924  14.890   1.438   3.275  0.2134 -0.9412 -0.0704
  970MOL0     H30925  14.846   1.515   3.116  0.3050  0.6383  0.1564
  970MOL0     H30926  15.001   1.673   3.324  1.4471 -1.4406  1.2601
  970MOL0     H30927  14.996   1.686   3.149  1.1757 -0.9974  0.0345
  970MOL0     H30928  15.137   1.490   3.335  1.3246  3.7129  1.5339
  970MOL0     H30929  15.128   1.455   3.157  1.7457  0.7629 -0.8279
  970MOL0     H30930  14.069   1.664   3.552  1.9334 -0.7522  1.0136
  970MOL0     H30931  13.823   1.680   3.572 -2.3447 -0.4070 -1.1301
  970MOL0     H30932  13.429   1.397   3.429  1.3209  1.0617 -0.1775
  970MOL0     H30933  13.184   1.366   3.438  0.5516  0.3921 -0.0269
  970MOL0     H30934  11.441   2.395   3.752 -0.2424  0.0041 -0.2483
  970MOL0     H30935  11.236   2.507   3.639  0.0949  0.3037 -1.0088
  970MOL0     H30936  10.820   2.356   3.258  0.4276 -0.1939  0.1560
  970MOL0     H30937  10.691   2.492   3.139 -1.4462 -0.4187  1.7604
  970MOL0     H30938  10.760   2.945   3.163 -0.1402 -1.2021  0.0237
  970MOL0     H30939  10.624   2.924   3.268  0.6681 -0.4659  1.1435
  970MOL0     H30940  10.630   2.925   2.959  0.5601  1.3650  0.4391
  970MOL0     H30941  10.588   3.061   3.055  0.4509  0.0327 -2.6963
  970MOL0     H30942  10.427   2.832   2.965 -0.5268 -1.0049  0.1950
  970MOL0     H30943  10.378   2.993   3.006  0.3567  0.5033 -0.3824
  970MOL0     H30944  10.432   2.775   3.212 -2.7144 -0.5962  0.2928
  970MOL0     H30945  10.374   2.932   3.258  1.7429  0.4745 -0.4132
  970MOL0     H30946  10.021   2.727   3.134  0.5907 -0.5826  1.5619
  970MOL0     H30947  10.816   2.839   3.361  0.6044  0.8064 -1.7312
  970MOL0     H30948  10.904   2.708   3.621  0.8347  0.4631  1.2235
  970MOL0     H30949  11.068   2.649   3.584  1.3492  1.7090  0.2249
  970MOL0     H30950  11.014   2.808   3.532  0.9499 -0.4774  1.5355
  971MOL0     O30951   7.129   2.209   3.313  0.4437  0.1246 -0.4785
  971MOL0     C30952   7.060   2.121   3.360  0.1929 -0.3847  0.0647
  971MOL0     O30953   7.075   2.070   3.488 -0.0276 -0.4091 -0.3598
  971MOL0     C30954   7.197   2.080   3.546 -0.1501  1.2312 -0.5680
  971MOL0     C30955   7.200   2.082   3.684  0.2904 -0.0225 -0.4171
  971MOL0     C30956   7.313   2.068   3.765 -0.2748  0.4604  0.0178
  971MOL0     C30957   7.430   2.032   3.701 -0.0101  0.2871  0.3554
  971MOL0     O30958   7.549   2.008   3.766  0.6958  0.3937 -0.7746
  971MOL0     C30959   7.585   2.106   3.868  0.0046 -0.5958  0.3245
  971MOL0     C30960   7.728   2.076   3.924 -0.7064 -0.7981 -0.1910
  971MOL0     C30961   7.829   2.094   3.814 -0.1644 -0.5193 -0.5412
  971MOL0     C30962   7.968   2.086   3.863  0.2872  0.7511 -0.0672
  971MOL0     C30963   8.067   2.037   3.754 -0.3688  0.2429 -0.2690
  971MOL0     C30964   8.210   2.028   3.799  0.3475  0.0127  0.7359
  971MOL0     C30965   8.239   1.922   3.912  0.6107 -0.2323  0.3232
  971MOL0     C30966   8.395   1.897   3.930 -0.0954  0.3956  0.0331
  971MOL0     N30967   8.450   1.808   3.824  0.8503 -0.0844 -0.9462
  971MOL0     C30968   8.457   1.672   3.839 -0.5488  0.1038  0.9263
  971MOL0     C30969   8.507   1.624   3.719  0.3210 -0.3607  0.0641
  971MOL0     C30970   8.555   1.483   3.694 -0.2983  0.1812 -0.5201
  971MOL0     C30971   8.703   1.451   3.726 -0.1467 -1.5528  0.0386
  971MOL0     C30972   8.738   1.309   3.689  0.2031  0.1596  0.8564
  971MOL0     C30973   8.882   1.292   3.673 -0.1479 -0.3284  0.6041
  971MOL0     O30974   8.903   1.161   3.642  0.0500  1.0976 -0.3422
  971MOL0     C30975   9.041   1.123   3.636 -0.4758 -0.1281  0.6908
  971MOL0     C30976   9.154   1.194   3.583  0.4864 -0.4428 -0.2199
  971MOL0     C30977   9.282   1.136   3.555 -0.1627  0.0543 -0.2572
  971MOL0     C30978   9.298   1.005   3.576  0.1091  0.7304  0.4878
  971MOL0     C30979   9.432   0.938   3.547 -0.3995  0.4111  0.3666
  971MOL0     O30980   9.524   1.005   3.465 -0.2001  0.3189 -0.5591
  971MOL0     C30981   9.637   0.929   3.425 -0.6345  0.0775  0.0580
  971MOL0     C30982   9.760   0.996   3.434 -0.2167 -0.6163  0.1812
  971MOL0     C30983   9.883   0.936   3.398 -0.5073  0.0753  1.0532
  971MOL0     C30984   9.889   0.802   3.362  0.0886 -0.3039 -0.5730
  971MOL0     O30985  10.015   0.749   3.336  0.3234 -0.3603 -0.6419
  971MOL0     C30986  10.033   0.604   3.355 -0.7689 -0.3054  0.3609
  971MOL0     C30987  10.157   0.567   3.443  0.4741  0.2413  0.2939
  971MOL0     C30988  10.290   0.621   3.387 -0.6542  0.0453 -0.0305
  971MOL0     C30989  10.414   0.550   3.453 -0.5248 -0.1298  0.2325
  971MOL0     C30990  10.547   0.604   3.409 -0.3159 -0.5460 -0.2792
  971MOL0     C30991  10.669   0.542   3.483  0.0901  0.6547 -0.8503
  971MOL0     C30992  10.794   0.602   3.432  0.3421  0.2791 -0.0792
  971MOL0     C30993  10.919   0.508   3.465  0.3187 -1.4100 -0.6230
  971MOL0    Cl30994  11.066   0.605   3.422 -0.0516  0.2380  0.2714
  971MOL0     C30995   9.760   0.736   3.343 -0.3234 -0.9675  0.2345
  971MOL0     C30996   9.636   0.798   3.374 -0.2816 -0.0760  0.0438
  971MOL0     O30997   9.446   0.831   3.603  0.3115  0.2947 -0.2555
  971MOL0     C30998   9.195   0.933   3.628  0.2060  0.4928  0.7858
  971MOL0     C30999   9.075   0.985   3.666  0.3992  0.4995  0.1854
  971MOL0     N31000   8.543   1.739   3.645  0.1416  0.0282 -0.6059
  971MOL0     N31001   8.506   1.845   3.708 -0.3764  0.0392 -0.7654
  971MOL0     C31002   7.433   2.022   3.561  0.1916  0.6611 -0.1668
  971MOL0     C31003   7.321   2.051   3.484  0.0057 -0.0683  0.8072
  971MOL0     C31004   6.941   2.102   3.286  0.8890 -0.3162 -0.9072
  971MOL0     C31005   6.819   2.094   3.356  0.0982 -0.0945 -0.2359
  971MOL0     C31006   6.706   2.076   3.288  0.2183 -0.4249 -0.6160
  971MOL0     C31007   6.704   2.073   3.150 -0.3702  0.4946 -0.4381
  971MOL0     O31008   6.590   2.059   3.079 -0.3959 -0.1099 -0.1830
  971MOL0     C31009   6.459   2.071   3.130  0.3983  0.3078  0.0863
  971MOL0     C31010   6.369   2.127   3.025  0.2918 -0.6326 -0.1777
  971MOL0     C31011   6.395   2.279   3.003  0.0601 -0.6638  0.3587
  971MOL0     C31012   6.514   2.318   2.918  0.2360  0.2480  0.4449
  971MOL0     C31013   6.542   2.458   2.935  0.3797 -0.3490  0.2715
  971MOL0     C31014   6.562   2.579   2.934 -0.8678 -0.2871  0.0282
  971MOL0     C31015   6.822   2.075   3.078  1.0431 -0.0752  0.1784
  971MOL0     C31016   6.946   2.088   3.140  1.0014  0.0360 -0.1295
  971MOL0     C31017   7.068   2.107   3.053  0.0886  0.3072  0.2446
  971MOL0     H31018   7.106   2.105   3.733  0.5432  2.1463 -0.8620
  971MOL0     H31019   7.308   2.080   3.873 -2.1749  1.7487 -0.1714
  971MOL0     H31020   7.588   2.206   3.823  2.6280 -0.1089  1.4226
  971MOL0     H31021   7.511   2.107   3.949  0.5582  0.0749  0.8284
  971MOL0     H31022   7.739   1.987   3.987  0.2739 -0.5739 -0.0350
  971MOL0     H31023   7.751   2.159   3.991 -0.5326 -0.9597 -0.0499
  971MOL0     H31024   7.809   2.190   3.765  1.7084 -1.0866 -2.6025
  971MOL0     H31025   7.815   2.011   3.744  0.7733  0.2303 -1.6606
  971MOL0     H31026   7.990   2.188   3.896  0.5907  0.7320 -0.2012
  971MOL0     H31027   7.973   2.019   3.950 -0.6296 -0.3851 -0.8655
  971MOL0     H31028   8.038   1.937   3.721 -2.3921  0.1569  1.6041
  971MOL0     H31029   8.062   2.109   3.672 -0.8555 -0.0866 -0.5313
  971MOL0     H31030   8.271   1.997   3.714 -1.6890  1.1517 -1.2369
  971MOL0     H31031   8.257   2.124   3.820  1.3852 -0.4084  0.4476
  971MOL0     H31032   8.187   1.828   3.888 -2.1898  1.6159 -1.4839
  971MOL0     H31033   8.204   1.953   4.010  1.2822 -0.8231  0.7658
  971MOL0     H31034   8.437   1.998   3.922 -1.0852  1.0286  2.1292
  971MOL0     H31035   8.407   1.848   4.027  2.1241 -0.6112 -0.6765
  971MOL0     H31036   8.466   1.625   3.937  0.4313  1.9938  1.7813
  971MOL0     H31037   8.498   1.410   3.752 -0.6129  1.0895  0.3348
  971MOL0     H31038   8.547   1.471   3.586 -2.4161  2.6805 -0.7418
  971MOL0     H31039   8.770   1.513   3.666 -0.2882 -1.9271 -0.5031
  971MOL0     H31040   8.730   1.478   3.829  1.0132  0.1349 -0.6595
  971MOL0     H31041   8.685   1.278   3.599 -1.1798 -0.3501  1.8246
  971MOL0     H31042   8.704   1.242   3.769  1.7036 -3.4260 -1.2706
  971MOL0     H31043   8.940   1.322   3.761 -0.1499  0.2122  0.4293
  971MOL0     H31044   8.902   1.365   3.593 -1.4170  1.1156  1.5518
  971MOL0     H31045   9.133   1.298   3.564 -1.1119 -0.9585 -1.6191
  971MOL0     H31046   9.360   1.200   3.516  0.7430 -0.4289  0.6926
  971MOL0     H31047   9.777   1.097   3.468 -0.5606 -0.4578 -0.1115
  971MOL0     H31048   9.970   0.999   3.402  0.5861 -1.3513  0.6237
  971MOL0     H31049   9.948   0.562   3.410 -0.7920  0.6931  1.1195
  971MOL0     H31050  10.044   0.551   3.260 -0.6010 -0.7028  0.5980
  971MOL0     H31051  10.144   0.612   3.541  1.6846  0.2911  0.4540
  971MOL0     H31052  10.155   0.458   3.448  1.9869 -0.0775 -2.9600
  971MOL0     H31053  10.298   0.591   3.282 -0.3419  2.9327 -0.9100
  971MOL0     H31054  10.304   0.729   3.388 -1.9676  0.2778 -2.0289
  971MOL0     H31055  10.415   0.448   3.414  0.9575 -0.3830  0.8770
  971MOL0     H31056  10.421   0.562   3.561  2.3571 -0.4415  0.1754
  971MOL0     H31057  10.541   0.712   3.397  2.0341 -0.2108  0.8622
  971MOL0     H31058  10.553   0.575   3.304  1.5671  2.3770 -1.1089
  971MOL0     H31059  10.653   0.556   3.590 -0.0282  0.0087 -0.7794
  971MOL0     H31060  10.665   0.433   3.468 -3.6178  0.7989 -2.1189
  971MOL0     H31061  10.814   0.691   3.493  0.7327 -0.3546  0.7396
  971MOL0     H31062  10.797   0.633   3.327  0.3880 -1.0522 -0.4793
  971MOL0     H31063  10.919   0.501   3.574  0.7946  1.6742 -0.3401
  971MOL0     H31064  10.909   0.407   3.426 -0.4415 -2.4741  2.0683
  971MOL0     H31065   9.771   0.632   3.313 -3.1134 -1.1937 -0.2938
  971MOL0     H31066   9.551   0.731   3.374  0.0162 -0.5598 -2.3530
  971MOL0     H31067   9.195   0.826   3.641 -0.8050  0.1628 -1.3480
  971MOL0     H31068   9.007   0.918   3.718 -1.9286  2.0272 -0.7012
  971MOL0     H31069   7.520   1.980   3.512 -0.6631 -3.1909  1.2141
  971MOL0     H31070   7.332   2.043   3.377  3.7386  2.1891  0.8363
  971MOL0     H31071   6.817   2.088   3.464 -0.7676  1.6775 -0.1115
  971MOL0     H31072   6.613   2.051   3.339  0.3795 -0.1689 -0.1959
  971MOL0     H31073   6.460   2.134   3.219  1.7713  1.7989 -0.9204
  971MOL0     H31074   6.408   1.979   3.161 -3.9414  2.3630 -0.0583
  971MOL0     H31075   6.264   2.099   3.032 -0.0160  0.3300 -0.7560
  971MOL0     H31076   6.405   2.086   2.931  0.4735  0.1354 -0.4443
  971MOL0     H31077   6.391   2.329   3.100 -0.4286 -2.5872  1.3819
  971MOL0     H31078   6.304   2.304   2.948 -1.3575 -3.3521  1.3107
  971MOL0     H31079   6.604   2.262   2.943  0.9271  2.1436  2.5942
  971MOL0     H31080   6.499   2.293   2.813 -2.7756 -1.2008  1.0927
  971MOL0     H31081   6.576   2.684   2.925 -1.6937 -0.2057 -0.4368
  971MOL0     H31082   6.817   2.056   2.971 -1.9125 -0.9080  0.3842
  971MOL0     H31083   7.094   2.213   3.053  0.1079  0.3279  1.9708
  971MOL0     H31084   7.154   2.052   3.092 -0.9672 -0.4756  1.5281
  971MOL0     H31085   7.045   2.074   2.951  1.5813 -1.0715  0.3063
  972MOL0     O31086   7.506   7.142   2.542  0.1232 -0.4832  0.1932
  972MOL0     C31087   7.442   7.177   2.446 -0.1383  0.4200 -0.0803
  972MOL0     O31088   7.484   7.265   2.343  0.2280  0.4366  0.7368
  972MOL0     C31089   7.619   7.302   2.339  0.0738  0.2045 -0.1814
  972MOL0     C31090   7.653   7.331   2.207 -0.7310  0.2896 -0.0565
  972MOL0     C31091   7.789   7.377   2.176 -0.1886 -0.2651  0.2837
  972MOL0     C31092   7.886   7.368   2.281  0.3791  0.9573 -0.3446
  972MOL0     O31093   8.020   7.385   2.274 -0.2649  0.4839  0.0435
  972MOL0     C31094   8.082   7.435   2.154 -0.4470 -0.3567 -0.3352
  972MOL0     C31095   8.042   7.589   2.133 -0.3360  0.4157 -0.0789
  972MOL0     C31096   8.108   7.659   2.014  0.2443 -0.6918 -0.7223
  972MOL0     C31097   8.258   7.641   2.008 -0.7833  0.6469  0.2210
  972MOL0     C31098   8.313   7.683   1.869 -1.1590  0.0993 -0.2671
  972MOL0     C31099   8.463   7.651   1.860  0.0936 -0.0004 -0.2101
  972MOL0     C31100   8.539   7.735   1.760 -0.1440  0.0460  0.7510
  972MOL0     C31101   8.535   7.678   1.616 -0.0157  0.0665  0.0252
  972MOL0     N31102   8.648   7.724   1.535  0.4999 -0.5016  0.3142
  972MOL0     C31103   8.677   7.852   1.493  0.2638 -0.5939  0.2177
  972MOL0     C31104   8.782   7.836   1.409  0.0315  0.2434  0.0368
  972MOL0     C31105   8.861   7.945   1.335  0.2469 -0.3218 -0.4116
  972MOL0     C31106   8.940   7.898   1.206 -0.0446  1.0813  0.6314
  972MOL0     C31107   9.044   8.005   1.160  1.0592  0.0370  0.4878
  972MOL0     C31108   9.150   7.958   1.060  0.0781 -1.2136 -0.3236
  972MOL0     O31109   9.248   8.062   1.038  0.5714 -0.2338 -0.0062
  972MOL0     C31110   9.377   8.031   0.995 -0.8884  0.4355  0.7290
  972MOL0     C31111   9.401   7.926   0.899  0.1779  0.8183  0.2409
  972MOL0     C31112   9.522   7.918   0.837  0.2884  0.5210  0.0188
  972MOL0     C31113   9.625   8.012   0.875 -0.0255 -0.0054  0.1558
  972MOL0     C31114   9.760   8.003   0.824 -0.3109 -0.4110 -0.4000
  972MOL0     O31115   9.848   8.110   0.836  0.0228  0.3551  0.2932
  972MOL0     C31116   9.979   8.088   0.815  0.0808 -0.4276  0.3062
  972MOL0     C31117  10.068   8.109   0.922  0.4532 -0.3557  0.4801
  972MOL0     C31118  10.208   8.113   0.902  0.5331 -0.1535  0.4352
  972MOL0     C31119  10.259   8.104   0.767  0.5457  0.4922 -0.7558
  972MOL0     O31120  10.389   8.114   0.737  0.0602 -0.2327  0.5006
  972MOL0     C31121  10.488   8.092   0.838  1.0680  0.0534 -0.4071
  972MOL0     C31122  10.625   8.081   0.780 -0.9494  0.3261  0.1632
  972MOL0     C31123  10.723   8.065   0.899 -0.4899 -0.5439  0.0731
  972MOL0     C31124  10.863   8.020   0.855  0.1726  0.5042  0.7656
  972MOL0     C31125  10.969   8.022   0.959  0.8597  0.2723 -0.0528
  972MOL0     C31126  11.107   8.000   0.894  0.4717  0.2853 -0.1984
  972MOL0     C31127  11.207   8.002   0.998  0.3341 -0.4386  0.1868
  972MOL0     C31128  11.339   7.962   0.945 -0.0462 -0.1396  0.2841
  972MOL0    Cl31129  11.447   7.890   1.075  0.3173 -0.2051  0.4106
  972MOL0     C31130  10.164   8.072   0.667 -0.3448  0.1835 -0.1539
  972MOL0     C31131  10.026   8.075   0.684  0.1611 -0.1728 -0.6635
  972MOL0     O31132   9.800   7.891   0.791 -0.1142  0.1848 -0.1456
  972MOL0     C31133   9.605   8.114   0.972 -0.7825 -0.5788 -0.5057
  972MOL0     C31134   9.477   8.122   1.027 -0.3155  0.3070  0.4082
  972MOL0     N31135   8.827   7.706   1.423  0.4407 -0.3567 -0.0883
  972MOL0     N31136   8.738   7.639   1.488 -0.5256 -0.1797  0.3170
  972MOL0     C31137   7.851   7.330   2.415  0.0110  0.8535 -0.0613
  972MOL0     C31138   7.710   7.314   2.441  0.0738  0.0615 -0.1548
  972MOL0     C31139   7.307   7.147   2.426  0.1968  0.0517  0.4138
  972MOL0     C31140   7.228   7.240   2.349  0.1305  0.1912  0.1758
  972MOL0     C31141   7.096   7.206   2.312 -0.7505  0.9019  0.6862
  972MOL0     C31142   7.035   7.093   2.357 -0.7229 -0.1658  0.1396
  972MOL0     O31143   6.906   7.077   2.319  0.2468  0.3316 -0.1200
  972MOL0     C31144   6.842   6.955   2.362  0.2417 -0.3103  0.4582
  972MOL0     C31145   6.696   6.962   2.338  0.3493 -0.6971 -0.5102
  972MOL0     C31146   6.677   6.931   2.185  0.0484  0.6251 -0.2762
  972MOL0     C31147   6.539   6.941   2.122  0.0891 -0.0702  0.3180
  972MOL0     C31148   6.429   6.852   2.169  0.7751 -0.4467  0.4437
  972MOL0     C31149   6.332   6.795   2.205 -0.6406  0.8455 -0.2398
  972MOL0     C31150   7.112   7.004   2.435 -0.3114 -0.0376  0.6823
  972MOL0     C31151   7.246   7.021   2.460  0.6836 -0.2617 -0.3390
  972MOL0     C31152   7.323   6.919   2.532 -0.2662  0.0968  0.4123
  972MOL0     H31153   7.575   7.341   2.132 -2.0392  1.5149  1.4164
  972MOL0     H31154   7.813   7.400   2.073  0.5610  0.0845  0.5309
  972MOL0     H31155   8.190   7.418   2.154 -0.7147 -2.6418 -2.6852
  972MOL0     H31156   8.047   7.379   2.067  2.3348  0.4386 -2.1085
  972MOL0     H31157   8.074   7.638   2.225 -1.5484 -0.5221  0.8717
  972MOL0     H31158   7.934   7.599   2.115 -0.3920  1.3493  0.6774
  972MOL0     H31159   8.089   7.767   2.023  1.1529 -0.6705  2.0063
  972MOL0     H31160   8.060   7.630   1.921  0.0280  2.8869 -1.8843
  972MOL0     H31161   8.306   7.702   2.085  1.8286  1.5863 -1.9877
  972MOL0     H31162   8.285   7.536   2.021 -2.8400  0.1592  0.8245
  972MOL0     H31163   8.268   7.624   1.789 -2.3013  0.7554 -0.1280
  972MOL0     H31164   8.306   7.791   1.852 -0.9256 -0.0590 -1.4758
  972MOL0     H31165   8.513   7.665   1.957  0.7751 -1.1489 -0.3765
  972MOL0     H31166   8.470   7.545   1.832 -4.6211 -0.1154 -1.8341
  972MOL0     H31167   8.645   7.731   1.783  0.7861 -0.0183 -2.8660
  972MOL0     H31168   8.505   7.839   1.754  1.8823  0.6543 -2.5302
  972MOL0     H31169   8.535   7.569   1.601  2.0308 -0.1271  1.0828
  972MOL0     H31170   8.442   7.705   1.565  2.7255  0.2674 -5.6570
  972MOL0     H31171   8.631   7.944   1.528  3.4255  0.6630  1.4237
  972MOL0     H31172   8.793   8.028   1.316  1.8854  1.0829 -0.3570
  972MOL0     H31173   8.934   7.974   1.412 -0.6400 -2.9844  1.6077
  972MOL0     H31174   8.993   7.806   1.231 -1.2624  0.3777  0.7314
  972MOL0     H31175   8.876   7.872   1.121 -1.3395 -3.4286  2.6735
  972MOL0     H31176   9.089   8.060   1.243  0.3288  2.0868 -0.3991
  972MOL0     H31177   8.982   8.082   1.113  1.2288  0.0955  0.3605
  972MOL0     H31178   9.099   7.925   0.969  0.4338  1.3779 -1.5467
  972MOL0     H31179   9.213   7.875   1.097  3.1486  0.2556 -1.8510
  972MOL0     H31180   9.332   7.843   0.883  0.9552 -0.0542  1.2848
  972MOL0     H31181   9.552   7.831   0.779  4.0128  1.5351  0.1042
  972MOL0     H31182  10.011   8.131   1.012 -0.9137  0.7012 -0.6022
  972MOL0     H31183  10.267   8.156   0.983 -0.5732  1.5555  0.3942
  972MOL0     H31184  10.487   8.176   0.907 -1.9610  0.1356 -0.4111
  972MOL0     H31185  10.460   8.001   0.893  0.8633 -0.0154 -0.6236
  972MOL0     H31186  10.637   7.997   0.711 -2.4624  0.3144 -0.0983
  972MOL0     H31187  10.640   8.171   0.720  0.3258  1.1239  1.5727
  972MOL0     H31188  10.732   8.162   0.947  0.6858 -0.4644 -0.2959
  972MOL0     H31189  10.679   7.988   0.964 -3.0848  0.9506  0.2517
  972MOL0     H31190  10.890   8.090   0.776  2.4073 -0.8169  0.2689
  972MOL0     H31191  10.849   7.922   0.808  0.6477  1.2318 -0.9739
  972MOL0     H31192  10.958   7.947   1.037  2.1078  0.4454  0.3142
  972MOL0     H31193  10.969   8.123   1.003  2.3667  0.2936 -0.0352
  972MOL0     H31194  11.106   7.903   0.842 -0.9037  0.2193 -0.0703
  972MOL0     H31195  11.120   8.081   0.822 -1.4589 -0.3304 -1.3089
  972MOL0     H31196  11.171   7.938   1.079 -1.3191 -0.2333 -0.3607
  972MOL0     H31197  11.221   8.102   1.041  0.2138 -0.2699 -0.1640
  972MOL0     H31198  11.325   7.892   0.863  1.2931  0.4660 -0.4946
  972MOL0     H31199  11.394   8.042   0.894  0.6218 -0.4826  0.4532
  972MOL0     H31200  10.213   8.064   0.570  0.8014  1.0808  0.3194
  972MOL0     H31201   9.963   8.077   0.596 -0.4533  0.1753 -0.2200
  972MOL0     H31202   9.682   8.183   1.007 -0.8729 -2.6611  4.6624
  972MOL0     H31203   9.451   8.202   1.096  2.6673 -0.4490  2.6505
  972MOL0     H31204   7.925   7.326   2.493 -0.4323  3.2914  0.5588
  972MOL0     H31205   7.675   7.317   2.544 -0.5003 -0.5255 -0.3293
  972MOL0     H31206   7.267   7.334   2.312  3.1381 -1.0703 -0.1704
  972MOL0     H31207   7.033   7.259   2.240  0.2865 -1.4917 -2.1814
  972MOL0     H31208   6.865   6.936   2.467  0.6215  2.4880  0.9694
  972MOL0     H31209   6.876   6.873   2.298 -0.5363  1.4189 -2.3541
  972MOL0     H31210   6.647   7.053   2.372  1.5405 -0.1550 -0.2298
  972MOL0     H31211   6.652   6.886   2.404 -0.9296  2.0618  2.0407
  972MOL0     H31212   6.706   6.828   2.165  1.6557  0.3158  2.9704
  972MOL0     H31213   6.745   6.994   2.127 -1.9396  3.9431  0.6764
  972MOL0     H31214   6.504   7.044   2.126  1.2963  0.4179 -1.0220
  972MOL0     H31215   6.551   6.913   2.017 -2.0215  0.6552 -0.1520
  972MOL0     H31216   6.236   6.762   2.237 -0.1333 -0.8218 -0.3033
  972MOL0     H31217   7.068   6.915   2.480 -3.1112  0.6020 -0.5727
  972MOL0     H31218   7.403   6.888   2.464 -1.4036 -1.5093 -0.2685
  972MOL0     H31219   7.367   6.959   2.624  1.1085 -2.0714  0.7621
  972MOL0     H31220   7.264   6.828   2.548 -3.2113  2.0270  1.3989
  973MOL0     O31221   5.366   2.233   1.822 -0.0421  0.1278  0.1983
  973MOL0     C31222   5.393   2.128   1.885 -0.0113 -0.7930  0.1992
  973MOL0     O31223   5.521   2.075   1.899 -0.1375  0.5546  0.0257
  973MOL0     C31224   5.635   2.138   1.882  0.1769 -0.6321 -0.2190
  973MOL0     C31225   5.652   2.275   1.899  0.0872 -0.1393  0.0829
  973MOL0     C31226   5.773   2.339   1.867 -0.0772 -0.0337  0.1545
  973MOL0     C31227   5.884   2.261   1.850 -0.1659  0.3604 -0.5927
  973MOL0     O31228   6.004   2.320   1.842  0.6106 -0.3836 -0.1405
  973MOL0     C31229   6.030   2.395   1.726 -0.9803 -0.1797 -0.1472
  973MOL0     C31230   6.174   2.372   1.700 -0.2749 -0.3972 -0.2788
  973MOL0     C31231   6.204   2.229   1.663  0.0782  0.2966  0.2303
  973MOL0     C31232   6.333   2.211   1.585  0.1806  0.3450  0.3911
  973MOL0     C31233   6.376   2.067   1.559 -0.6628 -0.9187 -0.6644
  973MOL0     C31234   6.516   2.048   1.517 -0.2924 -0.1911 -0.1293
  973MOL0     C31235   6.559   1.901   1.528  0.2493  0.5791  0.0707
  973MOL0     C31236   6.671   1.874   1.434  1.0390  0.2233 -0.2326
  973MOL0     N31237   6.802   1.933   1.475 -0.4415 -0.0566  0.6312
  973MOL0     C31238   6.870   1.904   1.591 -0.0083 -0.1878 -0.2459
  973MOL0     C31239   6.986   1.978   1.582 -0.5551  0.6197 -0.1601
  973MOL0     C31240   7.101   1.967   1.673  0.2282 -0.1744 -0.1975
  973MOL0     C31241   7.140   2.094   1.751  1.2902  0.1286  0.7910
  973MOL0     C31242   7.265   2.083   1.835 -0.0272 -0.1940 -0.1160
  973MOL0     C31243   7.346   2.210   1.861  0.6753 -0.3520  0.2432
  973MOL0     O31244   7.423   2.252   1.748 -0.4807  0.1275 -0.4672
  973MOL0     C31245   7.540   2.314   1.768  0.3075  0.3121 -0.3208
  973MOL0     C31246   7.562   2.401   1.878 -1.4959 -1.2182 -0.9624
  973MOL0     C31247   7.681   2.476   1.888 -0.6656 -0.1359 -0.2750
  973MOL0     C31248   7.771   2.473   1.779 -0.7079  0.2848  0.8000
  973MOL0     C31249   7.893   2.560   1.779  0.4178  0.6442 -0.0210
  973MOL0     O31250   7.989   2.526   1.695 -0.1006 -0.7868 -0.4751
  973MOL0     C31251   8.117   2.576   1.726 -0.1123  0.2987  1.0851
  973MOL0     C31252   8.197   2.516   1.825  0.0538  0.0702  0.3918
  973MOL0     C31253   8.317   2.571   1.859 -0.1815  0.1421 -0.4677
  973MOL0     C31254   8.361   2.695   1.807 -0.5401  0.4896 -0.3710
  973MOL0     O31255   8.482   2.757   1.837 -0.1424  0.3135  0.6139
  973MOL0     C31256   8.554   2.719   1.952 -0.3741 -0.8692 -0.5843
  973MOL0     C31257   8.621   2.851   2.004 -0.6575  0.9691 -0.9096
  973MOL0     C31258   8.681   2.798   2.140 -0.7123 -0.5060 -0.0754
  973MOL0     C31259   8.749   2.905   2.221 -0.1333  0.1795  1.0101
  973MOL0     C31260   8.895   2.934   2.199 -1.2165 -0.8287 -0.0864
  973MOL0     C31261   8.914   3.005   2.054  0.5498  0.7384 -0.8911
  973MOL0     C31262   9.058   3.058   2.043 -0.1248 -0.4136  0.1616
  973MOL0     C31263   9.089   3.093   1.892  0.6046  0.7719  0.4276
  973MOL0    Cl31264   8.979   3.228   1.830  0.0901  0.0570 -0.1685
  973MOL0     C31265   8.296   2.745   1.690  0.4524  0.3974  0.1824
  973MOL0     C31266   8.174   2.684   1.651 -0.1869 -0.7891 -0.1192
  973MOL0     O31267   7.896   2.655   1.859 -0.7868 -0.3379  1.1388
  973MOL0     C31268   7.747   2.394   1.666 -0.1095  0.7843 -0.5125
  973MOL0     C31269   7.632   2.315   1.664 -0.5520  1.0565  0.5097
  973MOL0     N31270   6.983   2.049   1.466  0.1819 -0.3364  0.1500
  973MOL0     N31271   6.873   2.022   1.399  0.2869  0.4711 -0.3949
  973MOL0     C31272   5.872   2.125   1.857  0.6142 -0.0013 -0.9498
  973MOL0     C31273   5.749   2.063   1.866 -0.2434 -0.5232 -0.5656
  973MOL0     C31274   5.276   2.052   1.934  0.5219 -0.4610 -0.3818
  973MOL0     C31275   5.150   2.063   1.860 -0.3146  0.3472 -0.2506
  973MOL0     C31276   5.034   1.993   1.900 -0.4758 -1.0017 -0.0112
  973MOL0     C31277   5.037   1.913   2.007  0.0013  1.2473  0.0388
  973MOL0     O31278   4.925   1.850   2.051 -0.6639  1.0047  0.1377
  973MOL0     C31279   4.835   1.951   2.110 -0.7322  1.0066  0.2547
  973MOL0     C31280   4.760   1.889   2.225  0.8652  0.3627  0.3057
  973MOL0     C31281   4.692   1.761   2.187  0.2055 -0.1885 -0.0481
  973MOL0     C31282   4.662   1.676   2.311 -0.0923  0.2123 -0.0529
  973MOL0     C31283   4.785   1.606   2.351 -0.6969 -0.5649 -0.0546
  973MOL0     C31284   4.886   1.553   2.369 -1.1415  1.0511  0.4954
  973MOL0     C31285   5.160   1.893   2.075 -0.0414 -0.1014 -0.3035
  973MOL0     C31286   5.274   1.962   2.046 -0.3385 -0.5950 -0.9673
  973MOL0     C31287   5.387   1.964   2.143 -0.6384 -0.2717  0.2973
  973MOL0     H31288   5.569   2.338   1.928  0.4096 -0.7940  2.7395
  973MOL0     H31289   5.788   2.447   1.863  0.1207 -0.0813 -0.6241
  973MOL0     H31290   5.963   2.368   1.644 -2.4024 -2.2954  1.5938
  973MOL0     H31291   6.028   2.504   1.733  0.6194 -0.1074 -0.3310
  973MOL0     H31292   6.234   2.401   1.787 -1.7274 -0.0250  0.6282
  973MOL0     H31293   6.182   2.437   1.612 -1.9008 -0.5592 -0.5774
  973MOL0     H31294   6.123   2.181   1.608 -0.7811  2.5001 -0.5251
  973MOL0     H31295   6.223   2.161   1.746  2.7712 -0.7547 -1.0868
  973MOL0     H31296   6.344   2.272   1.495  0.9401 -0.4453 -0.0618
  973MOL0     H31297   6.415   2.246   1.647  0.0803  2.3697 -0.5345
  973MOL0     H31298   6.361   2.010   1.651 -1.2613  0.2826  0.0127
  973MOL0     H31299   6.322   2.021   1.477  2.3257 -1.4085 -2.4987
  973MOL0     H31300   6.531   2.089   1.416 -1.3422 -0.1529 -0.2914
  973MOL0     H31301   6.588   2.106   1.575 -1.9843  1.1655  0.7329
  973MOL0     H31302   6.479   1.834   1.497 -0.5797  0.8846  1.4303
  973MOL0     H31303   6.580   1.873   1.632 -1.5461  1.1728  0.6305
  973MOL0     H31304   6.678   1.765   1.423  0.6369  0.0998  0.6448
  973MOL0     H31305   6.641   1.906   1.334  0.0179  0.3288  0.0985
  973MOL0     H31306   6.846   1.838   1.673  1.8110 -1.4118 -0.6454
  973MOL0     H31307   7.079   1.898   1.755  1.2018  1.6254  1.6817
  973MOL0     H31308   7.185   1.917   1.623  0.0586  0.0181 -0.6884
  973MOL0     H31309   7.144   2.183   1.687 -1.5659  1.4756  2.2898
  973MOL0     H31310   7.061   2.120   1.822  0.3084 -1.8784  0.5066
  973MOL0     H31311   7.327   2.010   1.782  1.5541  1.4955 -0.7140
  973MOL0     H31312   7.235   2.040   1.931 -1.2165 -1.4432 -1.0093
  973MOL0     H31313   7.416   2.190   1.942 -2.2671  0.8518  3.3389
  973MOL0     H31314   7.269   2.282   1.890  0.7550  0.0552 -0.5358
  973MOL0     H31315   7.479   2.413   1.948 -0.3240 -2.4096  0.7263
  973MOL0     H31316   7.701   2.537   1.975 -0.9190  0.1100 -0.3901
  973MOL0     H31317   8.170   2.419   1.863  1.9690 -1.0788 -1.0197
  973MOL0     H31318   8.372   2.523   1.940 -2.4057 -1.6148  0.1219
  973MOL0     H31319   8.488   2.687   2.034 -0.6979  0.4738 -0.3027
  973MOL0     H31320   8.624   2.645   1.913  0.9571  0.4672 -0.8093
  973MOL0     H31321   8.695   2.889   1.933  0.2221 -0.2631 -0.6959
  973MOL0     H31322   8.537   2.918   2.025 -2.0295 -1.3700  1.7360
  973MOL0     H31323   8.602   2.762   2.207 -2.4055  0.8642 -1.2540
  973MOL0     H31324   8.749   2.715   2.120  1.6416  1.6280 -1.4820
  973MOL0     H31325   8.740   2.869   2.323  1.4444 -3.0999  0.1428
  973MOL0     H31326   8.695   3.000   2.214  1.3694  0.9740 -2.6926
  973MOL0     H31327   8.945   2.838   2.207  1.1218  0.4289  1.8215
  973MOL0     H31328   8.931   3.001   2.277 -0.6632 -1.6549  0.3739
  973MOL0     H31329   8.892   2.940   1.970  0.2064  0.4990 -0.6170
  973MOL0     H31330   8.843   3.088   2.043 -0.9286 -0.4815 -0.8535
  973MOL0     H31331   9.130   2.987   2.084 -3.0238 -3.3444  0.5576
  973MOL0     H31332   9.073   3.148   2.103 -0.9017 -1.0665  1.3824
  973MOL0     H31333   9.193   3.126   1.902  1.2708 -1.6535  2.5755
  973MOL0     H31334   9.076   3.008   1.824 -2.4287  1.9531 -0.6530
  973MOL0     H31335   8.340   2.837   1.651  1.2429  0.4413  1.1424
  973MOL0     H31336   8.120   2.732   1.570 -1.1395 -2.6349 -0.6472
  973MOL0     H31337   7.818   2.408   1.586 -1.3244 -1.2517 -2.0375
  973MOL0     H31338   7.609   2.246   1.583  0.2678  1.7071 -0.3061
  973MOL0     H31339   5.959   2.061   1.845 -0.6810 -1.8019 -1.0394
  973MOL0     H31340   5.729   1.957   1.876 -1.6198 -0.3806 -1.5516
  973MOL0     H31341   5.130   2.124   1.772 -2.4867 -2.8759 -2.2354
  973MOL0     H31342   4.940   2.009   1.848 -0.4280 -1.1647 -0.1478
  973MOL0     H31343   4.769   2.000   2.037 -1.2246  3.0356  1.9771
  973MOL0     H31344   4.900   2.025   2.157  0.9386 -1.2360  1.6834
  973MOL0     H31345   4.674   1.952   2.247 -2.5375 -2.7183 -2.6948
  973MOL0     H31346   4.826   1.867   2.309  0.0778 -1.6995  0.4650
  973MOL0     H31347   4.750   1.692   2.124 -0.8738 -2.1122  0.9949
  973MOL0     H31348   4.604   1.787   2.128  1.2382 -0.4476 -1.8009
  973MOL0     H31349   4.623   1.735   2.395  1.3309  2.1319 -0.6760
  973MOL0     H31350   4.595   1.593   2.286 -0.1036  0.4309 -0.7687
  973MOL0     H31351   4.969   1.488   2.389 -1.2295  0.5564 -0.6533
  973MOL0     H31352   5.158   1.844   2.171  2.0346  0.9609  0.3391
  973MOL0     H31353   5.480   1.943   2.089  0.4912  0.0796  2.0550
  973MOL0     H31354   5.397   2.055   2.203 -1.7320 -0.0974  0.2271
  973MOL0     H31355   5.377   1.884   2.216  2.3098  0.5036  1.7115
  974MOL0     O31356   8.224   1.537   5.678 -0.0398 -0.5411  0.2509
  974MOL0     C31357   8.268   1.432   5.731 -0.6671  0.4692  0.1275
  974MOL0     O31358   8.371   1.364   5.670 -0.3151  0.1945  0.8716
  974MOL0     C31359   8.480   1.415   5.599 -0.0667 -0.0685  0.4845
  974MOL0     C31360   8.576   1.327   5.558  0.1917 -0.1399 -0.0776
  974MOL0     C31361   8.693   1.354   5.480 -0.4259  0.1936  0.3658
  974MOL0     C31362   8.714   1.485   5.440  0.7787 -0.4686 -0.2935
  974MOL0     O31363   8.823   1.523   5.364 -0.3571  0.6186  0.5133
  974MOL0     C31364   8.852   1.450   5.244 -0.2589 -0.3747 -0.1001
  974MOL0     C31365   8.988   1.494   5.198  0.4122 -0.6803 -0.0963
  974MOL0     C31366   9.024   1.421   5.070 -0.4588  0.3722 -0.0626
  974MOL0     C31367   9.167   1.461   5.021  0.3648  0.0339  0.3166
  974MOL0     C31368   9.194   1.401   4.888  0.4815  0.0660 -0.2343
  974MOL0     C31369   9.343   1.437   4.854 -0.5388 -0.6327  0.7114
  974MOL0     C31370   9.391   1.375   4.728 -0.3585  0.7682 -1.2765
  974MOL0     C31371   9.458   1.231   4.753  0.4657  0.0786  0.4434
  974MOL0     N31372   9.602   1.260   4.775 -0.0627  0.6531 -0.2969
  974MOL0     C31373   9.691   1.267   4.670  0.4501 -0.2722 -0.3246
  974MOL0     C31374   9.806   1.284   4.735  0.5347 -0.8365 -0.7841
  974MOL0     C31375   9.933   1.300   4.666 -0.2758  0.5279  0.6997
  974MOL0     C31376  10.034   1.202   4.725  0.0530 -0.4883 -0.8810
  974MOL0     C31377  10.165   1.210   4.646 -0.2744 -0.2371  0.0460
  974MOL0     C31378  10.272   1.129   4.730 -0.5659 -0.3434 -1.3329
  974MOL0     O31379  10.403   1.125   4.664  0.0629 -0.3967 -0.8149
  974MOL0     C31380  10.514   1.132   4.750  0.5675 -0.1552  0.1811
  974MOL0     C31381  10.525   1.189   4.876  0.2577  0.3919 -0.2558
  974MOL0     C31382  10.654   1.195   4.935 -0.6907 -0.5652  0.0061
  974MOL0     C31383  10.767   1.141   4.873 -0.1273  0.3628 -0.3672
  974MOL0     C31384  10.898   1.150   4.937 -0.2806  0.4219 -0.5124
  974MOL0     O31385  10.992   1.077   4.873 -0.6366 -0.2308  0.0899
  974MOL0     C31386  11.123   1.074   4.927  0.5260  0.8155  0.2698
  974MOL0     C31387  11.182   0.945   4.950 -0.8271 -1.1688  0.2139
  974MOL0     C31388  11.309   0.930   5.010 -0.4604 -0.4157 -0.6059
  974MOL0     C31389  11.384   1.042   5.047 -1.0654  0.9326 -0.1895
  974MOL0     O31390  11.513   1.034   5.112  0.1418 -0.1284 -0.0329
  974MOL0     C31391  11.558   0.909   5.145 -0.4220 -0.2572  0.1469
  974MOL0     C31392  11.673   0.929   5.238 -0.4083 -0.0278 -0.7798
  974MOL0     C31393  11.805   0.956   5.168  0.5085 -0.4052  0.0046
  974MOL0     C31394  11.828   1.092   5.136 -0.7138 -0.7915  0.8723
  974MOL0     C31395  11.959   1.114   5.065 -0.0979  0.0790  0.6985
  974MOL0     C31396  12.088   1.071   5.143 -0.3452  0.5256  0.2642
  974MOL0     C31397  12.215   1.099   5.058  0.2824 -0.6800 -0.5046
  974MOL0     C31398  12.328   1.018   5.120 -0.5529  0.3588 -0.3854
  974MOL0    Cl31399  12.478   1.047   5.025 -0.4024  0.2474 -0.2679
  974MOL0     C31400  11.326   1.166   5.025  0.4033  0.2539 -0.4334
  974MOL0     C31401  11.202   1.181   4.965 -0.1648 -0.4316  0.6924
  974MOL0     O31402  10.911   1.217   5.039 -1.3220  0.1642 -0.2379
  974MOL0     C31403  10.751   1.090   4.746  0.5346 -0.0238 -0.1930
  974MOL0     C31404  10.624   1.081   4.691 -0.1317  0.3065 -0.3004
  974MOL0     N31405   9.783   1.300   4.868  0.3982 -1.0615  0.5700
  974MOL0     N31406   9.656   1.278   4.895  0.4379 -0.2092  0.2722
  974MOL0     C31407   8.626   1.585   5.479  0.8199  0.0325  0.3963
  974MOL0     C31408   8.506   1.549   5.556  0.2711 -0.4599  0.4104
  974MOL0     C31409   8.205   1.378   5.851  0.5013  0.0282 -0.8102
  974MOL0     C31410   8.263   1.265   5.917 -0.9475 -0.0688  0.8321
  974MOL0     C31411   8.193   1.192   6.013 -0.5539 -0.5165  0.2560
  974MOL0     C31412   8.074   1.233   6.061  0.2518  0.2097  0.6959
  974MOL0     O31413   8.020   1.158   6.159 -0.4758  0.4902 -0.3842
  974MOL0     C31414   7.919   1.198   6.255 -0.2870 -0.3412  0.7854
  974MOL0     C31415   7.908   1.116   6.379 -0.1192 -0.2640  0.1292
  974MOL0     C31416   8.045   1.067   6.424  0.2661  0.1974 -0.2203
  974MOL0     C31417   8.038   0.978   6.556  0.2345  0.3234 -0.2274
  974MOL0     C31418   8.000   1.055   6.673  1.4656 -0.0298 -0.8733
  974MOL0     C31419   7.974   1.136   6.761 -0.3487  0.1617 -0.1986
  974MOL0     C31420   8.019   1.346   6.012  0.1228 -0.2717 -1.2535
  974MOL0     C31421   8.080   1.424   5.908  0.6576  0.2239  0.0042
  974MOL0     C31422   8.011   1.546   5.851  0.9361 -0.4468  0.6522
  974MOL0     H31423   8.560   1.226   5.593 -2.1900  0.3517  0.4043
  974MOL0     H31424   8.773   1.283   5.463  1.7360  1.4689  4.0427
  974MOL0     H31425   8.869   1.344   5.266  1.3597  0.3108  2.3010
  974MOL0     H31426   8.776   1.459   5.166  1.3330  0.8995 -1.5650
  974MOL0     H31427   9.068   1.465   5.266 -0.8201 -0.9611  1.2721
  974MOL0     H31428   8.992   1.602   5.185  1.0246 -0.8353 -1.3977
  974MOL0     H31429   8.945   1.443   4.997  0.6457  1.5740 -0.9484
  974MOL0     H31430   9.034   1.314   5.089  1.1772  0.5740  0.3644
  974MOL0     H31431   9.166   1.569   5.004 -1.0995  0.2182  1.4532
  974MOL0     H31432   9.249   1.438   5.090 -0.5825 -0.2067  1.3972
  974MOL0     H31433   9.191   1.292   4.894  2.7137 -0.0050  0.6344
  974MOL0     H31434   9.122   1.429   4.811  1.0127  2.3107 -0.0007
  974MOL0     H31435   9.335   1.544   4.833 -0.0185 -0.3877  1.6991
  974MOL0     H31436   9.423   1.420   4.926 -1.3386 -2.6029  1.2011
  974MOL0     H31437   9.466   1.444   4.689  1.3264 -1.7886 -2.8664
  974MOL0     H31438   9.317   1.371   4.648  0.7664  1.3826 -2.3867
  974MOL0     H31439   9.406   1.194   4.842 -0.9021 -1.9824 -1.1466
  974MOL0     H31440   9.432   1.162   4.673  1.8827  1.5337 -1.3707
  974MOL0     H31441   9.660   1.278   4.567 -0.6678  0.5986  0.0832
  974MOL0     H31442   9.928   1.299   4.556  1.5836  0.9695  0.5665
  974MOL0     H31443   9.962   1.402   4.690  1.4117 -0.0092  1.1141
  974MOL0     H31444  10.039   1.242   4.827 -1.7962  1.8000 -1.6015
  974MOL0     H31445   9.993   1.101   4.739  1.2764 -0.7943  1.0358
  974MOL0     H31446  10.200   1.312   4.631  2.4262 -0.6577  2.4819
  974MOL0     H31447  10.149   1.162   4.549  0.4141  0.7443 -0.5687
  974MOL0     H31448  10.241   1.024   4.741  0.1653 -0.7968 -3.1472
  974MOL0     H31449  10.281   1.177   4.828 -0.3213 -2.3397 -0.3320
  974MOL0     H31450  10.438   1.233   4.924  0.2390  0.8491 -0.7024
  974MOL0     H31451  10.654   1.243   5.032 -1.3799  3.2739 -1.6889
  974MOL0     H31452  11.132   0.858   4.910  0.3162 -0.7160 -2.3982
  974MOL0     H31453  11.332   0.824   5.022 -1.7834 -0.5069  2.1522
  974MOL0     H31454  11.486   0.850   5.201 -1.0189 -0.3377 -0.6972
  974MOL0     H31455  11.590   0.863   5.051  2.0534  3.0213 -0.8478
  974MOL0     H31456  11.644   0.993   5.322  1.1956 -1.9028  1.3557
  974MOL0     H31457  11.685   0.842   5.304 -2.8165  1.3427  1.6609
  974MOL0     H31458  11.883   0.922   5.237 -1.2303 -1.8164  1.3791
  974MOL0     H31459  11.822   0.895   5.079  1.4787  0.1860 -0.2257
  974MOL0     H31460  11.837   1.122   5.241  1.8777  0.1327  0.4551
  974MOL0     H31461  11.744   1.138   5.084 -0.5551  0.1309  1.4203
  974MOL0     H31462  11.965   1.219   5.035 -1.4833 -0.3004 -1.1244
  974MOL0     H31463  11.950   1.056   4.972  0.1897  0.5371  0.3831
  974MOL0     H31464  12.082   1.133   5.233  1.3538  0.0475  0.7451
  974MOL0     H31465  12.080   0.971   5.186  3.3632 -0.3949 -0.8599
  974MOL0     H31466  12.236   1.206   5.050  3.2211 -1.1966 -0.8180
  974MOL0     H31467  12.206   1.051   4.959  1.4131  0.1087 -1.0014
  974MOL0     H31468  12.335   1.049   5.224  0.1663  1.4280 -0.7368
  974MOL0     H31469  12.307   0.911   5.109  1.6859 -0.1528 -0.1198
  974MOL0     H31470  11.385   1.252   5.056  2.5106 -1.6183  1.0878
  974MOL0     H31471  11.172   1.285   4.953  2.0131  0.1715  0.1179
  974MOL0     H31472  10.829   1.040   4.690 -0.9042 -1.2907 -1.1785
  974MOL0     H31473  10.621   1.034   4.594 -0.2009  1.5111 -0.8998
  974MOL0     H31474   8.653   1.687   5.454  2.0039 -0.4572 -0.4279
  974MOL0     H31475   8.432   1.624   5.579 -2.6042 -2.2404 -2.1026
  974MOL0     H31476   8.358   1.221   5.889 -1.8354 -3.5761  2.7882
  974MOL0     H31477   8.236   1.100   6.054 -2.1228 -0.6397  1.7329
  974MOL0     H31478   7.822   1.218   6.209 -0.8794  1.1861  2.5817
  974MOL0     H31479   7.945   1.299   6.287  1.3635 -1.0723  1.9300
  974MOL0     H31480   7.833   1.038   6.362 -0.0981 -0.5878  1.4706
  974MOL0     H31481   7.850   1.168   6.455  0.0122 -0.1996  0.1872
  974MOL0     H31482   8.114   1.152   6.434 -0.4204  0.9905 -1.7632
  974MOL0     H31483   8.096   1.000   6.354 -1.4431 -3.7434  2.0277
  974MOL0     H31484   7.978   0.888   6.546 -0.6869  0.7659  1.0568
  974MOL0     H31485   8.139   0.937   6.573  1.0552  1.9909 -0.8774
  974MOL0     H31486   7.940   1.217   6.821 -1.6232 -0.2879 -0.2832
  974MOL0     H31487   7.932   1.384   6.065  1.9477  1.7330  0.5059
  974MOL0     H31488   7.992   1.522   5.746  1.0856  0.5059  0.3923
  974MOL0     H31489   7.920   1.575   5.904 -1.5080 -1.3793 -2.7390
  974MOL0     H31490   8.080   1.631   5.852  1.0185 -0.4754 -0.8971
  975MOL0     O31491   6.939   4.114   0.783  0.4348  0.1017 -0.4353
  975MOL0     C31492   6.961   4.232   0.804 -0.3747  0.3634 -0.0453
  975MOL0     O31493   7.084   4.292   0.784 -0.4423  0.2095 -0.3967
  975MOL0     C31494   7.201   4.221   0.770  0.9283  0.6268 -0.2320
  975MOL0     C31495   7.287   4.280   0.677  0.4290 -0.6769 -0.1371
  975MOL0     C31496   7.416   4.228   0.664  0.3225  0.6533  0.1327
  975MOL0     C31497   7.449   4.105   0.727  0.3351  0.0820 -0.4824
  975MOL0     O31498   7.569   4.038   0.714 -0.1770  0.6198 -0.0909
  975MOL0     C31499   7.690   4.104   0.678  0.6499  0.9348 -0.6284
  975MOL0     C31500   7.722   4.201   0.789 -0.2496  0.7893 -0.2638
  975MOL0     C31501   7.852   4.279   0.770 -1.1985  0.3094 -0.7040
  975MOL0     C31502   7.979   4.183   0.774 -0.7396 -0.3181 -0.5998
  975MOL0     C31503   8.090   4.233   0.682 -0.7130  0.3459 -0.6658
  975MOL0     C31504   8.215   4.146   0.717 -0.1221  0.7473  0.7111
  975MOL0     C31505   8.314   4.180   0.601  0.3959  0.0727 -0.4228
  975MOL0     C31506   8.438   4.083   0.604  0.3167 -1.0286  0.2233
  975MOL0     N31507   8.511   4.094   0.730  0.1194 -0.1058 -0.4913
  975MOL0     C31508   8.559   4.211   0.790 -0.2634 -0.1152  0.8364
  975MOL0     C31509   8.589   4.169   0.916 -0.5001  0.0227  0.3018
  975MOL0     C31510   8.660   4.249   1.019 -0.0228 -0.8316 -0.0576
  975MOL0     C31511   8.585   4.256   1.152 -0.6629 -0.0401 -0.2743
  975MOL0     C31512   8.665   4.295   1.281  1.1902  0.5870  0.4171
  975MOL0     C31513   8.665   4.444   1.302 -0.3066 -0.6532  0.2104
  975MOL0     O31514   8.748   4.524   1.213  0.2471  0.9231  0.5373
  975MOL0     C31515   8.884   4.495   1.220 -0.2464  0.7494 -0.0169
  975MOL0     C31516   8.951   4.464   1.346 -0.3805  0.2044  0.7921
  975MOL0     C31517   9.086   4.440   1.342  0.0034 -0.1033 -0.0047
  975MOL0     C31518   9.153   4.444   1.216 -0.1468 -0.4953  0.7904
  975MOL0     C31519   9.295   4.415   1.217  0.3417 -0.0552  0.6343
  975MOL0     O31520   9.348   4.375   1.338  0.3207  0.9195  0.3211
  975MOL0     C31521   9.483   4.364   1.356 -0.0933 -0.0694  0.6889
  975MOL0     C31522   9.561   4.275   1.279  0.3805 -0.2285 -0.4608
  975MOL0     C31523   9.703   4.277   1.300 -0.0908 -0.3683 -0.0949
  975MOL0     C31524   9.769   4.353   1.390 -0.4651  0.5036 -0.7236
  975MOL0     O31525   9.905   4.348   1.412 -0.3743 -0.7513  0.9484
  975MOL0     C31526   9.955   4.374   1.542 -0.4544  0.2428 -0.4129
  975MOL0     C31527  10.085   4.293   1.558 -0.2754 -0.0061  0.0799
  975MOL0     C31528  10.141   4.292   1.703 -0.2364 -0.0979 -0.6075
  975MOL0     C31529  10.280   4.228   1.726  1.3101 -0.0079  0.5699
  975MOL0     C31530  10.342   4.280   1.855  0.5475  0.3528  0.0308
  975MOL0     C31531  10.481   4.227   1.860  0.0822  0.1964 -0.2028
  975MOL0     C31532  10.566   4.260   1.984 -0.0011 -0.5635 -0.5422
  975MOL0     C31533  10.601   4.408   2.004 -0.2558  0.1749  0.1761
  975MOL0    Cl31534  10.459   4.502   2.048  0.0765  0.1451  0.1391
  975MOL0     C31535   9.689   4.438   1.470 -0.6723 -0.2258 -0.5677
  975MOL0     C31536   9.548   4.431   1.461  0.6171  0.0095  0.3448
  975MOL0     O31537   9.359   4.425   1.112 -0.3667 -0.2740 -0.1442
  975MOL0     C31538   9.084   4.469   1.095 -0.2993  0.7841 -0.2919
  975MOL0     C31539   8.956   4.508   1.099  0.3067 -0.8458 -0.4299
  975MOL0     N31540   8.552   4.038   0.928  0.0204  0.5084 -0.2444
  975MOL0     N31541   8.497   3.996   0.820  0.1134 -0.4878 -0.2172
  975MOL0     C31542   7.353   4.047   0.806 -0.1802  0.4692  0.7350
  975MOL0     C31543   7.235   4.109   0.837  0.0118  0.7940  0.7872
  975MOL0     C31544   6.847   4.305   0.847 -0.5712 -0.4724 -0.3317
  975MOL0     C31545   6.851   4.431   0.797  0.1510 -0.5095 -0.2624
  975MOL0     C31546   6.736   4.517   0.801 -0.0462 -0.1227 -0.1782
  975MOL0     C31547   6.622   4.462   0.874 -0.0562 -0.0013 -0.5103
  975MOL0     O31548   6.515   4.544   0.888  0.2569 -0.2745  0.1851
  975MOL0     C31549   6.429   4.527   0.999 -0.4999  0.1830  0.1736
  975MOL0     C31550   6.312   4.641   0.996  0.2377  0.4225 -0.4752
  975MOL0     C31551   6.212   4.604   0.884 -0.4601 -0.2337 -0.0767
  975MOL0     C31552   6.109   4.494   0.925  0.0436 -0.6036 -0.0067
  975MOL0     C31553   6.001   4.492   0.826  0.0563 -0.1297 -0.3215
  975MOL0     C31554   5.917   4.498   0.731  0.4553 -0.2199 -0.5573
  975MOL0     C31555   6.624   4.332   0.928  0.0806 -0.7398  0.4081
  975MOL0     C31556   6.734   4.249   0.912 -0.0116  1.1424  0.5177
  975MOL0     C31557   6.729   4.114   0.973  0.5802 -0.2626  0.7051
  975MOL0     H31558   7.254   4.369   0.625  0.0282  0.1853  1.4987
  975MOL0     H31559   7.485   4.280   0.598 -0.0239  0.0062 -0.7645
  975MOL0     H31560   7.768   4.033   0.649 -1.1498 -0.4326 -2.3307
  975MOL0     H31561   7.667   4.166   0.590 -1.4335  0.5131 -0.4363
  975MOL0     H31562   7.728   4.144   0.882 -0.9730  0.8190 -0.1951
  975MOL0     H31563   7.643   4.275   0.802  1.5045  2.9019 -0.9754
  975MOL0     H31564   7.858   4.351   0.852  0.7722  0.1062 -0.6336
  975MOL0     H31565   7.848   4.337   0.677 -0.2038  0.2526 -0.7923
  975MOL0     H31566   8.016   4.185   0.877  0.8791 -0.1728 -1.1534
  975MOL0     H31567   7.952   4.078   0.758 -3.2654  0.1207  0.4371
  975MOL0     H31568   8.039   4.215   0.587 -4.6794  3.7997  0.5279
  975MOL0     H31569   8.095   4.339   0.707  0.9156 -0.0198  0.7277
  975MOL0     H31570   8.250   4.162   0.819 -4.7747 -0.5806  2.7661
  975MOL0     H31571   8.188   4.040   0.713 -1.1899  1.0045  0.5676
  975MOL0     H31572   8.344   4.283   0.620  1.1255  0.5308 -3.4816
  975MOL0     H31573   8.273   4.179   0.499  1.7238  2.2578 -1.0438
  975MOL0     H31574   8.413   3.978   0.587 -0.1852 -0.7184 -1.1585
  975MOL0     H31575   8.508   4.123   0.530 -0.1028  0.8517  0.7736
  975MOL0     H31576   8.574   4.301   0.733 -0.8226 -1.9271 -2.4003
  975MOL0     H31577   8.769   4.237   1.027  0.4758  2.9496  0.6309
  975MOL0     H31578   8.646   4.351   0.982 -0.8763 -0.9120  0.0317
  975MOL0     H31579   8.505   4.328   1.133 -0.3144  0.2710 -0.5696
  975MOL0     H31580   8.555   4.154   1.179 -1.0296 -0.2193 -1.3164
  975MOL0     H31581   8.763   4.247   1.271 -0.4021 -2.6997 -1.2432
  975MOL0     H31582   8.621   4.252   1.371  2.7381  0.5769  1.2150
  975MOL0     H31583   8.677   4.467   1.409 -0.6740  1.0570 -0.0852
  975MOL0     H31584   8.561   4.470   1.283  0.1450  1.5206  0.4766
  975MOL0     H31585   8.895   4.461   1.439 -0.7316 -2.7410  0.5739
  975MOL0     H31586   9.131   4.423   1.439 -4.1900  0.3088  2.2406
  975MOL0     H31587   9.529   4.214   1.195  0.4959  3.6583 -3.6020
  975MOL0     H31588   9.760   4.205   1.242  0.1493 -0.3143  0.0711
  975MOL0     H31589   9.993   4.477   1.535 -3.2319  1.4054  0.3431
  975MOL0     H31590   9.896   4.347   1.630 -0.2794  1.1276 -0.0194
  975MOL0     H31591  10.060   4.188   1.544 -2.5474  0.5034 -0.0317
  975MOL0     H31592  10.165   4.316   1.488 -0.3906 -0.3694 -0.1745
  975MOL0     H31593  10.147   4.396   1.736 -1.3328  0.2904 -1.5646
  975MOL0     H31594  10.069   4.240   1.766  0.2809 -1.6925 -1.2708
  975MOL0     H31595  10.349   4.261   1.647 -1.9865  0.3339 -2.4618
  975MOL0     H31596  10.276   4.120   1.715  1.7127  0.0242  0.0757
  975MOL0     H31597  10.297   4.241   1.947  2.2416  1.3831  1.3496
  975MOL0     H31598  10.344   4.389   1.852 -1.5239  0.4366  0.4631
  975MOL0     H31599  10.477   4.121   1.835  4.3840  0.2041 -1.6957
  975MOL0     H31600  10.543   4.269   1.780  0.9101 -0.3124  0.1671
  975MOL0     H31601  10.656   4.198   1.979  0.5906  0.1481  0.7349
  975MOL0     H31602  10.497   4.227   2.062  2.5647 -0.6312  1.8349
  975MOL0     H31603  10.683   4.418   2.076 -0.4420  0.9119  0.3006
  975MOL0     H31604  10.631   4.449   1.908 -0.4370 -2.3061 -1.0110
  975MOL0     H31605   9.745   4.494   1.544 -0.8347 -1.1245  0.2521
  975MOL0     H31606   9.494   4.501   1.524  1.5906  1.5755 -0.5087
  975MOL0     H31607   9.130   4.463   0.997  1.4634  1.0998  0.4640
  975MOL0     H31608   8.902   4.542   1.012 -0.5756  0.0412  0.4444
  975MOL0     H31609   7.383   3.948   0.841 -0.8077  0.4885  1.3525
  975MOL0     H31610   7.167   4.065   0.910 -0.3054  1.7666  1.0946
  975MOL0     H31611   6.933   4.478   0.743 -2.1229  2.0303 -1.7442
  975MOL0     H31612   6.751   4.615   0.757  2.4779  0.4280  1.6944
  975MOL0     H31613   6.495   4.552   1.082 -2.7050  1.9937  1.5115
  975MOL0     H31614   6.388   4.426   1.010  0.2200 -0.4139 -2.1335
  975MOL0     H31615   6.347   4.742   0.971 -1.1613  0.8086 -0.9443
  975MOL0     H31616   6.269   4.644   1.096 -2.4067  0.5029 -1.5505
  975MOL0     H31617   6.257   4.563   0.793 -1.8062 -2.0897  0.0269
  975MOL0     H31618   6.158   4.694   0.853 -2.1681 -0.2090  2.6431
  975MOL0     H31619   6.151   4.393   0.918 -1.2446 -1.1757  0.1928
  975MOL0     H31620   6.070   4.509   1.026  0.6418  0.3841  0.0957
  975MOL0     H31621   5.842   4.515   0.656  0.2015 -0.9468 -0.4717
  975MOL0     H31622   6.530   4.291   0.965 -0.7477  1.1456  0.5116
  975MOL0     H31623   6.832   4.098   1.005  1.4284  1.6228 -0.8573
  975MOL0     H31624   6.655   4.117   1.054  0.8661  5.4061  1.2013
  975MOL0     H31625   6.703   4.048   0.890 -1.2591  0.5514  0.5701
  976MOL0     O31626   6.141   5.919   2.542  0.1872 -0.0166 -0.0361
  976MOL0     C31627   6.116   6.026   2.485 -0.8475  0.0328 -0.8906
  976MOL0     O31628   6.206   6.124   2.461 -0.0388 -0.1198  0.2660
  976MOL0     C31629   6.327   6.121   2.514 -0.6303 -0.0368 -0.5256
  976MOL0     C31630   6.353   6.135   2.648  0.0842  0.4058  0.7089
  976MOL0     C31631   6.480   6.137   2.695 -0.3016 -0.2702  0.4075
  976MOL0     C31632   6.594   6.146   2.610 -0.1643  0.1161 -0.2065
  976MOL0     O31633   6.721   6.150   2.671 -0.2541  0.2715  0.0957
  976MOL0     C31634   6.831   6.189   2.578  0.1808  0.0138 -0.2530
  976MOL0     C31635   6.954   6.197   2.662 -0.1348 -0.2002  0.1916
  976MOL0     C31636   7.060   6.276   2.580 -0.1230  0.4528  1.1916
  976MOL0     C31637   7.189   6.278   2.666  0.0563  0.0834 -0.4892
  976MOL0     C31638   7.294   6.345   2.594  0.3439  0.2360  0.7713
  976MOL0     C31639   7.425   6.365   2.663  0.3490 -0.3126 -0.3272
  976MOL0     C31640   7.415   6.448   2.790 -0.7412  0.1372  0.5861
  976MOL0     C31641   7.545   6.509   2.840 -0.9650 -0.1166 -0.6292
  976MOL0     N31642   7.634   6.567   2.739 -1.0755 -0.0447  0.6288
  976MOL0     C31643   7.600   6.671   2.661  0.7984  0.0968 -0.2530
  976MOL0     C31644   7.714   6.697   2.597 -0.4498 -0.5544  0.4012
  976MOL0     C31645   7.739   6.803   2.489  0.0093 -0.7286  0.2776
  976MOL0     C31646   7.874   6.885   2.503 -0.1815 -0.7413  0.7824
  976MOL0     C31647   7.901   6.978   2.376 -1.0092  0.4502 -0.2198
  976MOL0     C31648   8.041   7.046   2.366 -0.0031  0.5011 -0.3028
  976MOL0     O31649   8.144   6.948   2.352  0.2791 -0.0164 -0.4437
  976MOL0     C31650   8.265   7.000   2.320 -0.1342 -0.4715  0.3705
  976MOL0     C31651   8.362   6.901   2.305 -0.3456 -0.2662  0.3685
  976MOL0     C31652   8.493   6.940   2.277 -0.2440  0.8086 -0.5927
  976MOL0     C31653   8.528   7.074   2.259  0.0074 -0.2793 -0.9170
  976MOL0     C31654   8.657   7.111   2.204 -0.6655 -0.4665 -1.0991
  976MOL0     O31655   8.685   7.234   2.149 -0.5024  0.2149 -0.1847
  976MOL0     C31656   8.812   7.252   2.106 -0.1558  0.0818 -1.2144
  976MOL0     C31657   8.831   7.270   1.971 -0.9670  0.7262 -0.9620
  976MOL0     C31658   8.956   7.276   1.908  0.4730 -0.6312 -0.2904
  976MOL0     C31659   9.067   7.263   1.991 -0.0642  0.1822  0.0472
  976MOL0     O31660   9.198   7.270   1.953 -0.7242 -0.1197 -0.4613
  976MOL0     C31661   9.222   7.293   1.809  0.3668  0.8033  0.3009
  976MOL0     C31662   9.365   7.308   1.756  1.0772  0.7755 -0.0453
  976MOL0     C31663   9.431   7.172   1.736  0.8409 -0.7738 -0.1419
  976MOL0     C31664   9.558   7.212   1.664 -0.0725 -0.5369  0.7614
  976MOL0     C31665   9.622   7.079   1.606  0.2279  0.3794 -0.3022
  976MOL0     C31666   9.754   7.105   1.536 -0.3375 -0.4832 -0.0582
  976MOL0     C31667   9.856   6.987   1.558  1.1703 -0.1621 -0.6091
  976MOL0     C31668   9.993   7.013   1.493  0.8424  0.2572  0.4595
  976MOL0    Cl31669  10.096   7.098   1.599  0.0937  0.2588 -0.5853
  976MOL0     C31670   9.053   7.254   2.126 -0.0956  0.3947  0.3241
  976MOL0     C31671   8.926   7.249   2.186  1.3212  0.0142 -0.6750
  976MOL0     O31672   8.735   7.019   2.196  0.4544 -0.8058 -0.7505
  976MOL0     C31673   8.427   7.166   2.278  1.4109  0.0613  0.2397
  976MOL0     C31674   8.295   7.130   2.313  0.3995 -0.9080 -0.1570
  976MOL0     N31675   7.813   6.600   2.624 -0.7272 -0.5922  0.5485
  976MOL0     N31676   7.763   6.520   2.702 -0.1814 -0.3362  0.2372
  976MOL0     C31677   6.570   6.141   2.471  0.3422 -0.2507 -1.0208
  976MOL0     C31678   6.435   6.137   2.422 -0.4662  0.1136  0.4024
  976MOL0     C31679   5.977   6.045   2.425 -0.0345  0.7808 -0.6287
  976MOL0     C31680   5.898   6.156   2.454 -0.2540  0.5589 -0.0990
  976MOL0     C31681   5.770   6.161   2.395 -0.0206  0.0725  0.6869
  976MOL0     C31682   5.722   6.071   2.297 -0.1223  0.9454 -0.1603
  976MOL0     O31683   5.595   6.094   2.256  0.4589 -1.1315  0.9080
  976MOL0     C31684   5.523   6.004   2.168 -0.2014 -1.2660  0.8227
  976MOL0     C31685   5.482   5.881   2.248 -0.1232  0.1747 -0.4650
  976MOL0     C31686   5.371   5.816   2.175 -0.3816  0.1644  0.2863
  976MOL0     C31687   5.305   5.715   2.272 -0.6503  0.5323  1.1536
  976MOL0     C31688   5.221   5.621   2.193  0.1256 -0.6326 -0.3718
  976MOL0     C31689   5.158   5.536   2.140 -0.1882 -0.8644 -0.2964
  976MOL0     C31690   5.803   5.963   2.264 -0.0504 -0.1761 -0.0653
  976MOL0     C31691   5.938   5.952   2.324  0.3493  0.2614 -0.8349
  976MOL0     C31692   6.017   5.830   2.283 -0.4000 -0.2486 -0.3838
  976MOL0     H31693   6.270   6.123   2.717 -0.6409 -0.6576 -0.3035
  976MOL0     H31694   6.487   6.140   2.804  1.8468 -0.2867  0.3135
  976MOL0     H31695   6.838   6.113   2.499 -2.0120 -1.8528  1.2036
  976MOL0     H31696   6.802   6.283   2.530 -0.0434  1.5819  2.7528
  976MOL0     H31697   6.985   6.097   2.693  0.9841  0.6374  1.8907
  976MOL0     H31698   6.931   6.244   2.758 -1.8926 -2.3130  0.9171
  976MOL0     H31699   7.019   6.374   2.553 -3.4277 -1.3309 -0.9488
  976MOL0     H31700   7.075   6.228   2.483  0.0346  2.5935  0.0980
  976MOL0     H31701   7.172   6.327   2.762  2.8939  0.5515 -0.1319
  976MOL0     H31702   7.212   6.176   2.697 -1.1855 -0.4110 -1.1167
  976MOL0     H31703   7.323   6.287   2.507  1.4133  0.9169  0.6393
  976MOL0     H31704   7.263   6.445   2.561 -2.0866 -0.9851 -0.8988
  976MOL0     H31705   7.461   6.267   2.695 -0.6254 -0.7520 -0.5305
  976MOL0     H31706   7.492   6.412   2.590  1.9608 -2.0416 -0.0298
  976MOL0     H31707   7.376   6.387   2.871 -2.3285 -2.6590 -2.0665
  976MOL0     H31708   7.354   6.537   2.774 -0.9401 -0.4252 -2.5232
  976MOL0     H31709   7.522   6.590   2.910  0.6474 -0.2854  0.1303
  976MOL0     H31710   7.602   6.431   2.892  0.2635  0.8961 -0.3990
  976MOL0     H31711   7.506   6.725   2.655  0.3652 -0.3947  1.5425
  976MOL0     H31712   7.723   6.764   2.388 -1.8869  1.2118 -0.2311
  976MOL0     H31713   7.664   6.881   2.501 -2.9417 -2.2617 -5.0430
  976MOL0     H31714   7.870   6.937   2.599  0.7819 -2.0384  1.5563
  976MOL0     H31715   7.954   6.811   2.510 -0.6653 -1.1135  3.2189
  976MOL0     H31716   7.833   7.062   2.364  1.6226  3.2746  2.6063
  976MOL0     H31717   7.881   6.919   2.286 -3.8021 -1.0652  1.2714
  976MOL0     H31718   8.053   7.101   2.459 -0.0423 -1.8513  1.1665
  976MOL0     H31719   8.039   7.109   2.276  3.8466  0.8499 -0.3150
  976MOL0     H31720   8.332   6.797   2.308 -1.2741 -0.1351 -1.9036
  976MOL0     H31721   8.561   6.858   2.257 -0.0356  0.5367  1.1525
  976MOL0     H31722   8.743   7.279   1.909 -0.2596  3.5363 -1.6814
  976MOL0     H31723   8.948   7.288   1.800  0.1518 -0.8332 -0.2892
  976MOL0     H31724   9.165   7.221   1.748 -1.2568  2.3419 -0.1021
  976MOL0     H31725   9.174   7.390   1.797 -1.1245  0.2720  1.6249
  976MOL0     H31726   9.366   7.361   1.660  1.3525 -0.2533 -0.6310
  976MOL0     H31727   9.418   7.356   1.838 -1.9751  1.1932  1.8252
  976MOL0     H31728   9.448   7.131   1.836  1.9796 -0.5763 -0.2386
  976MOL0     H31729   9.372   7.114   1.665 -1.5550  1.4798 -0.1136
  976MOL0     H31730   9.626   7.261   1.734  0.2359 -0.8148  0.6583
  976MOL0     H31731   9.541   7.274   1.576 -1.2215  0.7370  1.8237
  976MOL0     H31732   9.551   7.028   1.540 -0.3762 -1.3380  1.5592
  976MOL0     H31733   9.646   7.014   1.691  1.0851  0.2252 -0.6558
  976MOL0     H31734   9.734   7.120   1.430 -0.7327  0.4514  0.1356
  976MOL0     H31735   9.790   7.201   1.574  0.6287 -1.0344  0.4784
  976MOL0     H31736   9.809   6.899   1.513 -2.6482  1.5084 -0.3009
  976MOL0     H31737   9.865   6.963   1.664  3.0782  2.4730 -0.0720
  976MOL0     H31738  10.052   6.927   1.461  2.1179  1.8179 -1.7186
  976MOL0     H31739   9.983   7.072   1.401  1.4864 -1.2191 -0.6053
  976MOL0     H31740   9.138   7.233   2.190  0.2576 -0.8718 -0.5273
  976MOL0     H31741   8.920   7.240   2.294 -0.5141  2.1941 -0.5262
  976MOL0     H31742   8.442   7.272   2.262 -2.2876  0.7668  0.4718
  976MOL0     H31743   8.221   7.205   2.338 -1.5928 -2.9327  0.3527
  976MOL0     H31744   6.650   6.162   2.401 -0.4119  2.7457 -1.0985
  976MOL0     H31745   6.429   6.137   2.314 -0.1441  2.1634  0.3591
  976MOL0     H31746   5.933   6.230   2.525 -2.2495 -0.5149  2.1711
  976MOL0     H31747   5.707   6.246   2.417 -0.6922 -0.6532  1.6530
  976MOL0     H31748   5.570   5.977   2.073 -2.5648  2.1940 -1.5886
  976MOL0     H31749   5.440   6.069   2.139  2.7697  2.3824 -0.2633
  976MOL0     H31750   5.447   5.919   2.345  0.0467  3.0907 -1.4520
  976MOL0     H31751   5.558   5.806   2.272 -2.1326 -0.9406  3.2408
  976MOL0     H31752   5.421   5.759   2.096  2.0962 -1.3701  2.7368
  976MOL0     H31753   5.304   5.880   2.117  0.2290 -0.7319 -1.4990
  976MOL0     H31754   5.375   5.658   2.334 -1.6275 -2.3433 -0.2278
  976MOL0     H31755   5.246   5.777   2.340  1.8410 -0.0372  4.0219
  976MOL0     H31756   5.102   5.452   2.105  0.1794 -0.5765 -1.6152
  976MOL0     H31757   5.777   5.901   2.179  0.2164 -0.6745  0.2173
  976MOL0     H31758   5.976   5.789   2.191 -0.2928 -0.2879 -0.4141
  976MOL0     H31759   6.123   5.854   2.276 -0.4053 -0.2135 -0.3430
  976MOL0     H31760   6.000   5.749   2.354 -0.2105 -1.1443 -1.3402
  977MOL0     O31761   6.723   1.631   2.395 -0.0799 -0.3470 -0.1022
  977MOL0     C31762   6.642   1.546   2.431 -0.0480 -0.1551  0.0003
  977MOL0     O31763   6.678   1.433   2.511 -0.9821 -0.3893  0.1215
  977MOL0     C31764   6.810   1.418   2.536  0.5745  0.1858 -0.3935
  977MOL0     C31765   6.887   1.297   2.504  0.2866 -1.0438 -0.0432
  977MOL0     C31766   7.025   1.289   2.537  0.4002 -0.2054  0.1760
  977MOL0     C31767   7.093   1.391   2.594 -0.8119  0.2653  0.1853
  977MOL0     O31768   7.225   1.356   2.624  0.2700 -0.1707  0.6800
  977MOL0     C31769   7.301   1.438   2.711 -0.4655 -0.1329  0.1040
  977MOL0     C31770   7.449   1.423   2.695  1.3070 -0.5487  0.3174
  977MOL0     C31771   7.521   1.549   2.730  0.1598  0.2791 -0.5608
  977MOL0     C31772   7.669   1.545   2.778  1.4326 -0.0944  0.6193
  977MOL0     C31773   7.704   1.691   2.802 -0.5463  0.0286 -0.3438
  977MOL0     C31774   7.825   1.711   2.891 -0.7340  0.5930 -0.0815
  977MOL0     C31775   7.955   1.699   2.810  0.3730  0.3029 -0.0560
  977MOL0     C31776   8.093   1.712   2.893  0.2992 -0.3753  0.7967
  977MOL0     N31777   8.202   1.665   2.810 -0.3327 -0.7010 -0.0471
  977MOL0     C31778   8.248   1.537   2.800  0.2057  1.1605  0.0592
  977MOL0     C31779   8.355   1.544   2.715  0.2711 -0.4018 -0.0347
  977MOL0     C31780   8.443   1.432   2.684  0.5051 -0.0929 -0.4824
  977MOL0     C31781   8.382   1.332   2.587  0.0191  0.1862 -0.4793
  977MOL0     C31782   8.470   1.201   2.579  0.0846  0.3972 -0.1635
  977MOL0     C31783   8.597   1.220   2.507  0.4644  0.1474 -0.2340
  977MOL0     O31784   8.687   1.131   2.565  0.1227  0.2843  0.0162
  977MOL0     C31785   8.812   1.098   2.510  0.4182 -0.7420  0.0537
  977MOL0     C31786   8.870   1.168   2.406 -0.2496 -0.4623  0.5943
  977MOL0     C31787   8.997   1.128   2.363  0.0024  0.2369 -0.0800
  977MOL0     C31788   9.066   1.034   2.432 -1.0135 -0.1923 -0.3408
  977MOL0     C31789   9.203   1.003   2.391 -0.6776  0.1043  0.0553
  977MOL0     O31790   9.266   0.914   2.473 -0.8674  0.5372 -0.2565
  977MOL0     C31791   9.406   0.901   2.475  0.1491 -0.4574  0.4866
  977MOL0     C31792   9.499   1.000   2.461  0.5599  0.1724 -0.0415
  977MOL0     C31793   9.628   0.973   2.509 -0.0688  0.6806 -0.2411
  977MOL0     C31794   9.667   0.846   2.550 -0.4034 -0.5031  0.0021
  977MOL0     O31795   9.808   0.830   2.562  0.5703  0.6825 -0.5435
  977MOL0     C31796   9.859   0.692   2.590  0.8245  0.2950  0.8681
  977MOL0     C31797  10.013   0.716   2.576 -0.1607  0.0216  0.5746
  977MOL0     C31798  10.096   0.590   2.559  0.0952 -0.6782  0.3420
  977MOL0     C31799  10.241   0.630   2.600  0.0949 -0.3072 -1.2225
  977MOL0     C31800  10.331   0.517   2.560 -0.4643  0.8488 -0.9682
  977MOL0     C31801  10.478   0.546   2.610 -0.4270  0.5058 -1.0399
  977MOL0     C31802  10.582   0.436   2.578 -0.2119 -0.1749 -0.1995
  977MOL0     C31803  10.710   0.485   2.649 -0.7669  0.1074  0.7815
  977MOL0    Cl31804  10.828   0.357   2.629  0.1722  0.1306 -0.1298
  977MOL0     C31805   9.572   0.750   2.581 -0.3111 -0.6962 -1.4095
  977MOL0     C31806   9.442   0.786   2.547 -0.0985  0.7705  0.5529
  977MOL0     O31807   9.245   1.053   2.286 -0.1542 -0.4303 -0.5807
  977MOL0     C31808   9.009   0.971   2.541  0.4152  0.1043 -0.2242
  977MOL0     C31809   8.882   0.999   2.573 -0.1788  0.1360  0.7727
  977MOL0     N31810   8.367   1.681   2.687 -0.2403  0.7850  0.7108
  977MOL0     N31811   8.279   1.746   2.747  0.5631  0.2422 -0.3757
  977MOL0     C31812   7.019   1.499   2.632  0.2962  0.1455 -0.7395
  977MOL0     C31813   6.879   1.511   2.611 -0.8131  0.3976 -0.2962
  977MOL0     C31814   6.500   1.568   2.396 -0.4225 -0.4064 -0.5468
  977MOL0     C31815   6.419   1.487   2.480  0.1805 -0.5737 -0.4734
  977MOL0     C31816   6.278   1.505   2.481  0.6247 -0.1004 -0.1737
  977MOL0     C31817   6.223   1.619   2.421 -1.0296  0.2481  1.3126
  977MOL0     O31818   6.092   1.662   2.426 -0.4343 -0.7688 -0.6441
  977MOL0     C31819   6.002   1.589   2.510 -0.2034  0.1818 -0.2845
  977MOL0     C31820   5.875   1.669   2.507 -0.7701  0.3235 -0.1927
  977MOL0     C31821   5.814   1.678   2.365 -0.2884  0.2961 -0.7913
  977MOL0     C31822   5.684   1.752   2.357  0.6091  0.0665 -0.3087
  977MOL0     C31823   5.568   1.676   2.412 -0.3562 -0.1186  1.4146
  977MOL0     C31824   5.464   1.623   2.450  0.6470 -0.2107  0.7780
  977MOL0     C31825   6.295   1.691   2.338 -0.8842 -0.3268 -0.6130
  977MOL0     C31826   6.437   1.676   2.328 -0.0577 -0.5212 -0.2299
  977MOL0     C31827   6.518   1.749   2.233  0.1172 -0.2572 -0.4413
  977MOL0     H31828   6.831   1.211   2.470 -1.1439  0.2364 -1.0307
  977MOL0     H31829   7.079   1.195   2.541 -0.6952 -0.8061  1.3714
  977MOL0     H31830   7.287   1.545   2.692 -0.8431 -0.4990 -1.9932
  977MOL0     H31831   7.278   1.417   2.815  1.1919  1.8724  0.9564
  977MOL0     H31832   7.460   1.392   2.591 -1.8682  0.3192 -0.3839
  977MOL0     H31833   7.477   1.338   2.758 -0.7924 -1.7778 -0.3281
  977MOL0     H31834   7.456   1.586   2.809 -0.3707  0.8855 -1.2642
  977MOL0     H31835   7.517   1.619   2.646 -1.9192  1.7796  0.6994
  977MOL0     H31836   7.664   1.498   2.877 -0.3131 -1.4711 -0.0556
  977MOL0     H31837   7.731   1.496   2.703  1.2017 -0.0660  0.4084
  977MOL0     H31838   7.732   1.730   2.703  0.3582  1.0254  0.2768
  977MOL0     H31839   7.621   1.755   2.833 -0.4374 -0.5119  1.0834
  977MOL0     H31840   7.823   1.809   2.940  2.6703  0.0871  1.3579
  977MOL0     H31841   7.818   1.641   2.974 -1.5160  1.2516  0.4287
  977MOL0     H31842   7.963   1.782   2.739  1.5068  0.5857  0.3849
  977MOL0     H31843   7.960   1.604   2.757 -0.4509 -1.5961  3.0088
  977MOL0     H31844   8.090   1.816   2.926 -1.2782 -0.4034  0.8082
  977MOL0     H31845   8.083   1.643   2.977 -1.4119  0.6799  1.5164
  977MOL0     H31846   8.204   1.451   2.850  0.7248  0.8202 -0.0586
  977MOL0     H31847   8.526   1.482   2.633  0.0332  1.4198  0.1571
  977MOL0     H31848   8.484   1.387   2.775 -0.5656  0.7028  0.4174
  977MOL0     H31849   8.284   1.314   2.633  0.3853  0.2418  0.3537
  977MOL0     H31850   8.359   1.375   2.489 -2.0182  0.0692 -0.1082
  977MOL0     H31851   8.413   1.121   2.531  1.8631  0.0207 -1.7687
  977MOL0     H31852   8.492   1.168   2.681 -0.5925  1.1334  0.2313
  977MOL0     H31853   8.642   1.317   2.531 -2.0308  0.6583  2.9662
  977MOL0     H31854   8.583   1.209   2.399 -0.5803 -1.5085  0.0412
  977MOL0     H31855   8.821   1.250   2.353 -0.2668 -0.9558 -0.1784
  977MOL0     H31856   9.053   1.181   2.287  0.1314  1.4428  0.8204
  977MOL0     H31857   9.480   1.093   2.409 -4.1896 -1.3217 -1.4677
  977MOL0     H31858   9.703   1.051   2.502  0.3218  0.6873  2.5815
  977MOL0     H31859   9.831   0.664   2.692  0.6019 -0.4747  0.6040
  977MOL0     H31860   9.838   0.615   2.516  2.8136 -0.7606  1.3167
  977MOL0     H31861  10.040   0.781   2.492  2.6503 -1.3144  0.3323
  977MOL0     H31862  10.047   0.774   2.662  0.4590  1.0420 -0.3334
  977MOL0     H31863  10.051   0.515   2.624 -0.4959 -0.3527  0.3173
  977MOL0     H31864  10.088   0.564   2.453 -0.9365  2.4257 -0.4557
  977MOL0     H31865  10.253   0.650   2.707 -0.2803  1.5758 -1.4951
  977MOL0     H31866  10.274   0.719   2.545 -2.5781  2.2684  1.0460
  977MOL0     H31867  10.332   0.498   2.452 -2.0224 -1.1960 -0.6756
  977MOL0     H31868  10.286   0.435   2.617  0.5433  0.5567 -0.5655
  977MOL0     H31869  10.514   0.635   2.557  3.4667 -1.0489 -1.3806
  977MOL0     H31870  10.482   0.554   2.718  0.0376 -4.5639 -0.4230
  977MOL0     H31871  10.601   0.406   2.474 -1.4752 -1.7391 -0.0015
  977MOL0     H31872  10.549   0.347   2.630  1.5564 -0.6262  0.2245
  977MOL0     H31873  10.737   0.579   2.601 -0.8088 -1.9752 -3.8724
  977MOL0     H31874  10.690   0.496   2.756 -1.0190  0.7352  0.6759
  977MOL0     H31875   9.591   0.661   2.640  2.6956  2.2323  2.6489
  977MOL0     H31876   9.359   0.734   2.592 -1.1394  3.3012  1.7613
  977MOL0     H31877   9.055   0.895   2.603  2.0488 -0.9750 -2.6057
  977MOL0     H31878   8.841   0.952   2.662  2.3582  1.1064  2.5837
  977MOL0     H31879   7.066   1.576   2.693 -0.9707  0.9798 -0.7855
  977MOL0     H31880   6.821   1.592   2.654  1.8322  1.0711  2.3795
  977MOL0     H31881   6.456   1.410   2.546  3.5400  2.0493  1.0056
  977MOL0     H31882   6.226   1.433   2.544 -0.7545 -0.7413 -1.9661
  977MOL0     H31883   6.046   1.570   2.608 -1.8337 -2.5535  0.0131
  977MOL0     H31884   5.985   1.491   2.464  1.6702  1.4952 -4.3044
  977MOL0     H31885   5.919   1.763   2.541 -0.8362  0.2172  0.1918
  977MOL0     H31886   5.799   1.628   2.574  1.4729 -1.2979  1.4990
  977MOL0     H31887   5.805   1.573   2.337  1.4463 -0.9473  2.6558
  977MOL0     H31888   5.879   1.726   2.292  0.0969  1.2998  0.1815
  977MOL0     H31889   5.696   1.849   2.407  1.7145  0.7839 -1.8717
  977MOL0     H31890   5.668   1.766   2.249  0.2651  0.1478 -0.2498
  977MOL0     H31891   5.377   1.571   2.485  0.7396 -1.6840 -0.9922
  977MOL0     H31892   6.236   1.753   2.271 -2.0689  0.0333  0.7307
  977MOL0     H31893   6.569   1.687   2.159 -0.0577  1.9791 -2.6108
  977MOL0     H31894   6.453   1.805   2.165 -0.7692 -0.5565  0.1413
  977MOL0     H31895   6.582   1.822   2.283 -0.6905 -1.1740  2.0521
  978MOL0     O31896  10.758   9.981   9.337  0.3848  0.1486  0.3473
  978MOL0     C31897  10.811   9.911   9.261 -0.1842  0.3713  1.0911
  978MOL0     O31898  10.945   9.893   9.259  0.3387 -0.2154 -0.6245
  978MOL0     C31899  11.033   9.967   9.335  0.0288  0.1976  0.2237
  978MOL0     C31900  11.154   9.899   9.373  0.6806 -0.0181  0.6395
  978MOL0     C31901  11.255   9.958   9.436 -0.4138  0.3369  0.6527
  978MOL0     C31902  11.240  10.095   9.476  0.0255 -0.6218 -0.4618
  978MOL0     O31903  11.338  10.159   9.550  0.0576  0.9451 -0.5106
  978MOL0     C31904  11.466  10.096   9.581  0.7423  0.0458  0.2795
  978MOL0     C31905  11.550  10.202   9.662  0.2669 -0.8774  0.2606
  978MOL0     C31906  11.703  10.175   9.697 -0.4140  0.0996 -0.4649
  978MOL0     C31907  11.749  10.032   9.650  0.3286  0.1938  0.2161
  978MOL0     C31908  11.896  10.011   9.697  0.9526  0.3650 -1.3533
  978MOL0     C31909  11.954   9.890   9.640 -0.1604  0.5348 -0.4785
  978MOL0     C31910  12.097   9.873   9.680 -0.4640  0.3110 -0.5502
  978MOL0     C31911  12.150   9.737   9.657  0.4921 -0.3211 -0.1381
  978MOL0     N31912  12.287   9.733   9.721  0.0101 -0.5942 -0.0603
  978MOL0     C31913  12.408   9.754   9.658 -0.5488 -0.1198  0.2714
  978MOL0     C31914  12.503   9.726   9.749  0.5042  1.2693  0.3807
  978MOL0     C31915  12.650   9.709   9.709 -0.0397 -0.0172 -0.6155
  978MOL0     C31916  12.742   9.786   9.800  0.3426 -0.6233  0.5408
  978MOL0     C31917  12.887   9.749   9.754 -0.1459  0.9704  0.0109
  978MOL0     C31918  13.004   9.809   9.825  0.0319 -0.3042  0.8691
  978MOL0     O31919  13.025   9.946   9.780 -0.0728 -0.1326  0.5179
  978MOL0     C31920  13.149  10.005   9.804  0.2289  0.0961 -0.0044
  978MOL0     C31921  13.177  10.115   9.728 -0.5827 -0.2144  0.4533
  978MOL0     C31922  13.294  10.186   9.744  0.4672  0.5761 -0.2851
  978MOL0     C31923  13.388  10.149   9.848  0.5408 -0.2255 -0.5522
  978MOL0     C31924  13.509  10.230   9.875  1.1651  0.2053 -0.9769
  978MOL0     O31925  13.532  10.326   9.785  0.2219  0.0592 -0.1169
  978MOL0     C31926  13.651  10.396   9.785  0.3063 -0.4294  0.2272
  978MOL0     C31927  13.720  10.408   9.670 -0.2380  0.0487 -1.2124
  978MOL0     C31928  13.827  10.496   9.665 -0.1799 -0.5171  0.5815
  978MOL0     C31929  13.885  10.551   9.783 -0.3640 -0.2879 -0.2964
  978MOL0     O31930  14.005  10.618   9.780  0.0551  0.3788 -0.8948
  978MOL0     C31931  14.113  10.599   9.680 -0.3499  0.0188 -0.0420
  978MOL0     C31932  14.178  10.460   9.683 -0.3160  0.1378 -0.0316
  978MOL0     C31933  14.248  10.427   9.811 -0.1742  0.0509 -0.1207
  978MOL0     C31934  14.403  10.439   9.801  0.9638 -0.3370 -0.3668
  978MOL0     C31935  14.469  10.415   9.943  0.8510  0.1237  0.0593
  978MOL0     C31936  14.463  10.266   9.990  0.2396 -0.0311  0.2819
  978MOL0     C31937  14.500  10.247  10.133 -0.3626 -0.0801  0.3308
  978MOL0     C31938  14.483  10.105  10.190 -0.3922  0.2587  0.2375
  978MOL0    Cl31939  14.593  10.085  10.330  0.2066 -0.0352 -0.6317
  978MOL0     C31940  13.813  10.531   9.901  0.3363 -0.0178 -0.4616
  978MOL0     C31941  13.695  10.461   9.903  0.3182  0.9846 -0.3675
  978MOL0     O31942  13.580  10.198   9.968  0.1726  0.1751  0.7975
  978MOL0     C31943  13.357  10.035   9.927 -0.1427  0.3570  0.1152
  978MOL0     C31944  13.239   9.958   9.902 -0.1854  0.7894  0.2293
  978MOL0     N31945  12.441   9.696   9.867  0.2787 -0.0931  0.7261
  978MOL0     N31946  12.315   9.697   9.847  0.0344 -0.2325 -0.0291
  978MOL0     C31947  11.126  10.165   9.425 -0.0473 -0.3624 -0.6799
  978MOL0     C31948  11.023  10.105   9.354  1.1186  1.1402  0.1378
  978MOL0     C31949  10.720   9.819   9.182 -0.2759 -0.2076 -0.1963
  978MOL0     C31950  10.582   9.842   9.203 -0.0238 -0.5003  0.4459
  978MOL0     C31951  10.481   9.786   9.119 -0.3250 -0.2103 -0.0299
  978MOL0     C31952  10.525   9.701   9.015  0.1983 -1.0341  0.3381
  978MOL0     O31953  10.446   9.632   8.927  0.3418 -0.9189  0.2109
  978MOL0     C31954  10.305   9.655   8.930  0.4130  0.5107 -0.2875
  978MOL0     C31955  10.225   9.570   8.831 -0.1666  0.6125 -0.3598
  978MOL0     C31956  10.079   9.564   8.863  0.1229 -0.2085 -0.8575
  978MOL0     C31957  10.004   9.462   8.776  0.4759  1.1232 -0.4908
  978MOL0     C31958  10.069   9.329   8.788  0.0087 -0.3285 -0.5737
  978MOL0     C31959  10.106   9.215   8.818 -0.3546 -0.6188  0.6527
  978MOL0     C31960  10.662   9.678   8.989  0.2223  0.5667 -0.2663
  978MOL0     C31961  10.755   9.731   9.076 -0.7324  0.0487  0.5270
  978MOL0     C31962  10.900   9.721   9.038  0.1949 -0.6429  0.6874
  978MOL0     H31963  11.172   9.796   9.345 -3.5147 -0.8755  0.5654
  978MOL0     H31964  11.342   9.898   9.457 -0.9326 -2.0612 -3.0156
  978MOL0     H31965  11.441  10.010   9.643  0.2687 -1.0107 -1.3258
  978MOL0     H31966  11.517  10.053   9.495  0.5709  0.1208  0.1400
  978MOL0     H31967  11.500  10.215   9.758  0.2009 -2.4871  0.4748
  978MOL0     H31968  11.529  10.296   9.610  0.8856 -1.6477 -1.4734
  978MOL0     H31969  11.720  10.187   9.804 -3.2058  1.8964 -0.0891
  978MOL0     H31970  11.764  10.257   9.658 -1.4172  1.4516  0.6949
  978MOL0     H31971  11.682   9.962   9.701 -1.0538  2.4224  1.6373
  978MOL0     H31972  11.740  10.029   9.541 -2.0144  4.0230  0.1174
  978MOL0     H31973  11.955  10.094   9.657 -0.1852  1.1220 -1.5028
  978MOL0     H31974  11.904  10.007   9.806  2.0620 -1.1536 -1.4517
  978MOL0     H31975  11.893   9.806   9.675 -1.4233  1.3431 -0.6435
  978MOL0     H31976  11.941   9.891   9.532 -2.1020  0.9992 -0.2933
  978MOL0     H31977  12.098   9.887   9.788 -0.2653 -1.4053 -0.3099
  978MOL0     H31978  12.149   9.953   9.625 -1.7092 -1.4566 -4.6867
  978MOL0     H31979  12.084   9.667   9.709 -0.6240  0.5308 -0.3683
  978MOL0     H31980  12.148   9.712   9.551  1.0450 -1.3585  0.0879
  978MOL0     H31981  12.420   9.786   9.555 -1.2122  1.3363  0.6230
  978MOL0     H31982  12.677   9.604   9.701 -0.5757 -0.2347  0.2632
  978MOL0     H31983  12.660   9.743   9.606  2.4681  1.1697 -0.0669
  978MOL0     H31984  12.732   9.894   9.785  1.5505 -0.3795  1.3665
  978MOL0     H31985  12.724   9.770   9.907  2.7929  1.7548  1.4401
  978MOL0     H31986  12.901   9.767   9.647 -1.5413  0.6321 -0.2535
  978MOL0     H31987  12.902   9.643   9.775 -0.8061  1.1239  1.3424
  978MOL0     H31988  13.092   9.748   9.803  0.2008  0.4843 -0.7891
  978MOL0     H31989  12.995   9.811   9.934  2.1463 -0.2849  1.0737
  978MOL0     H31990  13.097  10.138   9.658 -0.4738  1.5946  0.8922
  978MOL0     H31991  13.316  10.275   9.686  1.0860 -0.2941 -1.4185
  978MOL0     H31992  13.682  10.374   9.574 -0.3190 -0.6191 -0.9484
  978MOL0     H31993  13.866  10.512   9.565 -1.9634 -0.8612 -0.2212
  978MOL0     H31994  14.077  10.623   9.580  3.3757 -1.4441 -1.9182
  978MOL0     H31995  14.192  10.673   9.691 -2.1771  2.0273  0.1270
  978MOL0     H31996  14.100  10.384   9.675  0.5934 -0.7691 -0.5529
  978MOL0     H31997  14.254  10.446   9.605 -0.2335  0.7031 -0.0588
  978MOL0     H31998  14.210  10.492   9.891 -0.1568 -0.0484 -0.0323
  978MOL0     H31999  14.225  10.322   9.831  2.1748 -0.4307  0.2846
  978MOL0     H32000  14.424  10.543   9.773  2.0274 -0.8799 -1.7029
  978MOL0     H32001  14.456  10.369   9.736  1.9621 -1.1080  1.2268
  978MOL0     H32002  14.428  10.481  10.021 -0.0359 -0.5369  0.1608
  978MOL0     H32003  14.573  10.446   9.931  0.4182  0.8159 -2.4794
  978MOL0     H32004  14.361  10.227   9.980  1.7399 -4.4410  0.0245
  978MOL0     H32005  14.529  10.208   9.925 -0.6581 -1.8693  0.9359
  978MOL0     H32006  14.433  10.314  10.187  1.7720  0.7591  2.0862
  978MOL0     H32007  14.602  10.286  10.140 -0.7055  1.8761 -3.3119
  978MOL0     H32008  14.378  10.087  10.216 -0.9919 -1.2565 -2.7960
  978MOL0     H32009  14.509  10.029  10.116  0.7674 -0.1041  0.9879
  978MOL0     H32010  13.858  10.568   9.992 -0.6798 -1.3520  0.6378
  978MOL0     H32011  13.642  10.441   9.996 -0.4924 -0.7488 -1.1513
  978MOL0     H32012  13.431   9.997   9.998 -0.5551 -0.3199  0.1965
  978MOL0     H32013  13.219   9.871   9.963 -1.8488 -1.0511 -2.7013
  978MOL0     H32014  11.117  10.273   9.438 -0.4443 -0.3702 -0.8716
  978MOL0     H32015  10.949  10.168   9.305  0.9268  1.4568  0.8244
  978MOL0     H32016  10.557   9.898   9.292 -0.4005  0.7885 -0.4597
  978MOL0     H32017  10.376   9.803   9.136  0.1975  1.8029  1.5614
  978MOL0     H32018  10.282   9.761   8.916 -0.2067  0.2495 -1.3377
  978MOL0     H32019  10.267   9.638   9.032  2.3570 -4.2226 -0.0906
  978MOL0     H32020  10.269   9.471   8.848  1.0414  1.2540  0.4148
  978MOL0     H32021  10.248   9.598   8.728  1.1673  0.9046 -0.0097
  978MOL0     H32022  10.046   9.664   8.834  2.0294  0.3939 -1.1072
  978MOL0     H32023  10.061   9.569   8.970 -1.0299  0.4985 -1.0669
  978MOL0     H32024   9.897   9.466   8.794  0.6536 -0.5420  1.3533
  978MOL0     H32025  10.006   9.484   8.669  2.0282 -2.7058 -1.4181
  978MOL0     H32026  10.140   9.121   8.856 -0.2721 -2.6470 -3.8678
  978MOL0     H32027  10.687   9.616   8.904  0.0166 -0.6600  0.5428
  978MOL0     H32028  10.912   9.645   8.960 -1.4604 -0.4643  0.2042
  978MOL0     H32029  10.939   9.815   8.998 -0.2407  0.3433  2.4608
  978MOL0     H32030  10.963   9.681   9.118  0.4909 -1.9849 -0.1848
  979MOL0     O32031   9.737   6.819   2.591 -0.0835  0.2934 -0.0396
  979MOL0     C32032   9.744   6.856   2.713 -0.2411  0.7600  1.0354
  979MOL0     O32033   9.856   6.860   2.786  0.6718  0.0976  0.4578
  979MOL0     C32034   9.974   6.801   2.738  0.1445  0.4011 -0.2354
  979MOL0     C32035  10.096   6.857   2.764 -0.9706 -0.1934  0.3076
  979MOL0     C32036  10.219   6.794   2.744  0.4909 -0.0179  0.0356
  979MOL0     C32037  10.227   6.667   2.698 -0.4569 -0.5744 -0.4227
  979MOL0     O32038  10.354   6.619   2.668  0.5199 -0.3218 -0.3351
  979MOL0     C32039  10.357   6.482   2.623  0.5533  0.0233 -1.1219
  979MOL0     C32040  10.505   6.442   2.603  0.7440 -0.2031  0.7530
  979MOL0     C32041  10.561   6.525   2.487 -0.7792 -0.6716 -0.2386
  979MOL0     C32042  10.711   6.494   2.466  0.1591 -0.1694  0.3012
  979MOL0     C32043  10.788   6.623   2.437 -0.2718 -0.0515 -0.4314
  979MOL0     C32044  10.924   6.593   2.375  0.5409  0.0726  0.0939
  979MOL0     C32045  11.005   6.719   2.333 -0.2011 -0.3467  0.7833
  979MOL0     C32046  11.161   6.684   2.314  1.1519  0.8995 -0.8058
  979MOL0     N32047  11.241   6.746   2.211 -0.7855 -0.4861  0.3969
  979MOL0     C32048  11.230   6.753   2.075  1.1345  0.0023 -0.1772
  979MOL0     C32049  11.341   6.817   2.031  0.4199  0.2565 -1.0714
  979MOL0     C32050  11.379   6.811   1.883  0.0760  0.1633 -0.9178
  979MOL0     C32051  11.511   6.739   1.865  0.0515  0.2026 -0.5407
  979MOL0     C32052  11.567   6.772   1.720  0.4936 -0.2572  0.6585
  979MOL0     C32053  11.695   6.700   1.705  0.0674  0.4690 -0.6008
  979MOL0     O32054  11.793   6.779   1.775  0.7897  0.2345  0.5073
  979MOL0     C32055  11.920   6.741   1.771  0.1217 -0.0521  0.1118
  979MOL0     C32056  11.970   6.652   1.670 -1.2595 -0.2600  0.3230
  979MOL0     C32057  12.100   6.605   1.680 -0.7179 -0.4590 -0.7910
  979MOL0     C32058  12.188   6.641   1.788 -1.1998  0.0732 -0.7051
  979MOL0     C32059  12.331   6.595   1.796  0.2026 -0.7790 -0.6135
  979MOL0     O32060  12.408   6.648   1.895 -0.5512  0.2797  0.1473
  979MOL0     C32061  12.542   6.642   1.891  0.3961 -0.9273  0.0848
  979MOL0     C32062  12.623   6.677   1.777  0.2254 -0.7701  0.0284
  979MOL0     C32063  12.758   6.668   1.769 -0.2733 -0.5644 -0.1092
  979MOL0     C32064  12.829   6.638   1.880 -0.7319  0.4277  0.8506
  979MOL0     O32065  12.968   6.638   1.874  0.5493  0.1523 -0.2626
  979MOL0     C32066  13.037   6.527   1.940  0.0740 -0.1007  0.3794
  979MOL0     C32067  13.179   6.539   1.907 -0.0016 -0.5913 -0.1229
  979MOL0     C32068  13.269   6.419   1.946  0.4713 -0.4233  0.2441
  979MOL0     C32069  13.412   6.465   1.893 -0.1267 -0.8849  0.7473
  979MOL0     C32070  13.530   6.424   1.979  0.5768  0.5600  0.3176
  979MOL0     C32071  13.663   6.443   1.914  0.6899 -0.1104  0.3028
  979MOL0     C32072  13.770   6.423   2.021 -0.0745  0.3226 -0.3534
  979MOL0     C32073  13.901   6.346   1.969  0.1945 -0.3635 -0.4307
  979MOL0    Cl32074  14.001   6.470   1.865  0.1886 -0.2818  0.3739
  979MOL0     C32075  12.759   6.608   1.999  0.3941 -0.3372  0.0983
  979MOL0     C32076  12.617   6.612   2.002 -0.3701  0.7957  0.3507
  979MOL0     O32077  12.372   6.505   1.711  0.4718  0.4160  0.2692
  979MOL0     C32078  12.132   6.721   1.893  0.3076 -0.5755  0.4393
  979MOL0     C32079  12.000   6.767   1.879 -1.1533 -0.8246  0.5489
  979MOL0     N32080  11.416   6.853   2.138 -0.0771 -0.1177 -0.0601
  979MOL0     N32081  11.358   6.812   2.246  0.9339 -0.6612 -0.0092
  979MOL0     C32082  10.106   6.600   2.671  0.6650 -0.2501  0.9050
  979MOL0     C32083   9.979   6.670   2.684 -0.2296 -0.6935 -0.6829
  979MOL0     C32084   9.623   6.897   2.789  0.2878 -0.3098 -0.7415
  979MOL0     C32085   9.626   6.942   2.923 -0.0807 -0.6087 -0.0615
  979MOL0     C32086   9.515   6.981   2.997 -0.3039  0.2262 -0.5261
  979MOL0     C32087   9.388   6.984   2.941 -0.1829  0.8705  0.1650
  979MOL0     O32088   9.273   7.025   3.006 -0.6412 -0.4057 -0.1371
  979MOL0     C32089   9.276   7.057   3.143 -0.8449  0.2105  0.1876
  979MOL0     C32090   9.272   6.926   3.226  1.3009 -0.1924  0.3420
  979MOL0     C32091   9.281   6.953   3.372 -0.5618 -0.4189  0.1365
  979MOL0     C32092   9.417   7.011   3.421  0.1118 -0.5154  0.2756
  979MOL0     C32093   9.418   7.160   3.418  0.7082 -0.9689 -0.3741
  979MOL0     C32094   9.428   7.283   3.430 -0.4948 -0.4733 -0.5676
  979MOL0     C32095   9.380   6.950   2.807 -0.1098  0.3389  0.0309
  979MOL0     C32096   9.486   6.903   2.734 -0.3410  0.2668  0.8402
  979MOL0     C32097   9.454   6.840   2.599 -0.7531  0.1662 -0.5380
  979MOL0     H32098  10.098   6.959   2.803 -1.4251 -0.7446  1.8661
  979MOL0     H32099  10.311   6.849   2.764  1.8132 -2.7041  1.9133
  979MOL0     H32100  10.315   6.416   2.699  0.8520 -0.5838 -1.4744
  979MOL0     H32101  10.299   6.481   2.530  0.0343 -0.7538 -0.7942
  979MOL0     H32102  10.511   6.334   2.585  1.3548 -0.3770  1.9033
  979MOL0     H32103  10.569   6.453   2.690  1.9112 -0.3780 -0.0570
  979MOL0     H32104  10.554   6.631   2.512  0.2236 -0.5928 -0.2690
  979MOL0     H32105  10.508   6.524   2.392  0.3831  4.0385 -1.1593
  979MOL0     H32106  10.749   6.432   2.548 -1.0428 -0.6743  0.4911
  979MOL0     H32107  10.697   6.431   2.378 -0.0192  1.8743 -1.2108
  979MOL0     H32108  10.732   6.684   2.365  0.2147  0.5891 -0.2780
  979MOL0     H32109  10.809   6.687   2.523  2.9637  2.2196 -2.6685
  979MOL0     H32110  10.969   6.541   2.460 -4.8202 -1.4311  2.4263
  979MOL0     H32111  10.911   6.527   2.289 -1.2274  0.5017 -0.0112
  979MOL0     H32112  10.998   6.802   2.404  1.3232  1.6970 -1.2973
  979MOL0     H32113  10.980   6.767   2.238  1.9873  0.4875  0.5831
  979MOL0     H32114  11.203   6.701   2.413  0.4639 -2.3386  0.1588
  979MOL0     H32115  11.164   6.575   2.303 -0.2441  0.8691 -1.1493
  979MOL0     H32116  11.169   6.694   2.007  1.3724  1.6290 -1.8732
  979MOL0     H32117  11.301   6.766   1.821 -0.3204  0.0320 -0.3370
  979MOL0     H32118  11.394   6.912   1.844  0.6394  0.6003  0.3904
  979MOL0     H32119  11.578   6.778   1.941 -0.9390  0.6394  0.1390
  979MOL0     H32120  11.485   6.633   1.878  0.6867 -0.5417 -4.1144
  979MOL0     H32121  11.568   6.880   1.702 -0.0684 -0.4164 -0.3951
  979MOL0     H32122  11.490   6.737   1.650  0.3046 -0.4737  0.9715
  979MOL0     H32123  11.720   6.703   1.599  2.1828  0.6483 -0.1436
  979MOL0     H32124  11.690   6.600   1.749  2.2702  0.6479  0.1594
  979MOL0     H32125  11.908   6.632   1.583 -1.9467  0.1303  0.7170
  979MOL0     H32126  12.136   6.546   1.596  0.9174  1.0713 -1.2219
  979MOL0     H32127  12.581   6.706   1.680  1.9979 -1.6357 -1.0500
  979MOL0     H32128  12.813   6.697   1.680 -2.5060  1.0121 -1.0866
  979MOL0     H32129  13.023   6.531   2.048 -0.8705  2.8298  0.2466
  979MOL0     H32130  12.993   6.441   1.889 -1.8911  1.7373 -1.2369
  979MOL0     H32131  13.186   6.561   1.800  0.8712 -0.9277 -0.1413
  979MOL0     H32132  13.215   6.620   1.970 -2.0519 -1.4748  2.3753
  979MOL0     H32133  13.266   6.408   2.055 -1.9775  1.0896  0.4118
  979MOL0     H32134  13.236   6.324   1.904 -3.0585 -0.1599  2.0086
  979MOL0     H32135  13.412   6.574   1.884 -3.2532 -0.9057 -0.6835
  979MOL0     H32136  13.440   6.427   1.794 -0.2316  0.8453  0.0211
  979MOL0     H32137  13.509   6.320   2.008  0.9597  0.0811 -1.0460
  979MOL0     H32138  13.530   6.485   2.070  1.8754 -4.1272  3.8498
  979MOL0     H32139  13.688   6.364   1.842  0.6070 -0.7961  1.0026
  979MOL0     H32140  13.660   6.540   1.866 -2.2021 -0.1216  0.3044
  979MOL0     H32141  13.721   6.367   2.101 -0.3646 -0.8791 -1.3292
  979MOL0     H32142  13.808   6.520   2.055 -1.3798  1.2562 -1.4699
  979MOL0     H32143  13.965   6.330   2.056  1.0363 -1.0761 -1.1557
  979MOL0     H32144  13.881   6.244   1.935  0.0056 -1.1413  1.8563
  979MOL0     H32145  12.816   6.584   2.088  0.5262  0.5669  0.2691
  979MOL0     H32146  12.563   6.584   2.092 -0.9157 -1.2555 -0.5667
  979MOL0     H32147  12.185   6.738   1.986 -1.0308 -0.1322  1.1374
  979MOL0     H32148  11.948   6.824   1.956 -0.1695 -0.0624  0.6719
  979MOL0     H32149  10.101   6.495   2.644  1.8374  0.0261 -0.4807
  979MOL0     H32150   9.891   6.608   2.666 -0.4170 -0.3457 -0.9763
  979MOL0     H32151   9.724   6.949   2.970 -1.2641  0.9844  2.3948
  979MOL0     H32152   9.548   7.022   3.092 -0.2563 -0.5520 -0.1997
  979MOL0     H32153   9.188   7.120   3.159 -0.9960  0.6542 -1.9910
  979MOL0     H32154   9.368   7.111   3.168 -0.2663  0.5083 -2.2542
  979MOL0     H32155   9.355   6.862   3.196  0.3850 -0.4800 -1.7852
  979MOL0     H32156   9.170   6.888   3.211 -0.3416  3.9906 -0.5013
  979MOL0     H32157   9.263   6.855   3.416 -1.1334 -0.1941  0.4275
  979MOL0     H32158   9.196   7.013   3.409 -1.5292 -2.6572  1.7824
  979MOL0     H32159   9.430   6.979   3.525 -1.9118 -1.2063  0.3634
  979MOL0     H32160   9.495   6.964   3.360 -0.3866  0.1351 -0.9072
  979MOL0     H32161   9.442   7.389   3.442  3.1264 -1.0210  1.7794
  979MOL0     H32162   9.282   6.946   2.761 -0.3084 -0.8070  0.5313
  979MOL0     H32163   9.348   6.825   2.577 -0.7263 -0.1102 -0.4752
  979MOL0     H32164   9.488   6.907   2.520 -1.4411 -0.2626 -1.2126
  979MOL0     H32165   9.501   6.742   2.600 -0.3766  0.2925  2.0572
  980MOL0     O32166   7.510   6.859   7.404  0.0831 -0.0268 -0.4311
  980MOL0     C32167   7.476   6.742   7.428 -0.3254  0.3722 -0.2412
  980MOL0     O32168   7.566   6.643   7.452  0.0324 -0.0485  0.6138
  980MOL0     C32169   7.700   6.669   7.455 -0.3374  0.6351  0.0741
  980MOL0     C32170   7.758   6.730   7.567 -0.1007 -0.7614  0.5497
  980MOL0     C32171   7.893   6.761   7.569 -0.1114 -0.1599  0.3389
  980MOL0     C32172   7.978   6.727   7.458 -0.0249 -0.1755 -0.2622
  980MOL0     O32173   8.113   6.752   7.475 -0.1461 -1.0329  0.3327
  980MOL0     C32174   8.201   6.709   7.371  0.7089 -0.0120 -0.4874
  980MOL0     C32175   8.351   6.737   7.413  0.5717  0.1158 -0.0430
  980MOL0     C32176   8.452   6.685   7.307  0.8891  0.8081 -0.1485
  980MOL0     C32177   8.604   6.701   7.358  1.0166  0.2000  0.1825
  980MOL0     C32178   8.705   6.606   7.295 -0.1410  0.1370 -0.1640
  980MOL0     C32179   8.837   6.648   7.359  0.3353 -0.5662 -0.1261
  980MOL0     C32180   8.957   6.586   7.285 -0.3079  0.7321 -0.6342
  980MOL0     C32181   9.090   6.597   7.364  0.2799 -0.8290  0.2525
  980MOL0     N32182   9.203   6.604   7.269 -0.0469  0.1748  0.6219
  980MOL0     C32183   9.305   6.519   7.252  0.2404  0.5186 -0.8521
  980MOL0     C32184   9.406   6.589   7.192  0.6464 -0.5449  0.0189
  980MOL0     C32185   9.551   6.549   7.154  0.3502 -0.3749 -0.9810
  980MOL0     C32186   9.663   6.652   7.193 -0.5019  0.0206  0.3241
  980MOL0     C32187   9.666   6.786   7.126 -0.6204  0.1220  0.1401
  980MOL0     C32188   9.791   6.861   7.161  0.3835 -0.9221  0.4385
  980MOL0     O32189   9.912   6.799   7.103  0.2904  0.9109 -0.8237
  980MOL0     C32190  10.017   6.879   7.064  0.5552 -1.5093 -1.2340
  980MOL0     C32191  10.082   6.837   6.950  0.3824  0.3749  0.0037
  980MOL0     C32192  10.201   6.894   6.913  0.4539 -0.5020 -0.5641
  980MOL0     C32193  10.254   7.011   6.974 -0.4880 -0.4676  0.3733
  980MOL0     C32194  10.383   7.061   6.942 -0.4054  0.5708 -0.0275
  980MOL0     O32195  10.471   6.980   6.885 -0.4261 -0.2607 -0.9133
  980MOL0     C32196  10.599   7.026   6.864 -1.1676  0.1202 -0.0845
  980MOL0     C32197  10.632   7.078   6.737  0.1379 -0.4120 -0.2184
  980MOL0     C32198  10.758   7.140   6.714  0.6243  0.0299  1.1742
  980MOL0     C32199  10.856   7.149   6.816  0.2744 -0.2384  0.1315
  980MOL0     O32200  10.969   7.229   6.811 -0.0545 -0.3139  1.2083
  980MOL0     C32201  11.013   7.273   6.679 -0.0501 -0.1955 -0.5126
  980MOL0     C32202  11.095   7.170   6.593  0.2116  0.7590  0.3566
  980MOL0     C32203  11.194   7.087   6.682  0.9510 -0.1272  0.3082
  980MOL0     C32204  11.281   7.002   6.595 -1.0459 -0.5071 -0.1976
  980MOL0     C32205  11.338   6.888   6.681  0.9131  0.7649  0.5740
  980MOL0     C32206  11.422   6.783   6.602  0.2907 -0.5889 -0.0319
  980MOL0     C32207  11.557   6.841   6.584  0.0350  0.1256  0.5745
  980MOL0     C32208  11.594   6.847   6.442 -0.2035  1.1553 -0.2909
  980MOL0    Cl32209  11.641   6.680   6.386 -0.2296  0.2698  0.4270
  980MOL0     C32210  10.821   7.081   6.941 -0.1875  0.6508  0.4113
  980MOL0     C32211  10.701   7.023   6.964  0.4761  0.4112 -0.2589
  980MOL0     O32212  10.405   7.179   6.971  0.3562  0.7231  0.0054
  980MOL0     C32213  10.177   7.064   7.077 -0.7909 -0.8600  0.4403
  980MOL0     C32214  10.062   6.997   7.127  0.2046  0.8996  0.2758
  980MOL0     N32215   9.362   6.716   7.184  0.0082 -0.5274 -0.1716
  980MOL0     N32216   9.245   6.724   7.231 -0.7466  0.2746  0.0992
  980MOL0     C32217   7.918   6.668   7.347  0.5270 -0.0689  0.2122
  980MOL0     C32218   7.780   6.632   7.349  0.2741  0.0288 -0.4498
  980MOL0     C32219   7.328   6.712   7.414 -0.1151  0.4135  0.3784
  980MOL0     C32220   7.246   6.824   7.406 -0.1573 -0.2272  0.3459
  980MOL0     C32221   7.110   6.808   7.408  0.8495  0.9275  0.6543
  980MOL0     C32222   7.049   6.680   7.397  0.0971  0.1915 -0.7454
  980MOL0     O32223   6.914   6.656   7.384 -0.3656 -0.1217 -0.0566
  980MOL0     C32224   6.826   6.770   7.391  0.2542  0.2925  0.4285
  980MOL0     C32225   6.683   6.734   7.414  0.1528 -0.3082 -0.1050
  980MOL0     C32226   6.664   6.654   7.545  0.2699  0.1208  0.6585
  980MOL0     C32227   6.514   6.640   7.568 -0.1103 -0.1199  0.4742
  980MOL0     C32228   6.487   6.570   7.693  0.2495  0.7761  0.1370
  980MOL0     C32229   6.469   6.505   7.793 -0.0832  0.5505  0.2402
  980MOL0     C32230   7.131   6.563   7.406 -0.2563  0.2530 -0.3502
  980MOL0     C32231   7.269   6.584   7.409  1.5124 -0.3404 -0.5197
  980MOL0     C32232   7.351   6.450   7.407 -0.8464  0.0361 -0.6986
  980MOL0     H32233   7.693   6.754   7.650 -0.4297  0.2499  0.0180
  980MOL0     H32234   7.932   6.817   7.653  1.9254  0.4021 -0.9195
  980MOL0     H32235   8.183   6.603   7.356  0.4182  0.3306 -2.9718
  980MOL0     H32236   8.182   6.756   7.274  2.1806 -0.3245 -0.9562
  980MOL0     H32237   8.372   6.696   7.512 -0.1896  3.3895  1.6270
  980MOL0     H32238   8.355   6.846   7.415 -1.3117  0.2537 -1.2142
  980MOL0     H32239   8.444   6.725   7.206  1.3956  0.8926 -0.1598
  980MOL0     H32240   8.434   6.578   7.293  1.9145  0.1260  2.8144
  980MOL0     H32241   8.642   6.804   7.349  2.9065 -0.3041  1.6036
  980MOL0     H32242   8.607   6.668   7.462  0.9016  0.9756  0.4405
  980MOL0     H32243   8.683   6.500   7.313 -3.0163  1.0522  2.4133
  980MOL0     H32244   8.706   6.635   7.189  1.3364  1.1179  0.0903
  980MOL0     H32245   8.852   6.756   7.348 -1.0144 -0.2654  0.7577
  980MOL0     H32246   8.845   6.626   7.466  0.4495  3.7253  0.9592
  980MOL0     H32247   8.961   6.632   7.186  0.4537  2.3781  0.1341
  980MOL0     H32248   8.956   6.477   7.274  2.3981  0.6804 -1.1273
  980MOL0     H32249   9.090   6.690   7.421  2.1451 -1.5577  1.5127
  980MOL0     H32250   9.108   6.514   7.432 -0.1152  1.8251  3.9272
  980MOL0     H32251   9.323   6.420   7.291  0.9826  1.1557  0.5126
  980MOL0     H32252   9.573   6.455   7.206 -0.8438  0.1661  0.5776
  980MOL0     H32253   9.562   6.541   7.046 -0.3965 -1.9839 -0.9502
  980MOL0     H32254   9.674   6.659   7.302 -3.2816 -2.6838  0.9486
  980MOL0     H32255   9.757   6.607   7.161  0.2631  2.3274 -0.8453
  980MOL0     H32256   9.590   6.848   7.175  0.4414 -0.2501  2.3867
  980MOL0     H32257   9.639   6.782   7.021 -3.5876 -1.3415  0.8576
  980MOL0     H32258   9.808   6.869   7.269  2.2699  1.4422  0.0408
  980MOL0     H32259   9.788   6.963   7.122  0.9403 -1.3881 -0.8671
  980MOL0     H32260  10.058   6.741   6.907 -2.1321  0.7957  0.3004
  980MOL0     H32261  10.255   6.847   6.832  0.5783  1.6110 -1.7804
  980MOL0     H32262  10.556   7.069   6.661  0.7936  0.4819 -1.0003
  980MOL0     H32263  10.775   7.189   6.619  1.2051  0.3698  1.4488
  980MOL0     H32264  10.929   7.324   6.632  0.9963  0.7955 -1.3515
  980MOL0     H32265  11.085   7.355   6.688  0.4250 -0.3051 -2.8075
  980MOL0     H32266  11.023   7.097   6.555 -0.9887  2.3102 -0.4325
  980MOL0     H32267  11.146   7.212   6.506 -0.4182  0.5762 -0.0987
  980MOL0     H32268  11.257   7.158   6.737  2.3550  1.2772 -2.8717
  980MOL0     H32269  11.137   7.022   6.748  1.2515 -2.5385 -1.6815
  980MOL0     H32270  11.361   7.054   6.541 -2.3140 -1.0734 -2.7841
  980MOL0     H32271  11.227   6.958   6.511 -1.4065 -0.4055 -0.0176
  980MOL0     H32272  11.254   6.840   6.732  1.8594 -0.3874  1.1058
  980MOL0     H32273  11.411   6.928   6.752  1.7834  0.4299 -0.1094
  980MOL0     H32274  11.445   6.696   6.664  1.5046  0.1293  0.5763
  980MOL0     H32275  11.363   6.761   6.513  0.6635  1.7071 -0.9063
  980MOL0     H32276  11.635   6.795   6.646 -0.3551  0.7410  1.5563
  980MOL0     H32277  11.571   6.947   6.611 -1.0547  0.5140 -0.3084
  980MOL0     H32278  11.521   6.892   6.374 -0.3050 -0.5869 -1.4066
  980MOL0     H32279  11.682   6.913   6.437 -0.9652  2.2859  0.8494
  980MOL0     H32280  10.900   7.090   7.015 -0.1733  0.1254  0.4578
  980MOL0     H32281  10.670   6.963   7.049  0.7362 -2.2380 -1.9007
  980MOL0     H32282  10.202   7.159   7.123 -0.0006  0.2789 -2.1827
  980MOL0     H32283  10.008   7.043   7.209 -2.1143 -1.0147 -0.0648
  980MOL0     H32284   7.988   6.643   7.267  0.0766 -2.5157  0.5129
  980MOL0     H32285   7.744   6.583   7.259  0.2128  3.4553 -2.4867
  980MOL0     H32286   7.292   6.922   7.417 -1.3174  0.5280 -1.1089
  980MOL0     H32287   7.036   6.888   7.406 -3.7554 -2.8507 -0.4087
  980MOL0     H32288   6.832   6.827   7.298  3.8128  4.1374  2.6477
  980MOL0     H32289   6.852   6.836   7.474  1.7184  0.4390 -0.1269
  980MOL0     H32290   6.643   6.679   7.328 -1.0070  0.4060 -0.0516
  980MOL0     H32291   6.627   6.828   7.421 -1.0052 -0.9677 -0.1718
  980MOL0     H32292   6.701   6.708   7.632  0.5196  1.8004 -0.4557
  980MOL0     H32293   6.706   6.553   7.535 -1.1457 -0.4949  0.6501
  980MOL0     H32294   6.458   6.734   7.570 -1.5348 -0.9063  2.9222
  980MOL0     H32295   6.471   6.585   7.484  0.1042 -1.9115  1.4928
  980MOL0     H32296   6.454   6.444   7.880  0.3008  0.4181  0.2155
  980MOL0     H32297   7.082   6.466   7.404 -1.8629  1.0377 -0.9162
  980MOL0     H32298   7.287   6.363   7.426 -2.3160  1.5060  1.7120
  980MOL0     H32299   7.409   6.435   7.316  2.8623 -0.3141  1.5240
  980MOL0     H32300   7.412   6.449   7.498 -3.6913  2.4501  1.4288
  981MOL0     O32301   5.481   0.233   9.804  0.5284  0.2619 -0.7447
  981MOL0     C32302   5.458   0.257   9.684 -0.2283 -0.5765 -0.1279
  981MOL0     O32303   5.515   0.200   9.575  0.4819  0.2622  0.3115
  981MOL0     C32304   5.620   0.119   9.595 -0.4764  0.1430  0.3697
  981MOL0     C32305   5.738   0.165   9.638  0.6419  0.4073 -0.2438
  981MOL0     C32306   5.849   0.079   9.665  0.1438  0.6129 -0.6271
  981MOL0     C32307   5.841  -0.063   9.648 -0.0753  0.3191 -0.5037
  981MOL0     O32308   5.947  -0.151   9.680  0.6039  0.4839 -0.3504
  981MOL0     C32309   6.043  -0.147   9.575 -0.9009  0.5962  0.0391
  981MOL0     C32310   6.142  -0.268   9.590 -0.2182  0.4271  0.2704
  981MOL0     C32311   6.251  -0.231   9.698  0.2643  0.3045 -0.7334
  981MOL0     C32312   6.323  -0.353   9.759 -0.4270 -0.8268 -0.5059
  981MOL0     C32313   6.469  -0.329   9.806  0.0518  0.2118 -0.4499
  981MOL0     C32314   6.536  -0.459   9.853 -0.2849 -0.2244 -0.5186
  981MOL0     C32315   6.683  -0.442   9.899 -0.2547  0.2526  0.0381
  981MOL0     C32316   6.689  -0.384  10.043 -0.3905  0.8432  0.1089
  981MOL0     N32317   6.825  -0.376  10.074  0.7998 -0.5477 -0.6068
  981MOL0     C32318   6.910  -0.291  10.007 -0.4663 -0.3102 -0.2266
  981MOL0     C32319   7.021  -0.294  10.087 -0.5783 -0.4077  0.2633
  981MOL0     C32320   7.139  -0.200  10.078 -0.4981  0.5585  0.1079
  981MOL0     C32321   7.275  -0.253  10.128 -0.3745 -0.4771  0.0055
  981MOL0     C32322   7.376  -0.142  10.136 -0.7328  0.7108 -0.3475
  981MOL0     C32323   7.504  -0.201  10.186 -0.4112 -0.5731 -0.3404
  981MOL0     O32324   7.604  -0.096  10.159  0.2634 -0.4582  0.1287
  981MOL0     C32325   7.734  -0.132  10.173 -0.1083  0.7140 -0.8004
  981MOL0     C32326   7.825  -0.055  10.103 -0.3537 -0.6405  0.3821
  981MOL0     C32327   7.970  -0.081  10.114 -0.5891  1.0240  0.9959
  981MOL0     C32328   8.025  -0.178  10.206  0.2479 -0.4848 -0.0621
  981MOL0     C32329   8.167  -0.185  10.228 -0.7765  0.8018 -0.3980
  981MOL0     O32330   8.236  -0.122  10.129  0.2962 -0.7486  0.4393
  981MOL0     C32331   8.377  -0.123  10.130 -0.6786 -0.2306  0.9576
  981MOL0     C32332   8.451  -0.094  10.243 -0.3425  0.9371 -0.1793
  981MOL0     C32333   8.596  -0.094  10.234 -0.7330  0.7417 -1.2208
  981MOL0     C32334   8.668  -0.105  10.115  0.0740 -0.0333 -0.1853
  981MOL0     O32335   8.802  -0.071  10.103 -0.6597 -0.1231  0.2674
  981MOL0     C32336   8.870  -0.010  10.212 -0.5718  0.4982 -0.6043
  981MOL0     C32337   9.024  -0.001  10.180 -0.5759 -0.1743  0.6274
  981MOL0     C32338   9.092   0.066  10.296  0.3818 -0.2495  1.4978
  981MOL0     C32339   9.235   0.110  10.252  0.0088  0.4737 -0.1324
  981MOL0     C32340   9.337   0.004  10.302  0.2447  0.2631 -0.1286
  981MOL0     C32341   9.478  -0.002  10.242 -0.5491 -0.6308 -0.9579
  981MOL0     C32342   9.564   0.123  10.280 -0.4423  0.5969  1.4008
  981MOL0     C32343   9.694   0.106  10.193 -0.2054  0.2972  0.1829
  981MOL0    Cl32344   9.678   0.088  10.012 -0.0487 -0.2678  0.5183
  981MOL0     C32345   8.590  -0.139  10.000  0.4839 -0.8947  0.2981
  981MOL0     C32346   8.448  -0.146  10.009 -0.2808 -0.9790  0.3399
  981MOL0     O32347   8.218  -0.231  10.325 -0.7413 -0.3468 -0.1682
  981MOL0     C32348   7.925  -0.251  10.281 -0.1524  0.3677 -0.0512
  981MOL0     C32349   7.787  -0.226  10.261  0.4454  1.3922  0.8599
  981MOL0     N32350   7.001  -0.379  10.190  0.4326 -0.3553  0.4014
  981MOL0     N32351   6.884  -0.429  10.185  0.2378  0.5423 -0.1122
  981MOL0     C32352   5.717  -0.109   9.605 -0.0004 -0.2641  0.0633
  981MOL0     C32353   5.613  -0.017   9.570  0.0148  0.4586 -0.8413
  981MOL0     C32354   5.346   0.342   9.654  0.5716 -0.1859 -0.3832
  981MOL0     C32355   5.232   0.287   9.595 -0.2117  0.1265  0.5659
  981MOL0     C32356   5.123   0.364   9.577  0.3428 -0.9346 -0.7964
  981MOL0     C32357   5.112   0.492   9.635  0.8964 -0.3932  0.6553
  981MOL0     O32358   4.988   0.551   9.642 -0.9906  0.9422 -0.7354
  981MOL0     C32359   4.950   0.635   9.754 -0.0987 -0.2310  0.8658
  981MOL0     C32360   4.803   0.629   9.754  1.2014  0.2067 -0.3942
  981MOL0     C32361   4.738   0.734   9.849 -0.5565 -0.6199 -0.2757
  981MOL0     C32362   4.631   0.827   9.776  0.0744  0.1192  0.4008
  981MOL0     C32363   4.693   0.909   9.675 -0.6865 -0.3758  1.2793
  981MOL0     C32364   4.737   0.988   9.593 -1.0054  0.0660 -0.7500
  981MOL0     C32365   5.223   0.552   9.687  0.5856  0.7858 -0.2727
  981MOL0     C32366   5.336   0.478   9.701 -0.3946 -0.4745  0.0078
  981MOL0     C32367   5.455   0.541   9.771 -0.5180 -0.0541 -0.1549
  981MOL0     H32368   5.761   0.271   9.647 -1.7340  1.1576 -2.1802
  981MOL0     H32369   5.944   0.121   9.696  0.4603  0.0973 -0.8793
  981MOL0     H32370   6.002  -0.158   9.474 -0.1310 -1.2694 -0.1104
  981MOL0     H32371   6.110  -0.061   9.587  1.5011 -1.1841  0.2679
  981MOL0     H32372   6.195  -0.291   9.497  2.6330 -0.3839  1.9989
  981MOL0     H32373   6.077  -0.347   9.630 -0.8750  2.4272  3.5036
  981MOL0     H32374   6.201  -0.187   9.784  0.7121 -0.3435 -0.1380
  981MOL0     H32375   6.323  -0.170   9.643  0.9313  0.2103  0.0259
  981MOL0     H32376   6.276  -0.394   9.849  3.9321 -1.3831  1.7884
  981MOL0     H32377   6.329  -0.416   9.669 -0.3436  1.2460 -2.0228
  981MOL0     H32378   6.524  -0.294   9.718 -2.1265  2.2167 -1.1073
  981MOL0     H32379   6.466  -0.252   9.883 -0.8935 -0.9419  0.6986
  981MOL0     H32380   6.473  -0.490   9.936 -0.4920 -1.1699 -1.0168
  981MOL0     H32381   6.524  -0.531   9.772 -0.9153 -0.6116 -0.0912
  981MOL0     H32382   6.734  -0.373   9.831 -0.1386  1.2471  1.1076
  981MOL0     H32383   6.739  -0.536   9.896 -0.0421  0.4011 -0.8301
  981MOL0     H32384   6.660  -0.279  10.043 -1.8159  0.5095  2.2856
  981MOL0     H32385   6.631  -0.443  10.114 -1.8649  0.6591 -1.1803
  981MOL0     H32386   6.907  -0.236   9.914  2.9938  1.0704  0.3289
  981MOL0     H32387   7.146  -0.167   9.974 -1.0240  1.8185  0.4566
  981MOL0     H32388   7.114  -0.113  10.139 -0.0974  0.1102  0.9319
  981MOL0     H32389   7.258  -0.300  10.225  0.5907 -0.2514  0.3001
  981MOL0     H32390   7.307  -0.327  10.054  0.3198  1.3256 -1.5926
  981MOL0     H32391   7.347  -0.063  10.206  1.0269 -0.1281  1.4549
  981MOL0     H32392   7.386  -0.094  10.039 -3.4200 -2.0006 -2.1366
  981MOL0     H32393   7.546  -0.291  10.139  1.3059 -0.2798  0.5678
  981MOL0     H32394   7.484  -0.211  10.293  0.0574  1.1054 -0.0739
  981MOL0     H32395   7.782   0.026  10.046  1.0301  0.0071  0.2246
  981MOL0     H32396   8.039  -0.029  10.048  1.0069 -0.2498  1.5806
  981MOL0     H32397   8.404  -0.078  10.339  0.7256  0.5841  0.4202
  981MOL0     H32398   8.655  -0.074  10.322 -1.7456  0.8417 -0.5468
  981MOL0     H32399   8.837   0.091  10.240  2.3968  1.5512 -0.6274
  981MOL0     H32400   8.866  -0.069  10.304  0.8574 -0.1409 -0.9386
  981MOL0     H32401   9.066  -0.101  10.169 -0.8292 -0.2297  0.1393
  981MOL0     H32402   9.035   0.047  10.082  0.7177 -0.6246  0.5309
  981MOL0     H32403   9.027   0.151  10.315 -2.8330 -1.9317 -0.8905
  981MOL0     H32404   9.096  -0.012  10.373  0.6586 -2.2278 -0.4069
  981MOL0     H32405   9.257   0.211  10.287 -2.8622  1.6584 -1.4483
  981MOL0     H32406   9.253   0.103  10.144  0.9092 -4.1247  0.0970
  981MOL0     H32407   9.295  -0.097  10.292 -1.3221  0.6583  1.8229
  981MOL0     H32408   9.352   0.015  10.410 -1.5207  0.5857  0.1073
  981MOL0     H32409   9.526  -0.086  10.293 -1.7671  0.2696  1.8506
  981MOL0     H32410   9.474  -0.019  10.134 -2.0578  1.1593 -1.2120
  981MOL0     H32411   9.591   0.135  10.386  1.9470  0.7191  0.8447
  981MOL0     H32412   9.511   0.213  10.246  0.0731  0.2121 -0.5050
  981MOL0     H32413   9.754   0.196  10.204 -0.0048  0.2334 -0.3477
  981MOL0     H32414   9.742   0.019  10.238 -0.8228  0.7274  1.7600
  981MOL0     H32415   8.633  -0.166   9.904 -0.5573 -4.1482  0.6300
  981MOL0     H32416   8.379  -0.168   9.928  0.7348  0.6561 -1.0164
  981MOL0     H32417   7.961  -0.332  10.343  0.6496  1.3034  0.7401
  981MOL0     H32418   7.721  -0.292  10.317  0.5773  1.6925  1.3839
  981MOL0     H32419   5.715  -0.216   9.586  1.2841 -0.6182  1.6697
  981MOL0     H32420   5.523  -0.055   9.523  1.2450 -4.0726 -0.0644
  981MOL0     H32421   5.244   0.184   9.563  1.4943  0.8643 -1.3890
  981MOL0     H32422   5.037   0.318   9.528 -0.8123  1.4431 -1.1256
  981MOL0     H32423   4.988   0.735   9.732  0.9453 -0.6651  0.6197
  981MOL0     H32424   4.993   0.609   9.851 -3.1406  0.3134  2.4935
  981MOL0     H32425   4.783   0.530   9.796  4.7622 -0.2865  0.5035
  981MOL0     H32426   4.758   0.641   9.655  0.0312  2.6741  0.3753
  981MOL0     H32427   4.810   0.795   9.904 -1.2301  0.4769 -0.5981
  981MOL0     H32428   4.687   0.681   9.930  1.5107 -1.4839  0.5435
  981MOL0     H32429   4.553   0.769   9.725  0.2779 -0.5661  0.8565
  981MOL0     H32430   4.582   0.888   9.852  1.0164 -0.2963  1.3595
  981MOL0     H32431   4.773   1.048   9.512 -2.9187 -0.4560 -2.0518
  981MOL0     H32432   5.212   0.655   9.720 -1.1046  0.7670 -0.6750
  981MOL0     H32433   5.484   0.496   9.867  2.8795  0.0551 -1.0138
  981MOL0     H32434   5.548   0.517   9.719  1.6294 -0.3785  3.4810
  981MOL0     H32435   5.440   0.646   9.796 -0.8568 -0.4484  1.4550
  982MOL0     O32436   4.096   5.642   3.906  0.5815 -1.0200 -0.3462
  982MOL0     C32437   4.094   5.678   3.790  0.3178  0.3976 -0.1015
  982MOL0     O32438   4.200   5.717   3.713  0.0346  0.5313 -0.3608
  982MOL0     C32439   4.326   5.723   3.764  0.3088 -1.1014 -1.1657
  982MOL0     C32440   4.346   5.798   3.887 -0.1336 -0.2013 -0.1669
  982MOL0     C32441   4.481   5.811   3.935  0.1592  0.5855  0.0573
  982MOL0     C32442   4.593   5.761   3.858  0.5479 -0.7044 -0.2904
  982MOL0     O32443   4.717   5.789   3.905  0.0634 -0.3788  0.1194
  982MOL0     C32444   4.830   5.786   3.815  0.1176 -0.1601  1.2754
  982MOL0     C32445   4.959   5.829   3.891  0.0103  0.6844 -0.3411
  982MOL0     C32446   5.075   5.836   3.787 -0.0995  0.7031  0.3761
  982MOL0     C32447   5.192   5.893   3.862 -0.3723 -0.6991 -0.4134
  982MOL0     C32448   5.320   5.893   3.774  0.5896  0.3757 -0.1429
  982MOL0     C32449   5.428   5.978   3.843  0.8924 -0.1418 -0.6454
  982MOL0     C32450   5.558   5.973   3.773 -0.0544 -0.0460  0.0742
  982MOL0     C32451   5.660   6.040   3.865  0.0046  0.2089  0.3884
  982MOL0     N32452   5.796   6.025   3.805 -0.0660  0.1359 -0.3964
  982MOL0     C32453   5.864   6.105   3.712 -0.2354 -0.4546  0.6332
  982MOL0     C32454   5.987   6.046   3.702 -0.6437 -0.5593 -0.3575
  982MOL0     C32455   6.092   6.070   3.604  0.0831  0.1629  0.5593
  982MOL0     C32456   6.225   6.114   3.668 -0.3501  0.3239  0.3298
  982MOL0     C32457   6.328   6.134   3.553  0.6348  0.5888  0.9680
  982MOL0     C32458   6.472   6.128   3.607 -0.4979  0.6327 -0.6216
  982MOL0     O32459   6.574   6.150   3.504 -0.0675 -0.5391  0.0473
  982MOL0     C32460   6.708   6.171   3.549  0.1844  0.8985  0.1114
  982MOL0     C32461   6.757   6.136   3.675  0.8355  0.8189 -0.0978
  982MOL0     C32462   6.882   6.176   3.713  0.2514 -0.0730 -0.4930
  982MOL0     C32463   6.967   6.255   3.627  0.1429  0.1579 -0.1146
  982MOL0     C32464   7.102   6.300   3.654 -0.0068 -0.3694 -0.3388
  982MOL0     O32465   7.156   6.228   3.754  0.1026  0.1800 -0.1362
  982MOL0     C32466   7.296   6.209   3.767  0.7893  0.3520 -0.2545
  982MOL0     C32467   7.349   6.199   3.900 -0.0035 -0.1109  0.4848
  982MOL0     C32468   7.481   6.159   3.908 -0.1224  0.3331  0.8598
  982MOL0     C32469   7.564   6.161   3.794  0.1692 -0.3047 -0.4165
  982MOL0     O32470   7.702   6.139   3.800  0.1286  0.2405  1.0265
  982MOL0     C32471   7.799   6.176   3.690  0.5488  0.3606 -1.1378
  982MOL0     C32472   7.941   6.124   3.734  0.7606 -0.7813  0.3366
  982MOL0     C32473   7.997   6.194   3.861  0.1745 -0.0313  0.3193
  982MOL0     C32474   8.152   6.175   3.861  0.2312 -0.4317  0.5359
  982MOL0     C32475   8.219   6.217   3.998  0.0544 -0.4715  0.2109
  982MOL0     C32476   8.370   6.190   4.007  0.7497  0.1214  0.5678
  982MOL0     C32477   8.407   6.038   3.995  0.2127  1.0178 -0.7659
  982MOL0     C32478   8.555   6.003   4.003  0.2835 -0.4334 -0.5605
  982MOL0    Cl32479   8.635   6.066   4.159 -0.4546  0.1975 -0.5550
  982MOL0     C32480   7.516   6.210   3.673  1.4735 -0.8083  0.9458
  982MOL0     C32481   7.378   6.222   3.654 -0.0360 -0.0339 -0.3937
  982MOL0     O32482   7.157   6.387   3.591 -0.7139  0.2835 -0.0555
  982MOL0     C32483   6.920   6.279   3.502  0.4073  0.1155 -0.0366
  982MOL0     C32484   6.792   6.240   3.459 -0.1002 -0.2734 -0.4023
  982MOL0     N32485   5.996   5.945   3.793 -0.0068 -0.0133  0.1569
  982MOL0     N32486   5.884   5.924   3.854 -0.4844 -0.0954  0.1478
  982MOL0     C32487   4.566   5.700   3.739 -0.7775 -0.0221  0.1404
  982MOL0     C32488   4.439   5.686   3.693 -0.4742  0.5337 -0.0750
  982MOL0     C32489   3.959   5.685   3.738  0.3678  1.1209  0.0638
  982MOL0     C32490   3.851   5.622   3.799  0.4465  0.5063  0.0571
  982MOL0     C32491   3.720   5.635   3.753  0.2872  0.1189  0.2832
  982MOL0     C32492   3.696   5.714   3.640  1.0109 -0.0315  0.0186
  982MOL0     O32493   3.570   5.744   3.596 -0.2796 -0.2181 -0.0844
  982MOL0     C32494   3.452   5.667   3.646  1.0950 -0.2496  0.4617
  982MOL0     C32495   3.331   5.717   3.583 -0.4233 -0.1299  0.1505
  982MOL0     C32496   3.202   5.656   3.630  0.8526  0.2193 -0.2213
  982MOL0     C32497   3.153   5.695   3.772  0.5216 -0.6831  0.2741
  982MOL0     C32498   3.130   5.839   3.775 -0.3137 -0.1433  0.0229
  982MOL0     C32499   3.106   5.957   3.786  0.3491  0.7878  0.3570
  982MOL0     C32500   3.800   5.770   3.579  0.1824 -0.0911  0.1950
  982MOL0     C32501   3.933   5.760   3.621 -0.0111  0.0942 -0.1670
  982MOL0     C32502   4.035   5.831   3.540  0.0481 -0.7374  0.7540
  982MOL0     H32503   4.266   5.847   3.941  0.1257  0.2654 -0.1970
  982MOL0     H32504   4.493   5.858   4.032  1.8808  2.3677 -0.9448
  982MOL0     H32505   4.846   5.686   3.775 -1.3683  1.0892 -3.0838
  982MOL0     H32506   4.813   5.841   3.722  0.6348  0.3203  1.4597
  982MOL0     H32507   4.978   5.759   3.972 -3.2039  0.9238  0.7714
  982MOL0     H32508   4.941   5.929   3.933  0.1654  0.8136 -0.5770
  982MOL0     H32509   5.051   5.906   3.707  2.2760  2.6748  1.2694
  982MOL0     H32510   5.093   5.735   3.747 -0.7758  1.2823 -1.5109
  982MOL0     H32511   5.170   5.992   3.901  1.1300 -0.6384  0.3571
  982MOL0     H32512   5.216   5.835   3.952  0.7450  0.0690 -0.1943
  982MOL0     H32513   5.348   5.790   3.750  1.9632  1.2276 -2.5341
  982MOL0     H32514   5.298   5.946   3.681 -1.1099  0.3394  0.2091
  982MOL0     H32515   5.394   6.082   3.845 -3.7620 -1.4664  0.3306
  982MOL0     H32516   5.445   5.948   3.947 -3.3834 -0.6334  0.0801
  982MOL0     H32517   5.557   6.023   3.675 -1.4020  1.2688  0.7261
  982MOL0     H32518   5.581   5.868   3.754  1.2995  0.0362  1.1371
  982MOL0     H32519   5.619   6.141   3.864 -5.0079 -1.5116  1.0445
  982MOL0     H32520   5.664   5.992   3.964  2.2079  1.4386  0.9818
  982MOL0     H32521   5.821   6.188   3.656 -2.3128 -0.3217  2.2792
  982MOL0     H32522   6.114   5.976   3.553  1.7952 -0.5585  2.4769
  982MOL0     H32523   6.068   6.155   3.539  0.1041  0.6364  1.1568
  982MOL0     H32524   6.222   6.208   3.724  2.5861 -2.1033  5.2980
  982MOL0     H32525   6.261   6.038   3.739 -2.2473 -0.4797  0.4964
  982MOL0     H32526   6.312   6.226   3.496 -1.0832 -2.1560 -3.4822
  982MOL0     H32527   6.318   6.057   3.476  0.5352  1.9572 -0.4562
  982MOL0     H32528   6.499   6.025   3.631  0.4660  0.9582 -0.2599
  982MOL0     H32529   6.487   6.187   3.698 -1.0064 -1.5426  0.9681
  982MOL0     H32530   6.682   6.088   3.737 -0.1673 -0.0266 -1.8846
  982MOL0     H32531   6.906   6.151   3.816  3.1366 -0.7695 -1.2407
  982MOL0     H32532   7.283   6.205   3.986 -0.7270  2.1130 -0.1507
  982MOL0     H32533   7.520   6.139   4.007 -0.0414 -3.4136  0.2208
  982MOL0     H32534   7.783   6.130   3.593  2.5232  0.7756 -1.7213
  982MOL0     H32535   7.806   6.284   3.671  3.7263  0.4922  0.1360
  982MOL0     H32536   7.919   6.019   3.759 -0.9869 -0.9321 -1.5712
  982MOL0     H32537   8.000   6.140   3.644 -1.3724  0.9356 -0.8629
  982MOL0     H32538   7.952   6.293   3.848 -0.1788 -0.1841  0.3822
  982MOL0     H32539   7.947   6.155   3.950 -0.1460 -0.7109 -0.1501
  982MOL0     H32540   8.192   6.226   3.772  0.0647 -2.3778 -0.7063
  982MOL0     H32541   8.169   6.067   3.855 -2.6999 -0.8897 -1.8048
  982MOL0     H32542   8.174   6.164   4.082  0.1915  0.4540  0.8724
  982MOL0     H32543   8.199   6.322   4.020  2.1522  0.1354 -0.5523
  982MOL0     H32544   8.421   6.256   3.936  1.5966 -1.3273 -0.2014
  982MOL0     H32545   8.396   6.230   4.106 -0.8974  1.2547  0.6046
  982MOL0     H32546   8.362   6.012   3.899 -1.3794  1.6383 -0.2229
  982MOL0     H32547   8.364   5.995   4.086  2.1940  3.2164  1.3876
  982MOL0     H32548   8.579   5.897   3.990  0.2113 -0.3914 -1.0588
  982MOL0     H32549   8.620   6.038   3.923  3.2417 -1.1015  1.3925
  982MOL0     H32550   7.583   6.216   3.587  1.3294  0.7925  0.9231
  982MOL0     H32551   7.343   6.249   3.555 -2.0976 -1.8380 -0.2410
  982MOL0     H32552   6.980   6.337   3.433 -1.2130  1.3613 -0.4632
  982MOL0     H32553   6.755   6.263   3.359 -0.6193  1.6922  0.1954
  982MOL0     H32554   4.646   5.666   3.674 -0.1502 -0.7976  1.2920
  982MOL0     H32555   4.427   5.634   3.599 -1.2808  1.1120 -0.3013
  982MOL0     H32556   3.866   5.564   3.889 -0.9959 -0.4556 -0.2780
  982MOL0     H32557   3.644   5.591   3.816 -0.1623  1.4138  0.6756
  982MOL0     H32558   3.439   5.689   3.752  0.8748  1.5944  0.0966
  982MOL0     H32559   3.468   5.560   3.630  3.3469  0.3556 -2.1270
  982MOL0     H32560   3.334   5.678   3.480  0.1644 -0.7956  0.4123
  982MOL0     H32561   3.334   5.826   3.573  0.0083  0.0301  1.7408
  982MOL0     H32562   3.204   5.547   3.621 -2.2214  0.1581 -1.2701
  982MOL0     H32563   3.133   5.694   3.554  0.9072  0.8068  0.0248
  982MOL0     H32564   3.063   5.635   3.786 -0.5258  0.5190 -1.0449
  982MOL0     H32565   3.228   5.667   3.846  1.0728 -2.2662 -0.8191
  982MOL0     H32566   3.077   6.060   3.798 -2.3391  0.0364  1.1818
  982MOL0     H32567   3.777   5.823   3.487  2.0409 -1.2066 -0.9882
  982MOL0     H32568   4.096   5.901   3.598  1.6365  0.2142 -1.8532
  982MOL0     H32569   4.102   5.757   3.495  0.4000 -0.0105  0.0294
  982MOL0     H32570   3.991   5.883   3.454  0.9113 -1.1863  0.0150
  983MOL0     O32571   1.431   7.624  10.293 -0.7603  0.1083 -1.2359
  983MOL0     C32572   1.385   7.572  10.396 -0.4636  0.1641  0.0282
  983MOL0     O32573   1.442   7.574  10.525  0.2490  0.4173 -1.1126
  983MOL0     C32574   1.568   7.631  10.538 -0.2847 -0.0969 -0.5418
  983MOL0     C32575   1.674   7.540  10.553  0.3886 -0.1067  0.0191
  983MOL0     C32576   1.800   7.589  10.582 -0.4036 -0.1923  0.2091
  983MOL0     C32577   1.822   7.725  10.610 -0.7492 -0.0732  0.4575
  983MOL0     O32578   1.945   7.792  10.629  0.7395  0.4306 -0.0970
  983MOL0     C32579   2.056   7.704  10.649 -0.2347  0.9605  0.5983
  983MOL0     C32580   2.173   7.761  10.726 -0.0471  0.4046  0.9877
  983MOL0     C32581   2.247   7.873  10.655 -0.2568  0.6064  0.5258
  983MOL0     C32582   2.377   7.923  10.717 -0.4600 -0.2317  0.0745
  983MOL0     C32583   2.464   8.009  10.621 -0.1518  0.5257 -0.0056
  983MOL0     C32584   2.516   7.933  10.494 -0.1050  0.2825 -0.7913
  983MOL0     C32585   2.600   8.026  10.405  0.2486  0.7035  0.5529
  983MOL0     C32586   2.721   8.102  10.469 -0.3117  0.2594  0.0468
  983MOL0     N32587   2.837   8.019  10.488  0.0210  0.1185  0.3342
  983MOL0     C32588   2.900   7.950  10.386 -0.2008  0.5097 -0.2506
  983MOL0     C32589   2.994   7.872  10.446 -1.2093 -0.0135  0.3210
  983MOL0     C32590   3.090   7.781  10.360  0.0968  0.6325 -0.6313
  983MOL0     C32591   3.239   7.837  10.359 -0.5560 -0.6087 -0.7160
  983MOL0     C32592   3.331   7.737  10.285  0.2675 -0.7001  0.1331
  983MOL0     C32593   3.478   7.768  10.293  0.6000  0.8228 -0.3692
  983MOL0     O32594   3.527   7.773  10.426  0.0267 -0.7740 -0.3635
  983MOL0     C32595   3.663   7.791  10.451  0.1769 -0.2959  0.4011
  983MOL0     C32596   3.751   7.838  10.349 -0.3541 -0.0117 -0.6163
  983MOL0     C32597   3.883   7.863  10.378 -0.4381 -0.1846 -0.1052
  983MOL0     C32598   3.933   7.822  10.502 -0.5501 -0.8361 -0.1353
  983MOL0     C32599   4.076   7.845  10.526 -0.2426 -0.1471  0.1323
  983MOL0     O32600   4.116   7.810  10.648 -0.2699  0.3790  0.6598
  983MOL0     C32601   4.245   7.845  10.695  0.5940  0.5671  0.1632
  983MOL0     C32602   4.268   7.965  10.760  0.5521 -0.0334  0.0607
  983MOL0     C32603   4.392   8.000  10.807 -0.6523 -0.4308  0.1451
  983MOL0     C32604   4.505   7.902  10.802  0.6161  0.3059  0.6829
  983MOL0     O32605   4.623   7.937  10.862 -0.0885 -0.3415  0.5308
  983MOL0     C32606   4.747   7.925  10.785  0.1442  0.9408 -0.8067
  983MOL0     C32607   4.869   7.928  10.872 -0.1148 -0.2461 -0.6563
  983MOL0     C32608   4.905   8.070  10.925  0.8768 -0.3863 -0.3248
  983MOL0     C32609   4.994   8.073  11.048  0.5098  0.3358  0.5967
  983MOL0     C32610   5.139   8.104  11.009  0.2075  0.1917 -0.3229
  983MOL0     C32611   5.206   8.168  11.134 -0.4230  0.2170  0.1245
  983MOL0     C32612   5.340   8.237  11.090  0.3889  0.7597  0.2223
  983MOL0     C32613   5.447   8.244  11.194  0.5004  0.9142  0.2845
  983MOL0    Cl32614   5.462   8.080  11.277  0.1258 -0.1060  0.5916
  983MOL0     C32615   4.482   7.777  10.751  0.1312 -0.4235  0.0862
  983MOL0     C32616   4.356   7.755  10.686 -0.1866  0.1185 -0.3610
  983MOL0     O32617   4.144   7.887  10.432 -0.1876 -0.7901 -0.3451
  983MOL0     C32618   3.849   7.776  10.607  0.0015  0.1594  1.3391
  983MOL0     C32619   3.711   7.755  10.578  0.1972  0.1042 -0.2723
  983MOL0     N32620   2.988   7.889  10.587 -0.2987 -0.8748 -0.3406
  983MOL0     N32621   2.885   7.973  10.607 -0.4125  0.5075 -1.0934
  983MOL0     C32622   1.712   7.810  10.607 -0.5319  0.2852  0.2510
  983MOL0     C32623   1.585   7.769  10.565 -0.6011  0.0269 -0.3791
  983MOL0     C32624   1.249   7.493  10.387  0.0065  0.0420  0.0162
  983MOL0     C32625   1.186   7.461  10.510  0.2461 -0.3742 -0.2615
  983MOL0     C32626   1.056   7.408  10.514 -0.2677  0.1102 -0.0974
  983MOL0     C32627   0.988   7.372  10.395 -0.0130 -0.1758 -0.1793
  983MOL0     O32628   0.861   7.310  10.414  0.2070  0.2092  0.4176
  983MOL0     C32629   0.762   7.309  10.311 -0.1352 -0.6967 -0.2478
  983MOL0     C32630   0.629   7.258  10.364  0.1946 -0.0385  0.1382
  983MOL0     C32631   0.599   7.318  10.500 -0.5928  0.8206  0.2598
  983MOL0     C32632   0.470   7.258  10.571  0.7636  0.6073  0.4099
  983MOL0     C32633   0.348   7.287  10.485  0.1320  0.6322  0.5834
  983MOL0     C32634   0.245   7.319  10.431  0.4530 -0.0650  0.2415
  983MOL0     C32635   1.053   7.397  10.272 -0.3885 -0.3160  0.1950
  983MOL0     C32636   1.177   7.469  10.270  0.5353  1.2502  0.2387
  983MOL0     C32637   1.228   7.507  10.142 -0.0574 -0.0786 -0.2411
  983MOL0     H32638   1.657   7.434  10.539 -0.4937 -0.0636  0.6676
  983MOL0     H32639   1.880   7.515  10.578 -1.1579 -1.1951  2.1721
  983MOL0     H32640   2.026   7.615  10.706  1.4943 -0.3952 -0.4874
  983MOL0     H32641   2.096   7.656  10.560  4.4752  3.0351  1.2901
  983MOL0     H32642   2.252   7.689  10.747  0.1980 -0.2608 -1.8030
  983MOL0     H32643   2.132   7.799  10.820 -0.9012  1.0407  0.3760
  983MOL0     H32644   2.175   7.955  10.657 -3.7357 -2.1950 -0.1909
  983MOL0     H32645   2.268   7.850  10.550 -0.4804  0.8749  0.4222
  983MOL0     H32646   2.349   7.990  10.800 -1.4503  0.3947 -0.7362
  983MOL0     H32647   2.435   7.841  10.759  0.4472 -0.7413 -2.0589
  983MOL0     H32648   2.413   8.103  10.598  2.5316  1.4042 -3.0053
  983MOL0     H32649   2.550   8.035  10.684 -0.3502 -0.3702  0.6552
  983MOL0     H32650   2.571   7.846  10.533  0.1240  2.0299  3.3655
  983MOL0     H32651   2.436   7.900  10.427 -0.5484  2.1115 -1.2246
  983MOL0     H32652   2.534   8.106  10.371 -2.1419  0.1275  3.4361
  983MOL0     H32653   2.624   7.977  10.310 -1.4891  1.8045 -0.5052
  983MOL0     H32654   2.750   8.185  10.404 -0.3486 -0.2798 -0.6609
  983MOL0     H32655   2.687   8.145  10.563 -0.1406 -0.1616  0.3051
  983MOL0     H32656   2.882   7.950  10.279 -1.3877 -1.6611 -0.0906
  983MOL0     H32657   3.084   7.682  10.406  3.7533  0.5837  0.0239
  983MOL0     H32658   3.050   7.782  10.258  0.6717 -0.6155 -0.8927
  983MOL0     H32659   3.238   7.928  10.298 -3.2414 -2.1377 -3.2629
  983MOL0     H32660   3.271   7.859  10.461 -1.9138  1.5367 -0.6871
  983MOL0     H32661   3.305   7.726  10.180  0.9481 -1.3113  0.0190
  983MOL0     H32662   3.323   7.638  10.331 -0.2999 -0.4630  0.5621
  983MOL0     H32663   3.495   7.861  10.238  3.2104  0.9120  0.4740
  983MOL0     H32664   3.527   7.692  10.233  1.7649  2.5023 -1.6449
  983MOL0     H32665   3.715   7.858  10.249 -2.6126 -1.0400 -0.0625
  983MOL0     H32666   3.951   7.906  10.304  1.1860  1.0040  1.9457
  983MOL0     H32667   4.187   8.037  10.769  0.3350 -0.1080 -1.0764
  983MOL0     H32668   4.418   8.103  10.830  0.5725 -1.6172  5.5847
  983MOL0     H32669   4.750   7.835  10.723 -3.5965  1.4176 -1.9681
  983MOL0     H32670   4.749   8.006  10.711  1.7914  2.3892  0.7229
  983MOL0     H32671   4.851   7.861  10.957 -0.6983  0.7002 -0.0196
  983MOL0     H32672   4.957   7.887  10.821 -0.7136 -1.7349 -0.5379
  983MOL0     H32673   4.952   8.123  10.841 -1.5767 -1.0299 -2.2293
  983MOL0     H32674   4.811   8.118  10.955  1.0654  0.2976 -0.7926
  983MOL0     H32675   4.991   7.982  11.110  0.1225  0.6336  1.0251
  983MOL0     H32676   4.951   8.153  11.108 -0.5971 -0.6036  1.0986
  983MOL0     H32677   5.151   8.170  10.922 -4.6360 -0.0906 -1.4756
  983MOL0     H32678   5.182   8.006  10.986  0.4965 -0.4229  2.4836
  983MOL0     H32679   5.145   8.248  11.177 -0.3424 -0.4134  1.4579
  983MOL0     H32680   5.207   8.084  11.205 -3.1184 -1.3606 -1.5378
  983MOL0     H32681   5.324   8.334  11.044  2.1514  0.6776 -0.6564
  983MOL0     H32682   5.383   8.182  11.006 -1.7616 -0.1196 -0.3549
  983MOL0     H32683   5.541   8.275  11.148 -0.4257  2.2218 -0.8298
  983MOL0     H32684   5.424   8.319  11.271 -0.4161 -0.0862  1.0174
  983MOL0     H32685   4.576   7.722  10.754 -0.1383 -0.8546  0.7550
  983MOL0     H32686   4.342   7.664  10.629 -0.9328 -0.2630  0.4107
  983MOL0     H32687   3.891   7.758  10.706 -0.2447 -2.1022  1.0863
  983MOL0     H32688   3.645   7.725  10.658 -1.3251  1.8386 -0.8026
  983MOL0     H32689   1.719   7.910  10.649  4.3642  1.0356 -1.6394
  983MOL0     H32690   1.504   7.842  10.563  0.3997  1.2587  1.3032
  983MOL0     H32691   1.221   7.482  10.611 -1.5018 -1.9102  0.7152
  983MOL0     H32692   1.012   7.397  10.612 -1.9820  0.8756 -0.7373
  983MOL0     H32693   0.788   7.247  10.225 -1.1365 -2.5379  0.7031
  983MOL0     H32694   0.728   7.410  10.287 -0.6297 -1.2445 -1.9578
  983MOL0     H32695   0.643   7.151  10.380  1.6643  0.1932  0.5390
  983MOL0     H32696   0.551   7.276  10.290 -1.4346 -5.7549  0.0459
  983MOL0     H32697   0.569   7.424  10.495 -1.0210  0.6633 -0.9783
  983MOL0     H32698   0.676   7.311  10.578 -0.9853  1.7208  0.7535
  983MOL0     H32699   0.487   7.150  10.578 -4.2148 -0.6435 -2.2843
  983MOL0     H32700   0.441   7.298  10.669 -2.3083  0.7757 -0.4927
  983MOL0     H32701   0.163   7.351  10.370 -0.2003 -2.4170 -0.2216
  983MOL0     H32702   1.013   7.370  10.175 -1.9141  0.7522  0.4926
  983MOL0     H32703   1.324   7.465  10.111 -0.2988  0.0250 -1.1631
  983MOL0     H32704   1.163   7.480  10.059  1.1005 -1.6190 -0.6879
  983MOL0     H32705   1.242   7.616  10.143  0.4316 -0.1022  2.4679
  984MOL0     O32706   0.848   3.695   4.767  0.1089 -0.5310  0.7115
  984MOL0     C32707   0.748   3.714   4.841  0.7695  0.4052 -1.1717
  984MOL0     O32708   0.734   3.670   4.974 -0.3417  0.4422 -0.1696
  984MOL0     C32709   0.856   3.630   5.028  0.9896  0.3539  0.9462
  984MOL0     C32710   0.890   3.497   5.043 -0.3235  0.2105  0.4694
  984MOL0     C32711   1.012   3.471   5.101 -0.8231 -1.2666 -0.2447
  984MOL0     C32712   1.100   3.570   5.146  0.2323  0.4734 -0.1085
  984MOL0     O32713   1.227   3.551   5.199  0.3503  0.1702  0.5541
  984MOL0     C32714   1.228   3.443   5.288  0.6711 -0.5301 -0.6432
  984MOL0     C32715   1.319   3.328   5.230  0.3605  0.1095 -0.2260
  984MOL0     C32716   1.452   3.375   5.166 -0.0626 -0.9345  0.0020
  984MOL0     C32717   1.575   3.347   5.260  0.5133 -0.0083 -0.8397
  984MOL0     C32718   1.698   3.363   5.178  0.5755  0.1503  0.4822
  984MOL0     C32719   1.826   3.352   5.258  0.0944 -0.1780 -0.2187
  984MOL0     C32720   1.950   3.384   5.175 -0.2253 -0.5947 -0.3710
  984MOL0     C32721   2.033   3.507   5.248  0.5566  1.2015  0.1213
  984MOL0     N32722   2.095   3.571   5.132  0.2554 -0.0398 -0.3783
  984MOL0     C32723   2.191   3.527   5.046 -0.6822  0.1460  0.4200
  984MOL0     C32724   2.223   3.633   4.961 -0.5279 -0.3915  0.1454
  984MOL0     C32725   2.320   3.642   4.851  0.2204 -1.2327 -0.5227
  984MOL0     C32726   2.470   3.623   4.895  1.0295 -0.7325 -0.0468
  984MOL0     C32727   2.565   3.608   4.774 -0.1184 -0.3841 -0.0204
  984MOL0     C32728   2.703   3.639   4.819  0.3834  0.0407  0.1664
  984MOL0     O32729   2.745   3.540   4.917 -0.4424 -0.1016 -0.3612
  984MOL0     C32730   2.878   3.549   4.960 -0.8175  0.3575  0.3147
  984MOL0     C32731   2.989   3.623   4.904  0.9470  0.1000 -0.9656
  984MOL0     C32732   3.122   3.615   4.948  0.6140 -0.7117 -0.0116
  984MOL0     C32733   3.155   3.519   5.046 -0.4155  0.1602  0.7791
  984MOL0     C32734   3.297   3.509   5.093  0.7868 -0.8040 -0.1485
  984MOL0     O32735   3.334   3.393   5.162  1.0476 -0.1083  0.3074
  984MOL0     C32736   3.464   3.377   5.209 -0.4486 -0.0638  0.7943
  984MOL0     C32737   3.486   3.281   5.307 -0.4112 -0.3444  0.5122
  984MOL0     C32738   3.607   3.239   5.351  0.1039  0.3025 -0.0755
  984MOL0     C32739   3.724   3.293   5.293 -0.8057 -0.5081 -0.2908
  984MOL0     O32740   3.846   3.258   5.336 -0.4560 -0.2491  0.2015
  984MOL0     C32741   3.940   3.210   5.237  0.4772 -0.2385  0.2570
  984MOL0     C32742   4.083   3.194   5.290  0.2213 -0.6201 -0.5100
  984MOL0     C32743   4.092   3.062   5.376  0.0132 -0.0504 -0.6020
  984MOL0     C32744   4.239   3.022   5.406  0.1513  0.0881 -0.1625
  984MOL0     C32745   4.230   2.883   5.478  0.2536  0.1439 -0.7138
  984MOL0     C32746   4.357   2.811   5.493  0.3745 -0.9087  0.0167
  984MOL0     C32747   4.453   2.879   5.596 -0.0617  0.0555  0.1223
  984MOL0     C32748   4.596   2.811   5.583 -0.5829 -0.5656 -0.0876
  984MOL0    Cl32749   4.700   2.938   5.662  0.2461  0.0653 -0.2224
  984MOL0     C32750   3.705   3.395   5.197 -0.1225 -0.0581  0.1760
  984MOL0     C32751   3.581   3.432   5.147  0.4284  0.7301 -0.6600
  984MOL0     O32752   3.371   3.604   5.061 -0.1676 -0.2434 -0.0290
  984MOL0     C32753   3.051   3.441   5.103  0.1648 -0.2954 -0.0717
  984MOL0     C32754   2.917   3.463   5.060 -0.4639 -1.2368 -0.0186
  984MOL0     N32755   2.142   3.735   4.999 -0.3084  0.6106 -0.5605
  984MOL0     N32756   2.060   3.699   5.096  0.4300 -0.5256 -0.0591
  984MOL0     C32757   1.057   3.702   5.131 -0.2528 -0.8322 -0.0555
  984MOL0     C32758   0.938   3.729   5.080 -0.6958 -0.3571 -0.3879
  984MOL0     C32759   0.621   3.784   4.782 -0.0089 -0.7641  0.3203
  984MOL0     C32760   0.508   3.787   4.867 -0.8243  0.0368 -0.5301
  984MOL0     C32761   0.391   3.856   4.837  0.0510  0.9063  0.4597
  984MOL0     C32762   0.377   3.917   4.713 -0.3943 -0.0749  0.1393
  984MOL0     O32763   0.253   3.986   4.691 -0.0775  0.1875 -0.5986
  984MOL0     C32764   0.263   4.121   4.633 -0.3827 -0.9371  0.2989
  984MOL0     C32765   0.331   4.237   4.720  0.9092  0.0023  0.1520
  984MOL0     C32766   0.270   4.227   4.864 -0.3990  0.2407 -0.7182
  984MOL0     C32767   0.151   4.320   4.876  0.5924 -0.0923 -0.7031
  984MOL0     C32768   0.024   4.269   4.812 -0.1958  1.0622 -0.8610
  984MOL0     C32769  -0.081   4.238   4.764 -1.0633  0.8573 -0.0763
  984MOL0     C32770   0.488   3.906   4.619  0.1414 -0.6350 -0.1384
  984MOL0     C32771   0.607   3.841   4.653 -0.5422 -0.1517 -0.2354
  984MOL0     C32772   0.702   3.821   4.537 -0.7763  0.2973  0.7449
  984MOL0     H32773   0.832   3.419   4.995  0.1242 -0.0925  0.4238
  984MOL0     H32774   1.051   3.371   5.083 -1.3621 -1.2900 -1.4353
  984MOL0     H32775   1.272   3.483   5.380 -0.6222 -2.9654  1.1360
  984MOL0     H32776   1.130   3.409   5.320 -0.0813  1.8953 -0.1425
  984MOL0     H32777   1.254   3.282   5.155  0.6305  0.0407 -0.4173
  984MOL0     H32778   1.334   3.249   5.305 -2.1915 -0.3008 -0.0393
  984MOL0     H32779   1.452   3.476   5.124 -0.4195  0.3232  2.7680
  984MOL0     H32780   1.457   3.312   5.077 -0.1889 -1.9228  0.6812
  984MOL0     H32781   1.571   3.420   5.341  2.5348 -0.6585 -0.0977
  984MOL0     H32782   1.581   3.247   5.305  2.4040 -0.8408 -2.7834
  984MOL0     H32783   1.695   3.288   5.098 -3.8143 -0.0967  0.6250
  984MOL0     H32784   1.695   3.461   5.131 -1.9594 -1.0214 -2.1280
  984MOL0     H32785   1.820   3.416   5.346  0.9207  0.1103 -0.3553
  984MOL0     H32786   1.845   3.254   5.302  2.9910  0.4062  0.0772
  984MOL0     H32787   1.916   3.417   5.077  0.5255 -1.1770 -0.8312
  984MOL0     H32788   2.002   3.290   5.156  0.1597 -0.5992  0.6142
  984MOL0     H32789   1.968   3.569   5.311 -2.4599 -1.4480 -0.1195
  984MOL0     H32790   2.109   3.462   5.314 -0.5408 -1.0794 -0.0462
  984MOL0     H32791   2.235   3.427   5.045  1.0076  0.7453 -3.5522
  984MOL0     H32792   2.295   3.562   4.781 -2.3685 -1.0697  0.1205
  984MOL0     H32793   2.298   3.734   4.796  0.0679 -1.2787 -0.5387
  984MOL0     H32794   2.497   3.718   4.943  0.3879 -1.0178  0.9012
  984MOL0     H32795   2.483   3.535   4.958  0.1085 -1.8236 -1.3343
  984MOL0     H32796   2.543   3.681   4.696  0.1404 -1.2427 -0.9172
  984MOL0     H32797   2.565   3.505   4.736 -2.3877 -0.8713  1.0649
  984MOL0     H32798   2.698   3.737   4.868 -0.8482 -0.6133  1.4191
  984MOL0     H32799   2.767   3.636   4.731  1.1231  1.8456  0.5812
  984MOL0     H32800   2.962   3.686   4.821 -2.2072  1.4336  0.9055
  984MOL0     H32801   3.199   3.671   4.895  0.1423  0.5716  0.6253
  984MOL0     H32802   3.399   3.237   5.355 -0.0050 -0.7020  0.9333
  984MOL0     H32803   3.612   3.161   5.426  2.2130 -1.2936 -1.7446
  984MOL0     H32804   3.894   3.115   5.208 -1.9088  0.0287  2.7256
  984MOL0     H32805   3.944   3.278   5.152 -3.9570  3.3670  2.4910
  984MOL0     H32806   4.151   3.193   5.204 -0.9710  2.5804 -1.6307
  984MOL0     H32807   4.105   3.280   5.353  0.3077 -1.8272  1.1820
  984MOL0     H32808   4.035   3.074   5.469  2.7761  0.5439  1.1248
  984MOL0     H32809   4.049   2.976   5.324  1.5214 -1.0331 -0.2798
  984MOL0     H32810   4.290   3.100   5.465  0.4899  1.1627 -1.8058
  984MOL0     H32811   4.298   3.023   5.313 -0.6612  0.0318 -0.6867
  984MOL0     H32812   4.161   2.818   5.424 -2.2284 -0.0671  2.4380
  984MOL0     H32813   4.177   2.894   5.573 -0.1342 -0.0109 -0.9109
  984MOL0     H32814   4.346   2.707   5.525 -2.8183 -0.9274 -0.8345
  984MOL0     H32815   4.421   2.812   5.404  0.5292  0.0421  0.1188
  984MOL0     H32816   4.412   2.868   5.697 -0.7933  0.4319 -0.1276
  984MOL0     H32817   4.456   2.987   5.579  2.3871  0.1689  0.8811
  984MOL0     H32818   4.601   2.726   5.651 -1.1744  0.5871  1.4443
  984MOL0     H32819   4.627   2.783   5.482 -1.7674  1.0085 -0.9232
  984MOL0     H32820   3.796   3.437   5.157  0.3961 -2.2258 -1.1242
  984MOL0     H32821   3.572   3.488   5.055  1.3445  1.5520 -0.2634
  984MOL0     H32822   3.071   3.384   5.194  0.9382  2.7145  1.7990
  984MOL0     H32823   2.844   3.399   5.110  2.2583 -2.2789  2.9761
  984MOL0     H32824   1.127   3.783   5.149 -0.4378 -0.8471  0.7419
  984MOL0     H32825   0.902   3.829   5.058 -1.1770 -0.8029 -1.7457
  984MOL0     H32826   0.512   3.756   4.971 -0.1699 -0.3226 -0.6552
  984MOL0     H32827   0.316   3.865   4.914 -0.8694 -0.1560 -0.2848
  984MOL0     H32828   0.166   4.165   4.605  0.8750 -0.0405 -3.1450
  984MOL0     H32829   0.319   4.113   4.540 -2.0146  2.2606 -1.1358
  984MOL0     H32830   0.323   4.337   4.676 -0.6427 -0.7019 -1.2626
  984MOL0     H32831   0.439   4.218   4.729  0.8044  0.2448  2.2979
  984MOL0     H32832   0.345   4.268   4.932 -0.8086 -0.9952  0.5219
  984MOL0     H32833   0.248   4.123   4.890  0.8499 -0.7730 -3.3117
  984MOL0     H32834   0.139   4.329   4.984 -0.4293 -0.9118 -0.7328
  984MOL0     H32835   0.177   4.421   4.845 -0.6664  0.6480  0.5728
  984MOL0     H32836  -0.176   4.204   4.727  0.5557 -1.5970 -2.3914
  984MOL0     H32837   0.477   3.953   4.522  0.3153  1.5401  0.8319
  984MOL0     H32838   0.776   3.742   4.557  0.3291  0.8353 -0.9550
  984MOL0     H32839   0.649   3.800   4.444  0.3352  1.3926 -0.1728
  984MOL0     H32840   0.750   3.918   4.524  2.7015 -1.2173  0.9470
  985MOL0     O32841   6.996  10.576   5.351  0.1474 -0.3204 -0.6222
  985MOL0     C32842   6.958  10.490   5.275  0.6019 -0.0784  0.1342
  985MOL0     O32843   7.029  10.368   5.247  0.2072 -0.7611  0.1571
  985MOL0     C32844   7.145  10.337   5.316 -0.5151  0.3714 -0.6135
  985MOL0     C32845   7.166  10.200   5.339 -0.1460 -0.4816 -0.2133
  985MOL0     C32846   7.289  10.160   5.406  0.7564  0.5960  0.2955
  985MOL0     C32847   7.388  10.251   5.442 -0.0196 -0.9536 -0.2488
  985MOL0     O32848   7.506  10.206   5.499 -0.5457  0.5418  0.6707
  985MOL0     C32849   7.605  10.153   5.402  0.5018 -0.1958 -0.6391
  985MOL0     C32850   7.742  10.147   5.475  0.4013  0.0851  0.1783
  985MOL0     C32851   7.793  10.288   5.515  0.9100  0.3547  0.0323
  985MOL0     C32852   7.928  10.283   5.589 -0.1259 -0.4347  0.0028
  985MOL0     C32853   7.989  10.425   5.588  0.5164 -0.3368  0.1663
  985MOL0     C32854   8.070  10.451   5.464 -0.2641  0.5245 -0.8754
  985MOL0     C32855   8.087  10.605   5.453  0.1005  0.5382  0.6567
  985MOL0     C32856   8.172  10.634   5.332  0.2116  0.3486  0.1604
  985MOL0     N32857   8.212  10.776   5.326 -0.5804 -0.1665 -0.2662
  985MOL0     C32858   8.169  10.863   5.228  1.1033  0.3379  0.3174
  985MOL0     C32859   8.266  10.953   5.223 -0.4201 -0.6133 -0.2064
  985MOL0     C32860   8.274  11.057   5.119  0.6060  0.1930  0.1258
  985MOL0     C32861   8.275  10.993   4.979  0.1699  0.5362  0.3821
  985MOL0     C32862   8.314  11.102   4.876  0.4447 -0.9182 -0.3598
  985MOL0     C32863   8.314  11.048   4.737  0.3553  0.3797 -0.2163
  985MOL0     O32864   8.379  11.154   4.659 -0.2383  0.2090 -0.0829
  985MOL0     C32865   8.518  11.141   4.645  0.0121 -0.0327 -0.2344
  985MOL0     C32866   8.601  11.239   4.700 -0.5587 -0.1811 -0.0763
  985MOL0     C32867   8.739  11.254   4.685  0.1958  0.4039 -0.7837
  985MOL0     C32868   8.793  11.162   4.590 -0.3498 -0.0946 -0.8250
  985MOL0     C32869   8.943  11.161   4.560  0.6075 -0.4761 -0.1319
  985MOL0     O32870   9.006  11.046   4.521  0.3719  0.5703  0.0832
  985MOL0     C32871   9.139  11.058   4.523  0.2980 -0.9157  0.2669
  985MOL0     C32872   9.218  11.153   4.439 -0.4285 -0.2817  0.1033
  985MOL0     C32873   9.354  11.162   4.447  0.3896  0.0507 -1.1040
  985MOL0     C32874   9.425  11.097   4.550  0.7608 -0.2940  0.5114
  985MOL0     O32875   9.561  11.105   4.558 -0.4351 -0.0396 -0.5038
  985MOL0     C32876   9.641  10.992   4.591 -0.2365  0.0193  0.1791
  985MOL0     C32877   9.785  10.999   4.528  0.9724  0.6885  0.0028
  985MOL0     C32878   9.847  10.857   4.532 -0.1981  0.0534  0.1203
  985MOL0     C32879   9.993  10.847   4.508  0.4345  0.0519  1.1028
  985MOL0     C32880  10.048  10.703   4.530  0.6996  0.4013  0.0596
  985MOL0     C32881  10.189  10.695   4.597  0.0613 -0.5299 -0.1761
  985MOL0     C32882  10.304  10.745   4.497  0.1346  0.1549 -0.0955
  985MOL0     C32883  10.441  10.730   4.563 -0.0220 -0.3706 -0.5157
  985MOL0    Cl32884  10.477  10.863   4.683  0.4662  0.4738  0.0792
  985MOL0     C32885   9.348  11.011   4.635 -0.5243  0.2250  0.1885
  985MOL0     C32886   9.212  10.996   4.625  0.1362  0.3517  0.7642
  985MOL0     O32887   8.998  11.270   4.588  0.8561 -0.7651 -1.1038
  985MOL0     C32888   8.717  11.056   4.539  0.4293 -0.3141 -0.6050
  985MOL0     C32889   8.577  11.044   4.565 -0.0794 -0.4237 -0.7157
  985MOL0     N32890   8.356  10.934   5.321  0.1643  0.2112  0.3861
  985MOL0     N32891   8.328  10.820   5.373 -0.2513 -0.0655 -0.3546
  985MOL0     C32892   7.356  10.389   5.417  0.0230  0.5496  0.3950
  985MOL0     C32893   7.241  10.430   5.359  0.5007  0.2648  0.3239
  985MOL0     C32894   6.834  10.516   5.204  0.3267 -0.7902  0.1052
  985MOL0     C32895   6.750  10.614   5.262  0.0301 -0.1556  1.0142
  985MOL0     C32896   6.619  10.643   5.211  0.1703 -0.6785 -0.2887
  985MOL0     C32897   6.573  10.569   5.100  0.1473 -0.0936  0.1183
  985MOL0     O32898   6.444  10.603   5.063  0.2246  0.2719  0.7771
  985MOL0     C32899   6.382  10.542   4.947 -1.0634  0.6857  0.0723
  985MOL0     C32900   6.230  10.544   4.954 -0.2750 -0.3548 -0.0488
  985MOL0     C32901   6.180  10.687   4.916  0.5373  0.2892 -0.7067
  985MOL0     C32902   6.030  10.696   4.926 -0.3246 -0.4369 -0.3697
  985MOL0     C32903   5.977  10.822   4.881  0.0886  0.3776  0.5792
  985MOL0     C32904   5.927  10.922   4.827 -0.0609  0.2181  0.1032
  985MOL0     C32905   6.660  10.480   5.037  0.4762  0.2095  0.2936
  985MOL0     C32906   6.792  10.457   5.085 -0.2306  0.2695  0.5088
  985MOL0     C32907   6.884  10.371   5.000 -0.0719 -0.7167  0.1204
  985MOL0     H32908   7.089  10.129   5.311 -0.7320 -0.2627  0.7772
  985MOL0     H32909   7.312  10.054   5.420  1.7437  0.6712 -0.5984
  985MOL0     H32910   7.574  10.055   5.365 -0.8553  0.3817 -1.0866
  985MOL0     H32911   7.609  10.221   5.317  3.0288  0.2018 -0.2914
  985MOL0     H32912   7.815  10.095   5.411  0.6593 -0.0543  0.5801
  985MOL0     H32913   7.711  10.088   5.562 -0.6038 -0.0749 -0.2769
  985MOL0     H32914   7.729  10.346   5.582 -0.6520  0.9654 -1.8827
  985MOL0     H32915   7.810  10.346   5.424  0.5743 -0.4068 -0.5343
  985MOL0     H32916   7.913  10.258   5.695  1.1103  1.0981  0.5803
  985MOL0     H32917   7.999  10.213   5.545  0.7592  0.0948  0.5462
  985MOL0     H32918   7.914  10.502   5.609  1.3996  0.7924 -0.6527
  985MOL0     H32919   8.057  10.429   5.673 -0.8691 -1.7946  1.4099
  985MOL0     H32920   8.167  10.401   5.472  0.3649  2.0316  2.3925
  985MOL0     H32921   8.013  10.410   5.380 -0.4534  0.7899 -0.8774
  985MOL0     H32922   8.128  10.646   5.546 -2.3239  1.8796  1.2192
  985MOL0     H32923   7.990  10.653   5.440  0.3172  1.6575  2.6878
  985MOL0     H32924   8.269  10.583   5.333  2.6220  4.4523  1.1521
  985MOL0     H32925   8.115  10.605   5.243 -0.9469  0.8790  0.7058
  985MOL0     H32926   8.089  10.857   5.155 -1.0171  2.3158  2.3253
  985MOL0     H32927   8.177  11.108   5.126 -0.9035 -2.4586 -0.1052
  985MOL0     H32928   8.348  11.138   5.124 -2.1190  2.8226  1.6750
  985MOL0     H32929   8.346  10.909   4.979  2.3340  2.2684 -0.5117
  985MOL0     H32930   8.175  10.950   4.970 -0.0033  0.8860  0.6185
  985MOL0     H32931   8.414  11.139   4.901  1.4643 -3.1466 -0.9194
  985MOL0     H32932   8.236  11.179   4.868 -0.9521 -2.2648 -0.1121
  985MOL0     H32933   8.212  11.028   4.704 -0.8217  0.7751  2.8400
  985MOL0     H32934   8.370  10.954   4.733 -1.7090 -0.8727 -3.3838
  985MOL0     H32935   8.550  11.315   4.759 -1.2231 -0.9358  0.3398
  985MOL0     H32936   8.789  11.343   4.724 -1.4261  1.2130 -0.4579
  985MOL0     H32937   9.163  11.196   4.355 -1.9744 -2.1174  0.1012
  985MOL0     H32938   9.416  11.228   4.386 -1.6516  1.5503 -1.6577
  985MOL0     H32939   9.652  10.991   4.700  0.3503 -1.6050  0.1415
  985MOL0     H32940   9.603  10.896   4.555 -0.4286 -0.2770  1.1540
  985MOL0     H32941   9.769  11.023   4.423 -1.6247 -1.6158 -0.2317
  985MOL0     H32942   9.849  11.073   4.577  0.9903  0.4385  0.3651
  985MOL0     H32943   9.808  10.817   4.627  1.3534 -0.5571  0.5343
  985MOL0     H32944   9.792  10.804   4.454 -2.5233  2.4516 -0.0020
  985MOL0     H32945  10.051  10.919   4.566 -0.7778  1.8090  0.2224
  985MOL0     H32946  10.000  10.870   4.401  1.3880 -1.6657  0.7605
  985MOL0     H32947  10.055  10.646   4.437  0.5028 -1.4501  1.1272
  985MOL0     H32948   9.975  10.660   4.600  0.0977 -0.0254 -0.8133
  985MOL0     H32949  10.191  10.745   4.694 -2.0025  1.2400 -0.9587
  985MOL0     H32950  10.210  10.589   4.613 -3.4839 -1.4013 -0.3491
  985MOL0     H32951  10.283  10.852   4.498  2.8082  0.7599 -1.4783
  985MOL0     H32952  10.308  10.695   4.400 -0.6865 -0.9015  0.3925
  985MOL0     H32953  10.449  10.629   4.604 -0.3327  0.2159  1.0774
  985MOL0     H32954  10.523  10.732   4.491 -0.0373 -1.2568 -0.5733
  985MOL0     H32955   9.405  10.958   4.710  0.1796  1.4972  0.5900
  985MOL0     H32956   9.168  10.937   4.704 -2.8709 -1.1922 -1.8237
  985MOL0     H32957   8.757  10.982   4.471 -1.0985 -0.0968 -1.8027
  985MOL0     H32958   8.517  10.971   4.512 -1.4054  1.4780 -1.9788
  985MOL0     H32959   7.426  10.468   5.443 -0.1799  0.9693 -0.2924
  985MOL0     H32960   7.229  10.532   5.325 -0.9744  0.3369  0.9821
  985MOL0     H32961   6.783  10.673   5.347 -0.4947 -2.6497  3.0773
  985MOL0     H32962   6.561  10.720   5.261  1.8897  1.0524 -0.8404
  985MOL0     H32963   6.424  10.444   4.923  2.7990  2.1795 -0.0303
  985MOL0     H32964   6.415  10.606   4.865 -0.0326 -0.1018 -0.1454
  985MOL0     H32965   6.198  10.501   5.050 -0.3135 -0.9026 -0.3000
  985MOL0     H32966   6.197  10.474   4.877  0.3242 -0.7555  0.0519
  985MOL0     H32967   6.207  10.704   4.811 -0.7556  1.1581 -0.9231
  985MOL0     H32968   6.233  10.755   4.984  1.8931 -0.1623 -1.2661
  985MOL0     H32969   5.987  10.617   4.863 -1.6349 -1.2094  1.4337
  985MOL0     H32970   5.990  10.669   5.024 -2.1752 -0.1449 -1.0231
  985MOL0     H32971   5.872  11.001   4.779  1.0888  1.5431  0.8954
  985MOL0     H32972   6.631  10.432   4.944 -2.4365  4.3190 -1.2265
  985MOL0     H32973   6.916  10.285   5.058 -0.1633  0.0750  1.3830
  985MOL0     H32974   6.829  10.347   4.908 -0.3764  2.4357 -0.6593
  985MOL0     H32975   6.972  10.427   4.968 -1.8147  4.3201  2.8669
  986MOL0     O32976  10.772   2.858   5.970  0.4303 -0.1044 -0.0962
  986MOL0     C32977  10.814   2.743   5.984 -0.0674  0.1208 -0.6493
  986MOL0     O32978  10.919   2.699   6.056  0.7071 -0.3558  0.3306
  986MOL0     C32979  11.017   2.790   6.110 -0.3693 -0.3537  1.0990
  986MOL0     C32980  11.121   2.724   6.182 -0.2581  0.0404  0.5638
  986MOL0     C32981  11.235   2.801   6.237  0.3700  0.2158 -0.1139
  986MOL0     C32982  11.235   2.943   6.231 -0.8851 -0.5506 -0.0106
  986MOL0     O32983  11.329   3.024   6.296 -0.4552  0.3935 -0.1676
  986MOL0     C32984  11.467   2.992   6.261  0.2626 -1.3114 -0.7326
  986MOL0     C32985  11.552   3.122   6.263 -0.3989  0.0988  0.2005
  986MOL0     C32986  11.694   3.078   6.213 -0.8534  0.4633  0.0006
  986MOL0     C32987  11.806   3.177   6.260  0.6872 -0.1231 -0.8224
  986MOL0     C32988  11.947   3.117   6.248  0.1118  0.0692  0.4216
  986MOL0     C32989  12.043   3.215   6.296 -0.3441 -0.4086 -1.1294
  986MOL0     C32990  12.196   3.176   6.282  0.4937  0.1005  0.2533
  986MOL0     C32991  12.301   3.253   6.368  0.8244 -0.4723 -0.3230
  986MOL0     N32992  12.436   3.219   6.308  0.2042  0.0704  0.2643
  986MOL0     C32993  12.477   3.246   6.174  0.1388  0.1322 -0.4532
  986MOL0     C32994  12.590   3.173   6.159 -0.3990  0.7335  0.2881
  986MOL0     C32995  12.681   3.167   6.039  0.7354  0.1972 -0.0448
  986MOL0     C32996  12.606   3.084   5.936  0.0573  0.8244  0.0367
  986MOL0     C32997  12.700   3.047   5.821  0.7397  0.5114  0.6225
  986MOL0     C32998  12.751   2.906   5.819 -0.0514 -0.0590  0.0159
  986MOL0     O32999  12.838   2.896   5.929 -0.0488  0.0029 -0.9047
  986MOL0     C33000  12.970   2.879   5.901  0.6527 -0.7082 -0.0774
  986MOL0     C33001  13.029   2.830   5.789 -0.7671  0.9628 -0.2082
  986MOL0     C33002  13.165   2.821   5.764 -0.8422  0.2131  0.2932
  986MOL0     C33003  13.253   2.878   5.864  1.0898 -0.2983  1.1737
  986MOL0     C33004  13.404   2.867   5.844 -0.6688 -0.3834 -0.7106
  986MOL0     O33005  13.486   2.844   5.955 -0.3309 -0.0067 -0.1038
  986MOL0     C33006  13.617   2.852   5.928 -0.7586 -0.0587  0.8422
  986MOL0     C33007  13.694   2.952   5.984  0.2613 -0.0392 -0.2118
  986MOL0     C33008  13.825   2.968   5.946  1.0269 -0.5056  0.5490
  986MOL0     C33009  13.885   2.878   5.856  0.5212 -0.4970 -0.6063
  986MOL0     O33010  14.013   2.893   5.808  0.0119 -0.4794 -0.1012
  986MOL0     C33011  14.069   2.780   5.750 -0.1466 -0.2533 -0.6475
  986MOL0     C33012  14.225   2.786   5.741 -0.1275 -0.2321  0.0469
  986MOL0     C33013  14.254   2.895   5.634 -0.4083 -0.3058  0.9608
  986MOL0     C33014  14.399   2.910   5.580  1.1200 -0.1779 -0.3400
  986MOL0     C33015  14.503   2.938   5.685  1.3284 -0.5345 -0.1992
  986MOL0     C33016  14.643   2.884   5.662  0.3670  0.4575  0.2287
  986MOL0     C33017  14.694   2.937   5.521 -0.7191  0.1107  0.5112
  986MOL0     C33018  14.845   2.907   5.506 -0.3070  1.0560  0.1566
  986MOL0    Cl33019  14.920   2.898   5.339  0.3225  0.2697 -0.1295
  986MOL0     C33020  13.801   2.780   5.803  0.0607 -0.4139  0.1967
  986MOL0     C33021  13.669   2.760   5.846  0.1447 -0.4301  0.3221
  986MOL0     O33022  13.441   2.873   5.729 -0.9743 -0.0269  0.5077
  986MOL0     C33023  13.200   2.927   5.982  0.0575  0.2141 -1.4072
  986MOL0     C33024  13.055   2.920   6.000 -0.0813 -0.2806  0.4371
  986MOL0     N33025  12.611   3.110   6.287  0.4195 -0.2566  0.2115
  986MOL0     N33026  12.517   3.134   6.370  0.1309  0.1152 -0.0669
  986MOL0     C33027  11.135   3.000   6.163  0.1381 -0.0643 -0.6072
  986MOL0     C33028  11.026   2.932   6.105 -0.2956  0.1596  0.6174
  986MOL0     C33029  10.722   2.630   5.946  0.3817  0.8175  0.6271
  986MOL0     C33030  10.715   2.514   6.028  0.7303  0.2265  0.5374
  986MOL0     C33031  10.622   2.419   6.001  0.3412  1.0064 -0.6615
  986MOL0     C33032  10.522   2.446   5.902 -0.1631 -0.1347 -0.2218
  986MOL0     O33033  10.437   2.342   5.877 -0.3093 -0.2893  0.8363
  986MOL0     C33034  10.324   2.346   5.793 -0.2654 -0.2670  0.2859
  986MOL0     C33035  10.217   2.251   5.845  0.0132 -0.0364 -0.1964
  986MOL0     C33036  10.189   2.285   5.992  0.3177 -0.3047 -0.3016
  986MOL0     C33037  10.143   2.421   6.025 -0.9997  0.2495  0.1176
  986MOL0     C33038  10.018   2.460   5.959  0.6458  0.4974 -0.3474
  986MOL0     C33039   9.902   2.479   5.920 -0.7448  1.0148  0.5124
  986MOL0     C33040  10.531   2.559   5.819 -0.3133  0.5381 -0.5330
  986MOL0     C33041  10.634   2.648   5.839 -0.9919 -0.5030 -0.4298
  986MOL0     C33042  10.653   2.758   5.732 -0.8457  1.5243 -0.4332
  986MOL0     H33043  11.104   2.617   6.183  0.2451 -0.1893 -3.0583
  986MOL0     H33044  11.308   2.745   6.293 -0.1533  0.5934  0.9890
  986MOL0     H33045  11.493   2.926   6.344 -3.2107  1.1859  2.7121
  986MOL0     H33046  11.469   2.933   6.169 -1.8672  0.6394 -2.1428
  986MOL0     H33047  11.558   3.168   6.363  2.3600 -1.6165  0.9535
  986MOL0     H33048  11.510   3.188   6.187 -0.1003  2.2083  1.7508
  986MOL0     H33049  11.702   3.076   6.104 -2.3895  2.4486 -0.2123
  986MOL0     H33050  11.717   2.981   6.259  0.1149  0.1392 -1.0920
  986MOL0     H33051  11.813   3.261   6.191  1.9402  0.0616 -0.4832
  986MOL0     H33052  11.785   3.208   6.363 -0.0260 -1.6867 -0.4691
  986MOL0     H33053  11.945   3.032   6.317 -3.6653  0.2856  0.7809
  986MOL0     H33054  11.973   3.077   6.150  1.3406  0.0129  0.7502
  986MOL0     H33055  12.032   3.310   6.242  1.8833  1.0550  0.7663
  986MOL0     H33056  12.020   3.229   6.402  3.2314 -0.5666 -0.1795
  986MOL0     H33057  12.230   3.179   6.178  0.7806 -2.2712  0.2280
  986MOL0     H33058  12.214   3.074   6.316  1.3426 -0.5459 -1.9640
  986MOL0     H33059  12.284   3.360   6.381 -0.3814 -0.9032  2.2357
  986MOL0     H33060  12.288   3.222   6.472 -3.4697 -1.5198 -0.9595
  986MOL0     H33061  12.416   3.302   6.103 -0.9057 -0.0573  0.2733
  986MOL0     H33062  12.699   3.265   5.994 -0.9791 -0.0164 -1.3264
  986MOL0     H33063  12.778   3.129   6.072 -0.8165 -2.0710  2.2197
  986MOL0     H33064  12.556   2.999   5.984  0.3737  0.1770 -0.7727
  986MOL0     H33065  12.532   3.144   5.882 -1.6275 -3.6168 -3.1911
  986MOL0     H33066  12.777   3.124   5.817  2.0112 -0.6858  1.4802
  986MOL0     H33067  12.642   3.061   5.729 -0.6086  4.3920  1.8270
  986MOL0     H33068  12.800   2.894   5.722  0.8380  0.7706  0.3366
  986MOL0     H33069  12.683   2.825   5.844 -0.5854  0.5061  0.4363
  986MOL0     H33070  12.970   2.782   5.711 -0.4669  2.3152 -1.3306
  986MOL0     H33071  13.214   2.792   5.672 -0.0938  3.1903 -0.3408
  986MOL0     H33072  13.648   3.026   6.049  0.8102 -0.5429  0.7695
  986MOL0     H33073  13.887   3.053   5.974 -2.5862  2.3358  0.7290
  986MOL0     H33074  14.026   2.695   5.803  0.6276  0.9821  2.1320
  986MOL0     H33075  14.034   2.770   5.647  0.3017 -0.5738 -0.7732
  986MOL0     H33076  14.278   2.809   5.834  2.3534  1.4497 -1.6535
  986MOL0     H33077  14.273   2.697   5.700  0.2226 -0.0916  0.1453
  986MOL0     H33078  14.204   2.854   5.546 -3.4600  2.3908  1.2614
  986MOL0     H33079  14.214   2.992   5.664  1.6395  1.4821 -1.6066
  986MOL0     H33080  14.403   2.987   5.502 -2.3934  2.0397  1.3800
  986MOL0     H33081  14.427   2.812   5.542  0.0461  0.7389 -3.7936
  986MOL0     H33082  14.471   2.901   5.782 -1.7195 -0.5214 -1.1037
  986MOL0     H33083  14.520   3.046   5.678  0.8812 -0.5451 -2.1224
  986MOL0     H33084  14.714   2.917   5.738  0.1892  1.4656 -0.0352
  986MOL0     H33085  14.634   2.775   5.656  0.1981  0.4677  0.2861
  986MOL0     H33086  14.679   3.045   5.518 -1.2438  0.0908 -3.7551
  986MOL0     H33087  14.635   2.894   5.439  0.0344  0.7551 -0.3858
  986MOL0     H33088  14.897   2.983   5.565  2.1839  2.0927 -3.0791
  986MOL0     H33089  14.858   2.808   5.550 -0.8153  2.2441  3.2926
  986MOL0     H33090  13.840   2.709   5.731  1.3907  1.2849 -0.8513
  986MOL0     H33091  13.604   2.680   5.813  1.4838 -1.7179  0.7018
  986MOL0     H33092  13.269   2.967   6.055 -1.8829  1.9206 -0.4184
  986MOL0     H33093  13.027   2.948   6.101  0.5397  0.7585  0.3403
  986MOL0     H33094  11.125   3.108   6.162 -0.0312 -0.0564  0.4466
  986MOL0     H33095  10.945   2.991   6.063 -3.1689 -3.0436  1.2502
  986MOL0     H33096  10.783   2.492   6.110  0.9786  1.6209  0.7463
  986MOL0     H33097  10.607   2.322   6.048 -0.7045 -0.2548 -3.3218
  986MOL0     H33098  10.360   2.313   5.695  0.9434  0.9994  0.2772
  986MOL0     H33099  10.281   2.447   5.792 -3.8804 -1.6558  0.6821
  986MOL0     H33100  10.258   2.150   5.848 -0.3772 -0.1784  0.7250
  986MOL0     H33101  10.120   2.254   5.793  1.3702 -0.7351 -2.9519
  986MOL0     H33102  10.284   2.272   6.046  0.6094  1.3015 -0.3696
  986MOL0     H33103  10.128   2.211   6.044 -0.1049 -0.4476 -0.9918
  986MOL0     H33104  10.129   2.418   6.133 -4.1652 -0.7602 -0.2300
  986MOL0     H33105  10.224   2.493   6.011  1.5034 -2.0678  1.4370
  986MOL0     H33106   9.805   2.484   5.875 -0.5722  1.7521  0.2173
  986MOL0     H33107  10.458   2.548   5.740 -0.4897  0.5755 -0.3778
  986MOL0     H33108  10.758   2.789   5.726 -0.4607 -0.0020 -2.4557
  986MOL0     H33109  10.624   2.717   5.635  1.0411 -2.2037  0.3891
  986MOL0     H33110  10.583   2.840   5.752 -1.5330  0.7203  0.5498
  987MOL0     O33111   0.875  10.013   0.046 -0.0069 -0.1645 -0.4439
  987MOL0     C33112   0.805  10.044   0.141  0.2603  0.1887 -0.5302
  987MOL0     O33113   0.853  10.087   0.261  0.4182  0.3963 -0.5410
  987MOL0     C33114   0.984  10.079   0.292  0.6513  0.9668  0.4570
  987MOL0     C33115   1.049   9.958   0.311  0.5654 -0.3238 -0.1050
  987MOL0     C33116   1.185   9.959   0.341 -0.1081 -0.0488 -0.7266
  987MOL0     C33117   1.263  10.076   0.348  0.1631  0.5069 -0.9126
  987MOL0     O33118   1.395  10.090   0.382 -0.0323 -0.4083  0.0485
  987MOL0     C33119   1.463  10.214   0.427  0.6383  0.3689  0.0180
  987MOL0     C33120   1.477  10.192   0.576  0.3499 -0.1552  0.5019
  987MOL0     C33121   1.625  10.197   0.622  0.0172  0.8420 -0.5726
  987MOL0     C33122   1.678  10.340   0.650  0.1147 -0.6789 -0.3955
  987MOL0     C33123   1.827  10.358   0.628  0.4299 -0.4683 -0.3338
  987MOL0     C33124   1.894  10.252   0.716 -0.8726 -0.6073  0.4486
  987MOL0     C33125   2.049  10.255   0.687  0.8566 -0.4370 -0.3925
  987MOL0     C33126   2.123  10.158   0.782 -0.5438  0.7114 -0.0598
  987MOL0     N33127   2.265  10.159   0.737  0.4202  0.4603  0.0683
  987MOL0     C33128   2.369  10.196   0.818 -0.4156 -0.7738  0.2267
  987MOL0     C33129   2.473  10.224   0.738  0.4291  0.1068  0.6508
  987MOL0     C33130   2.610  10.270   0.784 -0.9765  0.1317 -0.2883
  987MOL0     C33131   2.683  10.136   0.808 -0.1814  0.0464  0.1521
  987MOL0     C33132   2.719  10.056   0.682 -0.0388 -0.2524  0.1670
  987MOL0     C33133   2.818   9.943   0.694  0.2914 -0.1915  0.4602
  987MOL0     O33134   2.952   9.990   0.711  0.0644 -0.5922 -0.2164
  987MOL0     C33135   3.048   9.903   0.720  0.2333  0.1780  0.3098
  987MOL0     C33136   3.020   9.761   0.735 -0.1246 -0.3612 -0.0695
  987MOL0     C33137   3.125   9.673   0.761  0.0785 -0.0658  0.0024
  987MOL0     C33138   3.258   9.718   0.789  1.0232  0.6925  0.7755
  987MOL0     C33139   3.361   9.630   0.832 -0.1806  0.4642  0.2139
  987MOL0     O33140   3.476   9.687   0.877 -0.4532  0.5224 -0.3780
  987MOL0     C33141   3.602   9.634   0.878  0.4226  1.4385 -0.0548
  987MOL0     C33142   3.647   9.519   0.811  0.0865  0.5424 -0.0874
  987MOL0     C33143   3.783   9.477   0.819  0.7668 -0.1063  0.0176
  987MOL0     C33144   3.873   9.535   0.899  0.4172 -0.6007  0.7904
  987MOL0     O33145   4.001   9.492   0.893 -1.1216 -0.5093 -0.5224
  987MOL0     C33146   4.103   9.548   0.975 -1.0351 -0.0146  0.0774
  987MOL0     C33147   4.104   9.470   1.105 -0.2017 -0.5014  0.6689
  987MOL0     C33148   4.230   9.507   1.189  0.4936 -0.7859  0.3247
  987MOL0     C33149   4.224   9.637   1.270 -0.0586 -0.3409  0.2150
  987MOL0     C33150   4.109   9.667   1.360 -0.1734 -0.3460 -0.8931
  987MOL0     C33151   4.067   9.545   1.441 -0.7706 -0.3218  0.1167
  987MOL0     C33152   3.955   9.578   1.540  1.2889  0.7483  0.3560
  987MOL0     C33153   3.877   9.445   1.568  0.2007  0.2545  0.1979
  987MOL0    Cl33154   3.969   9.356   1.701  0.0798 -0.1895  0.1191
  987MOL0     C33155   3.821   9.648   0.972 -1.0860  0.4287  0.5003
  987MOL0     C33156   3.691   9.698   0.950  0.3406 -0.2700 -0.3525
  987MOL0     O33157   3.341   9.507   0.816 -0.5198  0.1284  0.8910
  987MOL0     C33158   3.281   9.860   0.778  0.0739  0.5242 -0.2116
  987MOL0     C33159   3.180   9.951   0.736 -0.7149  0.2863 -1.2532
  987MOL0     N33160   2.438  10.196   0.609  0.7328 -0.8400 -0.1778
  987MOL0     N33161   2.317  10.149   0.616 -0.2313 -0.3052  0.9636
  987MOL0     C33162   1.189  10.194   0.336 -0.0344  0.1511  0.3618
  987MOL0     C33163   1.057  10.198   0.307  0.3405  0.8140  0.0775
  987MOL0     C33164   0.652  10.040   0.117 -0.0275  0.8282 -0.0304
  987MOL0     C33165   0.582  10.097   0.223  0.4493 -0.1517  0.9227
  987MOL0     C33166   0.441  10.114   0.225 -0.5204  0.0794 -0.6827
  987MOL0     C33167   0.363  10.077   0.118 -0.2590 -0.3160  0.2580
  987MOL0     O33168   0.227  10.106   0.110 -1.2260 -0.1139 -0.4587
  987MOL0     C33169   0.163  10.196   0.203  0.6514 -0.1623  0.1517
  987MOL0     C33170   0.118  10.125   0.334  0.5121  0.0938 -0.2927
  987MOL0     C33171  -0.033  10.096   0.346  0.3672  0.3832 -0.0943
  987MOL0     C33172  -0.057   9.988   0.447 -0.4813 -1.4141  0.8295
  987MOL0     C33173  -0.011  10.023   0.583 -0.7434  0.2192  0.5310
  987MOL0     C33174   0.038  10.044   0.692 -0.1185 -0.0288 -0.2201
  987MOL0     C33175   0.428  10.021   0.004  0.3355  0.1785 -0.1768
  987MOL0     C33176   0.574  10.004   0.006  0.1919  0.2057  0.5060
  987MOL0     C33177   0.630   9.947  -0.121  0.0289  0.0811 -1.1603
  987MOL0     H33178   0.980   9.874   0.311 -2.1913  1.8093 -0.2382
  987MOL0     H33179   1.234   9.862   0.348 -1.4056 -0.7245 -0.7936
  987MOL0     H33180   1.558  10.224   0.375  1.4263 -1.1231  1.0864
  987MOL0     H33181   1.404  10.306   0.425  1.6506  1.2310  3.4410
  987MOL0     H33182   1.436  10.097   0.612  0.2599  0.3401  1.7274
  987MOL0     H33183   1.414  10.268   0.622 -0.4464  2.2357 -4.0132
  987MOL0     H33184   1.684  10.144   0.546 -0.5368  1.4115 -1.4248
  987MOL0     H33185   1.640  10.133   0.709 -0.0130  2.1333  0.4171
  987MOL0     H33186   1.623  10.406   0.582 -2.1001 -0.1137  1.8053
  987MOL0     H33187   1.663  10.369   0.754  1.1206 -2.7165  0.3654
  987MOL0     H33188   1.847  10.340   0.522  3.3528  1.0085 -0.1296
  987MOL0     H33189   1.860  10.460   0.648  0.6302 -0.6504  0.2840
  987MOL0     H33190   1.874  10.264   0.823 -0.6019  1.3266  0.3220
  987MOL0     H33191   1.866  10.150   0.687 -1.8042 -0.6805  1.5432
  987MOL0     H33192   2.081  10.358   0.705  1.7602 -0.6351 -0.8179
  987MOL0     H33193   2.065  10.232   0.581 -0.4319 -2.1686 -0.2626
  987MOL0     H33194   2.113  10.196   0.884 -1.7368  0.9109 -0.2296
  987MOL0     H33195   2.092  10.053   0.777  2.6993 -0.3674  0.2556
  987MOL0     H33196   2.374  10.229   0.922  0.5217  2.2731 -0.6869
  987MOL0     H33197   2.662  10.324   0.705  1.2405 -0.4634  0.6777
  987MOL0     H33198   2.602  10.331   0.874  2.1519 -0.0241  0.1933
  987MOL0     H33199   2.781  10.163   0.846 -0.1965 -1.8910  1.7323
  987MOL0     H33200   2.632  10.071   0.880 -3.8257  2.0556 -0.3789
  987MOL0     H33201   2.749  10.118   0.597  2.2054 -2.9658 -1.1951
  987MOL0     H33202   2.626  10.010   0.648 -0.0051 -0.2431  0.0602
  987MOL0     H33203   2.820   9.892   0.597  2.7044  2.1996 -0.8912
  987MOL0     H33204   2.782   9.877   0.773  0.3539 -1.3088 -0.4212
  987MOL0     H33205   2.921   9.717   0.727 -0.4850  0.5360 -0.6450
  987MOL0     H33206   3.092   9.569   0.767  0.5538 -0.1709  1.2911
  987MOL0     H33207   3.584   9.450   0.755 -0.1554 -0.1584  1.0165
  987MOL0     H33208   3.814   9.390   0.762 -0.7826 -1.5721  1.3201
  987MOL0     H33209   4.192   9.528   0.915 -1.4708  1.2891 -1.0627
  987MOL0     H33210   4.094   9.657   0.987 -0.5695  0.0842 -0.4650
  987MOL0     H33211   4.012   9.490   1.160  1.7137  3.9986  2.6790
  987MOL0     H33212   4.110   9.364   1.078  2.0433 -0.6708  1.6435
  987MOL0     H33213   4.236   9.424   1.259 -0.1790 -0.4380  0.8145
  987MOL0     H33214   4.319   9.514   1.126  1.7428 -0.6389  2.0325
  987MOL0     H33215   4.220   9.721   1.201 -0.5331 -1.1961 -0.8256
  987MOL0     H33216   4.315   9.639   1.331  0.9129 -1.2234 -1.1471
  987MOL0     H33217   4.026   9.712   1.303 -1.5206  1.5288  2.2853
  987MOL0     H33218   4.137   9.745   1.432 -0.3236  0.8143 -2.0363
  987MOL0     H33219   4.033   9.463   1.377  1.1170 -0.4298 -0.8353
  987MOL0     H33220   4.151   9.506   1.498  2.1048  2.5897 -1.7530
  987MOL0     H33221   3.877   9.642   1.497  1.8547  1.1155 -0.1411
  987MOL0     H33222   3.986   9.610   1.639 -3.2922  1.4331  1.7834
  987MOL0     H33223   3.772   9.463   1.595  0.4493  0.5588  1.0063
  987MOL0     H33224   3.878   9.384   1.478  1.9544  1.6076 -0.7636
  987MOL0     H33225   3.875   9.703   1.049  0.1051  0.1171 -0.0912
  987MOL0     H33226   3.653   9.788   0.998  1.3218  0.0815 -0.2125
  987MOL0     H33227   3.380   9.900   0.794  0.5549 -0.6363 -0.1835
  987MOL0     H33228   3.190  10.059   0.735  0.1696  0.2937  1.3590
  987MOL0     H33229   1.244  10.287   0.334 -0.8929  0.6701 -1.4296
  987MOL0     H33230   1.007  10.290   0.280 -0.7372  0.3900  0.5800
  987MOL0     H33231   0.627  10.128   0.317  0.9472  2.3808 -0.0594
  987MOL0     H33232   0.390  10.159   0.311 -0.5033  2.0896 -1.6539
  987MOL0     H33233   0.065  10.234   0.175 -0.4533 -1.6655  1.7393
  987MOL0     H33234   0.229  10.279   0.231 -0.2324  0.4394  0.4744
  987MOL0     H33235   0.140  10.194   0.416 -0.4860 -2.2197  2.0620
  987MOL0     H33236   0.186  10.046   0.369  2.3313  2.3486  1.5759
  987MOL0     H33237  -0.072  10.066   0.249  0.7680  0.4303 -0.2703
  987MOL0     H33238  -0.089  10.185   0.377  1.0182  0.8729 -0.2982
  987MOL0     H33239  -0.163   9.965   0.434 -0.7262  0.2613 -0.5838
  987MOL0     H33240  -0.004   9.898   0.416  0.4334 -0.6700  0.1438
  987MOL0     H33241   0.080  10.063   0.788 -0.8490 -0.0359  0.1127
  987MOL0     H33242   0.372  10.007  -0.089 -0.1992  0.5006  0.0895
  987MOL0     H33243   0.569   9.973  -0.207  0.3552  0.3149 -1.3213
  987MOL0     H33244   0.726   9.993  -0.149 -1.4125  2.2188 -2.9079
  987MOL0     H33245   0.635   9.838  -0.113 -0.9603  0.0032 -1.4998
  988MOL0     O33246   9.215   6.611   1.176 -0.6837 -0.2404 -0.3156
  988MOL0     C33247   9.180   6.497   1.160 -0.4267 -0.3501  0.2797
  988MOL0     O33248   9.270   6.391   1.185  0.7040 -0.4958  0.0712
  988MOL0     C33249   9.388   6.419   1.243 -0.2609  0.6652  0.6209
  988MOL0     C33250   9.400   6.468   1.368  0.1889  0.5333 -0.6952
  988MOL0     C33251   9.532   6.481   1.427 -0.3394 -0.6418 -0.5729
  988MOL0     C33252   9.646   6.461   1.348 -0.5585 -0.0103 -1.1823
  988MOL0     O33253   9.769   6.488   1.415 -0.4089 -0.2174  0.0005
  988MOL0     C33254   9.870   6.376   1.414 -0.9484  0.1248 -0.1180
  988MOL0     C33255  10.009   6.415   1.466  0.6305 -0.6662  0.1003
  988MOL0     C33256  10.054   6.542   1.406 -0.4747 -0.0372  0.5160
  988MOL0     C33257  10.201   6.570   1.434 -0.3605  0.1063  0.3937
  988MOL0     C33258  10.272   6.619   1.307  0.4818  0.2425 -0.0949
  988MOL0     C33259  10.414   6.649   1.328  0.4170  0.3385  0.6206
  988MOL0     C33260  10.496   6.533   1.384  0.9184 -0.7326 -0.5679
  988MOL0     C33261  10.552   6.584   1.511 -0.0962 -0.3994  0.0148
  988MOL0     N33262  10.644   6.498   1.589  0.2502 -1.0761  0.2190
  988MOL0     C33263  10.753   6.451   1.522  0.0904 -0.6708 -0.3713
  988MOL0     C33264  10.841   6.421   1.616 -0.4667 -0.5712  0.4406
  988MOL0     C33265  10.977   6.370   1.598 -0.5208  0.7455  0.6089
  988MOL0     C33266  11.016   6.335   1.454  0.1485 -0.0647  0.1204
  988MOL0     C33267  11.142   6.254   1.446  0.0448 -0.2245  0.1424
  988MOL0     C33268  11.133   6.172   1.314  0.3493  0.0947  0.5552
  988MOL0     O33269  11.250   6.097   1.314 -0.0554  0.5663 -0.1380
  988MOL0     C33270  11.373   6.136   1.253 -0.5378 -0.3186  0.1105
  988MOL0     C33271  11.395   6.232   1.151  0.0607 -0.4288  0.1010
  988MOL0     C33272  11.521   6.249   1.093  0.3308 -0.5365  0.1131
  988MOL0     C33273  11.634   6.175   1.141 -0.4511 -0.9633  0.3452
  988MOL0     C33274  11.768   6.202   1.066 -0.6497  1.0278  0.0779
  988MOL0     O33275  11.867   6.113   1.105 -0.3377 -0.8524  0.0544
  988MOL0     C33276  11.990   6.108   1.046  0.2264  0.0416  0.6206
  988MOL0     C33277  12.062   6.217   0.997 -0.1545 -0.5848 -0.8469
  988MOL0     C33278  12.187   6.202   0.931  1.1757  0.4454  0.5914
  988MOL0     C33279  12.237   6.078   0.911 -0.1031  0.9474 -0.7166
  988MOL0     O33280  12.370   6.076   0.871 -0.6183 -0.2114  0.2532
  988MOL0     C33281  12.404   5.980   0.774 -0.1644  0.4545 -0.6982
  988MOL0     C33282  12.507   6.042   0.673 -1.0875 -0.1189  0.0555
  988MOL0     C33283  12.630   6.071   0.746 -0.2171  0.4695  0.5779
  988MOL0     C33284  12.733   6.139   0.653  1.0783 -0.0453 -0.7389
  988MOL0     C33285  12.713   6.288   0.638 -0.3470 -1.5590  0.6896
  988MOL0     C33286  12.795   6.338   0.530  0.3860 -0.0230  0.0179
  988MOL0     C33287  12.944   6.339   0.561 -0.2789  0.1875  0.2751
  988MOL0     C33288  13.035   6.428   0.476  0.1672 -0.1295  0.3146
  988MOL0    Cl33289  13.012   6.592   0.522  0.0608 -0.6642 -0.5232
  988MOL0     C33290  12.171   5.968   0.964 -0.0797  0.5042  0.4193
  988MOL0     C33291  12.046   5.981   1.027  0.3190 -0.6094  0.4252
  988MOL0     O33292  11.771   6.281   0.974  0.3635 -0.1351 -0.4873
  988MOL0     C33293  11.618   6.082   1.245  0.1454 -0.5591  0.0431
  988MOL0     C33294  11.489   6.071   1.303  0.8376  0.6701 -0.4283
  988MOL0     N33295  10.786   6.444   1.741  0.6815  0.0017  0.5910
  988MOL0     N33296  10.667   6.497   1.728 -0.1065  0.3835  0.5633
  988MOL0     C33297   9.633   6.422   1.221 -0.3527  0.4915 -0.0642
  988MOL0     C33298   9.508   6.402   1.161  0.3285  0.0488 -0.4754
  988MOL0     C33299   9.044   6.478   1.124  0.2180 -0.4341 -0.2391
  988MOL0     C33300   8.962   6.420   1.222  0.0683 -1.1497  0.0047
  988MOL0     C33301   8.825   6.441   1.200 -0.0536  0.3294 -0.0990
  988MOL0     C33302   8.772   6.498   1.087  0.7709  0.6333 -0.6987
  988MOL0     O33303   8.635   6.522   1.069 -0.0144 -0.2798 -1.2901
  988MOL0     C33304   8.541   6.443   1.143  0.2174  0.1102 -0.1472
  988MOL0     C33305   8.396   6.472   1.104 -0.9943  0.3843 -0.2077
  988MOL0     C33306   8.350   6.437   0.959  0.3051  0.5897 -0.7664
  988MOL0     C33307   8.306   6.287   0.955  0.3204 -0.0143  0.6379
  988MOL0     C33308   8.167   6.287   1.002 -0.1740 -0.4910  0.3970
  988MOL0     C33309   8.048   6.291   1.025  0.0710  0.2883 -0.0404
  988MOL0     C33310   8.854   6.543   0.987 -1.1051  0.8691  0.3622
  988MOL0     C33311   8.992   6.548   1.008  0.5246  0.2922 -0.4006
  988MOL0     C33312   9.082   6.595   0.898 -0.0195 -0.1523  1.6547
  988MOL0     H33313   9.309   6.498   1.418 -0.0806 -1.5300  0.1492
  988MOL0     H33314   9.545   6.513   1.530 -0.5858 -1.3299 -0.3158
  988MOL0     H33315   9.828   6.290   1.465 -1.1841  0.0913 -0.3648
  988MOL0     H33316   9.884   6.346   1.309  0.7144 -0.6891  0.2994
  988MOL0     H33317  10.068   6.329   1.432 -0.3243 -0.5221 -2.0691
  988MOL0     H33318  10.015   6.438   1.573 -2.5485  2.7011 -0.2500
  988MOL0     H33319   9.996   6.627   1.443  1.5227  2.6159 -2.0053
  988MOL0     H33320  10.045   6.525   1.298  0.1436 -2.8078  0.8179
  988MOL0     H33321  10.213   6.652   1.506 -1.0458 -0.0634  0.7152
  988MOL0     H33322  10.245   6.481   1.480 -1.6276 -2.3109 -2.6504
  988MOL0     H33323  10.259   6.547   1.226 -1.5842  0.5826 -0.1371
  988MOL0     H33324  10.208   6.700   1.273 -3.2843 -2.4448 -0.0433
  988MOL0     H33325  10.457   6.683   1.234  0.2687 -0.5501  0.2189
  988MOL0     H33326  10.424   6.742   1.384 -2.1281  1.2967 -0.3534
  988MOL0     H33327  10.584   6.508   1.323  0.6964 -2.1828 -0.3382
  988MOL0     H33328  10.446   6.443   1.419  1.1497  0.1045  2.0930
  988MOL0     H33329  10.610   6.675   1.495  2.5042 -2.0810 -0.9842
  988MOL0     H33330  10.471   6.604   1.581  0.2103  1.8959 -0.2190
  988MOL0     H33331  10.768   6.452   1.415  0.4694  1.5698 -0.3481
  988MOL0     H33332  11.052   6.445   1.624 -1.2622  1.5509  0.4635
  988MOL0     H33333  10.988   6.290   1.672 -1.7407  1.2753  1.3839
  988MOL0     H33334  10.941   6.269   1.410  2.1571 -0.5717 -2.7595
  988MOL0     H33335  11.023   6.422   1.388 -1.2320 -1.0812 -1.4219
  988MOL0     H33336  11.149   6.189   1.533  2.4178  0.3884  0.5027
  988MOL0     H33337  11.232   6.318   1.451  0.3827 -0.4100 -2.1824
  988MOL0     H33338  11.130   6.234   1.224  3.7507 -1.2880 -0.6881
  988MOL0     H33339  11.045   6.109   1.306  0.3344  0.2893 -0.9676
  988MOL0     H33340  11.308   6.284   1.112  0.8185  0.3721 -0.5804
  988MOL0     H33341  11.535   6.312   1.006  2.2842 -0.1598  0.6462
  988MOL0     H33342  12.029   6.319   1.015  0.1748 -0.4451 -1.0085
  988MOL0     H33343  12.251   6.284   0.899 -0.2400  0.8971 -1.2736
  988MOL0     H33344  12.452   5.899   0.829  0.3704  0.2364 -1.4719
  988MOL0     H33345  12.319   5.932   0.725  0.3784 -0.4245 -0.8025
  988MOL0     H33346  12.529   5.962   0.601  0.5694 -0.2571  0.6849
  988MOL0     H33347  12.462   6.128   0.624  2.2336  1.9300  0.3403
  988MOL0     H33348  12.614   6.125   0.840  1.0706  1.6853  0.1255
  988MOL0     H33349  12.661   5.968   0.763 -0.9262  0.0720 -0.3990
  988MOL0     H33350  12.744   6.091   0.555  1.0001  0.9512 -1.2482
  988MOL0     H33351  12.828   6.139   0.707  0.7373 -0.0468 -0.1409
  988MOL0     H33352  12.729   6.351   0.726 -1.4954  2.4846 -1.7272
  988MOL0     H33353  12.607   6.306   0.616  0.0002  0.2646  0.3386
  988MOL0     H33354  12.779   6.295   0.431  1.7499 -1.6733  0.4718
  988MOL0     H33355  12.770   6.442   0.510 -0.2224 -0.6184 -2.6453
  988MOL0     H33356  12.979   6.236   0.551  1.1581  0.7160 -0.4046
  988MOL0     H33357  12.961   6.376   0.662 -1.7082 -0.5031  0.7935
  988MOL0     H33358  13.141   6.404   0.492 -0.0061  0.6570  3.0850
  988MOL0     H33359  13.000   6.429   0.372 -2.7237  1.3702  1.2023
  988MOL0     H33360  12.231   5.878   0.954 -0.0262  0.4881  0.8931
  988MOL0     H33361  11.992   5.895   1.067 -0.7010 -0.8197 -1.3142
  988MOL0     H33362  11.699   6.021   1.285  0.4206 -2.2926 -2.8477
  988MOL0     H33363  11.467   5.994   1.377  1.2083  1.8869  1.0099
  988MOL0     H33364   9.723   6.406   1.164 -0.7699 -0.8490 -0.3695
  988MOL0     H33365   9.507   6.378   1.055 -0.1373 -3.2310  0.1697
  988MOL0     H33366   8.993   6.366   1.310 -0.0848  0.3933  1.0503
  988MOL0     H33367   8.760   6.410   1.281 -2.1513  1.3995 -1.2862
  988MOL0     H33368   8.557   6.460   1.250 -0.3382 -3.0249  0.5476
  988MOL0     H33369   8.562   6.337   1.122 -2.4343 -0.9726  1.9519
  988MOL0     H33370   8.387   6.580   1.117 -0.8600  0.3993 -0.2366
  988MOL0     H33371   8.334   6.425   1.181  1.1986 -2.5683 -0.0342
  988MOL0     H33372   8.433   6.449   0.889  1.9427 -2.0822  0.5868
  988MOL0     H33373   8.264   6.501   0.935 -0.7431  0.2373  1.6726
  988MOL0     H33374   8.301   6.249   0.852 -0.0938 -1.2992  1.1149
  988MOL0     H33375   8.363   6.218   1.018  0.8270 -0.0208  0.1879
  988MOL0     H33376   7.944   6.303   1.049  0.1434  0.3784  0.2308
  988MOL0     H33377   8.821   6.591   0.896  2.7104  0.9916 -1.1428
  988MOL0     H33378   9.057   6.541   0.806  3.4699 -1.8937  1.5524
  988MOL0     H33379   9.071   6.703   0.890  0.5817 -0.2129 -1.2564
  988MOL0     H33380   9.189   6.572   0.907 -0.1517 -1.6426 -0.0828
  989MOL0     O33381   1.902  11.092   2.588 -0.4720 -0.4185  0.4039
  989MOL0     C33382   1.912  11.093   2.466  0.8573 -0.3120  0.6594
  989MOL0     O33383   2.040  11.114   2.396 -0.1768 -0.1353  0.2719
  989MOL0     C33384   2.142  11.183   2.462  0.0472  0.1643 -0.3757
  989MOL0     C33385   2.276  11.127   2.453 -0.4501 -0.0501 -0.4786
  989MOL0     C33386   2.388  11.194   2.506  0.1024  1.1241  0.2475
  989MOL0     C33387   2.362  11.317   2.571  0.7787 -0.0001 -0.0952
  989MOL0     O33388   2.462  11.398   2.607 -0.1430 -0.0858 -0.6601
  989MOL0     C33389   2.446  11.528   2.542  0.2057 -0.7267  0.5041
  989MOL0     C33390   2.586  11.593   2.507  0.6316  0.1222  0.7219
  989MOL0     C33391   2.683  11.498   2.430 -0.2597  0.3240 -1.1134
  989MOL0     C33392   2.797  11.595   2.394 -0.1564 -0.1905 -0.0978
  989MOL0     C33393   2.903  11.523   2.298  0.5988  0.1092 -0.7081
  989MOL0     C33394   2.952  11.635   2.189 -0.4204  0.7810  0.0797
  989MOL0     C33395   3.068  11.582   2.102  0.8549 -0.3905  0.0292
  989MOL0     C33396   3.210  11.600   2.168  0.2220 -0.5121  0.4157
  989MOL0     N33397   3.315  11.550   2.075 -0.4820  0.8097  0.3763
  989MOL0     C33398   3.345  11.608   1.954 -0.2214  0.3422 -0.2930
  989MOL0     C33399   3.419  11.517   1.881 -0.0903 -1.3276 -0.7303
  989MOL0     C33400   3.486  11.546   1.749 -0.3367  0.6900 -0.1521
  989MOL0     C33401   3.639  11.547   1.760 -0.2396 -0.9795  0.4147
  989MOL0     C33402   3.681  11.666   1.848 -0.2795 -0.8970  0.3294
  989MOL0     C33403   3.824  11.675   1.888  0.5220  0.0726 -0.1618
  989MOL0     O33404   3.828  11.789   1.972  0.1573 -0.6244  0.0819
  989MOL0     C33405   3.950  11.809   2.039  0.0330  1.1701  0.4108
  989MOL0     C33406   3.944  11.874   2.159 -0.2032  0.2706  0.4553
  989MOL0     C33407   4.058  11.875   2.236 -1.0773 -1.1516 -0.6461
  989MOL0     C33408   4.181  11.838   2.185 -0.3168  0.9021  0.7454
  989MOL0     C33409   4.302  11.857   2.268 -0.4894 -0.3661  0.4518
  989MOL0     O33410   4.412  11.779   2.221  0.2822  0.2289  0.1699
  989MOL0     C33411   4.531  11.774   2.279 -0.5847 -0.2819 -0.4853
  989MOL0     C33412   4.594  11.649   2.281  0.0444  0.3314 -0.6026
  989MOL0     C33413   4.723  11.629   2.337 -0.9625 -1.2357 -0.4185
  989MOL0     C33414   4.798  11.745   2.380  0.2807 -0.2831  0.4467
  989MOL0     O33415   4.930  11.739   2.415 -0.5820 -0.1170  0.0115
  989MOL0     C33416   4.977  11.813   2.534  0.8436  0.6271  1.1671
  989MOL0     C33417   5.127  11.778   2.559  0.5860 -0.4437  0.3391
  989MOL0     C33418   5.223  11.830   2.454 -0.3376  0.1643 -0.0557
  989MOL0     C33419   5.366  11.781   2.489 -0.3841  0.0141 -0.0403
  989MOL0     C33420   5.462  11.820   2.381  0.4449  0.6224  0.1634
  989MOL0     C33421   5.606  11.789   2.410  0.4988 -0.0331  0.3222
  989MOL0     C33422   5.701  11.837   2.301  0.1636 -0.1753  0.7472
  989MOL0     C33423   5.842  11.762   2.321 -0.2807  0.5029 -0.1412
  989MOL0    Cl33424   5.965  11.835   2.223  0.1302 -0.2705  0.1496
  989MOL0     C33425   4.739  11.874   2.364 -0.3000  0.1610 -0.0254
  989MOL0     C33426   4.602  11.887   2.317  0.1538 -0.1947  0.2168
  989MOL0     O33427   4.301  11.929   2.369  0.2896 -0.1410  0.0652
  989MOL0     C33428   4.183  11.796   2.050 -0.4207  0.0431  0.0673
  989MOL0     C33429   4.068  11.780   1.981  0.7365  0.9022 -0.3559
  989MOL0     N33430   3.420  11.401   1.947  0.5026 -0.6856  0.0049
  989MOL0     N33431   3.375  11.421   2.068  0.5087 -1.1800  0.0224
  989MOL0     C33432   2.230  11.362   2.602  0.3677  0.3853 -0.6327
  989MOL0     C33433   2.119  11.303   2.539 -0.4382 -0.0385  0.9876
  989MOL0     C33434   1.784  11.076   2.389 -0.2891 -0.1239  1.0210
  989MOL0     C33435   1.680  10.994   2.433  0.4750 -0.0339 -0.5009
  989MOL0     C33436   1.563  10.977   2.357 -0.0626 -0.7278  0.8107
  989MOL0     C33437   1.538  11.048   2.237  0.6070  0.8568  0.3697
  989MOL0     O33438   1.412  11.037   2.190  0.3545  0.0095 -0.0770
  989MOL0     C33439   1.383  11.064   2.052  0.0047  0.2851 -0.1153
  989MOL0     C33440   1.242  11.112   2.043  0.5273  0.0789  0.4453
  989MOL0     C33441   1.191  11.240   2.123  0.1945 -0.3258 -0.3928
  989MOL0     C33442   1.211  11.221   2.279  0.1170 -0.4495 -0.4776
  989MOL0     C33443   1.129  11.327   2.347  0.6215  0.2369 -0.1863
  989MOL0     C33444   1.083  11.414   2.418 -0.4967  0.7014  0.3376
  989MOL0     C33445   1.645  11.123   2.188  0.6251 -0.8550  0.3523
  989MOL0     C33446   1.765  11.143   2.256  0.2270  0.0344 -1.0430
  989MOL0     C33447   1.869  11.232   2.188  0.3765 -0.3004 -1.0252
  989MOL0     H33448   2.293  11.029   2.410  2.0053  0.2085 -0.2451
  989MOL0     H33449   2.493  11.173   2.493  0.0686  1.8870 -1.4000
  989MOL0     H33450   2.391  11.518   2.448  3.8043 -0.3293 -1.8492
  989MOL0     H33451   2.394  11.602   2.602  2.1412  0.5121  0.7616
  989MOL0     H33452   2.631  11.619   2.603 -1.1719 -0.4004  1.7645
  989MOL0     H33453   2.564  11.682   2.448  0.2186 -0.1939  0.3861
  989MOL0     H33454   2.642  11.441   2.346  0.7310  0.2130 -1.5343
  989MOL0     H33455   2.727  11.432   2.505  0.7868  2.0124 -0.1712
  989MOL0     H33456   2.750  11.679   2.342 -2.9484 -2.3977 -1.4789
  989MOL0     H33457   2.840  11.639   2.484 -2.6544  4.0355 -0.6972
  989MOL0     H33458   2.989  11.489   2.357  1.6848 -1.1406 -2.8928
  989MOL0     H33459   2.857  11.436   2.251 -1.7315  1.1121 -0.4557
  989MOL0     H33460   2.868  11.664   2.125  0.3986  1.0969 -0.8819
  989MOL0     H33461   2.983  11.718   2.253  1.4622 -1.3065  2.0747
  989MOL0     H33462   3.074  11.642   2.011  0.0490  0.9839  0.8485
  989MOL0     H33463   3.047  11.479   2.070 -0.2920 -0.4842  1.0279
  989MOL0     H33464   3.235  11.704   2.193  2.5711 -1.1146  0.8420
  989MOL0     H33465   3.214  11.569   2.273  0.3063  5.3564  2.5141
  989MOL0     H33466   3.320  11.708   1.920 -0.0508  0.4822 -0.0161
  989MOL0     H33467   3.452  11.473   1.675  1.1423  1.3656 -1.5825
  989MOL0     H33468   3.456  11.638   1.698 -0.9295 -1.3851 -3.9844
  989MOL0     H33469   3.669  11.465   1.826 -0.3903 -0.1703  1.5204
  989MOL0     H33470   3.686  11.545   1.661 -0.7282 -2.5861  0.1865
  989MOL0     H33471   3.618  11.672   1.937 -1.5155  0.4136 -0.5815
  989MOL0     H33472   3.667  11.761   1.795  1.4170 -0.0398  1.3651
  989MOL0     H33473   3.894  11.687   1.804 -0.8726 -0.7026 -1.4845
  989MOL0     H33474   3.860  11.592   1.949 -0.1702  0.9474  1.5194
  989MOL0     H33475   3.855  11.918   2.202 -0.1989  2.2771 -1.4002
  989MOL0     H33476   4.053  11.918   2.336  1.9342 -1.9549 -0.0296
  989MOL0     H33477   4.536  11.562   2.252 -0.4883  1.1043 -1.8907
  989MOL0     H33478   4.774  11.534   2.343  2.4059  0.4453 -0.0984
  989MOL0     H33479   4.982  11.918   2.503 -1.6223  0.5672  0.3648
  989MOL0     H33480   4.903  11.809   2.614 -2.8544  2.0751 -1.8369
  989MOL0     H33481   5.144  11.815   2.661  0.8003  1.1579 -0.2508
  989MOL0     H33482   5.146  11.670   2.565 -0.5854 -0.7449 -0.7687
  989MOL0     H33483   5.192  11.792   2.356  0.3647  1.0907 -0.6509
  989MOL0     H33484   5.211  11.938   2.465 -3.9683 -0.0581 -0.7166
  989MOL0     H33485   5.355  11.672   2.501 -0.1340 -0.0520 -0.4036
  989MOL0     H33486   5.403  11.805   2.590 -1.1215 -0.2165  0.2911
  989MOL0     H33487   5.453  11.925   2.352  2.0899  0.3128 -1.6873
  989MOL0     H33488   5.436  11.759   2.294  2.8817  0.6006 -0.6104
  989MOL0     H33489   5.636  11.818   2.511 -0.6689  2.6754 -0.0117
  989MOL0     H33490   5.620  11.681   2.410 -0.1887 -0.1890 -2.1475
  989MOL0     H33491   5.699  11.944   2.282  0.4094 -0.2828  0.1075
  989MOL0     H33492   5.669  11.804   2.202  0.9192 -1.8644  1.0250
  989MOL0     H33493   5.874  11.771   2.425 -0.9013  4.3656 -0.1287
  989MOL0     H33494   5.832  11.655   2.305  2.1987  0.5381 -2.7476
  989MOL0     H33495   4.806  11.958   2.377  0.5367 -0.7554  2.2224
  989MOL0     H33496   4.563  11.987   2.301  2.4602  0.4450 -2.1002
  989MOL0     H33497   4.270  11.783   1.986  1.3704 -1.4971  2.6002
  989MOL0     H33498   4.074  11.753   1.876 -0.7390  0.0176 -0.2326
  989MOL0     H33499   2.212  11.452   2.661  0.5733 -0.0099  0.0427
  989MOL0     H33500   2.021  11.343   2.563  0.4788  1.6252  2.1667
  989MOL0     H33501   1.689  10.943   2.529  0.4270 -3.7306 -2.2746
  989MOL0     H33502   1.486  10.926   2.414 -0.6205 -1.5656 -0.6478
  989MOL0     H33503   1.385  10.967   2.001 -2.1247 -0.1369  0.4753
  989MOL0     H33504   1.447  11.132   1.997 -0.1691 -0.3711 -1.1489
  989MOL0     H33505   1.162  11.038   2.059  0.8826 -0.4412 -0.1105
  989MOL0     H33506   1.222  11.129   1.937 -0.1091 -2.1966  0.1402
  989MOL0     H33507   1.085  11.253   2.100 -0.2878  1.5688  2.3817
  989MOL0     H33508   1.253  11.324   2.092 -1.3765  1.4580  1.0021
  989MOL0     H33509   1.178  11.121   2.306 -0.1021 -0.2775 -0.1028
  989MOL0     H33510   1.314  11.245   2.306 -0.2613  0.8519 -0.0969
  989MOL0     H33511   1.038  11.479   2.491 -0.8384 -0.0117  0.7804
  989MOL0     H33512   1.637  11.186   2.100  2.4810  2.1589  2.1401
  989MOL0     H33513   1.929  11.284   2.264 -1.2692 -1.5274  1.2484
  989MOL0     H33514   1.930  11.163   2.129 -1.0315 -1.1031 -1.5851
  989MOL0     H33515   1.825  11.299   2.114  0.3373  3.1123  1.8048
  990MOL0     O33516   7.521   5.792   1.827 -0.2306  0.0493 -0.1039
  990MOL0     C33517   7.444   5.870   1.879  0.0400 -0.3508 -0.8073
  990MOL0     O33518   7.491   5.969   1.957  0.2881 -0.3414  0.8760
  990MOL0     C33519   7.624   6.005   1.944  0.8595 -0.2375 -0.6879
  990MOL0     C33520   7.720   5.948   2.027  0.6002  0.6574  0.3211
  990MOL0     C33521   7.851   6.000   2.012  0.1404  0.0443 -0.6466
  990MOL0     C33522   7.884   6.089   1.915  0.3075 -0.8994 -0.1697
  990MOL0     O33523   8.018   6.126   1.890  0.6051  0.3852 -0.4573
  990MOL0     C33524   8.134   6.057   1.951  0.6716 -0.1248  0.2872
  990MOL0     C33525   8.255   6.077   1.863 -0.5290 -0.7715 -0.8634
  990MOL0     C33526   8.382   6.053   1.939 -0.7296 -0.0290  0.5021
  990MOL0     C33527   8.499   6.052   1.846 -0.1793 -0.7138 -0.7036
  990MOL0     C33528   8.628   6.036   1.930  0.5265 -0.6389  0.5826
  990MOL0     C33529   8.751   6.045   1.845  0.9842  0.0430  0.0899
  990MOL0     C33530   8.882   6.029   1.930  0.1199  0.4691 -0.6648
  990MOL0     C33531   8.999   6.019   1.836  0.9443  0.5694 -0.4169
  990MOL0     N33532   9.120   6.021   1.915 -0.2708  0.5915 -0.8138
  990MOL0     C33533   9.187   5.911   1.970  0.2710 -0.1495 -0.4620
  990MOL0     C33534   9.273   5.966   2.053  0.1393  0.2576  0.4289
  990MOL0     C33535   9.359   5.897   2.157 -0.2002  0.1577  0.8681
  990MOL0     C33536   9.456   5.805   2.091  0.2013  0.9183 -0.2096
  990MOL0     C33537   9.580   5.889   2.048 -0.5099  0.5663 -0.4210
  990MOL0     C33538   9.713   5.814   2.047 -0.2237  0.5978 -0.8279
  990MOL0     O33539   9.818   5.898   1.992 -0.2676 -0.6668  0.0710
  990MOL0     C33540   9.919   5.835   1.934  0.3655  0.1317  0.3876
  990MOL0     C33541   9.961   5.701   1.945  0.3207 -0.2971 -0.5776
  990MOL0     C33542  10.067   5.648   1.875 -0.0538  0.3268 -0.2464
  990MOL0     C33543  10.144   5.730   1.791  0.8247 -0.2659  0.5040
  990MOL0     C33544  10.265   5.695   1.721  0.4798  0.3662 -0.0179
  990MOL0     O33545  10.339   5.799   1.673 -0.1836  0.1170 -0.5914
  990MOL0     C33546  10.469   5.764   1.629 -0.3252 -0.5431  0.1529
  990MOL0     C33547  10.473   5.711   1.503 -0.4032 -0.3462 -0.2390
  990MOL0     C33548  10.595   5.684   1.437 -0.0451 -0.0565 -0.2131
  990MOL0     C33549  10.711   5.715   1.495 -0.4690  0.0968 -0.3399
  990MOL0     O33550  10.824   5.682   1.422 -0.1000  0.4490 -0.6409
  990MOL0     C33551  10.954   5.719   1.477  0.1592  0.2526  0.8046
  990MOL0     C33552  11.066   5.652   1.397 -0.2209 -0.9247 -0.7729
  990MOL0     C33553  11.199   5.682   1.460  0.7587 -0.5254 -0.0869
  990MOL0     C33554  11.310   5.642   1.359 -0.4178  0.2875 -1.0249
  990MOL0     C33555  11.443   5.630   1.431 -0.2490 -0.5869 -0.1328
  990MOL0     C33556  11.565   5.594   1.341  0.3757  0.0521  0.6358
  990MOL0     C33557  11.593   5.695   1.230  0.7453  0.2252 -0.4207
  990MOL0     C33558  11.723   5.659   1.173  0.4470  0.4357 -0.2918
  990MOL0    Cl33559  11.851   5.725   1.278  0.1913 -0.2814  0.0413
  990MOL0     C33560  10.705   5.773   1.627 -0.8353  0.2612 -0.5373
  990MOL0     C33561  10.588   5.800   1.693  0.4100 -0.1370  0.2864
  990MOL0     O33562  10.300   5.575   1.715  0.6233  0.2339 -0.0184
  990MOL0     C33563  10.098   5.860   1.773  0.2182  0.3081  0.3192
  990MOL0     C33564   9.986   5.910   1.845  0.3385  0.6406  0.0959
  990MOL0     N33565   9.275   6.100   2.042 -0.1947  0.5449 -0.0570
  990MOL0     N33566   9.188   6.132   1.952 -0.2727 -0.4305 -0.5850
  990MOL0     C33567   7.780   6.134   1.835 -0.1937  0.0304  0.5594
  990MOL0     C33568   7.649   6.098   1.854  1.0267  1.0108 -0.2308
  990MOL0     C33569   7.299   5.840   1.867 -0.3739 -0.7831 -0.3561
  990MOL0     C33570   7.212   5.876   1.974 -0.7672 -0.1040  0.6987
  990MOL0     C33571   7.078   5.874   1.966  0.3468 -0.6953  0.0889
  990MOL0     C33572   7.011   5.809   1.860 -0.2345 -0.3131  0.1882
  990MOL0     O33573   6.873   5.803   1.870 -0.0384 -0.2154  0.6482
  990MOL0     C33574   6.790   5.726   1.774 -0.6564 -0.5908 -0.4087
  990MOL0     C33575   6.771   5.812   1.645 -0.5078  0.6671 -0.6308
  990MOL0     C33576   6.679   5.929   1.656 -0.8307 -0.7998 -0.0735
  990MOL0     C33577   6.644   5.981   1.515 -0.1789 -0.3269  0.2779
  990MOL0     C33578   6.623   6.125   1.535 -0.0536  0.0354  0.2100
  990MOL0     C33579   6.607   6.249   1.548  0.3349  0.3563  0.5902
  990MOL0     C33580   7.089   5.760   1.755  0.1819 -0.1986  0.8192
  990MOL0     C33581   7.232   5.791   1.751  0.4843  1.0500  0.0847
  990MOL0     C33582   7.301   5.762   1.615  0.5496  0.5658  0.7144
  990MOL0     H33583   7.692   5.869   2.095  1.0272 -0.6460 -0.9624
  990MOL0     H33584   7.926   5.967   2.083 -0.0261  0.6782 -0.1717
  990MOL0     H33585   8.152   6.101   2.049  2.9926  1.7655 -0.8877
  990MOL0     H33586   8.106   5.951   1.958 -1.4057  0.4176  0.9684
  990MOL0     H33587   8.257   6.179   1.823 -0.8417  0.1341  1.2608
  990MOL0     H33588   8.241   5.999   1.788 -0.8882 -3.1338  1.5231
  990MOL0     H33589   8.379   5.962   2.000  1.7341  0.8080  2.0390
  990MOL0     H33590   8.395   6.137   2.008  2.2755  0.5146 -0.5656
  990MOL0     H33591   8.481   5.968   1.778  0.8862 -0.0532 -1.8472
  990MOL0     H33592   8.509   6.141   1.783 -2.1269 -0.8237 -1.2266
  990MOL0     H33593   8.634   6.108   2.012 -0.2024  1.0185 -0.7583
  990MOL0     H33594   8.617   5.937   1.975  0.5402 -0.0420  1.9592
  990MOL0     H33595   8.740   5.982   1.756 -0.0764 -1.5185  1.2555
  990MOL0     H33596   8.751   6.144   1.797 -2.0802 -0.4773 -1.2370
  990MOL0     H33597   8.875   5.945   1.999 -1.0066 -0.3273 -1.7090
  990MOL0     H33598   8.882   6.122   1.989 -1.4583 -1.0362  1.8908
  990MOL0     H33599   8.991   5.923   1.784 -1.6530  0.5309 -0.0585
  990MOL0     H33600   9.000   6.105   1.768 -0.3162  1.8900  1.1534
  990MOL0     H33601   9.163   5.807   1.949 -0.0290 -0.2445  0.3086
  990MOL0     H33602   9.413   5.973   2.214  1.1560 -0.1906  0.1009
  990MOL0     H33603   9.297   5.845   2.231  2.2085 -3.5779  0.5629
  990MOL0     H33604   9.480   5.730   2.167  0.0884  1.0678 -0.0255
  990MOL0     H33605   9.394   5.764   2.010 -2.7827  1.8751  1.4403
  990MOL0     H33606   9.597   5.973   2.116  0.4342  1.2440 -1.4539
  990MOL0     H33607   9.569   5.932   1.948  1.8983  0.7519 -0.6563
  990MOL0     H33608   9.704   5.721   1.989  0.4427 -0.3393  0.4999
  990MOL0     H33609   9.724   5.778   2.150 -2.6515 -1.4585 -1.1705
  990MOL0     H33610   9.913   5.634   2.016 -0.3413  1.0601  0.2815
  990MOL0     H33611  10.096   5.544   1.888  0.4086  0.3896 -0.7401
  990MOL0     H33612  10.380   5.691   1.450 -0.3075  1.9561 -1.4102
  990MOL0     H33613  10.587   5.629   1.344  2.7635 -0.6593 -0.1897
  990MOL0     H33614  10.969   5.828   1.477  1.2044  0.2045  3.6266
  990MOL0     H33615  10.967   5.677   1.577  3.3094 -2.9477 -0.7338
  990MOL0     H33616  11.042   5.545   1.403  2.4020 -1.6308 -1.6045
  990MOL0     H33617  11.060   5.691   1.295  0.9081 -1.9734 -1.2599
  990MOL0     H33618  11.213   5.789   1.480  3.3229 -0.7475 -0.2774
  990MOL0     H33619  11.206   5.639   1.560  0.7412  0.9972  0.5973
  990MOL0     H33620  11.331   5.717   1.282 -0.2339 -1.1557 -2.4261
  990MOL0     H33621  11.286   5.545   1.313  0.3700 -0.5184  0.2153
  990MOL0     H33622  11.440   5.565   1.519  0.3998  1.2721  1.3360
  990MOL0     H33623  11.463   5.729   1.472 -2.8652 -0.0002 -0.1449
  990MOL0     H33624  11.659   5.581   1.395  0.9535  2.0158  0.2103
  990MOL0     H33625  11.546   5.496   1.296 -2.0322  0.2953  0.9624
  990MOL0     H33626  11.591   5.794   1.276  0.1587 -0.2122  0.5160
  990MOL0     H33627  11.510   5.685   1.159 -1.0559 -3.0455  1.8902
  990MOL0     H33628  11.736   5.553   1.152 -0.4184  0.2720 -0.0511
  990MOL0     H33629  11.743   5.701   1.074  2.4166 -1.2440 -0.6634
  990MOL0     H33630  10.794   5.796   1.683 -1.6010  0.0103  0.8129
  990MOL0     H33631  10.595   5.860   1.783  2.9864 -1.6989  1.2187
  990MOL0     H33632  10.149   5.922   1.700  0.9074 -1.2315 -0.5339
  990MOL0     H33633   9.960   6.016   1.852  1.4588  0.9340 -0.0297
  990MOL0     H33634   7.777   6.209   1.757 -1.7390  1.1507  1.6274
  990MOL0     H33635   7.576   6.133   1.782  1.1427  0.7630 -0.4669
  990MOL0     H33636   7.258   5.919   2.063  0.9318  0.1092 -0.2330
  990MOL0     H33637   7.019   5.915   2.047 -0.9277 -0.7156 -0.7765
  990MOL0     H33638   6.694   5.701   1.818  0.5468 -0.6937  2.3697
  990MOL0     H33639   6.838   5.632   1.747  0.3941 -0.9360  2.3962
  990MOL0     H33640   6.728   5.744   1.571  0.2602  0.5405 -0.9679
  990MOL0     H33641   6.870   5.844   1.612  0.9925 -0.6783  2.2001
  990MOL0     H33642   6.728   6.005   1.717 -0.0787 -1.0425 -0.3696
  990MOL0     H33643   6.584   5.912   1.707 -0.3721 -1.5088  0.5687
  990MOL0     H33644   6.715   5.960   1.435 -3.3629  2.6760 -3.7538
  990MOL0     H33645   6.548   5.934   1.490 -0.1096 -0.1041 -0.4122
  990MOL0     H33646   6.602   6.356   1.553 -2.0299  0.2604  1.2195
  990MOL0     H33647   7.040   5.720   1.667 -0.3636  0.8328  0.6425
  990MOL0     H33648   7.274   5.660   1.584  1.0406  1.0375 -1.4067
  990MOL0     H33649   7.257   5.830   1.541 -2.9111 -2.2976 -0.1546
  990MOL0     H33650   7.410   5.770   1.611  1.2399 -4.9892  0.8610
  991MOL0     O33651   3.345   3.495   6.182  0.1069  0.1327  0.4188
  991MOL0     C33652   3.264   3.512   6.278 -0.3324 -0.1694 -0.6331
  991MOL0     O33653   3.289   3.476   6.407  0.7690  0.4128  0.1389
  991MOL0     C33654   3.417   3.465   6.451 -0.8246 -0.8903 -0.0862
  991MOL0     C33655   3.469   3.588   6.513 -0.2669  1.3879 -0.0234
  991MOL0     C33656   3.597   3.582   6.571  0.5150 -0.3359  0.3806
  991MOL0     C33657   3.680   3.471   6.552 -0.2654 -0.2241  0.1593
  991MOL0     O33658   3.814   3.459   6.587  0.3157 -0.1613 -0.1937
  991MOL0     C33659   3.859   3.519   6.711  0.2593  0.0421  0.0410
  991MOL0     C33660   4.004   3.490   6.741  0.9725  0.0771  0.6614
  991MOL0     C33661   4.094   3.578   6.647  0.0689 -0.3744 -0.2205
  991MOL0     C33662   4.232   3.513   6.625  0.6650 -0.1642 -0.1898
  991MOL0     C33663   4.328   3.533   6.748 -0.2303 -1.0591 -0.3598
  991MOL0     C33664   4.456   3.456   6.743 -0.5022 -0.1885 -0.7081
  991MOL0     C33665   4.554   3.503   6.857  1.0110  0.4895  0.2670
  991MOL0     C33666   4.687   3.449   6.834 -0.3832  0.7853  0.9153
  991MOL0     N33667   4.785   3.484   6.934  0.2104 -0.0535  0.0848
  991MOL0     C33668   4.921   3.500   6.904  0.6814 -0.6659 -0.2206
  991MOL0     C33669   4.971   3.519   7.026 -0.2025  1.1431 -0.1559
  991MOL0     C33670   5.123   3.551   7.056 -0.1433 -0.6181 -0.3686
  991MOL0     C33671   5.223   3.452   6.986 -0.6492  0.2390 -0.1483
  991MOL0     C33672   5.369   3.505   7.025  0.0462  0.0843 -0.1370
  991MOL0     C33673   5.469   3.400   6.970  0.3271 -1.1251 -0.0048
  991MOL0     O33674   5.600   3.439   7.022  0.2753  0.1162  0.6010
  991MOL0     C33675   5.684   3.509   6.942 -0.4605  0.2933 -0.3548
  991MOL0     C33676   5.647   3.583   6.831 -0.0999  0.2392  0.5484
  991MOL0     C33677   5.746   3.649   6.756 -0.5283  0.0090 -0.7375
  991MOL0     C33678   5.876   3.641   6.793  0.5979 -0.1018 -0.1875
  991MOL0     C33679   5.987   3.715   6.718 -0.2303  0.3458 -0.8641
  991MOL0     O33680   6.117   3.698   6.754  0.0421  0.0924  0.2918
  991MOL0     C33681   6.220   3.758   6.691 -0.1365 -0.1450 -0.4958
  991MOL0     C33682   6.342   3.743   6.757 -0.4425  0.5419 -1.2423
  991MOL0     C33683   6.468   3.802   6.708  0.1591 -0.2021 -0.5113
  991MOL0     C33684   6.462   3.881   6.593 -0.4147  0.1549  0.5313
  991MOL0     O33685   6.564   3.954   6.538 -0.5056  0.0141 -0.0119
  991MOL0     C33686   6.667   4.005   6.616 -0.1108 -0.4328 -0.4967
  991MOL0     C33687   6.794   4.038   6.540 -0.1569 -0.1848  0.7526
  991MOL0     C33688   6.874   3.925   6.472  0.1619  0.3824 -0.6983
  991MOL0     C33689   6.863   3.795   6.549 -0.1094  0.2409 -0.1616
  991MOL0     C33690   6.950   3.679   6.501 -0.4275 -0.1604 -0.4923
  991MOL0     C33691   6.919   3.643   6.358  0.3863 -0.0899 -0.7027
  991MOL0     C33692   6.982   3.512   6.326 -0.3609 -0.5030  0.5424
  991MOL0     C33693   7.024   3.508   6.179 -0.1242 -0.1819 -0.9226
  991MOL0    Cl33694   7.102   3.347   6.160 -0.2124 -0.3549 -0.4647
  991MOL0     C33695   6.338   3.898   6.526 -0.6559  1.0632 -0.3393
  991MOL0     C33696   6.221   3.841   6.575 -0.6814  0.1446  0.2843
  991MOL0     O33697   5.950   3.801   6.639  0.1584  0.4316  0.2696
  991MOL0     C33698   5.912   3.573   6.906 -0.2051  0.4424  0.2022
  991MOL0     C33699   5.817   3.505   6.983 -0.6637  0.1451 -0.1979
  991MOL0     N33700   4.862   3.539   7.113  0.0295 -0.5766 -1.0705
  991MOL0     N33701   4.754   3.500   7.055 -0.0838 -0.4633 -0.9756
  991MOL0     C33702   3.632   3.356   6.480  0.2658  0.2424  0.8361
  991MOL0     C33703   3.500   3.354   6.434  0.4690 -0.6506  0.1778
  991MOL0     C33704   3.138   3.582   6.259  0.6462  0.8140 -0.4261
  991MOL0     C33705   3.039   3.564   6.360 -0.0738  0.3526  0.1166
  991MOL0     C33706   2.919   3.623   6.352 -0.6880 -0.1985 -0.2516
  991MOL0     C33707   2.902   3.736   6.268  0.3892  0.0859 -0.1476
  991MOL0     O33708   2.777   3.800   6.280 -0.5667 -0.0559  0.4674
  991MOL0     C33709   2.747   3.914   6.207  0.3205 -0.2975  0.1029
  991MOL0     C33710   2.596   3.944   6.227  0.4622 -0.1125  0.1403
  991MOL0     C33711   2.509   3.845   6.138 -0.1945 -0.3256  0.1520
  991MOL0     C33712   2.359   3.874   6.162  0.3222  0.2513  0.5989
  991MOL0     C33713   2.322   3.990   6.082 -0.3732 -0.4517  0.4708
  991MOL0     C33714   2.277   4.079   6.007  0.4800  0.0152  0.5419
  991MOL0     C33715   2.985   3.735   6.162 -0.1158 -0.5763 -0.4520
  991MOL0     C33716   3.107   3.669   6.153 -0.0414  0.0374 -0.5546
  991MOL0     C33717   3.209   3.698   6.044 -0.8022  0.1489  0.0855
  991MOL0     H33718   3.414   3.680   6.529  0.5512  1.8923 -0.1069
  991MOL0     H33719   3.631   3.668   6.629 -1.9986  2.1530 -1.5865
  991MOL0     H33720   3.863   3.628   6.699  1.0854 -0.1737 -2.0797
  991MOL0     H33721   3.789   3.483   6.787 -1.7792 -0.1688 -1.8456
  991MOL0     H33722   4.021   3.382   6.743  0.0601 -0.0527  1.7488
  991MOL0     H33723   4.028   3.517   6.844 -0.4350 -1.3330  1.3967
  991MOL0     H33724   4.095   3.677   6.692 -0.8155 -0.5663  0.2297
  991MOL0     H33725   4.042   3.582   6.550 -0.6175 -1.8421  0.0667
  991MOL0     H33726   4.216   3.406   6.613  0.9425 -0.1027 -1.1684
  991MOL0     H33727   4.283   3.551   6.536  2.5935  0.0134  0.9180
  991MOL0     H33728   4.348   3.640   6.750 -0.1621 -1.0569 -0.9630
  991MOL0     H33729   4.274   3.509   6.840  0.0902 -0.4302 -0.0010
  991MOL0     H33730   4.446   3.347   6.747 -0.6576 -0.1468  0.0296
  991MOL0     H33731   4.512   3.477   6.651  1.7983 -0.5677  0.5361
  991MOL0     H33732   4.510   3.455   6.944 -1.4800  0.2458 -1.0478
  991MOL0     H33733   4.549   3.610   6.876  1.2780  0.9372 -1.8909
  991MOL0     H33734   4.667   3.342   6.839 -2.0375  0.9342 -1.1815
  991MOL0     H33735   4.729   3.469   6.734 -0.8706 -0.8549  0.3577
  991MOL0     H33736   4.961   3.479   6.805  0.5751  0.1118 -0.4327
  991MOL0     H33737   5.129   3.659   7.036 -4.8761  0.2753  1.7132
  991MOL0     H33738   5.144   3.540   7.163 -1.2297 -2.5162 -0.3211
  991MOL0     H33739   5.203   3.350   7.021  2.2846 -0.9208 -1.5735
  991MOL0     H33740   5.208   3.451   6.878 -1.2692  0.1621 -0.0687
  991MOL0     H33741   5.383   3.501   7.134  0.2512  0.9817 -0.1222
  991MOL0     H33742   5.379   3.608   6.990 -0.6095  0.2466  0.1247
  991MOL0     H33743   5.460   3.410   6.861 -0.0665  0.2324  0.1273
  991MOL0     H33744   5.433   3.299   6.991  0.3986 -1.8387 -2.8345
  991MOL0     H33745   5.548   3.591   6.786  1.0222 -0.2098 -2.2139
  991MOL0     H33746   5.724   3.703   6.664  2.6833  3.2316  0.1522
  991MOL0     H33747   6.341   3.679   6.844 -0.3911  2.5346  0.3002
  991MOL0     H33748   6.560   3.785   6.764 -0.4880 -1.5187  0.2021
  991MOL0     H33749   6.629   4.096   6.664 -0.6632 -0.7544 -0.3094
  991MOL0     H33750   6.704   3.934   6.691  2.3403 -0.1547 -1.3437
  991MOL0     H33751   6.763   4.102   6.457  0.5116 -0.6423  0.1332
  991MOL0     H33752   6.858   4.093   6.610 -1.1523  2.5049 -0.3503
  991MOL0     H33753   6.831   3.913   6.372  0.5251  1.5581 -1.0116
  991MOL0     H33754   6.981   3.946   6.462  0.5586 -1.2871 -0.3511
  991MOL0     H33755   6.760   3.759   6.543 -0.1864  0.2968  0.7202
  991MOL0     H33756   6.893   3.813   6.653 -0.3318 -0.1361 -0.0287
  991MOL0     H33757   6.921   3.596   6.565 -2.8020  0.6025 -0.4917
  991MOL0     H33758   7.054   3.705   6.526  0.3201 -2.1226 -1.3856
  991MOL0     H33759   6.815   3.657   6.329  0.2745  2.8201  0.7551
  991MOL0     H33760   6.962   3.724   6.300 -0.7057  0.1320 -1.2230
  991MOL0     H33761   6.907   3.435   6.344 -2.3031  0.7150 -1.7253
  991MOL0     H33762   7.074   3.491   6.380  1.2365 -0.1532 -1.8990
  991MOL0     H33763   6.932   3.505   6.120 -1.1200 -0.2700  0.5797
  991MOL0     H33764   7.091   3.588   6.146 -0.7885  1.2945  1.1428
  991MOL0     H33765   6.328   3.955   6.434 -1.8208  3.4550  1.1548
  991MOL0     H33766   6.136   3.868   6.514  0.7161  0.5036 -1.6078
  991MOL0     H33767   6.018   3.569   6.928 -0.4194  0.2198  1.2492
  991MOL0     H33768   5.851   3.450   7.070 -2.2087 -0.9262 -0.2329
  991MOL0     H33769   3.699   3.271   6.477  0.3771  0.2567 -3.8731
  991MOL0     H33770   3.463   3.275   6.370  2.0604  2.5735 -5.3487
  991MOL0     H33771   3.049   3.492   6.441 -0.7656  0.7927  0.6084
  991MOL0     H33772   2.844   3.611   6.430 -0.5500 -1.3203 -0.2635
  991MOL0     H33773   2.769   3.898   6.101 -0.4592  1.5702 -0.3725
  991MOL0     H33774   2.793   3.998   6.260  0.0195 -0.3435  0.4363
  991MOL0     H33775   2.579   4.049   6.201 -1.3529 -0.6234 -0.9553
  991MOL0     H33776   2.572   3.928   6.333  0.9575  1.1750  0.4639
  991MOL0     H33777   2.525   3.740   6.167  0.1839 -0.3002  0.0321
  991MOL0     H33778   2.530   3.848   6.031 -0.6016 -1.4978  0.0191
  991MOL0     H33779   2.295   3.787   6.145  0.0887  0.5978 -0.3618
  991MOL0     H33780   2.335   3.902   6.265  0.2546 -2.2985  1.3610
  991MOL0     H33781   2.230   4.156   5.950  0.3056 -0.9279 -0.6375
  991MOL0     H33782   2.957   3.819   6.099 -1.4933  3.4372  4.7851
  991MOL0     H33783   3.228   3.611   5.981 -3.4353 -2.2048  2.2995
  991MOL0     H33784   3.171   3.777   5.979 -3.7868  0.8457  2.4438
  991MOL0     H33785   3.302   3.727   6.095 -0.5658 -1.7413  0.8143
  992MOL0     O33786   7.971   3.701   3.713 -0.2089  0.6383 -0.0104
  992MOL0     C33787   7.891   3.608   3.749  0.6991  0.3089 -0.4995
  992MOL0     O33788   7.913   3.473   3.752 -0.6537 -0.5352  0.0202
  992MOL0     C33789   8.038   3.434   3.720  0.2796  0.4246  0.6937
  992MOL0     C33790   8.041   3.317   3.629 -0.3634 -0.3003  0.4100
  992MOL0     C33791   8.166   3.263   3.603 -0.1636  0.5928  0.4103
  992MOL0     C33792   8.284   3.314   3.649 -0.7638  0.8079  0.7161
  992MOL0     O33793   8.412   3.261   3.627 -0.0517 -0.3570 -0.2517
  992MOL0     C33794   8.425   3.143   3.545 -0.5001 -0.3629 -0.7631
  992MOL0     C33795   8.577   3.106   3.531  0.2706 -0.4037 -0.3843
  992MOL0     C33796   8.636   3.050   3.660  0.1389 -0.2875 -0.7172
  992MOL0     C33797   8.791   3.050   3.635 -0.1047 -0.7224 -0.5947
  992MOL0     C33798   8.852   2.995   3.766  0.5576  0.4157 -0.8491
  992MOL0     C33799   8.981   3.060   3.785  0.1519  0.6315  0.6212
  992MOL0     C33800   9.055   3.013   3.910 -0.6414  0.4987 -0.3297
  992MOL0     C33801   9.181   3.107   3.909  0.0255  0.2602 -0.2784
  992MOL0     N33802   9.276   3.066   4.012 -0.0750 -0.1377 -0.1033
  992MOL0     C33803   9.396   2.997   3.989 -0.6850 -0.6240 -0.0719
  992MOL0     C33804   9.443   2.956   4.111  0.3070 -1.1390  0.5879
  992MOL0     C33805   9.570   2.886   4.141  0.1135  0.5748 -1.1130
  992MOL0     C33806   9.688   2.956   4.075 -0.5047 -0.2270 -0.4461
  992MOL0     C33807   9.720   3.112   4.105  0.7596  1.1826  0.2607
  992MOL0     C33808   9.732   3.127   4.257 -0.0474 -0.9556  0.5290
  992MOL0     O33809   9.846   3.059   4.311 -0.0700 -0.5700 -0.6365
  992MOL0     C33810   9.973   3.119   4.301 -0.6439 -0.2198 -0.6803
  992MOL0     C33811  10.075   3.049   4.368  0.0962  0.3181 -0.0686
  992MOL0     C33812  10.209   3.095   4.354 -0.1698 -0.6027 -0.2013
  992MOL0     C33813  10.240   3.220   4.290 -0.5113  0.5711 -0.7099
  992MOL0     C33814  10.370   3.271   4.279 -0.3424 -0.4063 -0.3822
  992MOL0     O33815  10.388   3.368   4.180  0.5186  0.6637 -0.0760
  992MOL0     C33816  10.510   3.407   4.141 -0.4821 -0.0180  0.2635
  992MOL0     C33817  10.557   3.529   4.172  0.3907  0.2010 -0.2641
  992MOL0     C33818  10.696   3.558   4.147  0.1589  0.4490  0.1514
  992MOL0     C33819  10.778   3.468   4.073  0.0537  0.1392  1.3010
  992MOL0     O33820  10.915   3.480   4.034  0.2810  0.3986  0.1406
  992MOL0     C33821  10.974   3.607   4.069 -0.3243 -0.2162  0.0481
  992MOL0     C33822  11.117   3.620   4.016 -0.0192  0.2467  0.7297
  992MOL0     C33823  11.214   3.503   4.062  0.7475 -0.7477 -0.5814
  992MOL0     C33824  11.363   3.533   4.034 -1.0099 -0.3774  0.1587
  992MOL0     C33825  11.449   3.424   4.075 -0.8734  0.5887  0.3292
  992MOL0     C33826  11.590   3.461   4.124 -1.0078  0.2374  0.1722
  992MOL0     C33827  11.683   3.335   4.165  0.1338 -1.0486  0.0467
  992MOL0     C33828  11.777   3.366   4.283  0.3623 -0.1533  0.8706
  992MOL0    Cl33829  11.899   3.479   4.230  0.2326 -0.5028  0.2866
  992MOL0     C33830  10.716   3.345   4.027 -0.9216 -0.2455 -0.5160
  992MOL0     C33831  10.591   3.306   4.066  0.7854  0.4713 -0.1160
  992MOL0     O33832  10.456   3.222   4.350 -0.3982  0.1478 -0.7973
  992MOL0     C33833  10.133   3.288   4.227  0.2956 -0.1020  0.0772
  992MOL0     C33834  10.005   3.237   4.231  0.1758  0.4015 -0.5518
  992MOL0     N33835   9.354   3.008   4.207  0.5730 -0.2792 -0.1351
  992MOL0     N33836   9.261   3.070   4.147  0.1880 -0.1466 -0.3539
  992MOL0     C33837   8.289   3.428   3.729  0.2730  0.0847 -0.2409
  992MOL0     C33838   8.161   3.490   3.760  0.2165  0.1835 -0.3840
  992MOL0     C33839   7.754   3.644   3.783  0.2265  0.0366  0.1872
  992MOL0     C33840   7.657   3.555   3.748  0.3682  0.3772  0.5814
  992MOL0     C33841   7.528   3.589   3.733  0.8787 -0.0177  0.1522
  992MOL0     C33842   7.482   3.721   3.766 -0.6124  0.0790  0.0904
  992MOL0     O33843   7.355   3.767   3.746 -0.4942  0.2853  0.5883
  992MOL0     C33844   7.264   3.688   3.660 -0.3022 -0.2096 -0.2212
  992MOL0     C33845   7.156   3.791   3.611  0.6495  0.2885 -0.7074
  992MOL0     C33846   7.071   3.738   3.488 -0.1247  0.2197 -0.9186
  992MOL0     C33847   6.954   3.640   3.547 -0.4121  0.7826  0.0909
  992MOL0     C33848   6.957   3.510   3.479  0.0981 -0.9429 -0.1263
  992MOL0     C33849   6.969   3.398   3.435  0.0631 -0.1127  0.5155
  992MOL0     C33850   7.579   3.810   3.807 -0.4635  0.2143  0.3562
  992MOL0     C33851   7.716   3.777   3.819  0.0858 -0.0998 -0.2807
  992MOL0     C33852   7.798   3.892   3.859  0.1986 -0.1346 -0.3432
  992MOL0     H33853   7.946   3.272   3.603 -0.8102  0.7394  0.1686
  992MOL0     H33854   8.175   3.173   3.542  1.5314  0.1819  1.1978
  992MOL0     H33855   8.365   3.068   3.598 -1.4489  0.0741 -1.1805
  992MOL0     H33856   8.382   3.160   3.446  0.2122  1.4415 -0.7857
  992MOL0     H33857   8.642   3.188   3.500 -0.2812  0.7842  1.4456
  992MOL0     H33858   8.584   3.023   3.460  1.4256  0.2764 -1.0965
  992MOL0     H33859   8.593   2.950   3.658  1.3402 -0.8126 -0.7831
  992MOL0     H33860   8.612   3.119   3.742 -0.3847  2.8381 -3.2876
  992MOL0     H33861   8.836   3.002   3.547 -0.6634 -0.1921 -1.1739
  992MOL0     H33862   8.820   3.154   3.621 -1.3768  0.0899  2.1268
  992MOL0     H33863   8.788   3.016   3.852 -0.1139  1.6432 -1.6217
  992MOL0     H33864   8.859   2.887   3.751 -0.6401  0.5101 -2.3671
  992MOL0     H33865   9.038   3.046   3.693 -2.9439 -0.2774 -1.3000
  992MOL0     H33866   8.963   3.168   3.784 -1.8402  0.3436 -0.3453
  992MOL0     H33867   9.082   2.909   3.889 -1.7496  0.5929 -2.5724
  992MOL0     H33868   9.003   3.017   4.006  0.8834  0.7667  0.5166
  992MOL0     H33869   9.229   3.094   3.811  0.4399  0.1996 -0.0663
  992MOL0     H33870   9.155   3.213   3.915 -1.8513 -0.1693 -0.1482
  992MOL0     H33871   9.453   2.968   3.901  0.6905  1.5427  0.0475
  992MOL0     H33872   9.585   2.889   4.249 -1.0923  0.3256 -0.9268
  992MOL0     H33873   9.557   2.784   4.102  1.2727  0.0225 -0.1350
  992MOL0     H33874   9.779   2.904   4.105  0.4776  1.0773 -1.0232
  992MOL0     H33875   9.662   2.944   3.969 -0.9281  3.1999 -0.8489
  992MOL0     H33876   9.636   3.173   4.071 -0.0721 -0.2227 -0.3222
  992MOL0     H33877   9.808   3.151   4.054  0.2635  1.4960 -0.3670
  992MOL0     H33878   9.639   3.100   4.308 -2.5434  0.5280 -2.8691
  992MOL0     H33879   9.742   3.235   4.269  1.0160 -1.0529  0.6029
  992MOL0     H33880  10.044   2.958   4.417 -1.2820  1.0054  0.3792
  992MOL0     H33881  10.290   3.047   4.408  0.2696 -0.4193 -0.6913
  992MOL0     H33882  10.486   3.602   4.211 -0.6199 -0.3056 -1.0981
  992MOL0     H33883  10.737   3.654   4.177 -0.7479  0.8944  0.0063
  992MOL0     H33884  10.919   3.686   4.018  0.6076  1.8402  2.0606
  992MOL0     H33885  10.961   3.633   4.175 -1.2532  3.0314 -0.7741
  992MOL0     H33886  11.118   3.637   3.908  0.1776  0.8119  0.8179
  992MOL0     H33887  11.154   3.718   4.047 -3.0746  1.3412  1.2762
  992MOL0     H33888  11.205   3.480   4.168  0.1516 -1.5857 -0.8035
  992MOL0     H33889  11.177   3.416   4.006 -3.3227  0.4021 -0.0635
  992MOL0     H33890  11.401   3.627   4.075 -0.2108 -1.0512  1.0006
  992MOL0     H33891  11.380   3.550   3.927  2.4615 -0.2655  0.6204
  992MOL0     H33892  11.461   3.356   3.990 -2.9180 -2.9673  2.6136
  992MOL0     H33893  11.394   3.366   4.151  0.7541  0.0860  1.1602
  992MOL0     H33894  11.640   3.529   4.055 -2.1108 -1.1975 -2.1771
  992MOL0     H33895  11.572   3.523   4.212 -0.8114  0.0447  0.3493
  992MOL0     H33896  11.754   3.308   4.086  0.3968  1.5969 -0.7182
  992MOL0     H33897  11.617   3.249   4.175 -2.3334  0.8477  1.0507
  992MOL0     H33898  11.713   3.405   4.362 -0.6918  1.7958 -0.8447
  992MOL0     H33899  11.818   3.268   4.311  3.1584 -0.0977 -2.3324
  992MOL0     H33900  10.772   3.261   3.988  0.4993  0.8112 -0.8581
  992MOL0     H33901  10.546   3.212   4.037  1.7026  0.6656 -2.3030
  992MOL0     H33902  10.138   3.375   4.163  2.0067 -0.9277 -1.0029
  992MOL0     H33903   9.927   3.291   4.177  0.1606 -0.9778 -2.0079
  992MOL0     H33904   8.381   3.482   3.752 -0.6469  2.9300 -2.6174
  992MOL0     H33905   8.166   3.579   3.823 -1.1283 -1.1672  1.7584
  992MOL0     H33906   7.692   3.455   3.722 -0.9794 -0.7108  2.6485
  992MOL0     H33907   7.447   3.523   3.702 -0.9414  2.4127 -0.6592
  992MOL0     H33908   7.210   3.613   3.719 -0.4095  1.6342  2.2065
  992MOL0     H33909   7.322   3.649   3.577  2.1332 -1.1604  1.8179
  992MOL0     H33910   7.199   3.887   3.582 -0.0554  1.1794  1.0111
  992MOL0     H33911   7.094   3.821   3.696  1.8615  1.7674 -0.3003
  992MOL0     H33912   7.132   3.687   3.413 -1.0139 -1.8905 -0.2863
  992MOL0     H33913   7.018   3.820   3.439  2.0520  1.7819 -0.7876
  992MOL0     H33914   6.950   3.623   3.655 -1.7466  0.8140  0.0674
  992MOL0     H33915   6.854   3.680   3.530 -1.8743 -2.2887  0.8046
  992MOL0     H33916   7.001   3.306   3.392 -2.0387 -0.1733 -1.0815
  992MOL0     H33917   7.546   3.910   3.833  0.3706  1.3327 -2.5827
  992MOL0     H33918   7.790   3.965   3.778 -4.6996 -1.2843 -1.2643
  992MOL0     H33919   7.762   3.932   3.954  0.1905  0.7190 -0.7051
  992MOL0     H33920   7.906   3.875   3.861 -0.0808 -2.1982  1.2351
  993MOL0     O33921   7.086   3.310  10.989 -0.1662 -0.1758  0.0763
  993MOL0     C33922   7.017   3.398  10.949  0.0052 -1.1690  0.4351
  993MOL0     O33923   7.067   3.514  10.887  0.0204  0.2398  0.0428
  993MOL0     C33924   7.208   3.519  10.887  0.2615 -0.0778 -0.2166
  993MOL0     C33925   7.268   3.493  10.770 -0.7129 -0.0782 -0.2613
  993MOL0     C33926   7.403   3.498  10.745 -0.1625 -0.0574  0.1477
  993MOL0     C33927   7.484   3.548  10.846 -0.1984  0.2074 -0.2365
  993MOL0     O33928   7.619   3.565  10.831  0.0418  0.5259  0.1941
  993MOL0     C33929   7.661   3.693  10.786  0.6730  0.0086 -0.8014
  993MOL0     C33930   7.810   3.697  10.757 -0.1392  0.1510 -0.0981
  993MOL0     C33931   7.896   3.666  10.881  0.0815  0.0102  0.1414
  993MOL0     C33932   7.908   3.778  10.990 -0.1010  0.2238  0.0552
  993MOL0     C33933   8.024   3.740  11.084  0.5858  0.4319  0.0176
  993MOL0     C33934   8.079   3.852  11.165 -0.1879  0.5160 -0.3227
  993MOL0     C33935   8.184   3.792  11.267 -0.0190  0.2684 -0.0635
  993MOL0     C33936   8.295   3.707  11.204  0.8510 -0.3827 -0.2010
  993MOL0     N33937   8.407   3.686  11.287 -0.8408 -0.1468 -0.6090
  993MOL0     C33938   8.417   3.655  11.426  0.6900  0.1987  0.3777
  993MOL0     C33939   8.552   3.662  11.451  0.7479 -0.3071  0.1173
  993MOL0     C33940   8.624   3.644  11.580  0.2419 -0.2886  0.2645
  993MOL0     C33941   8.657   3.783  11.640 -0.4884  0.5574 -0.3942
  993MOL0     C33942   8.717   3.766  11.786 -0.7091 -0.5436  0.1515
  993MOL0     C33943   8.865   3.795  11.788 -0.7832  0.1942  0.1289
  993MOL0     O33944   8.927   3.673  11.738  0.2268 -0.2251  0.0851
  993MOL0     C33945   9.061   3.659  11.780 -0.5288  0.0362 -0.7596
  993MOL0     C33946   9.138   3.753  11.854 -0.1321  0.2240 -0.0364
  993MOL0     C33947   9.267   3.720  11.893  0.0072 -0.4633  0.3228
  993MOL0     C33948   9.319   3.593  11.881  0.8842 -0.0802 -0.0909
  993MOL0     C33949   9.442   3.549  11.951 -0.9110 -0.3794  0.2060
  993MOL0     O33950   9.490   3.619  12.052 -0.2997  0.8892 -0.1575
  993MOL0     C33951   9.624   3.586  12.099 -0.0794 -1.2148  0.7315
  993MOL0     C33952   9.729   3.628  12.025 -1.0894 -0.1835  0.2650
  993MOL0     C33953   9.852   3.567  12.053  0.9735 -0.4928 -0.3066
  993MOL0     C33954   9.865   3.478  12.163 -0.4382  0.5388  0.0626
  993MOL0     O33955   9.983   3.406  12.192  0.2511  0.7672  0.4852
  993MOL0     C33956  10.105   3.470  12.141  0.4979 -0.1755 -0.0178
  993MOL0     C33957  10.231   3.418  12.203 -1.1091  0.3965 -0.3720
  993MOL0     C33958  10.288   3.288  12.142  0.0984  0.0124 -0.6380
  993MOL0     C33959  10.178   3.180  12.119 -0.3494 -0.1658 -0.0262
  993MOL0     C33960  10.232   3.056  12.048  0.2219 -0.4398 -0.4879
  993MOL0     C33961  10.264   3.098  11.906  0.3202 -0.7337  1.0411
  993MOL0     C33962  10.284   2.983  11.805 -0.2028  0.0950  0.6189
  993MOL0     C33963  10.398   2.890  11.821 -0.7167  0.0220 -0.0661
  993MOL0    Cl33964  10.544   2.987  11.797  0.2181 -0.5520  0.1691
  993MOL0     C33965   9.757   3.434  12.230  0.3954 -0.2181 -0.0855
  993MOL0     C33966   9.636   3.487  12.198  0.3692 -0.9989 -0.2819
  993MOL0     O33967   9.488   3.444  11.911 -0.5659  0.3198  0.3967
  993MOL0     C33968   9.241   3.498  11.817  0.5024 -0.4996 -0.5075
  993MOL0     C33969   9.121   3.539  11.763 -0.2530 -0.1090 -0.2907
  993MOL0     N33970   8.611   3.686  11.330 -0.0617  0.7898 -0.4710
  993MOL0     N33971   8.527   3.694  11.235  0.2853 -0.1786  0.5934
  993MOL0     C33972   7.424   3.578  10.972  0.0873 -0.2304 -0.6538
  993MOL0     C33973   7.288   3.563  10.994 -0.0823  0.1372 -0.1069
  993MOL0     C33974   6.863   3.384  10.955  0.4402 -0.2654 -0.0735
  993MOL0     C33975   6.780   3.494  10.918 -0.0313 -0.4110  0.5298
  993MOL0     C33976   6.642   3.495  10.954 -0.1464  0.7010  0.5826
  993MOL0     C33977   6.586   3.384  11.013  0.3438 -0.1222 -0.0891
  993MOL0     O33978   6.448   3.396  11.040 -0.3228  0.5417  0.8369
  993MOL0     C33979   6.373   3.279  11.075  0.0654 -0.0803 -0.3179
  993MOL0     C33980   6.227   3.312  11.102  0.0120  0.1482  0.8988
  993MOL0     C33981   6.158   3.180  11.128  0.7162 -0.0991  0.6309
  993MOL0     C33982   6.008   3.209  11.134 -0.1620 -0.8310  0.3256
  993MOL0     C33983   5.962   3.076  11.189 -0.3846  0.0292  0.5424
  993MOL0     C33984   5.915   2.970  11.230  0.0581  0.0226  0.6648
  993MOL0     C33985   6.661   3.268  11.040 -0.1555  0.6639 -0.6461
  993MOL0     C33986   6.801   3.272  11.009  0.2843  0.3613  0.4071
  993MOL0     C33987   6.878   3.147  11.041 -0.6380 -0.0294  0.1429
  993MOL0     H33988   7.199   3.473  10.689 -1.2990 -0.5769  0.3503
  993MOL0     H33989   7.451   3.478  10.650  3.2816 -1.7288  2.0835
  993MOL0     H33990   7.591   3.715  10.705  0.9642 -0.1332 -1.0900
  993MOL0     H33991   7.644   3.766  10.866  1.3608 -1.5716  0.8553
  993MOL0     H33992   7.844   3.787  10.705 -0.9339  0.5876  0.1193
  993MOL0     H33993   7.829   3.612  10.690 -2.6501 -0.5775  0.0157
  993MOL0     H33994   7.999   3.651  10.849  0.4789  2.2423  0.2133
  993MOL0     H33995   7.865   3.578  10.939  1.7085 -0.4496  0.3539
  993MOL0     H33996   7.924   3.878  10.949 -2.8265  1.7686  2.3856
  993MOL0     H33997   7.815   3.784  11.047 -1.0463 -1.3103 -1.2361
  993MOL0     H33998   7.991   3.659  11.150 -1.2281  1.5031  0.5069
  993MOL0     H33999   8.100   3.707  11.014  0.4115 -1.9912  0.8942
  993MOL0     H34000   8.110   3.932  11.098  0.9538  0.9607  0.7000
  993MOL0     H34001   7.995   3.886  11.225 -0.3398 -0.9980  0.3710
  993MOL0     H34002   8.118   3.743  11.339 -0.6214  1.3336  0.1389
  993MOL0     H34003   8.232   3.878  11.315  1.8507 -0.8774  0.2259
  993MOL0     H34004   8.249   3.609  11.189 -0.2932 -0.1353  1.4015
  993MOL0     H34005   8.326   3.734  11.103 -0.9353 -1.7648 -1.1870
  993MOL0     H34006   8.333   3.650  11.494 -0.9715  1.5167 -1.4407
  993MOL0     H34007   8.554   3.600  11.651 -2.4574  0.1195 -1.9377
  993MOL0     H34008   8.719   3.593  11.563 -0.1100 -0.7328 -0.4401
  993MOL0     H34009   8.727   3.817  11.563  2.0267 -4.1443 -0.5737
  993MOL0     H34010   8.561   3.834  11.637 -1.6222 -1.2645  1.9329
  993MOL0     H34011   8.706   3.665  11.827  0.5909 -0.3388  1.0581
  993MOL0     H34012   8.668   3.833  11.858  3.4774  0.0992  2.7380
  993MOL0     H34013   8.893   3.823  11.890 -0.9367 -1.3935  0.6305
  993MOL0     H34014   8.882   3.885  11.728  0.4245 -0.1441 -0.0516
  993MOL0     H34015   9.105   3.854  11.879  0.4482  0.6389 -0.8926
  993MOL0     H34016   9.321   3.797  11.948  0.8707 -1.2995  0.6826
  993MOL0     H34017   9.714   3.707  11.952  0.6499 -0.3586 -0.3370
  993MOL0     H34018   9.930   3.614  11.994 -1.6418  1.6585 -2.3106
  993MOL0     H34019  10.100   3.447  12.035 -1.3983  1.9079 -0.4544
  993MOL0     H34020  10.101   3.577  12.165  3.2966  0.0458 -0.1831
  993MOL0     H34021  10.306   3.496  12.190 -0.3537 -0.3473 -0.5048
  993MOL0     H34022  10.203   3.406  12.308  0.8705  1.8517  0.3741
  993MOL0     H34023  10.346   3.314  12.053  1.7802  4.0666  1.3644
  993MOL0     H34024  10.352   3.245  12.220  0.4001  1.0202 -0.3124
  993MOL0     H34025  10.093   3.224  12.066 -0.9864 -1.6019 -0.2418
  993MOL0     H34026  10.154   3.145  12.220  0.2547 -2.6610 -0.6816
  993MOL0     H34027  10.151   2.982  12.050 -0.8499  0.6792 -0.7428
  993MOL0     H34028  10.317   3.024  12.108  0.5806  0.7242 -0.3411
  993MOL0     H34029  10.184   3.159  11.862  1.3300  0.4456  0.7939
  993MOL0     H34030  10.357   3.155  11.899 -0.6186  0.6423 -1.3943
  993MOL0     H34031  10.294   3.019  11.702  1.8891 -2.0047  0.0066
  993MOL0     H34032  10.194   2.921  11.810 -0.9432  1.0623 -0.1746
  993MOL0     H34033  10.401   2.830  11.912  3.1403  1.0497  0.6415
  993MOL0     H34034  10.386   2.818  11.739 -2.6536 -1.0378  1.0685
  993MOL0     H34035   9.757   3.367  12.316 -1.7428 -1.9202 -1.2939
  993MOL0     H34036   9.546   3.449  12.247 -0.8210 -1.0584 -2.4146
  993MOL0     H34037   9.276   3.397  11.802  2.6384 -0.0034  0.7920
  993MOL0     H34038   9.066   3.455  11.721  1.0436 -2.2945  2.1643
  993MOL0     H34039   7.495   3.612  11.046  0.0933 -2.3096  0.3461
  993MOL0     H34040   7.248   3.584  11.093  2.4486  0.1580  0.9989
  993MOL0     H34041   6.827   3.586  10.885  2.1560 -1.1070  1.5919
  993MOL0     H34042   6.577   3.577  10.927 -2.0659 -0.8683  0.1704
  993MOL0     H34043   6.417   3.262  11.174  0.1809  2.0481  0.0518
  993MOL0     H34044   6.382   3.193  11.008 -3.0486 -1.9830  1.4530
  993MOL0     H34045   6.181   3.371  11.023  1.3603 -1.1658 -0.9397
  993MOL0     H34046   6.228   3.377  11.190 -0.0258 -0.9929  1.7597
  993MOL0     H34047   6.193   3.139  11.223  0.9680 -2.2334 -0.3162
  993MOL0     H34048   6.168   3.107  11.046 -1.2284  1.7230 -1.3758
  993MOL0     H34049   5.992   3.279  11.217  1.0694  1.0500 -0.9511
  993MOL0     H34050   5.964   3.249  11.043  0.5957  4.7458  2.0166
  993MOL0     H34051   5.880   2.873  11.256 -0.3609 -0.2337 -0.7451
  993MOL0     H34052   6.626   3.189  11.105  0.0928  0.8402 -0.2972
  993MOL0     H34053   6.944   3.157  11.128  0.6362  1.5326 -0.9222
  993MOL0     H34054   6.806   3.067  11.056  0.8873 -1.4547  0.1792
  993MOL0     H34055   6.936   3.112  10.955 -1.1401  0.9165 -0.6139
  994MOL0     O34056   2.595  10.703   8.047  0.2739 -0.3050  0.3482
  994MOL0     C34057   2.518  10.790   8.080  0.5010 -0.4555 -0.2834
  994MOL0     O34058   2.551  10.914   8.134  0.2901  0.3335  0.0761
  994MOL0     C34059   2.683  10.961   8.126 -0.1157 -0.2483 -0.8925
  994MOL0     C34060   2.711  11.058   8.228  1.0466  0.2672 -0.2165
  994MOL0     C34061   2.839  11.103   8.248 -0.0697  0.0090  0.8331
  994MOL0     C34062   2.939  11.065   8.154 -0.3772  0.1405  0.0138
  994MOL0     O34063   3.071  11.111   8.150  0.1707  0.6057 -0.6544
  994MOL0     C34064   3.138  11.143   8.266  0.0745  0.2075  0.3288
  994MOL0     C34065   3.178  11.018   8.330 -1.0868  0.2493  0.3191
  994MOL0     C34066   3.267  10.924   8.245 -0.3627  0.8648 -0.3037
  994MOL0     C34067   3.280  10.786   8.308 -0.6986 -0.2141  0.3027
  994MOL0     C34068   3.390  10.708   8.250 -0.4535 -0.2519 -0.1249
  994MOL0     C34069   3.533  10.751   8.294  0.3187  0.1270  0.3366
  994MOL0     C34070   3.575  10.689   8.419 -0.5872  0.1317  0.5269
  994MOL0     C34071   3.712  10.737   8.456 -1.0249  0.0810 -0.7319
  994MOL0     N34072   3.724  10.881   8.494 -0.3472 -0.5622  0.1697
  994MOL0     C34073   3.806  10.965   8.424  0.1351  0.1086  0.1122
  994MOL0     C34074   3.786  11.091   8.474  0.4422 -0.1000 -0.0430
  994MOL0     C34075   3.839  11.228   8.423 -0.1679 -0.1845  0.2907
  994MOL0     C34076   3.974  11.268   8.486  0.0135 -1.1031  0.1116
  994MOL0     C34077   4.028  11.401   8.434 -0.7849  0.2551  0.1990
  994MOL0     C34078   4.175  11.413   8.458  0.4363 -0.2250 -0.5172
  994MOL0     O34079   4.209  11.551   8.448  0.9980 -0.2251  0.5036
  994MOL0     C34080   4.329  11.597   8.483  0.3593 -0.3250  0.3004
  994MOL0     C34081   4.364  11.724   8.419  0.3888  0.1075  0.3317
  994MOL0     C34082   4.495  11.779   8.443 -0.8836  0.2607 -0.2114
  994MOL0     C34083   4.590  11.707   8.517 -0.8782  0.1219 -0.5609
  994MOL0     C34084   4.724  11.763   8.547 -0.1882  0.1705  0.8884
  994MOL0     O34085   4.750  11.892   8.513  0.2572  0.1695  0.3685
  994MOL0     C34086   4.860  11.969   8.552  0.0351  0.4938  0.3140
  994MOL0     C34087   4.899  12.068   8.456 -0.3657 -0.1231  0.1223
  994MOL0     C34088   5.010  12.145   8.487  0.2999 -0.5690  0.1372
  994MOL0     C34089   5.075  12.139   8.602 -0.4947  0.0511 -0.1894
  994MOL0     O34090   5.186  12.211   8.622 -0.0964  0.0951 -0.6170
  994MOL0     C34091   5.293  12.182   8.523 -0.6235  1.1174  0.0234
  994MOL0     C34092   5.427  12.194   8.602  0.5993 -0.2102  0.3973
  994MOL0     C34093   5.554  12.138   8.546 -0.3740 -0.2307 -0.1605
  994MOL0     C34094   5.667  12.133   8.665  0.0660 -0.1097  0.6670
  994MOL0     C34095   5.794  12.061   8.623  0.0978  0.3482  1.1316
  994MOL0     C34096   5.912  12.071   8.726 -0.2981 -0.1728  0.2916
  994MOL0     C34097   6.047  12.018   8.679  0.5645  0.1979  0.3383
  994MOL0     C34098   6.151  12.051   8.774  0.2288  0.4360  0.2801
  994MOL0    Cl34099   6.318  12.024   8.714  0.5518 -0.0681 -0.3021
  994MOL0     C34100   5.040  12.052   8.697 -0.2250  0.6259 -0.1698
  994MOL0     C34101   4.927  11.970   8.675 -0.5040 -0.8398  0.1931
  994MOL0     O34102   4.796  11.703   8.626 -0.2480 -0.0578 -0.1119
  994MOL0     C34103   4.559  11.575   8.560  0.0554  0.0570 -0.9273
  994MOL0     C34104   4.429  11.522   8.550  0.5598  0.2474  0.7442
  994MOL0     N34105   3.687  11.076   8.574  0.3169  0.1836  0.8389
  994MOL0     N34106   3.654  10.946   8.585 -0.0619 -0.5854 -0.6629
  994MOL0     C34107   2.905  10.988   8.040  0.0933  0.2691 -0.0080
  994MOL0     C34108   2.780  10.930   8.030 -0.3123  0.2657  0.0594
  994MOL0     C34109   2.375  10.752   8.079  0.6879 -0.7506 -0.6203
  994MOL0     C34110   2.307  10.735   7.960 -0.0871 -0.1931  0.3641
  994MOL0     C34111   2.169  10.718   7.960  0.6553 -0.4646 -0.3238
  994MOL0     C34112   2.088  10.720   8.079 -0.0464  0.2996  0.3030
  994MOL0     O34113   1.952  10.716   8.053 -0.1870  0.3710  0.0499
  994MOL0     C34114   1.868  10.685   8.167 -0.2720 -0.0242  0.7155
  994MOL0     C34115   1.724  10.634   8.138  0.3893  0.0855  1.1447
  994MOL0     C34116   1.721  10.505   8.058  0.0141  0.1225  0.4167
  994MOL0     C34117   1.580  10.456   8.021  0.6073 -0.0258  0.8314
  994MOL0     C34118   1.592  10.318   7.963  0.0927  0.3366 -0.6753
  994MOL0     C34119   1.604  10.200   7.932 -0.0734 -0.0800 -0.3537
  994MOL0     C34120   2.152  10.743   8.201 -0.2181 -0.4425 -0.9919
  994MOL0     C34121   2.295  10.757   8.199  0.4022 -0.3843 -0.3952
  994MOL0     C34122   2.362  10.777   8.334 -0.6500  0.9447 -0.0621
  994MOL0     H34123   2.632  11.079   8.299  0.2863 -0.6368 -0.7708
  994MOL0     H34124   2.859  11.155   8.341 -1.0080  1.0485  0.4811
  994MOL0     H34125   3.226  11.203   8.238  1.0022 -1.5620 -0.7393
  994MOL0     H34126   3.085  11.211   8.333 -1.3520 -1.1059  0.5773
  994MOL0     H34127   3.098  10.954   8.370  1.4377 -2.6183  1.2412
  994MOL0     H34128   3.237  11.051   8.417  0.6176 -1.0023 -0.2974
  994MOL0     H34129   3.368  10.965   8.235  0.2912 -0.9207 -1.3965
  994MOL0     H34130   3.227  10.924   8.143  1.2059  2.7361 -0.9742
  994MOL0     H34131   3.300  10.802   8.414  5.6388  1.4008 -0.7363
  994MOL0     H34132   3.186  10.734   8.287  0.4094 -2.6794  1.1735
  994MOL0     H34133   3.375  10.606   8.287 -0.8633  0.6303  2.2860
  994MOL0     H34134   3.384  10.714   8.141  0.8318  0.2744 -0.1808
  994MOL0     H34135   3.604  10.715   8.219 -2.0107  0.1991 -2.0656
  994MOL0     H34136   3.535  10.860   8.296 -3.4265  0.3530 -0.2259
  994MOL0     H34137   3.570  10.580   8.407  0.4725  0.1591 -0.3616
  994MOL0     H34138   3.507  10.716   8.500 -2.7454  1.2549 -1.5461
  994MOL0     H34139   3.738  10.682   8.548 -2.2809  1.0910  0.2528
  994MOL0     H34140   3.781  10.693   8.383  0.9464 -4.1218  3.1153
  994MOL0     H34141   3.875  10.947   8.342  3.3620  1.8014  2.2462
  994MOL0     H34142   3.862  11.223   8.316 -0.8289  1.8467  0.0011
  994MOL0     H34143   3.764  11.306   8.436  0.0274 -0.2909  2.4658
  994MOL0     H34144   3.973  11.256   8.595 -1.8707 -2.5406 -0.0040
  994MOL0     H34145   4.057  11.201   8.460  1.3504  0.8857 -1.0506
  994MOL0     H34146   3.977  11.483   8.485 -2.3821 -0.0874 -0.7631
  994MOL0     H34147   4.013  11.398   8.326  0.3492  1.9277 -0.0438
  994MOL0     H34148   4.238  11.347   8.399  1.9766 -1.1329  1.9644
  994MOL0     H34149   4.200  11.387   8.561  0.1131  1.5090  0.0474
  994MOL0     H34150   4.291  11.770   8.352  2.3668 -1.4471 -3.1651
  994MOL0     H34151   4.521  11.874   8.399 -0.2813  0.2903  0.1878
  994MOL0     H34152   4.842  12.081   8.365 -0.3418 -0.6846  0.0237
  994MOL0     H34153   5.044  12.219   8.416  1.9493  0.6966  2.1640
  994MOL0     H34154   5.293  12.081   8.480  0.5040  1.4806 -0.8561
  994MOL0     H34155   5.291  12.254   8.441 -0.6307  1.7164  0.5439
  994MOL0     H34156   5.450  12.297   8.632  0.3176  0.2747 -0.9682
  994MOL0     H34157   5.412  12.146   8.699 -0.9184 -0.0537  0.2664
  994MOL0     H34158   5.527  12.039   8.509 -1.8337 -0.7495  2.0943
  994MOL0     H34159   5.579  12.195   8.456 -2.3874  0.4150 -0.3678
  994MOL0     H34160   5.621  12.090   8.755 -2.6997  2.0572  0.4322
  994MOL0     H34161   5.686  12.238   8.686  1.2856 -0.3952  1.0355
  994MOL0     H34162   5.825  12.098   8.525 -1.7695 -0.2758  0.2511
  994MOL0     H34163   5.762  11.957   8.610 -2.5630  1.0982  1.1055
  994MOL0     H34164   5.914  12.179   8.746  3.8027  0.4461 -2.3478
  994MOL0     H34165   5.886  12.018   8.818 -0.6994 -0.0831  0.2296
  994MOL0     H34166   6.069  12.053   8.577 -3.3045 -1.0187 -1.1287
  994MOL0     H34167   6.042  11.909   8.674 -0.1105  0.1639  1.4863
  994MOL0     H34168   6.153  12.151   8.817  2.6927 -0.4090  2.3864
  994MOL0     H34169   6.140  12.001   8.870  2.1140  2.4635  1.6490
  994MOL0     H34170   5.093  12.039   8.791 -0.7055  0.6247  0.1021
  994MOL0     H34171   4.890  11.899   8.748 -0.1584 -1.6178 -0.3646
  994MOL0     H34172   4.627  11.519   8.623 -2.0047 -0.5136  0.9320
  994MOL0     H34173   4.412  11.426   8.599  0.2543 -0.6926 -1.1059
  994MOL0     H34174   2.982  10.975   7.965 -0.3742 -0.3850 -0.3865
  994MOL0     H34175   2.773  10.865   7.943 -3.5328  1.8493 -1.0184
  994MOL0     H34176   2.361  10.735   7.866 -0.0762 -0.9413  0.3661
  994MOL0     H34177   2.113  10.722   7.867 -2.1678 -0.1468  1.2702
  994MOL0     H34178   1.849  10.773   8.228 -3.7941 -0.0809 -0.0615
  994MOL0     H34179   1.926  10.606   8.215  1.7122 -0.3641 -1.9815
  994MOL0     H34180   1.653  10.700   8.088  1.3250  0.5602  0.4286
  994MOL0     H34181   1.677  10.613   8.235  0.6391  0.2271  1.2956
  994MOL0     H34182   1.769  10.424   8.114 -2.2426 -0.9748  0.9214
  994MOL0     H34183   1.782  10.514   7.967 -0.0600 -1.6660  0.1519
  994MOL0     H34184   1.514  10.464   8.108  0.5733  0.2394  0.7807
  994MOL0     H34185   1.537  10.529   7.953  1.3761  0.1538  0.5259
  994MOL0     H34186   1.606  10.095   7.913 -2.5474 -0.5760  1.6631
  994MOL0     H34187   2.085  10.766   8.283  2.0042  2.0662  0.2586
  994MOL0     H34188   2.386  10.882   8.351 -0.6548  0.7425  1.3744
  994MOL0     H34189   2.289  10.747   8.410 -0.9245  0.5575 -0.4724
  994MOL0     H34190   2.446  10.709   8.345 -0.6056  0.4462 -2.7904
  995MOL0     O34191   1.587   4.862  10.932 -0.2878 -0.3088 -0.3358
  995MOL0     C34192   1.531   4.946  10.859 -1.0677  0.3966  0.3409
  995MOL0     O34193   1.565   5.076  10.836 -0.0818  0.1633 -0.5943
  995MOL0     C34194   1.685   5.126  10.885  0.4792 -0.0409 -0.5833
  995MOL0     C34195   1.804   5.050  10.880 -0.0584 -0.2652 -0.1016
  995MOL0     C34196   1.917   5.100  10.933  0.1354 -0.2472  0.0484
  995MOL0     C34197   1.918   5.231  10.985  0.4699 -0.2141 -0.4201
  995MOL0     O34198   2.039   5.279  11.036  0.5197  0.4025 -0.0334
  995MOL0     C34199   2.057   5.401  11.116 -0.8790  0.6652  0.4680
  995MOL0     C34200   2.065   5.516  11.011 -0.5580  0.0740 -0.8537
  995MOL0     C34201   2.178   5.529  10.907  0.1580  0.5102 -0.6962
  995MOL0     C34202   2.288   5.616  10.987 -0.4842  0.5769 -0.0752
  995MOL0     C34203   2.408   5.637  10.901  0.9152 -0.5748 -0.1503
  995MOL0     C34204   2.543   5.654  10.976  1.4394  1.0139 -0.5248
  995MOL0     C34205   2.647   5.661  10.861 -1.4159  0.1805  0.1818
  995MOL0     C34206   2.774   5.725  10.914 -0.4747 -0.3137 -0.1564
  995MOL0     N34207   2.891   5.709  10.822  0.6859 -0.4497  0.5790
  995MOL0     C34208   2.920   5.782  10.707  0.3317  0.5054  0.4119
  995MOL0     C34209   3.060   5.771  10.692 -0.3482 -0.0032  0.0331
  995MOL0     C34210   3.134   5.862  10.604  0.5582 -0.3465 -0.1268
  995MOL0     C34211   3.172   5.809  10.464 -0.7075  0.8870  0.0641
  995MOL0     C34212   3.259   5.685  10.475  0.6605 -0.4232  1.1164
  995MOL0     C34213   3.374   5.667  10.578  0.1180  0.3985  0.2990
  995MOL0     O34214   3.442   5.787  10.583  0.2835 -0.4395  0.2032
  995MOL0     C34215   3.532   5.809  10.690  0.7432 -0.5393 -0.0712
  995MOL0     C34216   3.604   5.713  10.764  1.2198 -0.3376  1.4207
  995MOL0     C34217   3.689   5.745  10.870 -0.1856 -0.0971 -0.6900
  995MOL0     C34218   3.707   5.883  10.911 -0.4183  0.1556 -0.4727
  995MOL0     C34219   3.800   5.916  11.024  0.2414 -0.6161 -0.2539
  995MOL0     O34220   3.848   6.048  11.024  0.1948  0.3074  0.1826
  995MOL0     C34221   3.944   6.069  11.118 -0.0639 -0.3568  0.1939
  995MOL0     C34222   3.909   6.100  11.256  0.5806 -0.1243 -0.2081
  995MOL0     C34223   4.001   6.124  11.350 -0.3780  0.9480  1.2338
  995MOL0     C34224   4.134   6.145  11.307  0.5120  0.1086 -0.5070
  995MOL0     O34225   4.233   6.177  11.396  0.4902 -0.3645  0.9555
  995MOL0     C34226   4.224   6.178  11.537  1.1118 -0.2942  0.1664
  995MOL0     C34227   4.365   6.201  11.588 -0.0110 -0.0366 -0.3391
  995MOL0     C34228   4.365   6.227  11.739 -0.1702  0.8424 -0.6562
  995MOL0     C34229   4.476   6.327  11.782 -0.0719 -0.3325 -0.2867
  995MOL0     C34230   4.607   6.258  11.815 -0.9194 -0.3493 -0.6344
  995MOL0     C34231   4.713   6.349  11.870 -0.9550 -0.1057 -0.4760
  995MOL0     C34232   4.850   6.282  11.862 -0.8293 -0.2702  0.1018
  995MOL0     C34233   4.938   6.302  11.982  0.1435 -0.4197  0.1248
  995MOL0    Cl34234   4.971   6.473  11.983  0.1839 -0.2807  0.2217
  995MOL0     C34235   4.173   6.126  11.176 -0.5736 -0.1276 -0.3511
  995MOL0     C34236   4.080   6.089  11.083  0.6291  0.4888  0.7608
  995MOL0     O34237   3.835   5.829  11.101  0.4852  0.1426  0.2784
  995MOL0     C34238   3.622   5.982  10.845 -0.0210  0.5426 -0.7836
  995MOL0     C34239   3.550   5.948  10.729  0.1973 -0.4549  0.0928
  995MOL0     N34240   3.107   5.672  10.780  0.4272  0.4991 -0.0814
  995MOL0     N34241   3.007   5.642  10.851  0.1692  0.1922  0.4133
  995MOL0     C34242   1.796   5.303  10.995 -0.4977 -0.3133 -0.8948
  995MOL0     C34243   1.679   5.251  10.949 -0.4811  0.4616  0.3160
  995MOL0     C34244   1.409   4.900  10.786 -0.4963  0.6038  1.1894
  995MOL0     C34245   1.362   4.980  10.682  0.1703 -0.4694  0.3620
  995MOL0     C34246   1.236   4.950  10.618  0.1825 -0.1818 -0.1347
  995MOL0     C34247   1.169   4.832  10.642  0.3069 -0.4514 -1.2807
  995MOL0     O34248   1.054   4.823  10.579  0.4247 -0.0366 -0.1573
  995MOL0     C34249   0.966   4.707  10.570 -1.2378  0.1004 -0.4293
  995MOL0     C34250   0.819   4.740  10.600  0.5053  0.4205  0.1786
  995MOL0     C34251   0.795   4.817  10.735  0.1055  0.5610 -0.5580
  995MOL0     C34252   0.648   4.864  10.750  0.2018 -0.0556 -0.7880
  995MOL0     C34253   0.608   4.857  10.889 -0.6953  0.5436  0.1442
  995MOL0     C34254   0.579   4.835  11.008 -0.0027 -0.2016  0.2247
  995MOL0     C34255   1.227   4.738  10.734  0.8016  1.2235 -0.8422
  995MOL0     C34256   1.335   4.778  10.810 -0.3298 -0.5744  0.4865
  995MOL0     C34257   1.373   4.686  10.929 -0.6118  0.4051 -0.3870
  995MOL0     H34258   1.800   4.952  10.833  0.0338  0.4136 -1.5901
  995MOL0     H34259   2.012   5.048  10.922 -0.3413 -0.7154 -2.5563
  995MOL0     H34260   1.979   5.400  11.192 -1.2269 -3.8502  0.3288
  995MOL0     H34261   2.155   5.382  11.160 -0.3065  0.0843 -0.9837
  995MOL0     H34262   2.052   5.612  11.063  0.2954 -0.6325  0.7168
  995MOL0     H34263   1.973   5.513  10.952 -0.3882  0.4261 -1.1428
  995MOL0     H34264   2.147   5.580  10.815  0.5252 -2.6653 -2.7419
  995MOL0     H34265   2.226   5.436  10.875  3.1245  1.0758  1.7076
  995MOL0     H34266   2.251   5.704  11.042 -0.3174 -1.3213  3.3488
  995MOL0     H34267   2.318   5.557  11.073  0.1149  0.2425 -0.5086
  995MOL0     H34268   2.412   5.559  10.824 -2.4451  1.1373 -2.3041
  995MOL0     H34269   2.389   5.725  10.839 -0.1378 -0.3556  0.4516
  995MOL0     H34270   2.553   5.734  11.049  1.6678  0.3947  0.1397
  995MOL0     H34271   2.562   5.559  11.027 -1.0653 -0.3027 -1.8404
  995MOL0     H34272   2.611   5.725  10.780  1.5619  1.8248  0.0136
  995MOL0     H34273   2.669   5.564  10.815  0.7809 -0.1728  1.7802
  995MOL0     H34274   2.743   5.830  10.923 -1.1811 -0.5138 -0.2249
  995MOL0     H34275   2.798   5.686  11.013  0.1062 -0.1116 -0.2112
  995MOL0     H34276   2.839   5.819  10.645 -2.3899 -2.8183  1.6689
  995MOL0     H34277   3.066   5.946  10.591  2.0730  1.1797  1.3753
  995MOL0     H34278   3.224   5.889  10.660 -0.9552  0.2006  2.1539
  995MOL0     H34279   3.083   5.783  10.406 -1.3122  1.8180  0.5484
  995MOL0     H34280   3.231   5.887  10.413  2.1186 -1.3668 -0.4021
  995MOL0     H34281   3.298   5.661  10.376 -0.8339  0.0265  0.3730
  995MOL0     H34282   3.190   5.604  10.500  2.2942 -1.3688  2.7722
  995MOL0     H34283   3.445   5.592  10.542  1.1309 -0.1397  3.1702
  995MOL0     H34284   3.342   5.636  10.678  1.8187  0.5757  0.9169
  995MOL0     H34285   3.600   5.607  10.739  0.8404 -0.0356  0.1118
  995MOL0     H34286   3.748   5.674  10.926  1.5865  1.6027 -0.2876
  995MOL0     H34287   3.805   6.105  11.286  1.3066  0.7395  2.3566
  995MOL0     H34288   3.974   6.150  11.452 -3.7455  1.2166  0.3959
  995MOL0     H34289   4.163   6.255  11.583  1.2184  0.6463 -1.2076
  995MOL0     H34290   4.174   6.085  11.566 -0.3861  0.0899 -1.0387
  995MOL0     H34291   4.420   6.110  11.563 -0.5653 -1.1736  2.2272
  995MOL0     H34292   4.410   6.282  11.530 -0.4448 -0.4594 -1.2728
  995MOL0     H34293   4.274   6.277  11.773 -0.7329 -0.0433 -0.8190
  995MOL0     H34294   4.375   6.130  11.790 -0.7592 -0.2005 -2.4195
  995MOL0     H34295   4.463   6.388  11.872 -0.3271 -0.9123  0.0761
  995MOL0     H34296   4.492   6.399  11.702  0.4654  0.5640  0.6093
  995MOL0     H34297   4.645   6.213  11.723  0.0935 -1.1456  0.1454
  995MOL0     H34298   4.582   6.175  11.882  1.9510 -1.2999 -0.6086
  995MOL0     H34299   4.710   6.437  11.806  1.1811 -0.3094 -0.9211
  995MOL0     H34300   4.700   6.390  11.971  2.4954 -0.3053  0.1536
  995MOL0     H34301   4.910   6.320  11.779  1.5176  0.2980  1.9201
  995MOL0     H34302   4.832   6.175  11.853 -1.3565 -0.1584 -0.1805
  995MOL0     H34303   4.874   6.270  12.065  0.4613 -0.7711  0.2375
  995MOL0     H34304   5.033   6.247  11.979  0.4950  0.1703 -3.1594
  995MOL0     H34305   4.274   6.138  11.140 -1.2362  2.6176 -1.5278
  995MOL0     H34306   4.117   6.086  10.981  0.8184  0.7134  0.8226
  995MOL0     H34307   3.635   6.081  10.889  0.7797 -0.1350  0.5862
  995MOL0     H34308   3.493   6.023  10.674  3.0789  1.8455 -0.0086
  995MOL0     H34309   1.799   5.395  11.053  2.2719 -1.6962  1.4055
  995MOL0     H34310   1.583   5.302  10.953 -0.9208 -0.3628  0.3809
  995MOL0     H34311   1.427   5.053  10.635 -0.7058  0.1030  0.0124
  995MOL0     H34312   1.195   5.022  10.549 -2.0693 -1.0904  0.1419
  995MOL0     H34313   1.000   4.635  10.645  0.2645 -1.6687 -2.6372
  995MOL0     H34314   0.965   4.670  10.467  1.9704  2.4994 -1.5044
  995MOL0     H34315   0.766   4.644  10.602  2.0954 -0.5192  2.9622
  995MOL0     H34316   0.780   4.798  10.516 -0.5087  4.4316  3.1001
  995MOL0     H34317   0.862   4.903  10.747  0.1992  0.2256  1.7621
  995MOL0     H34318   0.830   4.745  10.809  1.0877  0.7059 -0.8641
  995MOL0     H34319   0.635   4.968  10.719  1.7454  0.9544  1.6513
  995MOL0     H34320   0.582   4.796  10.696  0.2354 -1.4532  0.8682
  995MOL0     H34321   0.537   4.817  11.105 -3.6863 -2.2028 -1.5283
  995MOL0     H34322   1.183   4.643  10.761  1.4235  1.9966  3.6052
  995MOL0     H34323   1.473   4.647  10.907 -1.7045 -2.1411 -1.2199
  995MOL0     H34324   1.361   4.730  11.028 -3.0068 -0.2053 -0.3357
  995MOL0     H34325   1.314   4.594  10.939 -1.2575  1.1081  3.6735
  996MOL0     O34326   3.193   7.860   9.967 -0.6366  0.8137  0.0432
  996MOL0     C34327   3.146   7.971   9.949  1.0282 -1.0046 -0.1351
  996MOL0     O34328   3.211   8.092   9.938 -0.0557  0.6529 -0.2348
  996MOL0     C34329   3.344   8.090   9.958  0.7704  0.7315 -0.0817
  996MOL0     C34330   3.432   8.010   9.887  0.6954  0.3040  0.6654
  996MOL0     C34331   3.565   8.031   9.902 -0.1834  0.6822 -0.0717
  996MOL0     C34332   3.619   8.111  10.005 -0.4582  0.8113  0.1360
  996MOL0     O34333   3.742   8.088  10.059  0.3758  0.0341 -0.4057
  996MOL0     C34334   3.817   8.209  10.074 -0.1482  0.1022 -0.4435
  996MOL0     C34335   3.962   8.170  10.108 -0.4742 -0.5058  0.0484
  996MOL0     C34336   4.053   8.297  10.132 -0.2700  0.0010 -0.0167
  996MOL0     C34337   4.199   8.252  10.153 -0.0533  0.1167 -0.0632
  996MOL0     C34338   4.302   8.369  10.177  0.5183  0.2941  0.3635
  996MOL0     C34339   4.448   8.303  10.180  0.0710 -0.5409 -0.2485
  996MOL0     C34340   4.551   8.406  10.189  0.5350 -0.3201 -0.1426
  996MOL0     C34341   4.681   8.336  10.235  0.4257  0.4933  0.7175
  996MOL0     N34342   4.789   8.428  10.275  0.3057  0.0291 -0.2115
  996MOL0     C34343   4.923   8.396  10.257 -1.1627 -0.8682 -0.1117
  996MOL0     C34344   4.984   8.488  10.337 -0.0749  0.6967  0.5784
  996MOL0     C34345   5.128   8.484  10.369  0.0690 -0.3904 -0.2232
  996MOL0     C34346   5.208   8.606  10.323  0.4004  0.1806  0.4062
  996MOL0     C34347   5.350   8.586  10.358 -0.8317 -0.1902 -0.0307
  996MOL0     C34348   5.427   8.705  10.301  0.6295 -0.6925  1.0592
  996MOL0     O34349   5.560   8.706  10.364 -0.3099 -0.4742  0.6276
  996MOL0     C34350   5.652   8.613  10.327 -0.1392 -0.0751 -0.2856
  996MOL0     C34351   5.728   8.556  10.425  0.0000 -0.1854  0.0133
  996MOL0     C34352   5.829   8.466  10.399  0.5552  0.3370  0.2662
  996MOL0     C34353   5.842   8.423  10.262  0.9543  0.5240  0.3380
  996MOL0     C34354   5.933   8.305  10.215 -0.3983  0.3132 -0.1335
  996MOL0     O34355   6.022   8.256  10.306 -0.6907 -0.4636 -0.2290
  996MOL0     C34356   6.117   8.167  10.269 -0.1111 -0.1076 -0.4341
  996MOL0     C34357   6.098   8.046  10.206 -0.7339  0.1313 -0.8951
  996MOL0     C34358   6.207   7.960  10.178  0.7180  0.1627 -1.3694
  996MOL0     C34359   6.340   7.996  10.222  0.3813 -0.2446  0.1805
  996MOL0     O34360   6.432   7.892  10.200 -0.4258 -0.5952  0.3363
  996MOL0     C34361   6.569   7.918  10.250 -0.3387  0.0051 -0.4173
  996MOL0     C34362   6.656   7.800  10.205  0.1512  0.6563 -0.6405
  996MOL0     C34363   6.800   7.855  10.167  0.5524 -0.6089  0.1810
  996MOL0     C34364   6.888   7.734  10.125 -1.1013 -0.4998 -0.3070
  996MOL0     C34365   7.025   7.771  10.080 -0.7053 -0.1780 -0.1722
  996MOL0     C34366   7.094   7.644  10.020 -0.1995 -0.4524  0.0393
  996MOL0     C34367   7.241   7.657   9.978  0.4361  0.0602  0.6484
  996MOL0     C34368   7.344   7.654  10.090  0.0448 -0.0877  0.0385
  996MOL0    Cl34369   7.501   7.700  10.022 -0.0551 -0.3993  0.1601
  996MOL0     C34370   6.358   8.118  10.288  0.0340  0.7143 -0.7858
  996MOL0     C34371   6.242   8.198  10.315 -1.2540 -0.8846 -0.4838
  996MOL0     O34372   5.906   8.254  10.104  0.3536 -0.4053 -0.1018
  996MOL0     C34373   5.763   8.489  10.159  0.1291  0.0732  0.4752
  996MOL0     C34374   5.670   8.584  10.196 -0.6313  0.0959  0.4391
  996MOL0     N34375   4.895   8.578  10.385 -0.0305 -0.4002  0.3073
  996MOL0     N34376   4.774   8.538  10.357 -0.8528  0.0881  1.0650
  996MOL0     C34377   3.526   8.194  10.079  0.1648  0.1924  0.0850
  996MOL0     C34378   3.386   8.183  10.048 -0.1152 -0.9586 -0.6545
  996MOL0     C34379   2.990   7.970   9.965 -0.0418 -0.2669  0.5220
  996MOL0     C34380   2.926   7.858   9.904  0.3897  0.7631  1.0128
  996MOL0     C34381   2.790   7.845   9.907 -0.5087 -0.1440  0.3011
  996MOL0     C34382   2.715   7.948   9.975  0.7499 -0.3411  0.8807
  996MOL0     O34383   2.574   7.932   9.984  0.1996 -0.2170  0.4934
  996MOL0     C34384   2.508   7.837   9.897 -0.7032  0.3982  0.1778
  996MOL0     C34385   2.358   7.870   9.902  0.0266 -0.2824  0.7650
  996MOL0     C34386   2.301   7.890  10.043 -0.4773  0.3437  0.0223
  996MOL0     C34387   2.149   7.891  10.039 -0.1004 -0.3680  0.2826
  996MOL0     C34388   2.097   7.792  10.135  0.9910 -0.2697  0.1457
  996MOL0     C34389   2.055   7.701  10.207 -0.9710 -0.8336  0.3496
  996MOL0     C34390   2.780   8.056  10.034  0.6148 -0.1203 -0.7566
  996MOL0     C34391   2.918   8.062  10.038 -0.6032 -0.3592 -0.1276
  996MOL0     C34392   2.985   8.167  10.120  0.1025 -0.0036  0.3228
  996MOL0     H34393   3.396   7.941   9.811 -0.0911 -0.7355  1.9462
  996MOL0     H34394   3.629   7.971   9.838 -0.4702  0.6312 -0.3136
  996MOL0     H34395   3.814   8.269   9.982 -4.4215  0.4517 -0.2877
  996MOL0     H34396   3.777   8.272  10.154 -0.4281 -1.0276  0.3333
  996MOL0     H34397   4.011   8.116  10.027  0.4340 -0.6493  0.6672
  996MOL0     H34398   3.966   8.098  10.191 -0.7014 -1.8597 -1.0761
  996MOL0     H34399   4.011   8.356  10.213  0.0467 -0.2357  0.3221
  996MOL0     H34400   4.051   8.366  10.047 -0.6189  2.9864  2.2814
  996MOL0     H34401   4.196   8.193  10.245  1.4608  1.1644  0.6995
  996MOL0     H34402   4.223   8.183  10.073 -0.2716 -0.7385  0.5937
  996MOL0     H34403   4.299   8.441  10.095 -3.4267 -0.1805 -0.0613
  996MOL0     H34404   4.280   8.422  10.270  0.4141 -0.2848  0.6795
  996MOL0     H34405   4.445   8.245  10.273  0.6617 -0.1953 -0.0102
  996MOL0     H34406   4.471   8.238  10.095  0.3112 -1.3902  0.4493
  996MOL0     H34407   4.516   8.477  10.265 -0.5600 -0.7599 -0.2218
  996MOL0     H34408   4.560   8.453  10.091 -0.8125  2.4977  0.9748
  996MOL0     H34409   4.665   8.267  10.318 -4.1450  0.0998 -0.2612
  996MOL0     H34410   4.722   8.283  10.148 -2.5034  2.1666 -1.8783
  996MOL0     H34411   4.972   8.314  10.204  1.6416  1.5827 -1.6323
  996MOL0     H34412   5.131   8.489  10.478 -2.0575  1.2317 -0.1689
  996MOL0     H34413   5.171   8.394  10.325 -1.4713 -1.1290 -0.2625
  996MOL0     H34414   5.190   8.616  10.215 -0.1162  0.4290  0.5110
  996MOL0     H34415   5.166   8.698  10.365 -0.7029 -0.4896  0.8101
  996MOL0     H34416   5.393   8.488  10.335  1.1092 -0.2508  3.2153
  996MOL0     H34417   5.354   8.591  10.467  0.2414  0.0929 -0.0704
  996MOL0     H34418   5.375   8.799  10.320 -0.7710 -1.0844 -0.4784
  996MOL0     H34419   5.415   8.692  10.193 -2.2509  0.8952  1.0870
  996MOL0     H34420   5.713   8.583  10.529  1.6076 -0.5622  0.3785
  996MOL0     H34421   5.899   8.418  10.466 -0.3941 -0.6990  0.5489
  996MOL0     H34422   6.000   8.014  10.174 -0.3367 -3.5522  0.9998
  996MOL0     H34423   6.198   7.870  10.118 -1.4530  0.5568 -1.7092
  996MOL0     H34424   6.613   8.006  10.202  0.9653  0.2822  1.2089
  996MOL0     H34425   6.576   7.941  10.356  1.8694  1.6201 -0.8462
  996MOL0     H34426   6.671   7.725  10.283  0.7153 -1.3562 -2.5906
  996MOL0     H34427   6.615   7.758  10.113 -0.4231  0.8607 -0.4830
  996MOL0     H34428   6.793   7.935  10.093 -1.1211  1.0212  1.9712
  996MOL0     H34429   6.843   7.904  10.255 -1.2891  0.1851  0.7007
  996MOL0     H34430   6.848   7.665  10.049  0.8429 -0.6998 -1.2045
  996MOL0     H34431   6.907   7.682  10.219 -0.1280  0.7337  0.2023
  996MOL0     H34432   7.077   7.821  10.163 -0.9804 -0.8444  0.4091
  996MOL0     H34433   7.021   7.849  10.004  1.2916  1.2600  1.0834
  996MOL0     H34434   7.101   7.565  10.096  2.9018  2.9686  3.8397
  996MOL0     H34435   7.026   7.609   9.942  0.8869 -0.2769 -1.0102
  996MOL0     H34436   7.258   7.735   9.903 -1.3216  1.2169  1.4084
  996MOL0     H34437   7.253   7.558   9.933 -4.4825 -2.7532  4.5349
  996MOL0     H34438   7.309   7.735  10.154  0.5334 -1.1422  1.6924
  996MOL0     H34439   7.351   7.556  10.136 -3.2449 -0.6551 -0.4603
  996MOL0     H34440   6.450   8.135  10.343  0.8293 -3.1578 -0.6151
  996MOL0     H34441   6.274   8.288  10.367 -0.1198 -1.2292 -0.5540
  996MOL0     H34442   5.783   8.461  10.056 -0.3324  0.9998  0.1208
  996MOL0     H34443   5.612   8.633  10.118  0.7447 -2.6055 -2.4696
  996MOL0     H34444   3.564   8.258  10.158  0.4316  0.6142 -0.3819
  996MOL0     H34445   3.308   8.242  10.094 -1.3651 -2.4094 -0.8165
  996MOL0     H34446   2.980   7.779   9.853 -1.5477  0.5107 -0.7771
  996MOL0     H34447   2.748   7.767   9.845  0.0443  0.2826 -0.6361
  996MOL0     H34448   2.540   7.736   9.924 -0.4893  0.7986  1.5041
  996MOL0     H34449   2.541   7.853   9.794  1.1941 -0.7621  0.5629
  996MOL0     H34450   2.307   7.783   9.860  1.2596 -1.4960  1.7068
  996MOL0     H34451   2.338   7.955   9.836  0.3117  0.7796  2.0102
  996MOL0     H34452   2.348   7.981  10.081  2.2459 -0.3887 -1.2912
  996MOL0     H34453   2.341   7.811  10.106  1.4079  1.3486  0.1681
  996MOL0     H34454   2.121   7.994  10.061  2.8873  0.7863 -0.8968
  996MOL0     H34455   2.108   7.851   9.945  1.1302 -1.9101  0.3706
  996MOL0     H34456   2.019   7.619  10.265 -1.8573 -0.2582  0.6242
  996MOL0     H34457   2.738   8.133  10.097  3.9882  1.8468 -0.6195
  996MOL0     H34458   3.016   8.245  10.050  0.2941 -0.3530  0.0166
  996MOL0     H34459   2.912   8.211  10.189 -1.6867 -0.2864 -1.2783
  996MOL0     H34460   3.075   8.134  10.172  1.0343 -0.1845 -1.3277
  997MOL0     O34461   2.963   3.348   8.571 -0.1035 -0.7644 -0.2129
  997MOL0     C34462   2.888   3.423   8.507  0.5151  0.1383 -0.2183
  997MOL0     O34463   2.930   3.538   8.441  0.0029 -0.2983  0.4137
  997MOL0     C34464   3.036   3.603   8.489  0.3658 -0.8867 -0.1641
  997MOL0     C34465   3.167   3.575   8.436 -0.3752  0.7064  0.1234
  997MOL0     C34466   3.273   3.647   8.490  0.2443 -0.4335  0.2522
  997MOL0     C34467   3.257   3.743   8.592 -1.1056 -0.1841 -0.2315
  997MOL0     O34468   3.362   3.818   8.647  0.0875  0.1550  0.3025
  997MOL0     C34469   3.495   3.763   8.639 -0.3765  0.8498 -0.0668
  997MOL0     C34470   3.519   3.627   8.706  0.3559  0.3554 -0.0473
  997MOL0     C34471   3.656   3.573   8.682  0.4909  0.8593  0.0012
  997MOL0     C34472   3.754   3.628   8.781 -0.0855 -0.0378  0.2047
  997MOL0     C34473   3.874   3.543   8.771 -0.0825 -1.1902  0.2017
  997MOL0     C34474   3.995   3.615   8.852  0.4422  0.2431  0.8875
  997MOL0     C34475   4.113   3.516   8.836  0.2061  0.1970  0.1715
  997MOL0     C34476   4.235   3.579   8.889 -0.3730  0.6217  0.1268
  997MOL0     N34477   4.345   3.484   8.916 -0.4715 -0.1563  0.2787
  997MOL0     C34478   4.406   3.416   8.818  0.0008  0.1058  0.6650
  997MOL0     C34479   4.497   3.337   8.872 -0.4440 -0.6388  0.6778
  997MOL0     C34480   4.598   3.247   8.787 -0.2026 -0.3255  0.1715
  997MOL0     C34481   4.711   3.197   8.868  0.4559  0.0799  0.0974
  997MOL0     C34482   4.837   3.171   8.775  0.8308 -0.2050  0.5675
  997MOL0     C34483   4.974   3.136   8.836  0.5721  0.4035 -0.4252
  997MOL0     O34484   5.055   3.120   8.720 -0.0057 -0.0093  0.3695
  997MOL0     C34485   5.184   3.066   8.727  0.1661  0.0607 -0.1098
  997MOL0     C34486   5.247   3.036   8.851  0.2611 -0.4098  0.4289
  997MOL0     C34487   5.376   2.973   8.858  0.4300  0.0396 -0.7026
  997MOL0     C34488   5.445   2.956   8.734  0.0038  1.2769 -0.5909
  997MOL0     C34489   5.580   2.881   8.730 -0.2809 -0.2729 -1.2352
  997MOL0     O34490   5.632   2.844   8.851 -0.0178  0.2260 -0.0558
  997MOL0     C34491   5.758   2.781   8.853  0.3284  0.1078 -0.1069
  997MOL0     C34492   5.873   2.845   8.798 -0.6339 -0.5494  0.5561
  997MOL0     C34493   5.999   2.786   8.809 -0.1304 -0.0123  0.1234
  997MOL0     C34494   6.016   2.664   8.877  0.2460  0.2774 -0.3193
  997MOL0     O34495   6.139   2.607   8.884 -0.7801  0.5343  0.1157
  997MOL0     C34496   6.238   2.628   8.782 -1.0059  0.5233 -0.0941
  997MOL0     C34497   6.357   2.542   8.831 -0.3376 -0.1149 -0.2138
  997MOL0     C34498   6.458   2.523   8.717 -0.7008  0.7355  0.1373
  997MOL0     C34499   6.567   2.420   8.752  0.1533 -0.5850  0.7594
  997MOL0     C34500   6.688   2.427   8.657 -0.1462  1.0322 -0.6131
  997MOL0     C34501   6.804   2.344   8.713 -0.3082 -0.0359  0.0966
  997MOL0     C34502   6.922   2.356   8.622 -0.0970 -0.2571  0.2895
  997MOL0     C34503   7.040   2.286   8.687 -0.1353  0.3112 -0.0917
  997MOL0    Cl34504   7.081   2.329   8.858  0.8141  0.3029  0.0820
  997MOL0     C34505   5.906   2.606   8.941 -0.5645  0.0352 -0.2219
  997MOL0     C34506   5.776   2.656   8.915 -0.0554 -0.4039 -0.4219
  997MOL0     O34507   5.636   2.857   8.625  0.0072  0.1689 -0.0328
  997MOL0     C34508   5.382   2.984   8.613  0.0209 -0.2479 -0.0245
  997MOL0     C34509   5.258   3.046   8.604  0.4618  0.7218 -0.1999
  997MOL0     N34510   4.495   3.364   9.006 -1.3649  0.5526  0.0773
  997MOL0     N34511   4.404   3.442   9.039  0.2056 -0.0030  0.0171
  997MOL0     C34512   3.128   3.772   8.640  0.3812  0.7575  0.7057
  997MOL0     C34513   3.016   3.704   8.582 -0.4605  0.0689  0.2359
  997MOL0     C34514   2.739   3.391   8.489 -0.7162 -0.8258 -1.1207
  997MOL0     C34515   2.644   3.501   8.479  0.8294  0.2236 -0.5587
  997MOL0     C34516   2.513   3.477   8.438 -0.3208  0.0974  0.8074
  997MOL0     C34517   2.469   3.348   8.424  0.0965 -0.5048 -0.3308
  997MOL0     O34518   2.338   3.313   8.392 -0.2865  0.1148  0.4552
  997MOL0     C34519   2.235   3.393   8.458 -0.0845  0.5867 -0.0017
  997MOL0     C34520   2.178   3.302   8.567  0.0256  0.0911 -0.3016
  997MOL0     C34521   2.073   3.368   8.659 -0.9444 -0.1838  0.1080
  997MOL0     C34522   1.944   3.288   8.679 -0.3289  0.0957  0.1843
  997MOL0     C34523   1.877   3.262   8.553  0.9931  0.1806  0.5706
  997MOL0     C34524   1.821   3.247   8.446  1.5514 -0.6393 -0.2953
  997MOL0     C34525   2.558   3.243   8.438 -0.3878  0.2338  0.0461
  997MOL0     C34526   2.696   3.255   8.483 -0.2426  0.1059  0.5319
  997MOL0     C34527   2.777   3.131   8.506 -0.0229 -0.6234 -0.2514
  997MOL0     H34528   3.190   3.501   8.360  0.6132  0.8445  0.2658
  997MOL0     H34529   3.377   3.631   8.462 -0.0764 -1.2612 -0.5201
  997MOL0     H34530   3.528   3.748   8.536  0.0901 -3.3725  0.5232
  997MOL0     H34531   3.562   3.834   8.688  0.1773  0.5082 -0.3283
  997MOL0     H34532   3.442   3.563   8.661  0.8865 -0.2807 -0.0725
  997MOL0     H34533   3.497   3.629   8.813  0.4700  2.4667 -0.0325
  997MOL0     H34534   3.687   3.584   8.578  1.5028 -3.8132 -0.4245
  997MOL0     H34535   3.655   3.466   8.704  1.8537  0.8156 -0.0469
  997MOL0     H34536   3.768   3.734   8.758 -0.7708  0.2211  0.9500
  997MOL0     H34537   3.719   3.610   8.883 -0.9416  0.6740  0.0489
  997MOL0     H34538   3.863   3.444   8.815  0.7136 -0.4410  2.2514
  997MOL0     H34539   3.908   3.525   8.669  0.2224 -3.2690  0.6381
  997MOL0     H34540   4.018   3.710   8.802 -1.4153 -0.0250 -0.6015
  997MOL0     H34541   3.956   3.641   8.950 -3.0121  1.6495 -0.7142
  997MOL0     H34542   4.129   3.481   8.734  0.2648  0.4018  0.1098
  997MOL0     H34543   4.088   3.425   8.891 -2.7776 -0.6938 -2.3722
  997MOL0     H34544   4.272   3.659   8.824  0.9513  0.3690  0.5392
  997MOL0     H34545   4.196   3.628   8.980  0.2143 -0.0784  0.7643
  997MOL0     H34546   4.378   3.420   8.713 -0.1624 -0.6614  0.6688
  997MOL0     H34547   4.539   3.162   8.752 -1.3678  0.6904 -0.4055
  997MOL0     H34548   4.628   3.294   8.694 -0.1820  1.5686  1.0964
  997MOL0     H34549   4.742   3.271   8.943  1.6788  1.4410 -1.6333
  997MOL0     H34550   4.669   3.107   8.914 -0.8589  0.1777 -0.8613
  997MOL0     H34551   4.843   3.263   8.716 -2.5990 -2.3693 -3.7973
  997MOL0     H34552   4.803   3.089   8.711 -2.5641  1.7284 -0.3465
  997MOL0     H34553   4.958   3.052   8.904  0.2478  2.2943  1.9627
  997MOL0     H34554   5.013   3.222   8.890  0.9505  0.3229 -0.5684
  997MOL0     H34555   5.184   3.051   8.938 -0.3028 -1.1601  0.1666
  997MOL0     H34556   5.426   2.943   8.950  0.0201  1.7192  0.1006
  997MOL0     H34557   5.854   2.936   8.741  0.0657 -0.5600  0.3007
  997MOL0     H34558   6.083   2.840   8.766 -2.4444  1.5883 -2.6950
  997MOL0     H34559   6.199   2.594   8.686  0.4510 -1.7230  0.0320
  997MOL0     H34560   6.262   2.735   8.784 -1.3386  0.6066  1.7172
  997MOL0     H34561   6.406   2.595   8.913 -0.3999 -2.0271  1.1404
  997MOL0     H34562   6.324   2.444   8.867 -0.1089  0.0034  0.3247
  997MOL0     H34563   6.401   2.499   8.627  0.4779  0.1396 -0.4721
  997MOL0     H34564   6.508   2.618   8.694  0.1401  0.7169  1.7140
  997MOL0     H34565   6.532   2.317   8.754  0.2785 -0.6479 -0.1228
  997MOL0     H34566   6.593   2.444   8.856 -1.7344 -1.4998  1.4849
  997MOL0     H34567   6.712   2.532   8.642  0.4353  0.8820 -0.7500
  997MOL0     H34568   6.659   2.384   8.560  2.3549 -0.5243 -0.7641
  997MOL0     H34569   6.822   2.391   8.810  2.0968  0.9382 -0.7227
  997MOL0     H34570   6.780   2.238   8.719  2.4043 -0.8962 -1.7904
  997MOL0     H34571   6.946   2.463   8.614 -2.8513  0.6919  2.7063
  997MOL0     H34572   6.908   2.320   8.520  1.5681  1.3888 -0.5701
  997MOL0     H34573   7.031   2.179   8.667  2.9020  0.0308 -0.5079
  997MOL0     H34574   7.129   2.310   8.628  0.8658  0.6093  1.4739
  997MOL0     H34575   5.914   2.513   8.997  0.2879  0.1557 -0.1358
  997MOL0     H34576   5.692   2.594   8.944  1.6157 -2.1301  0.9826
  997MOL0     H34577   5.430   2.969   8.517 -1.2241 -0.4845 -0.6190
  997MOL0     H34578   5.203   3.057   8.511  1.2154 -2.1413 -1.0984
  997MOL0     H34579   3.111   3.846   8.718  0.7331  0.6949  0.8456
  997MOL0     H34580   2.919   3.722   8.628 -1.7905  0.0109 -2.3504
  997MOL0     H34581   2.681   3.603   8.476 -0.5620  0.7347 -0.6412
  997MOL0     H34582   2.455   3.566   8.420 -0.1997  0.1378  0.6239
  997MOL0     H34583   2.155   3.413   8.385 -0.5840  0.5045  0.5205
  997MOL0     H34584   2.269   3.490   8.496  3.1599 -0.3317 -0.2540
  997MOL0     H34585   2.263   3.280   8.634  0.4942 -1.1785 -1.2839
  997MOL0     H34586   2.144   3.207   8.526 -0.3360  0.0368  0.1167
  997MOL0     H34587   2.037   3.457   8.607 -1.1562 -0.6754 -0.6027
  997MOL0     H34588   2.105   3.393   8.761  0.9373 -0.9793 -0.2443
  997MOL0     H34589   1.980   3.196   8.727  3.3618  1.7333  0.9205
  997MOL0     H34590   1.879   3.337   8.751  1.1205  1.4280  0.6539
  997MOL0     H34591   1.769   3.244   8.352 -0.1491 -0.6999  0.6110
  997MOL0     H34592   2.523   3.142   8.417  2.8104 -1.1096  0.5435
  997MOL0     H34593   2.807   3.129   8.611  0.6055  2.1876 -0.2893
  997MOL0     H34594   2.722   3.038   8.492  0.3214 -1.0235  0.9587
  997MOL0     H34595   2.860   3.131   8.434 -0.4657 -2.0538 -0.7877
  998MOL0     O34596   7.502   9.223   8.737  0.4324  0.0200  0.8890
  998MOL0     C34597   7.466   9.181   8.848  0.5524  0.0870  0.9188
  998MOL0     O34598   7.549   9.126   8.936 -0.2795 -0.3452  0.3020
  998MOL0     C34599   7.680   9.099   8.925  0.4055  0.2899 -0.1700
  998MOL0     C34600   7.730   8.993   9.004  0.1456 -0.4740 -0.1490
  998MOL0     C34601   7.863   8.959   9.001  0.3503  0.5728 -0.8245
  998MOL0     C34602   7.953   9.022   8.912  0.1535 -0.1777 -0.3510
  998MOL0     O34603   8.079   8.973   8.898 -0.3234 -0.1187 -0.0333
  998MOL0     C34604   8.174   9.058   8.836 -0.3235  0.4814 -0.2365
  998MOL0     C34605   8.308   8.998   8.856  0.3620  0.6064  0.5004
  998MOL0     C34606   8.347   9.008   9.004 -0.5967 -0.0173 -0.2044
  998MOL0     C34607   8.472   8.926   9.047 -0.6486 -0.7680 -0.3380
  998MOL0     C34608   8.588   9.028   9.065 -0.2319 -0.3133  0.4913
  998MOL0     C34609   8.648   9.088   8.942  0.4549 -0.3277  0.0476
  998MOL0     C34610   8.793   9.132   8.972  0.0174  0.2899 -0.0456
  998MOL0     C34611   8.822   9.252   8.870 -0.1739  0.7241  0.6737
  998MOL0     N34612   8.956   9.299   8.898 -0.4991  0.7552  0.4699
  998MOL0     C34613   9.072   9.264   8.837 -0.1279 -0.5608  0.9059
  998MOL0     C34614   9.168   9.345   8.879  0.4838 -0.5314 -0.1395
  998MOL0     C34615   9.314   9.331   8.844 -0.4398  1.1524 -0.5506
  998MOL0     C34616   9.396   9.426   8.938 -0.1716 -0.0952 -0.5460
  998MOL0     C34617   9.546   9.402   8.911  0.3615  0.2622 -0.4094
  998MOL0     C34618   9.639   9.491   9.003  0.4896  0.6253  0.3702
  998MOL0     O34619   9.607   9.627   8.994  0.2324 -0.3732 -0.1547
  998MOL0     C34620   9.666   9.715   9.075  0.3851 -0.1713 -0.1854
  998MOL0     C34621   9.622   9.851   9.056 -0.6001  0.2584 -0.4396
  998MOL0     C34622   9.698   9.953   9.114 -0.7997  0.7942  0.0329
  998MOL0     C34623   9.821   9.929   9.186 -0.2507 -0.2904  0.4963
  998MOL0     C34624   9.898  10.040   9.256  0.8533 -0.0932  0.0269
  998MOL0     O34625  10.023  10.013   9.285  0.1707 -0.2345 -0.3642
  998MOL0     C34626  10.096  10.071   9.383  0.1772  0.9967 -0.1493
  998MOL0     C34627  10.035  10.122   9.501 -0.0198 -0.1581  0.5157
  998MOL0     C34628  10.127  10.150   9.607  1.4332  0.3648 -0.7322
  998MOL0     C34629  10.268  10.134   9.597 -0.1369 -0.1974 -0.2362
  998MOL0     O34630  10.346  10.165   9.708  0.0703  0.2886 -0.8849
  998MOL0     C34631  10.297  10.267   9.796  0.0106 -0.0048  0.2032
  998MOL0     C34632  10.402  10.295   9.906  0.8140 -0.2579  0.2461
  998MOL0     C34633  10.377  10.423   9.990 -0.1010  0.2542 -0.9794
  998MOL0     C34634  10.463  10.419  10.123  0.7774 -0.6144  0.0834
  998MOL0     C34635  10.610  10.420  10.101 -0.2326  0.0022 -1.0143
  998MOL0     C34636  10.653  10.565  10.074  0.4597  0.5763 -0.6065
  998MOL0     C34637  10.808  10.572  10.056 -0.2927  0.5264  0.3718
  998MOL0     C34638  10.863  10.714  10.076  0.2257 -0.1093  0.1520
  998MOL0    Cl34639  11.041  10.729  10.074  0.6178 -0.3817 -0.0846
  998MOL0     C34640  10.318  10.095   9.476 -0.2573  0.4716  0.2842
  998MOL0     C34641  10.231  10.051   9.374 -0.8233 -1.7095  0.0996
  998MOL0     O34642   9.834  10.140   9.293 -0.0100  0.4599  0.7394
  998MOL0     C34643   9.856   9.794   9.222  0.2976  0.0195  0.3969
  998MOL0     C34644   9.775   9.699   9.165  0.8486  0.2166  0.5108
  998MOL0     N34645   9.102   9.438   8.959 -0.6704 -0.2596  0.2704
  998MOL0     N34646   8.981   9.413   8.969 -0.4930 -0.1097 -0.0025
  998MOL0     C34647   7.900   9.137   8.837 -0.6853  0.1608  0.3869
  998MOL0     C34648   7.773   9.173   8.845  0.5517 -0.1267 -0.5937
  998MOL0     C34649   7.313   9.205   8.874 -0.6734  0.4399  1.0691
  998MOL0     C34650   7.237   9.280   8.790 -0.4430 -0.5291 -0.4144
  998MOL0     C34651   7.104   9.310   8.815  0.7516 -0.3376 -0.2299
  998MOL0     C34652   7.044   9.265   8.932 -0.0865  0.7680 -0.0133
  998MOL0     O34653   6.908   9.281   8.966  0.6282 -0.3431 -0.0887
  998MOL0     C34654   6.837   9.379   8.899 -0.0180 -0.3691  0.2819
  998MOL0     C34655   6.693   9.376   8.939  0.8702  0.0868 -0.0972
  998MOL0     C34656   6.667   9.461   9.066 -0.5217  0.0864 -0.0634
  998MOL0     C34657   6.531   9.449   9.122 -0.1193  0.2552  0.6203
  998MOL0     C34658   6.475   9.563   9.205  0.5751 -0.5406 -0.3611
  998MOL0     C34659   6.430   9.661   9.269  0.0990 -0.3099  0.2182
  998MOL0     C34660   7.115   9.179   9.015  0.3501  0.3196  0.4092
  998MOL0     C34661   7.251   9.154   8.989 -0.0888 -0.3506 -0.6490
  998MOL0     C34662   7.324   9.063   9.087  0.0257  0.4057  0.2101
  998MOL0     H34663   7.660   8.926   9.053 -0.1401 -0.3867 -0.4369
  998MOL0     H34664   7.899   8.878   9.064  1.3042  0.6578 -1.2431
  998MOL0     H34665   8.156   9.074   8.729 -1.5250 -2.6539 -0.6076
  998MOL0     H34666   8.173   9.152   8.892 -0.8553 -0.4910  1.4384
  998MOL0     H34667   8.376   9.064   8.801  1.6639  0.6172  2.0421
  998MOL0     H34668   8.319   8.896   8.819  0.4887  1.3623 -1.6771
  998MOL0     H34669   8.273   8.966   9.073  1.2668 -1.7186  0.8988
  998MOL0     H34670   8.361   9.115   9.018 -0.0553 -0.2758  1.5335
  998MOL0     H34671   8.462   8.881   9.146 -0.8480  1.7215  0.8416
  998MOL0     H34672   8.497   8.844   8.979  1.7715  0.6062 -1.2512
  998MOL0     H34673   8.538   9.104   9.126 -2.5598 -0.6195 -0.9169
  998MOL0     H34674   8.671   8.967   9.103  0.2902  0.8762  1.3092
  998MOL0     H34675   8.660   9.016   8.860  0.1533 -1.1169  0.6827
  998MOL0     H34676   8.576   9.164   8.911 -0.6492 -1.6767 -0.7855
  998MOL0     H34677   8.859   9.045   8.961 -2.7595 -1.7809 -1.6517
  998MOL0     H34678   8.806   9.176   9.072 -1.0900  1.6371 -0.4686
  998MOL0     H34679   8.826   9.222   8.765  2.5002 -0.5132  1.0422
  998MOL0     H34680   8.746   9.329   8.886  0.1631  0.6473  2.9139
  998MOL0     H34681   9.083   9.181   8.768  2.0053  0.7612 -0.4417
  998MOL0     H34682   9.344   9.229   8.870  1.6722  1.4561 -1.5613
  998MOL0     H34683   9.328   9.363   8.740  2.3055  0.2099 -0.5448
  998MOL0     H34684   9.370   9.531   8.925 -0.2157 -0.0253  0.0778
  998MOL0     H34685   9.379   9.405   9.044  2.7912  0.4729  0.1249
  998MOL0     H34686   9.562   9.410   8.803  0.4884 -2.9982 -0.7594
  998MOL0     H34687   9.574   9.296   8.919 -0.0573  0.2197  0.5999
  998MOL0     H34688   9.744   9.472   8.979  0.4429  0.8667 -0.0510
  998MOL0     H34689   9.613   9.454   9.102 -0.3044  1.3464  0.4462
  998MOL0     H34690   9.540   9.862   8.986 -0.3541 -0.7399 -0.9116
  998MOL0     H34691   9.677  10.059   9.099  1.7194  1.3495  0.0708
  998MOL0     H34692   9.929  10.128   9.522 -0.1388 -2.7566  1.0227
  998MOL0     H34693  10.077  10.178   9.699  2.5828 -0.8615  0.2909
  998MOL0     H34694  10.283  10.363   9.745  0.0953 -0.0614  0.0730
  998MOL0     H34695  10.207  10.228   9.844  0.4398  0.4950  1.4448
  998MOL0     H34696  10.407  10.202   9.965 -1.7822 -1.1732 -0.8489
  998MOL0     H34697  10.496  10.314   9.853 -0.6320  2.7532 -1.5084
  998MOL0     H34698  10.401  10.507   9.924  0.8304 -2.6412 -4.6415
  998MOL0     H34699  10.272  10.425  10.021  0.4457 -0.8033  1.1829
  998MOL0     H34700  10.436  10.329  10.178  0.1701 -0.7117 -0.3606
  998MOL0     H34701  10.437  10.500  10.192 -0.6973 -3.2425  2.8335
  998MOL0     H34702  10.636  10.345  10.025 -0.7112 -1.3818  0.1355
  998MOL0     H34703  10.659  10.404  10.198 -2.0522  0.6342  0.0522
  998MOL0     H34704  10.600  10.606   9.988  1.5539  1.3910 -0.9249
  998MOL0     H34705  10.627  10.625  10.162 -0.6325 -0.6104 -0.0963
  998MOL0     H34706  10.839  10.549   9.954 -2.0744 -1.2362  0.1579
  998MOL0     H34707  10.858  10.496  10.117 -0.5613 -2.7821 -3.1545
  998MOL0     H34708  10.813  10.789  10.013 -1.0285  2.6929  4.0809
  998MOL0     H34709  10.829  10.743  10.176  2.1777  0.1798  0.7860
  998MOL0     H34710  10.425  10.077   9.478 -0.4818 -1.0019  1.2141
  998MOL0     H34711  10.283   9.988   9.302 -0.2938 -0.4779 -0.6321
  998MOL0     H34712   9.941   9.774   9.286  1.0379  0.3768 -0.4491
  998MOL0     H34713   9.795   9.594   9.185 -1.9358 -0.4516  0.2982
  998MOL0     H34714   7.965   9.177   8.760  1.7276 -0.6782  1.8421
  998MOL0     H34715   7.732   9.256   8.789 -0.6782  0.0183  0.4868
  998MOL0     H34716   7.281   9.318   8.698  0.9134  1.0643  0.8304
  998MOL0     H34717   7.053   9.380   8.749  2.2310  2.1348  1.0871
  998MOL0     H34718   6.835   9.354   8.793  1.9942 -2.9049  0.7438
  998MOL0     H34719   6.881   9.478   8.916  1.3609 -1.1441  1.4579
  998MOL0     H34720   6.664   9.272   8.956 -0.6867  0.3614 -0.9024
  998MOL0     H34721   6.634   9.419   8.857 -0.8419  0.8693  1.4811
  998MOL0     H34722   6.683   9.565   9.035 -2.3656  1.1094  2.0914
  998MOL0     H34723   6.733   9.437   9.150  2.5238  1.7375 -1.8088
  998MOL0     H34724   6.464   9.432   9.037 -2.0603  0.6003  2.0008
  998MOL0     H34725   6.521   9.361   9.186  1.1028 -0.1501  0.2815
  998MOL0     H34726   6.409   9.755   9.316  3.7035  1.1646 -0.7143
  998MOL0     H34727   7.059   9.138   9.098  1.0473 -1.2203  0.1619
  998MOL0     H34728   7.260   9.019   9.164 -0.5192 -0.2529 -0.6071
  998MOL0     H34729   7.377   8.983   9.034  1.4464  1.1866  0.3830
  998MOL0     H34730   7.405   9.118   9.137  0.7365 -1.8013  1.6120
  999MOL0     O34731  10.666   2.732   7.732  0.5397  0.0979  0.0861
  999MOL0     C34732  10.636   2.612   7.693 -0.2244 -0.3850  0.0076
  999MOL0     O34733  10.684   2.551   7.588  0.3625  0.7972 -0.1620
  999MOL0     C34734  10.802   2.605   7.528 -0.4569 -0.4169 -0.2335
  999MOL0     C34735  10.795   2.642   7.391  0.3850 -0.0069 -0.4183
  999MOL0     C34736  10.901   2.702   7.326  0.7913 -0.4926  0.6122
  999MOL0     C34737  11.026   2.709   7.382 -0.4393 -0.0977  0.0873
  999MOL0     O34738  11.133   2.739   7.296  0.5179  0.6529 -0.1333
  999MOL0     C34739  11.261   2.727   7.349 -0.5743  0.1225  0.3867
  999MOL0     C34740  11.378   2.770   7.253 -0.0582  0.4356  0.2177
  999MOL0     C34741  11.372   2.916   7.210  0.9275 -0.3419  0.0381
  999MOL0     C34742  11.491   2.948   7.124  0.0696  1.0075  0.1849
  999MOL0     C34743  11.532   3.090   7.147  0.0410 -0.0146  0.3256
  999MOL0     C34744  11.642   3.144   7.050  0.0839 -0.1661  0.0519
  999MOL0     C34745  11.781   3.097   7.078 -0.0659 -1.0412  0.5941
  999MOL0     C34746  11.845   3.146   7.216 -0.3050 -0.7207 -0.0811
  999MOL0     N34747  11.988   3.119   7.206  0.3784 -0.6716  0.5130
  999MOL0     C34748  12.085   3.208   7.160  0.7562 -0.4783  0.6496
  999MOL0     C34749  12.201   3.146   7.184 -0.5459  0.9242  0.5714
  999MOL0     C34750  12.343   3.203   7.169  0.2245 -0.4076  0.2829
  999MOL0     C34751  12.396   3.196   7.026  0.4411 -0.2084 -0.1084
  999MOL0     C34752  12.399   3.048   6.974 -0.3558  0.1618 -0.5684
  999MOL0     C34753  12.480   3.039   6.850 -0.5720 -0.0137  0.0662
  999MOL0     O34754  12.617   3.036   6.883 -0.0617 -0.0872  0.4452
  999MOL0     C34755  12.708   3.007   6.775 -0.4827 -0.3709 -0.4380
  999MOL0     C34756  12.845   2.988   6.801  0.5110 -1.1644  0.1489
  999MOL0     C34757  12.942   2.948   6.705  0.5437 -0.0030 -0.4335
  999MOL0     C34758  12.904   2.949   6.568 -0.2689 -0.3490 -0.3033
  999MOL0     C34759  13.002   2.909   6.466 -0.4934 -0.7197  0.3367
  999MOL0     O34760  13.109   2.833   6.500  0.6516  0.0444 -0.6621
  999MOL0     C34761  13.229   2.831   6.436 -0.2332  0.8873 -0.8202
  999MOL0     C34762  13.318   2.727   6.467  1.0923 -0.4893  0.6987
  999MOL0     C34763  13.441   2.721   6.419 -0.6479 -0.1696 -0.2733
  999MOL0     C34764  13.488   2.820   6.335 -0.7045 -0.1361  0.4683
  999MOL0     O34765  13.616   2.822   6.276 -0.1152  0.7879 -0.0036
  999MOL0     C34766  13.713   2.720   6.316 -0.4817 -0.0338 -0.5581
  999MOL0     C34767  13.847   2.747   6.245  0.5265 -0.1922  0.2197
  999MOL0     C34768  13.963   2.661   6.299 -0.4298 -0.4018  0.6706
  999MOL0     C34769  14.095   2.717   6.248  0.2331 -0.7641 -0.7673
  999MOL0     C34770  14.225   2.645   6.289 -0.0764  0.2134  0.0538
  999MOL0     C34771  14.344   2.724   6.239 -1.0610  0.8349 -0.9194
  999MOL0     C34772  14.475   2.653   6.285  0.0888 -0.0838 -0.8855
  999MOL0     C34773  14.594   2.742   6.246  1.2943  0.0437  0.2144
  999MOL0    Cl34774  14.748   2.657   6.286  0.5180  0.2618 -0.1710
  999MOL0     C34775  13.401   2.920   6.295  0.7566  0.7665  0.3405
  999MOL0     C34776  13.276   2.931   6.350 -0.5682 -0.0025 -0.2051
  999MOL0     O34777  12.969   2.927   6.350  0.7721  0.2804  0.1469
  999MOL0     C34778  12.771   2.966   6.536  1.2257 -0.0715  0.0720
  999MOL0     C34779  12.674   2.982   6.642  0.0151  0.3299  0.6094
  999MOL0     N34780  12.184   3.022   7.244  0.1869 -0.3601  0.1638
  999MOL0     N34781  12.054   3.001   7.254 -0.2184 -0.0724 -0.6829
  999MOL0     C34782  11.036   2.671   7.517 -0.1534 -0.1539  0.4169
  999MOL0     C34783  10.925   2.618   7.594 -0.0572 -0.3945  0.0726
  999MOL0     C34784  10.535   2.548   7.777  0.6399 -0.5865 -0.2678
  999MOL0     C34785  10.400   2.557   7.738  0.4394 -0.0583 -0.3736
  999MOL0     C34786  10.304   2.496   7.820  0.1710 -0.4715  0.7212
  999MOL0     C34787  10.334   2.462   7.949 -0.3032 -0.1540 -0.6447
  999MOL0     O34788  10.232   2.419   8.034  0.3889  0.0809  0.2367
  999MOL0     C34789  10.200   2.518   8.132 -0.5592 -0.6115  0.8291
  999MOL0     C34790  10.085   2.479   8.217 -0.0117  0.4487  0.2572
  999MOL0     C34791   9.951   2.507   8.152 -0.1927  0.3282 -0.0081
  999MOL0     C34792   9.917   2.398   8.047  0.1250  0.8044  0.2389
  999MOL0     C34793   9.768   2.398   8.032  0.0191 -0.1103 -0.4317
  999MOL0     C34794   9.645   2.396   8.024  0.0673  0.3423  0.3840
  999MOL0     C34795  10.467   2.468   7.998 -0.3221  0.1454  0.6102
  999MOL0     C34796  10.565   2.515   7.908  0.1209 -0.0226 -0.4428
  999MOL0     C34797  10.707   2.528   7.967 -0.1845  0.2388 -0.2207
  999MOL0     H34798  10.701   2.628   7.338  0.0431  2.0481 -0.4435
  999MOL0     H34799  10.875   2.739   7.227 -1.3781  2.6694  2.2296
  999MOL0     H34800  11.270   2.802   7.429  1.1187 -2.1937  2.5090
  999MOL0     H34801  11.283   2.630   7.394  0.8869  0.3849  0.3048
  999MOL0     H34802  11.388   2.707   7.164 -0.1307 -0.2605  0.6951
  999MOL0     H34803  11.473   2.745   7.300 -1.3423 -1.5907  1.9423
  999MOL0     H34804  11.365   2.986   7.294  0.0022  4.9775 -3.9095
  999MOL0     H34805  11.276   2.919   7.158 -0.3751 -3.8475  1.8897
  999MOL0     H34806  11.575   2.879   7.137  1.3800  1.4240 -4.3777
  999MOL0     H34807  11.448   2.940   7.024  0.1316  1.0411  0.1559
  999MOL0     H34808  11.450   3.161   7.141  0.5761  0.4791 -1.6826
  999MOL0     H34809  11.578   3.098   7.246 -1.2992  0.5228  0.9272
  999MOL0     H34810  11.609   3.125   6.948  0.1924 -2.4847  0.3851
  999MOL0     H34811  11.646   3.253   7.059  0.1307 -0.0187 -1.4495
  999MOL0     H34812  11.836   3.140   6.994 -0.1756  1.1637  1.5738
  999MOL0     H34813  11.772   2.988   7.078 -2.0558 -0.9467 -1.5088
  999MOL0     H34814  11.826   3.252   7.236  0.9078 -0.6269  0.6918
  999MOL0     H34815  11.799   3.099   7.303  0.6616 -1.8818 -0.1710
  999MOL0     H34816  12.057   3.306   7.123  0.1178 -1.0289 -0.3957
  999MOL0     H34817  12.339   3.306   7.207 -3.8637  0.2574 -1.5111
  999MOL0     H34818  12.409   3.141   7.230 -0.2416 -0.9792  0.2073
  999MOL0     H34819  12.333   3.261   6.964  0.3428  0.0056  0.2150
  999MOL0     H34820  12.498   3.235   7.026  0.0554  0.9094  1.9786
  999MOL0     H34821  12.294   3.030   6.950 -0.5297  1.1302 -0.5840
  999MOL0     H34822  12.440   2.982   7.051 -0.5303 -0.8604 -1.3225
  999MOL0     H34823  12.457   3.119   6.778 -1.1243 -0.6543 -0.4836
  999MOL0     H34824  12.457   2.941   6.807  4.1814 -1.1782 -0.3385
  999MOL0     H34825  12.876   3.016   6.902 -0.6327  0.6282  0.0423
  999MOL0     H34826  13.045   2.935   6.737  0.2836 -1.2912 -0.0329
  999MOL0     H34827  13.271   2.658   6.537 -0.3604 -0.9787 -0.7055
  999MOL0     H34828  13.510   2.639   6.432  2.0407  1.2286 -4.0318
  999MOL0     H34829  13.720   2.727   6.425 -1.3793  1.0640 -0.5469
  999MOL0     H34830  13.678   2.618   6.299  0.0638 -0.6278  1.5678
  999MOL0     H34831  13.827   2.732   6.139  0.6888  0.2389  0.1243
  999MOL0     H34832  13.870   2.854   6.242  0.5752 -0.1842  0.7139
  999MOL0     H34833  13.968   2.662   6.408  1.7553 -0.5319  0.6144
  999MOL0     H34834  13.963   2.553   6.282  3.5195 -0.9587  2.9400
  999MOL0     H34835  14.100   2.821   6.283 -3.9544 -0.4486 -0.6271
  999MOL0     H34836  14.094   2.726   6.139  0.3605  0.8200 -0.6633
  999MOL0     H34837  14.231   2.543   6.250  1.1658  0.1101  0.4785
  999MOL0     H34838  14.235   2.643   6.398  0.0549  0.5666  0.0508
  999MOL0     H34839  14.355   2.716   6.131 -0.0477  1.3673 -0.8676
  999MOL0     H34840  14.346   2.829   6.272  2.3105 -0.3252  3.4949
  999MOL0     H34841  14.481   2.552   6.243  2.6647 -1.8907  3.1681
  999MOL0     H34842  14.472   2.643   6.394 -1.3372 -1.7793 -1.0468
  999MOL0     H34843  14.584   2.757   6.138 -3.0261  0.0741  0.4595
  999MOL0     H34844  14.587   2.837   6.300  0.2015  0.0794  0.0261
  999MOL0     H34845  13.430   2.993   6.221  0.1177 -0.0686 -0.7631
  999MOL0     H34846  13.203   3.001   6.310  0.0717  1.9551  1.7869
  999MOL0     H34847  12.724   2.953   6.440  1.0573 -2.9032  0.4536
  999MOL0     H34848  12.568   2.980   6.621 -0.3224  1.6638  2.0705
  999MOL0     H34849  11.129   2.680   7.573 -1.2769  0.1849  2.3360
  999MOL0     H34850  10.937   2.590   7.698 -0.3005 -0.8155 -0.0069
  999MOL0     H34851  10.366   2.605   7.647  1.0945 -0.8532 -1.0487
  999MOL0     H34852  10.200   2.496   7.790 -0.2998  0.3039  2.2110
  999MOL0     H34853  10.177   2.617   8.092 -1.6148 -0.3156  2.1030
  999MOL0     H34854  10.281   2.535   8.204 -1.1389  2.4416  0.8981
  999MOL0     H34855  10.090   2.538   8.309  1.9421  2.8836 -1.2831
  999MOL0     H34856  10.099   2.373   8.238  2.0584 -0.5445 -4.7307
  999MOL0     H34857   9.958   2.609   8.113  2.2499 -0.3220 -1.4915
  999MOL0     H34858   9.882   2.507   8.237  1.7483  1.4098  1.6496
  999MOL0     H34859   9.970   2.423   7.954 -1.0109 -0.0035 -0.6505
  999MOL0     H34860   9.957   2.299   8.066  1.2197  0.5734 -2.8183
  999MOL0     H34861   9.539   2.398   8.011  0.3895  1.3621 -2.9980
  999MOL0     H34862  10.486   2.454   8.104 -1.2407  1.3742  0.9657
  999MOL0     H34863  10.789   2.543   7.896 -0.1332 -0.2274 -0.2666
  999MOL0     H34864  10.719   2.608   8.041 -0.2715 -0.4658  0.5689
  999MOL0     H34865  10.723   2.431   8.015 -3.0849 -0.0382  0.3789
 1000MOL0     O34866  11.042   8.671   4.973 -0.5318  0.8047  0.8511
 1000MOL0     C34867  11.051   8.747   5.068  0.0973  0.3989  0.4186
 1000MOL0     O34868  11.174   8.774   5.132  0.3224 -0.3031  0.2959
 1000MOL0     C34869  11.289   8.709   5.119 -0.2790  0.0358  0.4864
 1000MOL0     C34870  11.388   8.768   5.193 -0.8352  0.2947 -0.6247
 1000MOL0     C34871  11.516   8.717   5.201 -0.3293 -0.0033  0.4388
 1000MOL0     C34872  11.552   8.605   5.127 -1.2525  1.0567  0.1586
 1000MOL0     O34873  11.684   8.557   5.140  0.1147 -0.3099  0.2949
 1000MOL0     C34874  11.725   8.432   5.081 -0.6121  0.8480 -0.3196
 1000MOL0     C34875  11.862   8.394   5.138  0.0984  0.3642  0.0580
 1000MOL0     C34876  11.854   8.330   5.280 -0.2638  0.5636  1.2820
 1000MOL0     C34877  11.974   8.331   5.373 -0.0850 -0.2314  0.0002
 1000MOL0     C34878  12.091   8.268   5.308  0.2361  0.5357  0.3972
 1000MOL0     C34879  12.203   8.211   5.404  0.5709 -0.5590  0.2137
 1000MOL0     C34880  12.328   8.185   5.329  0.1905  0.2029 -0.2046
 1000MOL0     C34881  12.444   8.129   5.416 -0.3959 -0.0815 -0.0993
 1000MOL0     N34882  12.579   8.171   5.362 -0.2035 -0.6032  1.2787
 1000MOL0     C34883  12.671   8.083   5.314 -0.7548 -0.1393  0.2992
 1000MOL0     C34884  12.790   8.142   5.307  0.0996 -0.2157  0.6831
 1000MOL0     C34885  12.916   8.081   5.246 -0.5577 -0.1049 -0.4887
 1000MOL0     C34886  12.916   8.009   5.118  0.7028 -0.2547  0.0390
 1000MOL0     C34887  13.054   7.999   5.063  0.0392 -0.4003 -0.3135
 1000MOL0     C34888  13.065   7.950   4.914  0.1819  0.9507 -0.6044
 1000MOL0     O34889  12.986   8.032   4.838  0.4566 -0.0138 -0.6314
 1000MOL0     C34890  13.020   8.037   4.703 -0.4494  0.7736 -0.0197
 1000MOL0     C34891  12.979   8.149   4.631 -1.3791 -0.2426  0.1591
 1000MOL0     C34892  13.011   8.157   4.496 -1.2274  0.2794  0.3334
 1000MOL0     C34893  13.086   8.055   4.431  1.1245  0.1493  0.6390
 1000MOL0     C34894  13.132   8.067   4.294 -0.3737 -0.3416  0.1215
 1000MOL0     O34895  13.148   7.969   4.209 -0.2344  0.9355  0.4426
 1000MOL0     C34896  13.145   7.984   4.071  0.0780  0.1877 -0.3705
 1000MOL0     C34897  13.046   8.061   4.006  0.8656  0.2997 -0.4109
 1000MOL0     C34898  13.049   8.092   3.873  0.3611 -0.4779 -0.0979
 1000MOL0     C34899  13.143   8.043   3.782 -1.1321  0.4164  0.2854
 1000MOL0     O34900  13.147   8.073   3.647 -0.2625 -0.3055  0.2873
 1000MOL0     C34901  13.149   8.213   3.614  0.8117 -0.8529 -0.2796
 1000MOL0     C34902  13.212   8.237   3.478 -0.3304 -0.0150 -0.8441
 1000MOL0     C34903  13.361   8.189   3.476  0.0832 -0.3166  0.0382
 1000MOL0     C34904  13.428   8.217   3.346 -0.5337  0.3791  0.2420
 1000MOL0     C34905  13.465   8.368   3.330  0.3972 -0.6135  0.8329
 1000MOL0     C34906  13.584   8.412   3.406 -0.5905 -0.4473 -0.6937
 1000MOL0     C34907  13.629   8.556   3.363  0.6707 -0.4038  0.3469
 1000MOL0     C34908  13.740   8.605   3.457 -0.3450 -0.6153  0.4336
 1000MOL0    Cl34909  13.887   8.490   3.455  0.7368 -0.2041 -0.3093
 1000MOL0     C34910  13.248   7.960   3.842 -0.2691 -0.3868  0.5028
 1000MOL0     C34911  13.246   7.933   3.986  0.0466  0.3111  0.7015
 1000MOL0     O34912  13.142   8.186   4.260  0.2034 -0.7366  0.1231
 1000MOL0     C34913  13.118   7.941   4.500  0.7007 -0.1398  0.3705
 1000MOL0     C34914  13.089   7.935   4.633 -0.9460 -0.1552 -0.3751
 1000MOL0     N34915  12.774   8.262   5.379  0.3129 -0.0108 -0.1282
 1000MOL0     N34916  12.647   8.273   5.411  0.8468  0.3808  0.6502
 1000MOL0     C34917  11.454   8.540   5.056  0.0420  0.3318  0.2581
 1000MOL0     C34918  11.324   8.589   5.054  0.1196 -0.8750  0.9521
 1000MOL0     C34919  10.938   8.839   5.096  0.5075  0.4725 -0.1641
 1000MOL0     C34920  10.807   8.821   5.041 -0.3288  0.0255 -0.6045
 1000MOL0     C34921  10.695   8.896   5.063  0.4039 -0.3251 -0.0231
 1000MOL0     C34922  10.702   8.995   5.157  0.0319 -0.2250 -0.4863
 1000MOL0     O34923  10.594   9.083   5.198 -0.1131 -0.3032  0.1705
 1000MOL0     C34924  10.463   9.071   5.149  0.5713 -0.3622 -0.0045
 1000MOL0     C34925  10.366   8.983   5.228 -0.4020 -1.2136 -0.3780
 1000MOL0     C34926  10.346   9.049   5.368  0.9463  0.4000 -0.9179
 1000MOL0     C34927  10.223   8.975   5.427  0.1980  0.0654  0.3728
 1000MOL0     C34928  10.099   9.049   5.388  0.2140 -0.2874  0.3027
 1000MOL0     C34929   9.992   9.100   5.374 -0.0638  0.8313  0.2725
 1000MOL0     C34930  10.828   9.028   5.208  0.2538 -0.5084  0.0077
 1000MOL0     C34931  10.946   8.954   5.180  0.5951 -0.1996  0.1869
 1000MOL0     C34932  11.072   9.001   5.250 -0.1825 -0.1349 -0.6056
 1000MOL0     H34933  11.372   8.855   5.255 -0.5861 -0.2407  0.2106
 1000MOL0     H34934  11.596   8.758   5.262 -1.7952  1.7008  1.2818
 1000MOL0     H34935  11.653   8.353   5.105 -0.3819  0.6602 -0.2317
 1000MOL0     H34936  11.720   8.440   4.972 -2.2691 -0.1655 -0.3446
 1000MOL0     H34937  11.925   8.483   5.142 -0.1077  0.5114 -0.0173
 1000MOL0     H34938  11.917   8.320   5.078 -0.2576 -0.7237  1.0363
 1000MOL0     H34939  11.811   8.231   5.259 -1.1448  1.5524 -2.3381
 1000MOL0     H34940  11.774   8.382   5.333 -0.5216  1.6741 -0.1203
 1000MOL0     H34941  11.990   8.430   5.416 -1.2285 -1.0018  2.4378
 1000MOL0     H34942  11.927   8.290   5.463 -4.8113  3.1194 -0.5753
 1000MOL0     H34943  12.051   8.189   5.244  1.9208  0.2027 -0.3034
 1000MOL0     H34944  12.135   8.350   5.250  0.0622  0.7187  0.5224
 1000MOL0     H34945  12.220   8.288   5.480 -5.1686  1.4475 -0.0492
 1000MOL0     H34946  12.178   8.114   5.450 -0.7204 -1.4206 -2.1228
 1000MOL0     H34947  12.365   8.283   5.299  3.3094 -0.5722  0.6782
 1000MOL0     H34948  12.317   8.110   5.249  2.3142 -0.3524 -0.0390
 1000MOL0     H34949  12.433   8.171   5.516 -1.0599  0.6939 -0.4816
 1000MOL0     H34950  12.438   8.020   5.412 -1.5841 -0.0114 -2.0044
 1000MOL0     H34951  12.657   7.978   5.294 -1.0375 -0.2694  1.1652
 1000MOL0     H34952  12.978   8.165   5.215  1.5278 -1.8930 -1.5108
 1000MOL0     H34953  12.970   8.013   5.314 -0.3705  2.7146  2.4117
 1000MOL0     H34954  12.871   7.909   5.127 -2.0999  0.8749 -0.3739
 1000MOL0     H34955  12.855   8.062   5.044 -1.1806  1.7631  2.8443
 1000MOL0     H34956  13.108   7.926   5.123 -0.0179  0.6635  1.0779
 1000MOL0     H34957  13.117   8.087   5.081  1.0905 -0.7953 -1.8665
 1000MOL0     H34958  13.040   7.844   4.909 -1.2200  1.1370  1.1227
 1000MOL0     H34959  13.170   7.957   4.887  0.8521 -2.1029  0.7880
 1000MOL0     H34960  12.919   8.231   4.671  1.9047  3.2163 -1.3567
 1000MOL0     H34961  12.991   8.254   4.451 -2.3857 -0.8050 -1.6068
 1000MOL0     H34962  12.969   8.108   4.067  3.4887 -0.9696  4.3894
 1000MOL0     H34963  12.963   8.153   3.847 -0.9986 -1.3063  2.0941
 1000MOL0     H34964  13.048   8.255   3.612  0.2686 -2.1414 -1.6475
 1000MOL0     H34965  13.195   8.269   3.696  2.5841 -3.1628  0.4315
 1000MOL0     H34966  13.146   8.195   3.402  0.8972  2.2252 -3.3018
 1000MOL0     H34967  13.202   8.340   3.444  0.5135  1.0416  1.8958
 1000MOL0     H34968  13.414   8.248   3.551  1.3571  0.8717 -1.7014
 1000MOL0     H34969  13.369   8.084   3.504 -3.5108 -0.8792 -0.5800
 1000MOL0     H34970  13.364   8.189   3.262 -2.8826  1.4022  1.5678
 1000MOL0     H34971  13.521   8.161   3.338  0.4814  2.2791 -3.2998
 1000MOL0     H34972  13.379   8.433   3.346  0.1665 -0.0311 -2.1582
 1000MOL0     H34973  13.492   8.380   3.224  1.4599 -0.1030  1.1444
 1000MOL0     H34974  13.557   8.394   3.510 -0.7662 -3.9861 -1.2445
 1000MOL0     H34975  13.665   8.345   3.375  1.3602  1.4579  0.0545
 1000MOL0     H34976  13.542   8.621   3.375  0.2011 -0.5356 -1.8436
 1000MOL0     H34977  13.657   8.558   3.257 -3.5490 -1.5199 -1.0083
 1000MOL0     H34978  13.768   8.700   3.409  2.3605 -2.9199 -3.0504
 1000MOL0     H34979  13.707   8.624   3.559  0.7207  0.8912  0.5381
 1000MOL0     H34980  13.323   7.900   3.793  0.9974 -1.9625  4.0172
 1000MOL0     H34981  13.330   7.876   4.025  0.6220 -0.5619 -1.6828
 1000MOL0     H34982  13.165   7.855   4.454  0.6442 -0.0567  0.1582
 1000MOL0     H34983  13.090   7.839   4.683  0.2402 -0.0995 -0.2758
 1000MOL0     H34984  11.467   8.439   5.017 -0.8871  0.6552 -0.9690
 1000MOL0     H34985  11.251   8.523   5.008  1.3030 -1.4969 -0.0906
 1000MOL0     H34986  10.788   8.742   4.969 -0.5402 -1.1208  0.6454
 1000MOL0     H34987  10.600   8.871   5.016  0.1562  0.6337 -0.0381
 1000MOL0     H34988  10.456   9.031   5.047 -0.9387  0.4261 -0.2490
 1000MOL0     H34989  10.430   9.175   5.146 -0.4162 -0.5954  1.6862
 1000MOL0     H34990  10.414   8.884   5.232  2.0499 -0.0579  2.1565
 1000MOL0     H34991  10.268   8.972   5.182 -0.6652  0.0936 -0.1627
 1000MOL0     H34992  10.320   9.154   5.352 -0.7179 -0.0740 -1.5303
 1000MOL0     H34993  10.435   9.044   5.431  2.1442 -1.8099 -2.6462
 1000MOL0     H34994  10.228   8.872   5.390  1.7912  0.6931 -1.2856
 1000MOL0     H34995  10.221   8.983   5.536  2.3543 -0.0426  0.4602
 1000MOL0     H34996   9.894   9.143   5.368 -1.3965 -2.1481 -1.5296
 1000MOL0     H34997  10.840   9.106   5.283  4.7323 -0.6966 -0.2361
 1000MOL0     H34998  11.160   9.028   5.191 -0.4401 -0.2613 -1.0462
 1000MOL0     H34999  11.041   9.094   5.298  1.9642  1.4194 -2.0713
 1000MOL0     H35000  11.107   8.930   5.327 -1.2360  2.5692  2.5837
 1001MOL0     O35001   6.588   9.226   1.461  0.0012  0.1589 -0.0600
 1001MOL0     C35002   6.539   9.295   1.547  0.6329 -0.0095  0.7108
 1001MOL0     O35003   6.604   9.352   1.647 -0.3787 -0.0764  0.2648
 1001MOL0     C35004   6.736   9.333   1.661 -0.0324  0.6700  0.3170
 1001MOL0     C35005   6.775   9.210   1.728  0.1649 -0.7129  0.1000
 1001MOL0     C35006   6.911   9.190   1.752  0.7624 -0.6411 -0.8578
 1001MOL0     C35007   7.008   9.290   1.727 -0.5514 -0.1736 -0.0162
 1001MOL0     O35008   7.135   9.265   1.779  0.3805 -0.1258  0.6616
 1001MOL0     C35009   7.239   9.358   1.749  0.1695 -0.2942 -0.1678
 1001MOL0     C35010   7.376   9.297   1.798  0.9200 -0.2020  0.0357
 1001MOL0     C35011   7.419   9.192   1.699  0.7125 -0.3175  0.2667
 1001MOL0     C35012   7.537   9.113   1.747  0.1053 -0.1766 -0.7310
 1001MOL0     C35013   7.645   9.078   1.644  0.0623  0.0152 -0.4277
 1001MOL0     C35014   7.783   9.015   1.681  0.5875  0.8153  0.3256
 1001MOL0     C35015   7.871   9.007   1.546  0.7691  0.2319 -0.3125
 1001MOL0     C35016   8.015   8.959   1.568 -1.0385  0.2030 -0.3854
 1001MOL0     N35017   8.093   9.041   1.665 -0.2495 -0.6502 -0.4649
 1001MOL0     C35018   8.096   9.178   1.661 -0.3784  0.6358 -0.0235
 1001MOL0     C35019   8.151   9.211   1.781  0.2314  0.8998  0.7921
 1001MOL0     C35020   8.172   9.358   1.808 -0.3713 -0.0258 -0.2035
 1001MOL0     C35021   8.307   9.378   1.742 -0.0156 -0.4738  0.5342
 1001MOL0     C35022   8.426   9.319   1.815 -1.0296  0.8112  0.8483
 1001MOL0     C35023   8.564   9.376   1.768  0.4906 -0.5960 -0.3262
 1001MOL0     O35024   8.662   9.269   1.762 -0.3662  0.0607 -1.2317
 1001MOL0     C35025   8.795   9.307   1.786 -0.6561 -0.0647 -0.4297
 1001MOL0     C35026   8.897   9.204   1.787 -0.7952 -0.5392  0.1771
 1001MOL0     C35027   9.038   9.232   1.810 -1.0568  0.0293 -0.0831
 1001MOL0     C35028   9.082   9.367   1.823 -0.1430  0.0424 -1.0575
 1001MOL0     C35029   9.223   9.400   1.872  0.1298 -0.4600  0.3173
 1001MOL0     O35030   9.255   9.531   1.861  0.3807  0.0874 -0.5707
 1001MOL0     C35031   9.389   9.550   1.860 -0.0918  0.2489  0.1056
 1001MOL0     C35032   9.460   9.596   1.969  1.6827 -0.4766  0.0148
 1001MOL0     C35033   9.598   9.622   1.957 -0.1783  0.6007 -1.0053
 1001MOL0     C35034   9.663   9.599   1.845  0.7399  0.4157  0.2284
 1001MOL0     O35035   9.799   9.623   1.843 -0.3880  0.4433  0.4648
 1001MOL0     C35036   9.838   9.699   1.725 -0.3375 -0.0663  0.0867
 1001MOL0     C35037   9.943   9.806   1.764 -0.6914  0.1810 -0.5760
 1001MOL0     C35038   9.907   9.898   1.872 -0.2366  0.3488 -0.8807
 1001MOL0     C35039  10.016   9.994   1.913 -0.1572 -0.5417  0.1127
 1001MOL0     C35040   9.995  10.062   2.050 -0.1613 -0.2764 -0.5021
 1001MOL0     C35041  10.083  10.185   2.072  0.2684 -0.3483  0.8459
 1001MOL0     C35042  10.045  10.247   2.208  0.3655  0.0157 -0.7376
 1001MOL0     C35043  10.100  10.388   2.238  0.1821 -0.5197  0.3596
 1001MOL0    Cl35044  10.278  10.428   2.232  0.2877 -0.5499 -0.4008
 1001MOL0     C35045   9.589   9.549   1.734  0.0624  0.6838 -0.3333
 1001MOL0     C35046   9.454   9.527   1.740 -0.4775 -0.2848 -0.0023
 1001MOL0     O35047   9.295   9.309   1.910  0.1263  0.3518 -0.7165
 1001MOL0     C35048   8.986   9.465   1.816  0.3513  0.0399  0.9517
 1001MOL0     C35049   8.850   9.440   1.782 -0.3556 -1.1462 -0.3827
 1001MOL0     N35050   8.186   9.097   1.860  0.5786 -0.3368  1.0857
 1001MOL0     N35051   8.157   9.002   1.778 -0.5183 -1.0549 -0.0083
 1001MOL0     C35052   6.967   9.407   1.661 -1.3202  0.1771 -0.4454
 1001MOL0     C35053   6.836   9.422   1.618  0.1275  0.6640 -1.0278
 1001MOL0     C35054   6.389   9.329   1.547 -0.4581  0.1163 -0.2679
 1001MOL0     C35055   6.330   9.375   1.669  1.2127 -0.2602  0.4071
 1001MOL0     C35056   6.191   9.391   1.679 -0.4273  0.3437 -0.4535
 1001MOL0     C35057   6.110   9.373   1.569  0.3015 -0.2583  0.6066
 1001MOL0     O35058   5.975   9.394   1.578 -0.4986  0.2151  0.5410
 1001MOL0     C35059   5.891   9.353   1.464 -1.3255 -0.6767  0.2020
 1001MOL0     C35060   5.744   9.402   1.478 -0.8550  0.3556 -0.0434
 1001MOL0     C35061   5.652   9.309   1.554  0.2871 -0.3936  0.3313
 1001MOL0     C35062   5.511   9.365   1.539  0.2664 -0.1982 -0.1571
 1001MOL0     C35063   5.451   9.325   1.413 -0.0735  1.0767  0.2442
 1001MOL0     C35064   5.393   9.290   1.311 -1.0546 -0.6685  0.0759
 1001MOL0     C35065   6.175   9.338   1.443 -0.6053  0.2314  0.0280
 1001MOL0     C35066   6.312   9.311   1.432  0.5629  0.6597  0.0977
 1001MOL0     C35067   6.359   9.243   1.306  0.3551 -0.4591 -0.1158
 1001MOL0     H35068   6.694   9.149   1.767  0.2948 -1.2474 -0.4650
 1001MOL0     H35069   6.943   9.099   1.803  2.9398 -0.2996 -1.5227
 1001MOL0     H35070   7.251   9.376   1.642  1.7006  0.9178  0.1627
 1001MOL0     H35071   7.228   9.451   1.805  5.3207 -1.5874  3.8103
 1001MOL0     H35072   7.384   9.270   1.904 -0.2817 -0.7236  0.0042
 1001MOL0     H35073   7.452   9.374   1.784  0.5820 -0.3636 -3.5227
 1001MOL0     H35074   7.441   9.247   1.607 -2.6377 -1.3770 -1.3344
 1001MOL0     H35075   7.336   9.126   1.674  0.2960  0.9853 -2.0502
 1001MOL0     H35076   7.591   9.178   1.817 -1.1783  0.4889 -0.3418
 1001MOL0     H35077   7.510   9.022   1.802  1.0806  0.1062  0.2596
 1001MOL0     H35078   7.592   9.011   1.576 -0.5126 -0.1110  0.1298
 1001MOL0     H35079   7.667   9.176   1.601 -1.1388  0.8525  0.7801
 1001MOL0     H35080   7.832   9.077   1.757  0.5761  0.9318  0.2378
 1001MOL0     H35081   7.759   8.915   1.717 -0.9979 -0.6823 -4.2339
 1001MOL0     H35082   7.873   9.107   1.502  2.5181 -1.0828 -3.5016
 1001MOL0     H35083   7.821   8.933   1.483 -0.9526 -0.6081  1.8840
 1001MOL0     H35084   8.011   8.857   1.606 -0.6415  0.2894 -0.1092
 1001MOL0     H35085   8.070   8.959   1.473  3.0488 -2.7639  1.6754
 1001MOL0     H35086   8.074   9.241   1.576  1.1629  2.5582  0.9033
 1001MOL0     H35087   8.092   9.425   1.773 -0.6803  1.3026  2.7511
 1001MOL0     H35088   8.169   9.378   1.916 -3.0277 -0.3155 -0.1413
 1001MOL0     H35089   8.306   9.337   1.641 -0.2377  1.6422 -0.3743
 1001MOL0     H35090   8.331   9.484   1.729 -0.3476 -0.5312 -0.6419
 1001MOL0     H35091   8.434   9.211   1.801  3.4233  1.1832 -1.3205
 1001MOL0     H35092   8.414   9.332   1.923 -1.5692 -0.8364  1.0150
 1001MOL0     H35093   8.584   9.448   1.849  0.3554  1.4343 -2.0270
 1001MOL0     H35094   8.566   9.429   1.672 -1.3550 -0.1835 -0.1658
 1001MOL0     H35095   8.866   9.100   1.780 -5.6806  0.7976 -2.1215
 1001MOL0     H35096   9.111   9.152   1.807  1.2440  2.0443 -1.8095
 1001MOL0     H35097   9.409   9.627   2.060 -0.9069  1.4414 -1.9430
 1001MOL0     H35098   9.655   9.648   2.046  1.8899  0.5226 -2.2454
 1001MOL0     H35099   9.884   9.630   1.654 -1.6030 -0.7882 -0.0558
 1001MOL0     H35100   9.750   9.746   1.682  1.7849  3.7009 -0.5409
 1001MOL0     H35101  10.029   9.747   1.797 -1.0905  0.5679  1.2236
 1001MOL0     H35102   9.967   9.866   1.675 -1.2000  0.5102 -0.4928
 1001MOL0     H35103   9.819   9.957   1.846  0.6446  1.1296 -2.2662
 1001MOL0     H35104   9.876   9.834   1.955 -2.6993 -0.3853 -2.2881
 1001MOL0     H35105  10.031  10.076   1.841  2.8690 -2.0023 -1.1159
 1001MOL0     H35106  10.113   9.944   1.901 -0.1506 -0.6020  0.4182
 1001MOL0     H35107  10.039   9.985   2.115  2.5696  0.5091 -1.2813
 1001MOL0     H35108   9.892  10.088   2.075 -0.3168 -1.5021  0.2249
 1001MOL0     H35109  10.189  10.166   2.056  0.0672 -2.7482  1.9411
 1001MOL0     H35110  10.052  10.256   1.995 -0.3480  0.2840  1.6443
 1001MOL0     H35111  10.087  10.179   2.282 -1.9460  1.8959  2.5603
 1001MOL0     H35112   9.936  10.250   2.212  0.2663 -0.3737 -2.3372
 1001MOL0     H35113  10.045  10.456   2.173 -0.9423 -1.5707  0.1681
 1001MOL0     H35114  10.070  10.414   2.340  2.1418 -0.5731  0.9835
 1001MOL0     H35115   9.648   9.527   1.646  1.1548  1.6221  0.1441
 1001MOL0     H35116   9.403   9.498   1.649 -1.3937  2.5568 -0.4937
 1001MOL0     H35117   9.008   9.571   1.828  1.0623 -0.4025  4.2572
 1001MOL0     H35118   8.793   9.530   1.761 -1.6861 -2.2941 -1.9957
 1001MOL0     H35119   7.047   9.477   1.637  0.6833 -1.6104  0.6365
 1001MOL0     H35120   6.798   9.503   1.556 -2.2442 -1.4626 -2.5840
 1001MOL0     H35121   6.391   9.382   1.758 -1.3244 -2.0798  2.4267
 1001MOL0     H35122   6.148   9.420   1.774  2.0554 -1.6668  1.4495
 1001MOL0     H35123   5.893   9.245   1.447  1.4693 -0.4843 -1.2043
 1001MOL0     H35124   5.926   9.410   1.377 -1.3668  2.5663  2.1808
 1001MOL0     H35125   5.701   9.435   1.382 -2.6605  4.1673  1.8470
 1001MOL0     H35126   5.750   9.489   1.544  3.3936 -0.8281  1.4346
 1001MOL0     H35127   5.677   9.305   1.660  0.5566 -2.4697  0.2248
 1001MOL0     H35128   5.666   9.203   1.529  1.0172 -0.9831  2.9335
 1001MOL0     H35129   5.440   9.324   1.612  0.0415 -0.9503 -0.7809
 1001MOL0     H35130   5.518   9.473   1.531 -2.4770 -0.0655 -2.2852
 1001MOL0     H35131   5.339   9.260   1.224  0.6640 -0.2656 -1.1839
 1001MOL0     H35132   6.120   9.333   1.350  2.2114  1.1961 -1.8087
 1001MOL0     H35133   6.438   9.290   1.247 -0.0656  1.7211  0.9306
 1001MOL0     H35134   6.391   9.140   1.323  2.1244  0.2732  1.3754
 1001MOL0     H35135   6.284   9.239   1.226  0.9026  0.7140 -0.7204
 1002MOL0     O35136   4.431  11.155   8.583 -0.4047 -0.3649 -0.1705
 1002MOL0     C35137   4.342  11.068   8.567  0.4648 -0.1410  0.5798
 1002MOL0     O35138   4.333  11.001   8.451 -0.3436 -0.0746 -0.1471
 1002MOL0     C35139   4.425  11.009   8.354 -0.0804  0.3297  0.6839
 1002MOL0     C35140   4.484  11.128   8.301 -0.2925 -0.3830 -0.5448
 1002MOL0     C35141   4.576  11.131   8.193  0.0251  0.1234 -0.5801
 1002MOL0     C35142   4.615  11.007   8.144  0.0348 -0.6018 -0.2065
 1002MOL0     O35143   4.709  11.006   8.045  0.5790 -0.3715 -0.0024
 1002MOL0     C35144   4.781  10.888   8.016  0.3713 -0.0498 -1.0115
 1002MOL0     C35145   4.907  10.910   7.933 -0.1942  0.3048  0.3443
 1002MOL0     C35146   4.947  10.777   7.869  0.1107  0.9655 -0.9224
 1002MOL0     C35147   5.063  10.709   7.945 -0.5001 -0.5676 -0.2008
 1002MOL0     C35148   5.205  10.773   7.935  0.4818 -1.0639 -1.1794
 1002MOL0     C35149   5.267  10.756   7.802  0.7659  0.2346 -0.5473
 1002MOL0     C35150   5.412  10.785   7.794 -0.4094  0.1196  0.0139
 1002MOL0     C35151   5.499  10.669   7.854 -0.5307  0.1571 -0.4306
 1002MOL0     N35152   5.640  10.662   7.797  0.1435 -0.1144  0.3265
 1002MOL0     C35153   5.755  10.589   7.837  0.0535 -0.3528  0.3266
 1002MOL0     C35154   5.865  10.625   7.763 -0.1500  0.7425  0.0687
 1002MOL0     C35155   5.992  10.557   7.756  0.1978 -0.9607 -0.7890
 1002MOL0     C35156   6.109  10.633   7.822  0.2089  0.5569  0.2479
 1002MOL0     C35157   6.237  10.567   7.770 -0.0156 -0.7315  0.3778
 1002MOL0     C35158   6.367  10.606   7.851 -0.3649 -1.1509 -1.1461
 1002MOL0     O35159   6.475  10.522   7.822  0.1950  0.0379  0.6308
 1002MOL0     C35160   6.598  10.519   7.886  0.6823  0.3014  0.3613
 1002MOL0     C35161   6.615  10.533   8.026  0.5865  0.3306  0.3008
 1002MOL0     C35162   6.738  10.488   8.086  0.5188 -0.0131 -0.3144
 1002MOL0     C35163   6.847  10.436   8.015  0.4812 -0.7233 -0.3989
 1002MOL0     C35164   6.974  10.394   8.093  0.4438 -0.1525  0.4855
 1002MOL0     O35165   7.087  10.397   8.027 -0.3473 -0.5014 -0.0857
 1002MOL0     C35166   7.200  10.369   8.104 -0.4139 -0.7658  0.7233
 1002MOL0     C35167   7.255  10.241   8.094 -0.4437  0.3833 -0.1992
 1002MOL0     C35168   7.366  10.200   8.166 -0.0313 -0.3172 -1.0509
 1002MOL0     C35169   7.446  10.293   8.237 -0.1116 -0.0209  0.7393
 1002MOL0     O35170   7.567  10.266   8.298  0.0329  0.0075 -0.1880
 1002MOL0     C35171   7.617  10.138   8.277  0.4054  0.2477 -0.4426
 1002MOL0     C35172   7.755  10.146   8.331  0.7926  0.2281  0.7003
 1002MOL0     C35173   7.836  10.265   8.272 -0.0130  0.5083  0.4411
 1002MOL0     C35174   7.983  10.257   8.326  0.6474 -0.0812  0.7102
 1002MOL0     C35175   8.065  10.374   8.283 -0.4203 -0.4341 -0.1804
 1002MOL0     C35176   8.211  10.371   8.344  0.1928 -0.5192  0.6578
 1002MOL0     C35177   8.300  10.283   8.258  0.4856  0.2583 -0.4216
 1002MOL0     C35178   8.438  10.297   8.320 -0.0603  0.0714 -0.1025
 1002MOL0    Cl35179   8.458  10.235   8.489 -0.1463  0.1649  0.4234
 1002MOL0     C35180   7.398  10.426   8.244 -0.1421 -0.5329 -0.0741
 1002MOL0     C35181   7.284  10.467   8.173  0.2859 -0.1429  0.5119
 1002MOL0     O35182   6.951  10.354   8.208  0.9103 -0.1881  0.4495
 1002MOL0     C35183   6.825  10.419   7.883  0.2243  0.0841 -0.3769
 1002MOL0     C35184   6.703  10.452   7.814 -0.1415 -0.0208 -0.9876
 1002MOL0     N35185   5.810  10.712   7.663  0.0715  0.2267  0.7121
 1002MOL0     N35186   5.682  10.735   7.684 -0.7536  0.9493 -0.4270
 1002MOL0     C35187   4.545  10.886   8.183  0.2411  0.0808 -0.1405
 1002MOL0     C35188   4.446  10.885   8.288 -0.9357 -0.0775 -0.6114
 1002MOL0     C35189   4.234  11.056   8.667 -0.3800 -1.3754 -0.2597
 1002MOL0     C35190   4.235  11.153   8.775 -0.0100 -0.6014  0.5292
 1002MOL0     C35191   4.138  11.149   8.877 -0.3173  0.8140 -0.5306
 1002MOL0     C35192   4.034  11.060   8.866 -0.2419 -0.4318 -0.1703
 1002MOL0     O35193   3.945  11.067   8.972 -0.1868  0.1148 -0.1337
 1002MOL0     C35194   3.823  10.993   8.962  0.2575 -0.1621  0.5596
 1002MOL0     C35195   3.738  11.028   9.077  0.2348 -0.1528 -0.1705
 1002MOL0     C35196   3.605  10.941   9.064 -0.0655 -0.6848  0.3498
 1002MOL0     C35197   3.500  10.981   9.179  0.4246 -0.1192  0.2580
 1002MOL0     C35198   3.509  10.898   9.298  0.0740 -0.3716 -0.1397
 1002MOL0     C35199   3.506  10.822   9.395 -0.4974  0.0042  1.5367
 1002MOL0     C35200   4.028  10.972   8.762 -0.9598  0.5840  0.3084
 1002MOL0     C35201   4.119  10.976   8.656 -0.0488 -0.1545 -1.0854
 1002MOL0     C35202   4.087  10.878   8.539 -0.4464  0.1335 -0.2423
 1002MOL0     H35203   4.449  11.219   8.350  1.1384  1.3578 -2.5950
 1002MOL0     H35204   4.631  11.217   8.157  1.1986  0.4739  1.8088
 1002MOL0     H35205   4.803  10.834   8.109 -2.4970  1.0885  0.4431
 1002MOL0     H35206   4.721  10.816   7.960  0.5085 -1.1645  0.2202
 1002MOL0     H35207   4.977  10.959   8.002  0.0174  0.9886 -0.3410
 1002MOL0     H35208   4.900  10.972   7.843  0.5237 -0.1990 -0.0721
 1002MOL0     H35209   4.966  10.786   7.761  2.1201 -2.1776 -0.9624
 1002MOL0     H35210   4.864  10.706   7.873  1.0731 -0.1351  1.1656
 1002MOL0     H35211   5.031  10.689   8.048 -0.9065 -0.6163 -0.3352
 1002MOL0     H35212   5.080  10.609   7.904  3.2297 -0.3510  0.4794
 1002MOL0     H35213   5.196  10.876   7.969  1.6758 -1.4860  0.5461
 1002MOL0     H35214   5.264  10.714   8.006 -0.8048 -1.1843 -0.1679
 1002MOL0     H35215   5.244  10.657   7.762  0.0472  0.5207 -0.8630
 1002MOL0     H35216   5.211  10.834   7.750  1.0443 -0.3700 -1.7699
 1002MOL0     H35217   5.430  10.883   7.839 -0.0102  0.6986 -1.3584
 1002MOL0     H35218   5.440  10.791   7.688  0.3867 -2.3443  0.0250
 1002MOL0     H35219   5.489  10.676   7.963 -1.5881  0.4194 -0.5299
 1002MOL0     H35220   5.452  10.572   7.834  1.2108 -0.8274 -0.0125
 1002MOL0     H35221   5.762  10.511   7.913 -0.3370 -1.9577 -1.2330
 1002MOL0     H35222   5.981  10.459   7.803  0.1006  0.6627  2.9125
 1002MOL0     H35223   6.014  10.551   7.649  1.3229  0.8965 -0.7058
 1002MOL0     H35224   6.120  10.739   7.797 -1.4710  0.5627 -0.5733
 1002MOL0     H35225   6.102  10.627   7.931 -1.1336 -2.2789  0.0877
 1002MOL0     H35226   6.256  10.593   7.665 -0.9651 -2.9826 -0.4281
 1002MOL0     H35227   6.233  10.458   7.776  1.1259 -0.8407 -0.4182
 1002MOL0     H35228   6.353  10.596   7.959 -1.1198 -1.3704 -1.2607
 1002MOL0     H35229   6.395  10.708   7.827 -1.4900 -0.6906 -0.5633
 1002MOL0     H35230   6.535  10.580   8.081  1.5262  0.2126  1.8155
 1002MOL0     H35231   6.747  10.508   8.192 -0.1038  0.8885 -0.4235
 1002MOL0     H35232   7.205  10.173   8.026 -0.2432  1.2080 -1.1847
 1002MOL0     H35233   7.384  10.094   8.156  0.3867 -0.2485 -1.0931
 1002MOL0     H35234   7.567  10.062   8.337  0.7417 -0.8445 -1.4944
 1002MOL0     H35235   7.621  10.099   8.175  1.6269  2.0305 -1.1350
 1002MOL0     H35236   7.757  10.151   8.440  2.7944  0.9033  0.6593
 1002MOL0     H35237   7.810  10.055   8.306 -0.4888  0.2428 -2.6825
 1002MOL0     H35238   7.847  10.259   8.163  2.1971  0.1405  0.6368
 1002MOL0     H35239   7.795  10.363   8.296 -3.2764 -0.0307 -2.1400
 1002MOL0     H35240   8.026  10.160   8.298 -0.3666 -0.0550 -1.0243
 1002MOL0     H35241   7.979  10.255   8.436  1.0719 -2.0217  0.7293
 1002MOL0     H35242   8.012  10.465   8.310 -0.1857  0.0659 -1.3185
 1002MOL0     H35243   8.081  10.380   8.174 -2.3520  1.4265 -0.4310
 1002MOL0     H35244   8.244  10.475   8.336  0.5752 -0.7307 -0.6940
 1002MOL0     H35245   8.211  10.344   8.450  1.0464  0.9402  1.0657
 1002MOL0     H35246   8.299  10.313   8.153  1.5027 -2.4198 -1.2748
 1002MOL0     H35247   8.268  10.178   8.253 -1.1480  0.6587  0.8389
 1002MOL0     H35248   8.502  10.240   8.252 -1.8977 -0.6621 -1.2792
 1002MOL0     H35249   8.463  10.402   8.305 -0.4712 -0.0997 -2.3031
 1002MOL0     H35250   7.474  10.490   8.290  0.3882 -0.4811 -0.9865
 1002MOL0     H35251   7.249  10.570   8.172 -0.1835 -0.2883  1.2342
 1002MOL0     H35252   6.909  10.386   7.823  1.6582  1.6374  0.6823
 1002MOL0     H35253   6.672  10.430   7.713 -3.0583 -0.2618 -0.1323
 1002MOL0     H35254   4.565  10.791   8.132 -0.6438  0.6192 -1.5532
 1002MOL0     H35255   4.401  10.788   8.311  1.1866 -1.0041 -0.1359
 1002MOL0     H35256   4.318  11.220   8.792  0.8483 -1.7908  1.2325
 1002MOL0     H35257   4.132  11.220   8.959  0.1044 -0.1795  0.3830
 1002MOL0     H35258   3.843  10.886   8.973 -0.9117 -0.1424  4.0376
 1002MOL0     H35259   3.768  11.011   8.869 -0.5661 -1.7456  0.7149
 1002MOL0     H35260   3.719  11.135   9.084  2.6280  0.3016  0.2755
 1002MOL0     H35261   3.795  11.004   9.168 -0.5163  1.5732  0.8029
 1002MOL0     H35262   3.623  10.834   9.073 -1.8015 -1.1840 -1.4524
 1002MOL0     H35263   3.559  10.951   8.965  0.9252 -2.2851 -0.3007
 1002MOL0     H35264   3.493  11.087   9.204  1.1315  0.3119 -1.2769
 1002MOL0     H35265   3.405  10.959   9.128  0.0994  0.1135  0.7484
 1002MOL0     H35266   3.489  10.756   9.478 -3.1240 -0.5354  0.6582
 1002MOL0     H35267   3.953  10.894   8.755 -1.4143  1.1428 -1.7552
 1002MOL0     H35268   4.177  10.818   8.526 -0.2137  0.6226 -0.9405
 1002MOL0     H35269   4.003  10.815   8.569  0.1058 -0.1553  0.7473
 1002MOL0     H35270   4.067  10.926   8.443  0.1276 -3.3514 -2.2718
 1003MOL0     O35271   6.503   2.596  10.324 -0.8621  0.9651  0.1868
 1003MOL0     C35272   6.496   2.719  10.310  0.1514  0.4803 -0.0118
 1003MOL0     O35273   6.596   2.808  10.316 -0.1962  0.1011  0.5162
 1003MOL0     C35274   6.717   2.758  10.297 -0.9711 -0.1645 -0.3068
 1003MOL0     C35275   6.759   2.694  10.186 -0.7575  0.4231 -0.3432
 1003MOL0     C35276   6.894   2.665  10.166 -0.7761  0.1856  0.0059
 1003MOL0     C35277   6.988   2.698  10.254 -0.5310 -0.4693 -0.8352
 1003MOL0     O35278   7.114   2.645  10.225 -0.7103 -0.7085 -0.5070
 1003MOL0     C35279   7.223   2.675  10.311 -0.3684 -0.2115  0.2563
 1003MOL0     C35280   7.347   2.609  10.235  0.5501  0.3878  0.0463
 1003MOL0     C35281   7.471   2.619  10.322 -0.8753  0.3096 -0.1797
 1003MOL0     C35282   7.543   2.744  10.300  0.2630  0.4885  0.3113
 1003MOL0     C35283   7.669   2.756  10.395  0.4591  0.1137 -1.1002
 1003MOL0     C35284   7.784   2.669  10.351 -0.5620  0.1831  0.1718
 1003MOL0     C35285   7.910   2.689  10.430  0.8117  0.5471 -0.2223
 1003MOL0     C35286   7.965   2.831  10.433  0.7874 -0.6749  0.8911
 1003MOL0     N35287   8.102   2.838  10.486  0.5668 -0.4655  0.6024
 1003MOL0     C35288   8.142   2.817  10.614 -0.2147 -0.5086 -0.4091
 1003MOL0     C35289   8.282   2.794  10.605  0.2010 -0.6701  0.8543
 1003MOL0     C35290   8.371   2.745  10.708  0.6365 -0.6063  0.3682
 1003MOL0     C35291   8.523   2.765  10.687  0.5960 -0.7608  0.2837
 1003MOL0     C35292   8.588   2.657  10.773 -1.1339  0.7464 -0.2050
 1003MOL0     C35293   8.733   2.685  10.798 -1.7848  0.2971  0.1149
 1003MOL0     O35294   8.806   2.570  10.836  0.4006  0.6554 -0.0078
 1003MOL0     C35295   8.944   2.587  10.850 -0.4426 -0.4899 -0.2376
 1003MOL0     C35296   9.016   2.701  10.836 -0.9827  0.3683  0.1391
 1003MOL0     C35297   9.156   2.695  10.851 -1.0414 -0.0166  0.6032
 1003MOL0     C35298   9.228   2.576  10.878 -0.1356 -0.5206 -0.5103
 1003MOL0     C35299   9.381   2.576  10.897  0.1582 -0.4410 -0.4427
 1003MOL0     O35300   9.445   2.455  10.902  0.4064 -0.0798 -1.0838
 1003MOL0     C35301   9.574   2.444  10.942 -0.3547  0.0378  0.2096
 1003MOL0     C35302   9.684   2.439  10.851  0.2700 -0.3113 -1.3854
 1003MOL0     C35303   9.819   2.434  10.896  0.2467 -0.3876  0.1680
 1003MOL0     C35304   9.844   2.428  11.034  0.5887  0.4532 -0.0719
 1003MOL0     O35305   9.967   2.406  11.098  0.3184  0.3022  0.0662
 1003MOL0     C35306  10.070   2.491  11.043  0.0349 -0.0547 -0.2111
 1003MOL0     C35307  10.154   2.549  11.163 -0.5170  0.3408  0.0198
 1003MOL0     C35308  10.234   2.450  11.248  0.2187  0.6089 -0.0929
 1003MOL0     C35309  10.327   2.347  11.166  0.6523 -0.3059 -0.3442
 1003MOL0     C35310  10.437   2.288  11.262  0.9273 -0.0431 -0.1936
 1003MOL0     C35311  10.558   2.371  11.275  0.1623 -0.0625  0.1339
 1003MOL0     C35312  10.659   2.313  11.383  0.6831 -0.2437  0.3836
 1003MOL0     C35313  10.780   2.404  11.394 -0.3809 -0.3976  0.9388
 1003MOL0    Cl35314  10.901   2.366  11.527 -0.1576  0.4185 -0.3882
 1003MOL0     C35315   9.737   2.410  11.124 -0.6462 -0.3056  0.2317
 1003MOL0     C35316   9.609   2.424  11.078  0.2033 -0.5449  0.3866
 1003MOL0     O35317   9.440   2.685  10.911  0.3275 -0.0195  0.1867
 1003MOL0     C35318   9.155   2.457  10.886  0.5124  0.2533 -0.2339
 1003MOL0     C35319   9.014   2.465  10.870  0.5302 -0.3634  0.2339
 1003MOL0     N35320   8.316   2.832  10.475  0.0685 -0.3335 -0.5722
 1003MOL0     N35321   8.212   2.854  10.409  0.2131 -0.8953  0.2123
 1003MOL0     C35322   6.941   2.754  10.372  0.6415  0.3270  0.3891
 1003MOL0     C35323   6.811   2.798  10.387  0.6953  0.0536  0.2741
 1003MOL0     C35324   6.366   2.788  10.298 -0.2996 -0.5696  0.7052
 1003MOL0     C35325   6.317   2.863  10.410 -0.6589  0.2679  1.5350
 1003MOL0     C35326   6.189   2.925  10.408 -0.0967  0.1758 -0.1386
 1003MOL0     C35327   6.099   2.905  10.303  0.3797  0.3470  0.0364
 1003MOL0     O35328   5.973   2.947  10.293  0.7253  0.0854 -0.3410
 1003MOL0     C35329   5.928   3.022  10.410  0.3006  0.1860  0.6271
 1003MOL0     C35330   5.795   3.068  10.382  0.2769  0.2982 -0.3727
 1003MOL0     C35331   5.698   2.950  10.369 -0.2359 -0.7212  0.5071
 1003MOL0     C35332   5.606   2.974  10.259  0.9305 -0.3280 -0.1309
 1003MOL0     C35333   5.518   3.084  10.293 -0.1897 -1.3207  0.2914
 1003MOL0     C35334   5.442   3.179  10.311 -0.4244 -0.2512  0.5068
 1003MOL0     C35335   6.149   2.834  10.190  1.2346 -0.6332 -0.1163
 1003MOL0     C35336   6.278   2.777  10.189  0.1291 -0.7423  0.5565
 1003MOL0     C35337   6.322   2.694  10.076 -0.6301  0.1651  0.6007
 1003MOL0     H35338   6.694   2.657  10.107  1.3890 -0.5770 -1.7231
 1003MOL0     H35339   6.919   2.598  10.084  1.6933 -1.8698  2.2412
 1003MOL0     H35340   7.230   2.783  10.331 -0.0921  0.2257 -1.9150
 1003MOL0     H35341   7.201   2.631  10.409 -1.1109  1.6052  0.9574
 1003MOL0     H35342   7.360   2.652  10.135 -0.7163 -0.8154 -0.6731
 1003MOL0     H35343   7.327   2.504  10.212  1.2089  0.7984 -2.7875
 1003MOL0     H35344   7.533   2.534  10.290 -2.5906 -1.1908  0.3191
 1003MOL0     H35345   7.454   2.599  10.428  0.5786  0.5798  0.1316
 1003MOL0     H35346   7.573   2.752  10.195 -1.1130  0.1092 -0.1312
 1003MOL0     H35347   7.484   2.833  10.323  0.6983  0.8069  0.1963
 1003MOL0     H35348   7.692   2.862  10.404  2.4593 -0.4631  2.4896
 1003MOL0     H35349   7.631   2.716  10.490  1.8112  0.4989 -0.3843
 1003MOL0     H35350   7.757   2.564  10.337  3.3369 -0.5380 -3.8910
 1003MOL0     H35351   7.805   2.700  10.249  0.6503  1.7125  0.8497
 1003MOL0     H35352   7.990   2.621  10.398  2.4040  1.7869  0.9415
 1003MOL0     H35353   7.889   2.662  10.534  0.1968 -1.2343 -0.7709
 1003MOL0     H35354   7.966   2.866  10.329 -0.6780 -0.9099  0.7865
 1003MOL0     H35355   7.904   2.904  10.486 -0.6305 -1.1669 -0.0282
 1003MOL0     H35356   8.094   2.828  10.711 -1.4751  0.7231 -1.1299
 1003MOL0     H35357   8.349   2.787  10.806 -1.5271 -0.5268 -0.1008
 1003MOL0     H35358   8.342   2.639  10.712 -2.2244  0.0521 -0.2623
 1003MOL0     H35359   8.551   2.745  10.583 -0.1393 -4.9266  0.7405
 1003MOL0     H35360   8.551   2.868  10.714  0.7518  0.0257 -2.4755
 1003MOL0     H35361   8.574   2.567  10.712 -0.1191  0.1667  0.3945
 1003MOL0     H35362   8.528   2.645  10.863 -0.4511  0.6665  0.2471
 1003MOL0     H35363   8.744   2.760  10.877  0.0499  1.7164 -1.3905
 1003MOL0     H35364   8.781   2.721  10.707 -0.1543 -0.2849  0.6989
 1003MOL0     H35365   8.963   2.794  10.818 -1.6030  0.0126  0.0871
 1003MOL0     H35366   9.218   2.783  10.840 -1.7068  0.4601  0.6322
 1003MOL0     H35367   9.661   2.451  10.746 -0.0803  0.3080 -1.2388
 1003MOL0     H35368   9.888   2.445  10.813  0.8895  0.2979  0.7784
 1003MOL0     H35369  10.133   2.442  10.968  0.8926  1.6369 -0.6246
 1003MOL0     H35370  10.030   2.580  10.995  0.6713  0.2912 -0.1169
 1003MOL0     H35371  10.228   2.617  11.122  0.5518  0.4479  2.0101
 1003MOL0     H35372  10.083   2.601  11.229 -2.0970 -1.4895 -0.1327
 1003MOL0     H35373  10.292   2.490  11.331  0.8726  1.1101 -0.7764
 1003MOL0     H35374  10.159   2.391  11.301  0.6320  1.1017  1.0605
 1003MOL0     H35375  10.381   2.393  11.082  1.2614 -0.7094 -0.1770
 1003MOL0     H35376  10.266   2.261  11.139 -0.8246  0.0227  1.7447
 1003MOL0     H35377  10.462   2.194  11.212  2.0537 -0.4013  0.9725
 1003MOL0     H35378  10.388   2.266  11.358 -0.3742 -0.0653 -0.8354
 1003MOL0     H35379  10.599   2.380  11.174 -2.6326 -0.7323 -1.1887
 1003MOL0     H35380  10.534   2.476  11.296 -0.3264 -0.3675  1.1793
 1003MOL0     H35381  10.685   2.212  11.350 -1.1986 -0.0989 -1.7432
 1003MOL0     H35382  10.609   2.288  11.477 -0.6559 -2.1228 -0.7625
 1003MOL0     H35383  10.833   2.415  11.299  0.9479  2.1343  1.8743
 1003MOL0     H35384  10.738   2.503  11.411  1.7936  1.0753 -1.5281
 1003MOL0     H35385   9.777   2.391  11.223  3.4989 -1.0821 -1.3795
 1003MOL0     H35386   9.528   2.428  11.151 -0.6561 -0.1167 -0.5687
 1003MOL0     H35387   9.211   2.366  10.905  1.3946  1.0969  1.4545
 1003MOL0     H35388   8.962   2.370  10.870 -0.5903  0.1969 -1.5120
 1003MOL0     H35389   7.015   2.769  10.450  0.6569 -0.7346  0.6063
 1003MOL0     H35390   6.782   2.849  10.478  0.3575  0.7456 -0.2082
 1003MOL0     H35391   6.383   2.879  10.495 -1.2698  1.4950  1.8039
 1003MOL0     H35392   6.174   2.985  10.497  3.3348 -1.4310  1.7685
 1003MOL0     H35393   5.982   3.117  10.405  0.2258  0.2238  0.5188
 1003MOL0     H35394   5.921   2.966  10.503  2.2007 -1.4291 -0.1160
 1003MOL0     H35395   5.783   3.130  10.293 -3.0677 -0.8881 -0.8543
 1003MOL0     H35396   5.759   3.124  10.469 -1.0330  1.1760 -1.4625
 1003MOL0     H35397   5.646   2.928  10.463 -2.4786 -0.5836 -0.6399
 1003MOL0     H35398   5.752   2.860  10.337  1.4241  1.3257 -2.9265
 1003MOL0     H35399   5.651   3.004  10.164  1.0582  1.9137  0.5773
 1003MOL0     H35400   5.540   2.887  10.253  2.9914 -1.9146 -0.8806
 1003MOL0     H35401   5.376   3.261  10.333 -0.2688 -0.3634  1.4429
 1003MOL0     H35402   6.089   2.807  10.104  2.7813 -2.0991 -0.7825
 1003MOL0     H35403   6.242   2.657  10.010 -0.1198  0.4892 -0.2147
 1003MOL0     H35404   6.407   2.740  10.026 -0.9809 -0.0535 -0.2215
 1003MOL0     H35405   6.365   2.606  10.125 -1.6294  0.7629  2.6444
 1004MOL0     O35406   7.541   6.192   9.800 -0.6575  0.4541 -0.1205
 1004MOL0     C35407   7.534   6.077   9.841 -0.6050  0.0794  1.1581
 1004MOL0     O35408   7.631   6.019   9.919  0.0614  0.3083 -0.3910
 1004MOL0     C35409   7.739   6.095   9.961 -0.7937 -0.9410  0.2779
 1004MOL0     C35410   7.758   6.120  10.094  0.2621 -0.8857 -0.6260
 1004MOL0     C35411   7.865   6.199  10.139 -0.7051 -0.4809  0.2532
 1004MOL0     C35412   7.957   6.255  10.053  0.4199  0.2938 -0.5890
 1004MOL0     O35413   8.042   6.345  10.110  0.4145  0.1081 -0.5355
 1004MOL0     C35414   8.120   6.428  10.027 -0.4293 -0.2211 -0.0479
 1004MOL0     C35415   8.243   6.365   9.957  0.0717 -0.2657  0.5704
 1004MOL0     C35416   8.335   6.293  10.057  0.2046 -0.3128 -0.0616
 1004MOL0     C35417   8.431   6.188   9.991 -0.2878 -0.2879  0.6433
 1004MOL0     C35418   8.351   6.073   9.939 -0.0743 -0.9908 -0.1470
 1004MOL0     C35419   8.429   5.949   9.906  0.0118 -0.8567 -1.0839
 1004MOL0     C35420   8.341   5.837   9.869  0.5763  1.4081 -0.5933
 1004MOL0     C35421   8.425   5.730   9.805  0.5639  0.0681  0.2324
 1004MOL0     N35422   8.380   5.587   9.825  0.7951  0.0613 -0.4566
 1004MOL0     C35423   8.384   5.509   9.941 -0.5551 -0.3445  0.3509
 1004MOL0     C35424   8.329   5.390   9.904  0.3439 -0.1751 -0.5410
 1004MOL0     C35425   8.316   5.266   9.992  0.0746  0.1840 -0.3854
 1004MOL0     C35426   8.386   5.267  10.129  0.8566 -0.1452  1.0232
 1004MOL0     C35427   8.536   5.238  10.113 -0.4525  0.4262  0.0704
 1004MOL0     C35428   8.619   5.288  10.229  0.4010  0.1182 -0.3571
 1004MOL0     O35429   8.757   5.266  10.199  0.1382  0.0190 -0.6910
 1004MOL0     C35430   8.858   5.343  10.261  0.9997 -0.5501  1.0165
 1004MOL0     C35431   8.992   5.326  10.220 -0.1432 -0.2316 -0.6770
 1004MOL0     C35432   9.092   5.392  10.293 -0.1962  0.2674  0.8107
 1004MOL0     C35433   9.063   5.491  10.380 -0.2830 -0.4734 -0.4301
 1004MOL0     C35434   9.165   5.557  10.458 -0.6178 -0.5029  0.1800
 1004MOL0     O35435   9.283   5.487  10.464 -0.1527  1.0631 -0.3655
 1004MOL0     C35436   9.400   5.547  10.509 -0.3803 -0.4518 -0.1985
 1004MOL0     C35437   9.430   5.683  10.486 -0.0226  0.0233  1.0980
 1004MOL0     C35438   9.558   5.724  10.526 -0.2796  0.3505 -0.5391
 1004MOL0     C35439   9.651   5.641  10.596 -0.0590 -0.3593  0.6754
 1004MOL0     O35440   9.763   5.698  10.640 -0.4893  0.2238 -0.1841
 1004MOL0     C35441   9.798   5.648  10.767  0.6165 -0.6584 -0.3377
 1004MOL0     C35442   9.894   5.742  10.845  0.1756 -1.7735 -0.5987
 1004MOL0     C35443  10.031   5.792  10.780 -0.3454 -0.4018  0.4095
 1004MOL0     C35444  10.120   5.877  10.875 -0.2049  0.7225 -0.4261
 1004MOL0     C35445  10.263   5.896  10.819  0.4815 -0.8653  0.4800
 1004MOL0     C35446  10.343   5.768  10.824 -0.9299  0.2038  0.2607
 1004MOL0     C35447  10.499   5.781  10.794  0.3824 -0.2109  0.0262
 1004MOL0     C35448  10.562   5.639  10.752 -0.7120  0.0581 -0.1039
 1004MOL0    Cl35449  10.491   5.567  10.604  0.1825 -0.3862  0.2543
 1004MOL0     C35450   9.611   5.513  10.625 -0.0309 -0.2558 -0.3832
 1004MOL0     C35451   9.488   5.468  10.570 -0.4825 -0.4624  0.0235
 1004MOL0     O35452   9.140   5.665  10.514 -0.4573  0.4040  0.0006
 1004MOL0     C35453   8.929   5.520  10.407 -0.4353 -0.1934  0.4126
 1004MOL0     C35454   8.830   5.445  10.354  0.4124  0.1601 -0.0551
 1004MOL0     N35455   8.295   5.403   9.772  0.4291 -0.9549 -0.0110
 1004MOL0     N35456   8.316   5.520   9.723  0.0899 -0.5495  0.1467
 1004MOL0     C35457   7.945   6.233   9.915  0.8499  0.3157  0.8365
 1004MOL0     C35458   7.832   6.154   9.867 -0.5500 -1.2073 -0.5440
 1004MOL0     C35459   7.417   5.999   9.791  0.1213 -0.0615 -0.4849
 1004MOL0     C35460   7.362   6.026   9.660  0.2304 -0.7004  0.1981
 1004MOL0     C35461   7.245   5.965   9.611 -0.3714  0.1042  0.4028
 1004MOL0     C35462   7.177   5.884   9.695  0.1016 -0.3685  0.1888
 1004MOL0     O35463   7.052   5.825   9.654  0.2205  0.7232 -0.1730
 1004MOL0     C35464   6.956   5.911   9.584  0.2258 -0.6080 -0.0608
 1004MOL0     C35465   6.849   5.832   9.512 -0.6827 -0.1918 -0.7902
 1004MOL0     C35466   6.742   5.937   9.467  0.8641 -0.1356 -0.5543
 1004MOL0     C35467   6.625   5.888   9.368 -0.3842  0.2278 -0.3077
 1004MOL0     C35468   6.547   5.790   9.447 -0.1084 -0.2043 -0.1429
 1004MOL0     C35469   6.510   5.706   9.522 -0.2547  0.1278  0.0253
 1004MOL0     C35470   7.227   5.853   9.819  0.5243  0.6076  0.2347
 1004MOL0     C35471   7.340   5.915   9.872  0.0464 -0.2014 -0.0407
 1004MOL0     C35472   7.372   5.887  10.013  0.1417  0.2452  0.0324
 1004MOL0     H35473   7.687   6.076  10.162 -0.0957 -0.3673 -0.6591
 1004MOL0     H35474   7.879   6.238  10.239 -0.4738  1.4886 -0.4871
 1004MOL0     H35475   8.057   6.488   9.961 -1.1868 -0.2522  0.6407
 1004MOL0     H35476   8.161   6.499  10.100  1.6002 -2.2043  0.8893
 1004MOL0     H35477   8.300   6.437   9.897 -1.4459 -1.2776 -2.2806
 1004MOL0     H35478   8.207   6.294   9.881  0.6278  0.3984 -0.3435
 1004MOL0     H35479   8.273   6.241  10.131  0.9667 -1.7628 -0.4182
 1004MOL0     H35480   8.408   6.353  10.112  2.0231 -2.4009 -0.0699
 1004MOL0     H35481   8.481   6.216   9.898 -0.2906 -0.6947  0.5219
 1004MOL0     H35482   8.511   6.158  10.059  1.2708  1.1460 -0.4773
 1004MOL0     H35483   8.278   6.055  10.018  2.7682 -0.5673  2.7470
 1004MOL0     H35484   8.300   6.107   9.848 -2.4195  0.4490  1.5900
 1004MOL0     H35485   8.508   5.980   9.837  0.7526  1.6441  0.7192
 1004MOL0     H35486   8.491   5.917   9.991 -1.0710 -3.0785 -1.0539
 1004MOL0     H35487   8.250   5.860   9.812  0.7511 -0.5654 -1.7447
 1004MOL0     H35488   8.293   5.802   9.960  0.0836 -1.2869 -1.7861
 1004MOL0     H35489   8.413   5.751   9.698 -2.9432  1.1219  0.7215
 1004MOL0     H35490   8.530   5.742   9.834 -0.4242  0.4606  4.1331
 1004MOL0     H35491   8.421   5.545  10.037 -0.1812  0.9521 -0.2564
 1004MOL0     H35492   8.212   5.246  10.017  0.7439 -1.7776  1.0613
 1004MOL0     H35493   8.351   5.180   9.933 -0.1485  0.7117 -1.3194
 1004MOL0     H35494   8.363   5.364  10.174 -0.5194  0.4497 -0.8263
 1004MOL0     H35495   8.341   5.185  10.186 -2.4169 -1.3976 -2.8421
 1004MOL0     H35496   8.572   5.289  10.023  3.1852 -0.3450  0.9113
 1004MOL0     H35497   8.553   5.131  10.103  0.6871  0.4357  1.6241
 1004MOL0     H35498   8.597   5.255  10.331  1.0092  1.0347  0.0815
 1004MOL0     H35499   8.604   5.396  10.240 -1.1529 -0.0637 -0.4679
 1004MOL0     H35500   9.004   5.250  10.144 -1.9309 -4.0034  2.4246
 1004MOL0     H35501   9.196   5.378  10.265 -0.9144 -0.2937 -1.7741
 1004MOL0     H35502   9.364   5.743  10.424 -1.0081 -0.3206  1.7834
 1004MOL0     H35503   9.595   5.824  10.509  2.7150 -0.6615 -0.6660
 1004MOL0     H35504   9.702   5.651  10.819  1.1146 -1.5160  0.6653
 1004MOL0     H35505   9.852   5.555  10.748 -1.3481 -2.4822  2.3194
 1004MOL0     H35506   9.838   5.835  10.858  1.8771 -0.9090  0.7946
 1004MOL0     H35507   9.907   5.703  10.946  3.3537  3.1842  1.2165
 1004MOL0     H35508  10.088   5.708  10.739 -1.4291 -0.8561 -0.2147
 1004MOL0     H35509  10.011   5.853  10.692 -1.3207  2.4059  2.4445
 1004MOL0     H35510  10.133   5.833  10.974 -0.9167  2.2230  0.3742
 1004MOL0     H35511  10.078   5.975  10.899 -4.0602 -1.0725  1.1627
 1004MOL0     H35512  10.308   5.974  10.882  0.9084 -1.1635  0.5459
 1004MOL0     H35513  10.270   5.944  10.721  0.8679  0.7158  1.2429
 1004MOL0     H35514  10.328   5.725  10.923  0.1366 -2.4828 -0.6656
 1004MOL0     H35515  10.299   5.692  10.758  2.7240  0.5639 -2.9512
 1004MOL0     H35516  10.543   5.820  10.887 -3.5790 -1.3929  2.6573
 1004MOL0     H35517  10.519   5.838  10.703  0.8484 -0.9474 -0.3344
 1004MOL0     H35518  10.670   5.657  10.745 -1.1992  4.9318  1.2335
 1004MOL0     H35519  10.540   5.567  10.831  0.9015 -0.5560 -0.1707
 1004MOL0     H35520   9.673   5.438  10.673 -0.4568 -1.8499 -2.2346
 1004MOL0     H35521   9.458   5.364  10.584 -2.2404 -0.1941 -1.3621
 1004MOL0     H35522   8.905   5.601  10.475 -3.4930 -1.7447  1.3890
 1004MOL0     H35523   8.730   5.477  10.383  0.4156  0.9468 -0.8704
 1004MOL0     H35524   8.017   6.271   9.844  0.2065  0.0463  0.0273
 1004MOL0     H35525   7.834   6.146   9.758 -1.6832  0.1484 -0.6816
 1004MOL0     H35526   7.416   6.095   9.595 -0.7001 -0.7991 -0.7012
 1004MOL0     H35527   7.193   5.995   9.521 -1.0836 -1.9158  0.0913
 1004MOL0     H35528   7.008   5.983   9.520  0.5417 -1.1104 -0.3695
 1004MOL0     H35529   6.891   5.961   9.656  1.1873 -0.1729  0.5248
 1004MOL0     H35530   6.800   5.751   9.565 -0.9594 -0.5645 -1.6004
 1004MOL0     H35531   6.890   5.794   9.417 -0.6260 -0.8016 -0.5201
 1004MOL0     H35532   6.779   6.025   9.413 -1.5059  2.0452  1.1568
 1004MOL0     H35533   6.683   5.966   9.554  3.2203 -0.1163  1.1411
 1004MOL0     H35534   6.564   5.973   9.338 -0.1374  0.4953 -0.0697
 1004MOL0     H35535   6.678   5.845   9.283 -0.4853  0.5197 -0.5200
 1004MOL0     H35536   6.466   5.643   9.596 -2.0407  2.2717  0.9081
 1004MOL0     H35537   7.169   5.772   9.860 -0.0534 -1.0682 -3.4682
 1004MOL0     H35538   7.307   5.803  10.041  0.3113 -0.6743 -2.0903
 1004MOL0     H35539   7.474   5.850   9.996  1.4989  2.8996  1.8252
 1004MOL0     H35540   7.376   5.971  10.083  1.5797 -0.9702  1.4940
 1005MOL0     O35541   0.697   7.168   1.947 -0.9162 -0.5756 -0.4575
 1005MOL0     C35542   0.736   7.149   2.064 -0.3579  0.2373 -0.5313
 1005MOL0     O35543   0.858   7.166   2.110 -0.3728  0.5043  0.5281
 1005MOL0     C35544   0.958   7.163   2.016  0.4599  1.2671 -0.2964
 1005MOL0     C35545   1.058   7.258   2.028 -0.0221  0.2286 -0.1157
 1005MOL0     C35546   1.158   7.270   1.944  0.1397 -0.6176  0.1328
 1005MOL0     C35547   1.179   7.171   1.848  0.9026 -0.2075 -0.2495
 1005MOL0     O35548   1.274   7.175   1.751 -0.6688 -0.5151  0.4734
 1005MOL0     C35549   1.379   7.271   1.768 -0.9583  0.3138  0.3442
 1005MOL0     C35550   1.351   7.395   1.679  0.1150 -0.2133  0.0700
 1005MOL0     C35551   1.304   7.350   1.541 -0.2896  0.3844 -0.0347
 1005MOL0     C35552   1.273   7.460   1.434 -0.6989 -0.3754  0.0622
 1005MOL0     C35553   1.131   7.513   1.467  0.6128  0.8363  0.7397
 1005MOL0     C35554   1.093   7.595   1.347 -0.2279 -1.0859  0.4353
 1005MOL0     C35555   0.989   7.700   1.388 -0.5545  0.1568  0.3088
 1005MOL0     C35556   0.855   7.637   1.400 -0.5355 -0.1730 -0.7272
 1005MOL0     N35557   0.770   7.734   1.457  0.2638 -0.4284  0.1582
 1005MOL0     C35558   0.744   7.733   1.593  0.2968  0.4790  0.1459
 1005MOL0     C35559   0.651   7.829   1.615  0.0018  0.1142  0.1247
 1005MOL0     C35560   0.586   7.867   1.747 -0.3455  0.3700 -0.2729
 1005MOL0     C35561   0.658   7.986   1.804  0.2242 -0.4265 -0.4094
 1005MOL0     C35562   0.795   7.953   1.850 -0.2349  0.8199 -0.1434
 1005MOL0     C35563   0.847   8.054   1.952  0.9357  0.1947 -1.1024
 1005MOL0     O35564   0.918   7.967   2.047 -0.6293  0.8552 -0.9191
 1005MOL0     C35565   0.954   8.036   2.154 -0.6140  0.7103  1.3534
 1005MOL0     C35566   1.067   8.120   2.134 -0.0873  0.0832 -0.2084
 1005MOL0     C35567   1.115   8.181   2.255 -0.4992  0.1534 -0.1488
 1005MOL0     C35568   1.044   8.173   2.376 -0.1661 -0.0084 -0.3948
 1005MOL0     C35569   1.109   8.217   2.505 -0.0344  0.1017  1.1651
 1005MOL0     O35570   1.233   8.273   2.501  0.4895  0.0188  0.1061
 1005MOL0     C35571   1.300   8.309   2.618  0.7021  1.0330  0.0423
 1005MOL0     C35572   1.438   8.301   2.609  0.6241 -0.6059 -0.0199
 1005MOL0     C35573   1.528   8.334   2.713 -0.7257  0.2280  0.1520
 1005MOL0     C35574   1.476   8.359   2.838  0.5419  0.0713 -0.7283
 1005MOL0     O35575   1.568   8.382   2.937  0.3809  0.0432  0.0814
 1005MOL0     C35576   1.519   8.366   3.075  0.3638 -0.2767 -0.5413
 1005MOL0     C35577   1.500   8.505   3.135  0.3926  0.0046  0.0717
 1005MOL0     C35578   1.428   8.512   3.276  0.3566 -0.1416 -0.0360
 1005MOL0     C35579   1.518   8.470   3.396 -0.2798 -0.6940  1.1806
 1005MOL0     C35580   1.439   8.458   3.523  0.5457  0.5270  0.0135
 1005MOL0     C35581   1.443   8.326   3.591  0.6177  0.7621 -0.6287
 1005MOL0     C35582   1.367   8.221   3.512  0.2035 -0.1491  0.9851
 1005MOL0     C35583   1.335   8.099   3.590  0.3115 -0.3666  0.5852
 1005MOL0    Cl35584   1.494   8.035   3.653  0.2128  0.1388  0.3734
 1005MOL0     C35585   1.336   8.377   2.847  1.1794  0.6042  0.4568
 1005MOL0     C35586   1.251   8.355   2.735 -0.3289 -0.3254  0.3395
 1005MOL0     O35587   1.049   8.189   2.608 -0.4220 -0.4638  0.3499
 1005MOL0     C35588   0.911   8.108   2.383 -0.4539  0.0431 -0.1928
 1005MOL0     C35589   0.873   8.038   2.259 -0.0838  0.4922  0.6099
 1005MOL0     N35590   0.629   7.897   1.493  0.1344 -0.4922 -0.0636
 1005MOL0     N35591   0.704   7.843   1.405 -0.1421  0.2066  0.1108
 1005MOL0     C35592   1.079   7.070   1.832 -0.5772 -0.0504 -0.0567
 1005MOL0     C35593   0.976   7.061   1.920  0.0769  0.3162  0.4156
 1005MOL0     C35594   0.631   7.118   2.169  0.1054 -0.5768  0.3185
 1005MOL0     C35595   0.657   7.147   2.305  0.0306 -0.8807  0.8161
 1005MOL0     C35596   0.561   7.138   2.402 -0.2975  0.3111 -0.1327
 1005MOL0     C35597   0.437   7.095   2.369 -0.5193  0.8641  0.1971
 1005MOL0     O35598   0.356   7.069   2.480  0.2169  0.1276 -0.6880
 1005MOL0     C35599   0.224   7.021   2.464  0.4189  0.3457  0.1679
 1005MOL0     C35600   0.163   6.992   2.599 -0.6213  1.0373  0.1653
 1005MOL0     C35601   0.023   6.938   2.561  0.2672 -1.0489  0.2766
 1005MOL0     C35602  -0.076   6.920   2.678  0.1240 -0.6383  0.1299
 1005MOL0     C35603  -0.213   6.951   2.640 -0.2953  0.3363  0.4390
 1005MOL0     C35604  -0.329   6.966   2.620 -0.6051  0.3780  0.8399
 1005MOL0     C35605   0.402   7.080   2.244  0.1573  0.4591  0.4875
 1005MOL0     C35606   0.497   7.090   2.141  0.1511  0.0904 -0.7678
 1005MOL0     C35607   0.450   7.056   2.006 -0.6491 -0.2185 -0.1096
 1005MOL0     H35608   1.048   7.342   2.095 -1.2960  0.3955 -0.4776
 1005MOL0     H35609   1.219   7.359   1.943  1.6844 -1.6106 -1.7930
 1005MOL0     H35610   1.401   7.304   1.870  1.0721 -2.1615  0.8029
 1005MOL0     H35611   1.466   7.214   1.733  0.1113  2.2070 -0.2685
 1005MOL0     H35612   1.440   7.458   1.677  2.4290 -3.2381 -2.4549
 1005MOL0     H35613   1.270   7.451   1.727 -0.9427 -1.9487  0.3627
 1005MOL0     H35614   1.210   7.295   1.550 -0.2058  0.5346  2.1707
 1005MOL0     H35615   1.385   7.288   1.501 -0.2822  0.6749 -0.4788
 1005MOL0     H35616   1.346   7.541   1.429 -0.5729 -0.5506 -1.4133
 1005MOL0     H35617   1.270   7.416   1.334 -2.7755  1.5916 -0.8317
 1005MOL0     H35618   1.067   7.430   1.496  1.3305 -0.1633 -0.3810
 1005MOL0     H35619   1.134   7.584   1.550  0.0265  2.8180 -0.8634
 1005MOL0     H35620   1.180   7.644   1.302 -2.8664  2.3431 -1.5579
 1005MOL0     H35621   1.056   7.539   1.260 -1.1084 -1.7508  1.2242
 1005MOL0     H35622   0.966   7.784   1.321 -2.6677 -3.5702 -4.1858
 1005MOL0     H35623   1.011   7.735   1.489 -1.2248 -0.2395  0.5956
 1005MOL0     H35624   0.832   7.596   1.301 -1.7281 -0.5053 -0.3342
 1005MOL0     H35625   0.842   7.547   1.462 -0.5000  0.9120  0.9084
 1005MOL0     H35626   0.772   7.668   1.676 -3.3889 -0.2678  0.9995
 1005MOL0     H35627   0.478   7.888   1.747 -1.4504 -3.5011  4.6490
 1005MOL0     H35628   0.586   7.774   1.804 -1.6084 -0.8000 -2.0433
 1005MOL0     H35629   0.665   8.061   1.725  0.2359  1.3194  1.1858
 1005MOL0     H35630   0.602   8.037   1.883 -1.1130  0.5008 -1.8941
 1005MOL0     H35631   0.867   7.940   1.769  1.3491  3.2653  0.7363
 1005MOL0     H35632   0.793   7.864   1.914  1.7821  1.7832  1.3995
 1005MOL0     H35633   0.768   8.103   2.009  1.0570  1.1778 -1.7560
 1005MOL0     H35634   0.909   8.132   1.907 -0.0335  1.3012 -0.5666
 1005MOL0     H35635   1.114   8.120   2.036 -1.7845  0.1700 -1.0538
 1005MOL0     H35636   1.203   8.243   2.248 -0.1395 -0.2400  0.7313
 1005MOL0     H35637   1.471   8.262   2.513 -1.1805  0.7493 -1.2705
 1005MOL0     H35638   1.636   8.333   2.706 -0.7179 -0.2329  0.3094
 1005MOL0     H35639   1.430   8.304   3.081 -0.5040  1.0443  0.8838
 1005MOL0     H35640   1.600   8.318   3.131 -0.8273  1.5257  3.0243
 1005MOL0     H35641   1.589   8.568   3.126 -0.0882  0.7591  0.4831
 1005MOL0     H35642   1.436   8.551   3.059  1.3721 -1.3090 -1.6132
 1005MOL0     H35643   1.388   8.611   3.301 -3.3830 -1.2018 -1.1810
 1005MOL0     H35644   1.341   8.447   3.281 -1.4166  2.1765  1.4820
 1005MOL0     H35645   1.598   8.545   3.393  1.2483 -2.2497 -1.5183
 1005MOL0     H35646   1.565   8.373   3.374  2.7136  0.8699  0.0445
 1005MOL0     H35647   1.334   8.480   3.500  1.5342  1.9298 -3.8992
 1005MOL0     H35648   1.463   8.538   3.594 -1.2408  1.2341 -0.1013
 1005MOL0     H35649   1.546   8.299   3.614  0.4870  1.8241  1.4529
 1005MOL0     H35650   1.393   8.333   3.688 -0.8192  0.5662 -1.3270
 1005MOL0     H35651   1.422   8.191   3.423  2.0380 -0.7262  2.2377
 1005MOL0     H35652   1.268   8.255   3.482 -0.1879 -0.9416  1.3542
 1005MOL0     H35653   1.261   8.126   3.666 -0.2563 -1.1306  0.3191
 1005MOL0     H35654   1.287   8.021   3.531 -0.9371 -1.3857  2.8387
 1005MOL0     H35655   1.297   8.408   2.943  0.0755  0.0019  0.2288
 1005MOL0     H35656   1.144   8.371   2.748 -0.0215  2.9505 -0.3422
 1005MOL0     H35657   0.850   8.101   2.472 -1.9827 -1.1302 -1.2685
 1005MOL0     H35658   0.782   7.984   2.234  1.8188 -3.0011  0.5419
 1005MOL0     H35659   1.099   6.992   1.759  3.2194 -0.7047  1.4422
 1005MOL0     H35660   0.903   6.981   1.918 -3.1175  2.8166  3.5573
 1005MOL0     H35661   0.758   7.180   2.328 -0.3529  1.0660 -0.1111
 1005MOL0     H35662   0.595   7.157   2.503 -0.7634  0.8078 -0.0675
 1005MOL0     H35663   0.219   6.933   2.400 -2.8668 -0.2291  1.0276
 1005MOL0     H35664   0.164   7.102   2.421 -1.6451 -1.2313 -0.0794
 1005MOL0     H35665   0.148   7.090   2.647 -1.5252  0.3201  1.4096
 1005MOL0     H35666   0.217   6.927   2.669 -2.1061  1.2751  1.6093
 1005MOL0     H35667   0.028   6.844   2.506 -1.7209 -0.9771 -0.0732
 1005MOL0     H35668  -0.022   7.010   2.493 -0.2745 -1.4167  0.2386
 1005MOL0     H35669  -0.072   6.815   2.709  3.5865 -1.1532 -1.5971
 1005MOL0     H35670  -0.045   6.979   2.765 -0.0226 -2.0555  1.1771
 1005MOL0     H35671  -0.432   6.994   2.609 -1.2138 -1.6090  1.1664
 1005MOL0     H35672   0.300   7.051   2.222 -0.1839  2.0834 -0.2589
 1005MOL0     H35673   0.515   6.989   1.949 -1.3287 -0.0615 -1.1071
 1005MOL0     H35674   0.349   7.019   2.021 -0.9904  0.9321  0.5064
 1005MOL0     H35675   0.443   7.147   1.945 -1.6615 -0.2658 -0.0697
 1006MOL0     O35676   0.980   5.403   3.237 -0.7484  0.6844  0.3765
 1006MOL0     C35677   0.941   5.325   3.325 -0.9992  0.6425  0.2990
 1006MOL0     O35678   1.033   5.267   3.410 -0.0882 -0.1181  0.8639
 1006MOL0     C35679   1.165   5.258   3.372 -0.1692 -0.1198 -0.5100
 1006MOL0     C35680   1.213   5.202   3.250 -0.8575  0.8262  0.1615
 1006MOL0     C35681   1.348   5.200   3.211 -0.4666  1.4012  0.9265
 1006MOL0     C35682   1.440   5.254   3.300 -0.3895  1.1115  0.2207
 1006MOL0     O35683   1.578   5.230   3.276  0.8290  0.2547  0.0034
 1006MOL0     C35684   1.670   5.343   3.272 -0.0294  0.2358 -0.1914
 1006MOL0     C35685   1.752   5.349   3.393 -0.8558 -0.0200  0.4257
 1006MOL0     C35686   1.900   5.404   3.369  0.1990 -0.3755  0.0150
 1006MOL0     C35687   1.900   5.559   3.365  0.2596  0.0472 -0.0804
 1006MOL0     C35688   2.044   5.610   3.377 -0.2720 -0.3041  0.0547
 1006MOL0     C35689   2.128   5.609   3.248 -0.1041  0.0072 -0.2651
 1006MOL0     C35690   2.261   5.669   3.273 -0.2165  0.6775 -0.1014
 1006MOL0     C35691   2.279   5.811   3.327  0.0825  0.5413 -1.0311
 1006MOL0     N35692   2.413   5.819   3.391  0.2399  0.1670 -0.6455
 1006MOL0     C35693   2.431   5.852   3.527 -0.8146  1.0110  0.0246
 1006MOL0     C35694   2.570   5.855   3.537  0.4351 -0.6860  0.5496
 1006MOL0     C35695   2.635   5.868   3.671  0.6544 -0.1778 -0.1031
 1006MOL0     C35696   2.735   5.985   3.674 -0.3236  0.3003 -0.4828
 1006MOL0     C35697   2.689   6.126   3.690  0.4620  0.3236 -0.4025
 1006MOL0     C35698   2.797   6.233   3.696  0.0217  0.0463 -0.2872
 1006MOL0     O35699   2.878   6.228   3.575  0.1868 -0.1284 -0.0201
 1006MOL0     C35700   3.008   6.283   3.579  0.7505 -0.0295 -0.7977
 1006MOL0     C35701   3.058   6.350   3.694  0.0727 -0.1269  0.3266
 1006MOL0     C35702   3.188   6.397   3.707  0.3174  0.1380  0.3204
 1006MOL0     C35703   3.280   6.363   3.604  1.1616 -0.2503  1.0163
 1006MOL0     C35704   3.412   6.415   3.612 -0.2309  1.0470 -0.4923
 1006MOL0     O35705   3.441   6.500   3.713  0.3681  0.3143 -0.3685
 1006MOL0     C35706   3.571   6.538   3.733 -0.2816  0.6651  0.0823
 1006MOL0     C35707   3.617   6.655   3.680 -0.5159 -0.2089 -0.1852
 1006MOL0     C35708   3.736   6.710   3.719 -0.6495  0.2641  0.2349
 1006MOL0     C35709   3.814   6.639   3.808  0.0858 -0.9022 -0.1631
 1006MOL0     O35710   3.943   6.684   3.828  0.2991 -0.1501 -0.0490
 1006MOL0     C35711   4.009   6.672   3.964 -0.0097  0.2321 -0.2981
 1006MOL0     C35712   4.141   6.747   3.970 -1.5504 -0.1759  0.1625
 1006MOL0     C35713   4.237   6.680   3.868  0.0136 -0.1894  0.1330
 1006MOL0     C35714   4.389   6.701   3.912  0.0577 -0.2675  0.0491
 1006MOL0     C35715   4.480   6.639   3.806 -0.3016  0.3753 -0.3598
 1006MOL0     C35716   4.630   6.642   3.841 -0.1618  0.0458 -0.6587
 1006MOL0     C35717   4.697   6.782   3.832 -0.3239 -0.8756 -0.4869
 1006MOL0     C35718   4.811   6.801   3.936  0.1295  0.7533  0.2107
 1006MOL0    Cl35719   4.947   6.673   3.909  0.1058 -0.7024  0.1552
 1006MOL0     C35720   3.780   6.516   3.851  0.5896  1.0272 -0.0157
 1006MOL0     C35721   3.652   6.461   3.818 -0.5194 -0.5232 -0.4968
 1006MOL0     O35722   3.495   6.367   3.534 -0.1968 -0.1099  0.4029
 1006MOL0     C35723   3.232   6.295   3.494 -0.9855  0.6795  0.0209
 1006MOL0     C35724   3.098   6.256   3.477  0.1113 -0.2622 -0.9799
 1006MOL0     N35725   2.623   5.823   3.414  0.1997 -0.2229 -0.0911
 1006MOL0     N35726   2.532   5.816   3.324 -0.2474  0.5323  0.0035
 1006MOL0     C35727   1.402   5.323   3.418 -0.5643 -0.1491  0.6667
 1006MOL0     C35728   1.263   5.326   3.448 -0.0594  0.1364  0.8159
 1006MOL0     C35729   0.794   5.295   3.342 -0.9039  0.1426  0.1475
 1006MOL0     C35730   0.704   5.388   3.288  0.5643 -0.0780  0.3991
 1006MOL0     C35731   0.565   5.369   3.296  0.4552  0.5604  0.3274
 1006MOL0     C35732   0.510   5.244   3.339 -0.3910 -1.2328 -0.0407
 1006MOL0     O35733   0.379   5.218   3.324  0.5837  0.7181 -0.3728
 1006MOL0     C35734   0.290   5.325   3.362 -0.2585  0.1337  0.0333
 1006MOL0     C35735   0.145   5.279   3.354 -0.7271 -0.3008  0.2601
 1006MOL0     C35736   0.036   5.397   3.379  0.0725  0.5816  0.2861
 1006MOL0     C35737  -0.103   5.358   3.334  0.2469  0.0181  0.2655
 1006MOL0     C35738  -0.146   5.242   3.405 -0.1432  1.2908 -0.1484
 1006MOL0     C35739  -0.206   5.146   3.454 -0.2124 -0.0503  0.4853
 1006MOL0     C35740   0.599   5.149   3.389 -0.6566 -0.1696  0.8839
 1006MOL0     C35741   0.737   5.170   3.393  0.8656  0.0264 -0.7791
 1006MOL0     C35742   0.821   5.061   3.464  0.9604  0.0892  0.8526
 1006MOL0     H35743   1.133   5.153   3.196 -1.0508  0.5392  0.6948
 1006MOL0     H35744   1.372   5.141   3.123 -2.0416  0.8876  0.7962
 1006MOL0     H35745   1.741   5.336   3.189  0.9288  2.0915  0.4149
 1006MOL0     H35746   1.621   5.440   3.268  0.9577  0.8709  1.7321
 1006MOL0     H35747   1.774   5.249   3.431  2.5306  0.5978  0.4032
 1006MOL0     H35748   1.702   5.402   3.474 -2.0461 -1.8104  0.9374
 1006MOL0     H35749   1.938   5.369   3.273  2.1312  1.7974 -0.0970
 1006MOL0     H35750   1.963   5.376   3.453  0.5759 -1.4338 -0.6089
 1006MOL0     H35751   1.856   5.594   3.272 -1.3536 -0.5142  0.4457
 1006MOL0     H35752   1.843   5.599   3.449 -1.5351 -1.0195 -0.7469
 1006MOL0     H35753   2.037   5.705   3.430 -0.0177 -0.9114  1.2333
 1006MOL0     H35754   2.104   5.554   3.450  0.1276  0.1749  0.0967
 1006MOL0     H35755   2.139   5.508   3.207 -1.8472 -0.6709  0.7896
 1006MOL0     H35756   2.083   5.677   3.176  2.4448  2.9937  0.7522
 1006MOL0     H35757   2.309   5.661   3.175 -2.3467 -0.9416 -1.0893
 1006MOL0     H35758   2.312   5.599   3.340  0.8678 -0.5833 -2.1324
 1006MOL0     H35759   2.282   5.873   3.237 -1.3622 -0.3032 -1.6858
 1006MOL0     H35760   2.196   5.840   3.392 -0.4882 -0.7040 -1.1964
 1006MOL0     H35761   2.356   5.863   3.605  1.5370  1.3629  2.3545
 1006MOL0     H35762   2.565   5.876   3.755  0.1447 -2.9769 -0.1780
 1006MOL0     H35763   2.674   5.769   3.696  0.1625 -0.1487  0.8583
 1006MOL0     H35764   2.807   5.968   3.754  0.5146 -0.0138 -1.2789
 1006MOL0     H35765   2.784   5.982   3.576 -1.7052 -3.0083 -1.1923
 1006MOL0     H35766   2.643   6.142   3.788  1.1538 -0.5430  0.0813
 1006MOL0     H35767   2.620   6.143   3.607 -1.2054 -2.7400  0.1719
 1006MOL0     H35768   2.856   6.214   3.786 -0.3398  2.7488  0.6098
 1006MOL0     H35769   2.753   6.333   3.703 -1.7503 -0.7446  0.6397
 1006MOL0     H35770   2.995   6.365   3.780 -0.8486 -1.1497 -0.1431
 1006MOL0     H35771   3.205   6.450   3.800 -0.2131  0.1700  0.4017
 1006MOL0     H35772   3.546   6.711   3.618  1.3705 -0.2441 -2.5321
 1006MOL0     H35773   3.776   6.806   3.687  2.5279 -0.5680  1.3458
 1006MOL0     H35774   3.945   6.721   4.037  0.5014 -1.4675  1.3604
 1006MOL0     H35775   4.021   6.572   4.006  0.6283  0.5869  0.3786
 1006MOL0     H35776   4.120   6.853   3.950 -1.4147  0.3007  2.2823
 1006MOL0     H35777   4.186   6.747   4.070 -0.3343 -1.1979 -0.3606
 1006MOL0     H35778   4.214   6.574   3.852  0.7672 -0.5952  1.5518
 1006MOL0     H35779   4.222   6.724   3.770  2.5248  0.8456  0.1404
 1006MOL0     H35780   4.419   6.637   3.996  0.7870 -1.8027 -1.3360
 1006MOL0     H35781   4.413   6.807   3.924  0.5377 -0.4603  0.9713
 1006MOL0     H35782   4.464   6.690   3.710  1.0346  1.5083 -0.0108
 1006MOL0     H35783   4.458   6.532   3.808  1.2983  0.0068 -0.7712
 1006MOL0     H35784   4.645   6.619   3.947  2.2738  0.4004 -0.8799
 1006MOL0     H35785   4.687   6.571   3.781 -0.2619 -2.2420  1.7985
 1006MOL0     H35786   4.627   6.864   3.850  1.7410  1.0119 -0.6334
 1006MOL0     H35787   4.726   6.800   3.728  0.9963  0.7060  0.1153
 1006MOL0     H35788   4.852   6.902   3.926  0.9365  0.4384  0.2654
 1006MOL0     H35789   4.773   6.799   4.039 -0.9684 -1.7416 -0.1667
 1006MOL0     H35790   3.842   6.454   3.915 -0.7038 -3.1871 -2.4115
 1006MOL0     H35791   3.624   6.375   3.878  1.0351 -0.3346  0.5398
 1006MOL0     H35792   3.302   6.264   3.417  0.3308  1.5565  0.8211
 1006MOL0     H35793   3.060   6.205   3.389  1.1448  0.1254 -1.6556
 1006MOL0     H35794   1.470   5.359   3.496 -0.2472 -2.3555  1.5032
 1006MOL0     H35795   1.235   5.371   3.543 -2.5915 -2.1754  1.2717
 1006MOL0     H35796   0.722   5.488   3.249  2.2160 -0.3358  0.4335
 1006MOL0     H35797   0.498   5.440   3.247  1.4416  0.2849 -1.5285
 1006MOL0     H35798   0.293   5.409   3.292  2.4525 -0.3958 -0.5753
 1006MOL0     H35799   0.322   5.352   3.463  1.6657 -0.5496 -0.3445
 1006MOL0     H35800   0.125   5.203   3.431  1.5979 -0.2103  1.0196
 1006MOL0     H35801   0.137   5.233   3.255  1.3446  1.4366 -0.7933
 1006MOL0     H35802   0.067   5.478   3.313 -0.7206  0.0932 -0.7167
 1006MOL0     H35803   0.042   5.433   3.482  0.0334 -0.2584  0.5896
 1006MOL0     H35804  -0.166   5.445   3.351 -0.3124 -0.7286  2.3410
 1006MOL0     H35805  -0.095   5.322   3.231 -0.3283  2.4851 -0.7121
 1006MOL0     H35806  -0.231   5.055   3.504 -1.1171 -1.2928 -2.0789
 1006MOL0     H35807   0.562   5.054   3.425  3.7505 -1.9759  1.2560
 1006MOL0     H35808   0.779   4.960   3.471 -0.3243  0.6505  1.4251
 1006MOL0     H35809   0.915   5.051   3.408  0.6731 -0.6033  0.4795
 1006MOL0     H35810   0.843   5.093   3.566  2.7030 -0.9615  0.8439
 1007MOL0     O35811   7.542   3.984   9.393  0.4731 -0.3107 -0.9622
 1007MOL0     C35812   7.488   3.985   9.503  0.7809  0.2462 -0.0305
 1007MOL0     O35813   7.550   4.007   9.626  0.0120 -0.0932  0.2662
 1007MOL0     C35814   7.665   4.074   9.632 -0.3292  0.2440 -0.6390
 1007MOL0     C35815   7.696   4.195   9.570 -0.1000  0.3499  0.5917
 1007MOL0     C35816   7.815   4.258   9.603  0.3647  0.0525 -0.1240
 1007MOL0     C35817   7.909   4.209   9.697  0.0266  0.4171  0.6049
 1007MOL0     O35818   8.023   4.278   9.715 -0.0393 -0.7126 -0.0071
 1007MOL0     C35819   8.115   4.219   9.808  0.1052 -0.2183 -0.1393
 1007MOL0     C35820   8.247   4.301   9.827 -0.0485  0.4782  0.1143
 1007MOL0     C35821   8.352   4.253   9.728 -0.1135  0.1601  0.1093
 1007MOL0     C35822   8.499   4.283   9.765 -0.4867  0.3244  0.9684
 1007MOL0     C35823   8.541   4.427   9.760  0.5475 -0.1971 -1.3077
 1007MOL0     C35824   8.693   4.445   9.783  0.5278 -0.3164  0.4028
 1007MOL0     C35825   8.738   4.586   9.745  0.2279  0.1360  1.2603
 1007MOL0     C35826   8.891   4.597   9.762  0.2290 -0.1682 -0.8188
 1007MOL0     N35827   8.940   4.730   9.698  0.1542  0.5193  0.2478
 1007MOL0     C35828   8.914   4.855   9.746 -1.1390 -0.0015 -0.4422
 1007MOL0     C35829   8.995   4.937   9.681  0.0491 -0.1798  0.3297
 1007MOL0     C35830   9.010   5.088   9.690 -0.5996 -0.5400 -0.0070
 1007MOL0     C35831   9.147   5.146   9.739  0.0944  0.7281  0.4247
 1007MOL0     C35832   9.158   5.138   9.892 -0.6477  0.3904  0.2576
 1007MOL0     C35833   9.271   5.219   9.943 -0.6371  0.8356  0.0696
 1007MOL0     O35834   9.281   5.178  10.078  0.5646 -0.7834  0.3068
 1007MOL0     C35835   9.393   5.213  10.148 -0.4926  0.4812  0.3510
 1007MOL0     C35836   9.417   5.153  10.271 -0.6861  1.2406  0.1345
 1007MOL0     C35837   9.536   5.163  10.344 -1.5325 -0.1997 -0.4182
 1007MOL0     C35838   9.642   5.244  10.291  0.1526  0.2238 -0.1942
 1007MOL0     C35839   9.758   5.273  10.371  0.3483 -0.1093 -0.6093
 1007MOL0     O35840   9.753   5.213  10.495  0.3313 -0.3105 -0.0845
 1007MOL0     C35841   9.864   5.206  10.573  0.0311 -0.3779  0.5680
 1007MOL0     C35842   9.908   5.082  10.615  0.3376  0.1878 -0.0949
 1007MOL0     C35843  10.024   5.072  10.696  0.1733 -0.6647  0.2089
 1007MOL0     C35844  10.100   5.182  10.715  0.1164 -0.1687 -0.5990
 1007MOL0     O35845  10.207   5.170  10.795 -0.0060  0.4377 -0.2064
 1007MOL0     C35846  10.324   5.239  10.766 -0.0733 -0.0452 -0.6096
 1007MOL0     C35847  10.372   5.201  10.622 -0.6236  0.1683  0.1478
 1007MOL0     C35848  10.523   5.219  10.606  0.3146  0.3979 -0.0706
 1007MOL0     C35849  10.569   5.190  10.463  0.0776 -0.5466 -0.0911
 1007MOL0     C35850  10.715   5.230  10.443  0.4306  0.5123  0.1170
 1007MOL0     C35851  10.770   5.204  10.301  0.4541  0.3369 -0.9165
 1007MOL0     C35852  10.911   5.249  10.292 -0.2802  0.4844 -0.0069
 1007MOL0     C35853  10.964   5.196  10.160 -0.2528 -0.1304 -0.2184
 1007MOL0    Cl35854  10.877   5.278  10.028 -0.3558 -0.3787  0.1965
 1007MOL0     C35855  10.055   5.307  10.667  0.0797 -0.7378 -0.0512
 1007MOL0     C35856   9.933   5.324  10.600  0.5036 -0.1666 -0.7789
 1007MOL0     O35857   9.853   5.344  10.337  0.2201 -0.2744 -0.5403
 1007MOL0     C35858   9.618   5.315  10.172 -0.6285  0.7511 -0.5587
 1007MOL0     C35859   9.500   5.301  10.102  0.1433  0.4013  0.2540
 1007MOL0     N35860   9.059   4.863   9.582 -0.5291 -0.4118  1.0035
 1007MOL0     N35861   9.031   4.735   9.599 -0.2129 -0.0134  0.0339
 1007MOL0     C35862   7.878   4.085   9.752 -1.2408  0.0236 -0.1593
 1007MOL0     C35863   7.755   4.026   9.727 -0.4707  0.0304  0.0080
 1007MOL0     C35864   7.344   3.973   9.507  0.0582  0.5051 -0.3730
 1007MOL0     C35865   7.276   4.009   9.629  0.1837 -0.3806  0.4231
 1007MOL0     C35866   7.141   3.981   9.648 -0.4146 -0.0377 -0.7223
 1007MOL0     C35867   7.069   3.920   9.546 -0.2619  0.6000 -0.2911
 1007MOL0     O35868   6.937   3.883   9.563  0.4619 -0.3123  0.0776
 1007MOL0     C35869   6.867   3.883   9.684 -0.4986 -0.0471 -0.2488
 1007MOL0     C35870   6.750   3.797   9.671  0.4684  0.5899 -0.1242
 1007MOL0     C35871   6.775   3.642   9.638 -0.3824  0.0399 -0.2455
 1007MOL0     C35872   6.870   3.581   9.750 -0.0295 -0.4926 -0.1426
 1007MOL0     C35873   6.887   3.444   9.712  0.6782  0.5521 -0.1152
 1007MOL0     C35874   6.891   3.332   9.678  1.0987 -0.3143  0.1787
 1007MOL0     C35875   7.121   3.895   9.428  0.4617  0.0502  0.3357
 1007MOL0     C35876   7.253   3.928   9.398 -0.7801 -0.5886 -1.1443
 1007MOL0     C35877   7.309   3.900   9.257  1.2048  0.2869  0.2676
 1007MOL0     H35878   7.621   4.243   9.508  0.4529  1.8902  1.0519
 1007MOL0     H35879   7.838   4.343   9.540  0.0234 -0.7965 -1.4288
 1007MOL0     H35880   8.058   4.213   9.901 -1.5616  0.0816 -1.0992
 1007MOL0     H35881   8.144   4.120   9.774  3.8835  1.6115 -3.0173
 1007MOL0     H35882   8.285   4.268   9.924  0.8533  0.2481 -0.3032
 1007MOL0     H35883   8.231   4.409   9.818  0.5147  0.5194 -0.5443
 1007MOL0     H35884   8.325   4.310   9.638  1.0589  2.0820  0.9101
 1007MOL0     H35885   8.331   4.151   9.697  1.9519 -0.1209 -0.5404
 1007MOL0     H35886   8.513   4.236   9.863  0.2946 -1.1342  0.1966
 1007MOL0     H35887   8.566   4.233   9.695 -2.6949 -0.5779 -0.6142
 1007MOL0     H35888   8.520   4.466   9.660  2.6495  3.0674 -0.6181
 1007MOL0     H35889   8.490   4.482   9.840  2.6732  1.0184 -0.7299
 1007MOL0     H35890   8.701   4.427   9.891  1.2000 -1.0923  0.2271
 1007MOL0     H35891   8.744   4.369   9.723 -0.6305 -0.3265 -0.6143
 1007MOL0     H35892   8.686   4.662   9.804 -0.6658  1.8294 -1.5179
 1007MOL0     H35893   8.715   4.602   9.639 -0.6315 -1.1881  1.2222
 1007MOL0     H35894   8.923   4.580   9.865 -0.8815 -0.6135 -0.5308
 1007MOL0     H35895   8.940   4.519   9.703 -0.9318 -1.8448  0.3618
 1007MOL0     H35896   8.844   4.880   9.825 -1.3999  0.1552 -0.7220
 1007MOL0     H35897   8.983   5.122   9.590 -1.2842 -0.8051  0.0803
 1007MOL0     H35898   8.933   5.138   9.750 -0.7737  0.3441 -0.9406
 1007MOL0     H35899   9.223   5.096   9.679  0.0775  4.1477 -2.7881
 1007MOL0     H35900   9.147   5.252   9.713  1.3136 -0.3683 -5.6762
 1007MOL0     H35901   9.170   5.032   9.918  0.0325  0.6885  1.1998
 1007MOL0     H35902   9.070   5.177   9.944  0.4498  0.2861  2.3007
 1007MOL0     H35903   9.253   5.326   9.935  2.1713  1.3119 -1.1026
 1007MOL0     H35904   9.365   5.208   9.888 -0.3215  1.1003  0.5437
 1007MOL0     H35905   9.337   5.099  10.322 -0.5720  0.6270 -0.3293
 1007MOL0     H35906   9.546   5.106  10.436  1.8025  0.7166 -0.0659
 1007MOL0     H35907   9.857   4.991  10.586  3.9582 -1.9701 -0.2661
 1007MOL0     H35908  10.040   4.985  10.759  1.6150 -0.1181  0.6387
 1007MOL0     H35909  10.319   5.347  10.784 -1.2171 -0.0320 -0.9625
 1007MOL0     H35910  10.399   5.202  10.837 -2.4349  2.4392  3.5620
 1007MOL0     H35911  10.353   5.095  10.605 -0.5391  0.1800 -0.0200
 1007MOL0     H35912  10.326   5.264  10.545  3.0934 -1.4381 -3.8374
 1007MOL0     H35913  10.546   5.323  10.629  0.3254  0.3868 -0.0293
 1007MOL0     H35914  10.579   5.150  10.671 -0.6039 -0.9893 -0.7047
 1007MOL0     H35915  10.516   5.255  10.392  0.3755 -2.0134 -1.7143
 1007MOL0     H35916  10.558   5.085  10.434  2.1296 -0.8781  0.2444
 1007MOL0     H35917  10.771   5.180  10.522 -0.6926  0.0044  0.6210
 1007MOL0     H35918  10.728   5.338  10.456  3.7666  0.0380  1.7850
 1007MOL0     H35919  10.748   5.104  10.262 -0.1302  0.7931 -1.8115
 1007MOL0     H35920  10.711   5.266  10.232 -0.0440 -0.5205 -1.2714
 1007MOL0     H35921  10.957   5.206  10.381  1.0056  1.5540 -0.1259
 1007MOL0     H35922  10.918   5.359  10.288  0.2417  0.4522  0.0342
 1007MOL0     H35923  11.072   5.205  10.165 -0.3036  0.3626 -0.0159
 1007MOL0     H35924  10.935   5.091  10.173  0.9848 -0.3991  0.5337
 1007MOL0     H35925  10.120   5.392  10.682  0.8286 -1.3743  0.3710
 1007MOL0     H35926   9.903   5.421  10.560 -1.4405 -1.2135 -2.0043
 1007MOL0     H35927   9.700   5.378  10.141 -0.8444  0.8814 -0.8613
 1007MOL0     H35928   9.504   5.354  10.007  0.7794  1.7036  0.9784
 1007MOL0     H35929   7.944   4.029   9.818  0.0368  2.2022  0.5136
 1007MOL0     H35930   7.722   3.947   9.793 -1.3418  0.5172  0.1753
 1007MOL0     H35931   7.326   4.046   9.718  1.0503 -0.1957 -0.1293
 1007MOL0     H35932   7.094   3.993   9.745 -1.3244 -5.1639 -0.2558
 1007MOL0     H35933   6.843   3.986   9.710  1.4484  0.2166  0.6435
 1007MOL0     H35934   6.926   3.853   9.771 -0.3025 -0.8603 -0.6517
 1007MOL0     H35935   6.679   3.830   9.595 -0.0043  1.7967  0.8119
 1007MOL0     H35936   6.697   3.816   9.765 -0.0389  0.7093 -0.4312
 1007MOL0     H35937   6.811   3.618   9.538 -1.1647  0.4475 -0.6306
 1007MOL0     H35938   6.680   3.588   9.648  0.1652 -0.8221  0.5174
 1007MOL0     H35939   6.964   3.636   9.758 -0.0387 -0.2782 -1.3211
 1007MOL0     H35940   6.825   3.599   9.848  1.4338  0.6259  0.3574
 1007MOL0     H35941   6.911   3.228   9.660 -1.5175 -1.0508  1.0316
 1007MOL0     H35942   7.057   3.843   9.357 -0.6523 -0.2695  1.5206
 1007MOL0     H35943   7.324   3.991   9.198 -1.7227 -0.2604 -1.5100
 1007MOL0     H35944   7.405   3.848   9.262  0.8377 -0.4449 -0.1244
 1007MOL0     H35945   7.237   3.831   9.212  2.4268 -1.0785  0.3603
 1008MOL0     O35946   7.378   9.938   0.086 -0.1890 -0.4544 -0.7025
 1008MOL0     C35947   7.374   9.836   0.023  0.1277 -0.3486  1.1550
 1008MOL0     O35948   7.476   9.783  -0.048  0.7598 -0.4762  0.1927
 1008MOL0     C35949   7.596   9.841  -0.056 -0.4025  0.2966 -0.5925
 1008MOL0     C35950   7.658   9.867  -0.173 -0.6590 -0.0784 -0.5217
 1008MOL0     C35951   7.789   9.920  -0.163  0.2546 -0.5230  0.0401
 1008MOL0     C35952   7.843   9.969  -0.046  0.5151  0.7948 -0.1478
 1008MOL0     O35953   7.969  10.032  -0.057  0.3857  0.0325 -0.0746
 1008MOL0     C35954   8.064   9.985   0.047  0.2170 -0.2651  0.4598
 1008MOL0     C35955   8.204  10.028   0.015 -0.2176 -0.2570 -0.7706
 1008MOL0     C35956   8.272  10.002  -0.123 -0.5932 -0.4928 -0.7613
 1008MOL0     C35957   8.397  10.085  -0.129 -0.0396 -0.5813 -0.2711
 1008MOL0     C35958   8.490  10.055  -0.245  0.6700 -0.9416 -0.1709
 1008MOL0     C35959   8.600  10.155  -0.248 -0.2925  0.6943  0.6636
 1008MOL0     C35960   8.702  10.122  -0.361 -0.1752 -1.2111  0.8291
 1008MOL0     C35961   8.822  10.203  -0.346  0.4132  0.1069 -1.0233
 1008MOL0     N35962   8.892  10.198  -0.483  0.3101 -0.1213 -0.9524
 1008MOL0     C35963   9.031  10.186  -0.492  0.9365  0.4404  0.2035
 1008MOL0     C35964   9.047  10.219  -0.626 -0.0249 -0.1252  0.3085
 1008MOL0     C35965   9.178  10.230  -0.698 -0.0013 -0.9392  0.4999
 1008MOL0     C35966   9.206  10.373  -0.736  0.1136 -0.0122 -0.0297
 1008MOL0     C35967   9.334  10.390  -0.820 -0.5053 -0.7730 -0.4137
 1008MOL0     C35968   9.341  10.527  -0.884  0.4665 -0.7779  0.3801
 1008MOL0     O35969   9.348  10.633  -0.788 -0.6469  0.3425  0.4580
 1008MOL0     C35970   9.450  10.720  -0.824  0.7755 -0.0424 -0.8782
 1008MOL0     C35971   9.580  10.685  -0.822 -0.4878 -0.0453 -0.9800
 1008MOL0     C35972   9.678  10.779  -0.854 -0.2167 -0.5380 -0.4648
 1008MOL0     C35973   9.646  10.909  -0.871  0.3982 -0.1871  0.5122
 1008MOL0     C35974   9.750  11.012  -0.896  0.0151  0.0590  1.1875
 1008MOL0     O35975   9.885  10.969  -0.908 -0.0640  0.3166  0.4268
 1008MOL0     C35976   9.982  11.066  -0.931 -0.3328  0.1453 -0.1338
 1008MOL0     C35977  10.060  11.042  -1.046  0.0090 -0.5198 -0.8013
 1008MOL0     C35978  10.168  11.130  -1.072  0.5654 -0.2550 -0.5277
 1008MOL0     C35979  10.192  11.246  -0.992 -0.3083  0.4606  0.8634
 1008MOL0     O35980  10.313  11.317  -0.995 -0.4852  0.5137 -0.4059
 1008MOL0     C35981  10.329  11.375  -1.125  0.1165  0.5105 -0.8538
 1008MOL0     C35982  10.407  11.498  -1.100  0.5739  0.3560 -0.2402
 1008MOL0     C35983  10.414  11.581  -1.227 -0.5323  0.1806 -0.0157
 1008MOL0     C35984  10.492  11.707  -1.190 -0.1393  0.0886 -0.0278
 1008MOL0     C35985  10.549  11.785  -1.314  0.0212  0.2103  0.7711
 1008MOL0     C35986  10.646  11.892  -1.269  0.3127 -0.4496 -0.4621
 1008MOL0     C35987  10.706  11.977  -1.381  0.3227 -0.7254  1.1113
 1008MOL0     C35988  10.622  12.106  -1.394 -0.6985  0.0026  1.6075
 1008MOL0    Cl35989  10.719  12.244  -1.459  0.0035 -0.0014 -0.0942
 1008MOL0     C35990  10.104  11.269  -0.890 -1.1224  0.1391 -0.3640
 1008MOL0     C35991  10.003  11.178  -0.850 -0.0305 -0.0363  0.0683
 1008MOL0     O35992   9.719  11.126  -0.931  0.2578 -0.1957 -0.3766
 1008MOL0     C35993   9.509  10.941  -0.876  0.3137 -1.0720 -0.4678
 1008MOL0     C35994   9.404  10.853  -0.853  0.1154  0.2549  0.2631
 1008MOL0     N35995   8.926  10.251  -0.685  0.4985  0.0266 -0.5792
 1008MOL0     N35996   8.835  10.236  -0.597  0.6235  0.3516 -0.1397
 1008MOL0     C35997   7.765   9.949   0.066 -0.6371  0.0146 -0.1414
 1008MOL0     C35998   7.648   9.882   0.068  0.0334  0.4682  0.4289
 1008MOL0     C35999   7.247   9.777  -0.001  0.5759  0.1359  0.2570
 1008MOL0     C36000   7.226   9.678  -0.106 -0.0436  0.1633  0.1884
 1008MOL0     C36001   7.110   9.608  -0.128  0.6054 -0.5441  0.2436
 1008MOL0     C36002   7.004   9.643  -0.046  0.7297 -0.4403  0.5968
 1008MOL0     O36003   6.882   9.582  -0.052  0.4273 -0.9470  0.0206
 1008MOL0     C36004   6.855   9.471   0.038  0.0867 -0.5089  0.1152
 1008MOL0     C36005   6.702   9.447   0.040  0.8609 -0.9996 -0.1316
 1008MOL0     C36006   6.641   9.415  -0.096  0.5283  0.4433  0.0220
 1008MOL0     C36007   6.504   9.348  -0.063  0.6486 -0.3006  0.8475
 1008MOL0     C36008   6.436   9.323  -0.193 -0.2758  0.2845 -0.0226
 1008MOL0     C36009   6.383   9.297  -0.300  0.6973  0.1657  0.6580
 1008MOL0     C36010   7.011   9.741   0.045  0.3941 -0.1672  0.1864
 1008MOL0     C36011   7.128   9.805   0.076 -0.5424 -0.1592  0.2529
 1008MOL0     C36012   7.130   9.900   0.191  0.0330  0.0789  0.2110
 1008MOL0     H36013   7.608   9.838  -0.265 -1.1505 -1.0704  0.0369
 1008MOL0     H36014   7.853   9.926  -0.250  0.0738 -3.4872 -0.3874
 1008MOL0     H36015   8.040  10.020   0.148 -1.0673 -0.0200  0.0823
 1008MOL0     H36016   8.061   9.876   0.040 -3.1112 -0.1740 -1.4580
 1008MOL0     H36017   8.273   9.972   0.079 -0.3615 -0.2118 -0.5744
 1008MOL0     H36018   8.209  10.134   0.039  0.4884 -0.1696 -1.2579
 1008MOL0     H36019   8.208  10.026  -0.209 -1.3338 -1.2491 -0.4313
 1008MOL0     H36020   8.302   9.898  -0.137 -0.4319 -0.5140 -0.2726
 1008MOL0     H36021   8.376  10.191  -0.114  0.7451 -0.5557  0.7921
 1008MOL0     H36022   8.447  10.062  -0.034 -0.7379 -3.2424 -0.4753
 1008MOL0     H36023   8.524   9.951  -0.245  0.0815 -1.1406 -0.0383
 1008MOL0     H36024   8.430  10.052  -0.336  2.7726 -1.8878 -1.5968
 1008MOL0     H36025   8.563  10.257  -0.260 -2.2179 -0.1840 -1.2993
 1008MOL0     H36026   8.649  10.160  -0.150  2.1353 -0.3094 -0.4048
 1008MOL0     H36027   8.659  10.151  -0.457  2.4206 -0.5196 -0.2322
 1008MOL0     H36028   8.723  10.015  -0.374 -0.4165 -1.0848 -0.7114
 1008MOL0     H36029   8.802  10.308  -0.324 -3.4740 -0.2237 -2.2159
 1008MOL0     H36030   8.885  10.164  -0.266 -3.6468  0.3735  2.6645
 1008MOL0     H36031   9.105  10.162  -0.416  2.4475 -0.7387 -1.5438
 1008MOL0     H36032   9.260  10.197  -0.634 -0.9199 -3.6465  0.4212
 1008MOL0     H36033   9.174  10.170  -0.790  1.3271  1.3691 -1.1577
 1008MOL0     H36034   9.119  10.413  -0.789  1.1658  0.0311 -1.8159
 1008MOL0     H36035   9.199  10.416  -0.635  0.6279 -0.0727  0.0322
 1008MOL0     H36036   9.332  10.311  -0.896  1.7754 -1.4271  0.1410
 1008MOL0     H36037   9.415  10.377  -0.748 -0.8150 -0.2057  0.0521
 1008MOL0     H36038   9.260  10.532  -0.958  2.9068  0.3593 -2.4259
 1008MOL0     H36039   9.426  10.524  -0.953 -1.9400  1.0856 -2.9697
 1008MOL0     H36040   9.611  10.583  -0.802  0.9151  1.0022  3.2550
 1008MOL0     H36041   9.781  10.744  -0.858 -0.5560 -1.5376 -0.8579
 1008MOL0     H36042  10.042  10.965  -1.121 -0.6728  0.3718 -1.5770
 1008MOL0     H36043  10.236  11.097  -1.151  1.5764 -0.5067  0.4143
 1008MOL0     H36044  10.381  11.308  -1.195 -3.3565 -1.3818 -1.8650
 1008MOL0     H36045  10.232  11.396  -1.170 -0.2438  0.3292 -0.1660
 1008MOL0     H36046  10.356  11.560  -1.026  3.2308  3.2254 -0.6138
 1008MOL0     H36047  10.506  11.473  -1.061  0.4645 -1.0593 -0.8040
 1008MOL0     H36048  10.477  11.530  -1.300 -0.3147  0.1987  0.1597
 1008MOL0     H36049  10.312  11.604  -1.260 -1.1602 -1.6750  0.4317
 1008MOL0     H36050  10.575  11.694  -1.120  0.3602  1.1340 -0.4129
 1008MOL0     H36051  10.425  11.774  -1.135 -0.7025 -2.1034  2.1723
 1008MOL0     H36052  10.468  11.822  -1.377 -0.9765 -3.4553 -0.3742
 1008MOL0     H36053  10.599  11.716  -1.384  1.7875  2.4989 -0.3607
 1008MOL0     H36054  10.594  11.960  -1.201 -1.0225 -1.6798 -0.1918
 1008MOL0     H36055  10.724  11.837  -1.216  0.1800 -1.4438 -1.2764
 1008MOL0     H36056  10.717  11.925  -1.477  1.1926  0.1957  0.6950
 1008MOL0     H36057  10.806  12.009  -1.348 -0.4164  2.1834  0.8439
 1008MOL0     H36058  10.526  12.097  -1.445  0.8864 -3.2548 -1.1301
 1008MOL0     H36059  10.599  12.151  -1.297  0.5979 -0.2201  2.0383
 1008MOL0     H36060  10.119  11.345  -0.814 -0.3998  0.2905 -0.6553
 1008MOL0     H36061   9.931  11.200  -0.771  0.6224 -0.3259  0.7535
 1008MOL0     H36062   9.488  11.045  -0.901  2.4978 -0.7308 -1.0825
 1008MOL0     H36063   9.298  10.878  -0.855  0.5169  2.1114 -1.7079
 1008MOL0     H36064   7.810   9.972   0.163 -0.5707 -0.2921 -0.0988
 1008MOL0     H36065   7.593   9.872   0.162  0.7182 -0.3955  0.7479
 1008MOL0     H36066   7.310   9.644  -0.165 -0.6424 -1.3299  0.1688
 1008MOL0     H36067   7.096   9.526  -0.198 -1.9844  1.2466 -1.5051
 1008MOL0     H36068   6.874   9.505   0.140 -0.8244  1.0132 -0.1992
 1008MOL0     H36069   6.919   9.384   0.020  2.5605  1.0720  0.7652
 1008MOL0     H36070   6.655   9.533   0.088 -1.4689 -1.6363 -1.1334
 1008MOL0     H36071   6.698   9.362   0.109  0.3127  0.2421  1.4142
 1008MOL0     H36072   6.710   9.354  -0.156  1.6573 -0.2163  1.9022
 1008MOL0     H36073   6.620   9.511  -0.145  0.0222  0.8537  1.0234
 1008MOL0     H36074   6.503   9.255  -0.005 -1.0442  0.8237  2.7638
 1008MOL0     H36075   6.439   9.426  -0.022  0.6887  1.1457 -1.6276
 1008MOL0     H36076   6.344   9.294  -0.399  3.9221  1.6072 -0.7971
 1008MOL0     H36077   6.920   9.766   0.100 -0.1902  0.6064 -1.0929
 1008MOL0     H36078   7.148  10.003   0.160  2.1810 -0.7208 -1.4929
 1008MOL0     H36079   7.043   9.882   0.254  1.2473 -1.7938  1.4706
 1008MOL0     H36080   7.214   9.870   0.256  0.9234  0.9144 -0.5192
 1009MOL0     O36081   2.407   3.695  10.234 -0.1082 -0.0258 -0.0069
 1009MOL0     C36082   2.417   3.814  10.209  0.2406 -1.2014  0.7289
 1009MOL0     O36083   2.534   3.888  10.204  0.0567 -0.9051 -0.1060
 1009MOL0     C36084   2.653   3.833  10.169  0.1242 -0.0228  0.5510
 1009MOL0     C36085   2.696   3.702  10.182  0.2764  1.1334 -0.5096
 1009MOL0     C36086   2.826   3.665  10.165  0.0335  0.0394  0.5970
 1009MOL0     C36087   2.926   3.758  10.122 -0.6313  1.3018 -0.5229
 1009MOL0     O36088   3.061   3.726  10.116 -0.0447  0.4248 -0.5664
 1009MOL0     C36089   3.125   3.764   9.994 -0.1590 -0.2965  0.0642
 1009MOL0     C36090   3.269   3.714  10.010  0.8324 -0.5308  0.0891
 1009MOL0     C36091   3.369   3.785   9.916 -0.0885  0.2252  1.0585
 1009MOL0     C36092   3.512   3.723   9.924 -0.7430 -0.4528  0.1116
 1009MOL0     C36093   3.614   3.819   9.850 -1.2263 -0.0362 -0.4069
 1009MOL0     C36094   3.765   3.781   9.853 -0.3449 -0.3829  0.6363
 1009MOL0     C36095   3.851   3.898   9.795 -0.4404 -0.3388  0.6476
 1009MOL0     C36096   3.834   3.927   9.648 -0.4463  0.4349  1.0682
 1009MOL0     N36097   3.845   3.817   9.556 -1.1518  0.4731 -0.5153
 1009MOL0     C36098   3.746   3.728   9.518 -0.3613  0.2982  0.3462
 1009MOL0     C36099   3.806   3.665   9.406 -0.6233  0.5579 -0.4215
 1009MOL0     C36100   3.747   3.557   9.325  0.5162  0.9017 -0.6541
 1009MOL0     C36101   3.850   3.488   9.235 -0.2624 -0.0077 -0.1798
 1009MOL0     C36102   3.811   3.351   9.182  0.3349  0.2315  0.2387
 1009MOL0     C36103   3.934   3.258   9.155 -0.2719 -0.0135 -0.8698
 1009MOL0     O36104   3.972   3.178   9.272 -0.2523  0.2322 -0.5288
 1009MOL0     C36105   4.098   3.117   9.268  0.1357  0.7475  0.0244
 1009MOL0     C36106   4.146   3.059   9.389  1.0098  0.0360  0.0066
 1009MOL0     C36107   4.268   2.997   9.401  0.5035  0.4465  0.5315
 1009MOL0     C36108   4.354   2.997   9.295 -0.8731  0.6513  0.3494
 1009MOL0     C36109   4.491   2.931   9.300  0.3277 -0.5316 -0.1279
 1009MOL0     O36110   4.525   2.864   9.418 -0.7100  0.5358  0.0756
 1009MOL0     C36111   4.647   2.805   9.420 -0.4811  0.2540 -0.3235
 1009MOL0     C36112   4.649   2.665   9.439  0.7173 -0.4333 -0.9505
 1009MOL0     C36113   4.780   2.609   9.458  0.4772 -0.0768  0.5264
 1009MOL0     C36114   4.902   2.679   9.444  1.3555 -0.5821 -0.2008
 1009MOL0     O36115   5.027   2.636   9.460 -0.3465  0.5510 -0.1945
 1009MOL0     C36116   5.054   2.515   9.531 -0.3601  0.0910  0.1254
 1009MOL0     C36117   5.204   2.489   9.544 -0.5758  0.0192 -0.1076
 1009MOL0     C36118   5.243   2.341   9.561  0.4523 -0.1777  1.3218
 1009MOL0     C36119   5.400   2.333   9.588 -1.0025  0.3498  0.5514
 1009MOL0     C36120   5.468   2.211   9.546  0.7159 -0.7781  0.0232
 1009MOL0     C36121   5.421   2.084   9.623 -0.7570 -0.3246  0.3665
 1009MOL0     C36122   5.485   2.070   9.772 -0.9376  1.0704  0.3518
 1009MOL0     C36123   5.639   2.041   9.767 -0.2873  0.7676 -0.5968
 1009MOL0    Cl36124   5.718   2.057   9.925  0.0242  0.2263 -0.1743
 1009MOL0     C36125   4.888   2.814   9.411 -0.6600  0.1452  0.2928
 1009MOL0     C36126   4.758   2.878   9.397 -1.1310  0.1091 -0.3573
 1009MOL0     O36127   4.561   2.933   9.199  0.4942 -0.3438 -0.0093
 1009MOL0     C36128   4.308   3.054   9.171 -1.1928  0.3945 -0.1862
 1009MOL0     C36129   4.178   3.105   9.154 -0.5106 -0.0405  0.0236
 1009MOL0     N36130   3.936   3.717   9.384  0.4831  0.0882  0.3502
 1009MOL0     N36131   3.953   3.800   9.481 -1.1225  0.5092 -0.4432
 1009MOL0     C36132   2.884   3.886  10.087  0.0394 -0.4517 -0.4564
 1009MOL0     C36133   2.751   3.927  10.120  0.4824 -0.1776  0.1197
 1009MOL0     C36134   2.301   3.904  10.202 -0.8933 -1.1800  0.3160
 1009MOL0     C36135   2.307   4.027  10.269  0.0880 -0.0408  0.2125
 1009MOL0     C36136   2.198   4.116  10.270 -0.1585 -0.0522  1.2223
 1009MOL0     C36137   2.070   4.083  10.209  0.3968 -0.1978 -0.6711
 1009MOL0     O36138   1.970   4.177  10.220  0.0877  0.5651 -0.1234
 1009MOL0     C36139   1.842   4.131  10.181  0.0543  0.2325 -0.2007
 1009MOL0     C36140   1.734   4.210  10.244 -0.6791 -0.6152  0.3020
 1009MOL0     C36141   1.729   4.190  10.391  0.5790  0.0454 -0.6274
 1009MOL0     C36142   1.690   4.054  10.454 -0.1054  0.6577  0.7943
 1009MOL0     C36143   1.553   4.012  10.429 -0.2100 -0.2076 -0.7139
 1009MOL0     C36144   1.433   3.985  10.410  0.2759  0.3042 -1.2657
 1009MOL0     C36145   2.069   3.960  10.135 -0.1767 -0.3944  0.6912
 1009MOL0     C36146   2.185   3.880  10.126 -0.3752  0.2310  0.0250
 1009MOL0     C36147   2.185   3.771  10.035 -0.7036 -0.3761  0.2400
 1009MOL0     H36148   2.625   3.627  10.215  0.9510  0.3536 -0.7913
 1009MOL0     H36149   2.846   3.566  10.204 -1.4977 -0.5671 -0.0814
 1009MOL0     H36150   3.087   3.716   9.903  1.0022  0.0723 -0.6415
 1009MOL0     H36151   3.137   3.872   9.988  3.6991 -0.5327  0.7623
 1009MOL0     H36152   3.267   3.605  10.001  0.5649 -0.7020  1.8927
 1009MOL0     H36153   3.312   3.747  10.105  1.3334 -0.7206 -0.0632
 1009MOL0     H36154   3.373   3.891   9.942  0.1326 -0.2411  3.0448
 1009MOL0     H36155   3.323   3.783   9.817  0.4842 -1.1659  0.7993
 1009MOL0     H36156   3.539   3.720  10.030 -0.3364  1.0285  0.0699
 1009MOL0     H36157   3.517   3.621   9.886  0.7158 -0.6425  0.7498
 1009MOL0     H36158   3.571   3.827   9.749 -0.2861  1.3118 -0.7408
 1009MOL0     H36159   3.609   3.919   9.893 -0.7526 -0.1278 -0.1378
 1009MOL0     H36160   3.797   3.758   9.955 -4.3257  0.4189  2.2437
 1009MOL0     H36161   3.783   3.691   9.792  1.1479  0.8418 -0.8454
 1009MOL0     H36162   3.955   3.886   9.825  0.0746  1.0787 -0.4329
 1009MOL0     H36163   3.815   3.991   9.841 -1.2869  0.1987 -1.0111
 1009MOL0     H36164   3.734   3.967   9.632  0.1245  1.0711 -1.1418
 1009MOL0     H36165   3.902   4.006   9.616  2.2032 -1.2437  2.1677
 1009MOL0     H36166   3.645   3.714   9.558  0.2301 -2.4647  1.0238
 1009MOL0     H36167   3.698   3.480   9.386  2.2480  0.7186  0.5903
 1009MOL0     H36168   3.671   3.596   9.257  0.8294 -1.3583 -2.4072
 1009MOL0     H36169   3.884   3.568   9.169  1.4172 -0.3260  0.2383
 1009MOL0     H36170   3.936   3.470   9.300 -2.3872 -2.8878  2.1397
 1009MOL0     H36171   3.764   3.371   9.085 -0.0727  1.3680  0.6472
 1009MOL0     H36172   3.742   3.309   9.257 -0.4227  0.1018 -0.5167
 1009MOL0     H36173   4.011   3.327   9.122  1.0130 -0.3006  1.3579
 1009MOL0     H36174   3.915   3.191   9.070  2.8810  0.6575 -2.2309
 1009MOL0     H36175   4.073   3.051   9.470  0.8118 -1.2062 -0.2876
 1009MOL0     H36176   4.281   2.946   9.496 -0.3365 -3.0745 -1.0877
 1009MOL0     H36177   4.562   2.605   9.461  0.2740  0.3457 -0.5736
 1009MOL0     H36178   4.779   2.503   9.480 -2.3179 -0.0038  1.1632
 1009MOL0     H36179   5.014   2.529   9.632  1.7049 -0.4390  1.0536
 1009MOL0     H36180   5.009   2.425   9.487 -0.0202  0.1789 -0.4034
 1009MOL0     H36181   5.261   2.535   9.463  0.2585  4.0451  2.5017
 1009MOL0     H36182   5.248   2.545   9.627 -1.3124  1.1872 -0.4926
 1009MOL0     H36183   5.169   2.303   9.632 -1.2871 -0.2044 -0.4273
 1009MOL0     H36184   5.221   2.288   9.468 -1.8172  0.0806  1.6675
 1009MOL0     H36185   5.426   2.356   9.692  0.6459 -1.6692  0.6371
 1009MOL0     H36186   5.450   2.415   9.536 -0.7943 -1.4922 -2.3392
 1009MOL0     H36187   5.577   2.218   9.542  0.5933  2.1090  0.1396
 1009MOL0     H36188   5.438   2.200   9.441  1.6076  0.0842 -0.3272
 1009MOL0     H36189   5.312   2.090   9.628 -0.6894  1.9940  0.1735
 1009MOL0     H36190   5.452   1.998   9.564 -0.6814  0.6510 -1.0869
 1009MOL0     H36191   5.429   1.988   9.818 -1.6016  2.5260  2.2491
 1009MOL0     H36192   5.467   2.156   9.838  1.2943  0.1154  2.3433
 1009MOL0     H36193   5.660   1.936   9.742 -1.8081  0.2716  0.1017
 1009MOL0     H36194   5.689   2.099   9.689  1.3592 -0.5815 -0.6027
 1009MOL0     H36195   4.977   2.876   9.409 -1.9322  2.0120 -1.0160
 1009MOL0     H36196   4.756   2.985   9.382 -0.9149  0.2994  0.9211
 1009MOL0     H36197   4.368   3.048   9.081  0.7891 -1.3527  1.1609
 1009MOL0     H36198   4.138   3.142   9.060 -1.6454 -1.2223  0.0043
 1009MOL0     H36199   2.951   3.958  10.042 -1.2080  0.9715 -0.1241
 1009MOL0     H36200   2.718   4.030  10.108 -0.2315 -0.0511  2.4718
 1009MOL0     H36201   2.391   4.044  10.335  0.6310 -2.6191  0.2909
 1009MOL0     H36202   2.216   4.208  10.325  2.6451  1.4964 -1.9030
 1009MOL0     H36203   1.824   4.027  10.212 -0.8986  0.8593  1.5092
 1009MOL0     H36204   1.830   4.138  10.072 -1.1390 -0.9320 -0.1765
 1009MOL0     H36205   1.641   4.188  10.190 -0.0828 -1.1220 -0.5432
 1009MOL0     H36206   1.763   4.314  10.227  2.1561 -1.4761 -0.7374
 1009MOL0     H36207   1.662   4.266  10.433 -0.7238  0.0703 -2.5867
 1009MOL0     H36208   1.824   4.222  10.435 -1.1731  4.1106  0.6652
 1009MOL0     H36209   1.757   3.974  10.421  0.1357  0.8171  0.8901
 1009MOL0     H36210   1.715   4.049  10.560  1.3164  1.3858  0.5198
 1009MOL0     H36211   1.328   3.981  10.426  0.6601  1.6920  2.7034
 1009MOL0     H36212   1.983   3.926  10.079 -0.3476  0.6143  0.3136
 1009MOL0     H36213   2.197   3.679  10.094  0.6378 -1.2653 -1.3163
 1009MOL0     H36214   2.095   3.763   9.973 -1.3666  1.8007  0.8472
 1009MOL0     H36215   2.270   3.771   9.966 -1.3136  0.2868 -0.5251
 1010MOL0     O36216   3.103   6.991   0.580  0.6609 -0.3694  0.2875
 1010MOL0     C36217   3.097   6.878   0.534 -0.9007 -0.2918 -0.7853
 1010MOL0     O36218   3.201   6.816   0.469  0.5101  0.4943  0.0983
 1010MOL0     C36219   3.329   6.842   0.489 -0.0398 -0.3217  0.5271
 1010MOL0     C36220   3.425   6.810   0.394  0.9128  0.1374  0.3774
 1010MOL0     C36221   3.560   6.835   0.412  0.0993 -0.6020  0.7305
 1010MOL0     C36222   3.608   6.909   0.523  0.1042  0.3976  0.2952
 1010MOL0     O36223   3.746   6.931   0.536 -0.2650 -0.0243 -0.1869
 1010MOL0     C36224   3.794   7.035   0.624  0.2957  0.6053 -0.4344
 1010MOL0     C36225   3.941   7.037   0.590 -0.0224 -0.5264  0.8364
 1010MOL0     C36226   4.022   7.109   0.697 -1.0400  0.6429  0.1907
 1010MOL0     C36227   4.162   7.152   0.645  0.3041 -0.1181 -0.0111
 1010MOL0     C36228   4.220   7.266   0.729 -0.4745  0.5148  0.7929
 1010MOL0     C36229   4.368   7.281   0.698 -1.0035  0.7047  0.7140
 1010MOL0     C36230   4.404   7.424   0.744  0.0350 -0.3329  0.6108
 1010MOL0     C36231   4.559   7.446   0.718 -0.1201  0.6539  0.8951
 1010MOL0     N36232   4.599   7.577   0.756 -0.6354  0.5416 -0.2061
 1010MOL0     C36233   4.664   7.668   0.677  0.7876 -0.0373  0.4088
 1010MOL0     C36234   4.675   7.778   0.750  0.2350  0.5778 -0.9881
 1010MOL0     C36235   4.751   7.908   0.719 -0.5066 -0.2294 -0.1440
 1010MOL0     C36236   4.899   7.891   0.700 -0.1347 -0.2832 -0.0329
 1010MOL0     C36237   4.966   8.025   0.676 -0.1675 -0.0145  0.6456
 1010MOL0     C36238   5.105   8.062   0.726 -0.1263  0.9577 -0.8717
 1010MOL0     O36239   5.128   8.004   0.861  0.2275 -0.1782 -0.1235
 1010MOL0     C36240   5.247   8.024   0.916  0.6447  0.5343 -0.0828
 1010MOL0     C36241   5.263   7.962   1.043 -0.8322 -0.3310  0.3532
 1010MOL0     C36242   5.383   7.982   1.118  0.9305  0.8428 -0.2519
 1010MOL0     C36243   5.489   8.064   1.067 -0.1849  0.5818  0.1759
 1010MOL0     C36244   5.616   8.053   1.131  0.2608 -0.7460  0.1971
 1010MOL0     O36245   5.716   8.093   1.050 -0.1782  0.1711  0.0509
 1010MOL0     C36246   5.848   8.099   1.083  0.2565 -0.1317 -0.8687
 1010MOL0     C36247   5.934   8.126   0.978  0.6035 -0.3694  1.0644
 1010MOL0     C36248   6.067   8.134   1.001  0.0990  0.0609  0.5566
 1010MOL0     C36249   6.118   8.120   1.127  0.0093 -0.4457 -0.3761
 1010MOL0     O36250   6.259   8.123   1.142 -0.2805  0.1974 -0.8564
 1010MOL0     C36251   6.310   8.084   1.265  0.5731  0.0817 -0.7172
 1010MOL0     C36252   6.465   8.078   1.271 -0.6524 -0.9542  0.0764
 1010MOL0     C36253   6.514   7.950   1.208  0.8213  0.0201  0.0647
 1010MOL0     C36254   6.660   7.954   1.189 -0.1695  0.1098 -0.4353
 1010MOL0     C36255   6.723   8.052   1.086  0.3475 -1.2469  0.4575
 1010MOL0     C36256   6.869   8.008   1.045  0.1794  0.4561  0.2345
 1010MOL0     C36257   6.959   7.991   1.167  1.0228 -0.5843 -0.2951
 1010MOL0     C36258   7.107   8.001   1.143 -0.1798 -0.4643 -0.0445
 1010MOL0    Cl36259   7.194   7.857   1.072  0.2085  0.0474  0.1623
 1010MOL0     C36260   6.036   8.082   1.229 -0.3797 -0.2151 -0.0148
 1010MOL0     C36261   5.901   8.073   1.213  0.5472 -0.1455 -0.1499
 1010MOL0     O36262   5.624   8.008   1.243  0.6079  0.7073 -0.1012
 1010MOL0     C36263   5.474   8.112   0.937 -0.2604 -0.4967 -0.2529
 1010MOL0     C36264   5.355   8.094   0.866  0.0977 -1.5351  0.0491
 1010MOL0     N36265   4.611   7.755   0.874  0.3412  0.4321  0.6861
 1010MOL0     N36266   4.581   7.632   0.874  0.2656  0.4638 -0.5141
 1010MOL0     C36267   3.512   6.949   0.615  0.1999  0.7708 -0.8431
 1010MOL0     C36268   3.379   6.904   0.604  0.5462  0.3253 -0.1618
 1010MOL0     C36269   2.957   6.832   0.514  0.6742  1.6636  0.5447
 1010MOL0     C36270   2.941   6.700   0.449  0.5298 -1.1238  0.5294
 1010MOL0     C36271   2.816   6.655   0.406 -0.1324  0.5425 -0.4193
 1010MOL0     C36272   2.703   6.725   0.439  0.0972  0.6112  0.1137
 1010MOL0     O36273   2.587   6.680   0.391  0.0031  0.1613  0.6340
 1010MOL0     C36274   2.465   6.750   0.431 -0.4222  0.9149 -0.6617
 1010MOL0     C36275   2.334   6.667   0.399 -0.6290  0.9647  0.6085
 1010MOL0     C36276   2.221   6.711   0.488 -0.0756 -0.6463 -0.0079
 1010MOL0     C36277   2.107   6.616   0.450  0.3085 -0.4089 -0.7666
 1010MOL0     C36278   2.131   6.473   0.491  0.1525  0.8016 -0.0351
 1010MOL0     C36279   2.155   6.358   0.504  1.1395 -0.2487  0.6589
 1010MOL0     C36280   2.715   6.841   0.513  0.7744  0.3142 -0.0746
 1010MOL0     C36281   2.837   6.896   0.543 -0.2793 -0.3454  0.6179
 1010MOL0     C36282   2.837   7.034   0.610 -0.2391  0.9216 -0.5994
 1010MOL0     H36283   3.390   6.764   0.302 -1.0376 -0.1560  1.2284
 1010MOL0     H36284   3.638   6.805   0.344 -0.7897 -2.6114  0.5289
 1010MOL0     H36285   3.754   7.136   0.612 -0.2910  0.2453 -1.7495
 1010MOL0     H36286   3.782   7.007   0.729  1.0351 -0.7112 -0.6742
 1010MOL0     H36287   3.950   7.096   0.498  1.4655 -2.6296 -0.4539
 1010MOL0     H36288   3.988   6.942   0.565 -0.5956 -0.8465  0.9694
 1010MOL0     H36289   4.033   7.043   0.783 -1.4830  0.6667  0.2704
 1010MOL0     H36290   3.961   7.195   0.726 -1.5554 -0.0307  1.1533
 1010MOL0     H36291   4.233   7.069   0.635  2.9761  1.9829  0.2480
 1010MOL0     H36292   4.152   7.191   0.544  1.7465 -0.6190 -0.3755
 1010MOL0     H36293   4.172   7.360   0.698  2.8966  0.9281 -4.6562
 1010MOL0     H36294   4.220   7.259   0.838  0.1736 -2.0335  0.6727
 1010MOL0     H36295   4.437   7.214   0.749 -0.1255  1.0309 -0.0134
 1010MOL0     H36296   4.381   7.267   0.590 -1.3501 -1.1406  0.8844
 1010MOL0     H36297   4.388   7.436   0.851 -0.1052 -0.7023  0.6328
 1010MOL0     H36298   4.343   7.494   0.686  1.1429 -0.5509 -0.8950
 1010MOL0     H36299   4.615   7.368   0.771 -0.2202 -0.5072 -0.6301
 1010MOL0     H36300   4.596   7.445   0.615  0.9809  0.4275  1.2841
 1010MOL0     H36301   4.692   7.655   0.573  1.2706  2.3085  0.1842
 1010MOL0     H36302   4.705   7.949   0.628 -0.1225 -3.7965 -2.1543
 1010MOL0     H36303   4.741   7.986   0.795  1.2845  2.8034 -2.7533
 1010MOL0     H36304   4.941   7.841   0.788  1.0366  0.1963 -0.3077
 1010MOL0     H36305   4.921   7.822   0.618  1.6449 -0.1863  0.3228
 1010MOL0     H36306   4.907   8.104   0.723 -0.7440 -0.8987  1.4492
 1010MOL0     H36307   4.959   8.048   0.569 -0.2063 -1.7492  0.2390
 1010MOL0     H36308   5.108   8.170   0.741 -4.6397  0.9055  2.2735
 1010MOL0     H36309   5.185   8.023   0.662 -0.5327 -0.1152 -0.7419
 1010MOL0     H36310   5.192   7.889   1.082  0.3298  0.1545  3.7340
 1010MOL0     H36311   5.388   7.929   1.212 -1.3014  0.6657 -0.1800
 1010MOL0     H36312   5.908   8.125   0.873 -1.8436  0.5150  1.6093
 1010MOL0     H36313   6.137   8.132   0.918 -1.1208  0.8595 -0.5118
 1010MOL0     H36314   6.281   8.162   1.337  2.1706  0.0163  0.0431
 1010MOL0     H36315   6.275   7.987   1.300  1.0225  0.0474 -0.3472
 1010MOL0     H36316   6.501   8.166   1.216 -1.8565 -1.2297 -1.2328
 1010MOL0     H36317   6.503   8.073   1.373  0.0186 -4.1465 -0.2182
 1010MOL0     H36318   6.500   7.875   1.286  4.9394 -0.9942  0.0437
 1010MOL0     H36319   6.453   7.918   1.123 -1.9488 -1.6808  2.4796
 1010MOL0     H36320   6.690   7.851   1.168  0.9946  0.6509 -1.5632
 1010MOL0     H36321   6.717   7.980   1.279  1.5429  1.5535 -1.8493
 1010MOL0     H36322   6.735   8.154   1.121  1.7400 -1.6341  1.1734
 1010MOL0     H36323   6.652   8.067   1.004 -1.3813  1.4468  2.2813
 1010MOL0     H36324   6.880   7.912   0.994  2.3710 -1.2536  3.5675
 1010MOL0     H36325   6.916   8.079   0.976  0.2322  0.3436  0.1544
 1010MOL0     H36326   6.933   7.897   1.216 -0.2789  0.4556  1.1222
 1010MOL0     H36327   6.939   8.079   1.230 -0.0025  0.2190 -1.6791
 1010MOL0     H36328   7.137   8.092   1.089  0.2706  0.2581  1.3844
 1010MOL0     H36329   7.146   8.024   1.242 -1.4379  0.5100  0.2537
 1010MOL0     H36330   6.069   8.053   1.328 -1.0074  1.8322  0.8388
 1010MOL0     H36331   5.827   8.052   1.290 -2.3746  1.2700 -2.3831
 1010MOL0     H36332   5.551   8.164   0.881 -0.4558  0.3080  0.2146
 1010MOL0     H36333   5.355   8.119   0.760  1.5175  1.1255  0.5979
 1010MOL0     H36334   3.560   7.000   0.697  1.0043  1.4554 -1.7185
 1010MOL0     H36335   3.306   6.934   0.678  1.1951  0.8570  0.2802
 1010MOL0     H36336   3.026   6.641   0.418  2.2483  1.5983 -0.3856
 1010MOL0     H36337   2.817   6.569   0.340  0.2873  0.6498 -0.5575
 1010MOL0     H36338   2.456   6.852   0.394 -0.3251  1.4295  0.6962
 1010MOL0     H36339   2.464   6.760   0.540 -0.9702 -1.6310 -0.3710
 1010MOL0     H36340   2.351   6.559   0.411 -0.7076  0.0852 -4.5585
 1010MOL0     H36341   2.301   6.670   0.294  0.5459  1.7242  0.2410
 1010MOL0     H36342   2.200   6.816   0.469  2.4276  0.2407  1.5631
 1010MOL0     H36343   2.238   6.691   0.595  0.6960 -1.7252 -0.3172
 1010MOL0     H36344   2.017   6.651   0.501  0.6686  1.1560 -1.1583
 1010MOL0     H36345   2.085   6.625   0.343  0.8862  3.0660 -0.6949
 1010MOL0     H36346   2.175   6.253   0.512 -1.8321 -0.8493  1.1317
 1010MOL0     H36347   2.627   6.890   0.553 -0.9521 -1.7309 -1.1180
 1010MOL0     H36348   2.879   7.114   0.548  3.8318  0.9985  1.9257
 1010MOL0     H36349   2.733   7.064   0.626 -0.4946 -0.9784  1.9731
 1010MOL0     H36350   2.889   7.022   0.705 -3.4085  0.1691  1.2022
 1011MOL0     O36351  10.256   4.965   4.784 -0.4901 -0.0112 -0.4218
 1011MOL0     C36352  10.203   4.975   4.670  0.2724 -0.5748 -0.5776
 1011MOL0     O36353  10.275   4.994   4.548  0.8817 -0.2959 -0.3480
 1011MOL0     C36354  10.415   4.985   4.563  0.2670  0.1430  0.1674
 1011MOL0     C36355  10.492   5.079   4.626  0.0404  0.0321 -0.1277
 1011MOL0     C36356  10.629   5.061   4.635  0.2055 -0.3545 -0.4427
 1011MOL0     C36357  10.690   4.947   4.580 -0.8603  0.2895 -0.1303
 1011MOL0     O36358  10.830   4.934   4.596  0.3447  0.1064 -0.0522
 1011MOL0     C36359  10.902   4.847   4.508 -0.1388  0.9159  0.6994
 1011MOL0     C36360  11.049   4.839   4.563  0.6365 -0.1283 -0.1650
 1011MOL0     C36361  11.128   4.718   4.497 -0.6751 -0.0802 -0.2480
 1011MOL0     C36362  11.270   4.710   4.543 -0.0391 -0.3628 -0.4145
 1011MOL0     C36363  11.339   4.588   4.467 -1.3355 -0.6567 -0.5982
 1011MOL0     C36364  11.461   4.537   4.540 -0.4690 -0.4225  0.2414
 1011MOL0     C36365  11.588   4.608   4.486  0.1814  0.4647  0.1054
 1011MOL0     C36366  11.638   4.530   4.370 -0.1600  0.1459  0.9602
 1011MOL0     N36367  11.729   4.423   4.400 -0.4922  1.4237 -0.0860
 1011MOL0     C36368  11.839   4.430   4.478 -1.0081  0.6948  0.2619
 1011MOL0     C36369  11.889   4.295   4.480 -0.2351 -0.4184 -0.5345
 1011MOL0     C36370  12.003   4.243   4.558  0.2344 -0.6616  0.3133
 1011MOL0     C36371  12.137   4.236   4.479  0.1135  0.6965 -0.4114
 1011MOL0     C36372  12.196   4.369   4.444 -0.1605  0.2700 -0.1891
 1011MOL0     C36373  12.254   4.460   4.551  0.3477 -0.2449 -0.3604
 1011MOL0     O36374  12.340   4.375   4.634  0.2076 -0.6253  0.6625
 1011MOL0     C36375  12.476   4.382   4.604  0.8339  0.5412 -0.6582
 1011MOL0     C36376  12.541   4.398   4.481  0.4622 -0.3382 -0.2170
 1011MOL0     C36377  12.684   4.396   4.481 -1.2762 -0.4795  0.7960
 1011MOL0     C36378  12.759   4.373   4.600 -0.1760  0.7730  0.1352
 1011MOL0     C36379  12.899   4.349   4.606  0.1382 -0.4572  0.5250
 1011MOL0     O36380  12.963   4.412   4.499 -1.0884 -0.2484 -0.9517
 1011MOL0     C36381  13.100   4.404   4.495 -0.6902 -0.1958  0.2306
 1011MOL0     C36382  13.158   4.381   4.372  0.6007  0.1258  0.4245
 1011MOL0     C36383  13.294   4.380   4.342 -0.5610  0.1028 -0.3390
 1011MOL0     C36384  13.381   4.400   4.449  0.6659  0.5275  0.6961
 1011MOL0     O36385  13.519   4.400   4.439  0.7841  0.7745  0.2337
 1011MOL0     C36386  13.581   4.396   4.311  0.8642 -0.0137  0.1620
 1011MOL0     C36387  13.726   4.442   4.342  0.3726 -0.8318  0.0206
 1011MOL0     C36388  13.815   4.345   4.421 -0.3406 -0.0398  0.4316
 1011MOL0     C36389  13.953   4.386   4.458 -1.0404 -0.0450 -0.3411
 1011MOL0     C36390  14.055   4.411   4.331  0.0709  0.4266  0.6518
 1011MOL0     C36391  14.203   4.429   4.366  0.7090 -0.4144  0.0985
 1011MOL0     C36392  14.277   4.305   4.408 -0.1787 -0.3604  0.4703
 1011MOL0     C36393  14.424   4.343   4.428  0.9616 -0.2462  0.1783
 1011MOL0    Cl36394  14.522   4.205   4.497  0.4850 -0.3260  0.3363
 1011MOL0     C36395  13.328   4.428   4.575  0.0201 -0.1045 -0.7148
 1011MOL0     C36396  13.186   4.423   4.601 -0.9624 -0.2376 -0.2857
 1011MOL0     O36397  12.948   4.267   4.684  0.4756 -0.1334 -0.1625
 1011MOL0     C36398  12.691   4.361   4.722  0.2768 -0.9352  0.1718
 1011MOL0     C36399  12.548   4.357   4.720 -0.3997  0.5310  0.2720
 1011MOL0     N36400  11.810   4.221   4.392  0.2139  0.1245 -0.2115
 1011MOL0     N36401  11.715   4.295   4.350  0.2410 -0.1725 -0.2796
 1011MOL0     C36402  10.614   4.860   4.501  0.4781  0.0310 -0.2882
 1011MOL0     C36403  10.476   4.874   4.492 -0.1193  0.0583 -0.0938
 1011MOL0     C36404  10.059   4.992   4.666  0.4225  0.5196 -0.6023
 1011MOL0     C36405   9.995   5.033   4.543  0.3677  0.3428 -0.4606
 1011MOL0     C36406   9.855   5.029   4.537  0.0660 -0.2882 -0.3413
 1011MOL0     C36407   9.775   4.991   4.649 -1.1047  0.2410 -0.4502
 1011MOL0     O36408   9.639   4.969   4.650  0.2042 -0.3554  0.4890
 1011MOL0     C36409   9.554   5.023   4.550  0.4187  0.1231  0.9175
 1011MOL0     C36410   9.421   5.058   4.614 -0.6197  0.6648 -0.4523
 1011MOL0     C36411   9.436   5.163   4.721  0.1423  0.0316 -0.0627
 1011MOL0     C36412   9.302   5.206   4.777  0.2801  0.8942 -0.1217
 1011MOL0     C36413   9.244   5.126   4.887  0.5803 -0.5886 -0.0328
 1011MOL0     C36414   9.190   5.063   4.977 -0.3920 -0.3482 -0.0827
 1011MOL0     C36415   9.838   4.963   4.772 -0.6153 -0.8059  0.0505
 1011MOL0     C36416   9.977   4.966   4.783 -0.1003 -0.0476  0.0968
 1011MOL0     C36417  10.022   4.945   4.926  0.3885  0.7368 -0.2428
 1011MOL0     H36418  10.440   5.161   4.674 -1.9634 -0.1147 -1.8839
 1011MOL0     H36419  10.685   5.150   4.665 -0.2021  0.6175 -2.3980
 1011MOL0     H36420  10.870   4.742   4.506  0.8899  0.5895 -0.7935
 1011MOL0     H36421  10.902   4.876   4.402  0.1344 -1.2118  0.0646
 1011MOL0     H36422  11.044   4.821   4.671 -0.8669  3.9568  0.6019
 1011MOL0     H36423  11.097   4.937   4.556 -0.0821  0.2344 -0.0649
 1011MOL0     H36424  11.132   4.728   4.388 -0.0110 -1.3112 -0.3610
 1011MOL0     H36425  11.078   4.622   4.515  1.3533 -1.4814 -1.5739
 1011MOL0     H36426  11.312   4.809   4.521  1.5058 -0.2802  2.4399
 1011MOL0     H36427  11.290   4.707   4.651 -0.1833 -1.6285 -0.4156
 1011MOL0     H36428  11.265   4.509   4.453 -1.6890 -0.7016  1.2865
 1011MOL0     H36429  11.373   4.639   4.376 -1.3473  2.2388  0.8874
 1011MOL0     H36430  11.444   4.540   4.648 -1.8593 -4.3009  0.3150
 1011MOL0     H36431  11.457   4.429   4.522  1.0238 -0.4510 -0.0573
 1011MOL0     H36432  11.667   4.634   4.557  1.1067  2.4765 -1.5422
 1011MOL0     H36433  11.554   4.705   4.448  0.2344  1.6825  2.9723
 1011MOL0     H36434  11.558   4.478   4.317  4.4163 -1.8302 -5.0597
 1011MOL0     H36435  11.688   4.594   4.297  1.3884 -2.3859 -0.3010
 1011MOL0     H36436  11.883   4.513   4.532 -0.2303  0.0985  0.5617
 1011MOL0     H36437  12.017   4.301   4.650 -0.0774  0.5273 -0.3702
 1011MOL0     H36438  11.963   4.145   4.586 -1.8446  0.5621  1.9336
 1011MOL0     H36439  12.202   4.164   4.530 -0.5186 -0.7412 -1.5331
 1011MOL0     H36440  12.111   4.174   4.392 -3.7161  3.5661 -1.6100
 1011MOL0     H36441  12.122   4.434   4.397  0.2805  0.8629 -0.0772
 1011MOL0     H36442  12.273   4.356   4.368 -1.7967  1.1639 -2.0877
 1011MOL0     H36443  12.183   4.497   4.625  1.5909  0.9413  0.2828
 1011MOL0     H36444  12.308   4.538   4.497  0.1680 -1.7051 -2.8206
 1011MOL0     H36445  12.476   4.406   4.394 -0.6731  0.5984  0.6903
 1011MOL0     H36446  12.730   4.408   4.383 -5.6769 -1.9031 -1.7453
 1011MOL0     H36447  13.090   4.354   4.292  2.3475  1.3558 -1.5787
 1011MOL0     H36448  13.330   4.368   4.240 -0.3026  0.8440 -0.3498
 1011MOL0     H36449  13.578   4.292   4.277  0.0429  0.1940 -0.4322
 1011MOL0     H36450  13.534   4.471   4.247  0.5446  0.5597  1.0524
 1011MOL0     H36451  13.770   4.475   4.247  1.5883  1.6989  1.3550
 1011MOL0     H36452  13.728   4.536   4.399 -0.2879 -0.6906 -0.1764
 1011MOL0     H36453  13.766   4.322   4.516  1.6886  1.4515  1.9371
 1011MOL0     H36454  13.824   4.257   4.357  0.3768  0.1170  0.3027
 1011MOL0     H36455  13.993   4.318   4.534 -3.4059 -0.3914  0.6651
 1011MOL0     H36456  13.949   4.480   4.514  0.8637 -0.7339  1.0500
 1011MOL0     H36457  14.011   4.502   4.287 -0.0887 -0.0349 -0.1619
 1011MOL0     H36458  14.032   4.329   4.262  2.3907 -0.4483  0.8402
 1011MOL0     H36459  14.257   4.479   4.285 -0.4106  1.1139  0.2658
 1011MOL0     H36460  14.201   4.499   4.449 -0.8645 -0.9919  0.5799
 1011MOL0     H36461  14.264   4.234   4.326 -1.2731 -0.0351  0.3364
 1011MOL0     H36462  14.238   4.262   4.501 -0.4814  0.2527  0.6338
 1011MOL0     H36463  14.464   4.382   4.334 -1.1450  0.5082 -0.4576
 1011MOL0     H36464  14.417   4.429   4.495 -3.0419 -0.0118 -0.2830
 1011MOL0     H36465  13.381   4.443   4.668 -1.4629  0.0844  0.1293
 1011MOL0     H36466  13.142   4.441   4.699 -1.4289 -1.0868 -0.3276
 1011MOL0     H36467  12.745   4.335   4.813  0.5081 -2.5698 -0.3993
 1011MOL0     H36468  12.503   4.352   4.819 -1.2132 -3.0977 -0.1294
 1011MOL0     H36469  10.645   4.764   4.460 -0.2347 -0.3694  0.0844
 1011MOL0     H36470  10.426   4.793   4.440  2.8141 -0.5010 -2.2704
 1011MOL0     H36471  10.059   5.042   4.455  1.6264 -0.7767  0.3003
 1011MOL0     H36472   9.806   5.042   4.441 -2.1461  0.3251  0.8041
 1011MOL0     H36473   9.539   4.967   4.458 -0.5442  0.8983  0.5874
 1011MOL0     H36474   9.595   5.119   4.518 -0.8571  0.9548  1.6784
 1011MOL0     H36475   9.369   4.972   4.656 -0.6364  0.3221 -1.1561
 1011MOL0     H36476   9.353   5.090   4.534 -0.7468 -1.3582 -1.2096
 1011MOL0     H36477   9.489   5.252   4.684 -0.1427  0.3698  0.3301
 1011MOL0     H36478   9.497   5.139   4.809  0.5378 -1.9547 -0.8398
 1011MOL0     H36479   9.304   5.309   4.815  1.6738 -0.1987  3.0522
 1011MOL0     H36480   9.229   5.211   4.695  0.5137  1.3684 -0.3061
 1011MOL0     H36481   9.145   5.000   5.052 -1.1872  1.3716  0.9429
 1011MOL0     H36482   9.784   4.925   4.858 -0.9719 -1.2286 -0.3560
 1011MOL0     H36483   9.945   4.931   5.002  2.2527  1.2448  1.8585
 1011MOL0     H36484  10.084   4.855   4.934 -1.2441 -0.4590 -0.6978
 1011MOL0     H36485  10.080   5.033   4.958  0.0172  0.3635  1.5548
 1012MOL0     O36486  10.821   0.654   0.101  0.0297 -0.1805 -0.8314
 1012MOL0     C36487  10.819   0.703   0.211  0.5971  0.2668 -0.1646
 1012MOL0     O36488  10.925   0.780   0.268  0.6175  0.1027  0.2152
 1012MOL0     C36489  11.032   0.805   0.187 -0.4344 -0.1926  0.4774
 1012MOL0     C36490  11.023   0.910   0.091 -0.1017  0.3545  0.7379
 1012MOL0     C36491  11.137   0.939   0.010  0.0211  0.5633 -0.4509
 1012MOL0     C36492  11.263   0.866   0.022  0.8399 -0.5450  0.5525
 1012MOL0     O36493  11.370   0.896  -0.061 -0.3022  0.4843 -0.1066
 1012MOL0     C36494  11.505   0.872  -0.024 -0.4138  0.7761  0.6921
 1012MOL0     C36495  11.596   0.947  -0.119 -0.0163 -0.4363 -0.2736
 1012MOL0     C36496  11.737   0.895  -0.124  0.2298 -0.2215 -0.7474
 1012MOL0     C36497  11.803   0.894   0.014 -0.5202  0.4191  0.5987
 1012MOL0     C36498  11.953   0.894  -0.014 -0.4885 -0.1944 -0.1292
 1012MOL0     C36499  12.017   0.843   0.119 -0.7073  0.1722  0.1922
 1012MOL0     C36500  12.161   0.832   0.106 -0.6985  0.0760  0.1133
 1012MOL0     C36501  12.219   0.818   0.247 -0.9028  0.8505  0.5857
 1012MOL0     N36502  12.367   0.846   0.246 -0.6480 -0.6905  0.2406
 1012MOL0     C36503  12.426   0.941   0.331  1.1166  0.1498  0.1021
 1012MOL0     C36504  12.557   0.931   0.309 -0.2766 -0.7764 -0.3714
 1012MOL0     C36505  12.652   1.014   0.392  0.2588  0.3074 -0.2922
 1012MOL0     C36506  12.795   0.965   0.351 -0.0746 -0.9848 -0.3141
 1012MOL0     C36507  12.910   1.018   0.436 -0.8553 -0.0051 -0.3569
 1012MOL0     C36508  12.934   1.168   0.411  0.2574  0.4020 -0.9147
 1012MOL0     O36509  12.997   1.184   0.278  0.3190 -0.5835 -0.0314
 1012MOL0     C36510  13.134   1.171   0.264  0.9183 -0.4216  0.0716
 1012MOL0     C36511  13.220   1.134   0.370 -0.0703  0.2947  0.0621
 1012MOL0     C36512  13.358   1.120   0.347 -0.1835  0.0918  0.1333
 1012MOL0     C36513  13.417   1.144   0.223 -0.6684  0.4617 -0.2447
 1012MOL0     C36514  13.570   1.143   0.201  1.0186  0.3960 -0.8406
 1012MOL0     O36515  13.645   1.139   0.321  0.2914 -0.3621 -0.2474
 1012MOL0     C36516  13.782   1.132   0.318 -0.3426 -0.2766  0.1174
 1012MOL0     C36517  13.837   1.073   0.425 -0.1698  0.4682 -0.6525
 1012MOL0     C36518  13.970   1.063   0.444 -0.1434 -0.6394  0.1725
 1012MOL0     C36519  14.056   1.101   0.342 -0.7218 -0.7775 -0.4872
 1012MOL0     O36520  14.189   1.066   0.366 -0.0243  0.5231  0.4169
 1012MOL0     C36521  14.289   1.085   0.270 -0.4809 -0.6880  0.9673
 1012MOL0     C36522  14.430   1.103   0.316 -0.5419  0.0537 -0.4178
 1012MOL0     C36523  14.487   0.981   0.394  0.8757  0.0193  0.2624
 1012MOL0     C36524  14.637   0.957   0.390  0.4807 -0.5427  0.8833
 1012MOL0     C36525  14.670   0.829   0.477  0.5638 -1.6842  0.0296
 1012MOL0     C36526  14.824   0.814   0.493 -0.5746  0.2520  0.7012
 1012MOL0     C36527  14.847   0.669   0.531 -1.1937  0.4840  0.1435
 1012MOL0     C36528  14.997   0.630   0.553  0.6110  0.5894 -0.1827
 1012MOL0    Cl36529  15.071   0.625   0.392  0.2874  0.0839 -0.0739
 1012MOL0     C36530  14.002   1.153   0.223  0.1022  0.1502  0.1379
 1012MOL0     C36531  13.863   1.175   0.218  0.1839 -0.0745  1.0230
 1012MOL0     O36532  13.611   1.142   0.087  0.1534  0.0976  0.6237
 1012MOL0     C36533  13.331   1.173   0.114 -0.1288  0.0544 -0.0221
 1012MOL0     C36534  13.193   1.189   0.140  0.1296 -0.1269 -1.1257
 1012MOL0     N36535  12.583   0.857   0.192 -0.7860 -0.0785  0.1889
 1012MOL0     N36536  12.464   0.809   0.158  0.8109  0.2376  0.1169
 1012MOL0     C36537  11.261   0.759   0.116  0.1553 -0.0352 -0.0291
 1012MOL0     C36538  11.153   0.732   0.203  0.7564  0.1266  0.9680
 1012MOL0     C36539  10.690   0.696   0.290  0.5489 -1.0498 -0.6716
 1012MOL0     C36540  10.679   0.788   0.403 -0.1744  0.9592  0.1746
 1012MOL0     C36541  10.573   0.779   0.489 -0.0894 -0.7092  0.8175
 1012MOL0     C36542  10.467   0.689   0.466 -0.1836  0.1095 -0.1043
 1012MOL0     O36543  10.354   0.666   0.544  0.0926  0.6034  0.7821
 1012MOL0     C36544  10.327   0.749   0.658  0.1411 -0.3232 -0.4212
 1012MOL0     C36545  10.193   0.712   0.728  0.5674 -0.4719  0.0235
 1012MOL0     C36546  10.187   0.578   0.798 -0.1407  0.1025 -0.4588
 1012MOL0     C36547  10.051   0.537   0.855  1.2559  0.4530 -0.0858
 1012MOL0     C36548  10.041   0.613   0.982  0.0905 -0.4463  0.7512
 1012MOL0     C36549  10.029   0.693   1.074  0.9665 -0.8044 -0.7565
 1012MOL0     C36550  10.469   0.611   0.352 -0.1326  0.0721 -0.1036
 1012MOL0     C36551  10.577   0.616   0.262  0.1023  0.3047  0.5990
 1012MOL0     C36552  10.560   0.533   0.137  0.3249 -0.3895 -0.0319
 1012MOL0     H36553  10.933   0.970   0.087  0.2559  1.0847  2.5823
 1012MOL0     H36554  11.133   1.016  -0.066 -0.3054  1.8014  0.8035
 1012MOL0     H36555  11.523   0.907   0.078  1.6105  2.7592 -0.2678
 1012MOL0     H36556  11.518   0.763  -0.026  1.8584  0.9882  0.6197
 1012MOL0     H36557  11.593   1.053  -0.089 -1.7069 -0.5445  0.0529
 1012MOL0     H36558  11.552   0.949  -0.219  1.0070 -1.3326 -0.7568
 1012MOL0     H36559  11.788   0.964  -0.192  0.5439  0.0120 -0.2766
 1012MOL0     H36560  11.743   0.791  -0.159 -0.7176 -1.0159  1.2803
 1012MOL0     H36561  11.776   0.979   0.078  2.0448  0.7363  1.3526
 1012MOL0     H36562  11.755   0.809   0.065 -1.7649  0.9309  0.3164
 1012MOL0     H36563  11.978   0.826  -0.096 -2.5328  1.8197 -2.5899
 1012MOL0     H36564  11.987   0.993  -0.043 -1.8231 -0.3549 -2.4716
 1012MOL0     H36565  11.984   0.923   0.186  1.5092  2.5183 -1.3536
 1012MOL0     H36566  11.972   0.745   0.137  0.4877 -0.8222 -1.9019
 1012MOL0     H36567  12.198   0.915   0.044  0.8320 -3.1459 -3.7112
 1012MOL0     H36568  12.186   0.743   0.048 -2.9971 -1.2634  1.0588
 1012MOL0     H36569  12.170   0.868   0.330 -1.2653  0.2702  0.7273
 1012MOL0     H36570  12.205   0.711   0.267  0.5179  0.1838 -1.5639
 1012MOL0     H36571  12.373   0.995   0.409  0.6676  2.2243 -1.5422
 1012MOL0     H36572  12.640   1.121   0.370  1.7823  0.8224  1.1353
 1012MOL0     H36573  12.631   0.996   0.498  0.8488 -2.5956 -0.6000
 1012MOL0     H36574  12.793   0.855   0.348  2.9293 -1.1090 -2.4418
 1012MOL0     H36575  12.803   0.985   0.244 -4.9046 -1.4167 -1.0049
 1012MOL0     H36576  13.000   0.957   0.431 -1.7219 -1.3760  0.2972
 1012MOL0     H36577  12.882   1.006   0.541 -0.9208  1.9047 -0.1101
 1012MOL0     H36578  12.995   1.209   0.491 -0.4972  0.2011 -0.2219
 1012MOL0     H36579  12.840   1.222   0.427 -0.2824 -1.2391  2.2676
 1012MOL0     H36580  13.186   1.130   0.473  0.8912  1.7583  0.4538
 1012MOL0     H36581  13.424   1.102   0.432  0.1902 -0.3381 -0.2446
 1012MOL0     H36582  13.781   1.050   0.515 -1.2813 -0.0893 -1.4703
 1012MOL0     H36583  14.010   1.007   0.528 -0.8617 -0.6908  0.4913
 1012MOL0     H36584  14.289   0.994   0.209  3.0645 -1.6003  2.0990
 1012MOL0     H36585  14.263   1.171   0.207 -0.8379  0.3544  2.4723
 1012MOL0     H36586  14.495   1.121   0.230 -0.5150 -1.8409 -0.8209
 1012MOL0     H36587  14.437   1.194   0.378  1.8277  1.1148 -2.1079
 1012MOL0     H36588  14.461   1.003   0.498  2.1720  2.5951  0.1386
 1012MOL0     H36589  14.442   0.890   0.355 -1.4511  0.5001  1.6621
 1012MOL0     H36590  14.686   1.044   0.434 -0.2806 -0.6883  2.0477
 1012MOL0     H36591  14.661   0.957   0.283 -2.9966 -0.2651  0.0050
 1012MOL0     H36592  14.632   0.742   0.423  1.4931 -1.1472 -1.5609
 1012MOL0     H36593  14.621   0.828   0.575  0.7000 -1.0571  0.1140
 1012MOL0     H36594  14.868   0.831   0.395 -2.9060 -0.7148 -0.5741
 1012MOL0     H36595  14.870   0.875   0.571 -0.9318 -0.7551  1.7449
 1012MOL0     H36596  14.808   0.593   0.462 -0.4318 -1.3379  1.6308
 1012MOL0     H36597  14.792   0.664   0.626 -0.3917 -0.9944  0.5533
 1012MOL0     H36598  15.052   0.706   0.609  2.0621  0.9193 -1.9564
 1012MOL0     H36599  14.999   0.529   0.595 -4.3256  0.1063 -0.4158
 1012MOL0     H36600  14.056   1.174   0.131  1.5578 -0.8042  0.7386
 1012MOL0     H36601  13.816   1.226   0.135  0.0252  1.0367  1.7809
 1012MOL0     H36602  13.375   1.186   0.016 -3.2175  1.6204 -1.3150
 1012MOL0     H36603  13.136   1.219   0.053 -0.4883 -2.3951 -1.5613
 1012MOL0     H36604  11.356   0.707   0.131 -0.1017 -0.2631  0.8585
 1012MOL0     H36605  11.149   0.652   0.276  0.3614  1.6459  2.6818
 1012MOL0     H36606  10.767   0.845   0.431  1.6266 -1.2059 -0.7545
 1012MOL0     H36607  10.577   0.838   0.580 -2.3694  0.4751  0.2258
 1012MOL0     H36608  10.301   0.848   0.620 -0.7616 -0.1853  0.4922
 1012MOL0     H36609  10.411   0.747   0.727 -0.4781  0.4908  0.3903
 1012MOL0     H36610  10.117   0.716   0.650  2.8568 -1.0154 -2.3787
 1012MOL0     H36611  10.182   0.789   0.806  1.8196  0.0607 -0.2993
 1012MOL0     H36612  10.256   0.574   0.883  0.2386 -0.8590 -0.7933
 1012MOL0     H36613  10.219   0.502   0.726  0.3651 -0.7749  0.6614
 1012MOL0     H36614   9.970   0.567   0.787  1.4806  0.2079 -0.4620
 1012MOL0     H36615  10.045   0.430   0.876  0.9878  0.3737 -0.5497
 1012MOL0     H36616  10.007   0.751   1.161  1.3962 -1.1532 -0.4090
 1012MOL0     H36617  10.382   0.548   0.342 -0.1140  0.0593 -0.1824
 1012MOL0     H36618  10.549   0.605   0.055  0.0532  0.3726  0.6582
 1012MOL0     H36619  10.645   0.464   0.134  1.1727  0.6521 -1.0768
 1012MOL0     H36620  10.462   0.485   0.140 -0.9680  2.1045  0.8394
 1013MOL0     O36621   3.167   4.724   3.475  0.1874  0.4103  0.4048
 1013MOL0     C36622   3.139   4.826   3.540  0.6675  0.1995  0.4399
 1013MOL0     O36623   3.219   4.878   3.643  0.3627  0.0482 -0.7453
 1013MOL0     C36624   3.340   4.815   3.668  0.0358 -0.3154 -0.1031
 1013MOL0     C36625   3.456   4.879   3.625  0.1740 -0.2668  1.1389
 1013MOL0     C36626   3.583   4.818   3.643 -0.5238 -0.4103  0.4763
 1013MOL0     C36627   3.602   4.701   3.727 -0.0529  0.2604  1.0124
 1013MOL0     O36628   3.737   4.661   3.759 -0.8341  0.4983 -0.5250
 1013MOL0     C36629   3.757   4.533   3.825 -0.4920 -1.0018  0.3480
 1013MOL0     C36630   3.903   4.500   3.860  1.2736  0.0185  0.5430
 1013MOL0     C36631   3.988   4.522   3.738 -1.2717  0.9542  0.0353
 1013MOL0     C36632   4.137   4.523   3.778  0.1294  0.3277 -0.7371
 1013MOL0     C36633   4.219   4.602   3.678  0.7625  0.1904 -0.2533
 1013MOL0     C36634   4.367   4.620   3.729  0.0962 -0.7235  0.0831
 1013MOL0     C36635   4.429   4.726   3.633 -0.1951 -0.1124  0.2578
 1013MOL0     C36636   4.569   4.778   3.675 -0.0776 -0.0495  0.5191
 1013MOL0     N36637   4.669   4.673   3.653  0.0678  0.4076  0.1039
 1013MOL0     C36638   4.738   4.649   3.538 -0.3712 -0.0207  0.2568
 1013MOL0     C36639   4.831   4.553   3.565  0.7359  0.7808  0.3148
 1013MOL0     C36640   4.920   4.493   3.470 -0.2590 -0.1418  0.8021
 1013MOL0     C36641   5.062   4.514   3.525  0.1147 -1.1145 -0.2182
 1013MOL0     C36642   5.165   4.450   3.422 -0.2143 -0.3340 -0.6552
 1013MOL0     C36643   5.306   4.452   3.473  0.1390  0.4595  0.9220
 1013MOL0     O36644   5.363   4.583   3.480 -0.1500 -0.0772  0.2165
 1013MOL0     C36645   5.486   4.595   3.545 -0.4319 -0.2791 -0.5645
 1013MOL0     C36646   5.528   4.718   3.580  0.0212  0.8073  0.1391
 1013MOL0     C36647   5.661   4.737   3.625 -0.2873  0.5622  0.1393
 1013MOL0     C36648   5.746   4.632   3.646  0.0652  0.0080  0.8445
 1013MOL0     C36649   5.879   4.642   3.705 -0.0614 -0.7330 -0.6359
 1013MOL0     O36650   5.931   4.765   3.713  0.3888  0.4807 -0.7326
 1013MOL0     C36651   6.053   4.777   3.781  0.1467 -0.9511  0.4951
 1013MOL0     C36652   6.164   4.809   3.707  0.0021 -0.0725  0.2572
 1013MOL0     C36653   6.288   4.838   3.766 -0.3190  0.0143  0.3621
 1013MOL0     C36654   6.303   4.837   3.906 -0.7755  0.3862 -0.2096
 1013MOL0     O36655   6.422   4.852   3.978 -0.3886 -0.2966 -0.3350
 1013MOL0     C36656   6.545   4.887   3.901 -0.1824 -0.2972 -0.3929
 1013MOL0     C36657   6.636   4.972   3.976 -0.2551 -0.0692  0.8823
 1013MOL0     C36658   6.770   4.972   3.904  0.6651  0.7203  0.0923
 1013MOL0     C36659   6.860   5.056   3.993  0.5870  0.1069 -0.5600
 1013MOL0     C36660   7.001   5.075   3.944  0.6454 -1.1285 -0.3557
 1013MOL0     C36661   7.066   5.166   4.054  0.2340 -0.3596  0.5512
 1013MOL0     C36662   7.203   5.120   4.093 -0.0707  0.8356 -0.3970
 1013MOL0     C36663   7.205   4.986   4.182  0.5213  0.4515  1.0296
 1013MOL0    Cl36664   7.129   5.005   4.330 -0.3395  0.4841  0.2510
 1013MOL0     C36665   6.186   4.798   3.980 -0.6811 -0.1229 -0.0019
 1013MOL0     C36666   6.059   4.772   3.920  0.3163 -0.4969  0.6870
 1013MOL0     O36667   5.931   4.537   3.746 -0.5823  0.1658 -0.3049
 1013MOL0     C36668   5.693   4.501   3.626  0.7458  0.1232 -0.4248
 1013MOL0     C36669   5.571   4.481   3.564  0.4141 -1.0023  0.4554
 1013MOL0     N36670   4.817   4.518   3.699  0.3367  0.3377 -1.1002
 1013MOL0     N36671   4.723   4.594   3.753  0.8796  0.3346 -0.4976
 1013MOL0     C36672   3.486   4.644   3.779  0.2847  0.4175 -0.8529
 1013MOL0     C36673   3.364   4.694   3.749  0.5708 -0.1301  0.7329
 1013MOL0     C36674   3.019   4.891   3.512 -0.0922 -0.2558 -0.3767
 1013MOL0     C36675   3.022   5.023   3.454  0.1932  0.3157 -0.2722
 1013MOL0     C36676   2.897   5.075   3.398 -0.4213  0.0976 -0.0651
 1013MOL0     C36677   2.775   5.007   3.427 -0.2771  0.4992  0.8693
 1013MOL0     O36678   2.662   5.070   3.381 -0.9387 -0.5539 -0.3703
 1013MOL0     C36679   2.530   5.017   3.415 -0.8017 -0.0915  0.8507
 1013MOL0     C36680   2.421   5.098   3.348 -0.6350  0.3650 -0.2588
 1013MOL0     C36681   2.291   5.025   3.355 -0.9845 -0.1812  0.5393
 1013MOL0     C36682   2.194   5.124   3.286 -0.0427  1.4092 -0.2074
 1013MOL0     C36683   2.064   5.050   3.266 -0.2787 -0.9614 -0.1130
 1013MOL0     C36684   1.959   5.002   3.235 -0.1609  1.1512  0.4979
 1013MOL0     C36685   2.774   4.883   3.493  1.0978  0.3023  0.3716
 1013MOL0     C36686   2.897   4.821   3.524  0.7715 -0.2618 -0.1192
 1013MOL0     C36687   2.891   4.687   3.591  0.1414  1.1156 -0.9424
 1013MOL0     H36688   3.442   4.976   3.578 -2.2142 -1.2555 -0.3556
 1013MOL0     H36689   3.669   4.878   3.616 -0.7989  0.5299  1.6341
 1013MOL0     H36690   3.704   4.541   3.921 -0.4369  2.2899  0.2233
 1013MOL0     H36691   3.705   4.470   3.753  0.5848  1.4386 -2.7895
 1013MOL0     H36692   3.906   4.398   3.899  1.0881 -0.8673 -1.6504
 1013MOL0     H36693   3.941   4.571   3.934  0.3669 -0.8278  1.8679
 1013MOL0     H36694   3.959   4.606   3.675 -0.8962 -0.1136 -1.6345
 1013MOL0     H36695   3.973   4.431   3.679  2.7001 -0.7769  1.2833
 1013MOL0     H36696   4.151   4.568   3.876  2.2751  1.8553 -1.6524
 1013MOL0     H36697   4.178   4.421   3.771 -1.9331 -0.4456 -3.5852
 1013MOL0     H36698   4.223   4.543   3.587  2.3580 -3.5227  2.0091
 1013MOL0     H36699   4.165   4.697   3.675 -2.0373 -1.0850  3.2666
 1013MOL0     H36700   4.370   4.658   3.832 -0.3231  1.9067 -0.7889
 1013MOL0     H36701   4.416   4.523   3.721 -3.3143 -2.5336 -1.1508
 1013MOL0     H36702   4.357   4.806   3.618 -0.5928 -0.4577  0.2991
 1013MOL0     H36703   4.453   4.681   3.537  1.0813 -2.2609  1.4887
 1013MOL0     H36704   4.604   4.864   3.617  0.8270 -2.0967 -2.2016
 1013MOL0     H36705   4.568   4.799   3.782  1.8906 -0.6914  0.7024
 1013MOL0     H36706   4.716   4.685   3.438 -2.3436 -1.8732 -0.0750
 1013MOL0     H36707   4.887   4.389   3.458  0.0651 -0.1547 -0.0703
 1013MOL0     H36708   4.917   4.546   3.374 -0.5300 -0.4630  0.6314
 1013MOL0     H36709   5.073   4.622   3.526 -0.1487 -1.0833  0.9789
 1013MOL0     H36710   5.083   4.473   3.624  2.2498 -0.6438 -0.4180
 1013MOL0     H36711   5.160   4.492   3.321  0.7742 -0.9935 -0.9955
 1013MOL0     H36712   5.134   4.347   3.404  0.8940 -0.7237 -0.4341
 1013MOL0     H36713   5.359   4.383   3.406 -3.1147  0.8660 -2.4136
 1013MOL0     H36714   5.301   4.410   3.574  0.0057 -1.0998  0.3032
 1013MOL0     H36715   5.457   4.799   3.562 -0.6911 -0.3974 -3.0997
 1013MOL0     H36716   5.703   4.835   3.648 -2.5486  0.9116  3.4008
 1013MOL0     H36717   6.169   4.812   3.599  0.1756 -1.5453  0.2053
 1013MOL0     H36718   6.368   4.862   3.697 -1.9283  2.9899 -0.6454
 1013MOL0     H36719   6.593   4.791   3.885  1.2704  0.2578  0.4186
 1013MOL0     H36720   6.521   4.950   3.814  0.3391  2.3139  1.2411
 1013MOL0     H36721   6.599   5.072   4.003  2.2549  0.5393  2.3795
 1013MOL0     H36722   6.646   4.924   4.073 -1.6774  1.3239  1.7700
 1013MOL0     H36723   6.805   4.870   3.887  2.6482  1.4589 -0.6458
 1013MOL0     H36724   6.749   5.025   3.810 -2.3198  1.1585  0.9106
 1013MOL0     H36725   6.872   5.010   4.091 -0.7695 -1.3096 -1.0207
 1013MOL0     H36726   6.809   5.152   4.004  0.7791  0.2051 -0.5139
 1013MOL0     H36727   7.000   5.132   3.850 -1.9072 -1.9469 -0.9224
 1013MOL0     H36728   7.055   4.982   3.929  0.5314 -1.1692 -0.5217
 1013MOL0     H36729   7.075   5.259   3.997 -0.8452 -0.9737 -0.6861
 1013MOL0     H36730   7.004   5.176   4.144  0.7327 -0.2742  0.8861
 1013MOL0     H36731   7.261   5.189   4.154  2.3055 -0.6312 -0.8918
 1013MOL0     H36732   7.263   5.109   4.002  0.6754  1.6341 -0.0143
 1013MOL0     H36733   7.147   4.908   4.133  0.9410 -0.3961  1.8615
 1013MOL0     H36734   7.306   4.944   4.178  0.5960  0.6834 -1.7177
 1013MOL0     H36735   6.192   4.801   4.089  0.3498  0.4272 -0.0602
 1013MOL0     H36736   5.971   4.743   3.975 -0.1109  0.8495  0.7431
 1013MOL0     H36737   5.754   4.418   3.659  0.0170  0.4503  1.8967
 1013MOL0     H36738   5.537   4.387   3.521  1.7714 -2.3198  2.0989
 1013MOL0     H36739   3.486   4.553   3.838 -0.8054  0.9063 -0.0591
 1013MOL0     H36740   3.274   4.639   3.775 -0.1586  0.5905 -0.1878
 1013MOL0     H36741   3.115   5.079   3.443  1.0073 -0.7880  0.7557
 1013MOL0     H36742   2.900   5.168   3.341  0.2620 -1.2852 -2.4414
 1013MOL0     H36743   2.511   5.009   3.523  1.0009 -1.6211  1.1082
 1013MOL0     H36744   2.523   4.911   3.388 -3.1120  0.1557  0.2569
 1013MOL0     H36745   2.451   5.113   3.244  2.7389  0.2870  0.5659
 1013MOL0     H36746   2.409   5.198   3.389  2.7953  1.1040 -0.7426
 1013MOL0     H36747   2.261   5.003   3.458  0.1066 -2.3002  0.4540
 1013MOL0     H36748   2.300   4.932   3.299 -2.8373  0.4065 -0.8668
 1013MOL0     H36749   2.164   5.209   3.348 -2.3469 -0.5456  1.6163
 1013MOL0     H36750   2.232   5.154   3.188 -0.1768  2.1329 -0.0379
 1013MOL0     H36751   1.873   4.941   3.218 -0.5621 -0.2720  5.6884
 1013MOL0     H36752   2.678   4.839   3.516  0.7713  0.5184 -0.5635
 1013MOL0     H36753   2.964   4.623   3.539  0.6565  2.1179 -1.4939
 1013MOL0     H36754   2.923   4.708   3.693  1.5502 -0.9827 -0.8928
 1013MOL0     H36755   2.792   4.642   3.598  1.0855 -1.0190 -0.2516
 1014MOL0     O36756   9.295  10.310   8.315  0.7104 -0.2742 -0.1663
 1014MOL0     C36757   9.278  10.194   8.360 -1.0931  0.3266  0.7373
 1014MOL0     O36758   9.369  10.092   8.346 -0.0475 -0.3704 -0.1237
 1014MOL0     C36759   9.496  10.114   8.323 -0.9242 -0.0087  0.1817
 1014MOL0     C36760   9.588  10.154   8.422  0.0627  0.0662  0.1065
 1014MOL0     C36761   9.725  10.167   8.387  0.4074 -0.1664 -0.8074
 1014MOL0     C36762   9.771  10.139   8.263 -1.0342 -0.1516  0.6159
 1014MOL0     O36763   9.900  10.158   8.215  0.0645  0.2324  0.2693
 1014MOL0     C36764   9.985  10.249   8.288 -0.3257  0.0543  0.4090
 1014MOL0     C36765  10.096  10.283   8.178 -0.7271  0.1333  0.1421
 1014MOL0     C36766  10.192  10.160   8.162  0.2676  0.5399 -0.0252
 1014MOL0     C36767  10.281  10.187   8.034 -0.1474 -0.2301 -0.7433
 1014MOL0     C36768  10.376  10.067   8.007  0.2016 -0.5955 -0.7166
 1014MOL0     C36769  10.494  10.055   8.109  0.1415 -0.5412  0.0415
 1014MOL0     C36770  10.570   9.928   8.066 -0.4319 -0.9230  0.0625
 1014MOL0     C36771  10.700   9.920   8.159  0.1686  0.8706 -0.0074
 1014MOL0     N36772  10.785   9.814   8.104  0.6044 -0.1414  0.1257
 1014MOL0     C36773  10.785   9.679   8.140  0.2432  0.6371 -0.0595
 1014MOL0     C36774  10.884   9.621   8.064  0.0938 -0.1992  0.0339
 1014MOL0     C36775  10.938   9.475   8.078 -0.3108 -0.2436  0.0637
 1014MOL0     C36776  11.026   9.429   7.953 -0.5045  0.5446  0.5427
 1014MOL0     C36777  11.070   9.287   7.981  0.4576 -0.0176  0.3871
 1014MOL0     C36778  11.128   9.217   7.861  0.1023 -0.4497  0.0721
 1014MOL0     O36779  11.237   9.295   7.816 -0.5754 -1.5226 -0.0876
 1014MOL0     C36780  11.364   9.253   7.842 -0.1174 -1.1209  0.0777
 1014MOL0     C36781  11.463   9.282   7.754  0.7276  0.1653  0.2849
 1014MOL0     C36782  11.594   9.278   7.793 -0.0837 -0.0813  0.3053
 1014MOL0     C36783  11.637   9.226   7.910  0.1119 -0.4721  0.6514
 1014MOL0     C36784  11.788   9.216   7.937  0.0635  0.2591 -0.1213
 1014MOL0     O36785  11.827   9.127   8.030  0.1886  0.4181  0.2651
 1014MOL0     C36786  11.949   9.145   8.093 -0.2892  1.0021  0.4159
 1014MOL0     C36787  11.997   9.269   8.143 -0.1679 -0.2135 -1.4570
 1014MOL0     C36788  12.125   9.275   8.203 -0.3223 -0.6298 -0.3863
 1014MOL0     C36789  12.209   9.169   8.208 -0.6056 -0.6749 -0.0384
 1014MOL0     O36790  12.336   9.203   8.259 -0.5374  0.3280  0.1570
 1014MOL0     C36791  12.402   9.100   8.331  1.0054 -0.6751 -0.2803
 1014MOL0     C36792  12.514   9.158   8.408 -0.5473 -0.8305 -0.1168
 1014MOL0     C36793  12.582   9.050   8.490 -0.3269 -0.0471 -0.5755
 1014MOL0     C36794  12.689   9.118   8.568 -0.4462 -0.0638  0.5228
 1014MOL0     C36795  12.773   9.016   8.651  0.5228 -0.3169 -0.2308
 1014MOL0     C36796  12.892   9.062   8.728  0.5862 -0.2655 -0.0861
 1014MOL0     C36797  12.837   9.161   8.832 -0.0415  0.1492 -0.1067
 1014MOL0     C36798  12.947   9.194   8.926 -0.1331 -0.9967  0.3367
 1014MOL0    Cl36799  12.879   9.290   9.052 -0.5458 -0.1881 -0.1399
 1014MOL0     C36800  12.164   9.048   8.157  0.2085  0.3864 -0.0932
 1014MOL0     C36801  12.036   9.035   8.103 -0.1557  0.1001  0.2937
 1014MOL0     O36802  11.869   9.286   7.877  0.4932  0.0338 -0.1225
 1014MOL0     C36803  11.544   9.173   7.998 -0.4441  0.9945 -0.6758
 1014MOL0     C36804  11.404   9.193   7.966  0.1273  0.0170 -0.3854
 1014MOL0     N36805  10.929   9.720   7.972 -0.3700  0.1604  0.5053
 1014MOL0     N36806  10.877   9.832   8.004  1.0438  0.4304  0.3930
 1014MOL0     C36807   9.684  10.092   8.165  0.2853  0.0379  0.2188
 1014MOL0     C36808   9.550  10.079   8.196  0.0800 -0.1784 -0.5565
 1014MOL0     C36809   9.159  10.169   8.449  0.4131 -0.1559 -0.6060
 1014MOL0     C36810   9.174  10.063   8.541  0.6452 -0.1837  0.4587
 1014MOL0     C36811   9.063  10.016   8.615 -2.2368  0.8668  0.4926
 1014MOL0     C36812   8.939  10.084   8.615  0.2234  0.5679  0.4657
 1014MOL0     O36813   8.847  10.032   8.704  0.4450 -0.2265 -0.6272
 1014MOL0     C36814   8.719  10.092   8.717 -1.0179  0.1608  0.0175
 1014MOL0     C36815   8.669  10.060   8.854  0.2740  0.6784 -0.6253
 1014MOL0     C36816   8.513  10.065   8.864 -0.9289 -0.3981  0.5494
 1014MOL0     C36817   8.471   9.959   8.969  0.4365  0.5211  0.0758
 1014MOL0     C36818   8.333   9.977   9.007 -0.2209 -0.0229  0.5267
 1014MOL0     C36819   8.217   9.993   9.030  0.2239 -0.3599  0.8552
 1014MOL0     C36820   8.925  10.194   8.526  0.0388  0.4586 -0.1201
 1014MOL0     C36821   9.035  10.239   8.442  0.2770  0.1012  1.0706
 1014MOL0     C36822   9.006  10.354   8.346  0.1052  0.4486  0.3880
 1014MOL0     H36823   9.567  10.163   8.528  3.0273  0.4800  0.7320
 1014MOL0     H36824   9.786  10.206   8.468 -1.6449  2.8848 -0.5592
 1014MOL0     H36825   9.938  10.345   8.312  0.1034 -0.2202  2.5761
 1014MOL0     H36826  10.027  10.209   8.381 -2.1529 -1.2929  0.7032
 1014MOL0     H36827  10.146  10.375   8.209  0.7413 -0.2441 -1.0171
 1014MOL0     H36828  10.057  10.307   8.079  0.8099 -1.6202 -0.9526
 1014MOL0     H36829  10.130  10.069   8.158 -0.3751  0.9360  0.6802
 1014MOL0     H36830  10.259  10.143   8.247  2.2510  1.0064 -1.4385
 1014MOL0     H36831  10.223  10.212   7.945 -2.2413  0.6655  0.7891
 1014MOL0     H36832  10.335  10.281   8.049  0.1299 -0.4615 -0.2294
 1014MOL0     H36833  10.315   9.979   7.986  0.0907 -0.0339 -2.9651
 1014MOL0     H36834  10.426  10.081   7.911  2.4399 -1.3710  0.2576
 1014MOL0     H36835  10.548  10.150   8.123 -1.3762  0.2786  0.5884
 1014MOL0     H36836  10.455  10.046   8.211  1.6922  0.5102  0.7766
 1014MOL0     H36837  10.604   9.947   7.964  3.0880 -1.0721  1.0850
 1014MOL0     H36838  10.511   9.836   8.070 -1.2116 -0.5587 -1.9057
 1014MOL0     H36839  10.758  10.011   8.176  4.5962 -2.1906  4.0113
 1014MOL0     H36840  10.657   9.879   8.251  0.5139 -0.9324 -0.6118
 1014MOL0     H36841  10.713   9.634   8.207 -0.2252  0.7936 -0.4540
 1014MOL0     H36842  11.005   9.475   8.164 -1.2439  2.2595  0.8755
 1014MOL0     H36843  10.853   9.408   8.086 -1.7387  1.6421  1.7759
 1014MOL0     H36844  10.960   9.431   7.865 -2.3605 -2.8159  1.6775
 1014MOL0     H36845  11.107   9.501   7.939 -0.5165  0.2149 -1.6401
 1014MOL0     H36846  10.980   9.233   8.012  1.0185 -1.5405 -0.5088
 1014MOL0     H36847  11.144   9.276   8.061  0.6851 -0.6449  0.1017
 1014MOL0     H36848  11.048   9.207   7.788 -1.5116 -0.0666  1.7220
 1014MOL0     H36849  11.169   9.124   7.903  1.4415  1.1422  2.6015
 1014MOL0     H36850  11.443   9.316   7.653  0.2546  1.4746  0.7949
 1014MOL0     H36851  11.667   9.299   7.716  2.7484 -1.0344  2.5702
 1014MOL0     H36852  11.938   9.359   8.133 -1.8043 -1.4073 -3.2898
 1014MOL0     H36853  12.159   9.371   8.242  0.2159 -0.9343 -0.0923
 1014MOL0     H36854  12.332   9.057   8.404  0.5323 -0.2047 -0.4450
 1014MOL0     H36855  12.437   9.033   8.252  1.4124 -0.1778 -0.5275
 1014MOL0     H36856  12.586   9.199   8.337 -0.1742 -1.2013  0.0509
 1014MOL0     H36857  12.478   9.245   8.465 -1.5405 -0.5272 -1.1642
 1014MOL0     H36858  12.506   9.001   8.551  0.1007 -1.8538 -1.4243
 1014MOL0     H36859  12.637   8.980   8.427  3.8729  1.5940  0.8691
 1014MOL0     H36860  12.645   9.188   8.639  0.1668  0.0991  0.7402
 1014MOL0     H36861  12.744   9.181   8.497 -0.1410  1.7089  2.2599
 1014MOL0     H36862  12.814   8.939   8.584  0.1888 -0.5871 -0.1253
 1014MOL0     H36863  12.703   8.968   8.721  1.2687  0.1370  0.8451
 1014MOL0     H36864  12.938   8.982   8.788  0.6080  0.7386  1.2827
 1014MOL0     H36865  12.969   9.109   8.666 -0.7382  1.9392 -0.1631
 1014MOL0     H36866  12.748   9.113   8.873 -0.2034 -0.5213 -1.2040
 1014MOL0     H36867  12.800   9.255   8.790 -1.5859 -0.4155 -0.0750
 1014MOL0     H36868  13.001   9.113   8.976  0.3106 -1.0923 -0.2875
 1014MOL0     H36869  13.022   9.257   8.876 -2.2965  3.0528  1.7227
 1014MOL0     H36870  12.229   8.961   8.166  0.0567  0.0324 -1.9338
 1014MOL0     H36871  12.002   8.938   8.070  0.6681 -0.1078  0.0199
 1014MOL0     H36872  11.572   9.130   8.094 -4.4358 -0.4640  0.0525
 1014MOL0     H36873  11.336   9.174   8.049  0.4189  3.7809  0.9164
 1014MOL0     H36874   9.707  10.056   8.065 -1.8664 -0.5470 -0.1111
 1014MOL0     H36875   9.486  10.035   8.121  1.2581 -0.3176 -1.5171
 1014MOL0     H36876   9.274  10.021   8.546  0.9180  0.5126  0.9197
 1014MOL0     H36877   9.076   9.918   8.661 -1.4406  0.3396 -0.8026
 1014MOL0     H36878   8.651  10.048   8.643 -3.2846  1.4180  1.2536
 1014MOL0     H36879   8.710  10.198   8.693 -0.9721 -0.0933 -1.2285
 1014MOL0     H36880   8.716  10.115   8.936 -0.6787  0.9228 -0.2270
 1014MOL0     H36881   8.708   9.959   8.873  1.0005  1.1113  0.2763
 1014MOL0     H36882   8.460  10.050   8.770  1.2268 -0.6352 -0.6899
 1014MOL0     H36883   8.494  10.168   8.895 -1.2007  0.6444 -2.7191
 1014MOL0     H36884   8.477   9.864   8.914  0.9254  0.6936 -0.1749
 1014MOL0     H36885   8.534   9.956   9.059 -1.1400 -0.3883  1.2026
 1014MOL0     H36886   8.117   9.993   9.068 -0.2880  0.4027 -0.3935
 1014MOL0     H36887   8.827  10.240   8.529 -1.3443 -2.3628  1.1303
 1014MOL0     H36888   8.996  10.326   8.241  3.9467  2.6313 -0.7763
 1014MOL0     H36889   8.914  10.402   8.381 -0.3572  0.9470 -1.4204
 1014MOL0     H36890   9.085  10.430   8.346  1.0781 -0.5455  0.5877
 1015MOL0     O36891   3.718   1.217   8.590 -0.0527  0.0597  0.4418
 1015MOL0     C36892   3.694   1.239   8.472 -0.1584 -0.7053 -0.3122
 1015MOL0     O36893   3.768   1.315   8.389  0.0715 -0.6664 -1.0602
 1015MOL0     C36894   3.889   1.359   8.438  1.2217  0.4575  1.2604
 1015MOL0     C36895   4.017   1.316   8.395  0.6776 -0.5136 -0.2253
 1015MOL0     C36896   4.130   1.364   8.457  0.7772  0.1383  0.1792
 1015MOL0     C36897   4.124   1.468   8.546  0.8349 -0.1813 -0.2599
 1015MOL0     O36898   4.236   1.508   8.613  0.6378 -0.0369 -0.0163
 1015MOL0     C36899   4.256   1.645   8.600 -0.1581  0.8876 -0.0513
 1015MOL0     C36900   4.403   1.682   8.616 -0.2519  0.1039  0.4217
 1015MOL0     C36901   4.480   1.669   8.748  0.7818  0.0939  0.4038
 1015MOL0     C36902   4.603   1.770   8.746  0.2636 -0.2745 -0.6644
 1015MOL0     C36903   4.703   1.750   8.856 -0.7385  0.0513 -0.1510
 1015MOL0     C36904   4.786   1.874   8.873  0.3056  0.2871  0.1961
 1015MOL0     C36905   4.863   1.858   9.001 -0.2918 -0.5696 -0.5073
 1015MOL0     C36906   4.961   1.743   9.015 -0.1651  0.2819  0.9423
 1015MOL0     N36907   5.065   1.743   8.916  0.3411  0.0912  0.1816
 1015MOL0     C36908   5.196   1.732   8.937 -0.6374  1.3424  0.6935
 1015MOL0     C36909   5.256   1.724   8.811  0.2823  0.0267 -0.9546
 1015MOL0     C36910   5.399   1.700   8.770 -0.3271 -0.3807  0.1143
 1015MOL0     C36911   5.456   1.561   8.764  0.1383 -0.0417 -1.7391
 1015MOL0     C36912   5.598   1.556   8.708 -0.2038 -0.1610 -0.0138
 1015MOL0     C36913   5.703   1.588   8.824  0.1649 -0.4423  0.2073
 1015MOL0     O36914   5.838   1.611   8.768  0.0269 -0.6889  0.7719
 1015MOL0     C36915   5.929   1.507   8.747 -0.1659  0.2481  0.1104
 1015MOL0     C36916   5.889   1.372   8.766 -0.6843 -0.1592 -1.1107
 1015MOL0     C36917   5.988   1.277   8.771  1.0071 -0.3036 -0.3382
 1015MOL0     C36918   6.122   1.315   8.739 -0.5078  0.2965 -0.2511
 1015MOL0     C36919   6.227   1.213   8.738 -0.0771 -0.5891 -0.1020
 1015MOL0     O36920   6.355   1.255   8.716  0.7002 -0.7646 -0.2189
 1015MOL0     C36921   6.460   1.169   8.713  0.3617 -0.2905  0.4460
 1015MOL0     C36922   6.471   1.045   8.775  0.8045  0.1194 -0.2299
 1015MOL0     C36923   6.591   0.986   8.773  0.3056  0.0281 -0.5194
 1015MOL0     C36924   6.698   1.046   8.711 -0.5808 -0.3881 -0.0060
 1015MOL0     O36925   6.816   0.975   8.723 -0.6015  0.4736  0.3145
 1015MOL0     C36926   6.945   1.042   8.724  0.1149  0.3660  0.0052
 1015MOL0     C36927   7.020   0.998   8.596  0.1109  0.5556  0.6303
 1015MOL0     C36928   7.166   1.052   8.589 -0.2417 -0.3047  0.1754
 1015MOL0     C36929   7.229   1.011   8.458 -0.2192  0.2656 -0.6723
 1015MOL0     C36930   7.382   1.046   8.475 -0.1567  0.2456  0.4638
 1015MOL0     C36931   7.474   0.994   8.369 -0.7570  0.1108  0.5577
 1015MOL0     C36932   7.613   1.047   8.383  0.2793 -0.0711  0.3476
 1015MOL0     C36933   7.693   1.071   8.256 -0.1230  0.1860 -0.1768
 1015MOL0    Cl36934   7.866   1.034   8.281 -0.1397 -0.1193  0.2837
 1015MOL0     C36935   6.688   1.169   8.640 -0.1190 -0.5844 -0.2238
 1015MOL0     C36936   6.565   1.233   8.649 -0.1305 -0.5720 -0.2813
 1015MOL0     O36937   6.189   1.098   8.750  0.7548  0.0922  0.2330
 1015MOL0     C36938   6.156   1.449   8.705 -0.0722 -0.1641 -0.2893
 1015MOL0     C36939   6.059   1.542   8.711  1.0209  0.5500  0.5970
 1015MOL0     N36940   5.155   1.728   8.715  0.6945 -0.1028  0.2950
 1015MOL0     N36941   5.050   1.750   8.783  1.0839 -0.3043  0.4448
 1015MOL0     C36942   3.999   1.508   8.586 -0.7449 -0.3166 -0.4450
 1015MOL0     C36943   3.882   1.459   8.529  0.0010  0.6102  0.0374
 1015MOL0     C36944   3.568   1.190   8.420 -0.9627 -0.4965 -0.5838
 1015MOL0     C36945   3.516   1.243   8.307  0.3567 -0.1660  0.1837
 1015MOL0     C36946   3.408   1.186   8.236  0.5461 -0.3654 -0.0569
 1015MOL0     C36947   3.345   1.071   8.287 -1.3796  0.3322 -0.5161
 1015MOL0     O36948   3.241   1.013   8.216  0.1286 -0.7199  0.0400
 1015MOL0     C36949   3.166   0.890   8.252 -0.2041  0.0073  0.3436
 1015MOL0     C36950   3.109   0.811   8.136  0.5342 -0.0504  0.0886
 1015MOL0     C36951   3.202   0.804   8.021 -0.4124  0.3463  0.5983
 1015MOL0     C36952   3.160   0.720   7.905 -0.1333 -0.5940  0.2018
 1015MOL0     C36953   3.037   0.775   7.837  1.4453 -0.2134 -0.5130
 1015MOL0     C36954   2.949   0.822   7.777  0.2032  0.0492 -0.9951
 1015MOL0     C36955   3.387   1.031   8.412  0.0958  0.6626 -0.0937
 1015MOL0     C36956   3.496   1.083   8.484 -1.3135 -0.2909 -0.3329
 1015MOL0     C36957   3.525   1.011   8.615  0.1651  0.5035 -0.3544
 1015MOL0     H36958   4.030   1.238   8.321  1.7117  0.2765 -0.8962
 1015MOL0     H36959   4.226   1.331   8.419  0.4994  1.1276 -1.5175
 1015MOL0     H36960   4.227   1.680   8.501  0.4174  0.8115 -0.2505
 1015MOL0     H36961   4.207   1.702   8.680  1.8407  1.8174  0.5942
 1015MOL0     H36962   4.413   1.788   8.588  2.7468  0.3133  1.9423
 1015MOL0     H36963   4.459   1.632   8.537 -0.6273  0.2166  0.0810
 1015MOL0     H36964   4.524   1.568   8.745  1.4108  0.3591  0.4576
 1015MOL0     H36965   4.429   1.684   8.843  1.9085  0.0166  1.0465
 1015MOL0     H36966   4.655   1.763   8.650 -0.5726 -2.8983 -1.0122
 1015MOL0     H36967   4.562   1.870   8.756 -0.3056 -0.5757  0.1128
 1015MOL0     H36968   4.649   1.724   8.948 -0.1920  1.2498  0.5322
 1015MOL0     H36969   4.763   1.662   8.832 -0.1113 -0.8422  3.8408
 1015MOL0     H36970   4.856   1.893   8.791 -0.3109 -1.7568 -0.8776
 1015MOL0     H36971   4.714   1.957   8.876 -0.4655 -0.3702  0.5250
 1015MOL0     H36972   4.783   1.849   9.076 -1.1280 -0.4174 -1.3626
 1015MOL0     H36973   4.914   1.946   9.041  4.4258 -2.4310 -1.8143
 1015MOL0     H36974   5.016   1.750   9.108  3.5837 -3.0886 -0.7200
 1015MOL0     H36975   4.901   1.651   9.013 -0.0968  0.2082  1.9400
 1015MOL0     H36976   5.241   1.712   9.034 -0.1391  1.2788  0.4539
 1015MOL0     H36977   5.403   1.738   8.668  2.7977  1.0510  0.6653
 1015MOL0     H36978   5.466   1.767   8.825  0.4905  1.0614 -2.5159
 1015MOL0     H36979   5.463   1.506   8.858  0.8755  2.3182 -0.3486
 1015MOL0     H36980   5.389   1.506   8.696 -1.1826 -0.0462 -0.4975
 1015MOL0     H36981   5.611   1.618   8.619 -2.9248 -1.6242 -1.5344
 1015MOL0     H36982   5.621   1.451   8.687  0.9211 -0.6336  3.0231
 1015MOL0     H36983   5.709   1.514   8.904 -0.4036 -1.4055 -0.6100
 1015MOL0     H36984   5.680   1.688   8.863 -1.1011  0.1578 -1.9229
 1015MOL0     H36985   5.796   1.344   8.813 -1.0699 -0.3597 -1.9675
 1015MOL0     H36986   5.965   1.174   8.795  1.7092 -0.8451 -1.8436
 1015MOL0     H36987   6.389   0.997   8.828 -0.5926 -1.2199 -3.3457
 1015MOL0     H36988   6.616   0.891   8.819  0.5986  1.1064  1.7088
 1015MOL0     H36989   6.944   1.150   8.742  1.4711  0.1192  1.8431
 1015MOL0     H36990   6.992   0.991   8.809 -0.3599 -2.5864 -1.3975
 1015MOL0     H36991   7.008   0.890   8.579  0.3489  0.3764  1.5784
 1015MOL0     H36992   6.957   1.039   8.516 -1.1955 -0.3225  1.1639
 1015MOL0     H36993   7.169   1.160   8.605  0.1971 -0.4560  1.2257
 1015MOL0     H36994   7.228   1.019   8.673  2.2996  0.6027 -1.2620
 1015MOL0     H36995   7.184   1.059   8.370 -0.2391  0.8301 -0.3592
 1015MOL0     H36996   7.220   0.904   8.440  0.2592 -0.1937  1.5350
 1015MOL0     H36997   7.416   0.999   8.567 -2.9537 -1.5606  0.7217
 1015MOL0     H36998   7.400   1.152   8.494  2.6541 -0.0630 -0.0297
 1015MOL0     H36999   7.482   0.886   8.380  0.3785  0.3378  2.4599
 1015MOL0     H37000   7.432   1.017   8.270  0.0089  3.9163  0.9736
 1015MOL0     H37001   7.664   0.980   8.453 -0.3536  1.2755  2.1765
 1015MOL0     H37002   7.608   1.140   8.441 -0.4467 -0.0023  0.1907
 1015MOL0     H37003   7.657   1.001   8.180 -1.4067 -0.4544  0.9871
 1015MOL0     H37004   7.680   1.172   8.215  1.0047  0.8023  0.9143
 1015MOL0     H37005   6.772   1.215   8.588  1.0886 -2.3397  0.1018
 1015MOL0     H37006   6.544   1.335   8.617  1.1723 -0.1465  0.1479
 1015MOL0     H37007   6.259   1.479   8.688 -0.4862  1.6268  0.1472
 1015MOL0     H37008   6.088   1.646   8.709  2.1140  0.2451  0.1576
 1015MOL0     H37009   3.989   1.566   8.677 -1.5145 -1.4435  0.2169
 1015MOL0     H37010   3.786   1.495   8.563  0.4992 -0.6215  3.1006
 1015MOL0     H37011   3.551   1.343   8.281 -0.6678 -0.0175 -0.6893
 1015MOL0     H37012   3.372   1.230   8.144  2.5687 -0.9155 -1.1668
 1015MOL0     H37013   3.086   0.920   8.320  0.9524  1.5725  1.0840
 1015MOL0     H37014   3.220   0.815   8.310  0.6056  0.8781  0.7410
 1015MOL0     H37015   3.009   0.844   8.105  0.9129  1.4348  0.3666
 1015MOL0     H37016   3.077   0.715   8.177 -0.4083  0.1992 -0.0254
 1015MOL0     H37017   3.300   0.770   8.054  0.7450  2.3532 -0.5533
 1015MOL0     H37018   3.225   0.899   7.971  0.9573 -0.3932 -0.2365
 1015MOL0     H37019   3.240   0.713   7.831 -1.2404  0.7376 -1.2121
 1015MOL0     H37020   3.144   0.619   7.943 -0.6455 -0.7450 -0.3940
 1015MOL0     H37021   2.867   0.876   7.733 -0.3025  0.9645  0.9797
 1015MOL0     H37022   3.328   0.955   8.462 -1.4633  3.4303  2.6560
 1015MOL0     H37023   3.618   0.956   8.598  3.3410  4.9496  0.5125
 1015MOL0     H37024   3.546   1.072   8.704  1.2684 -0.4278  0.0396
 1015MOL0     H37025   3.447   0.939   8.640 -2.5354  2.6622 -2.0056
 1016MOL0     O37026   3.062   4.422   6.363 -0.3096 -0.2857  0.2010
 1016MOL0     C37027   3.052   4.536   6.405  0.0093  0.3356  0.1563
 1016MOL0     O37028   2.936   4.604   6.423  0.3373  0.1412 -0.2958
 1016MOL0     C37029   2.808   4.540   6.431 -0.1637  0.4322 -0.2956
 1016MOL0     C37030   2.703   4.622   6.417  0.2999 -0.7963  0.7862
 1016MOL0     C37031   2.573   4.583   6.453  0.1760  0.0025  0.5441
 1016MOL0     C37032   2.545   4.458   6.498  0.4512 -0.1643 -0.1819
 1016MOL0     O37033   2.412   4.427   6.526  0.1815  0.0074 -0.7047
 1016MOL0     C37034   2.390   4.360   6.652  0.4682  0.1788 -0.6979
 1016MOL0     C37035   2.245   4.317   6.655 -0.1215  0.1681 -1.0384
 1016MOL0     C37036   2.204   4.244   6.789 -0.2449  0.0998  0.2025
 1016MOL0     C37037   2.049   4.228   6.809  0.3728 -0.2904  0.1575
 1016MOL0     C37038   2.009   4.114   6.893  0.5884 -0.2324 -0.7089
 1016MOL0     C37039   2.033   4.156   7.040  0.9042 -1.2274 -0.1539
 1016MOL0     C37040   1.975   4.038   7.123 -0.1024 -0.0864 -0.0967
 1016MOL0     C37041   2.058   4.022   7.252  1.0570 -0.0031  0.3100
 1016MOL0     N37042   2.197   3.984   7.229 -0.1384 -0.4442  0.2221
 1016MOL0     C37043   2.302   4.068   7.253  0.5063  1.0007 -0.0747
 1016MOL0     C37044   2.416   3.994   7.225 -0.4528 -0.9349  0.1150
 1016MOL0     C37045   2.555   4.051   7.250 -0.4073 -0.5409  0.2189
 1016MOL0     C37046   2.623   4.121   7.132  0.3730 -0.2659  0.0194
 1016MOL0     C37047   2.688   4.027   7.033  0.5308 -0.0654 -0.5839
 1016MOL0     C37048   2.742   4.107   6.910  0.2230  0.9645  0.1570
 1016MOL0     O37049   2.769   4.023   6.796  0.4833 -0.2420 -0.5035
 1016MOL0     C37050   2.897   3.985   6.768 -0.8700 -0.6025 -0.4924
 1016MOL0     C37051   2.976   4.034   6.660  0.1004  0.2468 -0.6749
 1016MOL0     C37052   3.108   3.993   6.644  0.3542 -0.0024 -0.3115
 1016MOL0     C37053   3.175   3.919   6.745 -0.0568 -0.9591 -0.0071
 1016MOL0     C37054   3.321   3.883   6.754  0.5529  0.2228  0.3484
 1016MOL0     O37055   3.367   3.840   6.875 -0.4781 -0.1940 -0.3245
 1016MOL0     C37056   3.508   3.824   6.887  0.5245 -0.3986  0.0484
 1016MOL0     C37057   3.554   3.713   6.958  1.0597  0.4498 -0.3973
 1016MOL0     C37058   3.691   3.680   6.970  0.3299  0.3881 -0.9051
 1016MOL0     C37059   3.782   3.777   6.936 -0.3919 -0.1372  0.2284
 1016MOL0     O37060   3.914   3.758   6.948 -0.8296 -0.4345  0.3645
 1016MOL0     C37061   4.003   3.873   6.965 -0.7210 -0.0142 -0.1301
 1016MOL0     C37062   4.133   3.802   7.006  0.1416  0.1469  0.3676
 1016MOL0     C37063   4.244   3.894   7.058  0.3617  0.6542  0.3865
 1016MOL0     C37064   4.376   3.816   7.022 -0.4779 -0.9134 -0.2863
 1016MOL0     C37065   4.493   3.912   7.066 -0.3748  0.0021 -0.6282
 1016MOL0     C37066   4.612   3.836   7.121 -0.3541  0.2269 -0.4976
 1016MOL0     C37067   4.739   3.937   7.134  1.5104 -0.0258 -0.8135
 1016MOL0     C37068   4.857   3.864   7.183 -0.2067 -0.1000  0.1013
 1016MOL0    Cl37069   4.960   3.990   7.260  0.1201 -0.0099 -0.3353
 1016MOL0     C37070   3.733   3.897   6.876  0.0198 -0.1591 -0.7319
 1016MOL0     C37071   3.597   3.921   6.850 -1.2690  0.4303  0.8107
 1016MOL0     O37072   3.382   3.898   6.646  1.1944 -0.5293 -0.6262
 1016MOL0     C37073   3.098   3.879   6.856 -0.2803  0.2407  0.2286
 1016MOL0     C37074   2.962   3.897   6.854 -0.1992  0.1602  0.2679
 1016MOL0     N37075   2.371   3.864   7.174 -0.3735  0.0457 -0.0838
 1016MOL0     N37076   2.245   3.860   7.189 -0.4124 -0.2031  0.2293
 1016MOL0     C37077   2.651   4.368   6.499 -0.4601  0.0220 -1.1302
 1016MOL0     C37078   2.788   4.404   6.479 -0.7968  0.7610  0.3153
 1016MOL0     C37079   3.180   4.596   6.447  0.8172 -0.2340 -0.2903
 1016MOL0     C37080   3.183   4.714   6.520  0.6111 -0.3546 -0.0357
 1016MOL0     C37081   3.302   4.784   6.554  0.0957 -0.1259 -0.4691
 1016MOL0     C37082   3.424   4.733   6.523 -0.1503  0.1168 -0.3983
 1016MOL0     O37083   3.533   4.807   6.552 -0.3095 -0.6947  0.0262
 1016MOL0     C37084   3.663   4.768   6.510 -0.0915 -0.5048 -0.0010
 1016MOL0     C37085   3.688   4.815   6.370  0.8483 -0.0232 -0.7567
 1016MOL0     C37086   3.658   4.964   6.336 -0.5610  0.5337  0.6954
 1016MOL0     C37087   3.742   5.016   6.209  0.1602 -1.0938  0.4450
 1016MOL0     C37088   3.882   5.038   6.249  0.0527 -0.1483 -0.8281
 1016MOL0     C37089   3.997   5.035   6.264 -0.3438  0.0213  0.4996
 1016MOL0     C37090   3.429   4.607   6.461  0.3016 -0.1793 -0.6459
 1016MOL0     C37091   3.310   4.540   6.430  0.2145  0.4582  0.3924
 1016MOL0     C37092   3.346   4.409   6.364  0.4845 -0.0543  0.1374
 1016MOL0     H37093   2.712   4.726   6.387 -1.8215 -1.2227 -1.6119
 1016MOL0     H37094   2.488   4.649   6.435 -0.3778 -1.2035 -1.5234
 1016MOL0     H37095   2.445   4.266   6.656 -1.1565 -0.8646 -1.6138
 1016MOL0     H37096   2.420   4.419   6.739 -0.9713  1.3999 -0.9876
 1016MOL0     H37097   2.233   4.254   6.566  0.8310  1.6759 -2.2987
 1016MOL0     H37098   2.176   4.400   6.641 -1.3483 -0.5703  0.3460
 1016MOL0     H37099   2.247   4.302   6.871  1.0296 -3.0527  1.9007
 1016MOL0     H37100   2.250   4.145   6.791  2.3456  1.1813 -0.9135
 1016MOL0     H37101   1.992   4.317   6.838 -2.5077 -0.9727 -2.7988
 1016MOL0     H37102   2.005   4.220   6.709 -3.9254  1.0963  1.7012
 1016MOL0     H37103   1.903   4.093   6.876  0.4834  0.0210 -0.3794
 1016MOL0     H37104   2.069   4.025   6.870 -1.4695 -1.9346  0.0568
 1016MOL0     H37105   2.142   4.171   7.041  1.3674 -4.0770 -0.3873
 1016MOL0     H37106   1.982   4.249   7.067  0.2328 -1.3611 -0.9509
 1016MOL0     H37107   1.996   3.947   7.067  1.3162 -0.0163  0.2892
 1016MOL0     H37108   1.866   4.042   7.135 -0.3301 -1.5961 -1.3359
 1016MOL0     H37109   2.043   4.108   7.318 -0.1557 -1.2889  1.8019
 1016MOL0     H37110   2.006   3.935   7.294 -2.6206  1.1268 -1.5587
 1016MOL0     H37111   2.290   4.162   7.304  0.2852  1.1281 -0.3630
 1016MOL0     H37112   2.556   4.114   7.339  1.5123 -0.0485 -0.0969
 1016MOL0     H37113   2.622   3.972   7.284  1.0174 -1.0576 -3.3154
 1016MOL0     H37114   2.545   4.183   7.088  0.2895  1.1589  1.9873
 1016MOL0     H37115   2.700   4.180   7.183 -1.4099 -0.0219  2.6496
 1016MOL0     H37116   2.612   3.952   7.010  0.0204 -0.1006  1.0693
 1016MOL0     H37117   2.780   3.990   7.080 -0.1416 -0.3478  0.5587
 1016MOL0     H37118   2.830   4.164   6.943  1.1318  0.8399 -1.8885
 1016MOL0     H37119   2.674   4.180   6.864  0.0810 -0.2929 -1.7260
 1016MOL0     H37120   2.945   4.117   6.598  0.5668  1.7251  0.9745
 1016MOL0     H37121   3.174   4.028   6.566  0.4025 -0.8111 -0.6386
 1016MOL0     H37122   3.490   3.637   7.002  0.6709  1.0180  0.0407
 1016MOL0     H37123   3.720   3.584   7.011 -2.5905 -0.5314 -0.7475
 1016MOL0     H37124   4.024   3.934   6.876  2.8208  1.4905  1.5524
 1016MOL0     H37125   3.963   3.935   7.045  0.3057 -1.0139  1.2018
 1016MOL0     H37126   4.119   3.727   7.085  0.8729 -0.2504  0.1352
 1016MOL0     H37127   4.153   3.748   6.913 -1.0084 -1.7340  1.1512
 1016MOL0     H37128   4.243   3.995   7.015  2.4453  0.6862  0.3482
 1016MOL0     H37129   4.232   3.908   7.166  0.1930 -2.9190  0.9361
 1016MOL0     H37130   4.384   3.795   6.915 -0.8798  2.6804 -1.1353
 1016MOL0     H37131   4.378   3.722   7.077 -0.2866  0.0693  1.4589
 1016MOL0     H37132   4.462   3.969   7.154  1.7740  0.9068 -0.4061
 1016MOL0     H37133   4.520   3.977   6.982 -0.0811  1.2537  0.4050
 1016MOL0     H37134   4.585   3.800   7.221  0.3623  1.9349  0.3444
 1016MOL0     H37135   4.638   3.751   7.057  0.3396  0.7911 -0.9698
 1016MOL0     H37136   4.706   4.007   7.211  1.3353 -0.6703 -0.2955
 1016MOL0     H37137   4.752   3.987   7.038  0.4461  0.3374 -0.7817
 1016MOL0     H37138   4.838   3.789   7.260  2.0448  0.0732  0.9053
 1016MOL0     H37139   4.904   3.808   7.101 -0.7899 -0.6554  0.1345
 1016MOL0     H37140   3.791   3.982   6.842  1.5306 -0.7277  0.3297
 1016MOL0     H37141   3.570   4.015   6.803  1.7967  0.8174 -0.4289
 1016MOL0     H37142   3.145   3.823   6.937 -3.5410  0.4055  2.4288
 1016MOL0     H37143   2.900   3.863   6.936 -2.5857  2.0634 -0.6160
 1016MOL0     H37144   2.620   4.268   6.528 -3.3218  1.5744  1.7851
 1016MOL0     H37145   2.867   4.330   6.491 -1.1383  0.2566 -0.4832
 1016MOL0     H37146   3.089   4.750   6.560  1.3428  0.7141  0.7880
 1016MOL0     H37147   3.298   4.880   6.605  0.2690 -0.8500  0.9709
 1016MOL0     H37148   3.685   4.662   6.529  3.4001  0.4576  2.1211
 1016MOL0     H37149   3.740   4.808   6.576  1.0901 -1.6111 -0.6588
 1016MOL0     H37150   3.626   4.746   6.311  1.2442 -4.2814  3.2465
 1016MOL0     H37151   3.793   4.800   6.346  1.2930  0.5209  0.7362
 1016MOL0     H37152   3.662   5.019   6.431 -0.6941 -1.5622  1.9896
 1016MOL0     H37153   3.558   4.963   6.292  0.7374  1.1794 -2.5181
 1016MOL0     H37154   3.739   4.946   6.124  0.7471  0.5065 -0.9450
 1016MOL0     H37155   3.705   5.115   6.183  1.5475 -0.3498  1.2073
 1016MOL0     H37156   4.101   5.041   6.290  0.8973  1.5614 -3.9684
 1016MOL0     H37157   3.523   4.559   6.434  0.5250  0.8005 -1.6811
 1016MOL0     H37158   3.451   4.387   6.340  0.7329  0.1719  0.9798
 1016MOL0     H37159   3.320   4.324   6.427 -1.4008 -0.0206 -0.5399
 1016MOL0     H37160   3.306   4.397   6.263  0.0842 -0.9281  0.3915
 1017MOL0     O37161   0.929   1.079   2.941 -0.0102 -0.0338  0.4255
 1017MOL0     C37162   0.921   1.035   3.058 -0.0294 -0.9322 -0.4232
 1017MOL0     O37163   1.004   1.064   3.156 -0.1927 -0.7052  0.1673
 1017MOL0     C37164   1.120   1.139   3.141 -0.5717  0.7294  0.1233
 1017MOL0     C37165   1.232   1.085   3.199  0.0545  0.3371 -0.6502
 1017MOL0     C37166   1.357   1.144   3.190  0.6458  0.1192  0.4899
 1017MOL0     C37167   1.366   1.275   3.138 -0.5958  0.5672  0.7161
 1017MOL0     O37168   1.494   1.325   3.139  0.1966  0.2653  0.0497
 1017MOL0     C37169   1.521   1.454   3.092  0.7134  0.4757  0.4532
 1017MOL0     C37170   1.645   1.507   3.164 -0.8350  0.3611 -0.3930
 1017MOL0     C37171   1.778   1.447   3.120  0.1975  0.0291  0.4408
 1017MOL0     C37172   1.888   1.540   3.159  1.0120  0.3992 -0.0786
 1017MOL0     C37173   2.021   1.481   3.121  0.5908  0.3069  0.6274
 1017MOL0     C37174   2.131   1.576   3.160  0.1502 -0.8228  0.5497
 1017MOL0     C37175   2.264   1.533   3.094  0.2499  0.0914  0.9076
 1017MOL0     C37176   2.370   1.631   3.128 -0.3896  0.1288 -0.3745
 1017MOL0     N37177   2.485   1.591   3.051 -0.6504 -0.7866 -0.5081
 1017MOL0     C37178   2.598   1.523   3.101 -0.2081  0.2085  0.5339
 1017MOL0     C37179   2.675   1.511   2.989 -0.1828 -0.3795  1.2401
 1017MOL0     C37180   2.802   1.425   2.999 -0.7615  0.0575 -0.5137
 1017MOL0     C37181   2.931   1.486   2.942 -0.4475  0.5349 -0.2103
 1017MOL0     C37182   3.043   1.391   2.978 -0.7245  0.1097  0.2388
 1017MOL0     C37183   3.168   1.444   2.909  0.2429  0.5715  0.1645
 1017MOL0     O37184   3.271   1.354   2.951  0.4460  0.0356  0.1798
 1017MOL0     C37185   3.403   1.382   2.920  0.4448 -0.0738  0.0793
 1017MOL0     C37186   3.444   1.501   2.857 -0.1982  0.5833  0.1420
 1017MOL0     C37187   3.585   1.521   2.832 -0.1996 -0.7430 -0.3406
 1017MOL0     C37188   3.678   1.429   2.872  0.1788 -0.8364 -0.1138
 1017MOL0     C37189   3.814   1.468   2.863 -0.8446 -1.2295  0.1657
 1017MOL0     O37190   3.841   1.594   2.810 -0.0967 -0.4466  0.6226
 1017MOL0     C37191   3.973   1.641   2.810  0.1903  0.0667 -0.4052
 1017MOL0     C37192   4.086   1.566   2.774  0.0715 -0.6217  0.5129
 1017MOL0     C37193   4.214   1.630   2.765 -0.8168 -0.4872  0.3852
 1017MOL0     C37194   4.236   1.761   2.786 -0.3063 -0.0680  0.2429
 1017MOL0     O37195   4.363   1.812   2.793  0.3557  0.2770 -0.0622
 1017MOL0     C37196   4.386   1.944   2.846 -0.0280 -0.5750 -0.3723
 1017MOL0     C37197   4.435   1.940   2.995 -0.2080  0.2682 -0.1911
 1017MOL0     C37198   4.340   1.878   3.098  0.4373  0.3988 -0.9623
 1017MOL0     C37199   4.404   1.888   3.236  1.1074 -0.3257 -0.6622
 1017MOL0     C37200   4.322   1.835   3.346  1.1195 -1.5627  0.1538
 1017MOL0     C37201   4.297   1.688   3.344 -0.3163  0.8663 -0.3995
 1017MOL0     C37202   4.200   1.650   3.461  0.2465  0.0662 -0.2151
 1017MOL0     C37203   4.140   1.503   3.442 -0.5291 -0.4342  1.3582
 1017MOL0    Cl37204   4.041   1.485   3.589  0.2609  0.1920 -0.3929
 1017MOL0     C37205   4.115   1.832   2.803 -0.0293  0.0042 -0.4801
 1017MOL0     C37206   3.989   1.780   2.811 -0.4861  0.2424 -1.5612
 1017MOL0     O37207   3.895   1.382   2.886  0.6086  0.7414  0.6307
 1017MOL0     C37208   3.632   1.300   2.920  0.0306  0.0643  0.3479
 1017MOL0     C37209   3.497   1.278   2.941 -0.3811 -0.1634  0.5605
 1017MOL0     N37210   2.622   1.586   2.886 -0.2610 -0.0625 -1.0427
 1017MOL0     N37211   2.500   1.626   2.920 -0.5668  0.3390  0.5258
 1017MOL0     C37212   1.252   1.336   3.082  0.0105 -0.1132  0.2691
 1017MOL0     C37213   1.126   1.266   3.085 -0.2062 -0.7995 -0.5311
 1017MOL0     C37214   0.809   0.950   3.095  0.5718  0.2515  0.4818
 1017MOL0     C37215   0.759   0.962   3.223  0.0058  1.1245  0.3675
 1017MOL0     C37216   0.649   0.878   3.268 -0.9411  0.3450  0.0960
 1017MOL0     C37217   0.592   0.782   3.194 -0.1763 -0.0554  0.4990
 1017MOL0     O37218   0.485   0.707   3.241 -0.2940 -0.0315  0.3570
 1017MOL0     C37219   0.426   0.732   3.371  1.1843 -0.6632 -0.2972
 1017MOL0     C37220   0.344   0.637   3.454 -0.8045  0.9815  0.3971
 1017MOL0     C37221   0.298   0.702   3.584 -0.1498 -0.5269  0.2163
 1017MOL0     C37222   0.229   0.599   3.681 -0.5299  0.9192 -0.0250
 1017MOL0     C37223   0.215   0.651   3.816  0.0372 -0.3842 -0.3371
 1017MOL0     C37224   0.190   0.694   3.928 -0.3536  0.4150  0.4453
 1017MOL0     C37225   0.644   0.774   3.061  0.0443 -0.5026 -0.2163
 1017MOL0     C37226   0.755   0.848   3.010  0.4807  0.0803 -0.8865
 1017MOL0     C37227   0.799   0.813   2.879 -1.0015  0.8721 -0.3077
 1017MOL0     H37228   1.219   0.981   3.228  1.5070  0.1871 -0.4333
 1017MOL0     H37229   1.449   1.096   3.223 -0.7063 -3.0859 -0.0104
 1017MOL0     H37230   1.533   1.458   2.983 -0.4310  0.4250  0.3208
 1017MOL0     H37231   1.443   1.527   3.114  2.1930  2.1814  0.3442
 1017MOL0     H37232   1.640   1.508   3.274 -0.1900 -2.3286 -0.2765
 1017MOL0     H37233   1.635   1.613   3.137 -1.4974  0.7780  1.3609
 1017MOL0     H37234   1.773   1.430   3.012 -0.4646 -2.8970  0.8453
 1017MOL0     H37235   1.787   1.354   3.177  0.8747 -1.0593 -1.3635
 1017MOL0     H37236   1.885   1.631   3.098  0.8711 -0.2917 -1.1334
 1017MOL0     H37237   1.876   1.564   3.265  3.3655 -1.7236  0.7812
 1017MOL0     H37238   2.014   1.383   3.170 -2.3179 -2.0688 -3.7814
 1017MOL0     H37239   2.024   1.458   3.014 -0.5516 -0.6936  0.7782
 1017MOL0     H37240   2.105   1.677   3.128  1.1924 -0.4757  0.7634
 1017MOL0     H37241   2.147   1.584   3.268 -2.5111  1.3416  0.8808
 1017MOL0     H37242   2.250   1.510   2.988 -4.0056  0.8853  1.1426
 1017MOL0     H37243   2.301   1.437   3.133 -2.8135 -1.1178  1.0717
 1017MOL0     H37244   2.351   1.735   3.098  0.7352  0.2540 -0.7006
 1017MOL0     H37245   2.387   1.632   3.236 -2.1470  1.2863 -0.0819
 1017MOL0     H37246   2.614   1.483   3.201  0.4042 -1.9488 -0.3661
 1017MOL0     H37247   2.826   1.394   3.101 -0.5232 -0.5361 -0.7413
 1017MOL0     H37248   2.784   1.336   2.938  0.1737  0.0290 -0.7588
 1017MOL0     H37249   2.919   1.512   2.836  1.2127  0.5964 -0.4186
 1017MOL0     H37250   2.932   1.580   2.998  0.8612  0.6766 -0.4247
 1017MOL0     H37251   3.014   1.294   2.935  0.6189  1.4323 -4.1418
 1017MOL0     H37252   3.066   1.383   3.085 -0.7444 -0.4005  0.2074
 1017MOL0     H37253   3.178   1.547   2.944 -2.3954  0.0933  2.6970
 1017MOL0     H37254   3.152   1.445   2.801  0.0615  0.6649  0.1908
 1017MOL0     H37255   3.373   1.577   2.829 -0.7354  1.0668  2.6410
 1017MOL0     H37256   3.617   1.617   2.794  1.7330 -1.1901  0.0437
 1017MOL0     H37257   4.068   1.470   2.726  2.6200 -0.7665 -0.3127
 1017MOL0     H37258   4.305   1.574   2.748 -0.6321 -0.5467  1.5220
 1017MOL0     H37259   4.467   1.992   2.791 -0.7474  0.7349 -0.3301
 1017MOL0     H37260   4.300   2.011   2.836  0.6162  0.3645  0.2577
 1017MOL0     H37261   4.531   1.887   2.990 -1.2328 -1.5816 -2.0793
 1017MOL0     H37262   4.454   2.045   3.020  1.7661 -0.2004  0.4447
 1017MOL0     H37263   4.244   1.931   3.090 -1.0541 -1.8580  0.5576
 1017MOL0     H37264   4.320   1.773   3.077  0.8360 -0.1768  1.2962
 1017MOL0     H37265   4.417   1.995   3.257  1.2113 -0.6456  0.9784
 1017MOL0     H37266   4.504   1.845   3.235  1.5788  0.6738  0.5301
 1017MOL0     H37267   4.227   1.889   3.334  1.2563 -1.2825  0.3276
 1017MOL0     H37268   4.362   1.862   3.444 -0.7409  2.2426  0.0371
 1017MOL0     H37269   4.260   1.646   3.250  3.2837  0.0653 -1.5924
 1017MOL0     H37270   4.396   1.642   3.351  0.0189  1.7622  1.2680
 1017MOL0     H37271   4.113   1.715   3.468 -1.1583 -1.6698 -0.6105
 1017MOL0     H37272   4.259   1.661   3.553  0.1952 -0.1159 -0.1602
 1017MOL0     H37273   4.077   1.499   3.353 -1.4422  0.6203  1.9314
 1017MOL0     H37274   4.213   1.421   3.441  1.2717  1.0919  0.0748
 1017MOL0     H37275   4.110   1.940   2.813  2.6456  0.0821  0.6491
 1017MOL0     H37276   3.914   1.853   2.838 -1.1998 -0.6676 -1.0079
 1017MOL0     H37277   3.702   1.218   2.930  1.2408  1.0953  0.6210
 1017MOL0     H37278   3.466   1.183   2.983 -0.9683 -0.2594 -0.0698
 1017MOL0     H37279   1.256   1.429   3.026 -1.3217 -0.2750 -0.1227
 1017MOL0     H37280   1.038   1.310   3.041  0.3204  0.7651 -0.0639
 1017MOL0     H37281   0.807   1.026   3.295  0.1662 -0.7084  1.9630
 1017MOL0     H37282   0.625   0.897   3.373  1.2494  2.6427  0.2850
 1017MOL0     H37283   0.360   0.819   3.361 -0.3061 -1.5953  0.9495
 1017MOL0     H37284   0.498   0.758   3.448 -0.7009  2.0689  0.7011
 1017MOL0     H37285   0.406   0.553   3.485 -2.3384  0.4443  2.2035
 1017MOL0     H37286   0.257   0.599   3.400 -0.2907  1.8487 -1.1227
 1017MOL0     H37287   0.228   0.785   3.570 -0.7706 -1.1157 -0.2605
 1017MOL0     H37288   0.387   0.736   3.638 -1.3657  4.2459 -0.2858
 1017MOL0     H37289   0.129   0.567   3.649  0.0068 -2.7162  1.5209
 1017MOL0     H37290   0.297   0.514   3.684 -0.0416  1.3222  2.9471
 1017MOL0     H37291   0.160   0.735   4.023  0.0691 -0.5223  0.9945
 1017MOL0     H37292   0.605   0.693   3.000  2.5216 -2.5515  0.7208
 1017MOL0     H37293   0.721   0.832   2.805 -2.3592 -2.0198  0.2249
 1017MOL0     H37294   0.884   0.871   2.842 -0.4681  0.3714  0.1163
 1017MOL0     H37295   0.825   0.707   2.877  1.0574  1.3278 -0.2053
 1018MOL0     O37296   0.988  10.838   2.939  0.1005  0.3581  0.1426
 1018MOL0     C37297   0.964  10.721   2.916 -0.0038 -0.0067 -0.5789
 1018MOL0     O37298   1.039  10.610   2.965  0.0134 -0.0144  0.3031
 1018MOL0     C37299   1.134  10.632   3.064 -0.1750  0.6425  0.4487
 1018MOL0     C37300   1.272  10.655   3.038  0.5768  0.0631  0.3315
 1018MOL0     C37301   1.367  10.682   3.135 -0.2872 -0.0273  0.3956
 1018MOL0     C37302   1.325  10.696   3.264  0.0625  1.0292 -0.0826
 1018MOL0     O37303   1.414  10.725   3.365  0.7241 -0.8466  0.2687
 1018MOL0     C37304   1.554  10.729   3.368  0.0477  0.0832  1.1315
 1018MOL0     C37305   1.589  10.760   3.509  0.1467  0.0188 -0.3874
 1018MOL0     C37306   1.727  10.788   3.536  0.3068  0.0117 -0.0295
 1018MOL0     C37307   1.823  10.688   3.488 -0.3240  0.8611 -0.7240
 1018MOL0     C37308   1.955  10.744   3.449 -1.0927  0.3446  1.0141
 1018MOL0     C37309   2.054  10.796   3.556  0.1516  0.0735 -0.7761
 1018MOL0     C37310   2.206  10.811   3.514  0.4984  0.0413  0.4279
 1018MOL0     C37311   2.214  10.911   3.393 -0.4830  0.0979  0.6441
 1018MOL0     N37312   2.349  10.977   3.389  0.1218 -0.4939 -0.1794
 1018MOL0     C37313   2.450  10.950   3.300  1.1601 -0.3828 -0.4356
 1018MOL0     C37314   2.538  11.048   3.313 -1.0026 -0.1548 -0.3488
 1018MOL0     C37315   2.672  11.048   3.255 -0.7106  0.0474  0.9285
 1018MOL0     C37316   2.766  10.984   3.357 -0.6049  0.3191 -0.2974
 1018MOL0     C37317   2.904  10.946   3.309 -0.5249  0.8864 -0.0876
 1018MOL0     C37318   2.978  11.085   3.287  0.0733 -0.2022 -0.1008
 1018MOL0     O37319   3.113  11.067   3.237 -0.3948  0.2556  0.2385
 1018MOL0     C37320   3.217  11.020   3.311 -0.4824  0.4842 -0.3920
 1018MOL0     C37321   3.344  11.015   3.258 -0.4165  0.1699  0.1335
 1018MOL0     C37322   3.452  10.949   3.315 -0.4269  0.3696  0.3184
 1018MOL0     C37323   3.449  10.917   3.458  0.2614  0.3080  1.0443
 1018MOL0     C37324   3.568  10.854   3.522  0.3183  0.3770  1.0322
 1018MOL0     O37325   3.671  10.818   3.444  0.3909  0.4218  0.5458
 1018MOL0     C37326   3.776  10.758   3.504 -0.5413 -0.5273  0.7024
 1018MOL0     C37327   3.768  10.642   3.582  0.3838 -0.1337  0.5252
 1018MOL0     C37328   3.877  10.574   3.630 -0.7435 -0.3524  1.0318
 1018MOL0     C37329   4.008  10.623   3.601 -0.2257 -0.0491 -0.6224
 1018MOL0     O37330   4.117  10.554   3.642 -0.0306  0.3473  0.5532
 1018MOL0     C37331   4.102  10.426   3.710 -0.8442  0.3791  0.0810
 1018MOL0     C37332   4.236  10.345   3.696  0.6394  0.1997  0.8327
 1018MOL0     C37333   4.358  10.416   3.757 -0.0233 -0.2382 -0.4101
 1018MOL0     C37334   4.480  10.331   3.744 -0.0605  0.4880  0.2703
 1018MOL0     C37335   4.593  10.402   3.832  0.2609  0.0630  1.0017
 1018MOL0     C37336   4.732  10.341   3.815  0.5490  0.1193  0.1329
 1018MOL0     C37337   4.831  10.400   3.912  0.0997 -0.7686  0.1241
 1018MOL0     C37338   4.971  10.373   3.863  0.5590 -0.5046 -0.3392
 1018MOL0    Cl37339   5.034  10.520   3.780  0.2085  0.1152 -0.1260
 1018MOL0     C37340   4.019  10.753   3.538  0.1331 -0.2638  0.3186
 1018MOL0     C37341   3.901  10.813   3.492  0.5239  0.2930 -0.6616
 1018MOL0     O37342   3.570  10.844   3.641  0.3789 -0.7464  0.1690
 1018MOL0     C37343   3.327  10.947   3.522  0.0193 -0.1689  0.6807
 1018MOL0     C37344   3.216  10.984   3.445  0.6141  0.2321 -0.3205
 1018MOL0     N37345   2.495  11.118   3.428  1.1658  0.5419  0.2552
 1018MOL0     N37346   2.382  11.081   3.466 -0.2861  0.6709  0.6496
 1018MOL0     C37347   1.195  10.663   3.298  0.5552 -0.2535  0.0459
 1018MOL0     C37348   1.097  10.638   3.195 -0.1634 -0.3444 -0.4508
 1018MOL0     C37349   0.860  10.693   2.818  0.9746 -0.0883  0.6675
 1018MOL0     C37350   0.733  10.753   2.838 -0.7379 -0.2048 -0.2882
 1018MOL0     C37351   0.627  10.732   2.751  0.2275  0.1922 -0.0489
 1018MOL0     C37352   0.639  10.641   2.642  0.2698 -0.7426  0.0705
 1018MOL0     O37353   0.533  10.615   2.564  1.1011 -0.2163  0.5413
 1018MOL0     C37354   0.535  10.694   2.443 -0.9235 -0.3925 -0.8328
 1018MOL0     C37355   0.480  10.604   2.332  0.5943  0.5978  0.0358
 1018MOL0     C37356   0.523  10.631   2.199  0.6846  0.7271  0.8848
 1018MOL0     C37357   0.644  10.549   2.151  0.5090 -0.2862 -0.7029
 1018MOL0     C37358   0.779  10.610   2.175  1.2828 -0.0982 -0.4293
 1018MOL0     C37359   0.886  10.649   2.210  0.1079  0.0792 -0.3708
 1018MOL0     C37360   0.767  10.574   2.619 -0.1145  0.5962 -0.1606
 1018MOL0     C37361   0.872  10.598   2.708 -0.4516  0.9912  0.4039
 1018MOL0     C37362   1.004  10.520   2.681  0.4000 -0.2369 -0.3165
 1018MOL0     H37363   1.297  10.660   2.932 -0.4551  1.0685  0.1105
 1018MOL0     H37364   1.470  10.689   3.100 -0.8509 -1.8232 -1.8842
 1018MOL0     H37365   1.594  10.637   3.323  1.6614  1.2855 -0.0548
 1018MOL0     H37366   1.592  10.819   3.318  0.8313  0.1796  1.8855
 1018MOL0     H37367   1.555  10.673   3.566  0.0747  1.2061  1.4724
 1018MOL0     H37368   1.528  10.847   3.538  0.0004  0.4211 -1.8133
 1018MOL0     H37369   1.752  10.794   3.642  0.0907 -0.4671  0.0511
 1018MOL0     H37370   1.738  10.884   3.484 -2.3178  0.8358  0.7996
 1018MOL0     H37371   1.836  10.610   3.564  1.6741  0.4311 -1.4196
 1018MOL0     H37372   1.786  10.655   3.391 -1.3416 -2.8102  0.7263
 1018MOL0     H37373   2.014  10.661   3.407 -2.2304 -0.1553  0.3424
 1018MOL0     H37374   1.932  10.818   3.371 -3.6718  0.0949  1.4644
 1018MOL0     H37375   2.013  10.893   3.588  3.6171  1.2333  0.6341
 1018MOL0     H37376   2.033  10.721   3.633 -5.9485  2.1084  0.0361
 1018MOL0     H37377   2.249  10.711   3.497 -0.5469 -0.2015 -0.9185
 1018MOL0     H37378   2.262  10.856   3.596  0.5680 -0.1669  0.4970
 1018MOL0     H37379   2.198  10.855   3.300 -0.5871  1.9328 -0.4874
 1018MOL0     H37380   2.136  10.988   3.390 -0.5350  0.0120 -0.7428
 1018MOL0     H37381   2.471  10.867   3.233  4.6657  2.2118 -2.8946
 1018MOL0     H37382   2.653  10.982   3.171  0.7155 -0.3025  0.8646
 1018MOL0     H37383   2.703  11.141   3.207  0.3151 -0.8250 -0.1492
 1018MOL0     H37384   2.778  11.058   3.438  0.3920  1.1576 -1.1763
 1018MOL0     H37385   2.717  10.893   3.392 -4.0028  2.6393  1.5605
 1018MOL0     H37386   2.895  10.884   3.219  2.2953  1.7137 -1.0453
 1018MOL0     H37387   2.947  10.878   3.384  1.8434 -0.2240 -2.2837
 1018MOL0     H37388   2.970  11.142   3.380 -0.8096  1.0712 -0.9142
 1018MOL0     H37389   2.921  11.142   3.212  0.0529 -0.5865 -0.3821
 1018MOL0     H37390   3.351  11.059   3.159  1.1872  2.0505  1.0131
 1018MOL0     H37391   3.541  10.926   3.257 -1.2365 -3.8622  0.4752
 1018MOL0     H37392   3.668  10.601   3.595 -1.3819  3.0935 -1.4141
 1018MOL0     H37393   3.837  10.485   3.677 -0.3442 -2.6457 -2.5796
 1018MOL0     H37394   4.078  10.430   3.817  1.3835  1.1137  0.6160
 1018MOL0     H37395   4.017  10.372   3.667 -1.1736 -1.0660  2.3242
 1018MOL0     H37396   4.226  10.246   3.742 -0.4362  0.2127  0.6320
 1018MOL0     H37397   4.266  10.331   3.592  0.6307  3.3904  0.3051
 1018MOL0     H37398   4.369  10.511   3.704  1.5238  0.8295  1.6674
 1018MOL0     H37399   4.327  10.426   3.862 -0.6750  2.2527 -0.7759
 1018MOL0     H37400   4.498  10.327   3.636 -2.1070 -2.1700 -0.0779
 1018MOL0     H37401   4.461  10.231   3.785  2.7601 -0.2670 -0.0528
 1018MOL0     H37402   4.560  10.385   3.935  1.2677 -4.5120  0.7660
 1018MOL0     H37403   4.595  10.509   3.806  2.0377 -0.0533  0.5366
 1018MOL0     H37404   4.728  10.232   3.818  0.1498 -0.0596 -3.0025
 1018MOL0     H37405   4.763  10.358   3.711  1.3799 -0.6520  0.2464
 1018MOL0     H37406   4.806  10.344   4.002 -2.0545 -0.4133 -0.1930
 1018MOL0     H37407   4.812  10.506   3.933 -2.0195 -1.2048  0.6986
 1018MOL0     H37408   5.023  10.359   3.958  0.4880  0.2767 -0.1785
 1018MOL0     H37409   4.982  10.284   3.801 -1.5882 -0.1650 -1.3086
 1018MOL0     H37410   4.113  10.799   3.512 -1.1385  1.3152 -1.7843
 1018MOL0     H37411   3.919  10.893   3.420  0.8092 -1.0402 -2.1133
 1018MOL0     H37412   3.313  10.928   3.627 -0.5951 -0.6574  0.5192
 1018MOL0     H37413   3.125  10.976   3.503  2.2472 -0.8343  2.2484
 1018MOL0     H37414   1.158  10.646   3.398  0.7684 -6.0041 -0.5501
 1018MOL0     H37415   0.995  10.611   3.221 -0.4752  2.2919  1.4114
 1018MOL0     H37416   0.740  10.830   2.914 -0.0018  0.1737 -0.7275
 1018MOL0     H37417   0.535  10.787   2.772  0.4031 -0.2349  2.0396
 1018MOL0     H37418   0.640  10.717   2.422 -0.5708  0.2933  1.4715
 1018MOL0     H37419   0.479  10.787   2.457  1.4520  0.7272  2.5580
 1018MOL0     H37420   0.370  10.608   2.330  0.5982  0.7441  0.1105
 1018MOL0     H37421   0.508  10.502   2.361 -0.8931  0.7029  2.0418
 1018MOL0     H37422   0.546  10.737   2.185  0.2282  0.6337 -0.8434
 1018MOL0     H37423   0.439  10.597   2.137  0.3391 -0.5471  1.9903
 1018MOL0     H37424   0.635  10.451   2.200 -0.6774  0.8990  1.6277
 1018MOL0     H37425   0.646  10.537   2.042  0.0092  1.4388 -0.9307
 1018MOL0     H37426   0.985  10.681   2.235  0.4470 -0.2720 -1.2328
 1018MOL0     H37427   0.776  10.503   2.537 -1.3863  0.3864 -0.1363
 1018MOL0     H37428   1.030  10.442   2.753 -1.1131  1.3354  2.0607
 1018MOL0     H37429   0.988  10.480   2.580 -1.6853  0.5503 -0.3539
 1018MOL0     H37430   1.091  10.585   2.671 -1.9078  2.8637 -2.0977
 1019MOL0     O37431   6.287   0.560   4.583 -0.8338  0.7079  0.0341
 1019MOL0     C37432   6.348   0.512   4.489 -0.4703  0.6637  0.5615
 1019MOL0     O37433   6.296   0.449   4.382  0.1223 -0.7522 -0.2130
 1019MOL0     C37434   6.159   0.445   4.381 -0.5287  0.5029 -0.2458
 1019MOL0     C37435   6.071   0.541   4.335 -0.1675  0.4887 -0.1048
 1019MOL0     C37436   5.931   0.526   4.348 -0.0642  0.3216  0.5522
 1019MOL0     C37437   5.871   0.411   4.406 -0.2015  0.7327 -0.5501
 1019MOL0     O37438   5.738   0.398   4.412  0.1030 -0.7676  0.2035
 1019MOL0     C37439   5.678   0.294   4.491  0.4823 -0.1510  0.2928
 1019MOL0     C37440   5.674   0.166   4.410 -0.5193 -0.3802 -0.4423
 1019MOL0     C37441   5.710   0.043   4.493  0.4773  0.1111  0.0408
 1019MOL0     C37442   5.721  -0.078   4.403 -0.0712  0.6251 -0.7351
 1019MOL0     C37443   5.798  -0.187   4.480 -0.2381  0.5752  0.0607
 1019MOL0     C37444   5.813  -0.311   4.384 -0.7047 -0.4964 -0.0558
 1019MOL0     C37445   5.864  -0.443   4.441  0.4883  0.3304 -0.1746
 1019MOL0     C37446   6.014  -0.458   4.471 -0.4738  0.3567 -0.5526
 1019MOL0     N37447   6.079  -0.519   4.345 -0.4894 -1.0218  0.0082
 1019MOL0     C37448   6.108  -0.652   4.343  0.1740 -0.4235 -0.0747
 1019MOL0     C37449   6.185  -0.656   4.235 -0.5084 -0.2743  0.2204
 1019MOL0     C37450   6.269  -0.773   4.189 -0.3203 -0.0651  0.3420
 1019MOL0     C37451   6.376  -0.814   4.293  0.6022  0.0864  0.2888
 1019MOL0     C37452   6.487  -0.715   4.333 -0.6621  0.1514 -0.7800
 1019MOL0     C37453   6.592  -0.658   4.233  0.0217  1.0091 -0.5766
 1019MOL0     O37454   6.665  -0.780   4.186 -0.1874 -0.8628 -0.0239
 1019MOL0     C37455   6.772  -0.753   4.100 -0.2960  0.2175  0.6107
 1019MOL0     C37456   6.819  -0.853   4.018  0.0881 -0.5898  0.1776
 1019MOL0     C37457   6.923  -0.833   3.928 -0.0242 -0.0410  0.1378
 1019MOL0     C37458   6.989  -0.718   3.923 -0.1434  0.2269  0.0060
 1019MOL0     C37459   7.108  -0.711   3.843 -0.0428 -0.3852 -0.1934
 1019MOL0     O37460   7.136  -0.815   3.766 -0.2041 -0.4525 -0.0502
 1019MOL0     C37461   7.256  -0.808   3.698 -0.4532  0.4673  0.5269
 1019MOL0     C37462   7.285  -0.716   3.601 -0.1868 -0.1567  0.2445
 1019MOL0     C37463   7.404  -0.724   3.521 -0.7552 -0.5763  0.1678
 1019MOL0     C37464   7.492  -0.834   3.541 -0.2668  0.3826 -1.0829
 1019MOL0     O37465   7.600  -0.846   3.455 -0.4794 -0.5724 -0.4048
 1019MOL0     C37466   7.619  -0.985   3.423  0.4558  0.0556 -0.1106
 1019MOL0     C37467   7.748  -1.009   3.338  0.5686  0.5486  0.0720
 1019MOL0     C37468   7.872  -0.943   3.398 -0.3204  0.2145 -0.6508
 1019MOL0     C37469   7.985  -0.939   3.304 -0.7265 -0.2690  0.5538
 1019MOL0     C37470   8.075  -1.068   3.298  0.8458 -0.3936  0.5739
 1019MOL0     C37471   8.196  -1.027   3.215  0.8440  0.6829 -0.0418
 1019MOL0     C37472   8.303  -1.149   3.214 -0.4638 -0.1409 -0.5710
 1019MOL0     C37473   8.440  -1.132   3.152  0.1738  0.3020  0.3277
 1019MOL0    Cl37474   8.411  -1.090   2.971 -0.2837 -0.4374 -0.1444
 1019MOL0     C37475   7.472  -0.917   3.661 -0.4649 -0.5376  0.6648
 1019MOL0     C37476   7.350  -0.910   3.725 -0.0075  0.7313 -0.3358
 1019MOL0     O37477   7.171  -0.604   3.857  1.2410  0.3079 -0.3797
 1019MOL0     C37478   6.955  -0.617   4.012  0.2885  0.1389 -0.6819
 1019MOL0     C37479   6.847  -0.633   4.102  0.0896 -0.1938  0.2933
 1019MOL0     N37480   6.194  -0.536   4.171  0.5694  0.3691  1.3156
 1019MOL0     N37481   6.140  -0.453   4.246  1.1704 -0.9537 -0.1885
 1019MOL0     C37482   5.960   0.306   4.445  0.3826 -0.3267  0.5835
 1019MOL0     C37483   6.100   0.329   4.435 -0.9164  0.0095 -0.1895
 1019MOL0     C37484   6.496   0.515   4.507  0.2838 -0.1669 -0.7671
 1019MOL0     C37485   6.574   0.574   4.412  0.7752  0.0914 -0.1048
 1019MOL0     C37486   6.712   0.569   4.420  0.1809 -0.3703  0.0818
 1019MOL0     C37487   6.782   0.513   4.530 -0.2466  0.1661  0.6558
 1019MOL0     O37488   6.925   0.508   4.543  0.0763 -0.5895  0.3049
 1019MOL0     C37489   7.001   0.626   4.509  0.1617  0.3984  0.4343
 1019MOL0     C37490   7.151   0.598   4.483  0.2123  0.5906 -0.4948
 1019MOL0     C37491   7.218   0.534   4.611 -0.0152  0.5237  0.1493
 1019MOL0     C37492   7.363   0.591   4.615  0.5685  0.3790 -0.6337
 1019MOL0     C37493   7.371   0.738   4.655  0.1580 -1.0171  0.6422
 1019MOL0     C37494   7.384   0.853   4.681 -0.3672  0.3296 -0.6775
 1019MOL0     C37495   6.701   0.452   4.628  0.0653  0.9239  0.2228
 1019MOL0     C37496   6.557   0.451   4.618 -0.5611 -0.5882  0.7847
 1019MOL0     C37497   6.477   0.385   4.723 -0.8163  0.5678 -0.5107
 1019MOL0     H37498   6.106   0.631   4.286  0.4180  0.5770  0.4583
 1019MOL0     H37499   5.868   0.606   4.311 -0.1758  1.7286  3.5226
 1019MOL0     H37500   5.726   0.280   4.588 -2.1041 -0.4951  1.5970
 1019MOL0     H37501   5.577   0.326   4.517  1.3670  1.5278  1.8866
 1019MOL0     H37502   5.738   0.169   4.321 -1.3969 -1.7614 -1.1518
 1019MOL0     H37503   5.574   0.152   4.369  0.4836 -1.0802 -2.7919
 1019MOL0     H37504   5.632   0.026   4.567  3.1128 -0.3616  2.9025
 1019MOL0     H37505   5.805   0.052   4.547 -0.3632  2.0355  1.3022
 1019MOL0     H37506   5.622  -0.114   4.372  1.0603 -4.0654  0.2830
 1019MOL0     H37507   5.779  -0.060   4.312  2.5506 -1.6690  0.3314
 1019MOL0     H37508   5.896  -0.148   4.509 -0.6521  0.5147  1.6016
 1019MOL0     H37509   5.741  -0.218   4.568  0.2311  1.8359  0.8329
 1019MOL0     H37510   5.716  -0.327   4.336 -0.7687  0.0807 -0.1148
 1019MOL0     H37511   5.878  -0.276   4.304 -2.8190  1.1080 -1.1708
 1019MOL0     H37512   5.823  -0.522   4.379 -0.8116  0.1425  0.8888
 1019MOL0     H37513   5.812  -0.464   4.534 -1.3701 -0.1517 -1.2800
 1019MOL0     H37514   6.062  -0.363   4.499  0.1865 -0.4982  1.4514
 1019MOL0     H37515   6.016  -0.521   4.561 -1.4487 -2.3532 -2.3185
 1019MOL0     H37516   6.089  -0.731   4.414 -0.4456 -0.0119  0.2224
 1019MOL0     H37517   6.202  -0.856   4.162  0.9569 -1.2577  0.6877
 1019MOL0     H37518   6.320  -0.751   4.095 -0.7303  1.5862  0.4843
 1019MOL0     H37519   6.327  -0.843   4.386  2.1331 -0.7787  0.8524
 1019MOL0     H37520   6.423  -0.902   4.249  2.7595  0.4676  1.6786
 1019MOL0     H37521   6.551  -0.766   4.405 -0.6151 -0.2657 -1.1175
 1019MOL0     H37522   6.446  -0.627   4.385  0.8380 -2.0354  4.8403
 1019MOL0     H37523   6.654  -0.586   4.287  0.2449  1.1036 -0.9515
 1019MOL0     H37524   6.555  -0.623   4.136 -0.1978 -0.9077 -1.2266
 1019MOL0     H37525   6.763  -0.946   4.017 -0.9448  0.0208  0.4951
 1019MOL0     H37526   6.944  -0.919   3.866 -0.5264 -0.3870  0.4333
 1019MOL0     H37527   7.211  -0.637   3.592 -0.0076 -0.1379 -1.1684
 1019MOL0     H37528   7.417  -0.651   3.443 -3.5427 -1.0551 -0.8758
 1019MOL0     H37529   7.617  -1.050   3.511 -1.0265 -1.0779 -0.9358
 1019MOL0     H37530   7.533  -1.015   3.363 -0.5725  1.2804  0.6828
 1019MOL0     H37531   7.764  -1.117   3.327  0.5306  0.7915 -3.4724
 1019MOL0     H37532   7.724  -0.982   3.235 -0.5189 -1.7021 -0.3242
 1019MOL0     H37533   7.854  -0.836   3.412  1.3896  0.4893 -0.2579
 1019MOL0     H37534   7.910  -0.985   3.491  0.9455 -0.6685 -1.5266
 1019MOL0     H37535   8.044  -0.852   3.334 -2.6510  0.7365  1.5986
 1019MOL0     H37536   7.953  -0.923   3.201 -0.8585 -3.1119  0.0979
 1019MOL0     H37537   8.029  -1.159   3.258 -4.2302  2.2139 -0.3472
 1019MOL0     H37538   8.102  -1.094   3.401  1.5581 -1.3898  0.1532
 1019MOL0     H37539   8.167  -0.999   3.114 -2.1672 -1.0414  0.2332
 1019MOL0     H37540   8.249  -0.947   3.269 -1.5889  0.9574  2.1376
 1019MOL0     H37541   8.261  -1.239   3.169  0.6878 -1.2105  0.4070
 1019MOL0     H37542   8.317  -1.170   3.321 -2.7893  2.3543  0.3645
 1019MOL0     H37543   8.483  -1.041   3.196 -0.0295  0.5972 -0.0807
 1019MOL0     H37544   8.488  -1.230   3.162  0.2712  0.1111 -1.6952
 1019MOL0     H37545   7.546  -0.987   3.699  2.5875  1.9508 -0.2010
 1019MOL0     H37546   7.339  -0.974   3.812 -1.2296  2.0565  0.5373
 1019MOL0     H37547   7.013  -0.526   4.007  1.0661  0.0703  3.6946
 1019MOL0     H37548   6.827  -0.551   4.170 -0.1725  1.8864 -2.1095
 1019MOL0     H37549   5.924   0.210   4.482 -0.7880 -0.7260 -1.4403
 1019MOL0     H37550   6.172   0.254   4.466  1.4055  1.9230 -0.7094
 1019MOL0     H37551   6.522   0.615   4.326 -1.8415  1.5462  2.0253
 1019MOL0     H37552   6.759   0.627   4.340  4.4201 -1.1014  1.7762
 1019MOL0     H37553   6.982   0.712   4.573 -1.4547  1.2847 -1.1659
 1019MOL0     H37554   6.970   0.652   4.408 -1.5765 -1.6314  0.3734
 1019MOL0     H37555   7.193   0.698   4.471 -2.3394  1.4578 -3.4071
 1019MOL0     H37556   7.166   0.531   4.398 -2.4405 -1.2501  0.3691
 1019MOL0     H37557   7.212   0.426   4.598 -1.2582  0.7412 -1.4131
 1019MOL0     H37558   7.173   0.565   4.706  0.4885 -1.2705  1.0100
 1019MOL0     H37559   7.427   0.539   4.687 -0.8644  0.5753  0.8364
 1019MOL0     H37560   7.407   0.576   4.516  1.8669 -0.8465  0.0785
 1019MOL0     H37561   7.413   0.952   4.710  0.3161  0.3011 -1.2420
 1019MOL0     H37562   6.752   0.392   4.703 -0.8970 -0.0567  0.1184
 1019MOL0     H37563   6.407   0.319   4.671  0.0119  0.3496 -1.3687
 1019MOL0     H37564   6.538   0.325   4.791 -1.9047 -1.5427 -1.3267
 1019MOL0     H37565   6.436   0.460   4.791 -1.0681 -2.9125  3.6237
 1020MOL0     O37566   1.030   0.844   8.468  0.2138  0.2981  0.3516
 1020MOL0     C37567   1.001   0.917   8.371 -0.2162  0.0346 -0.3062
 1020MOL0     O37568   1.082   0.947   8.271  0.1981 -0.6547  0.0600
 1020MOL0     C37569   1.214   0.911   8.285 -0.2267 -0.8410  0.9512
 1020MOL0     C37570   1.254   0.774   8.305 -0.2110  1.2703  0.2124
 1020MOL0     C37571   1.388   0.732   8.302 -0.0565 -0.6315  0.2475
 1020MOL0     C37572   1.486   0.822   8.279  0.4278 -0.1614  0.5261
 1020MOL0     O37573   1.619   0.790   8.284  0.3028  0.1128  0.1182
 1020MOL0     C37574   1.668   0.686   8.380 -0.9552  0.5998  0.0145
 1020MOL0     C37575   1.826   0.688   8.369 -0.8405 -0.3184  0.2056
 1020MOL0     C37576   1.879   0.826   8.374  0.2257 -0.4865  0.1042
 1020MOL0     C37577   2.026   0.829   8.321  0.5537  0.1529  0.3853
 1020MOL0     C37578   2.100   0.966   8.348  0.6566  0.4539  0.0566
 1020MOL0     C37579   2.236   0.965   8.274  0.2553  0.4528  0.0515
 1020MOL0     C37580   2.319   1.095   8.296  0.3057 -0.1154 -0.4650
 1020MOL0     C37581   2.235   1.222   8.249 -0.4871  0.2916 -1.2999
 1020MOL0     N37582   2.311   1.344   8.267  0.3582 -0.1638  0.2730
 1020MOL0     C37583   2.363   1.383   8.390 -0.0329 -0.6165 -0.2613
 1020MOL0     C37584   2.467   1.466   8.363  1.0244 -0.1795 -1.6077
 1020MOL0     C37585   2.557   1.536   8.454  0.2743 -0.4957  0.0522
 1020MOL0     C37586   2.660   1.441   8.501  0.4848  0.4980 -0.3518
 1020MOL0     C37587   2.720   1.483   8.632 -0.3667 -0.3079 -0.2764
 1020MOL0     C37588   2.831   1.581   8.616 -0.1086 -0.2624  1.3657
 1020MOL0     O37589   2.887   1.626   8.742 -0.0566  0.4467  0.5903
 1020MOL0     C37590   2.982   1.720   8.744 -0.1823  0.4361 -0.3451
 1020MOL0     C37591   3.037   1.776   8.625  0.6182 -0.1136 -1.1547
 1020MOL0     C37592   3.145   1.865   8.640 -0.7129 -0.7636 -0.0766
 1020MOL0     C37593   3.200   1.907   8.764 -0.1229 -0.2280 -0.0863
 1020MOL0     C37594   3.299   2.019   8.767  0.6832  0.5513 -0.2952
 1020MOL0     O37595   3.356   2.058   8.645  0.1778 -0.4005  0.0034
 1020MOL0     C37596   3.471   2.130   8.631 -0.5754 -0.2688  0.4474
 1020MOL0     C37597   3.535   2.216   8.725  0.3427 -0.2857 -1.0813
 1020MOL0     C37598   3.667   2.267   8.692  0.4019 -0.7484  0.5687
 1020MOL0     C37599   3.722   2.250   8.565 -0.1531 -0.4112 -0.0163
 1020MOL0     O37600   3.839   2.316   8.541  0.0531  0.5021 -0.3108
 1020MOL0     C37601   3.899   2.316   8.419 -0.6931 -0.5810  0.5451
 1020MOL0     C37602   4.040   2.359   8.423 -0.0059 -0.2027 -1.1582
 1020MOL0     C37603   4.100   2.301   8.288 -0.6445 -1.2728 -0.6519
 1020MOL0     C37604   4.247   2.357   8.275 -0.3942 -0.3747 -0.9171
 1020MOL0     C37605   4.317   2.321   8.153 -0.0186 -0.5464 -0.2677
 1020MOL0     C37606   4.449   2.398   8.125 -0.4769 -0.5934 -0.8941
 1020MOL0     C37607   4.567   2.345   8.209 -0.6161  0.5194 -0.1781
 1020MOL0     C37608   4.713   2.401   8.174  0.8977  0.2377 -0.7592
 1020MOL0    Cl37609   4.781   2.351   8.014  0.3096  0.3375  0.3524
 1020MOL0     C37610   3.653   2.167   8.480  0.0658 -0.0410  0.0918
 1020MOL0     C37611   3.531   2.107   8.506  0.1116  0.0465 -0.4458
 1020MOL0     O37612   3.334   2.055   8.876  0.6318  0.4415  0.3218
 1020MOL0     C37613   3.155   1.840   8.881  0.5514 -0.2012  0.6176
 1020MOL0     C37614   3.047   1.750   8.867 -0.0845  0.3103 -0.3003
 1020MOL0     N37615   2.483   1.465   8.223  0.2278 -0.3706 -1.0517
 1020MOL0     N37616   2.393   1.390   8.170  0.8483 -0.0563 -0.5643
 1020MOL0     C37617   1.458   0.955   8.247 -0.0019 -0.0721 -0.1823
 1020MOL0     C37618   1.320   0.997   8.250 -0.0121  0.0002 -0.9878
 1020MOL0     C37619   0.860   0.950   8.350  0.4125 -0.0724  0.0200
 1020MOL0     C37620   0.823   1.022   8.232 -0.2707  0.6488 -0.9252
 1020MOL0     C37621   0.695   1.029   8.178 -0.2908  0.0992 -0.5262
 1020MOL0     C37622   0.592   1.002   8.261 -0.0845  0.6246 -0.4506
 1020MOL0     O37623   0.459   1.003   8.229 -0.8279 -0.2030 -0.1267
 1020MOL0     C37624   0.424   0.933   8.111 -0.4521 -0.3601  0.0979
 1020MOL0     C37625   0.407   1.025   7.990 -0.5483  0.2451  0.0159
 1020MOL0     C37626   0.289   1.121   7.994  0.6156  0.8151 -0.2448
 1020MOL0     C37627   0.283   1.222   8.114  0.5499  0.8256  0.4125
 1020MOL0     C37628   0.414   1.287   8.147  0.4305  0.3942 -0.4130
 1020MOL0     C37629   0.518   1.342   8.182 -0.1129 -0.5514 -0.2590
 1020MOL0     C37630   0.615   0.962   8.388  0.0957  0.3234 -0.2146
 1020MOL0     C37631   0.750   0.929   8.435  0.2254  0.4023 -0.2179
 1020MOL0     C37632   0.761   0.859   8.573 -0.6463 -0.2071 -0.2605
 1020MOL0     H37633   1.170   0.707   8.317 -1.5523  2.8362 -0.1096
 1020MOL0     H37634   1.412   0.628   8.323 -1.1482 -0.9179  0.1416
 1020MOL0     H37635   1.640   0.721   8.480 -2.3037 -0.9984  0.2475
 1020MOL0     H37636   1.633   0.585   8.354  0.6656  0.2854 -1.1277
 1020MOL0     H37637   1.850   0.643   8.272 -0.5477 -1.0473  0.6101
 1020MOL0     H37638   1.880   0.634   8.448  0.8017  0.9637  0.0111
 1020MOL0     H37639   1.866   0.873   8.472  1.4077  2.6872 -1.1500
 1020MOL0     H37640   1.821   0.895   8.312 -0.8632 -1.6915 -0.2596
 1020MOL0     H37641   2.076   0.749   8.376  2.3656  0.2262 -1.0339
 1020MOL0     H37642   2.027   0.811   8.213  2.4063  1.6226  0.1184
 1020MOL0     H37643   2.040   1.042   8.299  1.1212  1.6972  1.3618
 1020MOL0     H37644   2.130   0.984   8.452  1.2757 -0.3268  0.0268
 1020MOL0     H37645   2.297   0.883   8.311  0.4230 -1.5292 -4.0661
 1020MOL0     H37646   2.218   0.953   8.167 -0.4567 -0.7428  0.2936
 1020MOL0     H37647   2.401   1.084   8.226 -0.8543 -1.6428 -1.6417
 1020MOL0     H37648   2.348   1.117   8.399  0.9063 -0.1895 -0.6175
 1020MOL0     H37649   2.223   1.209   8.141 -2.2629 -1.4825 -0.9577
 1020MOL0     H37650   2.133   1.227   8.289 -0.0674 -1.4197  0.0818
 1020MOL0     H37651   2.333   1.351   8.489 -0.3020 -0.7829 -0.3971
 1020MOL0     H37652   2.603   1.620   8.401 -1.1653 -0.0657 -0.5441
 1020MOL0     H37653   2.497   1.573   8.537 -0.6369  0.3233 -0.9536
 1020MOL0     H37654   2.621   1.341   8.524  0.0727  0.5214 -0.9267
 1020MOL0     H37655   2.732   1.417   8.423 -0.2406  1.3022 -1.2950
 1020MOL0     H37656   2.765   1.395   8.679 -1.3731 -0.5144  0.3298
 1020MOL0     H37657   2.641   1.526   8.694  1.1853  0.4436  1.2579
 1020MOL0     H37658   2.795   1.672   8.566 -0.5642 -0.9188  0.4597
 1020MOL0     H37659   2.906   1.536   8.550  0.7968 -0.5526  2.5677
 1020MOL0     H37660   2.996   1.755   8.526 -2.9145  4.6797 -1.0791
 1020MOL0     H37661   3.182   1.914   8.551 -2.0811 -2.3691 -1.5918
 1020MOL0     H37662   3.481   2.236   8.817 -0.6758 -3.5828 -0.8190
 1020MOL0     H37663   3.731   2.334   8.749  3.0499 -0.3625 -2.5644
 1020MOL0     H37664   3.904   2.221   8.365  1.7350  0.0764 -0.5470
 1020MOL0     H37665   3.841   2.374   8.347 -0.9164 -3.0513 -1.3742
 1020MOL0     H37666   4.049   2.467   8.435  0.1790 -0.5342  3.6002
 1020MOL0     H37667   4.085   2.306   8.508 -3.4229 -1.4001  0.0493
 1020MOL0     H37668   4.103   2.192   8.284 -0.9906 -1.4092  1.7077
 1020MOL0     H37669   4.044   2.347   8.205 -0.5597  1.2032  0.5691
 1020MOL0     H37670   4.309   2.339   8.364  1.3421 -0.5486 -2.0964
 1020MOL0     H37671   4.244   2.466   8.267  1.3967 -0.3569 -1.9540
 1020MOL0     H37672   4.260   2.352   8.065 -0.5915  0.1339  0.3304
 1020MOL0     H37673   4.329   2.213   8.134 -1.2541 -0.9814  1.2334
 1020MOL0     H37674   4.486   2.395   8.022  1.2326 -1.3421 -0.2977
 1020MOL0     H37675   4.429   2.500   8.159 -0.5063 -1.6531  2.7738
 1020MOL0     H37676   4.551   2.237   8.203 -3.0604  0.4924  3.3590
 1020MOL0     H37677   4.546   2.366   8.315  0.6880 -1.3690  0.5244
 1020MOL0     H37678   4.699   2.509   8.170  0.5076  0.3033  1.2786
 1020MOL0     H37679   4.785   2.382   8.255  1.3348  3.2016 -0.3413
 1020MOL0     H37680   3.691   2.143   8.381 -1.3204 -1.1357 -0.2115
 1020MOL0     H37681   3.471   2.052   8.434  0.6781 -0.9406 -0.1689
 1020MOL0     H37682   3.190   1.844   8.984  3.5304  0.8227 -0.3233
 1020MOL0     H37683   3.024   1.689   8.953 -0.9226  0.6969 -0.2447
 1020MOL0     H37684   1.536   1.022   8.214  0.7111  0.4222  2.2969
 1020MOL0     H37685   1.304   1.102   8.227  0.2394  0.2566 -0.0171
 1020MOL0     H37686   0.905   1.065   8.176  0.8686  0.8339  0.8023
 1020MOL0     H37687   0.674   1.079   8.083 -1.7488 -0.1017 -0.3225
 1020MOL0     H37688   0.324   0.890   8.119 -0.2681 -1.3179 -2.1962
 1020MOL0     H37689   0.497   0.855   8.091 -1.7631 -1.4400 -0.5597
 1020MOL0     H37690   0.388   0.964   7.901 -0.2070 -2.1396  1.4962
 1020MOL0     H37691   0.500   1.081   7.975 -0.9822  0.6240 -1.5196
 1020MOL0     H37692   0.197   1.064   7.978  1.2375  0.1495 -1.6941
 1020MOL0     H37693   0.305   1.177   7.901 -0.5812  2.0838  0.2857
 1020MOL0     H37694   0.213   1.300   8.085  0.7937  1.0219  0.3425
 1020MOL0     H37695   0.235   1.180   8.202  0.2047  1.1222  0.3698
 1020MOL0     H37696   0.603   1.396   8.216 -2.3143  2.8363  0.3481
 1020MOL0     H37697   0.528   0.941   8.450 -1.3597  1.4471 -1.7575
 1020MOL0     H37698   0.815   0.924   8.642 -0.8322  0.4178 -0.6879
 1020MOL0     H37699   0.667   0.838   8.625 -0.9064 -0.5221 -0.8485
 1020MOL0     H37700   0.820   0.767   8.565 -0.1120  0.0838  0.2399
 1021MOL0     O37701   6.389   9.168   0.692 -0.3288  0.4138 -0.0866
 1021MOL0     C37702   6.340   9.074   0.755 -0.4500  0.3057  0.5392
 1021MOL0     O37703   6.385   9.026   0.870 -0.7170 -0.2608 -0.3808
 1021MOL0     C37704   6.500   9.072   0.922 -0.4232  0.3900  0.1640
 1021MOL0     C37705   6.602   8.987   0.934 -1.0872  1.2114 -0.0167
 1021MOL0     C37706   6.727   9.025   0.996 -0.2963  0.7808  0.6098
 1021MOL0     C37707   6.738   9.149   1.061  0.0271  0.3204  0.7421
 1021MOL0     O37708   6.849   9.171   1.144  0.2220  0.1783  0.6084
 1021MOL0     C37709   6.890   9.297   1.188 -0.2436 -0.6477 -0.8901
 1021MOL0     C37710   6.990   9.275   1.301  0.1899 -0.2176  0.5132
 1021MOL0     C37711   7.126   9.223   1.252  1.1303  1.0334  0.2121
 1021MOL0     C37712   7.223   9.328   1.225 -0.7077  0.2562 -0.0086
 1021MOL0     C37713   7.360   9.275   1.180 -0.4389  0.2467  0.3037
 1021MOL0     C37714   7.424   9.182   1.288  0.9381  0.3353  0.0122
 1021MOL0     C37715   7.573   9.182   1.286  0.2100  0.4423 -0.0522
 1021MOL0     C37716   7.631   9.316   1.311 -0.0126 -0.4021  0.4739
 1021MOL0     N37717   7.774   9.324   1.341 -0.4342 -0.3890  0.6672
 1021MOL0     C37718   7.870   9.289   1.252  0.4375 -0.2749 -0.9482
 1021MOL0     C37719   7.981   9.341   1.313 -0.6276 -0.0238 -0.0488
 1021MOL0     C37720   8.113   9.320   1.248 -0.7243 -0.2950  0.2803
 1021MOL0     C37721   8.236   9.358   1.339 -0.5179  0.0285 -0.3962
 1021MOL0     C37722   8.376   9.379   1.271  0.3070  0.4881  0.2212
 1021MOL0     C37723   8.477   9.425   1.376  0.1026 -0.0607  0.0789
 1021MOL0     O37724   8.545   9.310   1.423 -0.5662  0.0281  0.3000
 1021MOL0     C37725   8.687   9.316   1.415 -0.2014 -0.4408 -0.6273
 1021MOL0     C37726   8.760   9.192   1.409  0.1429  0.2428 -0.2809
 1021MOL0     C37727   8.897   9.185   1.434 -0.2971 -0.2714  0.3368
 1021MOL0     C37728   8.968   9.299   1.472 -0.5903 -0.1560 -0.2575
 1021MOL0     C37729   9.106   9.287   1.503  0.0071  0.2380 -0.9164
 1021MOL0     O37730   9.177   9.173   1.479  0.3189  0.4821 -0.3540
 1021MOL0     C37731   9.315   9.182   1.485 -0.1326 -0.6668  0.7732
 1021MOL0     C37732   9.387   9.176   1.365 -0.7023 -0.7400 -0.5305
 1021MOL0     C37733   9.524   9.162   1.366 -0.5080  0.2285 -0.1510
 1021MOL0     C37734   9.597   9.167   1.485  0.2944  0.6163  0.3476
 1021MOL0     O37735   9.731   9.151   1.471  0.0227  0.5374  0.8276
 1021MOL0     C37736   9.814   9.130   1.587  0.5246 -0.4313 -0.0340
 1021MOL0     C37737   9.902   9.249   1.613  0.4849 -0.4607 -0.7401
 1021MOL0     C37738   9.997   9.285   1.502 -0.0416  0.0344 -0.1409
 1021MOL0     C37739  10.054   9.427   1.525  1.1976 -0.2597 -0.1280
 1021MOL0     C37740  10.166   9.474   1.429  0.1535  1.3865  0.1280
 1021MOL0     C37741  10.209   9.618   1.453 -0.2607  0.3312 -0.2524
 1021MOL0     C37742  10.293   9.647   1.575  0.7272  0.3328  0.7543
 1021MOL0     C37743  10.407   9.543   1.590 -0.4507  0.4535 -0.1911
 1021MOL0    Cl37744  10.510   9.590   1.737  0.5306 -0.2748  0.5010
 1021MOL0     C37745   9.531   9.193   1.608  0.3415  0.1241 -0.0572
 1021MOL0     C37746   9.392   9.185   1.601 -0.9559 -0.1549  0.1077
 1021MOL0     O37747   9.165   9.397   1.524 -0.0207 -0.6465  0.1909
 1021MOL0     C37748   8.899   9.420   1.478 -0.5679 -0.7013 -0.0785
 1021MOL0     C37749   8.764   9.428   1.459 -0.5253  0.6361  0.6554
 1021MOL0     N37750   7.952   9.411   1.429 -0.4877  0.2214 -0.3959
 1021MOL0     N37751   7.827   9.382   1.452  0.4177 -0.0483 -0.0925
 1021MOL0     C37752   6.631   9.239   1.048  0.8416  0.7093  0.4974
 1021MOL0     C37753   6.511   9.199   0.976 -0.3015 -0.0160  0.0035
 1021MOL0     C37754   6.223   9.005   0.697  0.3228 -0.1920 -0.0603
 1021MOL0     C37755   6.217   8.956   0.563  0.5048 -0.2175 -0.6162
 1021MOL0     C37756   6.104   8.891   0.520  0.6170 -0.2003  0.0027
 1021MOL0     C37757   5.996   8.872   0.602  0.0218  0.6179 -0.1918
 1021MOL0     O37758   5.874   8.814   0.560 -0.0457  0.3085 -1.0386
 1021MOL0     C37759   5.824   8.839   0.427  0.5443  0.2029  1.2626
 1021MOL0     C37760   5.819   8.712   0.337  0.0770 -1.4972 -0.1227
 1021MOL0     C37761   5.949   8.619   0.338  0.9916 -0.3594  0.0797
 1021MOL0     C37762   5.961   8.530   0.208  0.4362  0.1479 -0.1442
 1021MOL0     C37763   5.848   8.441   0.191  0.8242 -0.2918 -0.3497
 1021MOL0     C37764   5.751   8.369   0.184 -0.2283 -0.2182  0.0395
 1021MOL0     C37765   5.993   8.914   0.731  0.0004  0.1869 -0.4239
 1021MOL0     C37766   6.104   8.985   0.776  0.3096  0.0911  0.3541
 1021MOL0     C37767   6.104   9.054   0.915  0.2241  0.1479  0.0797
 1021MOL0     H37768   6.597   8.891   0.884  2.2820  2.2980 -2.8398
 1021MOL0     H37769   6.807   8.951   0.992 -2.4271 -1.6194 -2.2002
 1021MOL0     H37770   6.950   9.351   1.113 -1.3730  2.7147  0.4572
 1021MOL0     H37771   6.811   9.367   1.215  1.4790  1.2427 -0.5222
 1021MOL0     H37772   6.953   9.201   1.373  0.1362  0.0840  0.7975
 1021MOL0     H37773   6.996   9.377   1.341  0.1546  0.4037 -0.9987
 1021MOL0     H37774   7.120   9.156   1.166  0.1293  0.2327  0.8940
 1021MOL0     H37775   7.162   9.153   1.328 -1.4726  0.2705  0.8159
 1021MOL0     H37776   7.191   9.398   1.148  0.8807  1.8092  0.6704
 1021MOL0     H37777   7.242   9.392   1.312  3.2439 -0.9387  0.2037
 1021MOL0     H37778   7.343   9.217   1.088 -0.7848  0.2006  0.3953
 1021MOL0     H37779   7.429   9.356   1.159 -1.1126  1.0912  1.2668
 1021MOL0     H37780   7.382   9.209   1.385 -0.8965  1.9737 -1.1542
 1021MOL0     H37781   7.393   9.078   1.277  2.4352 -0.4253  2.4206
 1021MOL0     H37782   7.603   9.141   1.189 -1.5541 -2.8876  0.6469
 1021MOL0     H37783   7.613   9.108   1.357 -0.0409 -1.3463 -1.7013
 1021MOL0     H37784   7.619   9.374   1.219  3.8665 -1.5032 -0.9307
 1021MOL0     H37785   7.577   9.361   1.395  1.6550 -0.3213  1.5763
 1021MOL0     H37786   7.865   9.242   1.154  1.2424  3.0251 -2.7241
 1021MOL0     H37787   8.121   9.222   1.201 -1.6929 -0.8342  1.1844
 1021MOL0     H37788   8.102   9.401   1.176 -3.1737  1.0053  1.9511
 1021MOL0     H37789   8.210   9.450   1.393 -0.6565 -1.7957  2.8621
 1021MOL0     H37790   8.249   9.273   1.407 -0.3911  1.7456  1.8578
 1021MOL0     H37791   8.360   9.455   1.193  0.3217  0.0781 -0.1858
 1021MOL0     H37792   8.409   9.288   1.220 -0.2906  0.3785  0.0275
 1021MOL0     H37793   8.430   9.479   1.458  1.8101 -0.8997  1.7033
 1021MOL0     H37794   8.547   9.494   1.328 -0.9950  0.4963 -0.7790
 1021MOL0     H37795   8.699   9.104   1.392  0.7391  0.1676 -2.2921
 1021MOL0     H37796   8.948   9.091   1.417 -2.2651 -1.1755 -0.9404
 1021MOL0     H37797   9.341   9.169   1.268  3.0418  0.7792 -2.6384
 1021MOL0     H37798   9.580   9.129   1.279  2.2199 -0.4840  1.7333
 1021MOL0     H37799   9.766   9.098   1.680  1.2100 -0.3613  0.3478
 1021MOL0     H37800   9.879   9.049   1.553  1.5113  0.0371  0.6933
 1021MOL0     H37801   9.836   9.335   1.626  2.6948  1.1910  0.3249
 1021MOL0     H37802   9.947   9.227   1.711 -1.2768 -0.0013  0.2215
 1021MOL0     H37803  10.076   9.211   1.510  0.9671  1.3148  3.1593
 1021MOL0     H37804   9.960   9.286   1.399 -1.8681  0.5028  0.4835
 1021MOL0     H37805  10.086   9.444   1.629  2.8360  1.0644 -0.8020
 1021MOL0     H37806   9.968   9.494   1.514  3.0396  1.9288 -2.4397
 1021MOL0     H37807  10.120   9.474   1.329  1.3373 -0.4267 -0.4745
 1021MOL0     H37808  10.252   9.406   1.433  0.4103  1.7146  0.2385
 1021MOL0     H37809  10.258   9.645   1.359  0.4931  2.2675  0.6337
 1021MOL0     H37810  10.114   9.672   1.455 -0.4846 -0.0907  1.0977
 1021MOL0     H37811  10.227   9.630   1.660 -2.8475 -3.0573 -2.2547
 1021MOL0     H37812  10.326   9.751   1.570  0.5799  0.3337 -0.8039
 1021MOL0     H37813  10.370   9.442   1.611  0.6558  0.3952  1.7313
 1021MOL0     H37814  10.468   9.546   1.500  1.9940 -0.6623  1.3173
 1021MOL0     H37815   9.582   9.210   1.702  2.1639 -2.1384 -0.5506
 1021MOL0     H37816   9.326   9.194   1.687 -2.3590  0.2861 -0.9886
 1021MOL0     H37817   8.954   9.510   1.506 -1.3999 -0.2362  0.0834
 1021MOL0     H37818   8.723   9.529   1.468  1.0879  1.2397  1.6307
 1021MOL0     H37819   6.638   9.338   1.093  1.2401  1.4327 -1.0680
 1021MOL0     H37820   6.425   9.264   0.969  0.1234  0.3574 -3.2770
 1021MOL0     H37821   6.294   8.982   0.491  1.1242  1.9824  0.7438
 1021MOL0     H37822   6.092   8.856   0.418 -3.6218  0.4613  0.0712
 1021MOL0     H37823   5.887   8.910   0.373 -1.2975  2.0382  1.4215
 1021MOL0     H37824   5.726   8.888   0.427  0.8864  0.9036  1.5500
 1021MOL0     H37825   5.802   8.749   0.235  0.0289  4.1466  1.5499
 1021MOL0     H37826   5.734   8.664   0.385 -0.5044 -0.6288 -0.2524
 1021MOL0     H37827   5.937   8.561   0.430  1.8928  0.8243  0.9761
 1021MOL0     H37828   6.041   8.678   0.340  0.9909 -0.3373 -0.3594
 1021MOL0     H37829   5.976   8.590   0.118 -0.4123 -4.2979 -3.5937
 1021MOL0     H37830   6.051   8.471   0.229 -1.6940 -2.7887  1.5229
 1021MOL0     H37831   5.659   8.316   0.165 -0.7700  1.7619 -4.1642
 1021MOL0     H37832   5.899   8.908   0.784 -0.1866 -2.3840 -0.9516
 1021MOL0     H37833   6.133   9.159   0.910  4.1024 -0.8474 -2.0685
 1021MOL0     H37834   6.009   9.047   0.970  0.8753  0.8074  1.3145
 1021MOL0     H37835   6.184   9.018   0.980  0.9750  4.2378  1.7286
 1022MOL0     O37836   5.641   2.251   4.896  0.4692  0.4363 -0.1030
 1022MOL0     C37837   5.532   2.311   4.882  0.0891  0.4344 -0.2411
 1022MOL0     O37838   5.523   2.449   4.892  0.1869  0.4293  0.1925
 1022MOL0     C37839   5.631   2.521   4.925  0.0086 -0.5882 -0.5760
 1022MOL0     C37840   5.671   2.633   4.846 -0.0182  0.1688 -0.0682
 1022MOL0     C37841   5.776   2.717   4.895 -0.6108  0.1924  0.2827
 1022MOL0     C37842   5.818   2.707   5.025 -0.2133  0.1690  0.3657
 1022MOL0     O37843   5.918   2.783   5.078  0.2886 -0.0265 -0.4250
 1022MOL0     C37844   5.884   2.857   5.195 -0.2919 -0.5067 -0.1962
 1022MOL0     C37845   5.849   2.999   5.144 -0.2094  0.3652  0.0217
 1022MOL0     C37846   5.819   3.090   5.262 -0.0084  0.2746 -0.1581
 1022MOL0     C37847   5.672   3.067   5.316 -0.3598  0.4999  0.3679
 1022MOL0     C37848   5.650   3.122   5.457  0.4151 -0.0909  0.3077
 1022MOL0     C37849   5.665   3.263   5.482  0.1777  0.7073  0.4844
 1022MOL0     C37850   5.635   3.303   5.635  0.1139  0.3663  0.1886
 1022MOL0     C37851   5.709   3.213   5.734 -0.8506 -0.7224  0.9027
 1022MOL0     N37852   5.855   3.246   5.727  0.8359  0.7683 -0.2030
 1022MOL0     C37853   5.947   3.163   5.683 -0.0592 -0.5241  0.0445
 1022MOL0     C37854   6.050   3.246   5.657  0.0303 -0.2250 -0.0390
 1022MOL0     C37855   6.183   3.196   5.598  0.1183 -0.1140 -0.0042
 1022MOL0     C37856   6.291   3.312   5.589  0.1505  0.7415 -0.8638
 1022MOL0     C37857   6.323   3.385   5.729 -0.3435 -0.7398  0.8654
 1022MOL0     C37858   6.458   3.454   5.726 -0.1049  0.5164 -0.2841
 1022MOL0     O37859   6.558   3.352   5.746  0.3852 -0.0001 -0.1924
 1022MOL0     C37860   6.687   3.392   5.757  0.7473 -0.1277  0.7388
 1022MOL0     C37861   6.777   3.287   5.780 -0.1392  0.3519  0.1538
 1022MOL0     C37862   6.902   3.320   5.821 -0.2921 -0.5039 -0.0556
 1022MOL0     C37863   6.955   3.454   5.805  0.0344  1.0253  0.4110
 1022MOL0     C37864   7.092   3.491   5.833 -0.2340  0.1887 -0.6818
 1022MOL0     O37865   7.177   3.380   5.857 -0.0018  0.0077  0.5211
 1022MOL0     C37866   7.313   3.399   5.863 -0.3601 -0.1475  0.4964
 1022MOL0     C37867   7.391   3.315   5.938  0.8030  0.2726  0.6356
 1022MOL0     C37868   7.535   3.321   5.947  1.0470 -0.1605 -0.1033
 1022MOL0     C37869   7.600   3.422   5.875  0.0096  1.2221  0.3007
 1022MOL0     O37870   7.731   3.436   5.889  0.0811 -0.0333  0.0744
 1022MOL0     C37871   7.764   3.558   5.955 -1.1799  0.0581 -0.2908
 1022MOL0     C37872   7.920   3.549   5.983 -0.0994 -0.6343 -0.5490
 1022MOL0     C37873   7.967   3.460   6.100  0.3629  0.4213 -0.1667
 1022MOL0     C37874   8.110   3.483   6.117 -0.6245  0.0027  0.5073
 1022MOL0     C37875   8.169   3.386   6.224 -0.0298  1.1685 -1.1071
 1022MOL0     C37876   8.317   3.406   6.255 -0.2564  0.4080 -0.4545
 1022MOL0     C37877   8.337   3.541   6.321  0.5193 -0.0782 -0.4779
 1022MOL0     C37878   8.478   3.570   6.380 -0.3632 -0.1364 -0.1320
 1022MOL0    Cl37879   8.613   3.541   6.257 -0.2206 -0.4728  0.0017
 1022MOL0     C37880   7.526   3.491   5.785 -0.1431 -0.4530 -0.3449
 1022MOL0     C37881   7.382   3.475   5.770  0.1893  0.1352 -0.4876
 1022MOL0     O37882   7.122   3.609   5.826  0.6009 -0.3952  0.0736
 1022MOL0     C37883   6.864   3.547   5.761  1.1792 -0.4435  0.8887
 1022MOL0     C37884   6.726   3.517   5.728 -0.3348  0.4357  0.4946
 1022MOL0     N37885   6.017   3.375   5.677  0.0237  0.0995 -0.0437
 1022MOL0     N37886   5.903   3.377   5.737 -0.3946  0.7315  0.4672
 1022MOL0     C37887   5.772   2.597   5.104  0.1476  0.8381 -0.3474
 1022MOL0     C37888   5.682   2.508   5.054 -0.1180 -0.0732 -0.5108
 1022MOL0     C37889   5.411   2.227   4.839  0.4040 -0.8468 -0.7641
 1022MOL0     C37890   5.292   2.296   4.800 -0.7281 -0.2625 -0.0097
 1022MOL0     C37891   5.180   2.237   4.750  0.8076  0.2039  0.2586
 1022MOL0     C37892   5.174   2.092   4.743  0.6658 -0.1077 -0.5103
 1022MOL0     O37893   5.070   2.010   4.698  0.3970  0.0048  1.1835
 1022MOL0     C37894   4.949   2.075   4.667  0.1662 -0.3655 -0.1477
 1022MOL0     C37895   4.878   2.105   4.796  0.7005  0.4478  0.5496
 1022MOL0     C37896   4.744   2.183   4.788  0.3960  0.2616 -0.7250
 1022MOL0     C37897   4.708   2.246   4.922  0.2035  0.1762 -0.8660
 1022MOL0     C37898   4.804   2.354   4.959 -0.4693  0.5373  0.6117
 1022MOL0     C37899   4.877   2.446   4.978  0.2232 -0.3267 -0.7782
 1022MOL0     C37900   5.287   2.027   4.794  0.5458 -0.0206  0.1042
 1022MOL0     C37901   5.405   2.084   4.839 -0.5619  0.0597  0.0560
 1022MOL0     C37902   5.511   1.981   4.887  0.7016 -0.2882 -0.4396
 1022MOL0     H37903   5.635   2.651   4.745 -0.8906  2.3019  0.5768
 1022MOL0     H37904   5.806   2.796   4.828  0.1270  0.3141  0.7510
 1022MOL0     H37905   5.803   2.810   5.252  0.2927 -1.1551  0.1088
 1022MOL0     H37906   5.972   2.854   5.259 -0.1339  0.4158 -0.3561
 1022MOL0     H37907   5.760   2.991   5.083  0.3533 -2.5366 -0.5465
 1022MOL0     H37908   5.935   3.025   5.082 -0.2182 -1.3782 -0.7770
 1022MOL0     H37909   5.822   3.193   5.226 -1.2749  0.2820 -0.2885
 1022MOL0     H37910   5.889   3.096   5.346 -2.8202 -0.8264  2.4135
 1022MOL0     H37911   5.607   3.127   5.251  0.5723 -0.1570 -1.2492
 1022MOL0     H37912   5.632   2.966   5.303 -1.0188  0.7630  0.2726
 1022MOL0     H37913   5.548   3.100   5.491  1.0619  0.4572  2.7829
 1022MOL0     H37914   5.719   3.065   5.520 -0.0258 -0.9999 -0.0193
 1022MOL0     H37915   5.762   3.300   5.448  0.4519 -0.8668 -0.5624
 1022MOL0     H37916   5.594   3.319   5.421  1.2157  0.3293 -1.1521
 1022MOL0     H37917   5.528   3.290   5.655 -0.0854  0.1632 -0.9499
 1022MOL0     H37918   5.650   3.410   5.654 -3.5546  1.4991 -2.2855
 1022MOL0     H37919   5.668   3.241   5.831  1.2811 -0.6150  1.8293
 1022MOL0     H37920   5.679   3.110   5.712  0.2992 -0.2654 -3.9703
 1022MOL0     H37921   5.937   3.056   5.666 -0.7736 -0.1979 -1.8624
 1022MOL0     H37922   6.227   3.120   5.663  0.3209  0.5866  0.6967
 1022MOL0     H37923   6.156   3.158   5.499  1.8486  0.9944 -0.9508
 1022MOL0     H37924   6.386   3.268   5.556  0.8968 -0.3887  2.4275
 1022MOL0     H37925   6.249   3.391   5.526  0.9797  1.4693 -0.5241
 1022MOL0     H37926   6.331   3.306   5.805 -1.7475 -0.4051  1.3855
 1022MOL0     H37927   6.241   3.450   5.761  0.4825  0.5141  0.5085
 1022MOL0     H37928   6.458   3.518   5.815  0.4435 -1.6750  1.3755
 1022MOL0     H37929   6.464   3.505   5.629 -1.1810 -1.3039 -1.3570
 1022MOL0     H37930   6.729   3.191   5.767 -2.7256  1.0672  3.1283
 1022MOL0     H37931   6.965   3.234   5.842 -0.0572 -0.0981  0.9846
 1022MOL0     H37932   7.341   3.245   6.004  0.0579  1.9553  1.9452
 1022MOL0     H37933   7.589   3.259   6.018 -0.1311 -0.6609  0.3894
 1022MOL0     H37934   7.742   3.643   5.891 -0.6633  1.9130  1.8748
 1022MOL0     H37935   7.710   3.579   6.048 -1.5866  1.8642 -0.8987
 1022MOL0     H37936   7.965   3.511   5.891  3.7028  0.8728  0.4979
 1022MOL0     H37937   7.944   3.655   5.995 -0.6244 -0.4409 -1.1058
 1022MOL0     H37938   7.912   3.477   6.193 -0.8470  0.3467 -0.8437
 1022MOL0     H37939   7.955   3.357   6.064 -3.1527  1.1388 -1.4490
 1022MOL0     H37940   8.129   3.588   6.140  1.4313  0.4604 -2.6648
 1022MOL0     H37941   8.167   3.463   6.027  0.1700  0.0192  0.9976
 1022MOL0     H37942   8.145   3.286   6.186  2.4272  0.3539 -0.6775
 1022MOL0     H37943   8.113   3.404   6.316 -1.6339  0.5557 -1.9324
 1022MOL0     H37944   8.353   3.333   6.327  0.4513  0.4855 -0.7272
 1022MOL0     H37945   8.365   3.396   6.157 -3.0289  0.2499 -1.9275
 1022MOL0     H37946   8.268   3.545   6.405  1.4742 -1.8981  0.4571
 1022MOL0     H37947   8.323   3.624   6.250  1.5300  1.3752  0.9496
 1022MOL0     H37948   8.491   3.673   6.413  0.7924  0.3844 -2.0114
 1022MOL0     H37949   8.489   3.502   6.465 -0.9384 -0.4141 -0.2786
 1022MOL0     H37950   7.584   3.552   5.716  0.2706  0.2957  0.6442
 1022MOL0     H37951   7.327   3.529   5.694 -2.6060 -1.0701  0.5522
 1022MOL0     H37952   6.893   3.650   5.746 -1.1211  0.1117 -0.0436
 1022MOL0     H37953   6.662   3.601   5.702 -0.0945  0.2990 -0.6154
 1022MOL0     H37954   5.809   2.561   5.200 -2.2229 -1.1618 -0.0597
 1022MOL0     H37955   5.660   2.426   5.122  1.7584 -0.6753 -0.5776
 1022MOL0     H37956   5.303   2.403   4.815  1.0298 -0.2305 -1.2216
 1022MOL0     H37957   5.087   2.290   4.736  0.9802  0.5793  0.5318
 1022MOL0     H37958   4.873   2.014   4.618  2.4405 -1.8644 -2.0139
 1022MOL0     H37959   4.954   2.170   4.614  3.3154 -0.2351  0.2356
 1022MOL0     H37960   4.948   2.155   4.863  0.4384  1.5765  0.0142
 1022MOL0     H37961   4.850   2.008   4.838 -1.4114  1.8926  2.7062
 1022MOL0     H37962   4.663   2.115   4.760 -0.8587  1.5770 -0.4367
 1022MOL0     H37963   4.740   2.248   4.700 -2.1486  0.7367 -0.3473
 1022MOL0     H37964   4.603   2.277   4.921 -0.1117 -0.6469  1.0966
 1022MOL0     H37965   4.712   2.161   4.992 -2.3489  0.1920 -0.6067
 1022MOL0     H37966   4.950   2.522   4.997 -1.5325  0.8873  1.7894
 1022MOL0     H37967   5.274   1.919   4.792 -0.1910  0.0659  0.0048
 1022MOL0     H37968   5.518   1.996   4.995 -3.3996  0.3201 -0.0982
 1022MOL0     H37969   5.470   1.880   4.878 -1.4017  0.2372  2.0872
 1022MOL0     H37970   5.603   2.004   4.832 -0.2126 -1.0465 -2.4045
 1023MOL0     O37971   7.608   1.062   2.918  0.2010 -0.6685 -0.7403
 1023MOL0     C37972   7.559   1.171   2.948 -0.3510  0.2055  0.0057
 1023MOL0     O37973   7.632   1.280   2.991  0.6127  0.2494  0.5383
 1023MOL0     C37974   7.767   1.275   2.990 -0.0039  0.1503  0.2192
 1023MOL0     C37975   7.828   1.332   3.098  0.3321 -0.7679 -0.5029
 1023MOL0     C37976   7.959   1.309   3.121  0.1712  0.1198 -0.3518
 1023MOL0     C37977   8.035   1.231   3.037 -0.5239  0.4097 -0.6413
 1023MOL0     O37978   8.171   1.228   3.074  0.2534 -0.2776  0.5216
 1023MOL0     C37979   8.234   1.101   3.054 -0.5740 -0.0209 -0.0693
 1023MOL0     C37980   8.312   1.093   2.916 -0.5247 -0.6665  0.0701
 1023MOL0     C37981   8.331   0.952   2.875  0.5255  0.3303  0.1803
 1023MOL0     C37982   8.461   0.892   2.925  0.4001 -0.0559  0.2805
 1023MOL0     C37983   8.482   0.751   2.860 -0.4820  0.1670  0.2142
 1023MOL0     C37984   8.619   0.690   2.892 -0.6683  0.1008  0.1509
 1023MOL0     C37985   8.632   0.576   2.802 -0.7866 -0.3439  0.6761
 1023MOL0     C37986   8.760   0.496   2.820  0.3128  0.1839 -0.5358
 1023MOL0     N37987   8.882   0.575   2.808  0.1790  0.2898 -0.5286
 1023MOL0     C37988   8.976   0.599   2.906 -0.5228  0.2406 -0.1834
 1023MOL0     C37989   9.088   0.648   2.854 -0.2328 -0.3267  0.2595
 1023MOL0     C37990   9.205   0.700   2.925  0.6194 -0.6840  0.3557
 1023MOL0     C37991   9.303   0.607   2.976  0.5403  0.4173 -0.2183
 1023MOL0     C37992   9.353   0.514   2.860 -1.0985  0.4565  1.2922
 1023MOL0     C37993   9.508   0.512   2.848 -0.1746  0.2448 -0.8121
 1023MOL0     O37994   9.562   0.444   2.965 -0.8385  0.4387  0.1698
 1023MOL0     C37995   9.699   0.433   2.983 -0.0152  0.6251  0.0003
 1023MOL0     C37996   9.736   0.371   3.103 -0.1953  0.2570 -0.5347
 1023MOL0     C37997   9.874   0.350   3.131 -0.2114  0.1545 -0.5161
 1023MOL0     C37998   9.971   0.372   3.034 -0.3781 -0.2140  0.0832
 1023MOL0     C37999  10.118   0.351   3.056 -0.4634 -0.5712  0.7847
 1023MOL0     O38000  10.196   0.382   2.955 -0.5701  1.2525  0.1582
 1023MOL0     C38001  10.333   0.380   2.981  0.3099  0.6671 -0.5037
 1023MOL0     C38002  10.407   0.263   2.985  0.9983  0.6204  0.5698
 1023MOL0     C38003  10.551   0.262   2.997  0.0667  0.3685  0.3685
 1023MOL0     C38004  10.617   0.379   3.023  0.9107  0.5299  0.6769
 1023MOL0     O38005  10.754   0.366   3.049  0.4951  0.9780 -0.2754
 1023MOL0     C38006  10.841   0.482   3.053 -0.0351  0.1403  0.2093
 1023MOL0     C38007  10.970   0.443   2.974 -0.5730  0.8766  0.2405
 1023MOL0     C38008  11.087   0.543   2.985  0.3272  1.3133 -0.5933
 1023MOL0     C38009  11.229   0.499   2.944 -0.0359 -0.2306  0.0581
 1023MOL0     C38010  11.326   0.617   3.000  0.0537 -0.2116  0.4880
 1023MOL0     C38011  11.470   0.570   2.993 -0.0287  1.4291 -0.2307
 1023MOL0     C38012  11.502   0.535   2.843 -0.4097  0.7061  0.4655
 1023MOL0     C38013  11.649   0.580   2.817  0.1160  0.6638 -0.7972
 1023MOL0    Cl38014  11.763   0.471   2.895  0.1598 -0.1789 -0.1499
 1023MOL0     C38015  10.543   0.494   3.030  0.4113 -0.8696 -0.6525
 1023MOL0     C38016  10.404   0.495   3.010  0.3901 -0.5776 -0.4034
 1023MOL0     O38017  10.151   0.342   3.171  0.4087  0.8999  0.8529
 1023MOL0     C38018   9.932   0.426   2.911 -0.7268  0.4020 -0.1620
 1023MOL0     C38019   9.795   0.451   2.882 -0.6898  0.5940  0.3076
 1023MOL0     N38020   9.062   0.667   2.718 -0.8131  0.2628  0.0475
 1023MOL0     N38021   8.942   0.620   2.699 -0.2069 -0.2878  0.4695
 1023MOL0     C38022   7.981   1.173   2.927  0.3761 -0.5516 -0.7471
 1023MOL0     C38023   7.851   1.207   2.900  0.1277 -0.3164  0.4927
 1023MOL0     C38024   7.410   1.187   2.961  0.4887  0.5805  0.2237
 1023MOL0     C38025   7.360   1.292   3.035  0.0190 -0.0338 -0.1391
 1023MOL0     C38026   7.219   1.306   3.055 -0.2082 -0.0872 -0.1556
 1023MOL0     C38027   7.130   1.222   2.989 -0.1253  1.1845  0.2902
 1023MOL0     O38028   6.991   1.247   3.002  0.0578  0.0998 -0.0823
 1023MOL0     C38029   6.912   1.209   2.890  0.4174 -0.1814 -0.1949
 1023MOL0     C38030   6.774   1.267   2.888 -0.1404  0.3771 -0.2065
 1023MOL0     C38031   6.685   1.198   2.779  0.0983 -0.0241  0.1020
 1023MOL0     C38032   6.551   1.260   2.756 -0.2194 -0.2573 -0.2287
 1023MOL0     C38033   6.479   1.249   2.884 -0.0432  0.6167 -0.1432
 1023MOL0     C38034   6.417   1.254   2.991 -0.2589  0.5425 -0.1170
 1023MOL0     C38035   7.186   1.122   2.911  0.4230  0.0940 -0.4889
 1023MOL0     C38036   7.321   1.095   2.896 -0.0397 -0.3505  0.5452
 1023MOL0     C38037   7.367   0.979   2.803  0.0512 -0.8606  0.0306
 1023MOL0     H38038   7.768   1.404   3.153  1.1950  1.7435 -2.6100
 1023MOL0     H38039   7.994   1.345   3.217 -1.8275  0.4621  0.2762
 1023MOL0     H38040   8.307   1.084   3.133 -0.2430  2.9957  0.3810
 1023MOL0     H38041   8.154   1.026   3.057  0.4552 -1.1377  0.3282
 1023MOL0     H38042   8.406   1.147   2.931 -1.8533  1.7073  0.4055
 1023MOL0     H38043   8.254   1.154   2.846 -2.5939 -1.2249  1.1907
 1023MOL0     H38044   8.324   0.950   2.766 -2.7569  1.3816  0.2604
 1023MOL0     H38045   8.243   0.893   2.899  2.4828 -2.7423  0.3402
 1023MOL0     H38046   8.543   0.954   2.888 -1.1880  1.4777 -0.8072
 1023MOL0     H38047   8.466   0.879   3.033 -0.5010 -5.3466 -0.0154
 1023MOL0     H38048   8.409   0.685   2.909  0.1964 -0.1802  0.7742
 1023MOL0     H38049   8.468   0.780   2.755 -0.7995 -0.8464 -0.0408
 1023MOL0     H38050   8.700   0.763   2.893 -2.2126  2.0332  3.7130
 1023MOL0     H38051   8.613   0.658   2.997  1.3482 -1.3534 -0.1242
 1023MOL0     H38052   8.641   0.619   2.702 -1.2266 -0.2207  0.6870
 1023MOL0     H38053   8.550   0.503   2.804 -0.6626 -0.4813  2.9358
 1023MOL0     H38054   8.750   0.457   2.922  1.7307  3.0611  0.8202
 1023MOL0     H38055   8.763   0.415   2.747 -1.0855  0.0845 -0.5103
 1023MOL0     H38056   8.952   0.570   3.007 -1.1139 -1.9739 -0.8919
 1023MOL0     H38057   9.250   0.774   2.858 -1.7622 -0.7682 -1.4414
 1023MOL0     H38058   9.174   0.760   3.011  3.3162  0.2913  0.7495
 1023MOL0     H38059   9.384   0.661   3.026  1.1746  0.1068 -0.8931
 1023MOL0     H38060   9.260   0.539   3.050  2.8592  0.6046  1.3890
 1023MOL0     H38061   9.313   0.546   2.763 -2.5354 -1.7987  1.0776
 1023MOL0     H38062   9.327   0.411   2.884  0.4834  0.0009  1.1857
 1023MOL0     H38063   9.545   0.614   2.862  1.5190 -0.5337  1.0070
 1023MOL0     H38064   9.552   0.481   2.753  2.0904  0.2023  0.1820
 1023MOL0     H38065   9.662   0.355   3.181 -1.3534  0.8566 -1.4849
 1023MOL0     H38066   9.892   0.306   3.229 -1.6555  0.8393  0.0964
 1023MOL0     H38067  10.355   0.168   2.979  2.4647 -0.1386 -1.2498
 1023MOL0     H38068  10.594   0.162   2.990  0.8937  0.7555 -0.1938
 1023MOL0     H38069  10.798   0.570   3.004  0.0639  0.7264  1.1609
 1023MOL0     H38070  10.867   0.507   3.156  2.8477  1.2790 -0.6871
 1023MOL0     H38071  11.014   0.348   3.006  1.3836  0.6011 -2.8851
 1023MOL0     H38072  10.947   0.432   2.868 -0.0023 -2.4621  0.3628
 1023MOL0     H38073  11.059   0.633   2.929 -1.5578  0.1613 -1.6422
 1023MOL0     H38074  11.095   0.563   3.092  0.3235  1.3921 -0.6075
 1023MOL0     H38075  11.238   0.499   2.835 -1.0365  1.8524 -0.0847
 1023MOL0     H38076  11.249   0.399   2.983 -2.2590 -0.6704  0.2299
 1023MOL0     H38077  11.305   0.646   3.103  1.3390 -1.6990  1.2019
 1023MOL0     H38078  11.309   0.700   2.930 -0.6330 -1.2748 -0.6484
 1023MOL0     H38079  11.540   0.644   3.032  0.6404 -0.7059  2.9904
 1023MOL0     H38080  11.481   0.484   3.060 -1.0353  0.5265 -1.1900
 1023MOL0     H38081  11.436   0.590   2.776 -0.1827  0.9738  0.4589
 1023MOL0     H38082  11.479   0.433   2.809 -0.8297  0.4282  1.5391
 1023MOL0     H38083  11.677   0.596   2.713  0.5841  2.3329 -0.4480
 1023MOL0     H38084  11.668   0.675   2.868  1.3604  0.8838 -1.6152
 1023MOL0     H38085  10.584   0.594   3.042 -0.1399 -0.9085  2.0582
 1023MOL0     H38086  10.344   0.585   3.006  0.2940 -0.5409  1.3380
 1023MOL0     H38087   9.998   0.438   2.826 -2.6544 -0.0963 -1.8085
 1023MOL0     H38088   9.777   0.485   2.781  0.1472  0.5264  0.1295
 1023MOL0     H38089   8.031   1.113   2.852  0.4917 -0.5523 -0.6690
 1023MOL0     H38090   7.798   1.160   2.817  1.2882 -0.2425 -0.3180
 1023MOL0     H38091   7.418   1.355   3.102 -0.7263 -1.2300  1.6728
 1023MOL0     H38092   7.174   1.374   3.127  0.3114 -2.3349  2.4710
 1023MOL0     H38093   6.916   1.100   2.878 -0.9671 -0.2689  0.0173
 1023MOL0     H38094   6.961   1.259   2.806 -0.7952  2.1764  0.4324
 1023MOL0     H38095   6.787   1.375   2.873 -0.4891  0.5097  0.4257
 1023MOL0     H38096   6.729   1.232   2.981  0.5211 -0.7550 -0.2984
 1023MOL0     H38097   6.664   1.095   2.809 -1.1843  0.0827 -0.3353
 1023MOL0     H38098   6.741   1.193   2.685  0.9868  0.1580  0.6132
 1023MOL0     H38099   6.554   1.367   2.736 -0.3498 -0.6815 -3.0058
 1023MOL0     H38100   6.495   1.216   2.673 -2.6094  0.2490  1.0244
 1023MOL0     H38101   6.361   1.247   3.082 -0.4037 -1.2790 -0.3168
 1023MOL0     H38102   7.122   1.063   2.847 -1.1871  0.2868  0.8741
 1023MOL0     H38103   7.421   1.020   2.717 -1.4363  0.2763 -0.3832
 1023MOL0     H38104   7.426   0.901   2.853  0.7550 -3.4027 -4.2625
 1023MOL0     H38105   7.283   0.934   2.750 -0.6725  2.5695 -2.0325
 1024MOL0     O38106   9.347   4.738   8.975 -0.7215 -0.2053 -0.7418
 1024MOL0     C38107   9.329   4.686   9.085  0.0409  0.5332  1.1471
 1024MOL0     O38108   9.385   4.716   9.205  0.6024 -0.1298  0.4346
 1024MOL0     C38109   9.494   4.792   9.211 -0.1697 -0.7876  0.4587
 1024MOL0     C38110   9.601   4.824   9.122  1.3951  0.3319 -0.4347
 1024MOL0     C38111   9.691   4.917   9.158 -0.4063 -0.8443 -0.5275
 1024MOL0     C38112   9.694   4.977   9.287  0.0401  0.0067  0.1286
 1024MOL0     O38113   9.797   5.053   9.330 -0.2174  0.6090  0.3472
 1024MOL0     C38114   9.926   5.032   9.274 -0.6032 -0.0851 -0.1244
 1024MOL0     C38115  10.038   5.103   9.366 -0.8777  0.9579  0.1119
 1024MOL0     C38116  10.048   5.252   9.343 -0.2313  0.1024  0.9828
 1024MOL0     C38117  10.150   5.321   9.435 -0.4129  0.1386 -0.0860
 1024MOL0     C38118  10.297   5.288   9.398 -0.5618 -0.2037 -0.7368
 1024MOL0     C38119  10.360   5.368   9.284 -0.4741  0.2311  0.8460
 1024MOL0     C38120  10.473   5.316   9.203 -0.0783  0.7547 -0.4461
 1024MOL0     C38121  10.606   5.401   9.198 -0.6030 -0.6406 -0.0014
 1024MOL0     N38122  10.583   5.540   9.149  0.1776  1.0416 -0.9843
 1024MOL0     C38123  10.521   5.560   9.031 -0.3039 -0.2500 -0.1474
 1024MOL0     C38124  10.550   5.691   9.000  0.0514  0.8643  0.6828
 1024MOL0     C38125  10.511   5.761   8.872  0.7403  0.2978  0.9604
 1024MOL0     C38126  10.631   5.803   8.784  0.2183 -0.2296 -0.2521
 1024MOL0     C38127  10.663   5.950   8.800  0.3904 -0.6090 -0.4372
 1024MOL0     C38128  10.550   6.041   8.750  0.5894 -0.2318 -0.0329
 1024MOL0     O38129  10.580   6.180   8.767 -0.0327 -0.4892 -0.1413
 1024MOL0     C38130  10.503   6.264   8.697 -0.7093 -0.4592  0.1245
 1024MOL0     C38131  10.582   6.349   8.618 -0.2847 -0.2464 -0.8878
 1024MOL0     C38132  10.515   6.458   8.548 -0.1299  0.4280 -0.5207
 1024MOL0     C38133  10.376   6.462   8.549 -0.1632 -0.5719  0.3407
 1024MOL0     C38134  10.306   6.575   8.492  0.9118  0.2599  0.4935
 1024MOL0     O38135  10.367   6.670   8.419 -0.1284  0.4052  0.6318
 1024MOL0     C38136  10.296   6.778   8.360 -0.4773 -0.3750 -0.3541
 1024MOL0     C38137  10.360   6.907   8.353  0.6743 -0.5433  0.1891
 1024MOL0     C38138  10.288   7.010   8.282  0.0550  0.9175 -0.2547
 1024MOL0     C38139  10.167   6.989   8.223  0.6807 -0.3663 -0.2488
 1024MOL0     O38140  10.099   7.077   8.144  0.4942  0.2408  0.0733
 1024MOL0     C38141  10.175   7.157   8.052  0.2211  0.6426  0.3285
 1024MOL0     C38142  10.180   7.302   8.102 -0.5981  0.0720 -0.7285
 1024MOL0     C38143  10.297   7.373   8.029  0.5266  0.1367 -0.4274
 1024MOL0     C38144  10.353   7.506   8.085 -0.2284 -0.3287  0.5080
 1024MOL0     C38145  10.480   7.541   8.010 -0.1435 -0.7268  0.6112
 1024MOL0     C38146  10.442   7.636   7.894  0.0769  0.6147 -0.3902
 1024MOL0     C38147  10.558   7.699   7.834 -0.0251  1.1628  0.5705
 1024MOL0     C38148  10.623   7.815   7.913  0.0878 -0.6873  0.4910
 1024MOL0    Cl38149  10.759   7.894   7.823 -0.4372 -0.3346  0.4755
 1024MOL0     C38150  10.108   6.872   8.243  0.4406 -0.2637  0.3512
 1024MOL0     C38151  10.168   6.766   8.301  0.4364 -0.8130  0.1043
 1024MOL0     O38152  10.191   6.579   8.518 -0.4507  0.1515 -0.0531
 1024MOL0     C38153  10.305   6.361   8.614 -0.2555  0.3528  0.8107
 1024MOL0     C38154  10.364   6.261   8.689 -0.8658 -1.0213  0.0817
 1024MOL0     N38155  10.627   5.741   9.101 -0.0555 -0.1438  0.6483
 1024MOL0     N38156  10.642   5.653   9.193 -0.1897 -0.9388 -0.1287
 1024MOL0     C38157   9.593   4.942   9.374  0.7463  0.3506 -0.6584
 1024MOL0     C38158   9.493   4.857   9.338 -0.0949 -0.0943  0.7084
 1024MOL0     C38159   9.208   4.597   9.098  0.8465 -0.6341 -0.4889
 1024MOL0     C38160   9.139   4.610   9.219  0.1174 -1.2570 -0.1556
 1024MOL0     C38161   9.021   4.546   9.231  0.7363  0.3576  0.6265
 1024MOL0     C38162   8.959   4.458   9.138  0.2193  0.0813 -0.3096
 1024MOL0     O38163   8.848   4.391   9.178 -0.4381 -0.4341 -0.2041
 1024MOL0     C38164   8.770   4.322   9.082  1.1981  0.4159 -0.4975
 1024MOL0     C38165   8.633   4.391   9.056  0.0458 -0.0814 -0.6850
 1024MOL0     C38166   8.538   4.283   8.995  0.4095 -0.6968 -0.8164
 1024MOL0     C38167   8.390   4.331   8.992 -0.5679 -0.3466 -0.2776
 1024MOL0     C38168   8.309   4.223   8.932 -0.0898 -0.7794  0.7706
 1024MOL0     C38169   8.248   4.124   8.884  0.1600 -0.3231  1.0363
 1024MOL0     C38170   9.030   4.460   9.015  0.7822 -0.0305 -0.4645
 1024MOL0     C38171   9.148   4.522   8.997 -0.2392 -0.6848 -0.0736
 1024MOL0     C38172   9.204   4.515   8.852 -1.0511 -0.2769  0.1530
 1024MOL0     H38173   9.611   4.778   9.024  2.3941  0.6613 -0.4955
 1024MOL0     H38174   9.773   4.931   9.088 -0.0302  1.2160  0.2579
 1024MOL0     H38175   9.944   4.926   9.292 -0.6593 -0.0963 -0.1348
 1024MOL0     H38176   9.924   5.068   9.170 -0.3103  0.2108 -0.0275
 1024MOL0     H38177  10.134   5.055   9.342 -1.3648 -0.0513  0.1391
 1024MOL0     H38178  10.011   5.080   9.469  2.4763 -0.2429  0.8377
 1024MOL0     H38179   9.949   5.295   9.362 -0.0253  0.7350  0.6731
 1024MOL0     H38180  10.074   5.271   9.238 -2.4527  0.9136  0.5276
 1024MOL0     H38181  10.136   5.429   9.445 -4.3338 -0.2128 -0.5689
 1024MOL0     H38182  10.132   5.280   9.535  3.8368  2.5916  2.0048
 1024MOL0     H38183  10.355   5.304   9.489 -3.4674  3.6933  0.7332
 1024MOL0     H38184  10.302   5.184   9.365  0.5408 -0.8442  1.2790
 1024MOL0     H38185  10.283   5.390   9.210  0.5598  0.1301 -0.2861
 1024MOL0     H38186  10.390   5.463   9.330 -0.6225 -1.3108  4.5334
 1024MOL0     H38187  10.435   5.310   9.101  0.6551 -0.7200 -0.6670
 1024MOL0     H38188  10.498   5.216   9.242 -1.0199  0.6995  0.0431
 1024MOL0     H38189  10.646   5.401   9.300 -1.8915 -0.8319  0.5257
 1024MOL0     H38190  10.681   5.367   9.126 -1.0846  1.2664 -1.4836
 1024MOL0     H38191  10.467   5.484   8.976  1.6643 -1.3063 -0.7189
 1024MOL0     H38192  10.450   5.696   8.809  0.9405  1.3221 -0.3525
 1024MOL0     H38193  10.446   5.840   8.910  1.5645  1.2817  0.4045
 1024MOL0     H38194  10.714   5.737   8.810  0.9051  0.5693 -0.3868
 1024MOL0     H38195  10.608   5.782   8.679 -3.2245 -0.2797  0.4047
 1024MOL0     H38196  10.759   5.967   8.749 -0.0058 -1.5745 -1.5549
 1024MOL0     H38197  10.671   5.977   8.905 -3.2180  0.7298 -0.3585
 1024MOL0     H38198  10.458   6.005   8.796  0.7193 -1.6129 -0.7930
 1024MOL0     H38199  10.535   6.021   8.643 -0.0448 -0.1648  0.0422
 1024MOL0     H38200  10.691   6.343   8.614 -0.2298 -1.0521  0.9952
 1024MOL0     H38201  10.565   6.535   8.490 -3.4566  2.6426 -0.7317
 1024MOL0     H38202  10.463   6.920   8.385  0.6708 -0.2999  0.1056
 1024MOL0     H38203  10.343   7.098   8.249  0.7430 -0.5003 -3.2932
 1024MOL0     H38204  10.278   7.119   8.047  0.3381  0.9587  0.2846
 1024MOL0     H38205  10.134   7.157   7.950  1.5151 -1.0965 -0.2451
 1024MOL0     H38206  10.085   7.356   8.102 -0.4358  0.3742  0.1208
 1024MOL0     H38207  10.210   7.300   8.207 -0.1721 -0.4140 -0.8558
 1024MOL0     H38208  10.381   7.303   8.032  0.6676  0.3019 -0.4746
 1024MOL0     H38209  10.262   7.374   7.926  1.4045  0.8844 -0.7368
 1024MOL0     H38210  10.381   7.489   8.190  0.3299  1.4753  0.6945
 1024MOL0     H38211  10.284   7.591   8.095  1.1466  0.8191  0.7120
 1024MOL0     H38212  10.530   7.452   7.970  2.2904  1.2423 -1.0636
 1024MOL0     H38213  10.558   7.583   8.074  1.7895  0.1689 -2.1337
 1024MOL0     H38214  10.395   7.576   7.815 -0.7292  3.5200 -2.2866
 1024MOL0     H38215  10.369   7.714   7.917 -0.4244 -0.9008  4.0907
 1024MOL0     H38216  10.527   7.721   7.731  0.8784 -0.3212 -0.0449
 1024MOL0     H38217  10.631   7.618   7.828  0.3265  1.4279  1.1761
 1024MOL0     H38218  10.546   7.892   7.926 -1.1243 -1.9468  0.9466
 1024MOL0     H38219  10.665   7.795   8.012  2.4920 -0.0642 -0.3286
 1024MOL0     H38220  10.012   6.867   8.192  0.2032  0.0233  0.7684
 1024MOL0     H38221  10.119   6.669   8.298  0.6589 -0.9101 -0.9726
 1024MOL0     H38222  10.198   6.362   8.600 -0.2093 -5.7040 -3.8720
 1024MOL0     H38223  10.310   6.197   8.758 -0.5004 -1.0688  0.3296
 1024MOL0     H38224   9.592   4.974   9.477  0.8644 -0.2802 -0.4573
 1024MOL0     H38225   9.415   4.838   9.411 -0.8912 -2.2856 -0.6069
 1024MOL0     H38226   9.169   4.690   9.286 -3.5725  1.1825 -1.1315
 1024MOL0     H38227   8.969   4.579   9.320  0.2510  0.8071  0.1857
 1024MOL0     H38228   8.748   4.232   9.139 -0.5442  0.9485 -0.2530
 1024MOL0     H38229   8.802   4.292   8.982  0.3077 -1.8627 -0.1462
 1024MOL0     H38230   8.650   4.475   8.988  0.0098 -0.0075 -0.6042
 1024MOL0     H38231   8.589   4.424   9.151  1.1820  0.2993 -0.2822
 1024MOL0     H38232   8.555   4.194   9.056  2.7110 -1.6390 -2.6786
 1024MOL0     H38233   8.562   4.246   8.895 -1.6560 -2.3114 -0.7848
 1024MOL0     H38234   8.355   4.356   9.092  0.0803 -1.6442  0.2982
 1024MOL0     H38235   8.384   4.425   8.936  2.0636 -1.0363 -1.9048
 1024MOL0     H38236   8.187   4.053   8.833 -0.3912  1.0441 -0.2833
 1024MOL0     H38237   8.999   4.398   8.931 -3.8868  1.7931 -0.3557
 1024MOL0     H38238   9.313   4.518   8.838 -0.6743 -1.8100  2.3539
 1024MOL0     H38239   9.178   4.419   8.807 -2.8501  1.1944 -2.1647
 1024MOL0     H38240   9.154   4.597   8.799  0.2102  0.7308  0.4709
  11.30405  11.30405  11.30405
